Protein in INSANE! Membrane UpperLeaflet>POPC=1.0 LowerLeaflet>POPC=1.0
248096
    1AU     AUC    1  15.235   5.680   7.505
    1AU     AUC    2  15.503   5.686   7.337
    1AU     AUC    3  15.510   5.683   7.664
    1AU     AUC    4  14.962   5.675   7.341
    1AU     AUC    5  14.967   5.676   7.672
    1AU     AUC    6  15.059   5.939   7.509
    1AU     AUC    7  15.390   5.943   7.505
    1AU     AUC    8  15.078   5.414   7.506
    1AU     AUC    9  15.410   5.418   7.499
    1AU     AUC   10  15.247   5.521   7.767
    1AU     AUC   11  15.235   5.843   7.776
    1AU     AUC   12  15.237   5.518   7.238
    1AU     AUC   13  15.227   5.844   7.239
    1AU     AUC   14  15.765   5.712   7.173
    1AU     AUC   15  15.800   5.690   7.495
    1AU     AUC   16  15.779   5.698   7.816
    1AU     AUC   17  14.703   5.657   7.170
    1AU     AUC   18  14.686   5.660   7.507
    1AU     AUC   19  14.708   5.657   7.841
    1AU     AUC   20  14.886   6.176   7.513
    1AU     AUC   21  15.226   6.213   7.510
    1AU     AUC   22  15.522   6.206   7.504
    1AU     AUC   23  14.939   5.135   7.512
    1AU     AUC   24  15.247   5.136   7.501
    1AU     AUC   25  15.584   5.165   7.489
    1AU     AUC   26  15.272   5.374   8.025
    1AU     AUC   27  15.254   5.677   8.050
    1AU     AUC   28  15.246   6.013   8.032
    1AU     AUC   29  15.250   5.373   6.971
    1AU     AUC   30  15.229   5.673   6.969
    1AU     AUC   31  15.223   6.021   6.992
    1AU     AUC   32  15.518   5.518   7.936
    1AU     AUC   33  15.520   5.852   7.955
    1AU     AUC   34  15.499   5.533   7.044
    1AU     AUC   35  15.512   5.866   7.070
    1AU     AUC   36  14.968   5.525   7.950
    1AU     AUC   37  14.953   5.846   7.949
    1AU     AUC   38  14.957   5.515   7.063
    1AU     AUC   39  14.939   5.842   7.069
    1AU     AUC   40  15.670   5.949   7.341
    1AU     AUC   41  15.675   5.940   7.672
    1AU     AUC   42  14.780   5.942   7.330
    1AU     AUC   43  14.781   5.939   7.682
    1AU     AUC   44  15.683   5.415   7.329
    1AU     AUC   45  15.701   5.412   7.638
    1AU     AUC   46  14.800   5.401   7.331
    1AU     AUC   47  14.808   5.399   7.687
    1AU     AUC   48  15.055   6.114   7.794
    1AU     AUC   49  15.382   6.119   7.785
    1AU     AUC   50  15.093   5.239   7.762
    1AU     AUC   51  15.440   5.257   7.770
    1AU     AUC   52  15.046   6.106   7.221
    1AU     AUC   53  15.374   6.128   7.226
    1AU     AUC   54  15.074   5.240   7.249
    1AU     AUC   55  15.423   5.254   7.225
    1AU    AUSL   56  15.701   5.651   8.136
    1AU    AUSL   57  15.596   5.226   8.074
    1AU     AUL   58  15.963   5.407   8.188
    1AU       S   59  15.891   4.901   8.295
    1AU     LIG   60  16.039   4.664   8.689
    1AU     LIG   61  16.204   4.221   8.718
    1AU       S   62  15.744   5.433   8.652
    1AU     LIG   63  15.866   5.608   9.069
    1AU     LIG   64  16.102   5.600   9.480
    1AU    AUSL   65  15.408   5.484   8.249
    1AU    AUSL   66  15.094   5.834   8.187
    1AU     AUL   67  15.234   5.704   8.529
    1AU       S   68  15.499   5.244   8.599
    1AU     LIG   69  15.450   5.293   9.073
    1AU     LIG   70  15.621   5.385   9.504
    1AU       S   71  14.475   5.414   8.774
    1AU     LIG   72  14.585   5.672   9.166
    1AU     LIG   73  14.545   5.804   9.612
    1AU    AUSL   74  15.430   5.878   8.259
    1AU    AUSL   75  15.824   5.963   7.992
    1AU     AUL   76  15.795   5.868   8.375
    1AU       S   77  15.414   6.195   8.604
    1AU     LIG   78  15.741   6.138   8.940
    1AU     LIG   79  15.778   6.003   9.391
    1AU       S   80  16.134   6.238   8.274
    1AU     LIG   81  16.562   6.403   8.478
    1AU     LIG   82  16.943   6.729   8.485
    1AU    AUSL   83  15.706   5.740   6.839
    1AU    AUSL   84  15.527   6.147   6.910
    1AU     AUL   85  15.539   6.021   6.562
    1AU       S   86  15.908   5.719   6.377
    1AU     LIG   87  16.159   5.812   5.976
    1AU     LIG   88  16.122   5.515   5.596
    1AU       S   89  15.956   6.327   6.650
    1AU     LIG   90  16.198   6.678   6.393
    1AU     LIG   91  16.447   6.965   6.097
    1AU    AUSL   92  15.435   5.508   6.735
    1AU    AUSL   93  15.720   5.463   7.070
    1AU     AUL   94  15.832   5.401   6.761
    1AU       S   95  15.907   4.585   6.727
    1AU     LIG   96  16.324   4.521   6.546
    1AU     LIG   97  16.664   4.278   6.338
    1AU       S   98  15.605   5.462   6.305
    1AU     LIG   99  15.514   5.211   5.908
    1AU     LIG  100  15.641   5.275   5.464
    1AU    AUSL  101  15.373   5.848   6.832
    1AU    AUSL  102  15.077   5.506   6.733
    1AU     AUL  103  15.234   5.768   6.508
    1AU       S  104  14.821   5.516   6.288
    1AU     LIG  105  14.980   5.320   5.878
    1AU     LIG  106  14.739   5.327   5.467
    1AU       S  107  15.885   5.448   6.174
    1AU     LIG  108  15.685   5.684   5.817
    1AU     LIG  109  15.732   5.777   5.353
    1AU    AUSL  110  14.768   5.656   8.160
    1AU    AUSL  111  14.948   6.144   8.098
    1AU     AUL  112  14.898   5.949   8.429
    1AU       S  113  14.488   5.605   8.492
    1AU     LIG  114  14.270   5.889   8.808
    1AU     LIG  115  14.127   5.883   9.275
    1AU       S  116  14.569   6.346   8.329
    1AU     LIG  117  14.439   6.703   8.581
    1AU     LIG  118  14.103   6.805   8.875
    1AU    AUSL  119  15.064   5.490   8.271
    1AU    AUSL  120  14.653   5.371   7.973
    1AU     AUL  121  14.815   5.246   8.286
    1AU       S  122  14.307   5.146   8.204
    1AU     LIG  123  13.911   4.842   8.284
    1AU     LIG  124  13.734   4.652   8.682
    1AU       S  125  14.770   5.510   8.708
    1AU     LIG  126  14.920   5.296   9.098
    1AU     LIG  127  14.807   5.330   9.554
    1AU    AUSL  128  14.754   5.620   6.853
    1AU    AUSL  129  14.973   5.274   6.981
    1AU     AUL  130  14.848   5.224   6.693
    1AU       S  131  14.491   5.554   6.483
    1AU     LIG  132  14.223   5.738   6.103
    1AU     LIG  133  14.210   5.661   5.617
    1AU       S  134  14.374   4.879   6.632
    1AU     LIG  135  14.348   4.446   6.450
    1AU     LIG  136  14.059   4.135   6.196
    1AU    AUSL  137  15.036   5.849   6.842
    1AU    AUSL  138  14.657   5.941   7.000
    1AU     AUL  139  14.813   5.939   6.623
    1AU       S  140  14.345   6.134   6.707
    1AU     LIG  141  14.029   6.373   6.424
    1AU     LIG  142  13.689   6.592   6.163
    1AU       S  143  14.558   5.380   6.188
    1AU     LIG  144  14.664   5.713   5.840
    1AU     LIG  145  14.648   5.851   5.387
    1AU    AUSL  146  15.839   6.142   7.487
    1AU    AUSL  147  15.825   5.997   7.065
    1AU     AUL  148  15.947   6.361   7.218
    1AU       S  149  16.127   6.084   6.776
    1AU     LIG  150  16.368   6.175   6.349
    1AU     LIG  151  16.695   6.537   6.295
    1AU       S  152  16.686   6.053   7.565
    1AU     LIG  153  16.891   6.474   7.565
    1AU     LIG  154  16.870   6.767   7.241
    1AU    AUSL  155  16.003   5.864   7.334
    1AU    AUSL  156  16.035   5.530   7.639
    1AU     AUL  157  16.306   5.650   7.361
    1AU       S  158  16.400   6.145   7.430
    1AU     LIG  159  16.675   6.308   7.110
    1AU     LIG  160  17.110   6.273   7.129
    1AU       S  161  16.464   5.201   7.577
    1AU     LIG  162  16.808   4.941   7.779
    1AU     LIG  163  17.149   4.731   8.040
    1AU    AUSL  164  15.990   5.880   7.697
    1AU    AUSL  165  15.626   6.174   7.751
    1AU     AUL  166  15.969   6.267   7.786
    1AU       S  167  16.127   6.564   8.277
    1AU     LIG  168  16.512   6.860   8.223
    1AU     LIG  169  16.700   7.215   8.490
    1AU       S  170  16.412   5.996   7.765
    1AU     LIG  171  16.740   6.257   8.014
    1AU     LIG  172  17.203   6.240   7.910
    1AU    AUSL  173  14.589   6.132   7.520
    1AU    AUSL  174  14.645   5.940   7.976
    1AU     AUL  175  14.318   6.109   7.771
    1AU       S  176  14.382   6.066   8.297
    1AU     LIG  177  14.074   6.343   8.544
    1AU     LIG  178  13.695   6.646   8.602
    1AU       S  179  14.415   6.574   7.523
    1AU     LIG  180  14.020   6.685   7.283
    1AU     LIG  181  13.629   6.533   7.087
    1AU    AUSL  182  14.518   5.825   7.294
    1AU    AUSL  183  14.730   6.238   7.220
    1AU     AUL  184  14.367   6.119   7.228
    1AU       S  185  14.150   5.698   6.955
    1AU     LIG  186  13.679   5.743   7.109
    1AU     LIG  187  13.323   6.048   7.109
    1AU       S  188  14.438   6.560   6.980
    1AU     LIG  189  14.105   6.775   6.744
    1AU     LIG  190  13.996   6.975   6.334
    1AU    AUSL  191  14.498   5.803   7.696
    1AU    AUSL  192  14.461   5.497   7.344
    1AU     AUL  193  14.226   5.843   7.470
    1AU       S  194  14.001   5.391   7.354
    1AU     LIG  195  13.660   5.218   7.092
    1AU     LIG  196  13.238   5.076   7.128
    1AU       S  197  14.135   5.686   8.027
    1AU     LIG  198  13.658   5.753   7.898
    1AU     LIG  199  13.338   6.089   7.827
    1AU    AUSL  200  15.893   5.216   7.477
    1AU    AUSL  201  15.777   5.447   7.863
    1AU     AUL  202  16.059   5.254   7.860
    1AU       S  203  16.216   4.951   7.458
    1AU     LIG  204  16.468   4.590   7.544
    1AU     LIG  205  16.865   4.433   7.697
    1AU       S  206  15.946   4.584   8.208
    1AU     LIG  207  16.384   4.528   8.317
    1AU     LIG  208  16.695   4.302   8.570
    1AU    AUSL  209  15.982   5.510   7.291
    1AU    AUSL  210  15.708   5.102   7.192
    1AU     AUL  211  16.011   5.263   7.066
    1AU       S  212  16.421   5.138   7.324
    1AU     LIG  213  16.822   4.877   7.272
    1AU     LIG  214  17.291   4.944   7.182
    1AU       S  215  15.960   4.757   6.992
    1AU     LIG  216  16.258   4.366   7.038
    1AU     LIG  217  16.458   4.027   6.758
    1AU    AUSL  218  14.705   5.247   7.504
    1AU    AUSL  219  14.635   5.368   7.071
    1AU     AUL  220  14.434   5.123   7.330
    1AU       S  221  14.331   5.168   6.821
    1AU     LIG  222  13.911   5.041   6.641
    1AU     LIG  223  13.933   4.710   6.300
    1AU       S  224  13.814   5.454   7.525
    1AU     LIG  225  13.605   5.068   7.587
    1AU     LIG  226  13.451   4.728   7.430
    1AU    AUSL  227  14.487   5.464   7.689
    1AU    AUSL  228  14.791   5.084   7.809
    1AU     AUL  229  14.457   5.106   7.707
    1AU       S  230  14.490   4.838   8.129
    1AU     LIG  231  14.216   4.503   8.036
    1AU     LIG  232  13.917   4.326   8.346
    1AU       S  233  14.026   5.380   7.649
    1AU     LIG  234  13.806   5.266   8.010
    1AU     LIG  235  13.364   5.311   7.986
    1AU    AUSL  236  15.251   6.327   7.986
    1AU    AUSL  237  14.754   6.243   7.807
    1AU     AUL  238  14.937   6.518   7.993
    1AU       S  239  14.431   6.519   8.064
    1AU     LIG  240  14.055   6.773   8.238
    1AU     LIG  241  13.974   7.147   8.511
    1AU       S  242  15.340   6.745   8.211
    1AU     LIG  243  15.369   7.088   8.549
    1AU     LIG  244  15.397   7.555   8.474
    1AU    AUSL  245  15.045   6.379   7.672
    1AU    AUSL  246  15.375   6.466   7.336
    1AU     AUL  247  15.042   6.679   7.452
    1AU       S  248  15.272   7.045   8.067
    1AU     LIG  249  15.081   7.472   8.029
    1AU     LIG  250  14.690   7.749   8.037
    1AU       S  251  15.455   6.925   7.236
    1AU     LIG  252  15.634   7.414   7.234
    1AU     LIG  253  15.469   7.753   6.946
    1AU    AUSL  254  15.399   6.438   7.678
    1AU    AUSL  255  15.536   6.156   8.088
    1AU     AUL  256  15.651   6.462   7.921
    1AU       S  257  15.829   6.392   8.393
    1AU     LIG  258  16.022   6.584   8.763
    1AU     LIG  259  16.424   6.828   8.741
    1AU       S  260  15.375   6.881   7.829
    1AU     LIG  261  15.481   7.345   7.723
    1AU     LIG  262  15.542   7.730   7.983
    1AU    AUSL  263  15.286   5.105   7.968
    1AU    AUSL  264  15.727   5.086   7.766
    1AU     AUL  265  15.488   4.840   7.993
    1AU       S  266  14.724   4.378   8.107
    1AU     LIG  267  14.816   3.976   8.347
    1AU     LIG  268  14.964   3.528   8.256
    1AU       S  269  15.999   4.743   7.938
    1AU     LIG  270  16.202   4.273   7.907
    1AU     LIG  271  16.362   3.979   8.259
    1AU    AUSL  272  15.071   4.917   7.700
    1AU    AUSL  273  15.006   5.289   7.994
    1AU     AUL  274  15.015   4.926   8.090
    1AU       S  275  14.809   4.535   7.799
    1AU     LIG  276  14.522   4.161   7.709
    1AU     LIG  277  14.694   3.788   7.896
    1AU       S  278  14.390   4.893   8.408
    1AU     LIG  279  14.382   4.448   8.526
    1AU     LIG  280  14.082   4.270   8.831
    1AU    AUSL  281  15.417   4.988   7.665
    1AU    AUSL  282  15.072   4.904   7.344
    1AU     AUL  283  15.311   4.658   7.551
    1AU       S  284  14.857   4.488   7.299
    1AU     LIG  285  14.563   4.084   7.186
    1AU     LIG  286  14.727   3.627   7.110
    1AU       S  287  14.953   4.277   7.949
    1AU     LIG  288  15.205   3.882   7.900
    1AU     LIG  289  15.531   3.612   8.109
    1AU    AUSL  290  15.244   6.335   7.023
    1AU    AUSL  291  15.603   6.214   7.252
    1AU     AUL  292  15.609   6.475   7.026
    1AU       S  293  15.284   6.842   6.879
    1AU     LIG  294  15.200   7.253   6.591
    1AU     LIG  295  15.229   7.728   6.504
    1AU       S  296  16.288   6.380   6.786
    1AU     LIG  297  16.602   6.745   6.763
    1AU     LIG  298  16.791   7.084   6.473
    1AU    AUSL  299  15.047   6.323   7.334
    1AU    AUSL  300  14.938   6.171   6.934
    1AU     AUL  301  14.935   6.530   7.084
    1AU       S  302  15.505   7.048   6.940
    1AU     LIG  303  15.157   7.346   7.086
    1AU     LIG  304  14.848   7.592   6.841
    1AU       S  305  14.580   6.408   6.707
    1AU     LIG  306  14.437   6.663   6.340
    1AU     LIG  307  14.162   6.647   5.947
    1AU    AUSL  308  15.246   5.106   7.084
    1AU    AUSL  309  14.794   5.073   7.213
    1AU     AUL  310  15.009   4.887   6.953
    1AU       S  311  14.483   4.843   6.911
    1AU     LIG  312  14.201   4.470   6.967
    1AU     LIG  313  13.918   4.285   6.664
    1AU       S  314  15.037   4.243   7.164
    1AU     LIG  315  14.923   3.966   6.797
    1AU     LIG  316  14.925   3.531   6.579
    1AU    AUSL  317  15.436   4.953   7.333
    1AU    AUSL  318  15.521   5.206   6.902
    1AU     AUL  319  15.443   4.835   7.006
    1AU       S  320  14.970   4.184   7.451
    1AU     LIG  321  15.151   3.771   7.385
    1AU     LIG  322  15.252   3.590   6.973
    1AU       S  323  15.813   4.889   6.655
    1AU     LIG  324  15.943   4.693   6.229
    1AU     LIG  325  16.180   4.299   6.074
    2AU     AUC  326   1.619  21.064   7.508
    2AU     AUC  327   1.889  21.073   7.339
    2AU     AUC  328   1.893  21.069   7.666
    2AU     AUC  329   1.346  21.058   7.346
    2AU     AUC  330   1.351  21.058   7.676
    2AU     AUC  331   1.442  21.322   7.512
    2AU     AUC  332   1.773  21.328   7.506
    2AU     AUC  333   1.463  20.796   7.509
    2AU     AUC  334   1.796  20.804   7.500
    2AU     AUC  335   1.630  20.902   7.770
    2AU     AUC  336   1.618  21.225   7.779
    2AU     AUC  337   1.622  20.903   7.241
    2AU     AUC  338   1.610  21.229   7.242
    2AU     AUC  339   2.152  21.104   7.175
    2AU     AUC  340   2.186  21.080   7.496
    2AU     AUC  341   2.162  21.085   7.818
    2AU     AUC  342   1.085  21.039   7.177
    2AU     AUC  343   1.070  21.042   7.512
    2AU     AUC  344   1.094  21.037   7.846
    2AU     AUC  345   1.269  21.560   7.517
    2AU     AUC  346   1.609  21.597   7.512
    2AU     AUC  347   1.904  21.592   7.504
    2AU     AUC  348   1.325  20.516   7.511
    2AU     AUC  349   1.634  20.523   7.501
    2AU     AUC  350   1.973  20.555   7.490
    2AU     AUC  351   1.655  20.753   8.028
    2AU     AUC  352   1.636  21.057   8.053
    2AU     AUC  353   1.629  21.395   8.035
    2AU     AUC  354   1.637  20.759   6.973
    2AU     AUC  355   1.612  21.057   6.972
    2AU     AUC  356   1.604  21.405   6.995
    2AU     AUC  357   1.902  20.902   7.939
    2AU     AUC  358   1.902  21.234   7.958
    2AU     AUC  359   1.886  20.922   7.046
    2AU     AUC  360   1.896  21.254   7.072
    2AU     AUC  361   1.352  20.901   7.954
    2AU     AUC  362   1.337  21.226   7.952
    2AU     AUC  363   1.340  20.900   7.069
    2AU     AUC  364   1.321  21.225   7.074
    2AU     AUC  365   2.054  21.338   7.342
    2AU     AUC  366   2.058  21.325   7.673
    2AU     AUC  367   1.162  21.324   7.335
    2AU     AUC  368   1.165  21.322   7.687
    2AU     AUC  369   2.073  20.806   7.330
    2AU     AUC  370   2.087  20.801   7.639
    2AU     AUC  371   1.184  20.783   7.336
    2AU     AUC  372   1.194  20.779   7.692
    2AU     AUC  373   1.440  21.497   7.797
    2AU     AUC  374   1.763  21.502   7.788
    2AU     AUC  375   1.478  20.619   7.764
    2AU     AUC  376   1.826  20.641   7.772
    2AU     AUC  377   1.427  21.490   7.224
    2AU     AUC  378   1.756  21.514   7.227
    2AU     AUC  379   1.461  20.624   7.251
    2AU     AUC  380   1.810  20.643   7.225
    2AU    AUSL  381   2.083  21.037   8.140
    2AU    AUSL  382   1.980  20.609   8.075
    2AU     AUL  383   2.344  20.792   8.192
    2AU       S  384   2.281  20.287   8.296
    2AU     LIG  385   2.317  20.030   8.695
    2AU     LIG  386   2.467  19.587   8.691
    2AU       S  387   2.130  20.832   8.659
    2AU     LIG  388   2.271  20.997   9.080
    2AU     LIG  389   2.505  21.008   9.495
    2AU    AUSL  390   1.792  20.866   8.252
    2AU    AUSL  391   1.475  21.212   8.187
    2AU     AUL  392   1.616  21.085   8.531
    2AU       S  393   1.892  20.633   8.603
    2AU     LIG  394   1.879  20.650   9.083
    2AU     LIG  395   2.112  20.655   9.500
    2AU       S  396   0.864  20.803   8.787
    2AU     LIG  397   0.968  21.086   9.161
    2AU     LIG  398   0.927  21.197   9.614
    2AU    AUSL  399   1.809  21.259   8.263
    2AU    AUSL  400   2.206  21.348   7.993
    2AU     AUL  401   2.173  21.260   8.374
    2AU       S  402   1.795  21.579   8.608
    2AU     LIG  403   2.151  21.534   8.917
    2AU     LIG  404   2.220  21.430   9.369
    2AU       S  405   2.527  21.609   8.255
    2AU     LIG  406   2.992  21.670   8.358
    2AU     LIG  407   3.158  21.977   8.707
    2AU    AUSL  408   2.090  21.133   6.840
    2AU    AUSL  409   1.906  21.532   6.908
    2AU     AUL  410   1.900  21.401   6.560
    2AU       S  411   2.318  21.149   6.401
    2AU     LIG  412   2.570  21.298   5.998
    2AU     LIG  413   2.648  21.059   5.596
    2AU       S  414   2.303  21.717   6.625
    2AU     LIG  415   2.481  21.954   6.233
    2AU     LIG  416   2.691  22.304   5.970
    2AU    AUSL  417   1.820  20.895   6.736
    2AU    AUSL  418   2.111  20.856   7.072
    2AU     AUL  419   2.214  20.793   6.755
    2AU       S  420   2.300  19.965   6.733
    2AU     LIG  421   2.716  20.109   6.604
    2AU     LIG  422   2.976  20.098   6.225
    2AU       S  423   2.017  20.889   6.294
    2AU     LIG  424   2.006  20.634   5.876
    2AU     LIG  425   2.230  20.702   5.460
    2AU    AUSL  426   1.753  21.231   6.838
    2AU    AUSL  427   1.459  20.885   6.738
    2AU     AUL  428   1.610  21.143   6.510
    2AU       S  429   1.201  20.882   6.298
    2AU     LIG  430   1.358  20.705   5.885
    2AU     LIG  431   1.111  20.703   5.480
    2AU       S  432   2.308  20.912   6.176
    2AU     LIG  433   2.153  21.115   5.771
    2AU     LIG  434   2.247  21.225   5.310
    2AU    AUSL  435   1.151  21.034   8.164
    2AU    AUSL  436   1.335  21.527   8.101
    2AU     AUL  437   1.286  21.329   8.431
    2AU       S  438   0.873  20.994   8.503
    2AU     LIG  439   0.608  21.236   8.827
    2AU     LIG  440   0.488  21.225   9.300
    2AU       S  441   0.963  21.733   8.329
    2AU     LIG  442   0.937  21.933   8.734
    2AU     LIG  443   0.708  22.266   8.947
    2AU    AUSL  444   1.445  20.866   8.274
    2AU    AUSL  445   1.038  20.747   7.976
    2AU     AUL  446   1.182  20.621   8.290
    2AU       S  447   0.679  20.513   8.200
    2AU     LIG  448   0.282  20.368   8.489
    2AU     LIG  449   0.102  19.970   8.706
    2AU       S  450   1.159  20.889   8.713
    2AU     LIG  451   1.262  20.674   9.120
    2AU     LIG  452   1.033  20.689   9.532
    2AU    AUSL  453   1.136  21.000   6.859
    2AU    AUSL  454   1.356  20.664   6.993
    2AU     AUL  455   1.222  20.600   6.712
    2AU       S  456   0.870  20.926   6.487
    2AU     LIG  457   0.555  21.004   6.098
    2AU     LIG  458   0.580  20.940   5.599
    2AU       S  459   0.529  20.279   6.869
    2AU     LIG  460   0.638  19.972   6.522
    2AU     LIG  461   0.456  19.609   6.279
    2AU    AUSL  462   1.417  21.230   6.848
    2AU    AUSL  463   1.040  21.320   7.005
    2AU     AUL  464   1.199  21.310   6.624
    2AU       S  465   0.734  21.497   6.711
    2AU     LIG  466   0.527  21.730   6.363
    2AU     LIG  467   0.184  22.030   6.251
    2AU       S  468   0.948  20.729   6.207
    2AU     LIG  469   1.005  21.069   5.863
    2AU     LIG  470   1.072  21.218   5.425
    2AU    AUSL  471   2.219  21.533   7.490
    2AU    AUSL  472   2.210  21.387   7.064
    2AU     AUL  473   2.346  21.740   7.220
    2AU       S  474   2.496  21.505   6.762
    2AU     LIG  475   2.788  21.557   6.379
    2AU     LIG  476   2.990  21.892   6.101
    2AU       S  477   2.897  21.722   7.782
    2AU     LIG  478   3.079  22.035   7.484
    2AU     LIG  479   3.464  21.982   7.243
    2AU    AUSL  480   2.389  21.262   7.338
    2AU    AUSL  481   2.417  20.922   7.642
    2AU     AUL  482   2.696  21.063   7.395
    2AU       S  483   2.800  21.556   7.486
    2AU     LIG  484   3.288  21.551   7.477
    2AU     LIG  485   3.744  21.549   7.330
    2AU       S  486   2.851  20.586   7.568
    2AU     LIG  487   3.224  20.276   7.650
    2AU     LIG  488   3.584  20.252   7.962
    2AU    AUSL  489   2.373  21.272   7.699
    2AU    AUSL  490   2.000  21.548   7.752
    2AU     AUL  491   2.337  21.658   7.785
    2AU       S  492   2.522  21.765   8.533
    2AU     LIG  493   2.775  22.125   8.321
    2AU     LIG  494   2.828  22.595   8.351
    2AU       S  495   2.787  21.400   7.810
    2AU     LIG  496   3.236  21.401   7.970
    2AU     LIG  497   3.683  21.442   7.835
    2AU    AUSL  498   0.970  21.514   7.526
    2AU    AUSL  499   1.032  21.324   7.980
    2AU     AUL  500   0.697  21.484   7.778
    2AU       S  501   0.778  21.453   8.300
    2AU     LIG  502   0.506  21.684   8.588
    2AU     LIG  503   0.276  22.032   8.778
    2AU       S  504   0.777  21.948   7.526
    2AU     LIG  505   0.284  21.997   7.511
    2AU     LIG  506  44.870  22.241   7.486
    2AU    AUSL  507   0.900  21.206   7.300
    2AU    AUSL  508   1.110  21.619   7.224
    2AU     AUL  509   0.748  21.499   7.232
    2AU       S  510   0.536  21.071   6.962
    2AU     LIG  511   0.075  21.115   7.106
    2AU     LIG  512  44.669  21.355   7.009
    2AU       S  513   0.819  21.933   6.968
    2AU     LIG  514   0.569  22.163   6.636
    2AU     LIG  515   0.399  22.497   6.358
    2AU    AUSL  516   0.884  21.185   7.702
    2AU    AUSL  517   0.842  20.879   7.353
    2AU     AUL  518   0.606  21.220   7.480
    2AU       S  519   0.380  20.770   7.383
    2AU     LIG  520   0.125  20.576   7.065
    2AU     LIG  521  44.698  20.415   7.156
    2AU       S  522   0.541  21.059   8.055
    2AU     LIG  523   0.079  21.100   7.958
    2AU     LIG  524  44.690  21.382   7.970
    2AU    AUSL  525   2.284  20.611   7.478
    2AU    AUSL  526   2.161  20.833   7.867
    2AU     AUL  527   2.453  20.653   7.860
    2AU       S  528   2.615  20.340   7.457
    2AU     LIG  529   2.883  19.943   7.448
    2AU     LIG  530   3.307  19.820   7.271
    2AU       S  531   2.364  19.975   8.201
    2AU     LIG  532   2.756  19.955   8.431
    2AU     LIG  533   2.978  19.675   8.717
    2AU    AUSL  534   2.378  20.907   7.290
    2AU    AUSL  535   2.099  20.491   7.196
    2AU     AUL  536   2.394  20.653   7.064
    2AU       S  537   2.813  20.557   7.316
    2AU     LIG  538   3.139  20.287   7.133
    2AU     LIG  539   3.610  20.199   7.037
    2AU       S  540   2.354  20.142   7.008
    2AU     LIG  541   2.685  19.774   6.997
    2AU     LIG  542   2.916  19.622   6.615
    2AU    AUSL  543   1.091  20.632   7.508
    2AU    AUSL  544   1.016  20.750   7.079
    2AU     AUL  545   0.818  20.508   7.338
    2AU       S  546   0.706  20.554   6.833
    2AU     LIG  547   0.523  20.490   6.409
    2AU     LIG  548   0.231  20.143   6.267
    2AU       S  549   0.141  20.800   7.541
    2AU     LIG  550   0.080  20.341   7.520
    2AU     LIG  551   0.095  20.021   7.172
    2AU    AUSL  552   0.870  20.847   7.696
    2AU    AUSL  553   1.178  20.458   7.806
    2AU     AUL  554   0.843  20.493   7.708
    2AU       S  555   0.872  20.183   8.104
    2AU     LIG  556   0.663  19.738   8.023
    2AU     LIG  557   0.253  19.603   8.212
    2AU       S  558   0.399  20.764   7.674
    2AU     LIG  559   0.147  20.543   7.995
    2AU     LIG  560  44.754  20.277   7.962
    2AU    AUSL  561   1.638  21.709   7.987
    2AU    AUSL  562   1.141  21.629   7.810
    2AU     AUL  563   1.335  21.907   7.999
    2AU       S  564   0.831  21.900   8.057
    2AU     LIG  565   0.620  22.153   8.392
    2AU     LIG  566   0.402  22.509   8.599
    2AU       S  567   1.748  22.144   8.206
    2AU     LIG  568   1.855  22.497   8.550
    2AU     LIG  569   1.811  22.974   8.526
    2AU    AUSL  570   1.433  21.761   7.676
    2AU    AUSL  571   1.754  21.851   7.336
    2AU     AUL  572   1.430  22.066   7.468
    2AU       S  573   1.989  22.349   8.098
    2AU     LIG  574   1.653  22.662   8.118
    2AU     LIG  575   1.624  23.081   8.036
    2AU       S  576   1.810  22.309   7.195
    2AU     LIG  577   2.061  22.750   7.229
    2AU     LIG  578   2.054  23.124   6.931
    2AU    AUSL  579   1.787  21.823   7.679
    2AU    AUSL  580   1.918  21.536   8.094
    2AU     AUL  581   2.036  21.829   7.927
    2AU       S  582   2.216  21.785   8.402
    2AU     LIG  583   2.335  22.230   8.567
    2AU     LIG  584   2.758  22.342   8.791
    2AU       S  585   1.798  22.266   7.822
    2AU     LIG  586   2.005  22.703   7.748
    2AU     LIG  587   2.162  22.870   8.138
    2AU    AUSL  588   1.672  20.482   7.969
    2AU    AUSL  589   2.119  20.476   7.766
    2AU     AUL  590   1.885  20.221   7.988
    2AU       S  591   1.189  19.729   8.032
    2AU     LIG  592   1.403  19.360   8.254
    2AU     LIG  593   1.579  18.914   8.308
    2AU       S  594   2.401  20.146   7.939
    2AU     LIG  595   2.752  19.780   7.946
    2AU     LIG  596   2.776  19.455   8.286
    2AU    AUSL  597   1.461  20.297   7.693
    2AU    AUSL  598   1.387  20.658   8.004
    2AU     AUL  599   1.397  20.292   8.081
    2AU       S  600   1.218  19.900   7.756
    2AU     LIG  601   0.951  19.475   7.666
    2AU     LIG  602   0.924  19.052   7.903
    2AU       S  603   0.557  20.221   8.112
    2AU     LIG  604   0.567  19.926   8.488
    2AU     LIG  605   0.384  19.528   8.714
    2AU    AUSL  606   1.809  20.375   7.665
    2AU    AUSL  607   1.462  20.289   7.336
    2AU     AUL  608   1.711  20.048   7.539
    2AU       S  609   1.281  19.857   7.266
    2AU     LIG  610   1.004  19.438   7.148
    2AU     LIG  611   1.078  18.953   7.032
    2AU       S  612   1.397  19.633   7.824
    2AU     LIG  613   1.686  19.245   7.820
    2AU     LIG  614   1.987  18.924   8.004
    2AU    AUSL  615   1.624  21.718   7.024
    2AU    AUSL  616   1.986  21.600   7.251
    2AU     AUL  617   1.996  21.858   7.035
    2AU       S  618   1.662  22.192   6.835
    2AU     LIG  619   1.580  22.598   6.541
    2AU     LIG  620   1.649  23.085   6.552
    2AU       S  621   2.596  21.854   6.721
    2AU     LIG  622   2.853  22.212   6.500
    2AU     LIG  623   3.152  22.412   6.182
    2AU    AUSL  624   1.426  21.710   7.337
    2AU    AUSL  625   1.318  21.554   6.938
    2AU     AUL  626   1.314  21.916   7.092
    2AU       S  627   1.876  22.426   6.903
    2AU     LIG  628   1.613  22.813   7.005
    2AU     LIG  629   1.548  23.276   7.028
    2AU       S  630   0.970  21.778   6.706
    2AU     LIG  631   0.953  22.023   6.322
    2AU     LIG  632   0.630  22.163   6.027
    2AU    AUSL  633   1.631  20.488   7.072
    2AU    AUSL  634   1.176  20.454   7.218
    2AU     AUL  635   1.380  20.283   6.946
    2AU       S  636   0.846  20.217   6.925
    2AU     LIG  637   0.591  19.777   6.994
    2AU     LIG  638   0.274  19.495   6.764
    2AU       S  639   1.437  19.686   7.057
    2AU     LIG  640   1.452  19.271   6.872
    2AU     LIG  641   1.610  18.836   6.945
    2AU    AUSL  642   1.820  20.351   7.332
    2AU    AUSL  643   1.913  20.596   6.906
    2AU     AUL  644   1.836  20.221   7.011
    2AU       S  645   1.464  19.547   7.323
    2AU     LIG  646   1.839  19.229   7.216
    2AU     LIG  647   2.164  18.888   7.031
    2AU       S  648   2.211  20.279   6.672
    2AU     LIG  649   2.347  20.142   6.250
    2AU     LIG  650   2.587  19.748   6.212
    3AU     AUC  651  42.610  39.936   7.500
    3AU     AUC  652  42.878  39.939   7.330
    3AU     AUC  653  42.885  39.938   7.658
    3AU     AUC  654  42.336  39.931   7.338
    3AU     AUC  655  42.342  39.935   7.668
    3AU     AUC  656  42.438  40.196   7.502
    3AU     AUC  657  42.768  40.197   7.497
    3AU     AUC  658  42.450  39.670   7.504
    3AU     AUC  659  42.782  39.672   7.496
    3AU     AUC  660  42.619  39.776   7.763
    3AU     AUC  661  42.613  40.100   7.769
    3AU     AUC  662  42.609  39.772   7.234
    3AU     AUC  663  42.602  40.097   7.232
    3AU     AUC  664  43.138  39.963   7.163
    3AU     AUC  665  43.175  39.943   7.487
    3AU     AUC  666  43.155  39.952   7.808
    3AU     AUC  667  42.075  39.914   7.170
    3AU     AUC  668  42.060  39.922   7.505
    3AU     AUC  669  42.083  39.921   7.838
    3AU     AUC  670  42.269  40.436   7.505
    3AU     AUC  671  42.608  40.469   7.499
    3AU     AUC  672  42.903  40.459   7.492
    3AU     AUC  673  42.307  39.392   7.510
    3AU     AUC  674  42.616  39.393   7.500
    3AU     AUC  675  42.955  39.420   7.488
    3AU     AUC  676  42.641  39.627   8.022
    3AU     AUC  677  42.628  39.933   8.044
    3AU     AUC  678  42.626  40.272   8.023
    3AU     AUC  679  42.620  39.625   6.967
    3AU     AUC  680  42.603  39.922   6.964
    3AU     AUC  681  42.599  40.269   6.982
    3AU     AUC  682  42.891  39.772   7.932
    3AU     AUC  683  42.897  40.107   7.947
    3AU     AUC  684  42.871  39.784   7.038
    3AU     AUC  685  42.885  40.115   7.059
    3AU     AUC  686  42.341  39.781   7.946
    3AU     AUC  687  42.331  40.106   7.942
    3AU     AUC  688  42.328  39.768   7.061
    3AU     AUC  689  42.313  40.096   7.067
    3AU     AUC  690  43.047  40.200   7.330
    3AU     AUC  691  43.054  40.194   7.662
    3AU     AUC  692  42.157  40.200   7.325
    3AU     AUC  693  42.161  40.202   7.677
    3AU     AUC  694  43.056  39.667   7.325
    3AU     AUC  695  43.074  39.666   7.634
    3AU     AUC  696  42.171  39.660   7.330
    3AU     AUC  697  42.179  39.660   7.686
    3AU     AUC  698  42.438  40.375   7.785
    3AU     AUC  699  42.765  40.376   7.775
    3AU     AUC  700  42.461  39.494   7.761
    3AU     AUC  701  42.809  39.511   7.770
    3AU     AUC  702  42.424  40.360   7.212
    3AU     AUC  703  42.750  40.379   7.214
    3AU     AUC  704  42.444  39.496   7.247
    3AU     AUC  705  42.794  39.509   7.223
    3AU    AUSL  706  43.076  39.906   8.129
    3AU    AUSL  707  42.963  39.478   8.071
    3AU     AUL  708  43.328  39.651   8.186
    3AU       S  709  43.275  39.138   8.282
    3AU     LIG  710  43.374  38.853   8.670
    3AU     LIG  711  43.610  38.433   8.671
    3AU       S  712  43.124  39.705   8.651
    3AU     LIG  713  43.292  39.925   9.025
    3AU     LIG  714  43.483  39.878   9.452
    3AU    AUSL  715  42.782  39.742   8.245
    3AU    AUSL  716  42.468  40.090   8.177
    3AU     AUL  717  42.608  39.965   8.522
    3AU       S  718  42.883  39.515   8.604
    3AU     LIG  719  42.915  39.560   9.094
    3AU     LIG  720  43.100  39.514   9.532
    3AU       S  721  41.850  39.681   8.770
    3AU     LIG  722  41.958  39.981   9.132
    3AU     LIG  723  41.888  40.082   9.588
    3AU    AUSL  724  42.802  40.135   8.250
    3AU    AUSL  725  43.205  40.215   7.980
    3AU     AUL  726  43.159  40.124   8.362
    3AU       S  727  42.793  40.456   8.595
    3AU     LIG  728  43.134  40.448   8.916
    3AU     LIG  729  43.203  40.315   9.362
    3AU       S  730  43.525  40.458   8.252
    3AU     LIG  731  43.977  40.496   8.413
    3AU     LIG  732  44.153  40.819   8.694
    3AU    AUSL  733  43.077  39.989   6.829
    3AU    AUSL  734  42.900  40.392   6.894
    3AU     AUL  735  42.903  40.259   6.543
    3AU       S  736  43.273  39.954   6.361
    3AU     LIG  737  43.541  40.058   5.974
    3AU     LIG  738  43.551  39.828   5.561
    3AU       S  739  43.302  40.580   6.620
    3AU     LIG  740  43.455  40.872   6.269
    3AU     LIG  741  43.720  41.228   6.078
    3AU    AUSL  742  42.806  39.751   6.730
    3AU    AUSL  743  43.092  39.714   7.066
    3AU     AUL  744  43.211  39.657   6.763
    3AU       S  745  43.264  38.847   6.696
    3AU     LIG  746  43.670  38.865   6.509
    3AU     LIG  747  43.999  38.627   6.278
    3AU       S  748  42.986  39.674   6.302
    3AU     LIG  749  42.995  39.410   5.875
    3AU     LIG  750  43.113  39.543   5.425
    3AU    AUSL  751  42.744  40.094   6.816
    3AU    AUSL  752  42.444  39.756   6.729
    3AU     AUL  753  42.604  39.994   6.489
    3AU       S  754  42.130  39.787   6.297
    3AU     LIG  755  42.213  39.631   5.858
    3AU     LIG  756  41.989  39.601   5.441
    3AU       S  757  43.286  39.677   6.187
    3AU     LIG  758  43.081  39.908   5.826
    3AU     LIG  759  43.140  40.099   5.403
    3AU    AUSL  760  42.142  39.918   8.156
    3AU    AUSL  761  42.334  40.406   8.090
    3AU     AUL  762  42.280  40.211   8.421
    3AU       S  763  41.861  39.883   8.493
    3AU     LIG  764  41.553  40.081   8.822
    3AU     LIG  765  41.472  39.943   9.285
    3AU       S  766  41.956  40.613   8.323
    3AU     LIG  767  41.753  40.725   8.717
    3AU     LIG  768  41.488  41.063   8.901
    3AU    AUSL  769  42.435  39.744   8.267
    3AU    AUSL  770  42.023  39.635   7.969
    3AU     AUL  771  42.165  39.503   8.280
    3AU       S  772  41.651  39.439   8.195
    3AU     LIG  773  41.230  39.321   8.484
    3AU     LIG  774  41.033  38.918   8.709
    3AU       S  775  42.148  39.771   8.702
    3AU     LIG  776  42.236  39.553   9.103
    3AU     LIG  777  41.993  39.577   9.496
    3AU    AUSL  778  42.125  39.874   6.854
    3AU    AUSL  779  42.340  39.527   6.977
    3AU     AUL  780  42.208  39.478   6.684
    3AU       S  781  41.832  39.832   6.541
    3AU     LIG  782  41.399  39.947   6.388
    3AU     LIG  783  41.316  39.888   5.924
    3AU       S  784  41.559  39.122   6.842
    3AU     LIG  785  41.686  38.827   6.491
    3AU     LIG  786  41.635  38.417   6.250
    3AU    AUSL  787  42.410  40.095   6.846
    3AU    AUSL  788  42.033  40.194   6.996
    3AU     AUL  789  42.207  40.191   6.620
    3AU       S  790  41.729  40.354   6.704
    3AU     LIG  791  41.415  40.657   6.587
    3AU     LIG  792  41.289  40.954   6.249
    3AU       S  793  41.823  39.727   6.217
    3AU     LIG  794  41.838  39.976   5.809
    3AU     LIG  795  42.050  40.115   5.393
    3AU    AUSL  796  43.219  40.395   7.474
    3AU    AUSL  797  43.199  40.247   7.049
    3AU     AUL  798  43.329  40.608   7.203
    3AU       S  799  43.487  40.350   6.753
    3AU     LIG  800  43.706  40.404   6.325
    3AU     LIG  801  43.963  40.774   6.184
    3AU       S  802  43.945  40.439   7.563
    3AU     LIG  803  44.252  40.750   7.514
    3AU     LIG  804  44.359  41.107   7.763
    3AU    AUSL  805  43.378  40.115   7.318
    3AU    AUSL  806  43.406  39.782   7.636
    3AU     AUL  807  43.674  39.894   7.363
    3AU       S  808  43.791  40.378   7.358
    3AU     LIG  809  44.281  40.325   7.213
    3AU     LIG  810  44.686  40.563   7.252
    3AU       S  811  43.847  39.453   7.580
    3AU     LIG  812  44.256  39.211   7.692
    3AU     LIG  813  44.666  39.280   7.961
    3AU    AUSL  814  43.370  40.135   7.683
    3AU    AUSL  815  43.010  40.430   7.742
    3AU     AUL  816  43.353  40.522   7.773
    3AU       S  817  43.500  40.555   8.559
    3AU     LIG  818  43.717  40.936   8.385
    3AU     LIG  819  44.067  41.254   8.422
    3AU       S  820  43.794  40.250   7.747
    3AU     LIG  821  44.218  40.432   7.961
    3AU     LIG  822  44.628  40.510   7.769
    3AU    AUSL  823  41.976  40.398   7.512
    3AU    AUSL  824  42.029  40.207   7.971
    3AU     AUL  825  41.714  40.392   7.761
    3AU       S  826  41.772  40.339   8.287
    3AU     LIG  827  41.378  40.462   8.479
    3AU     LIG  828  41.106  40.771   8.698
    3AU       S  829  41.808  40.847   7.496
    3AU     LIG  830  41.356  40.857   7.334
    3AU     LIG  831  41.007  40.679   7.570
    3AU    AUSL  832  41.892  40.086   7.293
    3AU    AUSL  833  42.109  40.494   7.207
    3AU     AUL  834  41.747  40.382   7.225
    3AU       S  835  41.517  39.963   6.954
    3AU     LIG  836  41.178  40.311   6.963
    3AU     LIG  837  40.905  40.685   7.061
    3AU       S  838  41.809  40.808   6.945
    3AU     LIG  839  41.530  41.146   6.723
    3AU     LIG  840  41.180  41.397   6.515
    3AU    AUSL  841  41.875  40.074   7.692
    3AU    AUSL  842  41.830  39.759   7.344
    3AU     AUL  843  41.598  40.104   7.470
    3AU       S  844  41.368  39.657   7.353
    3AU     LIG  845  41.077  39.409   7.063
    3AU     LIG  846  40.619  39.349   6.990
    3AU       S  847  41.507  39.989   8.027
    3AU     LIG  848  41.183  40.368   8.000
    3AU     LIG  849  40.715  40.446   7.924
    3AU    AUSL  850  43.267  39.469   7.476
    3AU    AUSL  851  43.148  39.697   7.860
    3AU     AUL  852  43.436  39.512   7.857
    3AU       S  853  43.595  39.206   7.461
    3AU     LIG  854  43.907  38.881   7.465
    3AU     LIG  855  44.280  38.732   7.267
    3AU       S  856  43.344  38.824   8.175
    3AU     LIG  857  43.774  38.832   8.351
    3AU     LIG  858  44.105  38.624   8.607
    3AU    AUSL  859  43.353  39.761   7.287
    3AU    AUSL  860  43.082  39.354   7.190
    3AU     AUL  861  43.386  39.514   7.067
    3AU       S  862  43.801  39.396   7.322
    3AU     LIG  863  44.260  39.382   7.208
    3AU     LIG  864  44.634  39.099   7.190
    3AU       S  865  43.326  39.017   6.967
    3AU     LIG  866  43.665  38.682   7.002
    3AU     LIG  867  43.767  38.354   6.678
    3AU    AUSL  868  42.075  39.515   7.503
    3AU    AUSL  869  42.004  39.624   7.074
    3AU     AUL  870  41.802  39.387   7.335
    3AU       S  871  41.699  39.419   6.834
    3AU     LIG  872  41.314  39.466   6.586
    3AU     LIG  873  41.210  39.037   6.443
    3AU       S  874  41.174  39.683   7.511
    3AU     LIG  875  41.134  39.232   7.534
    3AU     LIG  876  40.769  39.072   7.417
    3AU    AUSL  877  41.855  39.736   7.689
    3AU    AUSL  878  42.156  39.340   7.802
    3AU     AUL  879  41.827  39.381   7.703
    3AU       S  880  41.819  39.090   8.108
    3AU     LIG  881  41.507  38.690   8.016
    3AU     LIG  882  41.112  38.588   8.287
    3AU       S  883  41.389  39.654   7.676
    3AU     LIG  884  41.051  39.490   7.979
    3AU     LIG  885  40.582  39.575   7.917
    3AU    AUSL  886  42.639  40.589   7.971
    3AU    AUSL  887  42.140  40.509   7.800
    3AU     AUL  888  42.329  40.779   7.989
    3AU       S  889  41.824  40.794   8.063
    3AU     LIG  890  41.474  40.974   8.362
    3AU     LIG  891  41.137  41.280   8.556
    3AU       S  892  42.729  41.062   8.134
    3AU     LIG  893  42.745  41.411   8.464
    3AU     LIG  894  42.862  41.863   8.432
    3AU    AUSL  895  42.433  40.639   7.662
    3AU    AUSL  896  42.752  40.717   7.318
    3AU     AUL  897  42.423  40.936   7.440
    3AU       S  898  42.933  41.304   8.007
    3AU     LIG  899  42.582  41.612   8.022
    3AU     LIG  900  42.382  41.939   8.265
    3AU       S  901  42.792  41.162   7.140
    3AU     LIG  902  43.120  41.520   7.135
    3AU     LIG  903  43.109  41.795   6.747
    3AU    AUSL  904  42.791  40.695   7.661
    3AU    AUSL  905  42.917  40.409   8.080
    3AU     AUL  906  43.036  40.714   7.924
    3AU       S  907  43.223  40.639   8.396
    3AU     LIG  908  43.314  40.989   8.710
    3AU     LIG  909  43.741  41.136   8.864
    3AU       S  910  42.792  41.141   7.765
    3AU     LIG  911  42.858  41.589   7.592
    3AU     LIG  912  43.024  41.859   7.930
    3AU    AUSL  913  42.650  39.353   7.973
    3AU    AUSL  914  43.099  39.340   7.763
    3AU     AUL  915  42.863  39.092   7.990
    3AU       S  916  42.280  38.596   8.049
    3AU     LIG  917  42.318  38.251   8.402
    3AU     LIG  918  42.466  38.008   8.790
    3AU       S  919  43.376  39.002   7.921
    3AU     LIG  920  43.711  38.621   7.891
    3AU     LIG  921  43.890  38.325   8.243
    3AU    AUSL  922  42.437  39.171   7.695
    3AU    AUSL  923  42.371  39.540   7.995
    3AU     AUL  924  42.362  39.174   8.081
    3AU       S  925  42.185  38.760   7.777
    3AU     LIG  926  41.982  38.255   7.872
    3AU     LIG  927  42.394  38.020   7.970
    3AU       S  928  41.501  39.179   8.105
    3AU     LIG  929  41.502  38.883   8.485
    3AU     LIG  930  41.344  38.496   8.733
    3AU    AUSL  931  42.785  39.246   7.667
    3AU    AUSL  932  42.443  39.162   7.338
    3AU     AUL  933  42.686  38.920   7.540
    3AU       S  934  42.232  38.760   7.280
    3AU     LIG  935  41.906  38.418   7.381
    3AU     LIG  936  41.956  38.052   7.076
    3AU       S  937  42.383  38.506   7.764
    3AU     LIG  938  42.738  38.389   8.063
    3AU     LIG  939  42.834  38.141   8.421
    3AU    AUSL  940  42.620  40.582   7.008
    3AU    AUSL  941  42.978  40.458   7.241
    3AU     AUL  942  42.995  40.714   7.023
    3AU       S  943  42.658  41.022   6.783
    3AU     LIG  944  42.544  41.429   6.503
    3AU     LIG  945  42.645  41.902   6.495
    3AU       S  946  43.615  40.682   6.720
    3AU     LIG  947  43.814  41.103   6.579
    3AU     LIG  948  44.082  41.480   6.418
    3AU    AUSL  949  42.425  40.579   7.323
    3AU    AUSL  950  42.314  40.423   6.924
    3AU     AUL  951  42.308  40.785   7.073
    3AU       S  952  42.879  41.241   6.817
    3AU     LIG  953  42.651  41.627   6.963
    3AU     LIG  954  42.460  42.033   6.961
    3AU       S  955  41.955  40.646   6.690
    3AU     LIG  956  41.809  40.927   6.349
    3AU     LIG  957  41.620  41.348   6.218
    3AU    AUSL  958  42.615  39.361   7.080
    3AU    AUSL  959  42.162  39.329   7.216
    3AU     AUL  960  42.376  39.150   6.944
    3AU       S  961  41.852  39.072   6.940
    3AU     LIG  962  41.595  38.635   6.954
    3AU     LIG  963  41.268  38.522   6.612
    3AU       S  964  42.217  38.541   7.016
    3AU     LIG  965  42.398  38.193   6.740
    3AU     LIG  966  42.738  38.162   6.392
    3AU    AUSL  967  42.806  39.216   7.334
    3AU    AUSL  968  42.893  39.456   6.901
    3AU     AUL  969  42.812  39.084   7.015
    3AU       S  970  42.405  38.469   7.237
    3AU     LIG  971  42.791  38.251   7.060
    3AU     LIG  972  42.847  37.863   6.785
    3AU       S  973  43.163  39.154   6.646
    3AU     LIG  974  43.286  39.062   6.206
    3AU     LIG  975  43.520  38.692   6.023
    4AU     AUC  976  35.899  38.139   7.507
    4AU     AUC  977  36.169  38.144   7.342
    4AU     AUC  978  36.173  38.144   7.670
    4AU     AUC  979  35.627  38.133   7.342
    4AU     AUC  980  35.629  38.134   7.673
    4AU     AUC  981  35.724  38.398   7.509
    4AU     AUC  982  36.055  38.402   7.506
    4AU     AUC  983  35.742  37.872   7.508
    4AU     AUC  984  36.075  37.877   7.505
    4AU     AUC  985  35.908  37.980   7.771
    4AU     AUC  986  35.897  38.303   7.777
    4AU     AUC  987  35.903  37.975   7.242
    4AU     AUC  988  35.893  38.301   7.240
    4AU     AUC  989  36.432  38.168   7.180
    4AU     AUC  990  36.465  38.150   7.503
    4AU     AUC  991  36.441  38.162   7.824
    4AU     AUC  992  35.368  38.114   7.170
    4AU     AUC  993  35.349  38.116   7.506
    4AU     AUC  994  35.369  38.114   7.840
    4AU     AUC  995  35.552  38.637   7.511
    4AU     AUC  996  35.892  38.673   7.508
    4AU     AUC  997  36.189  38.665   7.503
    4AU     AUC  998  35.603  37.593   7.511
    4AU     AUC  999  35.913  37.597   7.509
    4AU     AUC 1000  36.251  37.626   7.502
    4AU     AUC 1001  35.930  37.834   8.030
    4AU     AUC 1002  35.911  38.138   8.052
    4AU     AUC 1003  35.905  38.475   8.031
    4AU     AUC 1004  35.919  37.828   6.975
    4AU     AUC 1005  35.897  38.128   6.971
    4AU     AUC 1006  35.891  38.476   6.991
    4AU     AUC 1007  36.178  37.981   7.944
    4AU     AUC 1008  36.180  38.315   7.958
    4AU     AUC 1009  36.167  37.989   7.051
    4AU     AUC 1010  36.179  38.321   7.073
    4AU     AUC 1011  35.627  37.981   7.951
    4AU     AUC 1012  35.612  38.305   7.947
    4AU     AUC 1013  35.624  37.973   7.065
    4AU     AUC 1014  35.606  38.299   7.068
    4AU     AUC 1015  36.336  38.406   7.343
    4AU     AUC 1016  36.340  38.400   7.675
    4AU     AUC 1017  35.445  38.400   7.328
    4AU     AUC 1018  35.445  38.398   7.680
    4AU     AUC 1019  36.349  37.873   7.341
    4AU     AUC 1020  36.366  37.875   7.650
    4AU     AUC 1021  35.463  37.858   7.332
    4AU     AUC 1022  35.470  37.856   7.688
    4AU     AUC 1023  35.720  38.576   7.792
    4AU     AUC 1024  36.046  38.580   7.784
    4AU     AUC 1025  35.755  37.698   7.764
    4AU     AUC 1026  36.104  37.716   7.777
    4AU     AUC 1027  35.712  38.564   7.220
    4AU     AUC 1028  36.040  38.585   7.226
    4AU     AUC 1029  35.741  37.697   7.250
    4AU     AUC 1030  36.088  37.714   7.230
    4AU    AUSL 1031  36.358  38.120   8.145
    4AU    AUSL 1032  36.253  37.691   8.088
    4AU     AUL 1033  36.612  37.869   8.211
    4AU       S 1034  36.577  37.355   8.299
    4AU     LIG 1035  36.761  37.100   8.681
    4AU     LIG 1036  36.955  36.669   8.667
    4AU       S 1037  36.391  37.928   8.672
    4AU     LIG 1038  36.510  38.114   9.085
    4AU     LIG 1039  36.747  38.126   9.496
    4AU    AUSL 1040  36.065  37.951   8.255
    4AU    AUSL 1041  35.748  38.293   8.184
    4AU     AUL 1042  35.886  38.172   8.528
    4AU       S 1043  36.156  37.722   8.612
    4AU     LIG 1044  36.093  37.791   9.080
    4AU     LIG 1045  36.301  37.847   9.501
    4AU       S 1046  35.160  37.860   8.789
    4AU     LIG 1047  35.266  38.165   9.150
    4AU     LIG 1048  35.281  38.279   9.594
    4AU    AUSL 1049  36.082  38.344   8.260
    4AU    AUSL 1050  36.486  38.430   7.995
    4AU     AUL 1051  36.446  38.346   8.377
    4AU       S 1052  36.048  38.662   8.605
    4AU     LIG 1053  36.390  38.626   8.926
    4AU     LIG 1054  36.441  38.536   9.386
    4AU       S 1055  36.755  38.736   8.283
    4AU     LIG 1056  37.197  38.869   8.360
    4AU     LIG 1057  37.294  39.224   8.652
    4AU    AUSL 1058  36.375  38.193   6.845
    4AU    AUSL 1059  36.193  38.600   6.909
    4AU     AUL 1060  36.208  38.464   6.561
    4AU       S 1061  36.577  38.159   6.378
    4AU     LIG 1062  36.853  38.232   5.981
    4AU     LIG 1063  36.871  37.955   5.592
    4AU       S 1064  36.610  38.781   6.648
    4AU     LIG 1065  36.766  39.082   6.314
    4AU     LIG 1066  37.063  39.426   6.153
    4AU    AUSL 1067  36.108  37.956   6.743
    4AU    AUSL 1068  36.389  37.919   7.082
    4AU     AUL 1069  36.510  37.858   6.779
    4AU       S 1070  36.601  37.048   6.758
    4AU     LIG 1071  36.990  37.201   6.570
    4AU     LIG 1072  37.267  37.035   6.244
    4AU       S 1073  36.284  37.884   6.319
    4AU     LIG 1074  36.267  37.596   5.925
    4AU     LIG 1075  36.416  37.700   5.492
    4AU    AUSL 1076  36.042  38.298   6.834
    4AU    AUSL 1077  35.747  37.959   6.736
    4AU     AUL 1078  35.911  38.207   6.504
    4AU       S 1079  35.484  37.966   6.288
    4AU     LIG 1080  35.579  37.757   5.855
    4AU     LIG 1081  35.307  37.771   5.461
    4AU       S 1082  36.583  37.874   6.207
    4AU     LIG 1083  36.387  38.091   5.842
    4AU     LIG 1084  36.480  38.256   5.421
    4AU    AUSL 1085  35.422  38.113   8.158
    4AU    AUSL 1086  35.611  38.607   8.095
    4AU     AUL 1087  35.548  38.410   8.423
    4AU       S 1088  35.147  38.071   8.512
    4AU     LIG 1089  34.843  38.236   8.877
    4AU     LIG 1090  34.797  38.167   9.371
    4AU       S 1091  35.227  38.817   8.318
    4AU     LIG 1092  35.037  39.185   8.558
    4AU     LIG 1093  34.859  39.483   8.889
    4AU    AUSL 1094  35.718  37.948   8.273
    4AU    AUSL 1095  35.312  37.824   7.970
    4AU     AUL 1096  35.455  37.703   8.285
    4AU       S 1097  34.962  37.568   8.197
    4AU     LIG 1098  34.546  37.408   8.446
    4AU     LIG 1099  34.366  36.958   8.511
    4AU       S 1100  35.445  37.961   8.713
    4AU     LIG 1101  35.552  37.750   9.125
    4AU     LIG 1102  35.288  37.762   9.520
    4AU    AUSL 1103  35.424  38.076   6.853
    4AU    AUSL 1104  35.638  37.736   6.988
    4AU     AUL 1105  35.518  37.678   6.698
    4AU       S 1106  35.158  38.007   6.490
    4AU     LIG 1107  34.843  38.143   6.135
    4AU     LIG 1108  34.811  38.009   5.669
    4AU       S 1109  34.987  37.357   6.610
    4AU     LIG 1110  34.827  36.926   6.429
    4AU     LIG 1111  34.458  36.641   6.268
    4AU    AUSL 1112  35.706  38.305   6.838
    4AU    AUSL 1113  35.323  38.397   6.999
    4AU     AUL 1114  35.480  38.392   6.621
    4AU       S 1115  35.011  38.589   6.703
    4AU     LIG 1116  34.650  38.894   6.557
    4AU     LIG 1117  34.280  39.214   6.488
    4AU       S 1118  35.213  37.823   6.208
    4AU     LIG 1119  35.269  38.157   5.848
    4AU     LIG 1120  35.175  38.279   5.396
    4AU    AUSL 1121  36.506  38.600   7.487
    4AU    AUSL 1122  36.492  38.453   7.068
    4AU     AUL 1123  36.615  38.819   7.218
    4AU       S 1124  36.788  38.545   6.781
    4AU     LIG 1125  36.989  38.588   6.348
    4AU     LIG 1126  37.268  38.961   6.280
    4AU       S 1127  37.341  38.469   7.544
    4AU     LIG 1128  37.499  38.884   7.571
    4AU     LIG 1129  37.823  39.058   7.342
    4AU    AUSL 1130  36.671  38.320   7.337
    4AU    AUSL 1131  36.697  37.991   7.654
    4AU     AUL 1132  36.971  38.093   7.383
    4AU       S 1133  37.071  38.591   7.401
    4AU     LIG 1134  37.432  38.692   7.099
    4AU     LIG 1135  37.886  38.577   7.162
    4AU       S 1136  37.138  37.639   7.612
    4AU     LIG 1137  37.569  37.385   7.778
    4AU     LIG 1138  38.064  37.466   7.890
    4AU    AUSL 1139  36.657  38.342   7.701
    4AU    AUSL 1140  36.292  38.632   7.750
    4AU     AUL 1141  36.642  38.726   7.783
    4AU       S 1142  36.725  38.904   8.562
    4AU     LIG 1143  36.886  39.271   8.295
    4AU     LIG 1144  37.234  39.573   8.283
    4AU       S 1145  37.088  38.460   7.758
    4AU     LIG 1146  37.511  38.586   7.990
    4AU     LIG 1147  37.930  38.619   7.748
    4AU    AUSL 1148  35.254  38.591   7.517
    4AU    AUSL 1149  35.305  38.402   7.971
    4AU     AUL 1150  34.978  38.564   7.757
    4AU       S 1151  35.039  38.529   8.281
    4AU     LIG 1152  34.696  38.845   8.379
    4AU     LIG 1153  34.561  39.074   8.766
    4AU       S 1154  35.062  39.032   7.523
    4AU     LIG 1155  34.589  39.085   7.656
    4AU     LIG 1156  34.209  39.282   7.464
    4AU    AUSL 1157  35.181  38.281   7.292
    4AU    AUSL 1158  35.395  38.698   7.217
    4AU     AUL 1159  35.033  38.579   7.225
    4AU       S 1160  34.818  38.157   6.949
    4AU     LIG 1161  34.366  38.235   7.136
    4AU     LIG 1162  33.982  38.442   7.342
    4AU       S 1163  35.100  39.020   6.966
    4AU     LIG 1164  34.793  39.345   6.760
    4AU     LIG 1165  34.534  39.694   6.564
    4AU    AUSL 1166  35.161  38.261   7.690
    4AU    AUSL 1167  35.122  37.953   7.344
    4AU     AUL 1168  34.885  38.288   7.465
    4AU       S 1169  34.644  37.837   7.356
    4AU     LIG 1170  34.195  37.743   7.147
    4AU     LIG 1171  33.777  37.930   7.295
    4AU       S 1172  34.790  38.153   8.019
    4AU     LIG 1173  34.377  38.366   7.819
    4AU     LIG 1174  34.137  38.793   7.708
    4AU    AUSL 1175  36.562  37.677   7.497
    4AU    AUSL 1176  36.438  37.911   7.879
    4AU     AUL 1177  36.729  37.732   7.881
    4AU       S 1178  36.882  37.403   7.492
    4AU     LIG 1179  37.236  37.109   7.459
    4AU     LIG 1180  37.539  37.050   7.108
    4AU       S 1181  36.668  37.051   8.197
    4AU     LIG 1182  37.125  37.058   8.322
    4AU     LIG 1183  37.378  37.003   8.703
    4AU    AUSL 1184  36.646  37.967   7.306
    4AU    AUSL 1185  36.382  37.558   7.211
    4AU     AUL 1186  36.685  37.723   7.087
    4AU       S 1187  37.089  37.591   7.349
    4AU     LIG 1188  37.559  37.540   7.290
    4AU     LIG 1189  37.907  37.471   6.989
    4AU       S 1190  36.641  37.218   7.029
    4AU     LIG 1191  37.027  36.937   7.007
    4AU     LIG 1192  37.084  36.691   6.618
    4AU    AUSL 1193  35.366  37.705   7.505
    4AU    AUSL 1194  35.298  37.827   7.071
    4AU     AUL 1195  35.093  37.582   7.327
    4AU       S 1196  34.996  37.633   6.816
    4AU     LIG 1197  34.564  37.448   6.874
    4AU     LIG 1198  34.387  37.132   6.579
    4AU       S 1199  34.432  37.912   7.546
    4AU     LIG 1200  34.323  37.436   7.532
    4AU     LIG 1201  34.048  37.066   7.675
    4AU    AUSL 1202  35.145  37.922   7.689
    4AU    AUSL 1203  35.458  37.535   7.805
    4AU     AUL 1204  35.120  37.565   7.704
    4AU       S 1205  35.170  37.249   8.099
    4AU     LIG 1206  35.014  36.776   8.077
    4AU     LIG 1207  34.632  36.529   8.219
    4AU       S 1208  34.676  37.829   7.659
    4AU     LIG 1209  34.357  37.683   7.981
    4AU     LIG 1210  33.913  37.658   7.798
    4AU    AUSL 1211  35.918  38.790   7.981
    4AU    AUSL 1212  35.421  38.706   7.803
    4AU     AUL 1213  35.614  38.984   7.996
    4AU       S 1214  35.110  38.974   8.040
    4AU     LIG 1215  34.790  39.273   8.093
    4AU     LIG 1216  34.609  39.477   8.428
    4AU       S 1217  36.026  39.225   8.202
    4AU     LIG 1218  36.030  39.657   8.486
    4AU     LIG 1219  36.179  40.129   8.426
    4AU    AUSL 1220  35.713  38.842   7.669
    4AU    AUSL 1221  36.042  38.924   7.332
    4AU     AUL 1222  35.719  39.144   7.452
    4AU       S 1223  36.235  39.463   8.087
    4AU     LIG 1224  35.970  39.875   8.022
    4AU     LIG 1225  35.771  40.313   8.120
    4AU       S 1226  36.125  39.391   7.218
    4AU     LIG 1227  36.353  39.880   7.194
    4AU     LIG 1228  36.334  40.185   6.811
    4AU    AUSL 1229  36.067  38.899   7.675
    4AU    AUSL 1230  36.196  38.618   8.089
    4AU     AUL 1231  36.321  38.916   7.914
    4AU       S 1232  36.443  38.881   8.404
    4AU     LIG 1233  36.454  39.333   8.553
    4AU     LIG 1234  36.846  39.508   8.756
    4AU       S 1235  36.064  39.347   7.827
    4AU     LIG 1236  36.327  39.737   7.688
    4AU     LIG 1237  36.485  40.041   7.997
    4AU    AUSL 1238  35.950  37.568   7.961
    4AU    AUSL 1239  36.393  37.554   7.785
    4AU     AUL 1240  36.154  37.308   8.021
    4AU       S 1241  35.529  36.773   8.063
    4AU     LIG 1242  35.732  36.350   8.208
    4AU     LIG 1243  35.931  35.993   8.460
    4AU       S 1244  36.664  37.223   7.938
    4AU     LIG 1245  36.992  36.873   7.865
    4AU     LIG 1246  37.159  36.561   8.193
    4AU    AUSL 1247  35.745  37.374   7.698
    4AU    AUSL 1248  35.664  37.742   8.002
    4AU     AUL 1249  35.683  37.383   8.091
    4AU       S 1250  35.525  36.983   7.789
    4AU     LIG 1251  35.266  36.630   7.658
    4AU     LIG 1252  35.504  36.226   7.755
    4AU       S 1253  34.872  37.257   8.120
    4AU     LIG 1254  34.874  36.982   8.516
    4AU     LIG 1255  34.737  36.558   8.731
    4AU    AUSL 1256  36.097  37.430   7.675
    4AU    AUSL 1257  35.735  37.366   7.340
    4AU     AUL 1258  35.989  37.121   7.523
    4AU       S 1259  35.528  36.956   7.293
    4AU     LIG 1260  35.215  36.629   7.124
    4AU     LIG 1261  35.375  36.209   7.005
    4AU       S 1262  35.717  36.729   7.856
    4AU     LIG 1263  35.987  36.378   7.754
    4AU     LIG 1264  36.117  36.008   7.982
    4AU    AUSL 1265  35.910  38.790   7.021
    4AU    AUSL 1266  36.269  38.669   7.251
    4AU     AUL 1267  36.276  38.930   7.028
    4AU       S 1268  35.955  39.287   6.859
    4AU     LIG 1269  35.896  39.669   6.531
    4AU     LIG 1270  35.918  40.149   6.472
    4AU       S 1271  36.936  38.867   6.752
    4AU     LIG 1272  37.045  39.337   6.674
    4AU     LIG 1273  37.287  39.722   6.535
    4AU    AUSL 1274  35.712  38.785   7.331
    4AU    AUSL 1275  35.604  38.627   6.934
    4AU     AUL 1276  35.601  38.989   7.081
    4AU       S 1277  36.152  39.523   6.930
    4AU     LIG 1278  35.898  39.940   6.972
    4AU     LIG 1279  35.877  40.418   6.911
    4AU       S 1280  35.252  38.858   6.705
    4AU     LIG 1281  35.078  39.118   6.380
    4AU     LIG 1282  34.704  39.338   6.218
    4AU    AUSL 1283  35.909  37.554   7.068
    4AU    AUSL 1284  35.454  37.532   7.214
    4AU     AUL 1285  35.658  37.350   6.948
    4AU       S 1286  35.127  37.313   6.896
    4AU     LIG 1287  34.784  36.971   6.939
    4AU     LIG 1288  34.474  36.647   6.784
    4AU       S 1289  35.705  36.749   7.118
    4AU     LIG 1290  35.806  36.425   6.817
    4AU     LIG 1291  35.790  35.955   6.792
    4AU    AUSL 1292  36.091  37.437   7.340
    4AU    AUSL 1293  36.198  37.659   6.916
    4AU     AUL 1294  36.123  37.285   7.031
    4AU       S 1295  35.659  36.627   7.363
    4AU     LIG 1296  35.834  36.217   7.281
    4AU     LIG 1297  36.211  35.999   7.079
    4AU       S 1298  36.493  37.345   6.682
    4AU     LIG 1299  36.592  37.147   6.251
    4AU     LIG 1300  36.839  36.758   6.131
    5AU     AUC 1301  42.699  12.812   7.510
    5AU     AUC 1302  42.972  12.816   7.346
    5AU     AUC 1303  42.970  12.817   7.673
    5AU     AUC 1304  42.426  12.809   7.342
    5AU     AUC 1305  42.426  12.808   7.674
    5AU     AUC 1306  42.525  13.070   7.511
    5AU     AUC 1307  42.857  13.075   7.510
    5AU     AUC 1308  42.542  12.546   7.508
    5AU     AUC 1309  42.874  12.550   7.507
    5AU     AUC 1310  42.706  12.650   7.772
    5AU     AUC 1311  42.695  12.974   7.780
    5AU     AUC 1312  42.703  12.649   7.244
    5AU     AUC 1313  42.695  12.974   7.243
    5AU     AUC 1314  43.240  12.839   7.187
    5AU     AUC 1315  43.262  12.826   7.505
    5AU     AUC 1316  43.231  12.836   7.830
    5AU     AUC 1317  42.166  12.796   7.168
    5AU     AUC 1318  42.145  12.800   7.507
    5AU     AUC 1319  42.161  12.790   7.841
    5AU     AUC 1320  42.356  13.309   7.514
    5AU     AUC 1321  42.696  13.343   7.514
    5AU     AUC 1322  42.992  13.341   7.507
    5AU     AUC 1323  42.402  12.268   7.509
    5AU     AUC 1324  42.711  12.269   7.511
    5AU     AUC 1325  43.051  12.300   7.503
    5AU     AUC 1326  42.729  12.499   8.031
    5AU     AUC 1327  42.707  12.806   8.054
    5AU     AUC 1328  42.700  13.145   8.031
    5AU     AUC 1329  42.721  12.499   6.981
    5AU     AUC 1330  42.697  12.800   6.974
    5AU     AUC 1331  42.695  13.147   6.994
    5AU     AUC 1332  42.973  12.650   7.950
    5AU     AUC 1333  42.978  12.986   7.961
    5AU     AUC 1334  42.973  12.660   7.058
    5AU     AUC 1335  42.986  12.992   7.081
    5AU     AUC 1336  42.424  12.651   7.952
    5AU     AUC 1337  42.407  12.973   7.950
    5AU     AUC 1338  42.423  12.649   7.064
    5AU     AUC 1339  42.410  12.975   7.064
    5AU     AUC 1340  43.145  13.081   7.351
    5AU     AUC 1341  43.137  13.079   7.679
    5AU     AUC 1342  42.248  13.077   7.327
    5AU     AUC 1343  42.241  13.072   7.682
    5AU     AUC 1344  43.157  12.546   7.342
    5AU     AUC 1345  43.156  12.548   7.653
    5AU     AUC 1346  42.262  12.540   7.329
    5AU     AUC 1347  42.269  12.534   7.687
    5AU     AUC 1348  42.518  13.245   7.796
    5AU     AUC 1349  42.848  13.253   7.788
    5AU     AUC 1350  42.554  12.367   7.762
    5AU     AUC 1351  42.899  12.383   7.779
    5AU     AUC 1352  42.518  13.235   7.221
    5AU     AUC 1353  42.847  13.256   7.230
    5AU     AUC 1354  42.541  12.370   7.252
    5AU     AUC 1355  42.888  12.388   7.231
    5AU    AUSL 1356  43.160  12.788   8.156
    5AU    AUSL 1357  43.045  12.350   8.087
    5AU     AUL 1358  43.389  12.502   8.229
    5AU       S 1359  43.450  11.971   8.188
    5AU     LIG 1360  43.367  11.502   8.270
    5AU     LIG 1361  43.516  11.146   8.551
    5AU       S 1362  43.188  12.607   8.688
    5AU     LIG 1363  43.483  12.874   8.940
    5AU     LIG 1364  43.680  12.957   9.360
    5AU    AUSL 1365  42.865  12.622   8.259
    5AU    AUSL 1366  42.539  12.955   8.185
    5AU     AUL 1367  42.690  12.867   8.525
    5AU       S 1368  42.939  12.412   8.626
    5AU     LIG 1369  42.914  12.492   9.105
    5AU     LIG 1370  43.043  12.332   9.534
    5AU       S 1371  42.102  12.436   8.793
    5AU     LIG 1372  42.123  12.892   9.047
    5AU     LIG 1373  42.210  13.045   9.470
    5AU    AUSL 1374  42.871  13.019   8.252
    5AU    AUSL 1375  43.283  13.094   8.006
    5AU     AUL 1376  43.208  13.017   8.390
    5AU       S 1377  42.833  13.371   8.587
    5AU     LIG 1378  43.161  13.304   8.922
    5AU     LIG 1379  43.158  13.028   9.309
    5AU       S 1380  43.584  13.338   8.297
    5AU     LIG 1381  43.870  13.409   8.652
    5AU     LIG 1382  44.122  13.761   8.801
    5AU    AUSL 1383  43.177  12.864   6.851
    5AU    AUSL 1384  43.005  13.269   6.915
    5AU     AUL 1385  42.993  13.135   6.572
    5AU       S 1386  43.332  12.812   6.365
    5AU     LIG 1387  43.605  12.953   6.009
    5AU     LIG 1388  43.619  12.781   5.562
    5AU       S 1389  43.393  13.436   6.648
    5AU     LIG 1390  43.349  13.790   6.351
    5AU     LIG 1391  43.610  13.980   6.013
    5AU    AUSL 1392  42.914  12.631   6.751
    5AU    AUSL 1393  43.202  12.588   7.089
    5AU     AUL 1394  43.327  12.538   6.785
    5AU       S 1395  43.276  11.752   6.622
    5AU     LIG 1396  43.693  11.700   6.436
    5AU     LIG 1397  43.984  11.431   6.183
    5AU       S 1398  43.052  12.532   6.339
    5AU     LIG 1399  42.942  12.351   5.907
    5AU     LIG 1400  43.179  12.389   5.488
    5AU    AUSL 1401  42.844  12.968   6.855
    5AU    AUSL 1402  42.556  12.617   6.742
    5AU     AUL 1403  42.713  12.891   6.524
    5AU       S 1404  42.495  12.487   6.282
    5AU     LIG 1405  42.410  12.293   5.832
    5AU     LIG 1406  42.113  12.404   5.468
    5AU       S 1407  43.327  12.550   6.169
    5AU     LIG 1408  43.153  12.809   5.808
    5AU     LIG 1409  43.160  12.892   5.329
    5AU    AUSL 1410  42.218  12.774   8.165
    5AU    AUSL 1411  42.406  13.270   8.102
    5AU     AUL 1412  42.330  13.065   8.426
    5AU       S 1413  42.015  12.682   8.606
    5AU     LIG 1414  41.739  12.577   9.058
    5AU     LIG 1415  41.407  12.294   9.155
    5AU       S 1416  42.025  13.482   8.326
    5AU     LIG 1417  41.910  13.598   8.756
    5AU     LIG 1418  41.572  13.901   8.891
    5AU    AUSL 1419  42.520  12.606   8.274
    5AU    AUSL 1420  42.112  12.492   7.963
    5AU     AUL 1421  42.242  12.364   8.265
    5AU       S 1422  41.761  12.195   8.159
    5AU     LIG 1423  41.596  12.219   8.648
    5AU     LIG 1424  41.436  11.820   8.882
    5AU       S 1425  42.354  12.545   8.727
    5AU     LIG 1426  42.387  12.491   9.204
    5AU     LIG 1427  42.024  12.559   9.493
    5AU    AUSL 1428  42.230  12.758   6.847
    5AU    AUSL 1429  42.436  12.409   6.997
    5AU     AUL 1430  42.251  12.377   6.728
    5AU       S 1431  42.184  12.656   6.313
    5AU     LIG 1432  41.934  12.452   5.963
    5AU     LIG 1433  41.484  12.318   5.947
    5AU       S 1434  41.790  11.896   6.784
    5AU     LIG 1435  41.742  11.866   6.337
    5AU     LIG 1436  41.759  11.462   6.105
    5AU    AUSL 1437  42.508  12.983   6.823
    5AU    AUSL 1438  42.126  13.082   7.000
    5AU     AUL 1439  42.243  13.062   6.622
    5AU       S 1440  41.815  13.333   6.707
    5AU     LIG 1441  41.432  13.527   6.460
    5AU     LIG 1442  41.128  13.787   6.181
    5AU       S 1443  42.381  12.722   6.074
    5AU     LIG 1444  42.162  12.863   5.703
    5AU     LIG 1445  42.126  13.230   5.409
    5AU    AUSL 1446  43.313  13.289   7.489
    5AU    AUSL 1447  43.302  13.116   7.078
    5AU     AUL 1448  43.441  13.480   7.205
    5AU       S 1449  43.596  13.197   6.766
    5AU     LIG 1450  44.035  13.242   6.554
    5AU     LIG 1451  44.162  13.539   6.196
    5AU       S 1452  44.142  13.149   7.432
    5AU     LIG 1453  44.374  13.559   7.379
    5AU     LIG 1454  44.756  13.835   7.474
    5AU    AUSL 1455  43.485  12.987   7.356
    5AU    AUSL 1456  43.463  12.671   7.657
    5AU     AUL 1457  43.746  12.856   7.687
    5AU       S 1458  43.873  13.119   7.228
    5AU     LIG 1459  44.316  13.217   6.988
    5AU     LIG 1460  44.750  13.238   7.207
    5AU       S 1461  43.921  12.381   7.575
    5AU     LIG 1462  44.206  12.092   7.808
    5AU     LIG 1463  44.661  11.981   7.801
    5AU    AUSL 1464  43.438  13.036   7.700
    5AU    AUSL 1465  43.099  13.315   7.756
    5AU     AUL 1466  43.444  13.400   7.808
    5AU       S 1467  43.574  13.648   8.322
    5AU     LIG 1468  43.811  13.997   8.457
    5AU     LIG 1469  43.936  14.421   8.622
    5AU       S 1470  43.888  13.316   7.537
    5AU     LIG 1471  44.257  13.396   7.849
    5AU     LIG 1472  44.715  13.357   7.730
    5AU    AUSL 1473  42.065  13.272   7.514
    5AU    AUSL 1474  42.101  13.066   7.976
    5AU     AUL 1475  41.820  13.274   7.767
    5AU       S 1476  41.814  13.225   8.296
    5AU     LIG 1477  41.449  13.466   8.624
    5AU     LIG 1478  41.125  13.632   8.923
    5AU       S 1479  41.880  13.722   7.515
    5AU     LIG 1480  41.485  13.997   7.461
    5AU     LIG 1481  41.166  14.206   7.197
    5AU    AUSL 1482  41.977  12.970   7.290
    5AU    AUSL 1483  42.206  13.379   7.217
    5AU     AUL 1484  41.842  13.275   7.228
    5AU       S 1485  41.612  12.914   6.928
    5AU     LIG 1486  41.229  13.258   6.881
    5AU     LIG 1487  40.752  13.393   6.965
    5AU       S 1488  41.932  13.729   6.991
    5AU     LIG 1489  41.567  13.915   6.771
    5AU     LIG 1490  41.466  14.144   6.349
    5AU    AUSL 1491  41.943  12.950   7.684
    5AU    AUSL 1492  41.920  12.643   7.349
    5AU     AUL 1493  41.666  12.950   7.444
    5AU       S 1494  41.438  12.482   7.509
    5AU     LIG 1495  41.035  12.286   7.331
    5AU     LIG 1496  40.679  12.490   7.243
    5AU       S 1497  41.477  12.947   7.934
    5AU     LIG 1498  41.019  13.195   7.787
    5AU     LIG 1499  40.597  13.124   7.966
    5AU    AUSL 1500  43.366  12.356   7.494
    5AU    AUSL 1501  43.225  12.578   7.890
    5AU     AUL 1502  43.527  12.419   7.884
    5AU       S 1503  43.750  12.155   7.485
    5AU     LIG 1504  43.947  11.753   7.526
    5AU     LIG 1505  44.392  11.638   7.508
    5AU       S 1506  43.735  11.899   7.996
    5AU     LIG 1507  43.866  11.576   8.293
    5AU     LIG 1508  43.926  11.448   8.735
    5AU    AUSL 1509  43.472  12.648   7.301
    5AU    AUSL 1510  43.182  12.226   7.210
    5AU     AUL 1511  43.482  12.364   7.091
    5AU       S 1512  43.916  12.479   7.325
    5AU     LIG 1513  44.273  12.130   7.302
    5AU     LIG 1514  44.734  11.992   7.290
    5AU       S 1515  43.405  11.905   6.877
    5AU     LIG 1516  43.602  11.459   6.885
    5AU     LIG 1517  43.706  11.152   6.541
    5AU    AUSL 1518  42.171  12.404   7.503
    5AU    AUSL 1519  42.094  12.509   7.067
    5AU     AUL 1520  41.881  12.305   7.319
    5AU       S 1521  41.785  12.183   6.837
    5AU     LIG 1522  41.366  12.119   6.597
    5AU     LIG 1523  41.240  11.921   6.199
    5AU       S 1524  41.407  12.244   7.659
    5AU     LIG 1525  41.495  11.801   7.588
    5AU     LIG 1526  41.153  11.569   7.327
    5AU    AUSL 1527  41.940  12.610   7.698
    5AU    AUSL 1528  42.257  12.206   7.792
    5AU     AUL 1529  41.942  12.244   7.679
    5AU       S 1530  41.934  11.903   8.045
    5AU     LIG 1531  41.576  11.543   8.043
    5AU     LIG 1532  41.160  11.470   8.196
    5AU       S 1533  41.490  12.482   7.785
    5AU     LIG 1534  41.012  12.347   7.913
    5AU     LIG 1535  40.658  12.244   7.686
    5AU    AUSL 1536  42.715  13.460   7.986
    5AU    AUSL 1537  42.219  13.375   7.810
    5AU     AUL 1538  42.411  13.639   8.008
    5AU       S 1539  41.912  13.682   8.053
    5AU     LIG 1540  41.654  13.848   8.365
    5AU     LIG 1541  41.227  13.899   8.469
    5AU       S 1542  42.799  13.932   8.181
    5AU     LIG 1543  42.888  14.435   8.338
    5AU     LIG 1544  42.927  14.890   8.562
    5AU    AUSL 1545  42.512  13.509   7.676
    5AU    AUSL 1546  42.843  13.596   7.332
    5AU     AUL 1547  42.516  13.806   7.463
    5AU       S 1548  42.630  14.158   8.016
    5AU     LIG 1549  42.395  14.531   7.941
    5AU     LIG 1550  42.057  14.864   8.040
    5AU       S 1551  42.843  14.042   7.130
    5AU     LIG 1552  43.034  14.452   7.250
    5AU     LIG 1553  43.163  14.723   6.907
    5AU    AUSL 1554  42.867  13.573   7.678
    5AU    AUSL 1555  42.998  13.291   8.090
    5AU     AUL 1556  43.109  13.602   7.936
    5AU       S 1557  43.287  13.526   8.412
    5AU     LIG 1558  43.431  13.760   8.789
    5AU     LIG 1559  43.731  14.068   8.966
    5AU       S 1560  42.843  14.025   7.822
    5AU     LIG 1561  42.936  14.496   7.796
    5AU     LIG 1562  43.060  14.850   8.064
    5AU    AUSL 1563  42.741  12.224   7.968
    5AU    AUSL 1564  43.192  12.228   7.777
    5AU     AUL 1565  42.969  11.975   8.029
    5AU       S 1566  42.238  11.500   8.069
    5AU     LIG 1567  42.308  11.325   8.483
    5AU     LIG 1568  42.253  10.925   8.698
    5AU       S 1569  43.464  11.886   7.841
    5AU     LIG 1570  43.641  11.425   7.835
    5AU     LIG 1571  43.761  11.054   8.099
    5AU    AUSL 1572  42.543  12.041   7.692
    5AU    AUSL 1573  42.463  12.414   7.993
    5AU     AUL 1574  42.456  12.055   8.084
    5AU       S 1575  42.350  11.630   7.779
    5AU     LIG 1576  42.361  11.154   7.721
    5AU     LIG 1577  42.247  10.829   7.992
    5AU       S 1578  41.753  11.932   8.280
    5AU     LIG 1579  41.821  11.541   8.495
    5AU     LIG 1580  41.787  11.422   8.936
    5AU    AUSL 1581  42.895  12.097   7.680
    5AU    AUSL 1582  42.535  12.038   7.334
    5AU     AUL 1583  42.793  11.793   7.516
    5AU       S 1584  42.356  11.618   7.259
    5AU     LIG 1585  42.069  11.317   6.974
    5AU     LIG 1586  42.123  10.886   6.849
    5AU       S 1587  42.533  11.476   8.042
    5AU     LIG 1588  42.738  11.037   8.037
    5AU     LIG 1589  42.984  10.655   7.925
    5AU    AUSL 1590  42.721  13.456   7.020
    5AU    AUSL 1591  43.075  13.342   7.254
    5AU     AUL 1592  43.092  13.605   7.043
    5AU       S 1593  42.747  13.891   6.781
    5AU     LIG 1594  42.453  14.242   6.590
    5AU     LIG 1595  42.576  14.647   6.373
    5AU       S 1596  43.561  13.298   6.431
    5AU     LIG 1597  43.811  13.698   6.540
    5AU     LIG 1598  44.022  14.047   6.331
    5AU    AUSL 1599  42.524  13.445   7.339
    5AU    AUSL 1600  42.413  13.303   6.934
    5AU     AUL 1601  42.424  13.662   7.102
    5AU       S 1602  42.881  14.205   6.845
    5AU     LIG 1603  42.629  14.629   6.900
    5AU     LIG 1604  42.233  14.836   6.699
    5AU       S 1605  42.086  13.566   6.711
    5AU     LIG 1606  41.902  13.840   6.396
    5AU     LIG 1607  41.625  13.779   6.029
    5AU    AUSL 1608  42.707  12.221   7.063
    5AU    AUSL 1609  42.248  12.206   7.226
    5AU     AUL 1610  42.442  12.037   6.939
    5AU       S 1611  41.946  11.885   7.047
    5AU     LIG 1612  41.620  11.523   7.073
    5AU     LIG 1613  41.536  11.477   6.607
    5AU       S 1614  42.553  11.448   7.074
    5AU     LIG 1615  42.531  11.175   6.724
    5AU     LIG 1616  42.599  10.745   6.578
    5AU    AUSL 1617  42.886  12.125   7.346
    5AU    AUSL 1618  42.996  12.334   6.921
    5AU     AUL 1619  42.929  11.953   7.055
    5AU       S 1620  42.472  11.276   7.265
    5AU     LIG 1621  42.702  10.880   7.118
    5AU     LIG 1622  43.007  10.615   6.862
    5AU       S 1623  43.185  12.065   6.609
    5AU     LIG 1624  43.321  11.947   6.155
    5AU     LIG 1625  43.502  11.530   5.979
    6AU     AUC 1626  27.695   8.089   7.505
    6AU     AUC 1627  27.965   8.095   7.337
    6AU     AUC 1628  27.971   8.090   7.663
    6AU     AUC 1629  27.421   8.086   7.342
    6AU     AUC 1630  27.426   8.085   7.672
    6AU     AUC 1631  27.521   8.348   7.511
    6AU     AUC 1632  27.853   8.351   7.506
    6AU     AUC 1633  27.534   7.823   7.504
    6AU     AUC 1634  27.868   7.826   7.497
    6AU     AUC 1635  27.705   7.926   7.765
    6AU     AUC 1636  27.698   8.249   7.776
    6AU     AUC 1637  27.696   7.930   7.238
    6AU     AUC 1638  27.687   8.254   7.240
    6AU     AUC 1639  28.229   8.124   7.174
    6AU     AUC 1640  28.264   8.098   7.492
    6AU     AUC 1641  28.239   8.102   7.813
    6AU     AUC 1642  27.160   8.071   7.171
    6AU     AUC 1643  27.144   8.073   7.507
    6AU     AUC 1644  27.168   8.067   7.841
    6AU     AUC 1645  27.350   8.586   7.518
    6AU     AUC 1646  27.692   8.621   7.513
    6AU     AUC 1647  27.987   8.615   7.506
    6AU     AUC 1648  27.391   7.546   7.506
    6AU     AUC 1649  27.703   7.546   7.497
    6AU     AUC 1650  28.042   7.572   7.487
    6AU     AUC 1651  27.727   7.776   8.023
    6AU     AUC 1652  27.712   8.080   8.049
    6AU     AUC 1653  27.711   8.418   8.033
    6AU     AUC 1654  27.709   7.788   6.970
    6AU     AUC 1655  27.689   8.086   6.970
    6AU     AUC 1656  27.683   8.432   6.994
    6AU     AUC 1657  27.974   7.922   7.935
    6AU     AUC 1658  27.983   8.254   7.954
    6AU     AUC 1659  27.960   7.946   7.045
    6AU     AUC 1660  27.972   8.278   7.071
    6AU     AUC 1661  27.426   7.930   7.947
    6AU     AUC 1662  27.415   8.253   7.949
    6AU     AUC 1663  27.414   7.930   7.064
    6AU     AUC 1664  27.399   8.255   7.070
    6AU     AUC 1665  28.132   8.358   7.341
    6AU     AUC 1666  28.142   8.346   7.671
    6AU     AUC 1667  27.241   8.354   7.332
    6AU     AUC 1668  27.244   8.351   7.685
    6AU     AUC 1669  28.147   7.825   7.329
    6AU     AUC 1670  28.156   7.817   7.636
    6AU     AUC 1671  27.254   7.814   7.330
    6AU     AUC 1672  27.263   7.809   7.684
    6AU     AUC 1673  27.522   8.521   7.798
    6AU     AUC 1674  27.850   8.525   7.787
    6AU     AUC 1675  27.547   7.645   7.756
    6AU     AUC 1676  27.895   7.660   7.768
    6AU     AUC 1677  27.507   8.516   7.224
    6AU     AUC 1678  27.834   8.538   7.228
    6AU     AUC 1679  27.530   7.653   7.247
    6AU     AUC 1680  27.881   7.667   7.223
    6AU    AUSL 1681  28.159   8.050   8.133
    6AU    AUSL 1682  28.045   7.629   8.076
    6AU     AUL 1683  28.428   7.812   8.171
    6AU       S 1684  28.290   7.344   8.343
    6AU     LIG 1685  28.391   7.228   8.777
    6AU     LIG 1686  28.680   6.867   8.870
    6AU       S 1687  28.218   7.813   8.639
    6AU     LIG 1688  28.371   8.050   9.021
    6AU     LIG 1689  28.650   8.071   9.412
    6AU    AUSL 1690  27.865   7.890   8.250
    6AU    AUSL 1691  27.553   8.236   8.184
    6AU     AUL 1692  27.690   8.109   8.529
    6AU       S 1693  27.954   7.653   8.603
    6AU     LIG 1694  27.940   7.741   9.072
    6AU     LIG 1695  28.178   7.847   9.467
    6AU       S 1696  26.928   7.829   8.772
    6AU     LIG 1697  27.047   8.141   9.122
    6AU     LIG 1698  26.969   8.299   9.556
    6AU    AUSL 1699  27.888   8.279   8.259
    6AU    AUSL 1700  28.293   8.357   7.988
    6AU     AUL 1701  28.245   8.257   8.375
    6AU       S 1702  27.881   8.598   8.604
    6AU     LIG 1703  28.231   8.583   8.920
    6AU     LIG 1704  28.287   8.438   9.366
    6AU       S 1705  28.610   8.595   8.264
    6AU     LIG 1706  29.066   8.712   8.337
    6AU     LIG 1707  29.178   8.985   8.691
    6AU    AUSL 1708  28.168   8.156   6.843
    6AU    AUSL 1709  27.987   8.560   6.911
    6AU     AUL 1710  27.995   8.432   6.562
    6AU       S 1711  28.388   8.148   6.398
    6AU     LIG 1712  28.656   8.265   6.028
    6AU     LIG 1713  28.660   8.022   5.620
    6AU       S 1714  28.412   8.735   6.649
    6AU     LIG 1715  28.691   8.995   6.326
    6AU     LIG 1716  29.024   9.328   6.212
    6AU    AUSL 1717  27.896   7.922   6.736
    6AU    AUSL 1718  28.184   7.878   7.078
    6AU     AUL 1719  28.291   7.818   6.767
    6AU       S 1720  28.404   7.018   6.711
    6AU     LIG 1721  28.769   7.169   6.490
    6AU     LIG 1722  29.101   7.042   6.200
    6AU       S 1723  28.087   7.893   6.308
    6AU     LIG 1724  28.024   7.636   5.919
    6AU     LIG 1725  28.200   7.705   5.492
    6AU    AUSL 1726  27.833   8.261   6.832
    6AU    AUSL 1727  27.536   7.919   6.734
    6AU     AUL 1728  27.691   8.175   6.505
    6AU       S 1729  27.262   7.924   6.293
    6AU     LIG 1730  27.368   7.719   5.880
    6AU     LIG 1731  27.047   7.663   5.552
    6AU       S 1732  28.384   7.877   6.195
    6AU     LIG 1733  28.197   8.116   5.839
    6AU     LIG 1734  28.232   8.221   5.383
    6AU    AUSL 1735  27.227   8.060   8.158
    6AU    AUSL 1736  27.417   8.552   8.100
    6AU     AUL 1737  27.363   8.351   8.428
    6AU       S 1738  26.947   8.013   8.483
    6AU     LIG 1739  26.687   8.280   8.775
    6AU     LIG 1740  26.550   8.205   9.231
    6AU       S 1741  27.046   8.758   8.331
    6AU     LIG 1742  26.963   9.075   8.635
    6AU     LIG 1743  26.624   9.324   8.814
    6AU    AUSL 1744  27.520   7.890   8.267
    6AU    AUSL 1745  27.110   7.779   7.968
    6AU     AUL 1746  27.269   7.643   8.280
    6AU       S 1747  26.768   7.572   8.205
    6AU     LIG 1748  26.529   7.481   8.610
    6AU     LIG 1749  26.239   7.097   8.680
    6AU       S 1750  27.226   7.910   8.699
    6AU     LIG 1751  27.359   7.739   9.110
    6AU     LIG 1752  27.155   7.801   9.530
    6AU    AUSL 1753  27.214   8.032   6.854
    6AU    AUSL 1754  27.427   7.694   6.985
    6AU     AUL 1755  27.313   7.634   6.697
    6AU       S 1756  26.941   7.961   6.499
    6AU     LIG 1757  26.589   8.052   6.159
    6AU     LIG 1758  26.532   7.997   5.672
    6AU       S 1759  26.833   7.296   6.617
    6AU     LIG 1760  26.548   6.984   6.394
    6AU     LIG 1761  26.434   6.832   5.959
    6AU    AUSL 1762  27.496   8.263   6.843
    6AU    AUSL 1763  27.117   8.354   7.000
    6AU     AUL 1764  27.274   8.346   6.622
    6AU       S 1765  26.814   8.555   6.706
    6AU     LIG 1766  26.592   8.933   6.477
    6AU     LIG 1767  26.243   9.183   6.236
    6AU       S 1768  26.984   7.756   6.231
    6AU     LIG 1769  27.008   8.079   5.869
    6AU     LIG 1770  26.989   8.157   5.406
    6AU    AUSL 1771  28.304   8.549   7.484
    6AU    AUSL 1772  28.283   8.416   7.069
    6AU     AUL 1773  28.392   8.791   7.231
    6AU       S 1774  28.587   8.509   6.798
    6AU     LIG 1775  28.898   8.524   6.435
    6AU     LIG 1776  29.201   8.842   6.264
    6AU       S 1777  29.148   8.510   7.415
    6AU     LIG 1778  29.328   8.941   7.436
    6AU     LIG 1779  29.431   9.336   7.670
    6AU    AUSL 1780  28.469   8.270   7.323
    6AU    AUSL 1781  28.478   7.932   7.646
    6AU     AUL 1782  28.760   8.068   7.479
    6AU       S 1783  28.851   8.523   7.256
    6AU     LIG 1784  29.183   8.709   6.962
    6AU     LIG 1785  29.593   8.650   7.097
    6AU       S 1786  28.928   7.580   7.554
    6AU     LIG 1787  29.391   7.401   7.625
    6AU     LIG 1788  29.751   7.355   7.952
    6AU    AUSL 1789  28.462   8.293   7.686
    6AU    AUSL 1790  28.094   8.579   7.752
    6AU     AUL 1791  28.433   8.670   7.792
    6AU       S 1792  28.604   8.703   8.563
    6AU     LIG 1793  28.752   9.106   8.376
    6AU     LIG 1794  29.121   9.396   8.372
    6AU       S 1795  28.901   8.537   7.631
    6AU     LIG 1796  29.308   8.668   7.866
    6AU     LIG 1797  29.695   8.587   7.615
    6AU    AUSL 1798  27.051   8.546   7.524
    6AU    AUSL 1799  27.111   8.353   7.979
    6AU     AUL 1800  26.784   8.527   7.777
    6AU       S 1801  26.853   8.483   8.301
    6AU     LIG 1802  26.555   8.769   8.539
    6AU     LIG 1803  26.207   9.103   8.600
    6AU       S 1804  26.869   8.990   7.517
    6AU     LIG 1805  26.479   9.161   7.259
    6AU     LIG 1806  25.991   9.177   7.258
    6AU    AUSL 1807  26.978   8.241   7.296
    6AU    AUSL 1808  27.191   8.649   7.224
    6AU     AUL 1809  26.829   8.537   7.228
    6AU       S 1810  26.604   8.124   6.955
    6AU     LIG 1811  26.114   8.211   7.007
    6AU     LIG 1812  25.737   8.541   6.982
    6AU       S 1813  26.908   8.977   6.972
    6AU     LIG 1814  26.700   9.344   6.777
    6AU     LIG 1815  26.388   9.574   6.538
    6AU    AUSL 1816  26.960   8.220   7.699
    6AU    AUSL 1817  26.913   7.914   7.344
    6AU     AUL 1818  26.690   8.263   7.475
    6AU       S 1819  26.445   7.823   7.351
    6AU     LIG 1820  26.138   7.694   7.002
    6AU     LIG 1821  25.683   7.701   6.843
    6AU       S 1822  26.605   8.105   8.039
    6AU     LIG 1823  26.162   8.286   7.949
    6AU     LIG 1824  25.813   8.633   7.912
    6AU    AUSL 1825  28.354   7.623   7.473
    6AU    AUSL 1826  28.226   7.843   7.864
    6AU     AUL 1827  28.528   7.659   7.845
    6AU       S 1828  28.692   7.360   7.434
    6AU     LIG 1829  29.041   7.052   7.478
    6AU     LIG 1830  29.482   6.914   7.336
    6AU       S 1831  28.405   7.034   8.306
    6AU     LIG 1832  28.803   7.182   8.468
    6AU     LIG 1833  29.164   7.030   8.721
    6AU    AUSL 1834  28.459   7.921   7.290
    6AU    AUSL 1835  28.165   7.510   7.191
    6AU     AUL 1836  28.464   7.672   7.064
    6AU       S 1837  28.899   7.592   7.291
    6AU     LIG 1838  29.274   7.353   7.121
    6AU     LIG 1839  29.752   7.282   7.067
    6AU       S 1840  28.409   7.172   6.992
    6AU     LIG 1841  28.854   7.058   6.988
    6AU     LIG 1842  29.089   6.792   6.681
    6AU    AUSL 1843  27.152   7.659   7.500
    6AU    AUSL 1844  27.087   7.783   7.070
    6AU     AUL 1845  26.876   7.544   7.322
    6AU       S 1846  26.787   7.570   6.807
    6AU     LIG 1847  26.367   7.456   6.570
    6AU     LIG 1848  26.263   7.323   6.120
    6AU       S 1849  26.239   7.934   7.480
    6AU     LIG 1850  26.040   7.509   7.465
    6AU     LIG 1851  25.736   7.312   7.199
    6AU    AUSL 1852  26.940   7.882   7.689
    6AU    AUSL 1853  27.242   7.488   7.798
    6AU     AUL 1854  26.898   7.530   7.702
    6AU       S 1855  26.938   7.229   8.104
    6AU     LIG 1856  26.713   6.792   8.072
    6AU     LIG 1857  26.367   6.661   8.387
    6AU       S 1858  26.454   7.816   7.654
    6AU     LIG 1859  26.024   7.779   7.896
    6AU     LIG 1860  25.599   7.658   7.715
    6AU    AUSL 1861  27.725   8.732   7.990
    6AU    AUSL 1862  27.221   8.657   7.810
    6AU     AUL 1863  27.417   8.929   7.998
    6AU       S 1864  26.914   8.935   8.068
    6AU     LIG 1865  26.608   9.223   8.282
    6AU     LIG 1866  26.349   9.587   8.443
    6AU       S 1867  27.815   9.178   8.203
    6AU     LIG 1868  27.772   9.574   8.515
    6AU     LIG 1869  27.764  10.056   8.482
    6AU    AUSL 1870  27.521   8.779   7.681
    6AU    AUSL 1871  27.830   8.877   7.337
    6AU     AUL 1872  27.512   9.088   7.487
    6AU       S 1873  28.003   9.425   8.099
    6AU     LIG 1874  27.608   9.700   8.050
    6AU     LIG 1875  27.355  10.083   8.142
    6AU       S 1876  27.827   9.326   7.146
    6AU     LIG 1877  27.951   9.781   7.246
    6AU     LIG 1878  28.059  10.038   6.874
    6AU    AUSL 1879  27.874   8.848   7.680
    6AU    AUSL 1880  28.006   8.553   8.090
    6AU     AUL 1881  28.120   8.861   7.938
    6AU       S 1882  28.313   8.772   8.404
    6AU     LIG 1883  28.362   9.110   8.722
    6AU     LIG 1884  28.776   9.284   8.863
    6AU       S 1885  27.880   9.301   7.828
    6AU     LIG 1886  28.016   9.792   7.763
    6AU     LIG 1887  27.838  10.162   7.988
    6AU    AUSL 1888  27.740   7.505   7.961
    6AU    AUSL 1889  28.185   7.491   7.768
    6AU     AUL 1890  27.944   7.237   7.981
    6AU       S 1891  27.250   6.781   8.060
    6AU     LIG 1892  27.345   6.367   8.262
    6AU     LIG 1893  27.444   5.909   8.237
    6AU       S 1894  28.450   7.190   8.030
    6AU     LIG 1895  28.823   6.920   8.024
    6AU     LIG 1896  28.939   6.674   8.406
    6AU    AUSL 1897  27.527   7.324   7.690
    6AU    AUSL 1898  27.460   7.692   7.988
    6AU     AUL 1899  27.462   7.329   8.079
    6AU       S 1900  27.291   6.927   7.774
    6AU     LIG 1901  27.012   6.524   7.711
    6AU     LIG 1902  27.062   6.100   7.934
    6AU       S 1903  26.629   7.280   8.165
    6AU     LIG 1904  26.729   7.005   8.542
    6AU     LIG 1905  26.534   6.705   8.872
    6AU    AUSL 1906  27.877   7.390   7.659
    6AU    AUSL 1907  27.524   7.319   7.333
    6AU     AUL 1908  27.764   7.066   7.524
    6AU       S 1909  27.286   6.914   7.281
    6AU     LIG 1910  26.950   6.540   7.187
    6AU     LIG 1911  27.186   6.230   6.923
    6AU       S 1912  27.466   6.656   7.864
    6AU     LIG 1913  27.560   6.177   7.792
    6AU     LIG 1914  27.828   5.774   7.941
    6AU    AUSL 1915  27.702   8.742   7.024
    6AU    AUSL 1916  28.058   8.624   7.257
    6AU     AUL 1917  28.070   8.889   7.035
    6AU       S 1918  27.718   9.177   6.790
    6AU     LIG 1919  27.520   9.525   6.509
    6AU     LIG 1920  27.706   9.968   6.434
    6AU       S 1921  28.721   8.819   6.790
    6AU     LIG 1922  29.080   9.129   6.686
    6AU     LIG 1923  29.436   9.450   6.569
    6AU    AUSL 1924  27.507   8.731   7.342
    6AU    AUSL 1925  27.397   8.585   6.939
    6AU     AUL 1926  27.396   8.944   7.111
    6AU       S 1927  27.868   9.477   6.860
    6AU     LIG 1928  27.559   9.852   6.921
    6AU     LIG 1929  27.244  10.227   6.931
    6AU       S 1930  27.067   8.823   6.710
    6AU     LIG 1931  27.053   9.175   6.422
    6AU     LIG 1932  26.722   9.399   6.184
    6AU    AUSL 1933  27.701   7.521   7.073
    6AU    AUSL 1934  27.244   7.487   7.209
    6AU     AUL 1935  27.460   7.309   6.944
    6AU       S 1936  26.935   7.255   6.907
    6AU     LIG 1937  26.661   6.865   6.891
    6AU     LIG 1938  26.419   6.499   6.707
    6AU       S 1939  27.425   6.693   7.089
    6AU     LIG 1940  27.646   6.406   6.796
    6AU     LIG 1941  27.587   5.937   6.724
    6AU    AUSL 1942  27.886   7.369   7.326
    6AU    AUSL 1943  27.982   7.622   6.903
    6AU     AUL 1944  27.896   7.247   7.001
    6AU       S 1945  27.417   6.581   7.360
    6AU     LIG 1946  27.639   6.156   7.242
    6AU     LIG 1947  28.001   5.923   7.023
    6AU       S 1948  28.271   7.310   6.661
    6AU     LIG 1949  28.335   7.219   6.217
    6AU     LIG 1950  28.616   6.883   6.049
    7AU     AUC 1951  22.422  39.326   7.500
    7AU     AUC 1952  22.691  39.334   7.330
    7AU     AUC 1953  22.697  39.332   7.657
    7AU     AUC 1954  22.147  39.319   7.339
    7AU     AUC 1955  22.153  39.321   7.669
    7AU     AUC 1956  22.245  39.583   7.505
    7AU     AUC 1957  22.577  39.590   7.499
    7AU     AUC 1958  22.265  39.059   7.503
    7AU     AUC 1959  22.599  39.066   7.493
    7AU     AUC 1960  22.434  39.165   7.762
    7AU     AUC 1961  22.422  39.488   7.771
    7AU     AUC 1962  22.425  39.165   7.234
    7AU     AUC 1963  22.413  39.489   7.234
    7AU     AUC 1964  22.953  39.363   7.165
    7AU     AUC 1965  22.987  39.342   7.486
    7AU     AUC 1966  22.966  39.348   7.807
    7AU     AUC 1967  21.885  39.299   7.169
    7AU     AUC 1968  21.869  39.303   7.505
    7AU     AUC 1969  21.896  39.302   7.839
    7AU     AUC 1970  22.072  39.819   7.509
    7AU     AUC 1971  22.413  39.857   7.505
    7AU     AUC 1972  22.708  39.855   7.496
    7AU     AUC 1973  22.125  38.781   7.507
    7AU     AUC 1974  22.436  38.784   7.497
    7AU     AUC 1975  22.774  38.814   7.483
    7AU     AUC 1976  22.461  39.017   8.020
    7AU     AUC 1977  22.441  39.322   8.045
    7AU     AUC 1978  22.433  39.659   8.026
    7AU     AUC 1979  22.440  39.022   6.967
    7AU     AUC 1980  22.416  39.318   6.965
    7AU     AUC 1981  22.408  39.664   6.987
    7AU     AUC 1982  22.705  39.165   7.929
    7AU     AUC 1983  22.706  39.498   7.947
    7AU     AUC 1984  22.688  39.182   7.038
    7AU     AUC 1985  22.699  39.514   7.063
    7AU     AUC 1986  22.157  39.168   7.946
    7AU     AUC 1987  22.140  39.490   7.945
    7AU     AUC 1988  22.143  39.162   7.062
    7AU     AUC 1989  22.124  39.484   7.065
    7AU     AUC 1990  22.858  39.599   7.333
    7AU     AUC 1991  22.863  39.590   7.664
    7AU     AUC 1992  21.964  39.583   7.326
    7AU     AUC 1993  21.967  39.583   7.679
    7AU     AUC 1994  22.874  39.066   7.321
    7AU     AUC 1995  22.890  39.063   7.629
    7AU     AUC 1996  21.984  39.046   7.330
    7AU     AUC 1997  21.996  39.044   7.684
    7AU     AUC 1998  22.242  39.758   7.790
    7AU     AUC 1999  22.569  39.765   7.779
    7AU     AUC 2000  22.281  38.882   7.759
    7AU     AUC 2001  22.628  38.902   7.766
    7AU     AUC 2002  22.231  39.749   7.217
    7AU     AUC 2003  22.560  39.773   7.220
    7AU     AUC 2004  22.263  38.888   7.248
    7AU     AUC 2005  22.614  38.904   7.221
    7AU    AUSL 2006  22.885  39.297   8.127
    7AU    AUSL 2007  22.788  38.875   8.065
    7AU     AUL 2008  23.152  39.068   8.179
    7AU       S 2009  23.102  38.560   8.278
    7AU     LIG 2010  23.247  38.368   8.682
    7AU     LIG 2011  23.541  38.007   8.724
    7AU       S 2012  22.936  39.065   8.643
    7AU     LIG 2013  23.090  39.228   9.058
    7AU     LIG 2014  23.324  39.250   9.474
    7AU    AUSL 2015  22.597  39.129   8.243
    7AU    AUSL 2016  22.280  39.480   8.183
    7AU     AUL 2017  22.430  39.354   8.523
    7AU       S 2018  22.685  38.887   8.589
    7AU     LIG 2019  22.653  38.926   9.062
    7AU     LIG 2020  22.883  38.963   9.472
    7AU       S 2021  21.699  39.020   8.772
    7AU     LIG 2022  21.803  39.281   9.180
    7AU     LIG 2023  21.722  39.321   9.648
    7AU    AUSL 2024  22.616  39.525   8.250
    7AU    AUSL 2025  23.011  39.606   7.985
    7AU     AUL 2026  22.972  39.504   8.373
    7AU       S 2027  22.609  39.853   8.592
    7AU     LIG 2028  22.976  39.846   8.892
    7AU     LIG 2029  23.049  39.675   9.326
    7AU       S 2030  23.345  39.828   8.239
    7AU     LIG 2031  23.804  39.945   8.235
    7AU     LIG 2032  24.056  40.260   8.478
    7AU    AUSL 2033  22.892  39.391   6.830
    7AU    AUSL 2034  22.712  39.795   6.902
    7AU     AUL 2035  22.711  39.664   6.555
    7AU       S 2036  23.088  39.372   6.361
    7AU     LIG 2037  23.388  39.259   5.980
    7AU     LIG 2038  23.492  39.101   5.534
    7AU       S 2039  23.103  39.990   6.628
    7AU     LIG 2040  23.246  40.416   6.414
    7AU     LIG 2041  23.682  40.562   6.259
    7AU    AUSL 2042  22.625  39.156   6.730
    7AU    AUSL 2043  22.911  39.112   7.062
    7AU     AUL 2044  23.028  39.057   6.752
    7AU       S 2045  23.102  38.255   6.680
    7AU     LIG 2046  23.475  38.398   6.450
    7AU     LIG 2047  23.795  38.284   6.125
    7AU       S 2048  22.798  39.112   6.298
    7AU     LIG 2049  22.880  38.840   5.918
    7AU     LIG 2050  23.085  38.754   5.506
    7AU    AUSL 2051  22.557  39.493   6.830
    7AU    AUSL 2052  22.267  39.147   6.730
    7AU     AUL 2053  22.416  39.410   6.504
    7AU       S 2054  22.029  39.127   6.280
    7AU     LIG 2055  22.131  38.934   5.837
    7AU     LIG 2056  21.826  38.911   5.481
    7AU       S 2057  22.905  39.327   6.091
    7AU     LIG 2058  22.995  39.258   5.630
    7AU     LIG 2059  23.113  39.165   5.176
    7AU    AUSL 2060  21.956  39.302   8.159
    7AU    AUSL 2061  22.135  39.790   8.092
    7AU     AUL 2062  22.085  39.598   8.425
    7AU       S 2063  21.684  39.252   8.504
    7AU     LIG 2064  21.407  39.407   8.876
    7AU     LIG 2065  21.316  39.223   9.320
    7AU       S 2066  21.756  39.999   8.320
    7AU     LIG 2067  21.568  40.349   8.559
    7AU     LIG 2068  21.422  40.784   8.628
    7AU    AUSL 2069  22.253  39.135   8.266
    7AU    AUSL 2070  21.844  39.018   7.969
    7AU     AUL 2071  22.000  38.890   8.283
    7AU       S 2072  21.484  38.851   8.184
    7AU     LIG 2073  21.067  38.603   8.119
    7AU     LIG 2074  20.858  38.339   8.437
    7AU       S 2075  21.979  39.150   8.710
    7AU     LIG 2076  22.099  38.883   9.089
    7AU     LIG 2077  21.837  38.830   9.488
    7AU    AUSL 2078  21.942  39.256   6.850
    7AU    AUSL 2079  22.162  38.929   6.988
    7AU     AUL 2080  22.045  38.856   6.702
    7AU       S 2081  21.688  39.165   6.468
    7AU     LIG 2082  21.360  39.225   6.090
    7AU     LIG 2083  21.382  39.197   5.594
    7AU       S 2084  21.379  38.508   6.832
    7AU     LIG 2085  21.508  38.222   6.484
    7AU     LIG 2086  21.356  37.840   6.250
    7AU    AUSL 2087  22.220  39.492   6.837
    7AU    AUSL 2088  21.841  39.578   6.996
    7AU     AUL 2089  21.995  39.561   6.613
    7AU       S 2090  21.540  39.769   6.703
    7AU     LIG 2091  21.412  40.065   6.350
    7AU     LIG 2092  21.134  40.313   6.067
    7AU       S 2093  21.771  38.974   6.197
    7AU     LIG 2094  21.807  39.321   5.865
    7AU     LIG 2095  21.883  39.431   5.429
    7AU    AUSL 2096  23.027  39.800   7.480
    7AU    AUSL 2097  23.013  39.645   7.053
    7AU     AUL 2098  23.155  39.999   7.200
    7AU       S 2099  23.314  39.741   6.762
    7AU     LIG 2100  23.804  39.880   6.803
    7AU     LIG 2101  24.018  40.177   6.476
    7AU       S 2102  23.702  39.907   7.735
    7AU     LIG 2103  23.933  40.215   7.585
    7AU     LIG 2104  24.352  40.158   7.548
    7AU    AUSL 2105  23.188  39.522   7.328
    7AU    AUSL 2106  23.222  39.187   7.627
    7AU     AUL 2107  23.492  39.323   7.345
    7AU       S 2108  23.604  39.802   7.453
    7AU     LIG 2109  24.057  39.825   7.274
    7AU     LIG 2110  24.552  39.792   7.267
    7AU       S 2111  23.645  38.878   7.570
    7AU     LIG 2112  23.894  38.590   7.812
    7AU     LIG 2113  24.349  38.597   7.845
    7AU    AUSL 2114  23.175  39.534   7.688
    7AU    AUSL 2115  22.810  39.820   7.742
    7AU     AUL 2116  23.146  39.921   7.781
    7AU       S 2117  23.364  39.962   8.516
    7AU     LIG 2118  23.539  40.372   8.342
    7AU     LIG 2119  23.910  40.681   8.210
    7AU       S 2120  23.588  39.625   7.786
    7AU     LIG 2121  24.061  39.602   7.911
    7AU     LIG 2122  24.499  39.764   7.873
    7AU    AUSL 2123  21.774  39.774   7.516
    7AU    AUSL 2124  21.834  39.587   7.972
    7AU     AUL 2125  21.508  39.756   7.765
    7AU       S 2126  21.572  39.723   8.292
    7AU     LIG 2127  21.203  40.034   8.367
    7AU     LIG 2128  21.043  40.427   8.623
    7AU       S 2129  21.582  40.216   7.516
    7AU     LIG 2130  21.090  40.246   7.607
    7AU     LIG 2131  20.607  40.221   7.507
    7AU    AUSL 2132  21.697  39.467   7.292
    7AU    AUSL 2133  21.914  39.879   7.216
    7AU     AUL 2134  21.551  39.763   7.225
    7AU       S 2135  21.326  39.351   6.956
    7AU     LIG 2136  20.883  39.574   7.058
    7AU     LIG 2137  20.506  39.873   7.111
    7AU       S 2138  21.632  40.197   6.957
    7AU     LIG 2139  21.476  40.496   6.625
    7AU     LIG 2140  21.203  40.757   6.348
    7AU    AUSL 2141  21.682  39.448   7.694
    7AU    AUSL 2142  21.639  39.139   7.347
    7AU     AUL 2143  21.399  39.467   7.473
    7AU       S 2144  21.156  39.008   7.440
    7AU     LIG 2145  20.732  39.108   7.219
    7AU     LIG 2146  20.340  38.866   7.019
    7AU       S 2147  21.323  39.357   8.042
    7AU     LIG 2148  20.919  39.672   7.993
    7AU     LIG 2149  20.509  39.941   7.930
    7AU    AUSL 2150  23.086  38.871   7.469
    7AU    AUSL 2151  22.962  39.098   7.852
    7AU     AUL 2152  23.246  38.920   7.853
    7AU       S 2153  23.429  38.612   7.456
    7AU     LIG 2154  23.805  38.320   7.395
    7AU     LIG 2155  24.135  38.143   7.679
    7AU       S 2156  23.226  38.265   8.191
    7AU     LIG 2157  23.652  38.355   8.345
    7AU     LIG 2158  24.027  38.109   8.510
    7AU    AUSL 2159  23.174  39.166   7.280
    7AU    AUSL 2160  22.899  38.751   7.185
    7AU     AUL 2161  23.202  38.913   7.060
    7AU       S 2162  23.621  38.822   7.318
    7AU     LIG 2163  24.080  38.791   7.338
    7AU     LIG 2164  24.354  38.471   7.333
    7AU       S 2165  23.144  38.416   6.960
    7AU     LIG 2166  23.550  38.180   6.921
    7AU     LIG 2167  23.695  37.938   6.539
    7AU    AUSL 2168  21.887  38.893   7.499
    7AU    AUSL 2169  21.817  39.011   7.071
    7AU     AUL 2170  21.606  38.776   7.322
    7AU       S 2171  21.535  38.785   6.806
    7AU     LIG 2172  21.359  38.711   6.365
    7AU     LIG 2173  21.141  38.340   6.143
    7AU       S 2174  21.054  38.798   7.644
    7AU     LIG 2175  20.941  38.335   7.620
    7AU     LIG 2176  20.852  38.186   7.168
    7AU    AUSL 2177  21.670  39.108   7.692
    7AU    AUSL 2178  21.978  38.729   7.804
    7AU     AUL 2179  21.651  38.744   7.699
    7AU       S 2180  21.642  38.519   8.147
    7AU     LIG 2181  21.425  38.126   8.084
    7AU     LIG 2182  21.211  37.759   8.308
    7AU       S 2183  21.207  39.013   7.712
    7AU     LIG 2184  20.754  39.178   7.797
    7AU     LIG 2185  20.280  39.162   7.828
    7AU    AUSL 2186  22.440  39.971   7.983
    7AU    AUSL 2187  21.939  39.890   7.801
    7AU     AUL 2188  22.126  40.166   7.985
    7AU       S 2189  21.619  40.174   8.050
    7AU     LIG 2190  21.272  40.504   8.154
    7AU     LIG 2191  21.011  40.860   8.330
    7AU       S 2192  22.525  40.380   8.225
    7AU     LIG 2193  22.392  40.762   8.501
    7AU     LIG 2194  22.473  41.229   8.424
    7AU    AUSL 2195  22.236  40.016   7.670
    7AU    AUSL 2196  22.555  40.110   7.327
    7AU     AUL 2197  22.239  40.324   7.471
    7AU       S 2198  22.689  40.652   8.119
    7AU     LIG 2199  22.314  40.947   8.026
    7AU     LIG 2200  22.144  41.383   8.016
    7AU       S 2201  22.555  40.553   7.121
    7AU     LIG 2202  22.715  40.991   7.223
    7AU     LIG 2203  22.618  41.390   7.010
    7AU    AUSL 2204  22.587  40.087   7.673
    7AU    AUSL 2205  22.726  39.800   8.081
    7AU     AUL 2206  22.838  40.106   7.922
    7AU       S 2207  23.049  40.018   8.382
    7AU     LIG 2208  23.118  40.351   8.695
    7AU     LIG 2209  23.545  40.435   8.861
    7AU       S 2210  22.567  40.530   7.852
    7AU     LIG 2211  22.729  40.986   7.742
    7AU     LIG 2212  22.661  41.424   7.917
    7AU    AUSL 2213  22.475  38.741   7.971
    7AU    AUSL 2214  22.919  38.737   7.755
    7AU     AUL 2215  22.694  38.483   7.987
    7AU       S 2216  22.050  37.952   7.989
    7AU     LIG 2217  22.242  37.578   8.219
    7AU     LIG 2218  22.507  37.360   8.553
    7AU       S 2219  23.209  38.417   7.918
    7AU     LIG 2220  23.611  38.151   7.874
    7AU     LIG 2221  23.687  37.848   8.226
    7AU    AUSL 2222  22.256  38.561   7.689
    7AU    AUSL 2223  22.196  38.927   7.994
    7AU     AUL 2224  22.189  38.554   8.073
    7AU       S 2225  21.976  38.168   7.750
    7AU     LIG 2226  21.636  37.744   7.794
    7AU     LIG 2227  21.820  37.351   7.994
    7AU       S 2228  21.483  38.615   8.409
    7AU     LIG 2229  21.355  38.192   8.586
    7AU     LIG 2230  21.250  37.790   8.825
    7AU    AUSL 2231  22.605  38.635   7.664
    7AU    AUSL 2232  22.265  38.554   7.333
    7AU     AUL 2233  22.499  38.305   7.543
    7AU       S 2234  22.053  38.157   7.260
    7AU     LIG 2235  21.752  37.785   7.296
    7AU     LIG 2236  21.936  37.482   6.985
    7AU       S 2237  22.104  37.877   7.711
    7AU     LIG 2238  22.439  37.581   7.743
    7AU     LIG 2239  22.719  37.409   8.080
    7AU    AUSL 2240  22.427  39.974   7.016
    7AU    AUSL 2241  22.789  39.858   7.245
    7AU     AUL 2242  22.805  40.121   7.040
    7AU       S 2243  22.452  40.387   6.771
    7AU     LIG 2244  22.231  40.738   6.525
    7AU     LIG 2245  22.346  41.205   6.549
    7AU       S 2246  23.405  39.960   6.531
    7AU     LIG 2247  23.630  40.363   6.747
    7AU     LIG 2248  23.837  40.806   6.696
    7AU    AUSL 2249  22.231  39.965   7.332
    7AU    AUSL 2250  22.122  39.814   6.932
    7AU     AUL 2251  22.120  40.176   7.099
    7AU       S 2252  22.616  40.677   6.836
    7AU     LIG 2253  22.263  40.968   6.992
    7AU     LIG 2254  22.093  41.412   7.016
    7AU       S 2255  21.795  40.042   6.699
    7AU     LIG 2256  21.877  40.326   6.357
    7AU     LIG 2257  21.599  40.553   6.075
    7AU    AUSL 2258  22.438  38.759   7.081
    7AU    AUSL 2259  21.981  38.718   7.211
    7AU     AUL 2260  22.205  38.553   6.938
    7AU       S 2261  21.687  38.458   6.930
    7AU     LIG 2262  21.467  38.021   6.945
    7AU     LIG 2263  21.084  37.946   6.697
    7AU       S 2264  22.099  37.972   6.984
    7AU     LIG 2265  22.340  37.635   6.729
    7AU     LIG 2266  22.300  37.236   6.457
    7AU    AUSL 2267  22.628  38.604   7.331
    7AU    AUSL 2268  22.711  38.855   6.896
    7AU     AUL 2269  22.631  38.483   7.007
    7AU       S 2270  22.239  37.871   7.223
    7AU     LIG 2271  22.447  37.470   7.211
    7AU     LIG 2272  22.450  37.133   6.924
    7AU       S 2273  22.981  38.551   6.638
    7AU     LIG 2274  23.039  38.417   6.187
    7AU     LIG 2275  23.324  38.113   5.974
    8AU     AUC 2276  20.280  24.701   7.509
    8AU     AUC 2277  20.548  24.711   7.342
    8AU     AUC 2278  20.553  24.712   7.668
    8AU     AUC 2279  20.008  24.690   7.346
    8AU     AUC 2280  20.012  24.693   7.677
    8AU     AUC 2281  20.101  24.957   7.511
    8AU     AUC 2282  20.431  24.968   7.507
    8AU     AUC 2283  20.128  24.431   7.512
    8AU     AUC 2284  20.460  24.441   7.507
    8AU     AUC 2285  20.293  24.541   7.773
    8AU     AUC 2286  20.277  24.866   7.779
    8AU     AUC 2287  20.285  24.537   7.245
    8AU     AUC 2288  20.270  24.863   7.242
    8AU     AUC 2289  20.809  24.740   7.178
    8AU     AUC 2290  20.844  24.723   7.499
    8AU     AUC 2291  20.822  24.735   7.819
    8AU     AUC 2292  19.748  24.666   7.175
    8AU     AUC 2293  19.732  24.672   7.511
    8AU     AUC 2294  19.755  24.671   7.845
    8AU     AUC 2295  19.925  25.192   7.513
    8AU     AUC 2296  20.264  25.235   7.508
    8AU     AUC 2297  20.559  25.235   7.502
    8AU     AUC 2298  19.992  24.150   7.517
    8AU     AUC 2299  20.303  24.157   7.513
    8AU     AUC 2300  20.640  24.191   7.502
    8AU     AUC 2301  20.319  24.396   8.033
    8AU     AUC 2302  20.296  24.701   8.054
    8AU     AUC 2303  20.285  25.039   8.032
    8AU     AUC 2304  20.304  24.390   6.979
    8AU     AUC 2305  20.277  24.690   6.974
    8AU     AUC 2306  20.263  25.038   6.992
    8AU     AUC 2307  20.562  24.549   7.942
    8AU     AUC 2308  20.560  24.883   7.956
    8AU     AUC 2309  20.548  24.556   7.052
    8AU     AUC 2310  20.553  24.889   7.072
    8AU     AUC 2311  20.014  24.538   7.955
    8AU     AUC 2312  19.995  24.864   7.951
    8AU     AUC 2313  20.006  24.529   7.069
    8AU     AUC 2314  19.983  24.855   7.072
    8AU     AUC 2315  20.710  24.978   7.342
    8AU     AUC 2316  20.716  24.972   7.673
    8AU     AUC 2317  19.822  24.954   7.332
    8AU     AUC 2318  19.824  24.955   7.685
    8AU     AUC 2319  20.733  24.442   7.338
    8AU     AUC 2320  20.750  24.445   7.645
    8AU     AUC 2321  19.849  24.413   7.336
    8AU     AUC 2322  19.858  24.412   7.692
    8AU     AUC 2323  20.096  25.134   7.795
    8AU     AUC 2324  20.421  25.146   7.784
    8AU     AUC 2325  20.144  24.256   7.770
    8AU     AUC 2326  20.492  24.281   7.780
    8AU     AUC 2327  20.085  25.123   7.221
    8AU     AUC 2328  20.411  25.151   7.225
    8AU     AUC 2329  20.128  24.256   7.257
    8AU     AUC 2330  20.476  24.276   7.234
    8AU    AUSL 2331  20.739  24.688   8.138
    8AU    AUSL 2332  20.650  24.267   8.087
    8AU     AUL 2333  21.017  24.475   8.186
    8AU       S 2334  20.960  23.978   8.328
    8AU     LIG 2335  21.097  23.655   8.655
    8AU     LIG 2336  21.355  23.290   8.796
    8AU       S 2337  20.802  24.462   8.648
    8AU     LIG 2338  21.015  24.641   9.023
    8AU     LIG 2339  21.217  24.708   9.443
    8AU    AUSL 2340  20.451  24.517   8.256
    8AU    AUSL 2341  20.133  24.853   8.185
    8AU     AUL 2342  20.276  24.737   8.530
    8AU       S 2343  20.550  24.291   8.615
    8AU     LIG 2344  20.537  24.438   9.085
    8AU     LIG 2345  20.794  24.402   9.481
    8AU       S 2346  19.547  24.448   8.807
    8AU     LIG 2347  19.688  24.760   9.150
    8AU     LIG 2348  19.651  24.902   9.594
    8AU    AUSL 2349  20.466  24.911   8.261
    8AU    AUSL 2350  20.865  24.999   7.993
    8AU     AUL 2351  20.831  24.904   8.377
    8AU       S 2352  20.447  25.230   8.605
    8AU     LIG 2353  20.750  25.111   8.948
    8AU     LIG 2354  20.731  24.904   9.364
    8AU       S 2355  21.155  25.284   8.275
    8AU     LIG 2356  21.558  25.399   8.498
    8AU     LIG 2357  21.883  25.690   8.674
    8AU    AUSL 2358  20.750  24.765   6.845
    8AU    AUSL 2359  20.563  25.168   6.908
    8AU     AUL 2360  20.583  25.034   6.560
    8AU       S 2361  20.934  24.715   6.364
    8AU     LIG 2362  21.267  24.769   6.018
    8AU     LIG 2363  21.307  24.522   5.611
    8AU       S 2364  20.988  25.346   6.649
    8AU     LIG 2365  21.202  25.663   6.358
    8AU     LIG 2366  21.478  25.986   6.146
    8AU    AUSL 2367  20.490  24.524   6.746
    8AU    AUSL 2368  20.769  24.487   7.081
    8AU     AUL 2369  20.906  24.445   6.786
    8AU       S 2370  20.964  23.661   6.657
    8AU     LIG 2371  21.365  23.741   6.474
    8AU     LIG 2372  21.725  23.521   6.294
    8AU       S 2373  20.656  24.435   6.335
    8AU     LIG 2374  20.585  24.195   5.941
    8AU     LIG 2375  20.905  24.172   5.620
    8AU    AUSL 2376  20.416  24.865   6.831
    8AU    AUSL 2377  20.130  24.518   6.740
    8AU     AUL 2378  20.287  24.770   6.505
    8AU       S 2379  19.862  24.516   6.298
    8AU     LIG 2380  19.991  24.326   5.876
    8AU     LIG 2381  19.747  24.378   5.465
    8AU       S 2382  20.950  24.426   6.206
    8AU     LIG 2383  20.815  24.642   5.815
    8AU     LIG 2384  20.867  24.619   5.342
    8AU    AUSL 2385  19.810  24.671   8.164
    8AU    AUSL 2386  19.990  25.166   8.098
    8AU     AUL 2387  19.942  24.969   8.428
    8AU       S 2388  19.539  24.633   8.513
    8AU     LIG 2389  19.281  24.869   8.855
    8AU     LIG 2390  19.210  24.736   9.328
    8AU       S 2391  19.617  25.372   8.330
    8AU     LIG 2392  19.534  25.634   8.704
    8AU     LIG 2393  19.187  25.873   8.915
    8AU    AUSL 2394  20.106  24.506   8.276
    8AU    AUSL 2395  19.700  24.381   7.974
    8AU     AUL 2396  19.837  24.260   8.288
    8AU       S 2397  19.333  24.136   8.194
    8AU     LIG 2398  18.883  23.953   8.439
    8AU     LIG 2399  18.694  23.543   8.656
    8AU       S 2400  19.836  24.520   8.716
    8AU     LIG 2401  19.937  24.321   9.136
    8AU     LIG 2402  19.699  24.379   9.545
    8AU    AUSL 2403  19.804  24.627   6.858
    8AU    AUSL 2404  20.027  24.292   6.994
    8AU     AUL 2405  19.909  24.230   6.704
    8AU       S 2406  19.537  24.555   6.501
    8AU     LIG 2407  19.245  24.748   6.143
    8AU     LIG 2408  19.199  24.734   5.647
    8AU       S 2409  19.446  23.841   6.635
    8AU     LIG 2410  19.297  23.408   6.472
    8AU     LIG 2411  18.983  23.201   6.189
    8AU    AUSL 2412  20.080  24.861   6.846
    8AU    AUSL 2413  19.699  24.946   7.002
    8AU     AUL 2414  19.861  24.943   6.624
    8AU       S 2415  19.387  25.120   6.708
    8AU     LIG 2416  19.101  25.435   6.492
    8AU     LIG 2417  18.763  25.772   6.411
    8AU       S 2418  19.586  24.382   6.210
    8AU     LIG 2419  19.670  24.716   5.868
    8AU     LIG 2420  19.628  25.052   5.562
    8AU    AUSL 2421  20.876  25.177   7.484
    8AU    AUSL 2422  20.863  25.026   7.067
    8AU     AUL 2423  20.976  25.398   7.213
    8AU       S 2424  21.164  25.106   6.782
    8AU     LIG 2425  21.389  25.165   6.348
    8AU     LIG 2426  21.693  25.516   6.242
    8AU       S 2427  21.716  25.107   7.533
    8AU     LIG 2428  21.953  25.503   7.536
    8AU     LIG 2429  22.351  25.705   7.628
    8AU    AUSL 2430  21.044  24.898   7.335
    8AU    AUSL 2431  21.082  24.573   7.645
    8AU     AUL 2432  21.350  24.689   7.359
    8AU       S 2433  21.434  25.187   7.406
    8AU     LIG 2434  21.714  25.378   7.090
    8AU     LIG 2435  22.161  25.409   7.053
    8AU       S 2436  21.525  24.261   7.604
    8AU     LIG 2437  21.892  24.204   7.904
    8AU     LIG 2438  22.383  24.217   7.918
    8AU    AUSL 2439  21.032  24.921   7.697
    8AU    AUSL 2440  20.664  25.204   7.750
    8AU     AUL 2441  21.007  25.305   7.783
    8AU       S 2442  21.140  25.611   8.299
    8AU     LIG 2443  21.528  25.894   8.331
    8AU     LIG 2444  21.703  26.241   8.605
    8AU       S 2445  21.455  25.046   7.748
    8AU     LIG 2446  21.796  25.281   7.996
    8AU     LIG 2447  22.260  25.262   7.882
    8AU    AUSL 2448  19.629  25.144   7.522
    8AU    AUSL 2449  19.690  24.958   7.980
    8AU     AUL 2450  19.358  25.118   7.775
    8AU       S 2451  19.431  25.088   8.302
    8AU     LIG 2452  19.132  25.334   8.578
    8AU     LIG 2453  18.783  25.667   8.639
    8AU       S 2454  19.442  25.580   7.510
    8AU     LIG 2455  19.021  25.716   7.314
    8AU     LIG 2456  18.696  25.955   7.528
    8AU    AUSL 2457  19.561  24.834   7.299
    8AU    AUSL 2458  19.766  25.247   7.219
    8AU     AUL 2459  19.407  25.125   7.229
    8AU       S 2460  19.192  24.703   6.963
    8AU     LIG 2461  18.810  24.996   7.069
    8AU     LIG 2462  18.617  25.444   7.076
    8AU       S 2463  19.461  25.561   6.964
    8AU     LIG 2464  19.109  25.854   6.804
    8AU     LIG 2465  18.883  26.232   6.617
    8AU    AUSL 2466  19.544  24.816   7.702
    8AU    AUSL 2467  19.506  24.505   7.349
    8AU     AUL 2468  19.268  24.843   7.479
    8AU       S 2469  19.034  24.393   7.389
    8AU     LIG 2470  18.722  24.283   7.058
    8AU     LIG 2471  18.308  24.053   7.025
    8AU       S 2472  19.198  24.692   8.049
    8AU     LIG 2473  18.726  24.731   7.964
    8AU     LIG 2474  18.396  25.084   7.911
    8AU    AUSL 2475  20.948  24.250   7.491
    8AU    AUSL 2476  20.820  24.486   7.866
    8AU     AUL 2477  21.109  24.312   7.870
    8AU       S 2478  21.284  23.999   7.494
    8AU     LIG 2479  21.618  23.735   7.620
    8AU     LIG 2480  21.833  23.572   7.272
    8AU       S 2481  21.276  23.888   8.246
    8AU     LIG 2482  21.612  23.653   8.494
    8AU     LIG 2483  21.864  23.390   8.799
    8AU    AUSL 2484  21.030  24.543   7.299
    8AU    AUSL 2485  20.768  24.127   7.204
    8AU     AUL 2486  21.069  24.289   7.087
    8AU       S 2487  21.488  24.188   7.344
    8AU     LIG 2488  21.872  24.039   7.090
    8AU     LIG 2489  22.302  23.771   7.089
    8AU       S 2490  21.026  23.805   6.933
    8AU     LIG 2491  21.423  23.497   6.922
    8AU     LIG 2492  21.646  23.140   6.660
    8AU    AUSL 2493  19.755  24.262   7.507
    8AU    AUSL 2494  19.684  24.376   7.075
    8AU     AUL 2495  19.477  24.138   7.328
    8AU       S 2496  19.400  24.139   6.813
    8AU     LIG 2497  18.973  23.957   6.743
    8AU     LIG 2498  18.819  23.626   6.471
    8AU       S 2499  18.795  24.440   7.545
    8AU     LIG 2500  18.636  24.002   7.472
    8AU     LIG 2501  18.687  23.692   7.097
    8AU    AUSL 2502  19.533  24.478   7.693
    8AU    AUSL 2503  19.844  24.092   7.808
    8AU     AUL 2504  19.511  24.123   7.703
    8AU       S 2505  19.537  23.814   8.099
    8AU     LIG 2506  19.310  23.368   8.033
    8AU     LIG 2507  18.906  23.231   8.272
    8AU       S 2508  19.064  24.386   7.675
    8AU     LIG 2509  18.793  24.161   7.964
    8AU     LIG 2510  18.352  24.237   7.950
    8AU    AUSL 2511  20.290  25.354   7.983
    8AU    AUSL 2512  19.794  25.262   7.807
    8AU     AUL 2513  19.980  25.544   7.988
    8AU       S 2514  19.479  25.534   8.057
    8AU     LIG 2515  19.205  25.791   8.342
    8AU     LIG 2516  18.972  26.150   8.530
    8AU       S 2517  20.378  25.784   8.206
    8AU     LIG 2518  20.309  26.183   8.507
    8AU     LIG 2519  20.475  26.639   8.513
    8AU    AUSL 2520  20.086  25.393   7.671
    8AU    AUSL 2521  20.405  25.491   7.331
    8AU     AUL 2522  20.077  25.699   7.467
    8AU       S 2523  20.539  26.043   8.097
    8AU     LIG 2524  20.292  26.468   8.065
    8AU     LIG 2525  20.248  26.959   8.152
    8AU       S 2526  20.452  25.949   7.205
    8AU     LIG 2527  20.543  26.446   7.298
    8AU     LIG 2528  20.542  26.859   7.035
    8AU    AUSL 2529  20.437  25.468   7.674
    8AU    AUSL 2530  20.574  25.187   8.088
    8AU     AUL 2531  20.686  25.491   7.917
    8AU       S 2532  20.853  25.431   8.393
    8AU     LIG 2533  21.048  25.545   8.787
    8AU     LIG 2534  21.410  25.824   8.832
    8AU       S 2535  20.434  25.926   7.824
    8AU     LIG 2536  20.700  26.378   7.773
    8AU     LIG 2537  20.722  26.783   8.030
    8AU    AUSL 2538  20.343  24.125   7.979
    8AU    AUSL 2539  20.786  24.123   7.783
    8AU     AUL 2540  20.569  23.872   8.019
    8AU       S 2541  19.834  23.362   8.087
    8AU     LIG 2542  19.963  22.971   8.350
    8AU     LIG 2543  20.331  22.767   8.589
    8AU       S 2544  21.087  23.813   7.995
    8AU     LIG 2545  21.432  23.446   8.050
    8AU     LIG 2546  21.635  23.147   8.378
    8AU    AUSL 2547  20.132  23.933   7.704
    8AU    AUSL 2548  20.052  24.294   8.008
    8AU     AUL 2549  20.065  23.931   8.089
    8AU       S 2550  19.883  23.524   7.788
    8AU     LIG 2551  19.647  23.056   7.743
    8AU     LIG 2552  19.757  22.654   7.998
    8AU       S 2553  19.218  23.855   8.095
    8AU     LIG 2554  19.240  23.592   8.488
    8AU     LIG 2555  19.129  23.297   8.831
    8AU    AUSL 2556  20.483  24.000   7.682
    8AU    AUSL 2557  20.130  23.923   7.347
    8AU     AUL 2558  20.372  23.677   7.544
    8AU       S 2559  19.913  23.519   7.292
    8AU     LIG 2560  19.552  23.217   7.170
    8AU     LIG 2561  19.670  22.844   6.922
    8AU       S 2562  20.059  23.281   7.901
    8AU     LIG 2563  20.238  22.861   7.938
    8AU     LIG 2564  20.591  22.646   8.144
    8AU    AUSL 2565  20.276  25.353   7.020
    8AU    AUSL 2566  20.637  25.241   7.249
    8AU     AUL 2567  20.639  25.502   7.022
    8AU       S 2568  20.304  25.844   6.844
    8AU     LIG 2569  20.215  26.251   6.543
    8AU     LIG 2570  20.313  26.734   6.566
    8AU       S 2571  21.311  25.392   6.774
    8AU     LIG 2572  21.598  25.745   6.707
    8AU     LIG 2573  21.875  26.061   6.495
    8AU    AUSL 2574  20.079  25.345   7.332
    8AU    AUSL 2575  19.975  25.183   6.934
    8AU     AUL 2576  19.962  25.546   7.083
    8AU       S 2577  20.463  26.115   6.943
    8AU     LIG 2578  20.148  26.505   6.992
    8AU     LIG 2579  20.044  26.999   6.991
    8AU       S 2580  19.617  25.403   6.705
    8AU     LIG 2581  19.496  25.755   6.438
    8AU     LIG 2582  19.182  25.841   6.104
    8AU    AUSL 2583  20.302  24.118   7.084
    8AU    AUSL 2584  19.846  24.084   7.220
    8AU     AUL 2585  20.062  23.910   6.953
    8AU       S 2586  19.538  23.824   6.931
    8AU     LIG 2587  19.154  23.509   6.944
    8AU     LIG 2588  18.799  23.213   6.761
    8AU       S 2589  20.041  23.294   7.087
    8AU     LIG 2590  20.089  23.014   6.695
    8AU     LIG 2591  19.942  22.582   6.549
    8AU    AUSL 2592  20.491  23.989   7.347
    8AU    AUSL 2593  20.579  24.227   6.913
    8AU     AUL 2594  20.517  23.849   7.031
    8AU       S 2595  20.013  23.189   7.377
    8AU     LIG 2596  20.235  22.823   7.137
    8AU     LIG 2597  20.352  22.489   6.833
    8AU       S 2598  20.829  23.955   6.631
    8AU     LIG 2599  20.967  23.907   6.180
    8AU     LIG 2600  21.282  23.634   5.958
    9AU     AUC 2601  18.942  13.056   7.503
    9AU     AUC 2602  19.211  13.067   7.335
    9AU     AUC 2603  19.217  13.061   7.662
    9AU     AUC 2604  18.669  13.049   7.340
    9AU     AUC 2605  18.673  13.046   7.670
    9AU     AUC 2606  18.764  13.312   7.509
    9AU     AUC 2607  19.094  13.321   7.505
    9AU     AUC 2608  18.787  12.787   7.501
    9AU     AUC 2609  19.121  12.796   7.495
    9AU     AUC 2610  18.954  12.891   7.763
    9AU     AUC 2611  18.941  13.215   7.775
    9AU     AUC 2612  18.947  12.898   7.235
    9AU     AUC 2613  18.933  13.222   7.238
    9AU     AUC 2614  19.474  13.099   7.173
    9AU     AUC 2615  19.509  13.076   7.494
    9AU     AUC 2616  19.485  13.078   7.814
    9AU     AUC 2617  18.409  13.031   7.168
    9AU     AUC 2618  18.392  13.032   7.504
    9AU     AUC 2619  18.415  13.023   7.837
    9AU     AUC 2620  18.589  13.548   7.515
    9AU     AUC 2621  18.930  13.588   7.512
    9AU     AUC 2622  19.222  13.587   7.505
    9AU     AUC 2623  18.650  12.507   7.500
    9AU     AUC 2624  18.961  12.514   7.493
    9AU     AUC 2625  19.299  12.547   7.484
    9AU     AUC 2626  18.979  12.739   8.018
    9AU     AUC 2627  18.959  13.044   8.047
    9AU     AUC 2628  18.950  13.383   8.032
    9AU     AUC 2629  18.963  12.757   6.966
    9AU     AUC 2630  18.939  13.054   6.967
    9AU     AUC 2631  18.928  13.399   6.992
    9AU     AUC 2632  19.225  12.891   7.933
    9AU     AUC 2633  19.224  13.226   7.954
    9AU     AUC 2634  19.210  12.918   7.042
    9AU     AUC 2635  19.217  13.249   7.068
    9AU     AUC 2636  18.675  12.888   7.944
    9AU     AUC 2637  18.659  13.212   7.947
    9AU     AUC 2638  18.665  12.893   7.061
    9AU     AUC 2639  18.645  13.218   7.070
    9AU     AUC 2640  19.373  13.333   7.341
    9AU     AUC 2641  19.380  13.321   7.672
    9AU     AUC 2642  18.484  13.315   7.329
    9AU     AUC 2643  18.486  13.309   7.682
    9AU     AUC 2644  19.398  12.801   7.328
    9AU     AUC 2645  19.411  12.794   7.635
    9AU     AUC 2646  18.507  12.774   7.326
    9AU     AUC 2647  18.516  12.766   7.680
    9AU     AUC 2648  18.760  13.484   7.796
    9AU     AUC 2649  19.085  13.495   7.787
    9AU     AUC 2650  18.802  12.606   7.753
    9AU     AUC 2651  19.151  12.629   7.765
    9AU     AUC 2652  18.749  13.481   7.222
    9AU     AUC 2653  19.075  13.507   7.226
    9AU     AUC 2654  18.787  12.619   7.242
    9AU     AUC 2655  19.138  12.639   7.220
    9AU    AUSL 2656  19.405  13.025   8.133
    9AU    AUSL 2657  19.303  12.597   8.069
    9AU     AUL 2658  19.665  12.781   8.188
    9AU       S 2659  19.600  12.277   8.301
    9AU     LIG 2660  19.708  12.014   8.701
    9AU     LIG 2661  19.964  11.603   8.734
    9AU       S 2662  19.450  12.808   8.655
    9AU     LIG 2663  19.607  12.950   9.082
    9AU     LIG 2664  19.845  12.955   9.499
    9AU    AUSL 2665  19.115  12.853   8.245
    9AU    AUSL 2666  18.798  13.197   8.181
    9AU     AUL 2667  18.938  13.070   8.524
    9AU       S 2668  19.209  12.614   8.595
    9AU     LIG 2669  19.211  12.607   9.074
    9AU     LIG 2670  19.494  12.561   9.456
    9AU       S 2671  18.195  12.791   8.787
    9AU     LIG 2672  18.344  13.098   9.138
    9AU     LIG 2673  18.282  13.228   9.592
    9AU    AUSL 2674  19.132  13.247   8.258
    9AU    AUSL 2675  19.529  13.338   7.990
    9AU     AUL 2676  19.495  13.237   8.373
    9AU       S 2677  19.129  13.561   8.609
    9AU     LIG 2678  19.475  13.503   8.930
    9AU     LIG 2679  19.554  13.379   9.377
    9AU       S 2680  19.861  13.569   8.245
    9AU     LIG 2681  20.308  13.697   8.320
    9AU     LIG 2682  20.382  14.013   8.650
    9AU    AUSL 2683  19.413  13.127   6.838
    9AU    AUSL 2684  19.230  13.531   6.908
    9AU     AUL 2685  19.248  13.402   6.557
    9AU       S 2686  19.616  13.096   6.366
    9AU     LIG 2687  19.912  13.144   5.985
    9AU     LIG 2688  19.903  12.841   5.612
    9AU       S 2689  19.654  13.714   6.656
    9AU     LIG 2690  19.850  14.085   6.417
    9AU     LIG 2691  20.164  14.439   6.374
    9AU    AUSL 2692  19.146  12.891   6.732
    9AU    AUSL 2693  19.434  12.852   7.073
    9AU     AUL 2694  19.546  12.796   6.763
    9AU       S 2695  19.674  12.000   6.705
    9AU     LIG 2696  20.067  11.981   6.466
    9AU     LIG 2697  20.400  11.783   6.189
    9AU       S 2698  19.319  12.832   6.303
    9AU     LIG 2699  19.278  12.539   5.915
    9AU     LIG 2700  19.480  12.544   5.486
    9AU    AUSL 2701  19.079  13.231   6.824
    9AU    AUSL 2702  18.787  12.889   6.729
    9AU     AUL 2703  18.941  13.142   6.498
    9AU       S 2704  18.500  12.902   6.287
    9AU     LIG 2705  18.664  12.697   5.888
    9AU     LIG 2706  18.505  12.688   5.439
    9AU       S 2707  19.612  12.804   6.190
    9AU     LIG 2708  19.450  13.005   5.793
    9AU     LIG 2709  19.502  13.045   5.318
    9AU    AUSL 2710  18.474  13.016   8.155
    9AU    AUSL 2711  18.655  13.511   8.100
    9AU     AUL 2712  18.608  13.307   8.427
    9AU       S 2713  18.198  12.966   8.488
    9AU     LIG 2714  17.971  13.244   8.804
    9AU     LIG 2715  17.853  13.141   9.262
    9AU       S 2716  18.287  13.710   8.335
    9AU     LIG 2717  18.224  14.050   8.627
    9AU     LIG 2718  17.987  14.382   8.837
    9AU    AUSL 2719  18.770  12.850   8.263
    9AU    AUSL 2720  18.361  12.732   7.963
    9AU     AUL 2721  18.517  12.604   8.275
    9AU       S 2722  18.011  12.504   8.195
    9AU     LIG 2723  17.593  12.265   8.347
    9AU     LIG 2724  17.443  12.072   8.763
    9AU       S 2725  18.485  12.862   8.701
    9AU     LIG 2726  18.600  12.662   9.110
    9AU     LIG 2727  18.375  12.718   9.523
    9AU    AUSL 2728  18.463  12.994   6.853
    9AU    AUSL 2729  18.684  12.659   6.978
    9AU     AUL 2730  18.570  12.602   6.683
    9AU       S 2731  18.190  12.931   6.511
    9AU     LIG 2732  17.966  13.208   6.185
    9AU     LIG 2733  17.785  13.181   5.730
    9AU       S 2734  18.148  12.170   6.660
    9AU     LIG 2735  17.905  11.812   6.474
    9AU     LIG 2736  17.821  11.675   6.028
    9AU    AUSL 2737  18.743  13.226   6.849
    9AU    AUSL 2738  18.364  13.315   6.997
    9AU     AUL 2739  18.534  13.309   6.622
    9AU       S 2740  18.068  13.504   6.695
    9AU     LIG 2741  17.923  13.854   6.383
    9AU     LIG 2742  17.697  14.030   5.996
    9AU       S 2743  18.223  12.766   6.209
    9AU     LIG 2744  18.272  13.015   5.804
    9AU     LIG 2745  18.152  13.105   5.350
    9AU    AUSL 2746  19.537  13.528   7.487
    9AU    AUSL 2747  19.526  13.385   7.066
    9AU     AUL 2748  19.637  13.755   7.222
    9AU       S 2749  19.830  13.472   6.793
    9AU     LIG 2750  20.060  13.513   6.382
    9AU     LIG 2751  20.334  13.897   6.376
    9AU       S 2752  20.360  13.578   7.559
    9AU     LIG 2753  20.527  13.903   7.260
    9AU     LIG 2754  20.813  14.156   6.995
    9AU    AUSL 2755  19.708  13.257   7.334
    9AU    AUSL 2756  19.741  12.919   7.642
    9AU     AUL 2757  20.015  13.058   7.394
    9AU       S 2758  20.093  13.559   7.419
    9AU     LIG 2759  20.318  13.490   7.038
    9AU     LIG 2760  20.743  13.491   6.954
    9AU       S 2761  20.186  12.601   7.577
    9AU     LIG 2762  20.656  12.649   7.681
    9AU     LIG 2763  21.000  12.464   7.936
    9AU    AUSL 2764  19.699  13.270   7.695
    9AU    AUSL 2765  19.326  13.554   7.754
    9AU     AUL 2766  19.663  13.654   7.784
    9AU       S 2767  19.854  13.900   8.270
    9AU     LIG 2768  20.207  14.212   8.221
    9AU     LIG 2769  20.352  14.538   8.554
    9AU       S 2770  20.134  13.423   7.764
    9AU     LIG 2771  20.608  13.386   7.945
    9AU     LIG 2772  21.034  13.581   8.020
    9AU    AUSL 2773  18.292  13.504   7.521
    9AU    AUSL 2774  18.353  13.307   7.978
    9AU     AUL 2775  18.028  13.482   7.778
    9AU       S 2776  18.095  13.433   8.302
    9AU     LIG 2777  17.807  13.763   8.504
    9AU     LIG 2778  17.560  14.131   8.673
    9AU       S 2779  18.119  13.948   7.532
    9AU     LIG 2780  17.739  14.240   7.564
    9AU     LIG 2781  17.423  14.427   7.292
    9AU    AUSL 2782  18.223  13.202   7.291
    9AU    AUSL 2783  18.432  13.611   7.220
    9AU     AUL 2784  18.073  13.502   7.221
    9AU       S 2785  17.858  13.081   6.953
    9AU     LIG 2786  17.417  13.176   7.146
    9AU     LIG 2787  17.081  13.518   7.233
    9AU       S 2788  18.151  13.938   6.948
    9AU     LIG 2789  17.918  14.287   6.695
    9AU     LIG 2790  17.820  14.700   6.462
    9AU    AUSL 2791  18.204  13.174   7.696
    9AU    AUSL 2792  18.166  12.874   7.340
    9AU     AUL 2793  17.933  13.218   7.471
    9AU       S 2794  17.693  12.775   7.366
    9AU     LIG 2795  17.434  12.507   7.083
    9AU     LIG 2796  17.086  12.189   7.109
    9AU       S 2797  17.850  13.054   8.032
    9AU     LIG 2798  17.422  13.201   7.844
    9AU     LIG 2799  17.121  13.586   7.744
    9AU    AUSL 2800  19.610  12.606   7.475
    9AU    AUSL 2801  19.483  12.823   7.862
    9AU     AUL 2802  19.777  12.646   7.858
    9AU       S 2803  19.937  12.350   7.450
    9AU     LIG 2804  20.273  12.073   7.491
    9AU     LIG 2805  20.613  12.124   7.756
    9AU       S 2806  19.709  11.977   8.204
    9AU     LIG 2807  20.128  11.979   8.401
    9AU     LIG 2808  20.462  11.741   8.648
    9AU    AUSL 2809  19.700  12.903   7.291
    9AU    AUSL 2810  19.429  12.488   7.189
    9AU     AUL 2811  19.726  12.656   7.064
    9AU       S 2812  20.144  12.556   7.320
    9AU     LIG 2813  20.582  12.398   7.243
    9AU     LIG 2814  20.974  12.602   7.111
    9AU       S 2815  19.693  12.148   6.993
    9AU     LIG 2816  20.078  11.818   6.969
    9AU     LIG 2817  20.226  11.500   6.612
    9AU    AUSL 2818  18.407  12.616   7.495
    9AU    AUSL 2819  18.342  12.739   7.066
    9AU     AUL 2820  18.128  12.508   7.318
    9AU       S 2821  18.070  12.469   6.804
    9AU     LIG 2822  17.654  12.249   6.666
    9AU     LIG 2823  17.461  11.998   6.300
    9AU       S 2824  17.456  12.794   7.516
    9AU     LIG 2825  17.322  12.340   7.566
    9AU     LIG 2826  17.344  11.873   7.562
    9AU    AUSL 2827  18.192  12.835   7.684
    9AU    AUSL 2828  18.501  12.443   7.791
    9AU     AUL 2829  18.157  12.478   7.697
    9AU       S 2830  18.193  12.185   8.104
    9AU     LIG 2831  17.845  11.869   8.073
    9AU     LIG 2832  17.528  11.760   8.378
    9AU       S 2833  17.717  12.760   7.651
    9AU     LIG 2834  17.436  12.614   7.993
    9AU     LIG 2835  17.021  12.373   8.014
    9AU    AUSL 2836  18.955  13.700   7.988
    9AU    AUSL 2837  18.458  13.612   7.810
    9AU     AUL 2838  18.642  13.889   7.994
    9AU       S 2839  18.141  13.892   8.078
    9AU     LIG 2840  17.894  14.262   8.285
    9AU     LIG 2841  17.671  14.624   8.511
    9AU       S 2842  19.028  14.156   8.190
    9AU     LIG 2843  18.866  14.561   8.434
    9AU     LIG 2844  18.953  15.033   8.383
    9AU    AUSL 2845  18.751  13.745   7.678
    9AU    AUSL 2846  19.068  13.847   7.334
    9AU     AUL 2847  18.748  14.054   7.480
    9AU       S 2848  19.199  14.414   8.091
    9AU     LIG 2849  18.864  14.731   7.951
    9AU     LIG 2850  18.699  15.155   7.951
    9AU       S 2851  19.063  14.299   7.136
    9AU     LIG 2852  19.231  14.757   7.219
    9AU     LIG 2853  19.206  15.198   7.060
    9AU    AUSL 2854  19.104  13.819   7.679
    9AU    AUSL 2855  19.240  13.526   8.092
    9AU     AUL 2856  19.345  13.837   7.942
    9AU       S 2857  19.569  13.749   8.395
    9AU     LIG 2858  19.813  13.926   8.769
    9AU     LIG 2859  20.039  14.316   8.920
    9AU       S 2860  19.108  14.275   7.819
    9AU     LIG 2861  19.322  14.741   7.731
    9AU     LIG 2862  19.252  15.160   7.948
    9AU    AUSL 2863  18.996  12.467   7.960
    9AU    AUSL 2864  19.444  12.467   7.761
    9AU     AUL 2865  19.212  12.208   7.981
    9AU       S 2866  18.745  11.620   7.921
    9AU     LIG 2867  18.741  11.145   7.979
    9AU     LIG 2868  18.783  10.769   8.222
    9AU       S 2869  19.727  12.142   7.941
    9AU     LIG 2870  20.087  11.800   7.913
    9AU     LIG 2871  20.260  11.502   8.239
    9AU    AUSL 2872  18.789  12.284   7.680
    9AU    AUSL 2873  18.712  12.646   7.986
    9AU     AUL 2874  18.718  12.277   8.066
    9AU       S 2875  18.585  11.860   7.753
    9AU     LIG 2876  18.246  11.543   7.931
    9AU     LIG 2877  18.260  11.125   8.185
    9AU       S 2878  18.087  12.249   8.392
    9AU     LIG 2879  17.984  11.837   8.576
    9AU     LIG 2880  17.678  11.610   8.853
    9AU    AUSL 2881  19.136  12.360   7.656
    9AU    AUSL 2882  18.791  12.285   7.324
    9AU     AUL 2883  19.039  12.037   7.513
    9AU       S 2884  18.568  11.897   7.257
    9AU     LIG 2885  18.282  11.543   7.386
    9AU     LIG 2886  18.404  11.171   7.133
    9AU       S 2887  18.710  11.545   7.656
    9AU     LIG 2888  19.146  11.321   7.728
    9AU     LIG 2889  19.281  11.035   8.083
    9AU    AUSL 2890  18.943  13.710   7.022
    9AU    AUSL 2891  19.299  13.595   7.252
    9AU     AUL 2892  19.308  13.863   7.035
    9AU       S 2893  18.951  14.143   6.784
    9AU     LIG 2894  18.753  14.494   6.487
    9AU     LIG 2895  18.805  14.923   6.277
    9AU       S 2896  19.980  13.777   6.787
    9AU     LIG 2897  20.251  14.164   6.835
    9AU     LIG 2898  20.430  14.606   6.807
    9AU    AUSL 2899  18.748  13.695   7.339
    9AU    AUSL 2900  18.641  13.550   6.936
    9AU     AUL 2901  18.635  13.909   7.110
    9AU       S 2902  19.114  14.423   6.847
    9AU     LIG 2903  18.799  14.765   6.922
    9AU     LIG 2904  18.556  15.077   6.689
    9AU       S 2905  18.321  13.781   6.700
    9AU     LIG 2906  18.351  14.161   6.452
    9AU     LIG 2907  18.074  14.373   6.161
    9AU    AUSL 2908  18.963  12.493   7.071
    9AU    AUSL 2909  18.507  12.448   7.205
    9AU     AUL 2910  18.734  12.284   6.928
    9AU       S 2911  18.223  12.173   6.947
    9AU     LIG 2912  17.851  11.879   6.988
    9AU     LIG 2913  17.420  11.792   6.774
    9AU       S 2914  18.505  11.719   6.976
    9AU     LIG 2915  18.740  11.400   6.707
    9AU     LIG 2916  19.042  11.123   6.451
    9AU    AUSL 2917  19.151  12.344   7.323
    9AU    AUSL 2918  19.243  12.594   6.899
    9AU     AUL 2919  19.170  12.220   7.000
    9AU       S 2920  18.728  11.619   7.160
    9AU     LIG 2921  19.083  11.310   7.087
    9AU     LIG 2922  19.306  10.941   6.860
    9AU       S 2923  19.543  12.287   6.657
    9AU     LIG 2924  19.656  12.192   6.208
    9AU     LIG 2925  19.912  11.862   5.970
   10AU     AUC 2926  42.732  22.496   7.500
   10AU     AUC 2927  42.999  22.505   7.329
   10AU     AUC 2928  43.010  22.505   7.656
   10AU     AUC 2929  42.455  22.487   7.343
   10AU     AUC 2930  42.466  22.487   7.673
   10AU     AUC 2931  42.555  22.751   7.506
   10AU     AUC 2932  42.887  22.761   7.498
   10AU     AUC 2933  42.577  22.228   7.502
   10AU     AUC 2934  42.911  22.239   7.491
   10AU     AUC 2935  42.749  22.336   7.761
   10AU     AUC 2936  42.735  22.659   7.770
   10AU     AUC 2937  42.729  22.335   7.234
   10AU     AUC 2938  42.718  22.658   7.234
   10AU     AUC 2939  43.258  22.531   7.163
   10AU     AUC 2940  43.299  22.515   7.484
   10AU     AUC 2941  43.281  22.525   7.804
   10AU     AUC 2942  42.190  22.468   7.179
   10AU     AUC 2943  42.181  22.469   7.516
   10AU     AUC 2944  42.211  22.464   7.847
   10AU     AUC 2945  42.383  22.987   7.510
   10AU     AUC 2946  42.723  23.027   7.502
   10AU     AUC 2947  43.018  23.027   7.494
   10AU     AUC 2948  42.442  21.946   7.507
   10AU     AUC 2949  42.751  21.958   7.501
   10AU     AUC 2950  43.092  21.992   7.485
   10AU     AUC 2951  42.779  22.191   8.019
   10AU     AUC 2952  42.755  22.495   8.044
   10AU     AUC 2953  42.745  22.831   8.024
   10AU     AUC 2954  42.740  22.186   6.966
   10AU     AUC 2955  42.716  22.485   6.965
   10AU     AUC 2956  42.709  22.831   6.985
   10AU     AUC 2957  43.021  22.341   7.927
   10AU     AUC 2958  43.020  22.673   7.945
   10AU     AUC 2959  42.991  22.350   7.038
   10AU     AUC 2960  43.000  22.680   7.062
   10AU     AUC 2961  42.474  22.331   7.949
   10AU     AUC 2962  42.454  22.658   7.947
   10AU     AUC 2963  42.443  22.331   7.066
   10AU     AUC 2964  42.427  22.654   7.068
   10AU     AUC 2965  43.165  22.769   7.331
   10AU     AUC 2966  43.175  22.765   7.662
   10AU     AUC 2967  42.272  22.751   7.332
   10AU     AUC 2968  42.280  22.750   7.685
   10AU     AUC 2969  43.183  22.236   7.321
   10AU     AUC 2970  43.207  22.239   7.629
   10AU     AUC 2971  42.291  22.212   7.339
   10AU     AUC 2972  42.313  22.205   7.693
   10AU     AUC 2973  42.554  22.927   7.790
   10AU     AUC 2974  42.882  22.938   7.777
   10AU     AUC 2975  42.600  22.053   7.754
   10AU     AUC 2976  42.953  22.075   7.756
   10AU     AUC 2977  42.536  22.917   7.217
   10AU     AUC 2978  42.865  22.942   7.217
   10AU     AUC 2979  42.570  22.053   7.242
   10AU     AUC 2980  42.915  22.082   7.210
   10AU    AUSL 2981  43.200  22.473   8.124
   10AU    AUSL 2982  43.103  22.062   8.073
   10AU     AUL 2983  43.481  22.256   8.165
   10AU       S 2984  43.367  21.780   8.339
   10AU     LIG 2985  43.404  21.624   8.780
   10AU     LIG 2986  43.665  21.254   8.916
   10AU       S 2987  43.268  22.228   8.629
   10AU     LIG 2988  43.423  22.448   9.010
   10AU     LIG 2989  43.579  22.396   9.450
   10AU    AUSL 2990  42.912  22.311   8.246
   10AU    AUSL 2991  42.590  22.651   8.181
   10AU     AUL 2992  42.736  22.528   8.525
   10AU       S 2993  43.007  22.072   8.599
   10AU     LIG 2994  43.053  22.086   9.079
   10AU     LIG 2995  43.227  22.009   9.513
   10AU       S 2996  41.976  22.217   8.762
   10AU     LIG 2997  42.048  22.559   9.101
   10AU     LIG 2998  41.964  22.688   9.540
   10AU    AUSL 2999  42.924  22.701   8.249
   10AU    AUSL 3000  43.326  22.783   7.982
   10AU     AUL 3001  43.274  22.676   8.372
   10AU       S 3002  42.900  23.029   8.588
   10AU     LIG 3003  43.229  22.975   8.920
   10AU     LIG 3004  43.267  22.806   9.356
   10AU       S 3005  43.627  23.024   8.257
   10AU     LIG 3006  44.069  23.112   8.381
   10AU     LIG 3007  44.183  23.387   8.731
   10AU    AUSL 3008  43.188  22.557   6.827
   10AU    AUSL 3009  43.014  22.957   6.900
   10AU     AUL 3010  43.008  22.836   6.554
   10AU       S 3011  43.372  22.533   6.357
   10AU     LIG 3012  43.647  22.506   5.955
   10AU     LIG 3013  43.623  22.265   5.542
   10AU       S 3014  43.437  23.120   6.632
   10AU     LIG 3015  43.618  23.425   6.316
   10AU     LIG 3016  43.757  23.614   5.893
   10AU    AUSL 3017  42.923  22.316   6.733
   10AU    AUSL 3018  43.216  22.283   7.062
   10AU     AUL 3019  43.333  22.227   6.754
   10AU       S 3020  43.401  21.428   6.676
   10AU     LIG 3021  43.756  21.603   6.439
   10AU     LIG 3022  44.051  21.477   6.092
   10AU       S 3023  43.082  22.245   6.310
   10AU     LIG 3024  43.056  21.992   5.909
   10AU     LIG 3025  43.182  21.954   5.456
   10AU    AUSL 3026  42.855  22.658   6.828
   10AU    AUSL 3027  42.561  22.311   6.734
   10AU     AUL 3028  42.719  22.572   6.505
   10AU       S 3029  42.328  22.294   6.296
   10AU     LIG 3030  42.513  22.158   5.868
   10AU     LIG 3031  42.326  22.259   5.441
   10AU       S 3032  43.181  22.450   6.110
   10AU     LIG 3033  43.145  22.440   5.652
   10AU     LIG 3034  43.251  22.409   5.188
   10AU    AUSL 3035  42.269  22.463   8.159
   10AU    AUSL 3036  42.451  22.964   8.093
   10AU     AUL 3037  42.395  22.765   8.420
   10AU       S 3038  41.985  22.420   8.482
   10AU     LIG 3039  41.650  22.597   8.773
   10AU     LIG 3040  41.555  22.514   9.229
   10AU       S 3041  42.084  23.184   8.322
   10AU     LIG 3042  42.025  23.478   8.669
   10AU     LIG 3043  41.754  23.424   9.044
   10AU    AUSL 3044  42.569  22.307   8.266
   10AU    AUSL 3045  42.170  22.163   7.980
   10AU     AUL 3046  42.331  22.057   8.298
   10AU       S 3047  41.869  21.857   8.233
   10AU     LIG 3048  41.577  21.910   8.588
   10AU     LIG 3049  41.263  21.809   8.902
   10AU       S 3050  42.268  22.335   8.704
   10AU     LIG 3051  42.350  22.144   9.117
   10AU     LIG 3052  42.067  22.174   9.483
   10AU    AUSL 3053  42.237  22.430   6.859
   10AU    AUSL 3054  42.458  22.101   6.999
   10AU     AUL 3055  42.313  22.031   6.724
   10AU       S 3056  41.985  22.344   6.471
   10AU     LIG 3057  41.735  22.533   6.087
   10AU     LIG 3058  41.770  22.463   5.601
   10AU       S 3059  41.825  21.731   6.625
   10AU     LIG 3060  41.959  21.264   6.543
   10AU     LIG 3061  41.913  20.913   6.221
   10AU    AUSL 3062  42.518  22.659   6.833
   10AU    AUSL 3063  42.141  22.751   7.008
   10AU     AUL 3064  42.280  22.743   6.624
   10AU       S 3065  41.824  22.952   6.728
   10AU     LIG 3066  41.608  23.209   6.396
   10AU     LIG 3067  41.183  23.359   6.230
   10AU       S 3068  42.076  22.181   6.169
   10AU     LIG 3069  42.198  22.556   5.871
   10AU     LIG 3070  42.176  22.760   5.441
   10AU    AUSL 3071  43.336  22.969   7.473
   10AU    AUSL 3072  43.312  22.811   7.051
   10AU     AUL 3073  43.435  23.180   7.192
   10AU       S 3074  43.610  22.876   6.759
   10AU     LIG 3075  43.787  22.921   6.301
   10AU     LIG 3076  44.077  23.263   6.136
   10AU       S 3077  44.170  22.884   7.498
   10AU     LIG 3078  44.329  23.322   7.527
   10AU     LIG 3079  44.722  23.596   7.506
   10AU    AUSL 3080  43.498  22.689   7.319
   10AU    AUSL 3081  43.538  22.362   7.625
   10AU     AUL 3082  43.804  22.474   7.346
   10AU       S 3083  43.895  22.973   7.367
   10AU     LIG 3084  44.234  23.122   7.059
   10AU     LIG 3085  44.697  23.158   7.197
   10AU       S 3086  43.981  22.031   7.561
   10AU     LIG 3087  44.414  21.851   7.696
   10AU     LIG 3088  44.869  21.846   7.824
   10AU    AUSL 3089  43.492  22.712   7.682
   10AU    AUSL 3090  43.128  23.001   7.741
   10AU     AUL 3091  43.470  23.095   7.776
   10AU       S 3092  43.601  23.102   8.571
   10AU     LIG 3093  43.754  23.514   8.433
   10AU     LIG 3094  44.037  23.858   8.551
   10AU       S 3095  43.923  22.841   7.722
   10AU     LIG 3096  44.337  23.011   7.942
   10AU     LIG 3097  44.764  23.132   7.746
   10AU    AUSL 3098  42.090  22.940   7.522
   10AU    AUSL 3099  42.153  22.755   7.981
   10AU     AUL 3100  41.836  22.935   7.779
   10AU       S 3101  41.891  22.901   8.297
   10AU     LIG 3102  41.678  23.095   8.645
   10AU     LIG 3103  41.421  23.016   9.030
   10AU       S 3104  41.919  23.394   7.528
   10AU     LIG 3105  41.502  23.429   7.310
   10AU     LIG 3106  41.056  23.358   7.413
   10AU    AUSL 3107  42.005  22.633   7.304
   10AU    AUSL 3108  42.220  23.049   7.221
   10AU     AUL 3109  41.858  22.930   7.245
   10AU       S 3110  41.635  22.516   6.970
   10AU     LIG 3111  41.315  22.884   6.905
   10AU     LIG 3112  41.350  23.340   6.811
   10AU       S 3113  41.923  23.378   6.999
   10AU     LIG 3114  41.690  23.744   6.850
   10AU     LIG 3115  41.466  23.721   6.465
   10AU    AUSL 3116  41.996  22.614   7.707
   10AU    AUSL 3117  41.950  22.306   7.365
   10AU     AUL 3118  41.714  22.645   7.492
   10AU       S 3119  41.491  22.200   7.370
   10AU     LIG 3120  41.180  22.205   7.013
   10AU     LIG 3121  40.762  22.014   7.043
   10AU       S 3122  41.649  22.517   8.048
   10AU     LIG 3123  41.347  22.884   8.075
   10AU     LIG 3124  40.980  23.174   7.979
   10AU    AUSL 3125  43.401  22.043   7.472
   10AU    AUSL 3126  43.283  22.275   7.851
   10AU     AUL 3127  43.579  22.097   7.845
   10AU       S 3128  43.728  21.780   7.451
   10AU     LIG 3129  44.061  21.492   7.555
   10AU     LIG 3130  44.502  21.361   7.496
   10AU       S 3131  43.457  21.464   8.296
   10AU     LIG 3132  43.838  21.600   8.507
   10AU     LIG 3133  44.142  21.443   8.820
   10AU    AUSL 3134  43.480  22.335   7.280
   10AU    AUSL 3135  43.214  21.919   7.193
   10AU     AUL 3136  43.509  22.088   7.060
   10AU       S 3137  43.927  21.969   7.307
   10AU     LIG 3138  44.333  21.761   7.197
   10AU     LIG 3139  44.793  21.755   7.320
   10AU       S 3140  43.457  21.595   6.948
   10AU     LIG 3141  43.865  21.380   6.894
   10AU     LIG 3142  43.955  21.131   6.500
   10AU    AUSL 3143  42.201  22.056   7.519
   10AU    AUSL 3144  42.114  22.183   7.082
   10AU     AUL 3145  41.925  21.934   7.351
   10AU       S 3146  41.781  21.980   6.845
   10AU     LIG 3147  41.319  21.788   6.707
   10AU     LIG 3148  40.996  21.583   6.398
   10AU       S 3149  41.282  22.121   7.505
   10AU     LIG 3150  41.269  21.736   7.217
   10AU     LIG 3151  40.869  21.526   7.138
   10AU    AUSL 3152  41.986  22.274   7.710
   10AU    AUSL 3153  42.316  21.875   7.803
   10AU     AUL 3154  41.956  21.917   7.731
   10AU       S 3155  42.067  21.588   8.107
   10AU     LIG 3156  41.796  21.246   8.059
   10AU     LIG 3157  41.406  21.020   8.231
   10AU       S 3158  41.496  22.186   7.689
   10AU     LIG 3159  41.023  22.137   7.941
   10AU     LIG 3160  40.582  21.888   7.937
   10AU    AUSL 3161  42.751  23.143   7.979
   10AU    AUSL 3162  42.252  23.058   7.805
   10AU     AUL 3163  42.437  23.339   7.968
   10AU       S 3164  41.940  23.369   8.071
   10AU     LIG 3165  41.946  23.838   8.313
   10AU     LIG 3166  41.656  24.179   8.561
   10AU       S 3167  42.821  23.531   8.235
   10AU     LIG 3168  42.471  23.824   8.422
   10AU     LIG 3169  42.596  24.211   8.623
   10AU    AUSL 3170  42.547  23.181   7.665
   10AU    AUSL 3171  42.865  23.281   7.323
   10AU     AUL 3172  42.545  23.490   7.466
   10AU       S 3173  42.901  23.833   8.152
   10AU     LIG 3174  42.630  24.211   8.091
   10AU     LIG 3175  42.601  24.615   8.308
   10AU       S 3176  42.882  23.734   7.148
   10AU     LIG 3177  43.094  24.156   7.268
   10AU     LIG 3178  43.258  24.602   7.142
   10AU    AUSL 3179  42.896  23.260   7.669
   10AU    AUSL 3180  43.038  22.975   8.078
   10AU     AUL 3181  43.148  23.289   7.918
   10AU       S 3182  43.329  23.196   8.391
   10AU     LIG 3183  43.346  23.487   8.755
   10AU     LIG 3184  43.751  23.628   8.945
   10AU       S 3185  42.857  23.705   7.861
   10AU     LIG 3186  43.053  24.151   7.791
   10AU     LIG 3187  43.062  24.546   8.027
   10AU    AUSL 3188  42.812  21.932   7.920
   10AU    AUSL 3189  43.241  21.921   7.771
   10AU     AUL 3190  43.003  21.674   7.999
   10AU       S 3191  42.743  21.147   7.964
   10AU     LIG 3192  42.700  20.992   8.415
   10AU     LIG 3193  42.684  20.638   8.770
   10AU       S 3194  43.513  21.620   8.015
   10AU     LIG 3195  43.888  21.344   8.057
   10AU     LIG 3196  43.944  21.097   8.455
   10AU    AUSL 3197  42.607  21.725   7.676
   10AU    AUSL 3198  42.521  22.084   8.004
   10AU     AUL 3199  42.568  21.727   8.070
   10AU       S 3200  42.471  21.302   7.770
   10AU     LIG 3201  42.286  20.995   8.047
   10AU     LIG 3202  42.666  20.629   8.043
   10AU       S 3203  41.943  21.581   8.401
   10AU     LIG 3204  42.207  21.207   8.527
   10AU     LIG 3205  42.166  21.160   8.996
   10AU    AUSL 3206  42.963  21.770   7.643
   10AU    AUSL 3207  42.563  21.726   7.322
   10AU     AUL 3208  42.843  21.495   7.441
   10AU       S 3209  42.327  21.305   7.277
   10AU     LIG 3210  42.063  20.794   7.161
   10AU     LIG 3211  42.087  20.362   6.848
   10AU       S 3212  42.684  21.034   7.732
   10AU     LIG 3213  43.052  20.761   7.739
   10AU     LIG 3214  43.133  20.341   7.913
   10AU    AUSL 3215  42.730  23.142   7.012
   10AU    AUSL 3216  43.093  23.028   7.241
   10AU     AUL 3217  43.101  23.287   7.017
   10AU       S 3218  42.759  23.602   6.807
   10AU     LIG 3219  42.633  23.841   6.434
   10AU     LIG 3220  42.744  24.263   6.294
   10AU       S 3221  43.778  23.133   6.750
   10AU     LIG 3222  44.031  23.471   6.630
   10AU     LIG 3223  44.050  23.782   6.290
   10AU    AUSL 3224  42.539  23.136   7.327
   10AU    AUSL 3225  42.421  22.981   6.932
   10AU     AUL 3226  42.423  23.342   7.087
   10AU       S 3227  42.949  23.880   6.863
   10AU     LIG 3228  42.589  24.160   6.830
   10AU     LIG 3229  42.183  24.000   6.654
   10AU       S 3230  42.061  23.222   6.716
   10AU     LIG 3231  41.966  23.588   6.430
   10AU     LIG 3232  41.751  23.795   6.051
   10AU    AUSL 3233  42.728  21.903   7.030
   10AU    AUSL 3234  42.275  21.890   7.219
   10AU     AUL 3235  42.460  21.712   6.940
   10AU       S 3236  41.930  21.663   6.924
   10AU     LIG 3237  41.569  21.361   6.861
   10AU     LIG 3238  41.442  21.215   6.423
   10AU       S 3239  42.454  21.126   7.039
   10AU     LIG 3240  42.764  20.932   6.745
   10AU     LIG 3241  42.691  20.698   6.348
   10AU    AUSL 3242  42.905  21.849   7.323
   10AU    AUSL 3243  43.022  22.021   6.905
   10AU     AUL 3244  42.955  21.642   7.050
   10AU       S 3245  42.464  21.044   7.292
   10AU     LIG 3246  42.873  20.863   7.257
   10AU     LIG 3247  43.066  20.503   7.033
   10AU       S 3248  43.261  21.724   6.643
   10AU     LIG 3249  43.307  21.604   6.196
   10AU     LIG 3250  43.583  21.250   6.073
   11POPC   NC3 3251  33.122  35.808   9.602
   11POPC   PO4 3252  32.996  36.567   9.459
   11POPC   GL1 3253  32.982  36.300   9.095
   11POPC   GL2 3254  33.177  35.995   9.117
   11POPC   C1A 3255  32.908  36.142   8.651
   11POPC   D2A 3256  32.796  35.857   8.314
   11POPC   C3A 3257  32.982  35.928   7.874
   11POPC   C4A 3258  32.717  35.823   7.513
   11POPC   C1B 3259  33.391  36.264   8.792
   11POPC   C2B 3260  33.252  36.470   8.423
   11POPC   C3B 3261  33.366  36.353   8.002
   11POPC   C4B 3262  33.301  36.245   7.574
   12POPC   NC3 3263   0.821  31.246   9.376
   12POPC   PO4 3264   1.430  31.498   9.551
   12POPC   GL1 3265   1.260  31.446   9.148
   12POPC   GL2 3266   0.983  31.711   9.190
   12POPC   C1A 3267   1.270  31.247   8.705
   12POPC   D2A 3268   1.392  31.421   8.296
   12POPC   C3A 3269   1.095  31.435   7.967
   12POPC   C4A 3270   1.275  31.534   7.593
   12POPC   C1B 3271   1.094  31.723   8.755
   12POPC   C2B 3272   0.959  31.788   8.341
   12POPC   C3B 3273   0.827  31.900   7.942
   12POPC   C4B 3274   0.808  31.738   7.532
   13POPC   NC3 3275  26.969  39.780   9.482
   13POPC   PO4 3276  26.458  40.219   9.250
   13POPC   GL1 3277  26.796  39.983   9.055
   13POPC   GL2 3278  26.784  39.616   9.053
   13POPC   C1A 3279  27.010  39.941   8.662
   13POPC   D2A 3280  27.120  40.165   8.281
   13POPC   C3A 3281  26.993  39.922   7.926
   13POPC   C4A 3282  26.844  39.771   7.510
   13POPC   C1B 3283  26.727  39.450   8.687
   13POPC   C2B 3284  26.547  39.511   8.321
   13POPC   C3B 3285  26.506  39.709   7.992
   13POPC   C4B 3286  26.524  40.041   7.783
   14POPC   NC3 3287  43.028  31.053   9.466
   14POPC   PO4 3288  42.880  31.727   9.521
   14POPC   GL1 3289  43.126  31.517   9.202
   14POPC   GL2 3290  42.858  31.383   9.120
   14POPC   C1A 3291  43.225  31.448   8.761
   14POPC   D2A 3292  43.071  31.672   8.398
   14POPC   C3A 3293  43.240  31.522   8.068
   14POPC   C4A 3294  43.494  31.568   7.733
   14POPC   C1B 3295  42.718  31.633   8.775
   14POPC   C2B 3296  42.581  31.458   8.360
   14POPC   C3B 3297  42.718  31.326   7.945
   14POPC   C4B 3298  43.073  31.240   7.678
   15POPC   NC3 3299  26.468  21.539   9.459
   15POPC   PO4 3300  27.079  21.338   9.470
   15POPC   GL1 3301  26.875  21.503   9.145
   15POPC   GL2 3302  26.658  21.293   9.024
   15POPC   C1A 3303  26.758  21.694   8.744
   15POPC   D2A 3304  26.736  21.429   8.388
   15POPC   C3A 3305  26.831  21.677   8.060
   15POPC   C4A 3306  26.632  21.972   7.813
   15POPC   C1B 3307  26.497  21.057   8.681
   15POPC   C2B 3308  26.525  20.906   8.262
   15POPC   C3B 3309  26.528  21.227   7.950
   15POPC   C4B 3310  26.642  21.494   7.628
   16POPC   NC3 3311  43.112  16.453   9.514
   16POPC   PO4 3312  42.972  17.186   9.457
   16POPC   GL1 3313  43.054  16.885   9.095
   16POPC   GL2 3314  42.939  16.533   9.055
   16POPC   C1A 3315  43.030  16.767   8.634
   16POPC   D2A 3316  42.947  16.487   8.360
   16POPC   C3A 3317  43.020  16.694   7.967
   16POPC   C4A 3318  43.259  17.068   7.848
   16POPC   C1B 3319  43.312  16.347   8.881
   16POPC   C2B 3320  43.523  16.588   8.594
   16POPC   C3B 3321  43.481  16.644   8.174
   16POPC   C4B 3322  43.483  16.576   7.756
   17POPC   NC3 3323  42.542   5.965   9.526
   17POPC   PO4 3324  41.956   6.192   9.517
   17POPC   GL1 3325  42.128   5.935   9.152
   17POPC   GL2 3326  42.492   5.910   9.040
   17POPC   C1A 3327  42.124   5.639   8.802
   17POPC   D2A 3328  42.273   5.525   8.400
   17POPC   C3A 3329  42.059   5.754   8.073
   17POPC   C4A 3330  42.288   5.862   7.722
   17POPC   C1B 3331  42.594   5.903   8.625
   17POPC   C2B 3332  42.529   5.927   8.204
   17POPC   C3B 3333  42.768   5.836   7.873
   17POPC   C4B 3334  42.723   5.823   7.446
   18POPC   NC3 3335   2.297  14.123   9.522
   18POPC   PO4 3336   1.650  14.497   9.564
   18POPC   GL1 3337   1.958  14.448   9.254
   18POPC   GL2 3338   1.900  14.102   9.172
   18POPC   C1A 3339   2.004  14.602   8.850
   18POPC   D2A 3340   1.785  14.727   8.483
   18POPC   C3A 3341   1.967  14.567   8.075
   18POPC   C4A 3342   2.061  14.689   7.689
   18POPC   C1B 3343   2.060  14.106   8.753
   18POPC   C2B 3344   1.940  14.184   8.393
   18POPC   C3B 3345   2.034  14.015   8.001
   18POPC   C4B 3346   1.968  14.179   7.635
   19POPC   NC3 3347  22.447   4.557   9.653
   19POPC   PO4 3348  21.858   4.197   9.456
   19POPC   GL1 3349  22.031   4.307   9.084
   19POPC   GL2 3350  22.206   4.590   9.194
   19POPC   C1A 3351  22.047   4.217   8.653
   19POPC   D2A 3352  22.380   4.353   8.406
   19POPC   C3A 3353  22.269   4.314   7.990
   19POPC   C4A 3354  22.303   4.258   7.551
   19POPC   C1B 3355  22.174   4.709   8.756
   19POPC   C2B 3356  22.331   4.863   8.343
   19POPC   C3B 3357  22.328   4.821   7.926
   19POPC   C4B 3358  22.029   4.679   7.680
   20POPC   NC3 3359  20.526  42.268   9.538
   20POPC   PO4 3360  20.916  42.763   9.566
   20POPC   GL1 3361  20.879  42.430   9.208
   20POPC   GL2 3362  20.513  42.393   9.064
   20POPC   C1A 3363  20.882  42.215   8.778
   20POPC   D2A 3364  20.468  42.221   8.566
   20POPC   C3A 3365  20.493  42.326   8.113
   20POPC   C4A 3366  20.657  42.173   7.724
   20POPC   C1B 3367  20.283  42.676   8.829
   20POPC   C2B 3368  20.126  42.580   8.447
   20POPC   C3B 3369  20.130  42.701   8.062
   20POPC   C4B 3370  20.311  42.560   7.677
   21POPC   NC3 3371   1.568   9.610   9.410
   21POPC   PO4 3372   0.843   9.787   9.515
   21POPC   GL1 3373   1.115   9.752   9.181
   21POPC   GL2 3374   1.408   9.975   9.080
   21POPC   C1A 3375   1.176   9.595   8.793
   21POPC   D2A 3376   1.104   9.787   8.409
   21POPC   C3A 3377   1.281   9.701   8.043
   21POPC   C4A 3378   1.061   9.647   7.707
   21POPC   C1B 3379   1.597   9.854   8.673
   21POPC   C2B 3380   1.568  10.060   8.280
   21POPC   C3B 3381   1.651   9.999   7.825
   21POPC   C4B 3382   1.465   9.871   7.409
   22POPC   NC3 3383  11.118  23.286   9.462
   22POPC   PO4 3384  11.563  22.800   9.360
   22POPC   GL1 3385  11.464  23.112   9.093
   22POPC   GL2 3386  11.173  22.938   9.028
   22POPC   C1A 3387  11.544  23.060   8.664
   22POPC   D2A 3388  11.473  22.818   8.341
   22POPC   C3A 3389  11.417  23.034   7.996
   22POPC   C4A 3390  11.644  22.935   7.662
   22POPC   C1B 3391  11.166  22.622   8.707
   22POPC   C2B 3392  11.178  22.381   8.328
   22POPC   C3B 3393  11.070  22.603   7.989
   22POPC   C4B 3394  11.182  22.753   7.627
   23POPC   NC3 3395  32.088  28.101   9.528
   23POPC   PO4 3396  32.559  28.613   9.508
   23POPC   GL1 3397  32.338  28.363   9.184
   23POPC   GL2 3398  32.452  27.987   9.155
   23POPC   C1A 3399  32.147  28.345   8.772
   23POPC   D2A 3400  31.958  28.606   8.443
   23POPC   C3A 3401  32.080  28.505   8.042
   23POPC   C4A 3402  31.864  28.473   7.644
   23POPC   C1B 3403  32.567  28.049   8.699
   23POPC   C2B 3404  32.529  28.119   8.250
   23POPC   C3B 3405  32.356  28.078   7.839
   23POPC   C4B 3406  32.245  28.141   7.431
   24POPC   NC3 3407  18.589  27.709   9.522
   24POPC   PO4 3408  18.114  27.316   9.503
   24POPC   GL1 3409  18.258  27.566   9.127
   24POPC   GL2 3410  18.505  27.867   9.052
   24POPC   C1A 3411  18.480  27.476   8.732
   24POPC   D2A 3412  18.427  27.636   8.324
   24POPC   C3A 3413  18.462  27.452   7.931
   24POPC   C4A 3414  18.092  27.195   7.801
   24POPC   C1B 3415  18.176  27.915   8.734
   24POPC   C2B 3416  17.935  27.835   8.366
   24POPC   C3B 3417  18.116  27.842   7.984
   24POPC   C4B 3418  18.472  27.954   7.742
   25POPC   NC3 3419  40.974  20.469   9.534
   25POPC   PO4 3420  41.578  20.715   9.715
   25POPC   GL1 3421  41.426  20.815   9.281
   25POPC   GL2 3422  41.582  20.504   9.122
   25POPC   C1A 3423  41.364  20.846   8.813
   25POPC   D2A 3424  41.494  20.447   8.606
   25POPC   C3A 3425  41.551  20.454   8.194
   25POPC   C4A 3426  41.322  20.623   7.922
   25POPC   C1B 3427  41.784  20.133   8.905
   25POPC   C2B 3428  41.648  19.953   8.479
   25POPC   C3B 3429  41.435  19.979   8.095
   25POPC   C4B 3430  41.500  20.191   7.708
   26POPC   NC3 3431   9.378  15.617   9.300
   26POPC   PO4 3432   9.849  15.942   9.691
   26POPC   GL1 3433   9.952  15.969   9.254
   26POPC   GL2 3434   9.622  16.090   9.194
   26POPC   C1A 3435   9.916  15.977   8.786
   26POPC   D2A 3436  10.049  16.168   8.396
   26POPC   C3A 3437   9.856  16.021   8.011
   26POPC   C4A 3438  10.010  15.762   7.698
   26POPC   C1B 3439   9.443  16.287   8.847
   26POPC   C2B 3440   9.559  16.255   8.437
   26POPC   C3B 3441   9.509  16.386   8.038
   26POPC   C4B 3442   9.320  16.325   7.663
   27POPC   NC3 3443  42.103  34.413   9.496
   27POPC   PO4 3444  42.432  35.061   9.512
   27POPC   GL1 3445  42.335  34.778   9.230
   27POPC   GL2 3446  41.997  34.884   9.249
   27POPC   C1A 3447  42.451  34.567   8.857
   27POPC   D2A 3448  42.254  34.508   8.466
   27POPC   C3A 3449  42.493  34.517   8.081
   27POPC   C4A 3450  42.425  34.491   7.657
   27POPC   C1B 3451  42.037  34.863   8.822
   27POPC   C2B 3452  41.981  34.925   8.401
   27POPC   C3B 3453  42.262  34.970   8.107
   27POPC   C4B 3454  42.091  34.864   7.720
   28POPC   NC3 3455   6.052  41.327   9.817
   28POPC   PO4 3456   5.805  41.792   9.481
   28POPC   GL1 3457   5.848  41.744   9.041
   28POPC   GL2 3458   5.947  41.396   9.044
   28POPC   C1A 3459   5.958  41.657   8.592
   28POPC   D2A 3460   6.044  41.285   8.305
   28POPC   C3A 3461   5.871  41.359   7.933
   28POPC   C4A 3462   5.983  41.807   7.772
   28POPC   C1B 3463   5.585  41.306   8.812
   28POPC   C2B 3464   5.552  41.368   8.400
   28POPC   C3B 3465   5.650  41.754   8.168
   28POPC   C4B 3466   5.492  41.655   7.773
   29POPC   NC3 3467  32.953  16.471   9.539
   29POPC   PO4 3468  32.886  17.067   9.457
   29POPC   GL1 3469  33.209  16.878   9.207
   29POPC   GL2 3470  33.287  16.523   9.160
   29POPC   C1A 3471  33.186  16.878   8.782
   29POPC   D2A 3472  33.275  16.773   8.371
   29POPC   C3A 3473  33.068  16.811   7.997
   29POPC   C4A 3474  33.429  16.747   7.784
   29POPC   C1B 3475  32.931  16.454   8.886
   29POPC   C2B 3476  32.985  16.353   8.452
   29POPC   C3B 3477  33.241  16.345   8.090
   29POPC   C4B 3478  33.085  16.405   7.676
   30POPC   NC3 3479  30.263  44.868   9.498
   30POPC   PO4 3480  29.638  44.546   9.359
   30POPC   GL1 3481  29.949  44.655   9.094
   30POPC   GL2 3482  30.288  44.519   9.133
   30POPC   C1A 3483  30.057  44.517   8.687
   30POPC   D2A 3484  29.794  44.304   8.441
   30POPC   C3A 3485  29.904  44.466   8.066
   30POPC   C4A 3486  29.996  44.357   7.688
   30POPC   C1B 3487  30.322  44.923   8.869
   30POPC   C2B 3488  30.123  44.997   8.491
   30POPC   C3B 3489  30.198  44.867   8.107
   30POPC   C4B 3490  29.955  44.886   7.711
   31POPC   NC3 3491  29.196  14.484   9.411
   31POPC   PO4 3492  28.971  13.842   9.431
   31POPC   GL1 3493  29.167  14.064   9.074
   31POPC   GL2 3494  29.309  14.409   8.939
   31POPC   C1A 3495  29.020  14.098   8.654
   31POPC   D2A 3496  28.840  14.057   8.254
   31POPC   C3A 3497  29.093  14.286   7.951
   31POPC   C4A 3498  29.255  14.373   7.521
   31POPC   C1B 3499  29.057  14.699   8.683
   31POPC   C2B 3500  28.881  14.622   8.272
   31POPC   C3B 3501  28.809  14.834   7.829
   31POPC   C4B 3502  28.812  14.793   7.323
   32POPC   NC3 3503  35.603   0.143   9.587
   32POPC   PO4 3504  35.370   0.797   9.719
   32POPC   GL1 3505  35.385   0.566   9.272
   32POPC   GL2 3506  35.680   0.319   9.134
   32POPC   C1A 3507  35.239   0.627   8.816
   32POPC   D2A 3508  35.147   0.781   8.376
   32POPC   C3A 3509  35.255   0.566   7.984
   32POPC   C4A 3510  35.063   0.202   7.785
   32POPC   C1B 3511  35.749   0.569   8.800
   32POPC   C2B 3512  35.568   0.492   8.393
   32POPC   C3B 3513  35.688   0.300   7.998
   32POPC   C4B 3514  35.541  44.973   7.747
   33POPC   NC3 3515  39.549  31.084   9.416
   33POPC   PO4 3516  40.032  31.569   9.471
   33POPC   GL1 3517  40.113  31.510   9.064
   33POPC   GL2 3518  39.931  31.205   9.093
   33POPC   C1A 3519  39.935  31.491   8.661
   33POPC   D2A 3520  40.019  31.711   8.281
   33POPC   C3A 3521  40.086  31.573   7.865
   33POPC   C4A 3522  40.066  31.656   7.401
   33POPC   C1B 3523  39.737  31.006   8.738
   33POPC   C2B 3524  39.687  30.855   8.336
   33POPC   C3B 3525  39.734  31.042   7.942
   33POPC   C4B 3526  39.781  31.288   7.574
   34POPC   NC3 3527  28.124   1.272   9.521
   34POPC   PO4 3528  28.804   1.362   9.583
   34POPC   GL1 3529  28.527   1.180   9.220
   34POPC   GL2 3530  28.237   1.399   9.050
   34POPC   C1A 3531  28.352   0.975   8.826
   34POPC   D2A 3532  28.285   1.270   8.479
   34POPC   C3A 3533  28.358   1.099   8.072
   34POPC   C4A 3534  28.319   0.789   7.744
   34POPC   C1B 3535  28.612   1.489   8.810
   34POPC   C2B 3536  28.918   1.429   8.484
   34POPC   C3B 3537  28.771   1.380   8.059
   34POPC   C4B 3538  28.465   1.388   7.670
   35POPC   NC3 3539  24.338  25.126   9.442
   35POPC   PO4 3540  24.532  25.835   9.584
   35POPC   GL1 3541  24.398  25.578   9.176
   35POPC   GL2 3542  24.675  25.393   8.997
   35POPC   C1A 3543  24.245  25.464   8.744
   35POPC   D2A 3544  24.642  25.340   8.469
   35POPC   C3A 3545  24.568  25.324   8.034
   35POPC   C4A 3546  24.267  25.518   7.802
   35POPC   C1B 3547  24.468  24.996   8.793
   35POPC   C2B 3548  24.139  25.020   8.474
   35POPC   C3B 3549  24.120  25.023   8.027
   35POPC   C4B 3550  24.335  25.024   7.646
   36POPC   NC3 3551  25.512  34.537   9.573
   36POPC   PO4 3552  24.806  34.609   9.419
   36POPC   GL1 3553  25.133  34.753   9.155
   36POPC   GL2 3554  25.212  34.391   9.162
   36POPC   C1A 3555  25.172  34.816   8.696
   36POPC   D2A 3556  25.139  34.506   8.348
   36POPC   C3A 3557  25.156  34.616   7.899
   36POPC   C4A 3558  25.097  34.347   7.525
   36POPC   C1B 3559  25.448  34.390   8.783
   36POPC   C2B 3560  25.692  34.745   8.589
   36POPC   C3B 3561  25.752  34.948   8.182
   36POPC   C4B 3562  25.663  34.808   7.764
   37POPC   NC3 3563  13.966  20.351   9.251
   37POPC   PO4 3564  13.436  20.805   9.539
   37POPC   GL1 3565  13.608  20.735   9.166
   37POPC   GL2 3566  13.287  20.721   9.059
   37POPC   C1A 3567  13.734  20.712   8.739
   37POPC   D2A 3568  13.772  20.347   8.488
   37POPC   C3A 3569  13.788  20.436   8.033
   37POPC   C4A 3570  13.996  20.649   7.685
   37POPC   C1B 3571  13.216  20.672   8.652
   37POPC   C2B 3572  13.140  20.899   8.284
   37POPC   C3B 3573  13.184  20.686   7.910
   37POPC   C4B 3574  13.486  20.628   7.615
   38POPC   NC3 3575  15.034  12.800  10.104
   38POPC   PO4 3576  14.887  13.071   9.514
   38POPC   GL1 3577  15.053  12.933   9.155
   38POPC   GL2 3578  15.119  12.583   9.097
   38POPC   C1A 3579  15.134  12.944   8.724
   38POPC   D2A 3580  15.343  13.022   8.354
   38POPC   C3A 3581  15.202  12.939   7.935
   38POPC   C4A 3582  15.492  13.192   7.673
   38POPC   C1B 3583  14.959  12.467   8.709
   38POPC   C2B 3584  15.101  12.569   8.306
   38POPC   C3B 3585  14.814  12.564   7.993
   38POPC   C4B 3586  14.623  12.245   7.783
   39POPC   NC3 3587  34.453   3.345   9.491
   39POPC   PO4 3588  35.042   3.676   9.616
   39POPC   GL1 3589  34.766   3.724   9.251
   39POPC   GL2 3590  34.719   3.397   9.063
   39POPC   C1A 3591  34.697   3.835   8.813
   39POPC   D2A 3592  34.491   3.647   8.441
   39POPC   C3A 3593  34.657   3.711   8.029
   39POPC   C4A 3594  34.895   3.421   7.826
   39POPC   C1B 3595  34.398   3.248   8.771
   39POPC   C2B 3596  34.186   3.253   8.342
   39POPC   C3B 3597  34.429   3.236   7.927
   39POPC   C4B 3598  34.418   2.998   7.510
   40POPC   NC3 3599  42.642  20.344   9.537
   40POPC   PO4 3600  43.134  19.971   9.716
   40POPC   GL1 3601  43.051  19.790   9.267
   40POPC   GL2 3602  42.772  19.995   9.080
   40POPC   C1A 3603  43.203  19.617   8.836
   40POPC   D2A 3604  43.046  19.458   8.411
   40POPC   C3A 3605  43.222  19.520   7.997
   40POPC   C4A 3606  43.345  19.858   7.751
   40POPC   C1B 3607  42.713  20.002   8.599
   40POPC   C2B 3608  42.649  20.105   8.135
   40POPC   C3B 3609  42.837  19.984   7.725
   40POPC   C4B 3610  43.002  19.576   7.490
   41POPC   NC3 3611  37.162  17.418   9.360
   41POPC   PO4 3612  36.842  17.904   9.696
   41POPC   GL1 3613  36.864  17.776   9.157
   41POPC   GL2 3614  36.831  17.404   9.011
   41POPC   C1A 3615  36.869  17.707   8.630
   41POPC   D2A 3616  36.638  17.391   8.302
   41POPC   C3A 3617  36.811  17.377   7.904
   41POPC   C4A 3618  36.979  17.750   7.764
   41POPC   C1B 3619  37.158  17.240   8.733
   41POPC   C2B 3620  37.151  17.358   8.312
   41POPC   C3B 3621  37.245  17.102   7.956
   41POPC   C4B 3622  37.186  17.195   7.528
   42POPC   NC3 3623  18.292  41.873   9.329
   42POPC   PO4 3624  18.436  42.501   9.422
   42POPC   GL1 3625  18.267  42.617   9.050
   42POPC   GL2 3626  18.018  42.333   9.127
   42POPC   C1A 3627  18.328  42.650   8.606
   42POPC   D2A 3628  18.481  42.508   8.211
   42POPC   C3A 3629  18.298  42.266   7.892
   42POPC   C4A 3630  18.648  42.198   7.652
   42POPC   C1B 3631  18.228  42.168   8.753
   42POPC   C2B 3632  18.341  42.037   8.363
   42POPC   C3B 3633  18.017  41.903   8.116
   42POPC   C4B 3634  17.892  41.964   7.707
   43POPC   NC3 3635  27.858  38.334   9.464
   43POPC   PO4 3636  27.266  38.670   9.462
   43POPC   GL1 3637  27.509  38.504   9.142
   43POPC   GL2 3638  27.488  38.131   9.126
   43POPC   C1A 3639  27.623  38.447   8.737
   43POPC   D2A 3640  27.443  38.394   8.302
   43POPC   C3A 3641  27.675  38.482   7.917
   43POPC   C4A 3642  28.030  38.538   7.563
   43POPC   C1B 3643  27.254  38.113   8.726
   43POPC   C2B 3644  27.378  37.896   8.326
   43POPC   C3B 3645  27.459  38.034   7.891
   43POPC   C4B 3646  27.832  38.073   7.639
   44POPC   NC3 3647   9.683   8.584   9.551
   44POPC   PO4 3648   9.528   7.900   9.443
   44POPC   GL1 3649   9.739   8.173   9.121
   44POPC   GL2 3650   9.929   8.490   9.119
   44POPC   C1A 3651   9.755   8.078   8.699
   44POPC   D2A 3652   9.486   8.092   8.348
   44POPC   C3A 3653   9.710   7.983   8.012
   44POPC   C4A 3654   9.782   7.950   7.599
   44POPC   C1B 3655  10.138   8.391   8.749
   44POPC   C2B 3656  10.013   8.304   8.302
   44POPC   C3B 3657  10.092   8.267   7.842
   44POPC   C4B 3658   9.938   8.416   7.369
   45POPC   NC3 3659   1.704  32.570   9.431
   45POPC   PO4 3660   2.173  32.166   9.568
   45POPC   GL1 3661   1.990  32.200   9.181
   45POPC   GL2 3662   1.619  32.096   9.234
   45POPC   C1A 3663   2.082  32.410   8.766
   45POPC   D2A 3664   2.152  32.625   8.339
   45POPC   C3A 3665   2.025  32.440   7.949
   45POPC   C4A 3666   2.067  32.541   7.505
   45POPC   C1B 3667   1.674  32.077   8.820
   45POPC   C2B 3668   1.966  31.970   8.502
   45POPC   C3B 3669   1.990  31.898   8.069
   45POPC   C4B 3670   1.708  31.879   7.729
   46POPC   NC3 3671  34.851   0.093   9.589
   46POPC   PO4 3672  34.262  44.756   9.783
   46POPC   GL1 3673  34.440  44.762   9.300
   46POPC   GL2 3674  34.235   0.007   9.176
   46POPC   C1A 3675  34.551  44.538   8.840
   46POPC   D2A 3676  34.445  44.659   8.370
   46POPC   C3A 3677  34.323  44.406   7.990
   46POPC   C4A 3678  34.701  44.373   7.782
   46POPC   C1B 3679  34.522   0.052   8.827
   46POPC   C2B 3680  34.443   0.157   8.406
   46POPC   C3B 3681  34.574   0.025   7.999
   46POPC   C4B 3682  34.280  44.978   7.658
   47POPC   NC3 3683  43.736  34.086   9.401
   47POPC   PO4 3684  44.131  33.534   9.418
   47POPC   GL1 3685  43.968  33.649   9.054
   47POPC   GL2 3686  43.631  33.641   9.128
   47POPC   C1A 3687  43.983  33.746   8.632
   47POPC   D2A 3688  43.837  34.073   8.383
   47POPC   C3A 3689  44.009  33.970   7.973
   47POPC   C4A 3690  44.111  33.585   7.784
   47POPC   C1B 3691  43.489  33.847   8.735
   47POPC   C2B 3692  43.449  33.735   8.281
   47POPC   C3B 3693  43.564  33.761   7.836
   47POPC   C4B 3694  43.425  33.641   7.423
   48POPC   NC3 3695  12.685  31.600   9.585
   48POPC   PO4 3696  13.297  31.410   9.516
   48POPC   GL1 3697  13.120  31.609   9.150
   48POPC   GL2 3698  12.755  31.547   9.072
   48POPC   C1A 3699  13.099  31.655   8.695
   48POPC   D2A 3700  12.957  31.516   8.274
   48POPC   C3A 3701  13.140  31.649   7.907
   48POPC   C4A 3702  13.108  31.807   7.477
   48POPC   C1B 3703  12.594  31.513   8.632
   48POPC   C2B 3704  12.459  31.705   8.219
   48POPC   C3B 3705  12.583  31.443   7.873
   48POPC   C4B 3706  12.900  31.143   7.888
   49POPC   NC3 3707  24.395  31.919   9.511
   49POPC   PO4 3708  24.535  32.594   9.403
   49POPC   GL1 3709  24.267  32.351   9.114
   49POPC   GL2 3710  24.216  31.967   9.051
   49POPC   C1A 3711  24.320  32.339   8.680
   49POPC   D2A 3712  24.562  32.541   8.349
   49POPC   C3A 3713  24.473  32.348   7.962
   49POPC   C4A 3714  24.213  32.247   7.636
   49POPC   C1B 3715  24.578  31.883   8.794
   49POPC   C2B 3716  24.582  31.991   8.349
   49POPC   C3B 3717  24.318  31.871   7.989
   49POPC   C4B 3718  24.479  31.778   7.615
   50POPC   NC3 3719  38.639  16.901   9.435
   50POPC   PO4 3720  38.166  16.354   9.440
   50POPC   GL1 3721  38.332  16.629   9.128
   50POPC   GL2 3722  38.680  16.661   8.974
   50POPC   C1A 3723  38.294  16.926   8.809
   50POPC   D2A 3724  38.538  16.719   8.461
   50POPC   C3A 3725  38.352  16.472   8.162
   50POPC   C4A 3726  38.262  16.467   7.744
   50POPC   C1B 3727  38.765  17.089   8.698
   50POPC   C2B 3728  38.619  17.240   8.287
   50POPC   C3B 3729  38.523  16.923   7.986
   50POPC   C4B 3730  38.770  16.601   7.823
   51POPC   NC3 3731  29.601  43.639   9.613
   51POPC   PO4 3732  29.364  44.218   9.803
   51POPC   GL1 3733  29.659  44.050   9.343
   51POPC   GL2 3734  29.995  43.829   9.318
   51POPC   C1A 3735  29.901  44.090   8.912
   51POPC   D2A 3736  30.028  43.850   8.534
   51POPC   C3A 3737  29.931  43.956   8.101
   51POPC   C4A 3738  29.851  43.851   7.696
   51POPC   C1B 3739  30.275  43.646   8.956
   51POPC   C2B 3740  30.505  43.659   8.531
   51POPC   C3B 3741  30.363  43.670   8.082
   51POPC   C4B 3742  30.327  43.738   7.593
   52POPC   NC3 3743   2.845   8.309   9.441
   52POPC   PO4 3744   2.911   7.638   9.403
   52POPC   GL1 3745   2.925   7.950   9.077
   52POPC   GL2 3746   2.623   8.196   9.008
   52POPC   C1A 3747   2.977   8.068   8.656
   52POPC   D2A 3748   3.042   8.318   8.292
   52POPC   C3A 3749   2.819   8.153   7.928
   52POPC   C4A 3750   2.684   7.930   7.542
   52POPC   C1B 3751   2.771   8.537   8.724
   52POPC   C2B 3752   2.557   8.590   8.323
   52POPC   C3B 3753   2.331   8.356   8.023
   52POPC   C4B 3754   2.375   8.359   7.601
   53POPC   NC3 3755  35.464  19.674   9.520
   53POPC   PO4 3756  35.462  20.347   9.669
   53POPC   GL1 3757  35.366  20.139   9.221
   53POPC   GL2 3758  35.207  19.802   9.099
   53POPC   C1A 3759  35.508  20.034   8.776
   53POPC   D2A 3760  35.228  19.836   8.515
   53POPC   C3A 3761  35.274  19.944   8.119
   53POPC   C4A 3762  35.200  20.011   7.694
   53POPC   C1B 3763  35.507  19.528   8.817
   53POPC   C2B 3764  35.452  19.367   8.380
   53POPC   C3B 3765  35.727  19.413   8.027
   53POPC   C4B 3766  35.667  19.790   7.803
   54POPC   NC3 3767   7.309  34.998   9.474
   54POPC   PO4 3768   7.500  35.651   9.559
   54POPC   GL1 3769   7.304  35.499   9.192
   54POPC   GL2 3770   7.391  35.232   9.039
   54POPC   C1A 3771   7.506  35.603   8.738
   54POPC   D2A 3772   7.381  35.351   8.437
   54POPC   C3A 3773   7.234  35.487   8.052
   54POPC   C4A 3774   7.425  35.735   7.715
   54POPC   C1B 3775   7.121  35.028   8.752
   54POPC   C2B 3776   7.277  34.836   8.374
   54POPC   C3B 3777   7.538  35.035   8.075
   54POPC   C4B 3778   7.462  35.235   7.661
   55POPC   NC3 3779   8.838  44.998   9.629
   55POPC   PO4 3780   9.401  44.946   9.315
   55POPC   GL1 3781   9.076  44.677   9.180
   55POPC   GL2 3782   8.754  44.591   9.289
   55POPC   C1A 3783   9.123  44.574   8.778
   55POPC   D2A 3784   9.245  44.821   8.433
   55POPC   C3A 3785   9.064  44.690   8.076
   55POPC   C4A 3786   9.271  44.505   7.748
   55POPC   C1B 3787   8.546  44.538   8.902
   55POPC   C2B 3788   8.683  44.619   8.493
   55POPC   C3B 3789   8.600  44.447   8.088
   55POPC   C4B 3790   8.761  44.506   7.695
   56POPC   NC3 3791  21.377  42.795   9.594
   56POPC   PO4 3792  21.412  43.486   9.549
   56POPC   GL1 3793  21.509  43.267   9.162
   56POPC   GL2 3794  21.686  42.943   9.195
   56POPC   C1A 3795  21.358  43.184   8.736
   56POPC   D2A 3796  21.043  43.023   8.388
   56POPC   C3A 3797  21.156  43.061   7.942
   56POPC   C4A 3798  21.542  43.302   7.853
   56POPC   C1B 3799  21.775  42.854   8.759
   56POPC   C2B 3800  21.583  42.921   8.349
   56POPC   C3B 3801  21.487  42.684   8.012
   56POPC   C4B 3802  21.631  42.834   7.650
   57POPC   NC3 3803   5.642   7.224   9.490
   57POPC   PO4 3804   6.404   7.089   9.541
   57POPC   GL1 3805   6.106   7.322   9.256
   57POPC   GL2 3806   6.056   7.687   9.281
   57POPC   C1A 3807   5.841   7.355   8.885
   57POPC   D2A 3808   5.683   7.078   8.589
   57POPC   C3A 3809   5.655   7.270   8.193
   57POPC   C4A 3810   5.740   7.433   7.793
   57POPC   C1B 3811   6.113   7.778   8.844
   57POPC   C2B 3812   5.878   7.714   8.459
   57POPC   C3B 3813   6.001   7.799   8.055
   57POPC   C4B 3814   5.896   7.909   7.618
   58POPC   NC3 3815  26.561  19.368   9.794
   58POPC   PO4 3816  25.982  19.066   9.465
   58POPC   GL1 3817  25.998  19.003   9.067
   58POPC   GL2 3818  25.866  19.355   9.045
   58POPC   C1A 3819  25.947  18.698   8.741
   58POPC   D2A 3820  25.880  18.856   8.341
   58POPC   C3A 3821  26.048  18.921   7.959
   58POPC   C4A 3822  26.020  18.927   7.518
   58POPC   C1B 3823  26.000  19.316   8.634
   58POPC   C2B 3824  25.762  19.332   8.292
   58POPC   C3B 3825  25.671  19.458   7.906
   58POPC   C4B 3826  25.739  19.425   7.486
   59POPC   NC3 3827  15.560  43.043   9.389
   59POPC   PO4 3828  16.087  43.313   9.607
   59POPC   GL1 3829  15.971  43.341   9.173
   59POPC   GL2 3830  16.196  43.077   9.114
   59POPC   C1A 3831  15.826  43.226   8.753
   59POPC   D2A 3832  15.914  43.144   8.317
   59POPC   C3A 3833  15.701  42.945   8.012
   59POPC   C4A 3834  15.831  43.172   7.668
   59POPC   C1B 3835  16.304  43.069   8.689
   59POPC   C2B 3836  16.328  42.857   8.336
   59POPC   C3B 3837  16.233  42.960   7.927
   59POPC   C4B 3838  16.445  42.788   7.571
   60POPC   NC3 3839  10.842   6.230   9.495
   60POPC   PO4 3840  10.242   5.847   9.494
   60POPC   GL1 3841  10.573   5.872   9.236
   60POPC   GL2 3842  10.791   5.616   9.266
   60POPC   C1A 3843  10.701   5.978   8.840
   60POPC   D2A 3844  10.536   6.114   8.435
   60POPC   C3A 3845  10.338   5.822   8.147
   60POPC   C4A 3846  10.479   5.937   7.732
   60POPC   C1B 3847  10.616   5.485   8.864
   60POPC   C2B 3848  10.771   5.601   8.474
   60POPC   C3B 3849  10.727   5.477   8.070
   60POPC   C4B 3850  10.641   5.467   7.638
   61POPC   NC3 3851  39.137  44.920   9.577
   61POPC   PO4 3852  39.516  44.296   9.661
   61POPC   GL1 3853  39.401  44.541   9.328
   61POPC   GL2 3854  39.244  44.319   9.134
   61POPC   C1A 3855  39.357  44.840   8.954
   61POPC   D2A 3856  39.159  44.980   8.551
   61POPC   C3A 3857  39.412  44.951   8.162
   61POPC   C4A 3858  39.261   0.066   7.755
   61POPC   C1B 3859  38.981  44.486   8.798
   61POPC   C2B 3860  38.988  44.506   8.364
   61POPC   C3B 3861  39.031  44.639   7.949
   61POPC   C4B 3862  39.134  44.356   7.648
   62POPC   NC3 3863   7.218   1.038   9.525
   62POPC   PO4 3864   7.465   1.684   9.504
   62POPC   GL1 3865   7.547   1.425   9.163
   62POPC   GL2 3866   7.858   1.553   9.029
   62POPC   C1A 3867   7.358   1.211   8.818
   62POPC   D2A 3868   7.062   1.065   8.500
   62POPC   C3A 3869   7.177   1.263   8.115
   62POPC   C4A 3870   7.457   1.134   7.811
   62POPC   C1B 3871   7.823   1.393   8.619
   62POPC   C2B 3872   7.716   1.332   8.196
   62POPC   C3B 3873   7.849   1.461   7.794
   62POPC   C4B 3874   7.996   1.432   7.411
   63POPC   NC3 3875  25.806  21.049   9.262
   63POPC   PO4 3876  26.069  21.477   9.680
   63POPC   GL1 3877  26.006  21.532   9.175
   63POPC   GL2 3878  25.796  21.765   9.062
   63POPC   C1A 3879  26.008  21.294   8.719
   63POPC   D2A 3880  26.202  21.312   8.329
   63POPC   C3A 3881  25.955  21.233   7.968
   63POPC   C4A 3882  25.723  21.424   7.662
   63POPC   C1B 3883  26.106  21.786   8.723
   63POPC   C2B 3884  26.030  21.802   8.277
   63POPC   C3B 3885  26.237  21.653   7.909
   63POPC   C4B 3886  26.275  21.799   7.469
   64POPC   NC3 3887  39.808  33.570   9.748
   64POPC   PO4 3888  40.110  34.124   9.555
   64POPC   GL1 3889  40.130  33.868   9.209
   64POPC   GL2 3890  39.787  34.007   9.146
   64POPC   C1A 3891  40.162  33.743   8.787
   64POPC   D2A 3892  39.827  33.667   8.490
   64POPC   C3A 3893  39.964  33.664   8.060
   64POPC   C4A 3894  40.117  33.830   7.673
   64POPC   C1B 3895  39.880  34.162   8.753
   64POPC   C2B 3896  40.068  34.105   8.345
   64POPC   C3B 3897  39.842  34.159   7.969
   64POPC   C4B 3898  39.608  34.475   7.775
   65POPC   NC3 3899  10.269  24.111   9.439
   65POPC   PO4 3900  10.726  23.550   9.428
   65POPC   GL1 3901  10.463  23.659   9.120
   65POPC   GL2 3902  10.622  23.948   9.096
   65POPC   C1A 3903  10.599  23.612   8.695
   65POPC   D2A 3904  10.685  23.420   8.296
   65POPC   C3A 3905  10.333  23.535   8.030
   65POPC   C4A 3906  10.229  23.708   7.639
   65POPC   C1B 3907  10.875  24.070   8.753
   65POPC   C2B 3908  10.990  23.840   8.397
   65POPC   C3B 3909  10.770  23.830   7.995
   65POPC   C4B 3910  10.716  23.961   7.588
   66POPC   NC3 3911  23.725  16.568   9.633
   66POPC   PO4 3912  23.939  17.224   9.541
   66POPC   GL1 3913  23.823  16.923   9.231
   66POPC   GL2 3914  23.982  17.089   8.955
   66POPC   C1A 3915  23.614  16.759   8.848
   66POPC   D2A 3916  23.618  16.928   8.457
   66POPC   C3A 3917  23.723  16.644   8.137
   66POPC   C4A 3918  23.583  16.674   7.731
   66POPC   C1B 3919  24.105  16.839   8.615
   66POPC   C2B 3920  24.105  17.041   8.235
   66POPC   C3B 3921  23.920  17.068   7.834
   66POPC   C4B 3922  24.082  16.857   7.484
   67POPC   NC3 3923   6.118  38.081   9.417
   67POPC   PO4 3924   5.473  38.265   9.432
   67POPC   GL1 3925   5.788  38.391   9.143
   67POPC   GL2 3926   5.982  38.705   9.204
   67POPC   C1A 3927   5.981  38.461   8.753
   67POPC   D2A 3928   5.854  38.561   8.370
   67POPC   C3A 3929   6.130  38.417   8.083
   67POPC   C4A 3930   5.954  38.427   7.677
   67POPC   C1B 3931   6.169  38.930   8.819
   67POPC   C2B 3932   6.300  38.840   8.380
   67POPC   C3B 3933   6.102  38.915   7.946
   67POPC   C4B 3934   6.104  38.866   7.466
   68POPC   NC3 3935  35.896  22.552   9.556
   68POPC   PO4 3936  36.299  23.064   9.570
   68POPC   GL1 3937  36.221  22.889   9.190
   68POPC   GL2 3938  36.346  22.515   9.239
   68POPC   C1A 3939  36.068  23.134   8.817
   68POPC   D2A 3940  36.141  23.259   8.352
   68POPC   C3A 3941  35.935  23.153   7.942
   68POPC   C4A 3942  36.150  22.907   7.592
   68POPC   C1B 3943  36.066  22.517   8.871
   68POPC   C2B 3944  36.081  22.756   8.499
   68POPC   C3B 3945  36.078  22.687   8.075
   68POPC   C4B 3946  35.736  22.640   7.818
   69POPC   NC3 3947  37.958  26.784   9.811
   69POPC   PO4 3948  37.616  27.018   9.282
   69POPC   GL1 3949  37.714  26.711   9.019
   69POPC   GL2 3950  38.022  26.680   9.278
   69POPC   C1A 3951  37.619  26.632   8.561
   69POPC   D2A 3952  37.439  26.914   8.241
   69POPC   C3A 3953  37.673  26.978   7.897
   69POPC   C4A 3954  37.566  27.072   7.545
   69POPC   C1B 3955  38.116  26.448   8.896
   69POPC   C2B 3956  38.126  26.526   8.442
   69POPC   C3B 3957  37.819  26.531   8.070
   69POPC   C4B 3958  37.527  26.505   7.679
   70POPC   NC3 3959   9.297   3.099   9.489
   70POPC   PO4 3960   8.685   3.366   9.509
   70POPC   GL1 3961   9.045   3.505   9.255
   70POPC   GL2 3962   8.944   3.256   9.069
   70POPC   C1A 3963   9.114   3.674   8.809
   70POPC   D2A 3964   8.893   3.643   8.403
   70POPC   C3A 3965   8.990   3.774   8.002
   70POPC   C4A 3966   9.032   3.402   7.776
   70POPC   C1B 3967   9.292   3.199   8.823
   70POPC   C2B 3968   9.251   3.246   8.420
   70POPC   C3B 3969   9.415   3.214   8.045
   70POPC   C4B 3970   9.256   2.911   7.780
   71POPC   NC3 3971  34.838   6.780   9.635
   71POPC   PO4 3972  35.432   6.812   9.550
   71POPC   GL1 3973  35.138   6.719   9.213
   71POPC   GL2 3974  35.157   6.383   9.078
   71POPC   C1A 3975  35.050   6.836   8.775
   71POPC   D2A 3976  35.197   6.567   8.449
   71POPC   C3A 3977  35.368   6.796   8.080
   71POPC   C4A 3978  35.215   6.767   7.682
   71POPC   C1B 3979  35.514   6.607   8.857
   71POPC   C2B 3980  35.711   6.594   8.421
   71POPC   C3B 3981  35.697   6.379   8.055
   71POPC   C4B 3982  35.680   6.565   7.666
   72POPC   NC3 3983  16.942  41.388   9.797
   72POPC   PO4 3984  17.630  41.442   9.660
   72POPC   GL1 3985  17.461  41.405   9.183
   72POPC   GL2 3986  17.740  41.280   8.999
   72POPC   C1A 3987  17.389  41.725   8.787
   72POPC   D2A 3988  17.650  41.981   8.499
   72POPC   C3A 3989  17.503  41.904   8.093
   72POPC   C4A 3990  17.370  42.002   7.705
   72POPC   C1B 3991  17.383  41.216   8.711
   72POPC   C2B 3992  17.500  41.430   8.366
   72POPC   C3B 3993  17.802  41.440   8.070
   72POPC   C4B 3994  17.596  41.551   7.703
   73POPC   NC3 3995  19.260   5.604   9.482
   73POPC   PO4 3996  18.849   6.136   9.465
   73POPC   GL1 3997  19.061   5.921   9.098
   73POPC   GL2 3998  19.341   5.643   8.987
   73POPC   C1A 3999  18.990   6.003   8.665
   73POPC   D2A 4000  18.886   6.311   8.389
   73POPC   C3A 4001  18.794   6.142   8.033
   73POPC   C4A 4002  18.851   5.881   7.694
   73POPC   C1B 4003  19.475   6.016   8.760
   73POPC   C2B 4004  19.403   6.111   8.318
   73POPC   C3B 4005  19.295   6.058   7.886
   73POPC   C4B 4006  19.269   6.169   7.445
   74POPC   NC3 4007  39.933   4.021   9.554
   74POPC   PO4 4008  40.244   4.609   9.380
   74POPC   GL1 4009  40.124   4.256   9.134
   74POPC   GL2 4010  39.753   4.233   9.138
   74POPC   C1A 4011  40.170   4.133   8.713
   74POPC   D2A 4012  40.100   4.446   8.400
   74POPC   C3A 4013  40.167   4.302   8.000
   74POPC   C4A 4014  40.317   4.616   7.750
   74POPC   C1B 4015  39.652   4.326   8.720
   74POPC   C2B 4016  39.722   4.119   8.326
   74POPC   C3B 4017  39.716   4.041   7.890
   74POPC   C4B 4018  39.745   4.075   7.415
   75POPC   NC3 4019  31.216  39.503   9.537
   75POPC   PO4 4020  31.907  39.451   9.592
   75POPC   GL1 4021  31.611  39.240   9.299
   75POPC   GL2 4022  31.800  39.364   9.021
   75POPC   C1A 4023  31.399  39.114   8.885
   75POPC   D2A 4024  31.689  39.209   8.529
   75POPC   C3A 4025  31.561  39.170   8.094
   75POPC   C4A 4026  31.219  38.970   7.870
   75POPC   C1B 4027  31.898  39.664   8.715
   75POPC   C2B 4028  31.808  39.644   8.293
   75POPC   C3B 4029  31.702  39.620   7.867
   75POPC   C4B 4030  31.635  39.569   7.420
   76POPC   NC3 4031  21.912  35.438   9.449
   76POPC   PO4 4032  22.432  34.988   9.417
   76POPC   GL1 4033  22.247  35.260   9.105
   76POPC   GL2 4034  21.919  35.062   9.101
   76POPC   C1A 4035  22.279  35.587   8.770
   76POPC   D2A 4036  22.029  35.642   8.420
   76POPC   C3A 4037  22.231  35.368   8.170
   76POPC   C4A 4038  22.525  35.470   7.871
   76POPC   C1B 4039  21.945  35.183   8.683
   76POPC   C2B 4040  22.193  34.922   8.446
   76POPC   C3B 4041  22.119  34.855   8.043
   76POPC   C4B 4042  22.121  35.114   7.743
   77POPC   NC3 4043  32.985  28.528   9.637
   77POPC   PO4 4044  33.324  27.973   9.581
   77POPC   GL1 4045  33.179  28.242   9.236
   77POPC   GL2 4046  32.849  28.305   9.191
   77POPC   C1A 4047  33.154  28.460   8.816
   77POPC   D2A 4048  32.943  28.379   8.437
   77POPC   C3A 4049  33.035  28.650   8.090
   77POPC   C4A 4050  32.974  28.411   7.709
   77POPC   C1B 4051  32.648  28.528   8.833
   77POPC   C2B 4052  32.486  28.614   8.407
   77POPC   C3B 4053  32.563  28.526   7.935
   77POPC   C4B 4054  32.597  28.561   7.406
   78POPC   NC3 4055  39.043  24.082   9.367
   78POPC   PO4 4056  39.511  24.480   9.499
   78POPC   GL1 4057  39.406  24.305   9.054
   78POPC   GL2 4058  39.063  24.214   8.875
   78POPC   C1A 4059  39.636  24.310   8.684
   78POPC   D2A 4060  39.568  24.527   8.286
   78POPC   C3A 4061  39.399  24.380   7.897
   78POPC   C4A 4062  39.259  24.261   7.454
   78POPC   C1B 4063  38.864  24.564   8.645
   78POPC   C2B 4064  39.044  24.582   8.250
   78POPC   C3B 4065  38.944  24.608   7.837
   78POPC   C4B 4066  38.802  25.022   7.772
   79POPC   NC3 4067  32.026  25.453   9.768
   79POPC   PO4 4068  32.361  24.927   9.408
   79POPC   GL1 4069  32.076  25.175   9.123
   79POPC   GL2 4070  31.948  25.515   9.203
   79POPC   C1A 4071  32.122  25.355   8.735
   79POPC   D2A 4072  32.057  25.246   8.340
   79POPC   C3A 4073  32.191  25.341   7.958
   79POPC   C4A 4074  32.109  25.047   7.646
   79POPC   C1B 4075  31.949  25.817   8.852
   79POPC   C2B 4076  31.794  25.668   8.454
   79POPC   C3B 4077  31.854  25.773   8.026
   79POPC   C4B 4078  31.913  25.601   7.604
   80POPC   NC3 4079  41.182   2.001   9.323
   80POPC   PO4 4080  41.819   1.910   9.636
   80POPC   GL1 4081  41.695   2.128   9.239
   80POPC   GL2 4082  41.589   1.817   9.093
   80POPC   C1A 4083  41.585   2.221   8.789
   80POPC   D2A 4084  41.753   2.063   8.396
   80POPC   C3A 4085  41.649   2.157   8.008
   80POPC   C4A 4086  41.548   2.221   7.627
   80POPC   C1B 4087  41.421   1.770   8.645
   80POPC   C2B 4088  41.236   1.955   8.256
   80POPC   C3B 4089  41.241   1.844   7.808
   80POPC   C4B 4090  41.256   1.612   7.393
   81POPC   NC3 4091  29.631  27.133   9.494
   81POPC   PO4 4092  29.812  26.491   9.630
   81POPC   GL1 4093  29.893  26.773   9.255
   81POPC   GL2 4094  30.083  26.639   9.031
   81POPC   C1A 4095  29.902  27.080   8.870
   81POPC   D2A 4096  30.100  27.120   8.483
   81POPC   C3A 4097  29.886  26.925   8.152
   81POPC   C4A 4098  29.949  26.939   7.731
   81POPC   C1B 4099  30.120  26.624   8.581
   81POPC   C2B 4100  30.103  26.477   8.154
   81POPC   C3B 4101  30.232  26.518   7.721
   81POPC   C4B 4102  30.266  26.336   7.286
   82POPC   NC3 4103  14.057  30.405   9.534
   82POPC   PO4 4104  13.563  30.813   9.757
   82POPC   GL1 4105  13.680  30.660   9.230
   82POPC   GL2 4106  13.967  30.626   9.025
   82POPC   C1A 4107  13.547  30.583   8.742
   82POPC   D2A 4108  13.613  30.724   8.325
   82POPC   C3A 4109  13.726  30.619   7.913
   82POPC   C4A 4110  13.564  30.556   7.449
   82POPC   C1B 4111  13.843  30.995   8.780
   82POPC   C2B 4112  13.759  31.194   8.393
   82POPC   C3B 4113  13.904  31.098   8.000
   82POPC   C4B 4114  13.737  31.012   7.608
   83POPC   NC3 4115   7.431  13.119   9.579
   83POPC   PO4 4116   7.685  12.429   9.575
   83POPC   GL1 4117   7.683  12.778   9.274
   83POPC   GL2 4118   7.299  12.757   9.239
   83POPC   C1A 4119   7.554  12.989   8.865
   83POPC   D2A 4120   7.342  12.967   8.456
   83POPC   C3A 4121   7.615  13.014   8.081
   83POPC   C4A 4122   7.796  12.999   7.693
   83POPC   C1B 4123   7.219  12.564   8.834
   83POPC   C2B 4124   7.102  12.443   8.408
   83POPC   C3B 4125   7.171  12.695   8.043
   83POPC   C4B 4126   7.441  12.627   7.704
   84POPC   NC3 4127  37.736  10.950   9.514
   84POPC   PO4 4128  37.888  11.569   9.435
   84POPC   GL1 4129  37.819  11.434   9.075
   84POPC   GL2 4130  37.497  11.335   9.219
   84POPC   C1A 4131  37.826  11.549   8.616
   84POPC   D2A 4132  37.811  11.209   8.274
   84POPC   C3A 4133  37.881  11.288   7.823
   84POPC   C4A 4134  37.929  11.488   7.401
   84POPC   C1B 4135  37.457  11.239   8.778
   84POPC   C2B 4136  37.365  11.405   8.385
   84POPC   C3B 4137  37.400  11.269   7.961
   84POPC   C4B 4138  37.435  11.373   7.521
   85POPC   NC3 4139  24.269  10.921   9.609
   85POPC   PO4 4140  24.850  10.980   9.275
   85POPC   GL1 4141  24.583  10.633   9.157
   85POPC   GL2 4142  24.802  10.315   9.097
   85POPC   C1A 4143  24.217  10.651   8.844
   85POPC   D2A 4144  24.139  10.809   8.406
   85POPC   C3A 4145  24.534  10.913   8.187
   85POPC   C4A 4146  24.560  10.749   7.772
   85POPC   C1B 4147  24.691  10.477   8.674
   85POPC   C2B 4148  24.421  10.398   8.305
   85POPC   C3B 4149  24.545  10.256   7.896
   85POPC   C4B 4150  24.671  10.388   7.433
   86POPC   NC3 4151   2.197   9.944   9.572
   86POPC   PO4 4152   1.934   9.358   9.298
   86POPC   GL1 4153   1.953   9.652   9.011
   86POPC   GL2 4154   2.262   9.759   9.090
   86POPC   C1A 4155   2.048   9.604   8.565
   86POPC   D2A 4156   1.826   9.633   8.185
   86POPC   C3A 4157   2.095   9.693   7.828
   86POPC   C4A 4158   2.019   9.868   7.432
   86POPC   C1B 4159   2.158  10.065   8.752
   86POPC   C2B 4160   2.076  10.089   8.319
   86POPC   C3B 4161   2.281  10.156   7.939
   86POPC   C4B 4162   2.544   9.914   7.670
   87POPC   NC3 4163  23.001  31.140   9.826
   87POPC   PO4 4164  22.572  31.282   9.393
   87POPC   GL1 4165  22.931  31.392   9.110
   87POPC   GL2 4166  23.164  31.714   9.120
   87POPC   C1A 4167  22.785  31.588   8.736
   87POPC   D2A 4168  22.613  31.403   8.375
   87POPC   C3A 4169  22.679  31.564   7.990
   87POPC   C4A 4170  22.856  31.417   7.641
   87POPC   C1B 4171  23.291  31.526   8.756
   87POPC   C2B 4172  23.125  31.544   8.336
   87POPC   C3B 4173  23.145  31.805   7.977
   87POPC   C4B 4174  23.166  31.819   7.533
   88POPC   NC3 4175   8.805  39.705   9.503
   88POPC   PO4 4176   8.910  40.330   9.446
   88POPC   GL1 4177   9.042  40.072   9.162
   88POPC   GL2 4178   9.259  40.337   9.055
   88POPC   C1A 4179   9.175  39.890   8.774
   88POPC   D2A 4180   9.320  40.080   8.393
   88POPC   C3A 4181   9.124  39.895   8.029
   88POPC   C4A 4182   9.246  39.571   7.748
   88POPC   C1B 4183   8.887  40.433   8.778
   88POPC   C2B 4184   8.740  40.456   8.327
   88POPC   C3B 4185   8.820  40.311   7.871
   88POPC   C4B 4186   8.759  40.334   7.409
   89POPC   NC3 4187  44.937   1.818   9.407
   89POPC   PO4 4188   0.563   1.986   9.688
   89POPC   GL1 4189   0.455   2.016   9.247
   89POPC   GL2 4190   0.480   1.652   9.169
   89POPC   C1A 4191   0.655   2.166   8.843
   89POPC   D2A 4192   0.550   2.303   8.416
   89POPC   C3A 4193   0.696   2.182   8.022
   89POPC   C4A 4194   0.447   2.178   7.639
   89POPC   C1B 4195   0.286   1.826   8.797
   89POPC   C2B 4196   0.128   1.991   8.407
   89POPC   C3B 4197   0.313   1.835   8.011
   89POPC   C4B 4198   0.230   1.721   7.590
   90POPC   NC3 4199   1.883   8.043   9.502
   90POPC   PO4 4200   2.410   8.500   9.487
   90POPC   GL1 4201   2.142   8.325   9.175
   90POPC   GL2 4202   2.175   7.931   9.102
   90POPC   C1A 4203   1.892   8.256   8.817
   90POPC   D2A 4204   2.049   8.160   8.423
   90POPC   C3A 4205   1.798   8.272   8.076
   90POPC   C4A 4206   1.886   8.342   7.631
   90POPC   C1B 4207   1.955   7.728   8.741
   90POPC   C2B 4208   2.109   7.673   8.328
   90POPC   C3B 4209   2.111   7.872   7.958
   90POPC   C4B 4210   1.718   7.861   7.780
   91POPC   NC3 4211  39.620  12.972   9.448
   91POPC   PO4 4212  39.085  12.605   9.329
   91POPC   GL1 4213  39.312  12.779   9.080
   91POPC   GL2 4214  39.148  13.089   9.120
   91POPC   C1A 4215  39.469  12.690   8.705
   91POPC   D2A 4216  39.362  12.846   8.269
   91POPC   C3A 4217  39.141  12.585   8.005
   91POPC   C4A 4218  39.016  12.642   7.581
   91POPC   C1B 4219  39.201  13.143   8.677
   91POPC   C2B 4220  39.118  13.322   8.264
   91POPC   C3B 4221  39.040  13.112   7.873
   91POPC   C4B 4222  38.727  13.072   7.535
   92POPC   NC3 4223   4.254  18.398   9.502
   92POPC   PO4 4224   4.707  17.936   9.598
   92POPC   GL1 4225   4.475  18.024   9.212
   92POPC   GL2 4226   4.635  18.328   9.141
   92POPC   C1A 4227   4.212  18.264   8.870
   92POPC   D2A 4228   4.289  18.415   8.441
   92POPC   C3A 4229   4.086  18.238   8.132
   92POPC   C4A 4230   4.219  18.215   7.739
   92POPC   C1B 4231   4.622  18.567   8.797
   92POPC   C2B 4232   4.747  18.638   8.404
   92POPC   C3B 4233   4.533  18.589   7.998
   92POPC   C4B 4234   4.626  18.488   7.585
   93POPC   NC3 4235  29.031   0.983   9.470
   93POPC   PO4 4236  29.291   1.664   9.336
   93POPC   GL1 4237  29.302   1.281   9.096
   93POPC   GL2 4238  28.998   1.324   9.073
   93POPC   C1A 4239  29.300   1.102   8.651
   93POPC   D2A 4240  29.213   0.979   8.218
   93POPC   C3A 4241  29.190   1.205   7.817
   93POPC   C4A 4242  29.300   1.421   7.427
   93POPC   C1B 4243  28.840   1.014   8.838
   93POPC   C2B 4244  28.699   0.938   8.432
   93POPC   C3B 4245  28.778   0.787   8.029
   93POPC   C4B 4246  28.773   0.978   7.637
   94POPC   NC3 4247  20.335  10.814   9.530
   94POPC   PO4 4248  20.848  10.461   9.521
   94POPC   GL1 4249  20.618  10.507   9.173
   94POPC   GL2 4250  20.664  10.819   9.143
   94POPC   C1A 4251  20.396  10.552   8.797
   94POPC   D2A 4252  20.505  10.415   8.392
   94POPC   C3A 4253  20.371  10.601   8.018
   94POPC   C4A 4254  20.324  10.310   7.645
   94POPC   C1B 4255  20.817  10.831   8.733
   94POPC   C2B 4256  20.869  10.784   8.303
   94POPC   C3B 4257  20.930  10.864   7.849
   94POPC   C4B 4258  20.576  10.779   7.594
   95POPC   NC3 4259  13.212  16.659   9.392
   95POPC   PO4 4260  12.585  16.440   9.489
   95POPC   GL1 4261  12.743  16.597   9.117
   95POPC   GL2 4262  12.911  16.927   9.079
   95POPC   C1A 4263  12.870  16.404   8.761
   95POPC   D2A 4264  12.719  16.617   8.411
   95POPC   C3A 4265  12.966  16.638   8.061
   95POPC   C4A 4266  12.822  16.628   7.683
   95POPC   C1B 4267  13.061  16.924   8.633
   95POPC   C2B 4268  12.879  17.114   8.246
   95POPC   C3B 4269  12.820  17.132   7.802
   95POPC   C4B 4270  12.847  16.978   7.337
   96POPC   NC3 4271  35.574   8.322   9.331
   96POPC   PO4 4272  36.168   8.067   9.564
   96POPC   GL1 4273  36.040   8.225   9.156
   96POPC   GL2 4274  36.223   8.448   8.972
   96POPC   C1A 4275  35.813   8.257   8.754
   96POPC   D2A 4276  35.865   8.053   8.389
   96POPC   C3A 4277  36.004   8.304   8.118
   96POPC   C4A 4278  35.898   8.262   7.760
   96POPC   C1B 4279  36.262   8.024   8.704
   96POPC   C2B 4280  36.349   7.856   8.272
   96POPC   C3B 4281  36.376   8.064   7.829
   96POPC   C4B 4282  36.633   8.003   7.411
   97POPC   NC3 4283  17.059  27.998   9.528
   97POPC   PO4 4284  17.209  27.319   9.538
   97POPC   GL1 4285  17.342  27.653   9.198
   97POPC   GL2 4286  17.721  27.631   9.060
   97POPC   C1A 4287  17.313  27.530   8.767
   97POPC   D2A 4288  17.318  27.464   8.335
   97POPC   C3A 4289  17.656  27.511   8.043
   97POPC   C4A 4290  17.362  27.557   7.720
   97POPC   C1B 4291  17.619  27.939   8.765
   97POPC   C2B 4292  17.440  27.976   8.334
   97POPC   C3B 4293  17.616  28.010   7.922
   97POPC   C4B 4294  17.817  27.793   7.595
   98POPC   NC3 4295  43.183   6.442   9.323
   98POPC   PO4 4296  43.389   7.148   9.457
   98POPC   GL1 4297  43.158   6.931   9.123
   98POPC   GL2 4298  42.797   6.807   9.125
   98POPC   C1A 4299  43.155   6.693   8.726
   98POPC   D2A 4300  43.276   6.861   8.341
   98POPC   C3A 4301  43.159   6.640   7.963
   98POPC   C4A 4302  43.397   6.418   7.643
   98POPC   C1B 4303  42.693   6.486   8.784
   98POPC   C2B 4304  42.871   6.409   8.369
   98POPC   C3B 4305  42.714   6.359   7.962
   98POPC   C4B 4306  42.887   6.320   7.556
   99POPC   NC3 4307  21.192  35.640   9.381
   99POPC   PO4 4308  21.559  35.120   9.460
   99POPC   GL1 4309  21.498  35.360   9.071
   99POPC   GL2 4310  21.762  35.569   8.983
   99POPC   C1A 4311  21.192  35.414   8.735
   99POPC   D2A 4312  21.056  35.342   8.307
   99POPC   C3A 4313  21.275  35.273   7.960
   99POPC   C4A 4314  21.376  35.476   7.591
   99POPC   C1B 4315  21.568  35.759   8.665
   99POPC   C2B 4316  21.550  35.483   8.339
   99POPC   C3B 4317  21.759  35.413   7.955
   99POPC   C4B 4318  22.051  35.638   7.745
  100POPC   NC3 4319  40.100   0.188   9.589
  100POPC   PO4 4320  40.337   0.828   9.480
  100POPC   GL1 4321  40.261   0.517   9.122
  100POPC   GL2 4322  40.044   0.245   9.095
  100POPC   C1A 4323  40.053   0.512   8.687
  100POPC   D2A 4324  40.197   0.538   8.274
  100POPC   C3A 4325  39.912   0.681   7.950
  100POPC   C4A 4326  39.975   0.554   7.486
  100POPC   C1B 4327  39.860   0.016   8.743
  100POPC   C2B 4328  39.904   0.125   8.306
  100POPC   C3B 4329  40.056   0.208   7.881
  100POPC   C4B 4330  39.757   0.091   7.605
  101POPC   NC3 4331  10.862  19.432   9.393
  101POPC   PO4 4332  11.056  20.056   9.519
  101POPC   GL1 4333  11.247  20.018   9.108
  101POPC   GL2 4334  11.136  19.691   9.022
  101POPC   C1A 4335  11.430  20.007   8.680
  101POPC   D2A 4336  11.246  20.242   8.344
  101POPC   C3A 4337  11.323  20.019   7.983
  101POPC   C4A 4338  11.453  19.999   7.586
  101POPC   C1B 4339  10.938  19.914   8.705
  101POPC   C2B 4340  11.036  19.770   8.348
  101POPC   C3B 4341  10.950  19.671   7.982
  101POPC   C4B 4342  10.966  19.847   7.628
  102POPC   NC3 4343  34.082  33.978   9.604
  102POPC   PO4 4344  33.429  33.680   9.579
  102POPC   GL1 4345  33.621  33.730   9.168
  102POPC   GL2 4346  33.920  33.879   9.133
  102POPC   C1A 4347  33.632  33.878   8.711
  102POPC   D2A 4348  33.765  33.759   8.310
  102POPC   C3A 4349  33.626  33.963   7.944
  102POPC   C4A 4350  33.865  33.846   7.621
  102POPC   C1B 4351  34.141  34.016   8.763
  102POPC   C2B 4352  34.276  33.872   8.386
  102POPC   C3B 4353  34.112  34.085   8.055
  102POPC   C4B 4354  33.895  34.351   7.754
  103POPC   NC3 4355  36.549  23.827   9.552
  103POPC   PO4 4356  36.812  24.547   9.413
  103POPC   GL1 4357  36.986  24.605   9.029
  103POPC   GL2 4358  37.297  24.795   9.087
  103POPC   C1A 4359  36.785  24.518   8.643
  103POPC   D2A 4360  36.671  24.315   8.312
  103POPC   C3A 4361  36.807  24.443   7.895
  103POPC   C4A 4362  36.734  24.336   7.442
  103POPC   C1B 4363  37.343  24.730   8.645
  103POPC   C2B 4364  37.163  24.591   8.273
  103POPC   C3B 4365  37.208  24.738   7.843
  103POPC   C4B 4366  37.217  24.454   7.551
  104POPC   NC3 4367  37.455  32.797   9.474
  104POPC   PO4 4368  36.939  33.230   9.433
  104POPC   GL1 4369  36.955  32.968   9.087
  104POPC   GL2 4370  37.248  32.739   9.026
  104POPC   C1A 4371  36.936  33.159   8.692
  104POPC   D2A 4372  36.711  33.157   8.341
  104POPC   C3A 4373  36.926  33.112   7.966
  104POPC   C4A 4374  36.747  32.894   7.642
  104POPC   C1B 4375  36.989  32.642   8.683
  104POPC   C2B 4376  37.052  32.743   8.300
  104POPC   C3B 4377  37.014  32.548   7.933
  104POPC   C4B 4378  37.138  32.603   7.537
  105POPC   NC3 4379   1.536   1.372   9.395
  105POPC   PO4 4380   0.919   1.074   9.488
  105POPC   GL1 4381   1.187   1.029   9.148
  105POPC   GL2 4382   1.131   1.384   9.086
  105POPC   C1A 4383   1.425   1.029   8.757
  105POPC   D2A 4384   1.506   1.086   8.296
  105POPC   C3A 4385   1.152   1.122   8.039
  105POPC   C4A 4386   0.997   1.226   7.658
  105POPC   C1B 4387   1.354   1.552   8.746
  105POPC   C2B 4388   1.236   1.541   8.359
  105POPC   C3B 4389   1.364   1.706   7.990
  105POPC   C4B 4390   1.333   1.609   7.581
  106POPC   NC3 4391  44.735  36.422   9.480
  106POPC   PO4 4392  44.166  36.071   9.631
  106POPC   GL1 4393  44.446  36.124   9.172
  106POPC   GL2 4394  44.771  36.249   9.018
  106POPC   C1A 4395  44.559  35.918   8.718
  106POPC   D2A 4396  44.760  35.777   8.294
  106POPC   C3A 4397  44.689  36.060   7.899
  106POPC   C4A 4398  44.743  35.950   7.444
  106POPC   C1B 4399  44.586  36.409   8.705
  106POPC   C2B 4400  44.733  36.279   8.369
  106POPC   C3B 4401  44.973  36.433   8.094
  106POPC   C4B 4402  44.854  36.581   7.712
  107POPC   NC3 4403  11.319  39.025   9.633
  107POPC   PO4 4404  11.708  39.502   9.386
  107POPC   GL1 4405  11.461  39.267   9.110
  107POPC   GL2 4406  11.119  39.133   9.174
  107POPC   C1A 4407  11.428  39.169   8.689
  107POPC   D2A 4408  11.414  38.933   8.322
  107POPC   C3A 4409  11.419  39.252   8.021
  107POPC   C4A 4410  11.612  39.383   7.623
  107POPC   C1B 4411  11.011  39.450   8.858
  107POPC   C2B 4412  11.102  39.467   8.436
  107POPC   C3B 4413  11.069  39.624   8.052
  107POPC   C4B 4414  11.052  39.400   7.671
  108POPC   NC3 4415  25.023  22.356   9.803
  108POPC   PO4 4416  25.436  21.896   9.465
  108POPC   GL1 4417  25.182  22.065   9.198
  108POPC   GL2 4418  25.187  22.378   9.258
  108POPC   C1A 4419  25.226  22.011   8.768
  108POPC   D2A 4420  25.351  21.827   8.413
  108POPC   C3A 4421  25.150  22.047   8.081
  108POPC   C4A 4422  25.145  22.198   7.651
  108POPC   C1B 4423  25.354  22.500   8.828
  108POPC   C2B 4424  25.469  22.658   8.428
  108POPC   C3B 4425  25.339  22.537   8.012
  108POPC   C4B 4426  25.598  22.363   7.713
  109POPC   NC3 4427  21.631  27.590   9.600
  109POPC   PO4 4428  20.923  27.461   9.546
  109POPC   GL1 4429  21.221  27.666   9.226
  109POPC   GL2 4430  21.567  27.574   9.102
  109POPC   C1A 4431  21.188  27.768   8.785
  109POPC   D2A 4432  21.057  27.704   8.341
  109POPC   C3A 4433  21.257  27.907   7.973
  109POPC   C4A 4434  21.337  27.524   7.777
  109POPC   C1B 4435  21.538  27.390   8.689
  109POPC   C2B 4436  21.544  27.552   8.268
  109POPC   C3B 4437  21.775  27.333   7.943
  109POPC   C4B 4438  21.794  27.542   7.549
  110POPC   NC3 4439  43.244   0.129   9.297
  110POPC   PO4 4440  42.896   0.743   9.468
  110POPC   GL1 4441  42.910   0.519   9.078
  110POPC   GL2 4442  42.822   0.137   9.012
  110POPC   C1A 4443  43.220   0.485   8.748
  110POPC   D2A 4444  43.354   0.390   8.351
  110POPC   C3A 4445  43.483   0.288   7.944
  110POPC   C4A 4446  43.312   0.124   7.607
  110POPC   C1B 4447  42.709   0.334   8.636
  110POPC   C2B 4448  42.888   0.621   8.359
  110POPC   C3B 4449  43.018   0.518   7.938
  110POPC   C4B 4450  43.017   0.785   7.602
  111POPC   NC3 4451  19.529  35.275   9.656
  111POPC   PO4 4452  20.149  35.253   9.506
  111POPC   GL1 4453  19.821  35.420   9.219
  111POPC   GL2 4454  19.979  35.689   9.028
  111POPC   C1A 4455  19.659  35.285   8.802
  111POPC   D2A 4456  19.825  35.161   8.403
  111POPC   C3A 4457  19.800  35.456   8.091
  111POPC   C4A 4458  19.492  35.421   7.800
  111POPC   C1B 4459  20.167  35.342   8.756
  111POPC   C2B 4460  20.320  35.250   8.316
  111POPC   C3B 4461  20.261  35.130   7.920
  111POPC   C4B 4462  19.976  35.249   7.646
  112POPC   NC3 4463   6.593  34.335   9.515
  112POPC   PO4 4464   6.586  33.599   9.623
  112POPC   GL1 4465   6.628  33.738   9.180
  112POPC   GL2 4466   6.326  33.874   8.995
  112POPC   C1A 4467   6.700  33.609   8.743
  112POPC   D2A 4468   6.605  33.743   8.317
  112POPC   C3A 4469   6.996  33.651   8.077
  112POPC   C4A 4470   7.040  33.475   7.666
  112POPC   C1B 4471   6.591  34.141   8.696
  112POPC   C2B 4472   6.599  34.289   8.251
  112POPC   C3B 4473   6.377  34.071   7.915
  112POPC   C4B 4474   6.571  33.699   7.792
  113POPC   NC3 4475  32.313  42.992   9.608
  113POPC   PO4 4476  31.811  43.432   9.566
  113POPC   GL1 4477  32.009  43.180   9.216
  113POPC   GL2 4478  32.166  42.844   9.132
  113POPC   C1A 4479  31.956  43.181   8.775
  113POPC   D2A 4480  31.849  43.167   8.346
  113POPC   C3A 4481  32.149  43.117   8.036
  113POPC   C4A 4482  32.072  43.214   7.608
  113POPC   C1B 4483  32.462  43.115   8.928
  113POPC   C2B 4484  32.554  43.249   8.521
  113POPC   C3B 4485  32.689  43.316   8.112
  113POPC   C4B 4486  32.570  43.192   7.707
  114POPC   NC3 4487  35.706   7.929   9.649
  114POPC   PO4 4488  35.332   8.596   9.598
  114POPC   GL1 4489  35.169   8.533   9.135
  114POPC   GL2 4490  35.200   8.164   9.009
  114POPC   C1A 4491  35.371   8.537   8.717
  114POPC   D2A 4492  35.642   8.562   8.381
  114POPC   C3A 4493  35.493   8.291   8.096
  114POPC   C4A 4494  35.416   8.333   7.683
  114POPC   C1B 4495  35.403   7.963   8.655
  114POPC   C2B 4496  35.467   7.783   8.245
  114POPC   C3B 4497  35.269   7.875   7.841
  114POPC   C4B 4498  35.281   7.975   7.355
  115POPC   NC3 4499  26.021  15.606   9.567
  115POPC   PO4 4500  25.960  14.936   9.601
  115POPC   GL1 4501  25.927  15.187   9.243
  115POPC   GL2 4502  26.252  15.157   9.027
  115POPC   C1A 4503  25.802  15.289   8.840
  115POPC   D2A 4504  26.085  15.187   8.508
  115POPC   C3A 4505  25.994  15.188   8.080
  115POPC   C4A 4506  26.027  15.368   7.667
  115POPC   C1B 4507  26.423  14.846   8.688
  115POPC   C2B 4508  26.407  14.844   8.209
  115POPC   C3B 4509  26.438  15.061   7.797
  115POPC   C4B 4510  26.510  15.080   7.299
  116POPC   NC3 4511  43.354  42.857   9.489
  116POPC   PO4 4512  42.929  43.303   9.492
  116POPC   GL1 4513  43.257  43.287   9.208
  116POPC   GL2 4514  43.069  43.026   9.042
  116POPC   C1A 4515  43.470  43.174   8.812
  116POPC   D2A 4516  43.190  43.116   8.513
  116POPC   C3A 4517  43.285  43.106   8.101
  116POPC   C4A 4518  43.225  43.203   7.686
  116POPC   C1B 4519  42.839  42.809   8.703
  116POPC   C2B 4520  42.975  42.714   8.268
  116POPC   C3B 4521  43.031  42.722   7.815
  116POPC   C4B 4522  42.919  42.844   7.381
  117POPC   NC3 4523  32.669  40.614   9.539
  117POPC   PO4 4524  33.337  40.813   9.599
  117POPC   GL1 4525  33.037  40.854   9.259
  117POPC   GL2 4526  32.970  40.500   9.145
  117POPC   C1A 4527  32.942  41.056   8.863
  117POPC   D2A 4528  33.050  40.901   8.461
  117POPC   C3A 4529  32.757  40.699   8.163
  117POPC   C4A 4530  32.650  40.832   7.721
  117POPC   C1B 4531  33.281  40.612   8.827
  117POPC   C2B 4532  33.484  40.609   8.401
  117POPC   C3B 4533  33.381  40.873   8.084
  117POPC   C4B 4534  33.148  40.747   7.779
  118POPC   NC3 4535  37.704   9.616   9.693
  118POPC   PO4 4536  37.222   9.992   9.499
  118POPC   GL1 4537  37.599   9.981   9.256
  118POPC   GL2 4538  37.563   9.636   9.212
  118POPC   C1A 4539  37.634  10.022   8.799
  118POPC   D2A 4540  37.798   9.767   8.433
  118POPC   C3A 4541  37.595   9.876   8.027
  118POPC   C4A 4542  37.697   9.987   7.599
  118POPC   C1B 4543  37.525   9.509   8.818
  118POPC   C2B 4544  37.472   9.325   8.426
  118POPC   C3B 4545  37.435   9.388   8.029
  118POPC   C4B 4546  37.681   9.478   7.684
  119POPC   NC3 4547  37.659  28.603   9.432
  119POPC   PO4 4548  37.854  27.974   9.452
  119POPC   GL1 4549  37.698  28.160   9.128
  119POPC   GL2 4550  37.354  28.120   9.087
  119POPC   C1A 4551  37.710  28.384   8.757
  119POPC   D2A 4552  37.944  28.484   8.387
  119POPC   C3A 4553  37.758  28.538   8.020
  119POPC   C4A 4554  37.887  28.208   7.746
  119POPC   C1B 4555  37.465  27.912   8.742
  119POPC   C2B 4556  37.612  28.057   8.354
  119POPC   C3B 4557  37.418  28.166   7.989
  119POPC   C4B 4558  37.420  28.417   7.597
  120POPC   NC3 4559  34.590   7.725   9.420
  120POPC   PO4 4560  34.863   7.132   9.331
  120POPC   GL1 4561  34.527   7.331   9.040
  120POPC   GL2 4562  34.572   7.682   8.930
  120POPC   C1A 4563  34.213   7.418   8.717
  120POPC   D2A 4564  34.452   7.642   8.383
  120POPC   C3A 4565  34.612   7.419   8.011
  120POPC   C4A 4566  34.407   7.305   7.624
  120POPC   C1B 4567  34.887   7.858   8.708
  120POPC   C2B 4568  34.964   7.747   8.308
  120POPC   C3B 4569  34.758   7.894   7.960
  120POPC   C4B 4570  34.854   7.677   7.575
  121POPC   NC3 4571   0.081  16.040   9.519
  121POPC   PO4 4572  44.438  15.860   9.629
  121POPC   GL1 4573  44.636  15.885   9.255
  121POPC   GL2 4574  44.563  15.562   9.173
  121POPC   C1A 4575  44.791  15.913   8.829
  121POPC   D2A 4576  44.607  16.072   8.450
  121POPC   C3A 4577  44.868  16.119   8.111
  121POPC   C4A 4578  44.810  16.183   7.695
  121POPC   C1B 4579  44.441  15.537   8.758
  121POPC   C2B 4580  44.725  15.577   8.401
  121POPC   C3B 4581  44.640  15.670   7.995
  121POPC   C4B 4582  44.435  15.662   7.634
  122POPC   NC3 4583  26.781  43.119   9.609
  122POPC   PO4 4584  27.324  42.992   9.260
  122POPC   GL1 4585  26.943  43.099   9.123
  122POPC   GL2 4586  26.916  43.451   9.129
  122POPC   C1A 4587  26.574  43.070   8.913
  122POPC   D2A 4588  26.516  42.976   8.488
  122POPC   C3A 4589  26.504  43.164   8.062
  122POPC   C4A 4590  26.765  42.917   7.745
  122POPC   C1B 4591  26.865  43.389   8.647
  122POPC   C2B 4592  26.984  43.170   8.224
  122POPC   C3B 4593  27.147  43.270   7.780
  122POPC   C4B 4594  27.293  43.483   7.343
  123POPC   NC3 4595  41.674   4.644   9.367
  123POPC   PO4 4596  41.331   4.041   9.557
  123POPC   GL1 4597  41.476   4.208   9.143
  123POPC   GL2 4598  41.873   4.264   9.084
  123POPC   C1A 4599  41.489   4.395   8.717
  123POPC   D2A 4600  41.219   4.476   8.328
  123POPC   C3A 4601  41.433   4.370   7.936
  123POPC   C4A 4602  41.526   4.386   7.482
  123POPC   C1B 4603  41.966   4.603   8.756
  123POPC   C2B 4604  41.754   4.614   8.326
  123POPC   C3B 4605  41.803   4.759   7.894
  123POPC   C4B 4606  42.018   4.450   7.644
  124POPC   NC3 4607  19.217  19.628   9.379
  124POPC   PO4 4608  18.738  19.961   9.497
  124POPC   GL1 4609  18.883  19.940   9.114
  124POPC   GL2 4610  19.206  20.135   9.166
  124POPC   C1A 4611  18.905  19.631   8.786
  124POPC   D2A 4612  19.030  19.782   8.391
  124POPC   C3A 4613  18.989  19.574   7.999
  124POPC   C4A 4614  18.786  19.839   7.713
  124POPC   C1B 4615  19.351  19.884   8.798
  124POPC   C2B 4616  19.526  19.874   8.383
  124POPC   C3B 4617  19.323  19.995   7.999
  124POPC   C4B 4618  19.276  19.779   7.613
  125POPC   NC3 4619  38.968   4.224   9.719
  125POPC   PO4 4620  39.630   4.437   9.668
  125POPC   GL1 4621  39.300   4.408   9.318
  125POPC   GL2 4622  38.996   4.592   9.261
  125POPC   C1A 4623  39.152   4.217   8.917
  125POPC   D2A 4624  39.095   4.069   8.481
  125POPC   C3A 4625  39.269   4.216   8.095
  125POPC   C4A 4626  39.094   4.109   7.679
  125POPC   C1B 4627  38.777   4.595   8.853
  125POPC   C2B 4628  38.813   4.528   8.374
  125POPC   C3B 4629  38.973   4.581   7.914
  125POPC   C4B 4630  38.987   4.568   7.442
  126POPC   NC3 4631  11.242   4.629   9.526
  126POPC   PO4 4632  11.526   3.945   9.518
  126POPC   GL1 4633  11.381   4.229   9.222
  126POPC   GL2 4634  11.579   4.500   9.100
  126POPC   C1A 4635  11.164   4.296   8.836
  126POPC   D2A 4636  11.268   4.390   8.418
  126POPC   C3A 4637  11.151   4.344   8.007
  126POPC   C4A 4638  11.006   4.682   7.760
  126POPC   C1B 4639  11.699   4.344   8.711
  126POPC   C2B 4640  11.753   4.411   8.258
  126POPC   C3B 4641  11.653   4.517   7.797
  126POPC   C4B 4642  11.781   4.641   7.336
  127POPC   NC3 4643  18.665  36.602   9.344
  127POPC   PO4 4644  17.997  36.663   9.535
  127POPC   GL1 4645  18.085  36.887   9.155
  127POPC   GL2 4646  18.446  37.009   9.135
  127POPC   C1A 4647  18.228  36.731   8.741
  127POPC   D2A 4648  18.519  36.875   8.431
  127POPC   C3A 4649  18.386  36.770   8.042
  127POPC   C4A 4650  18.114  36.667   7.736
  127POPC   C1B 4651  18.657  37.236   8.805
  127POPC   C2B 4652  18.550  37.408   8.394
  127POPC   C3B 4653  18.600  37.243   7.986
  127POPC   C4B 4654  18.602  37.016   7.598
  128POPC   NC3 4655  25.660  32.951   9.515
  128POPC   PO4 4656  25.256  33.449   9.619
  128POPC   GL1 4657  25.290  33.194   9.212
  128POPC   GL2 4658  25.488  32.881   9.042
  128POPC   C1A 4659  25.161  33.175   8.804
  128POPC   D2A 4660  25.402  33.063   8.439
  128POPC   C3A 4661  25.189  33.110   8.072
  128POPC   C4A 4662  25.328  33.194   7.684
  128POPC   C1B 4663  25.207  32.690   8.715
  128POPC   C2B 4664  25.088  32.655   8.297
  128POPC   C3B 4665  25.286  32.647   7.893
  128POPC   C4B 4666  25.132  32.570   7.498
  129POPC   NC3 4667  19.086  34.908   9.510
  129POPC   PO4 4668  19.273  35.652   9.593
  129POPC   GL1 4669  19.128  35.391   9.258
  129POPC   GL2 4670  19.370  35.140   9.177
  129POPC   C1A 4671  19.159  35.506   8.816
  129POPC   D2A 4672  19.377  35.478   8.414
  129POPC   C3A 4673  19.186  35.705   8.076
  129POPC   C4A 4674  18.976  35.511   7.746
  129POPC   C1B 4675  19.039  35.017   8.867
  129POPC   C2B 4676  18.952  35.180   8.451
  129POPC   C3B 4677  19.159  35.129   8.055
  129POPC   C4B 4678  19.031  34.958   7.653
  130POPC   NC3 4679  13.317  10.783   9.393
  130POPC   PO4 4680  13.873  11.241   9.487
  130POPC   GL1 4681  13.564  11.319   9.166
  130POPC   GL2 4682  13.203  11.422   9.264
  130POPC   C1A 4683  13.671  11.177   8.767
  130POPC   D2A 4684  13.668  11.310   8.365
  130POPC   C3A 4685  13.595  11.038   8.031
  130POPC   C4A 4686  13.560  11.268   7.672
  130POPC   C1B 4687  13.147  11.155   8.884
  130POPC   C2B 4688  13.266  11.030   8.475
  130POPC   C3B 4689  13.209  11.374   8.166
  130POPC   C4B 4690  13.058  11.386   7.777
  131POPC   NC3 4691  10.871  34.513   9.277
  131POPC   PO4 4692  10.511  34.841   9.700
  131POPC   GL1 4693  10.398  34.709   9.207
  131POPC   GL2 4694  10.379  34.369   9.072
  131POPC   C1A 4695  10.456  34.766   8.729
  131POPC   D2A 4696  10.542  34.759   8.267
  131POPC   C3A 4697  10.460  34.475   7.930
  131POPC   C4A 4698  10.460  34.415   7.506
  131POPC   C1B 4699  10.689  34.300   8.683
  131POPC   C2B 4700  10.849  34.307   8.239
  131POPC   C3B 4701  10.953  34.133   7.804
  131POPC   C4B 4702  10.879  34.192   7.324
  132POPC   NC3 4703  10.326   8.821   9.567
  132POPC   PO4 4704  10.938   8.698   9.390
  132POPC   GL1 4705  10.588   8.956   9.135
  132POPC   GL2 4706  10.213   9.104   9.179
  132POPC   C1A 4707  10.464   9.141   8.740
  132POPC   D2A 4708  10.400   9.318   8.302
  132POPC   C3A 4709  10.492   9.065   7.894
  132POPC   C4A 4710  10.849   9.121   7.526
  132POPC   C1B 4711  10.030   8.906   8.860
  132POPC   C2B 4712  10.225   8.796   8.454
  132POPC   C3B 4713  10.092   8.766   8.064
  132POPC   C4B 4714  10.262   8.686   7.657
  133POPC   NC3 4715  12.561  33.510   9.635
  133POPC   PO4 4716  12.673  32.885   9.461
  133POPC   GL1 4717  12.741  33.045   9.093
  133POPC   GL2 4718  12.942  32.800   8.930
  133POPC   C1A 4719  12.968  33.334   8.859
  133POPC   D2A 4720  12.955  33.361   8.429
  133POPC   C3A 4721  13.070  32.995   8.169
  133POPC   C4A 4722  13.081  32.875   7.736
  133POPC   C1B 4723  12.672  32.964   8.589
  133POPC   C2B 4724  12.557  33.130   8.196
  133POPC   C3B 4725  12.711  33.223   7.812
  133POPC   C4B 4726  12.544  33.305   7.375
  134POPC   NC3 4727   1.081  38.724   9.478
  134POPC   PO4 4728   1.293  38.086   9.670
  134POPC   GL1 4729   1.232  38.303   9.230
  134POPC   GL2 4730   0.965  38.488   9.063
  134POPC   C1A 4731   1.346  38.265   8.787
  134POPC   D2A 4732   1.473  38.118   8.380
  134POPC   C3A 4733   1.377  38.475   8.046
  134POPC   C4A 4734   1.366  38.416   7.591
  134POPC   C1B 4735   0.802  38.460   8.677
  134POPC   C2B 4736   0.996  38.275   8.340
  134POPC   C3B 4737   0.892  38.290   7.917
  134POPC   C4B 4738   0.957  38.677   7.735
  135POPC   NC3 4739  44.062  44.201   9.506
  135POPC   PO4 4740  43.516  43.786   9.597
  135POPC   GL1 4741  43.800  43.875   9.244
  135POPC   GL2 4742  44.118  43.742   9.277
  135POPC   C1A 4743  43.848  44.112   8.837
  135POPC   D2A 4744  43.700  44.196   8.424
  135POPC   C3A 4745  43.782  43.980   8.060
  135POPC   C4A 4746  43.643  43.891   7.650
  135POPC   C1B 4747  44.184  43.734   8.846
  135POPC   C2B 4748  44.042  43.742   8.423
  135POPC   C3B 4749  44.123  43.600   7.959
  135POPC   C4B 4750  44.086  43.404   7.547
  136POPC   NC3 4751  28.626  24.007   9.247
  136POPC   PO4 4752  28.499  24.528   9.653
  136POPC   GL1 4753  28.377  24.487   9.217
  136POPC   GL2 4754  28.635  24.418   8.951
  136POPC   C1A 4755  28.152  24.483   8.829
  136POPC   D2A 4756  28.372  24.340   8.468
  136POPC   C3A 4757  28.331  24.598   8.118
  136POPC   C4A 4758  28.328  24.685   7.720
  136POPC   C1B 4759  28.810  24.122   8.614
  136POPC   C2B 4760  28.603  23.946   8.253
  136POPC   C3B 4761  28.621  24.224   7.881
  136POPC   C4B 4762  28.558  24.320   7.439
  137POPC   NC3 4763  41.761  10.117   9.678
  137POPC   PO4 4764  41.955  10.769   9.583
  137POPC   GL1 4765  41.643  10.643   9.204
  137POPC   GL2 4766  41.521  10.290   9.249
  137POPC   C1A 4767  41.312  10.706   8.785
  137POPC   D2A 4768  41.050  10.661   8.392
  137POPC   C3A 4769  41.351  10.563   8.044
  137POPC   C4A 4770  41.771  10.720   7.829
  137POPC   C1B 4771  41.618  10.308   8.828
  137POPC   C2B 4772  41.705  10.442   8.438
  137POPC   C3B 4773  41.583  10.129   8.148
  137POPC   C4B 4774  41.634  10.254   7.724
  138POPC   NC3 4775  39.232   0.657   9.422
  138POPC   PO4 4776  39.643   0.113   9.563
  138POPC   GL1 4777  39.549   0.297   9.202
  138POPC   GL2 4778  39.712   0.639   9.203
  138POPC   C1A 4779  39.450   0.344   8.789
  138POPC   D2A 4780  39.139   0.559   8.532
  138POPC   C3A 4781  39.049   0.344   8.151
  138POPC   C4A 4782  38.971   0.513   7.727
  138POPC   C1B 4783  39.639   0.826   8.782
  138POPC   C2B 4784  39.632   0.596   8.380
  138POPC   C3B 4785  39.404   0.688   8.013
  138POPC   C4B 4786  39.482   0.506   7.645
  139POPC   NC3 4787  37.290  40.002   9.721
  139POPC   PO4 4788  36.772  39.848   9.558
  139POPC   GL1 4789  37.085  39.901   9.186
  139POPC   GL2 4790  37.199  40.222   9.191
  139POPC   C1A 4791  37.111  39.939   8.689
  139POPC   D2A 4792  36.800  39.836   8.354
  139POPC   C3A 4793  36.925  39.768   7.916
  139POPC   C4A 4794  36.771  39.949   7.525
  139POPC   C1B 4795  36.968  40.415   8.812
  139POPC   C2B 4796  36.959  40.336   8.340
  139POPC   C3B 4797  36.952  40.276   7.879
  139POPC   C4B 4798  36.855  40.520   7.504
  140POPC   NC3 4799   1.038  35.761   9.536
  140POPC   PO4 4800   1.392  36.298   9.456
  140POPC   GL1 4801   1.274  36.102   9.133
  140POPC   GL2 4802   1.408  35.787   9.177
  140POPC   C1A 4803   1.162  36.238   8.728
  140POPC   D2A 4804   1.396  36.471   8.426
  140POPC   C3A 4805   1.314  36.360   8.009
  140POPC   C4A 4806   1.018  36.325   7.695
  140POPC   C1B 4807   1.054  35.731   8.877
  140POPC   C2B 4808   1.068  35.772   8.451
  140POPC   C3B 4809   1.079  35.897   8.028
  140POPC   C4B 4810   1.119  35.831   7.621
  141POPC   NC3 4811  13.243  30.765   9.435
  141POPC   PO4 4812  12.599  30.590   9.439
  141POPC   GL1 4813  12.653  30.843   9.082
  141POPC   GL2 4814  12.969  31.083   9.124
  141POPC   C1A 4815  12.582  30.697   8.637
  141POPC   D2A 4816  12.576  30.923   8.241
  141POPC   C3A 4817  12.722  30.651   7.913
  141POPC   C4A 4818  12.520  30.395   7.599
  141POPC   C1B 4819  13.070  30.794   8.780
  141POPC   C2B 4820  13.098  30.494   8.454
  141POPC   C3B 4821  13.212  30.534   8.053
  141POPC   C4B 4822  13.257  30.820   7.746
  142POPC   NC3 4823  40.515  43.667   9.507
  142POPC   PO4 4824  41.006  43.126   9.480
  142POPC   GL1 4825  40.730  43.267   9.175
  142POPC   GL2 4826  40.843  42.991   8.995
  142POPC   C1A 4827  40.739  43.401   8.727
  142POPC   D2A 4828  40.713  43.196   8.293
  142POPC   C3A 4829  40.854  43.405   7.901
  142POPC   C4A 4830  40.915  43.393   7.452
  142POPC   C1B 4831  40.492  42.948   8.709
  142POPC   C2B 4832  40.325  42.820   8.346
  142POPC   C3B 4833  40.584  42.725   8.031
  142POPC   C4B 4834  40.557  43.031   7.731
  143POPC   NC3 4835   1.054  28.913   9.680
  143POPC   PO4 4836   1.195  29.475   9.457
  143POPC   GL1 4837   1.220  29.103   9.147
  143POPC   GL2 4838   1.569  29.026   8.976
  143POPC   C1A 4839   0.983  28.922   8.781
  143POPC   D2A 4840   0.781  29.212   8.464
  143POPC   C3A 4841   0.980  29.220   8.038
  143POPC   C4A 4842   1.203  28.864   7.853
  143POPC   C1B 4843   1.335  29.260   8.647
  143POPC   C2B 4844   1.449  29.077   8.261
  143POPC   C3B 4845   1.606  29.180   7.868
  143POPC   C4B 4846   1.293  29.284   7.580
  144POPC   NC3 4847  34.252   0.894   9.558
  144POPC   PO4 4848  34.831   0.528   9.432
  144POPC   GL1 4849  34.567   0.494   9.090
  144POPC   GL2 4850  34.470   0.813   9.109
  144POPC   C1A 4851  34.730   0.527   8.665
  144POPC   D2A 4852  34.909   0.339   8.305
  144POPC   C3A 4853  34.746   0.599   7.991
  144POPC   C4A 4854  34.608   0.396   7.631
  144POPC   C1B 4855  34.307   0.803   8.727
  144POPC   C2B 4856  34.309   0.637   8.319
  144POPC   C3B 4857  34.236   0.641   7.885
  144POPC   C4B 4858  34.160   0.525   7.454
  145POPC   NC3 4859  23.312  21.589   9.787
  145POPC   PO4 4860  22.889  21.096   9.579
  145POPC   GL1 4861  22.790  21.214   9.154
  145POPC   GL2 4862  22.984  21.498   9.111
  145POPC   C1A 4863  22.782  21.251   8.722
  145POPC   D2A 4864  23.068  21.124   8.431
  145POPC   C3A 4865  22.819  21.081   8.070
  145POPC   C4A 4866  22.775  21.322   7.703
  145POPC   C1B 4867  23.252  21.467   8.778
  145POPC   C2B 4868  23.379  21.604   8.385
  145POPC   C3B 4869  23.212  21.441   7.979
  145POPC   C4B 4870  23.219  21.525   7.506
  146POPC   NC3 4871   3.750  16.179   9.448
  146POPC   PO4 4872   3.252  15.778   9.662
  146POPC   GL1 4873   3.463  15.798   9.250
  146POPC   GL2 4874   3.302  16.107   9.185
  146POPC   C1A 4875   3.637  15.952   8.815
  146POPC   D2A 4876   3.420  15.930   8.400
  146POPC   C3A 4877   3.519  16.060   7.962
  146POPC   C4A 4878   3.843  16.072   7.626
  146POPC   C1B 4879   3.115  15.838   8.845
  146POPC   C2B 4880   3.044  15.588   8.436
  146POPC   C3B 4881   3.246  15.597   8.028
  146POPC   C4B 4882   3.488  15.654   7.646
  147POPC   NC3 4883  10.509  32.039   9.687
  147POPC   PO4 4884  10.645  32.657   9.556
  147POPC   GL1 4885  10.551  32.361   9.241
  147POPC   GL2 4886  10.759  32.110   9.185
  147POPC   C1A 4887  10.550  32.433   8.802
  147POPC   D2A 4888  10.550  32.651   8.411
  147POPC   C3A 4889  10.524  32.357   8.072
  147POPC   C4A 4890  10.222  32.211   7.787
  147POPC   C1B 4891  10.680  31.929   8.741
  147POPC   C2B 4892  10.559  31.889   8.283
  147POPC   C3B 4893  10.638  31.903   7.811
  147POPC   C4B 4894  10.968  31.991   7.480
  148POPC   NC3 4895   9.450  24.207   9.445
  148POPC   PO4 4896  10.073  24.565   9.445
  148POPC   GL1 4897   9.701  24.602   9.156
  148POPC   GL2 4898   9.476  24.913   9.122
  148POPC   C1A 4899   9.805  24.607   8.724
  148POPC   D2A 4900   9.989  24.305   8.416
  148POPC   C3A 4901   9.869  24.402   7.993
  148POPC   C4A 4902   9.567  24.223   7.726
  148POPC   C1B 4903   9.320  24.828   8.710
  148POPC   C2B 4904   9.473  24.575   8.338
  148POPC   C3B 4905   9.342  24.648   7.947
  148POPC   C4B 4906   9.435  25.022   7.744
  149POPC   NC3 4907  29.493   5.853   9.403
  149POPC   PO4 4908  28.819   5.589   9.520
  149POPC   GL1 4909  29.029   5.677   9.115
  149POPC   GL2 4910  29.276   5.454   8.960
  149POPC   C1A 4911  28.896   5.614   8.671
  149POPC   D2A 4912  29.160   5.516   8.314
  149POPC   C3A 4913  29.079   5.791   7.957
  149POPC   C4A 4914  29.052   5.753   7.514
  149POPC   C1B 4915  29.358   5.838   8.715
  149POPC   C2B 4916  29.452   5.959   8.281
  149POPC   C3B 4917  29.576   5.819   7.859
  149POPC   C4B 4918  29.745   6.041   7.521
  150POPC   NC3 4919  18.515  34.775   9.561
  150POPC   PO4 4920  17.910  34.539   9.349
  150POPC   GL1 4921  18.204  34.667   9.053
  150POPC   GL2 4922  18.573  34.697   9.077
  150POPC   C1A 4923  18.281  34.708   8.635
  150POPC   D2A 4924  18.170  34.573   8.252
  150POPC   C3A 4925  17.959  34.285   8.051
  150POPC   C4A 4926  18.059  34.540   7.670
  150POPC   C1B 4927  18.629  34.353   8.792
  150POPC   C2B 4928  18.655  34.424   8.338
  150POPC   C3B 4929  18.531  34.398   7.898
  150POPC   C4B 4930  18.721  34.055   7.644
  151POPC   NC3 4931   2.363  39.481   9.521
  151POPC   PO4 4932   1.965  38.940   9.738
  151POPC   GL1 4933   2.081  38.953   9.236
  151POPC   GL2 4934   2.161  39.266   9.126
  151POPC   C1A 4935   2.135  38.860   8.803
  151POPC   D2A 4936   1.887  38.883   8.439
  151POPC   C3A 4937   2.061  38.901   8.028
  151POPC   C4A 4938   2.112  39.171   7.700
  151POPC   C1B 4939   1.961  39.337   8.754
  151POPC   C2B 4940   2.166  39.314   8.353
  151POPC   C3B 4941   2.197  39.609   7.977
  151POPC   C4B 4942   2.229  39.647   7.501
  152POPC   NC3 4943  15.069  12.603   9.589
  152POPC   PO4 4944  15.340  11.937   9.494
  152POPC   GL1 4945  15.404  12.116   9.115
  152POPC   GL2 4946  15.069  12.065   9.047
  152POPC   C1A 4947  15.472  12.030   8.700
  152POPC   D2A 4948  15.136  12.073   8.422
  152POPC   C3A 4949  15.233  12.143   8.030
  152POPC   C4A 4950  15.229  12.419   7.745
  152POPC   C1B 4951  15.096  11.700   8.775
  152POPC   C2B 4952  14.920  11.615   8.401
  152POPC   C3B 4953  14.847  11.823   8.028
  152POPC   C4B 4954  14.964  11.932   7.609
  153POPC   NC3 4955  11.608   2.694   9.518
  153POPC   PO4 4956  10.938   2.545   9.434
  153POPC   GL1 4957  11.250   2.692   9.148
  153POPC   GL2 4958  11.580   2.909   9.057
  153POPC   C1A 4959  11.377   2.510   8.800
  153POPC   D2A 4960  11.272   2.455   8.412
  153POPC   C3A 4961  11.471   2.706   8.080
  153POPC   C4A 4962  11.261   2.524   7.756
  153POPC   C1B 4963  11.256   2.996   8.741
  153POPC   C2B 4964  11.089   2.937   8.341
  153POPC   C3B 4965  11.013   2.939   7.896
  153POPC   C4B 4966  11.004   3.150   7.464
  154POPC   NC3 4967  37.318  35.949   9.439
  154POPC   PO4 4968  37.940  36.293   9.478
  154POPC   GL1 4969  37.917  36.111   9.107
  154POPC   GL2 4970  37.914  35.780   9.110
  154POPC   C1A 4971  37.861  36.236   8.690
  154POPC   D2A 4972  37.839  36.059   8.284
  154POPC   C3A 4973  37.619  36.312   7.921
  154POPC   C4A 4974  37.254  36.473   7.680
  154POPC   C1B 4975  37.686  35.736   8.736
  154POPC   C2B 4976  37.527  35.619   8.332
  154POPC   C3B 4977  37.613  35.787   7.926
  154POPC   C4B 4978  37.875  35.992   7.598
  155POPC   NC3 4979  19.159  44.218   9.565
  155POPC   PO4 4980  18.732  43.730   9.568
  155POPC   GL1 4981  18.909  43.648   9.172
  155POPC   GL2 4982  19.301  43.678   9.193
  155POPC   C1A 4983  18.850  43.792   8.761
  155POPC   D2A 4984  19.181  43.764   8.461
  155POPC   C3A 4985  19.024  43.782   8.074
  155POPC   C4A 4986  18.791  43.690   7.704
  155POPC   C1B 4987  19.247  44.065   8.923
  155POPC   C2B 4988  19.244  44.258   8.511
  155POPC   C3B 4989  19.246  44.283   8.069
  155POPC   C4B 4990  19.015  44.139   7.721
  156POPC   NC3 4991  24.017  15.703   9.366
  156POPC   PO4 4992  23.650  16.290   9.272
  156POPC   GL1 4993  23.823  16.011   8.980
  156POPC   GL2 4994  23.641  15.663   9.035
  156POPC   C1A 4995  23.833  16.214   8.555
  156POPC   D2A 4996  23.463  16.194   8.262
  156POPC   C3A 4997  23.559  16.163   7.808
  156POPC   C4A 4998  23.925  16.294   7.593
  156POPC   C1B 4999  23.589  15.771   8.580
  156POPC   C2B 5000  23.679  15.763   8.119
  156POPC   C3B 5001  23.471  15.545   7.778
  156POPC   C4B 5002  23.336  15.673   7.358
  157POPC   NC3 5003  21.486  26.661   9.458
  157POPC   PO4 5004  21.831  27.219   9.397
  157POPC   GL1 5005  21.564  27.052   9.093
  157POPC   GL2 5006  21.207  27.170   9.118
  157POPC   C1A 5007  21.631  26.874   8.682
  157POPC   D2A 5008  21.605  26.656   8.276
  157POPC   C3A 5009  21.462  26.910   7.911
  157POPC   C4A 5010  21.219  26.749   7.557
  157POPC   C1B 5011  21.036  27.282   8.680
  157POPC   C2B 5012  21.173  27.207   8.229
  157POPC   C3B 5013  21.003  27.145   7.802
  157POPC   C4B 5014  20.733  26.891   7.510
  158POPC   NC3 5015  28.307  24.921   9.497
  158POPC   PO4 5016  28.646  25.504   9.570
  158POPC   GL1 5017  28.441  25.523   9.179
  158POPC   GL2 5018  28.069  25.489   9.263
  158POPC   C1A 5019  28.567  25.494   8.721
  158POPC   D2A 5020  28.425  25.342   8.304
  158POPC   C3A 5021  28.642  25.040   7.990
  158POPC   C4A 5022  28.842  25.130   7.582
  158POPC   C1B 5023  28.115  25.217   8.856
  158POPC   C2B 5024  28.123  24.943   8.445
  158POPC   C3B 5025  28.132  25.091   7.979
  158POPC   C4B 5026  28.305  25.169   7.561
  159POPC   NC3 5027  10.286  44.353   9.630
  159POPC   PO4 5028  10.841  44.847   9.616
  159POPC   GL1 5029  10.624  44.634   9.331
  159POPC   GL2 5030  10.451  44.905   9.168
  159POPC   C1A 5031  10.665  44.383   8.969
  159POPC   D2A 5032  10.418  44.507   8.599
  159POPC   C3A 5033  10.457  44.373   8.150
  159POPC   C4A 5034  10.360  44.413   7.671
  159POPC   C1B 5035  10.209  44.966   8.785
  159POPC   C2B 5036  10.062  44.793   8.373
  159POPC   C3B 5037  10.128  44.784   7.927
  159POPC   C4B 5038  10.042   0.145   7.652
  160POPC   NC3 5039  40.416  38.983   9.528
  160POPC   PO4 5040  40.770  38.491   9.659
  160POPC   GL1 5041  40.645  38.399   9.205
  160POPC   GL2 5042  40.528  38.717   9.043
  160POPC   C1A 5043  40.797  38.369   8.724
  160POPC   D2A 5044  40.663  38.332   8.262
  160POPC   C3A 5045  40.981  38.270   7.916
  160POPC   C4A 5046  41.026  38.179   7.477
  160POPC   C1B 5047  40.532  38.802   8.569
  160POPC   C2B 5048  40.804  39.071   8.282
  160POPC   C3B 5049  41.053  38.966   7.956
  160POPC   C4B 5050  40.784  38.700   7.783
  161POPC   NC3 5051   0.834  28.082   9.545
  161POPC   PO4 5052   1.303  28.534   9.593
  161POPC   GL1 5053   1.293  28.298   9.193
  161POPC   GL2 5054   1.021  28.066   9.088
  161POPC   C1A 5055   1.213  28.434   8.759
  161POPC   D2A 5056   1.166  28.625   8.348
  161POPC   C3A 5057   1.317  28.383   7.962
  161POPC   C4A 5058   1.416  28.461   7.524
  161POPC   C1B 5059   0.927  28.002   8.691
  161POPC   C2B 5060   1.142  28.076   8.324
  161POPC   C3B 5061   0.916  28.050   7.919
  161POPC   C4B 5062   0.909  28.043   7.437
  162POPC   NC3 5063  44.390  25.479   9.893
  162POPC   PO4 5064  43.885  25.243   9.555
  162POPC   GL1 5065  43.722  25.292   9.152
  162POPC   GL2 5066  43.993  25.102   9.007
  162POPC   C1A 5067  43.742  25.434   8.706
  162POPC   D2A 5068  44.040  25.492   8.355
  162POPC   C3A 5069  43.845  25.422   7.940
  162POPC   C4A 5070  43.440  25.177   7.880
  162POPC   C1B 5071  44.218  25.040   8.593
  162POPC   C2B 5072  44.286  25.079   8.125
  162POPC   C3B 5073  44.013  24.943   7.775
  162POPC   C4B 5074  44.063  24.791   7.333
  163POPC   NC3 5075  29.595  33.367   9.733
  163POPC   PO4 5076  29.980  32.824   9.513
  163POPC   GL1 5077  29.967  33.061   9.139
  163POPC   GL2 5078  29.674  33.230   9.191
  163POPC   C1A 5079  29.955  33.203   8.736
  163POPC   D2A 5080  30.042  33.505   8.435
  163POPC   C3A 5081  29.994  33.253   8.079
  163POPC   C4A 5082  30.168  33.298   7.698
  163POPC   C1B 5083  29.602  32.849   8.858
  163POPC   C2B 5084  29.710  32.639   8.436
  163POPC   C3B 5085  29.760  32.775   7.992
  163POPC   C4B 5086  29.652  33.123   7.704
  164POPC   NC3 5087   8.774  13.272   9.387
  164POPC   PO4 5088   8.633  12.691   9.587
  164POPC   GL1 5089   8.737  12.806   9.148
  164POPC   GL2 5090   9.091  12.745   9.135
  164POPC   C1A 5091   8.905  13.074   8.780
  164POPC   D2A 5092   9.119  12.983   8.405
  164POPC   C3A 5093   8.881  12.895   8.033
  164POPC   C4A 5094   8.913  13.144   7.651
  164POPC   C1B 5095   8.941  12.559   8.740
  164POPC   C2B 5096   9.096  12.464   8.343
  164POPC   C3B 5097   9.303  12.573   7.977
  164POPC   C4B 5098   9.150  12.707   7.618
  165POPC   NC3 5099  41.667  17.093   9.444
  165POPC   PO4 5100  41.414  17.765   9.597
  165POPC   GL1 5101  41.642  17.604   9.250
  165POPC   GL2 5102  41.386  17.376   9.115
  165POPC   C1A 5103  41.797  17.582   8.815
  165POPC   D2A 5104  41.592  17.696   8.402
  165POPC   C3A 5105  41.725  17.652   7.964
  165POPC   C4A 5106  41.314  17.705   7.776
  165POPC   C1B 5107  41.235  17.368   8.682
  165POPC   C2B 5108  41.209  17.190   8.257
  165POPC   C3B 5109  41.280  17.201   7.797
  165POPC   C4B 5110  41.413  17.181   7.352
  166POPC   NC3 5111  34.775  33.789   9.430
  166POPC   PO4 5112  34.441  34.263   9.676
  166POPC   GL1 5113  34.396  34.073   9.196
  166POPC   GL2 5114  34.426  33.731   9.069
  166POPC   C1A 5115  34.661  34.018   8.741
  166POPC   D2A 5116  34.799  33.747   8.400
  166POPC   C3A 5117  34.647  33.831   7.988
  166POPC   C4A 5118  34.817  33.934   7.565
  166POPC   C1B 5119  34.298  33.458   8.721
  166POPC   C2B 5120  34.144  33.381   8.299
  166POPC   C3B 5121  34.203  33.576   7.920
  166POPC   C4B 5122  34.521  33.534   7.592
  167POPC   NC3 5123  25.491   8.017   9.511
  167POPC   PO4 5124  25.056   8.457   9.527
  167POPC   GL1 5125  25.073   8.130   9.192
  167POPC   GL2 5126  25.370   8.211   9.034
  167POPC   C1A 5127  24.946   8.168   8.730
  167POPC   D2A 5128  25.089   8.256   8.302
  167POPC   C3A 5129  24.983   8.121   7.923
  167POPC   C4A 5130  25.253   8.039   7.562
  167POPC   C1B 5131  25.447   8.070   8.610
  167POPC   C2B 5132  25.585   8.193   8.177
  167POPC   C3B 5133  25.707   8.161   7.749
  167POPC   C4B 5134  25.964   8.386   7.461
  168POPC   NC3 5135  37.796  41.411   9.423
  168POPC   PO4 5136  37.324  41.982   9.515
  168POPC   GL1 5137  37.441  41.747   9.169
  168POPC   GL2 5138  37.790  41.866   9.177
  168POPC   C1A 5139  37.541  41.444   8.798
  168POPC   D2A 5140  37.602  41.222   8.394
  168POPC   C3A 5141  37.618  41.488   7.995
  168POPC   C4A 5142  37.889  41.541   7.626
  168POPC   C1B 5143  37.711  41.927   8.775
  168POPC   C2B 5144  37.820  41.753   8.401
  168POPC   C3B 5145  37.977  41.875   8.005
  168POPC   C4B 5146  37.735  42.005   7.644
  169POPC   NC3 5147  30.293  28.522   9.388
  169POPC   PO4 5148  29.633  28.204   9.356
  169POPC   GL1 5149  29.929  28.300   9.067
  169POPC   GL2 5150  30.085  27.999   9.034
  169POPC   C1A 5151  29.933  28.396   8.636
  169POPC   D2A 5152  30.210  28.618   8.350
  169POPC   C3A 5153  29.902  28.630   8.058
  169POPC   C4A 5154  29.805  28.698   7.652
  169POPC   C1B 5155  30.264  28.020   8.600
  169POPC   C2B 5156  30.260  28.153   8.156
  169POPC   C3B 5157  29.947  28.184   7.798
  169POPC   C4B 5158  30.053  27.995   7.395
  170POPC   NC3 5159   9.884  14.756   9.438
  170POPC   PO4 5160   9.557  14.200   9.465
  170POPC   GL1 5161   9.750  14.379   9.132
  170POPC   GL2 5162  10.070  14.254   9.174
  170POPC   C1A 5163   9.631  14.530   8.755
  170POPC   D2A 5164   9.388  14.344   8.439
  170POPC   C3A 5165   9.663  14.371   8.082
  170POPC   C4A 5166   9.572  14.496   7.667
  170POPC   C1B 5167   9.854  14.030   8.786
  170POPC   C2B 5168   9.566  13.853   8.476
  170POPC   C3B 5169   9.452  13.868   8.063
  170POPC   C4B 5170   9.709  14.003   7.723
  171POPC   NC3 5171  32.011  20.323   9.450
  171POPC   PO4 5172  32.504  20.848   9.533
  171POPC   GL1 5173  32.349  20.628   9.205
  171POPC   GL2 5174  32.332  20.954   9.031
  171POPC   C1A 5175  32.160  20.388   8.834
  171POPC   D2A 5176  32.321  20.362   8.420
  171POPC   C3A 5177  32.150  20.523   8.034
  171POPC   C4A 5178  32.296  20.446   7.673
  171POPC   C1B 5179  32.090  20.864   8.660
  171POPC   C2B 5180  32.052  20.967   8.240
  171POPC   C3B 5181  32.407  20.995   7.944
  171POPC   C4B 5182  32.424  20.911   7.506
  172POPC   NC3 5183  32.632  10.642   9.488
  172POPC   PO4 5184  31.956  10.380   9.556
  172POPC   GL1 5185  32.069  10.559   9.203
  172POPC   GL2 5186  32.154  10.893   9.289
  172POPC   C1A 5187  32.030  10.392   8.796
  172POPC   D2A 5188  32.228  10.539   8.421
  172POPC   C3A 5189  32.107  10.393   8.004
  172POPC   C4A 5190  32.393  10.499   7.660
  172POPC   C1B 5191  32.228  10.871   8.828
  172POPC   C2B 5192  31.993  11.016   8.465
  172POPC   C3B 5193  32.079  10.908   8.058
  172POPC   C4B 5194  32.018  10.822   7.645
  173POPC   NC3 5195  21.499   6.277   9.505
  173POPC   PO4 5196  21.135   5.822   9.520
  173POPC   GL1 5197  21.330   5.950   9.148
  173POPC   GL2 5198  21.222   6.283   9.077
  173POPC   C1A 5199  21.495   5.931   8.748
  173POPC   D2A 5200  21.269   5.956   8.358
  173POPC   C3A 5201  21.532   5.804   8.019
  173POPC   C4A 5202  21.722   5.939   7.652
  173POPC   C1B 5203  20.970   6.199   8.730
  173POPC   C2B 5204  20.901   6.363   8.314
  173POPC   C3B 5205  21.079   6.244   7.953
  173POPC   C4B 5206  21.225   6.071   7.623
  174POPC   NC3 5207  26.179   2.439   9.482
  174POPC   PO4 5208  25.744   3.056   9.585
  174POPC   GL1 5209  25.952   2.907   9.137
  174POPC   GL2 5210  26.164   2.587   9.001
  174POPC   C1A 5211  25.850   2.762   8.661
  174POPC   D2A 5212  25.990   2.487   8.290
  174POPC   C3A 5213  25.906   2.728   7.893
  174POPC   C4A 5214  25.867   3.135   7.649
  174POPC   C1B 5215  26.309   2.976   8.753
  174POPC   C2B 5216  26.267   2.934   8.327
  174POPC   C3B 5217  26.402   2.695   8.026
  174POPC   C4B 5218  26.322   2.923   7.670
  175POPC   NC3 5219  14.041   2.042   9.406
  175POPC   PO4 5220  14.462   1.529   9.542
  175POPC   GL1 5221  14.394   1.736   9.172
  175POPC   GL2 5222  14.689   1.909   9.160
  175POPC   C1A 5223  14.150   1.677   8.796
  175POPC   D2A 5224  14.225   1.832   8.386
  175POPC   C3A 5225  14.282   1.628   7.988
  175POPC   C4A 5226  14.695   1.700   7.827
  175POPC   C1B 5227  14.647   1.916   8.721
  175POPC   C2B 5228  14.670   2.070   8.288
  175POPC   C3B 5229  14.418   2.119   7.904
  175POPC   C4B 5230  14.557   2.090   7.456
  176POPC   NC3 5231   8.801  35.568   9.459
  176POPC   PO4 5232   9.291  35.146   9.366
  176POPC   GL1 5233   9.088  35.382   9.044
  176POPC   GL2 5234   8.713  35.346   9.013
  176POPC   C1A 5235   9.177  35.265   8.618
  176POPC   D2A 5236   8.991  35.306   8.221
  176POPC   C3A 5237   9.174  35.056   7.917
  176POPC   C4A 5238   9.309  35.149   7.517
  176POPC   C1B 5239   8.773  35.557   8.625
  176POPC   C2B 5240   8.504  35.598   8.267
  176POPC   C3B 5241   8.741  35.615   7.912
  176POPC   C4B 5242   9.130  35.557   7.760
  177POPC   NC3 5243  31.353  21.112   9.365
  177POPC   PO4 5244  31.884  21.614   9.502
  177POPC   GL1 5245  31.734  21.409   9.179
  177POPC   GL2 5246  31.411  21.552   9.124
  177POPC   C1A 5247  31.719  21.210   8.790
  177POPC   D2A 5248  31.735  21.371   8.386
  177POPC   C3A 5249  31.609  21.156   8.009
  177POPC   C4A 5250  31.257  21.073   7.745
  177POPC   C1B 5251  31.209  21.368   8.765
  177POPC   C2B 5252  31.209  21.287   8.329
  177POPC   C3B 5253  31.258  21.562   7.985
  177POPC   C4B 5254  31.244  21.554   7.551
  178POPC   NC3 5255  14.374  31.878   9.524
  178POPC   PO4 5256  14.388  32.516   9.440
  178POPC   GL1 5257  14.545  32.347   9.088
  178POPC   GL2 5258  14.679  32.026   9.150
  178POPC   C1A 5259  14.408  32.433   8.671
  178POPC   D2A 5260  14.589  32.618   8.314
  178POPC   C3A 5261  14.410  32.430   7.984
  178POPC   C4A 5262  14.335  32.268   7.613
  178POPC   C1B 5263  14.732  32.019   8.723
  178POPC   C2B 5264  14.663  32.107   8.303
  178POPC   C3B 5265  14.750  32.069   7.858
  178POPC   C4B 5266  14.656  31.910   7.434
  179POPC   NC3 5267  19.748  32.469   9.425
  179POPC   PO4 5268  20.105  31.821   9.517
  179POPC   GL1 5269  19.900  31.994   9.168
  179POPC   GL2 5270  19.746  32.284   8.973
  179POPC   C1A 5271  19.824  31.844   8.767
  179POPC   D2A 5272  19.641  32.111   8.498
  179POPC   C3A 5273  19.768  32.020   8.102
  179POPC   C4A 5274  19.567  32.134   7.728
  179POPC   C1B 5275  19.659  32.617   8.717
  179POPC   C2B 5276  19.527  32.571   8.303
  179POPC   C3B 5277  19.801  32.534   7.952
  179POPC   C4B 5278  19.733  32.645   7.526
  180POPC   NC3 5279  13.681  35.551   9.707
  180POPC   PO4 5280  13.164  35.256   9.320
  180POPC   GL1 5281  13.561  35.192   9.161
  180POPC   GL2 5282  13.732  35.506   9.199
  180POPC   C1A 5283  13.536  35.154   8.719
  180POPC   D2A 5284  13.222  35.075   8.423
  180POPC   C3A 5285  13.415  35.169   8.054
  180POPC   C4A 5286  13.373  35.548   7.847
  180POPC   C1B 5287  13.967  35.391   8.854
  180POPC   C2B 5288  14.064  35.503   8.446
  180POPC   C3B 5289  13.850  35.490   8.070
  180POPC   C4B 5290  13.805  35.323   7.674
  181POPC   NC3 5291  30.676  15.413   9.339
  181POPC   PO4 5292  30.549  14.786   9.659
  181POPC   GL1 5293  30.713  14.911   9.241
  181POPC   GL2 5294  30.403  15.063   9.084
  181POPC   C1A 5295  30.778  14.975   8.765
  181POPC   D2A 5296  30.658  15.057   8.314
  181POPC   C3A 5297  30.929  14.913   7.964
  181POPC   C4A 5298  31.214  14.919   7.592
  181POPC   C1B 5299  30.457  15.383   8.704
  181POPC   C2B 5300  30.743  15.583   8.419
  181POPC   C3B 5301  30.889  15.446   8.046
  181POPC   C4B 5302  30.660  15.265   7.698
  182POPC   NC3 5303  10.336  33.618   9.333
  182POPC   PO4 5304  10.861  34.059   9.365
  182POPC   GL1 5305  10.607  33.909   9.037
  182POPC   GL2 5306  10.606  33.547   8.905
  182POPC   C1A 5307  10.300  33.959   8.727
  182POPC   D2A 5308  10.551  33.801   8.392
  182POPC   C3A 5309  10.509  33.951   7.982
  182POPC   C4A 5310  10.530  33.902   7.529
  182POPC   C1B 5311  10.230  33.463   8.625
  182POPC   C2B 5312  10.178  33.492   8.173
  182POPC   C3B 5313  10.411  33.478   7.788
  182POPC   C4B 5314  10.638  33.407   7.417
  183POPC   NC3 5315  40.271  13.088   9.352
  183POPC   PO4 5316  39.904  12.571   9.400
  183POPC   GL1 5317  39.860  12.828   9.023
  183POPC   GL2 5318  39.649  13.129   8.955
  183POPC   C1A 5319  40.158  12.901   8.732
  183POPC   D2A 5320  40.251  13.124   8.405
  183POPC   C3A 5321  40.181  12.862   8.061
  183POPC   C4A 5322  40.018  12.906   7.690
  183POPC   C1B 5323  39.725  13.104   8.525
  183POPC   C2B 5324  39.836  12.708   8.367
  183POPC   C3B 5325  39.724  12.590   7.979
  183POPC   C4B 5326  39.485  12.832   7.717
  184POPC   NC3 5327  30.774  32.578   9.526
  184POPC   PO4 5328  30.345  32.166   9.351
  184POPC   GL1 5329  30.726  32.143   9.128
  184POPC   GL2 5330  30.982  32.434   9.083
  184POPC   C1A 5331  30.644  32.070   8.705
  184POPC   D2A 5332  30.520  32.330   8.398
  184POPC   C3A 5333  30.605  32.113   8.059
  184POPC   C4A 5334  30.455  32.234   7.702
  184POPC   C1B 5335  31.138  32.151   8.784
  184POPC   C2B 5336  31.030  32.291   8.400
  184POPC   C3B 5337  31.015  32.427   7.996
  184POPC   C4B 5338  31.088  32.191   7.645
  185POPC   NC3 5339   5.286  33.844   9.659
  185POPC   PO4 5340   4.747  33.643   9.361
  185POPC   GL1 5341   5.041  33.932   9.178
  185POPC   GL2 5342   4.834  34.082   8.929
  185POPC   C1A 5343   5.321  33.936   8.828
  185POPC   D2A 5344   5.166  34.044   8.419
  185POPC   C3A 5345   5.385  33.856   8.071
  185POPC   C4A 5346   5.298  33.983   7.693
  185POPC   C1B 5347   4.839  33.720   8.697
  185POPC   C2B 5348   4.667  33.861   8.329
  185POPC   C3B 5349   4.876  33.864   7.958
  185POPC   C4B 5350   5.010  33.517   7.676
  186POPC   NC3 5351  13.211  21.872   9.448
  186POPC   PO4 5352  12.784  22.408   9.515
  186POPC   GL1 5353  12.832  22.113   9.183
  186POPC   GL2 5354  12.518  22.203   9.111
  186POPC   C1A 5355  12.907  22.021   8.733
  186POPC   D2A 5356  12.767  22.199   8.320
  186POPC   C3A 5357  12.962  22.047   7.939
  186POPC   C4A 5358  13.058  22.310   7.579
  186POPC   C1B 5359  12.399  21.910   8.786
  186POPC   C2B 5360  12.521  21.763   8.386
  186POPC   C3B 5361  12.420  21.949   7.989
  186POPC   C4B 5362  12.534  22.272   7.690
  187POPC   NC3 5363  40.335  10.551   9.494
  187POPC   PO4 5364  39.734  10.384   9.673
  187POPC   GL1 5365  39.915  10.463   9.247
  187POPC   GL2 5366  40.177  10.211   9.138
  187POPC   C1A 5367  40.074  10.643   8.833
  187POPC   D2A 5368  39.950  10.800   8.427
  187POPC   C3A 5369  40.099  10.588   8.066
  187POPC   C4A 5370  39.967  10.534   7.662
  187POPC   C1B 5371  39.816  10.202   8.834
  187POPC   C2B 5372  39.949  10.247   8.430
  187POPC   C3B 5373  39.824  10.152   8.038
  187POPC   C4B 5374  39.969  10.036   7.672
  188POPC   NC3 5375  14.428  29.452   9.492
  188POPC   PO4 5376  14.026  29.947   9.570
  188POPC   GL1 5377  14.391  29.921   9.254
  188POPC   GL2 5378  14.757  30.054   9.278
  188POPC   C1A 5379  14.408  30.054   8.824
  188POPC   D2A 5380  14.240  29.946   8.409
  188POPC   C3A 5381  14.309  30.236   8.072
  188POPC   C4A 5382  14.469  30.052   7.721
  188POPC   C1B 5383  14.874  29.847   8.880
  188POPC   C2B 5384  14.678  29.648   8.552
  188POPC   C3B 5385  14.663  29.795   8.146
  188POPC   C4B 5386  14.910  29.760   7.774
  189POPC   NC3 5387  15.759  34.480   9.441
  189POPC   PO4 5388  16.190  35.004   9.590
  189POPC   GL1 5389  16.132  34.733   9.186
  189POPC   GL2 5390  16.193  34.346   9.217
  189POPC   C1A 5391  15.989  34.760   8.721
  189POPC   D2A 5392  15.690  34.495   8.478
  189POPC   C3A 5393  15.742  34.613   8.034
  189POPC   C4A 5394  16.067  34.832   7.790
  189POPC   C1B 5395  16.051  34.239   8.807
  189POPC   C2B 5396  16.162  34.274   8.382
  189POPC   C3B 5397  16.089  34.235   7.947
  189POPC   C4B 5398  15.840  34.393   7.584
  190POPC   NC3 5399  29.034  17.285   9.467
  190POPC   PO4 5400  29.150  16.714   9.534
  190POPC   GL1 5401  29.263  16.601   9.146
  190POPC   GL2 5402  29.606  16.506   9.139
  190POPC   C1A 5403  29.122  16.640   8.753
  190POPC   D2A 5404  29.049  16.494   8.349
  190POPC   C3A 5405  28.868  16.761   8.052
  190POPC   C4A 5406  28.862  16.976   7.661
  190POPC   C1B 5407  29.606  16.707   8.747
  190POPC   C2B 5408  29.551  16.508   8.391
  190POPC   C3B 5409  29.388  16.616   7.996
  190POPC   C4B 5410  29.272  16.700   7.611
  191POPC   NC3 5411  12.632   3.283   9.687
  191POPC   PO4 5412  13.128   3.687   9.508
  191POPC   GL1 5413  12.904   3.441   9.232
  191POPC   GL2 5414  12.623   3.677   9.240
  191POPC   C1A 5415  12.882   3.560   8.794
  191POPC   D2A 5416  13.105   3.588   8.413
  191POPC   C3A 5417  12.893   3.606   8.027
  191POPC   C4A 5418  13.095   3.554   7.648
  191POPC   C1B 5419  12.483   3.908   8.837
  191POPC   C2B 5420  12.627   3.852   8.430
  191POPC   C3B 5421  12.643   4.045   8.019
  191POPC   C4B 5422  12.689   3.872   7.595
  192POPC   NC3 5423  16.381  40.595   9.558
  192POPC   PO4 5424  17.014  40.848   9.466
  192POPC   GL1 5425  16.875  40.789   9.070
  192POPC   GL2 5426  16.532  40.842   9.122
  192POPC   C1A 5427  16.884  41.004   8.661
  192POPC   D2A 5428  16.764  41.248   8.280
  192POPC   C3A 5429  16.782  40.966   7.934
  192POPC   C4A 5430  16.990  40.706   7.687
  192POPC   C1B 5431  16.414  40.705   8.761
  192POPC   C2B 5432  16.531  40.766   8.340
  192POPC   C3B 5433  16.454  40.554   7.950
  192POPC   C4B 5434  16.502  40.631   7.509
  193POPC   NC3 5435  37.598   4.329   9.624
  193POPC   PO4 5436  38.269   4.368   9.548
  193POPC   GL1 5437  37.888   4.293   9.211
  193POPC   GL2 5438  37.495   4.162   9.164
  193POPC   C1A 5439  37.790   4.479   8.798
  193POPC   D2A 5440  37.555   4.678   8.424
  193POPC   C3A 5441  37.732   4.522   7.989
  193POPC   C4A 5442  37.781   4.130   7.684
  193POPC   C1B 5443  37.303   4.351   8.800
  193POPC   C2B 5444  37.397   4.210   8.369
  193POPC   C3B 5445  37.234   4.442   8.026
  193POPC   C4B 5446  37.363   4.418   7.620
  194POPC   NC3 5447   5.038  38.280   9.308
  194POPC   PO4 5448   4.902  38.819   9.699
  194POPC   GL1 5449   4.929  38.762   9.187
  194POPC   GL2 5450   5.284  38.634   9.051
  194POPC   C1A 5451   4.801  38.507   8.781
  194POPC   D2A 5452   4.664  38.228   8.438
  194POPC   C3A 5453   4.887  38.231   8.054
  194POPC   C4A 5454   5.010  38.433   7.695
  194POPC   C1B 5455   5.417  38.391   8.681
  194POPC   C2B 5456   5.354  38.386   8.225
  194POPC   C3B 5457   5.481  38.279   7.814
  194POPC   C4B 5458   5.509  38.538   7.421
  195POPC   NC3 5459  19.064  43.394   9.599
  195POPC   PO4 5460  18.554  43.090   9.338
  195POPC   GL1 5461  19.039  43.136   9.151
  195POPC   GL2 5462  19.283  42.812   9.112
  195POPC   C1A 5463  19.155  43.372   8.793
  195POPC   D2A 5464  18.842  43.399   8.429
  195POPC   C3A 5465  18.924  43.274   8.012
  195POPC   C4A 5466  19.226  43.419   7.687
  195POPC   C1B 5467  19.163  42.882   8.692
  195POPC   C2B 5468  19.296  43.137   8.340
  195POPC   C3B 5469  19.327  42.975   7.929
  195POPC   C4B 5470  19.331  42.757   7.555
  196POPC   NC3 5471  39.153  20.359   9.573
  196POPC   PO4 5472  38.947  21.015   9.368
  196POPC   GL1 5473  39.004  20.703   9.065
  196POPC   GL2 5474  39.020  20.362   9.093
  196POPC   C1A 5475  39.302  20.665   8.736
  196POPC   D2A 5476  39.303  20.950   8.402
  196POPC   C3A 5477  39.214  20.732   8.030
  196POPC   C4A 5478  39.499  20.649   7.719
  196POPC   C1B 5479  39.047  20.078   8.764
  196POPC   C2B 5480  38.957  20.030   8.310
  196POPC   C3B 5481  39.071  20.187   7.905
  196POPC   C4B 5482  38.973  20.456   7.594
  197POPC   NC3 5483  26.394  44.857   9.898
  197POPC   PO4 5484  26.223  44.266   9.540
  197POPC   GL1 5485  26.190  44.459   9.142
  197POPC   GL2 5486  26.139  44.817   9.244
  197POPC   C1A 5487  25.986  44.409   8.736
  197POPC   D2A 5488  26.007  44.598   8.356
  197POPC   C3A 5489  25.800  44.562   7.962
  197POPC   C4A 5490  26.068  44.462   7.640
  197POPC   C1B 5491  26.221  44.883   8.802
  197POPC   C2B 5492  26.218   0.052   8.355
  197POPC   C3B 5493  26.258  44.827   7.950
  197POPC   C4B 5494  26.382  44.826   7.487
  198POPC   NC3 5495  30.333  25.123   9.513
  198POPC   PO4 5496  30.947  25.395   9.618
  198POPC   GL1 5497  30.707  25.344   9.222
  198POPC   GL2 5498  30.377  25.514   9.157
  198POPC   C1A 5499  30.665  24.998   8.890
  198POPC   D2A 5500  30.626  24.722   8.510
  198POPC   C3A 5501  30.707  24.968   8.137
  198POPC   C4A 5502  30.654  25.217   7.762
  198POPC   C1B 5503  30.597  25.469   8.734
  198POPC   C2B 5504  30.730  25.446   8.303
  198POPC   C3B 5505  30.618  25.667   7.965
  198POPC   C4B 5506  30.324  25.626   7.647
  199POPC   NC3 5507   1.320  25.801   9.761
  199POPC   PO4 5508   1.068  26.102   9.238
  199POPC   GL1 5509   1.178  25.804   8.925
  199POPC   GL2 5510   1.485  25.762   9.100
  199POPC   C1A 5511   1.016  25.758   8.549
  199POPC   D2A 5512   0.845  26.089   8.326
  199POPC   C3A 5513   0.628  25.995   7.969
  199POPC   C4A 5514   0.810  25.829   7.637
  199POPC   C1B 5515   1.527  26.086   8.730
  199POPC   C2B 5516   1.392  26.147   8.304
  199POPC   C3B 5517   1.207  26.043   7.907
  199POPC   C4B 5518   1.278  26.251   7.531
  200POPC   NC3 5519  42.538  30.553   9.647
  200POPC   PO4 5520  43.201  30.578   9.551
  200POPC   GL1 5521  42.886  30.572   9.245
  200POPC   GL2 5522  42.786  30.865   9.055
  200POPC   C1A 5523  42.852  30.403   8.828
  200POPC   D2A 5524  42.964  30.608   8.445
  200POPC   C3A 5525  43.271  30.422   8.108
  200POPC   C4A 5526  43.332  30.296   7.655
  200POPC   C1B 5527  42.778  31.122   8.704
  200POPC   C2B 5528  43.019  31.153   8.358
  200POPC   C3B 5529  43.029  30.882   8.022
  200POPC   C4B 5530  43.343  30.800   7.728
  201POPC   NC3 5531   6.316   2.390   9.162
  201POPC   PO4 5532   5.798   2.703   9.493
  201POPC   GL1 5533   5.948   2.741   9.108
  201POPC   GL2 5534   5.633   2.795   8.952
  201POPC   C1A 5535   5.977   2.600   8.666
  201POPC   D2A 5536   5.695   2.651   8.339
  201POPC   C3A 5537   5.934   2.661   7.937
  201POPC   C4A 5538   6.167   2.435   7.596
  201POPC   C1B 5539   5.558   3.106   8.590
  201POPC   C2B 5540   5.634   3.098   8.117
  201POPC   C3B 5541   5.800   3.128   7.713
  201POPC   C4B 5542   5.612   3.083   7.296
  202POPC   NC3 5543  40.969  10.200   9.627
  202POPC   PO4 5544  40.689  10.725   9.710
  202POPC   GL1 5545  40.774  10.702   9.262
  202POPC   GL2 5546  41.065  10.514   9.174
  202POPC   C1A 5547  40.649  10.595   8.843
  202POPC   D2A 5548  40.413  10.490   8.468
  202POPC   C3A 5549  40.607  10.631   8.094
  202POPC   C4A 5550  40.944  10.770   7.812
  202POPC   C1B 5551  41.056  10.273   8.742
  202POPC   C2B 5552  40.829  10.206   8.344
  202POPC   C3B 5553  40.863  10.240   7.898
  202POPC   C4B 5554  40.863  10.032   7.487
  203POPC   NC3 5555  34.699  24.562   9.562
  203POPC   PO4 5556  34.187  24.142   9.513
  203POPC   GL1 5557  34.335  24.396   9.176
  203POPC   GL2 5558  34.697  24.305   9.107
  203POPC   C1A 5559  34.264  24.622   8.771
  203POPC   D2A 5560  34.440  24.537   8.353
  203POPC   C3A 5561  34.317  24.644   7.922
  203POPC   C4A 5562  34.292  24.417   7.522
  203POPC   C1B 5563  34.758  24.718   8.929
  203POPC   C2B 5564  34.737  24.914   8.548
  203POPC   C3B 5565  34.896  24.746   8.182
  203POPC   C4B 5566  34.807  24.703   7.759
  204POPC   NC3 5567  24.931  20.919   9.487
  204POPC   PO4 5568  25.547  20.534   9.609
  204POPC   GL1 5569  25.426  20.556   9.148
  204POPC   GL2 5570  25.503  20.236   9.115
  204POPC   C1A 5571  25.254  20.814   8.782
  204POPC   D2A 5572  25.549  20.857   8.431
  204POPC   C3A 5573  25.481  20.650   8.045
  204POPC   C4A 5574  25.105  20.643   7.787
  204POPC   C1B 5575  25.407  20.357   8.666
  204POPC   C2B 5576  25.322  20.195   8.280
  204POPC   C3B 5577  25.516  20.091   7.910
  204POPC   C4B 5578  25.536  20.405   7.594
  205POPC   NC3 5579  10.105  40.563   9.507
  205POPC   PO4 5580   9.524  40.859   9.394
  205POPC   GL1 5581   9.717  40.623   9.110
  205POPC   GL2 5582   9.973  40.863   9.096
  205POPC   C1A 5583   9.891  40.546   8.695
  205POPC   D2A 5584  10.080  40.595   8.328
  205POPC   C3A 5585   9.797  40.583   8.024
  205POPC   C4A 5586   9.488  40.594   7.766
  205POPC   C1B 5587   9.742  41.015   8.773
  205POPC   C2B 5588   9.917  41.118   8.395
  205POPC   C3B 5589  10.079  41.011   8.019
  205POPC   C4B 5590   9.844  40.902   7.608
  206POPC   NC3 5591  28.845  31.060   9.518
  206POPC   PO4 5592  29.492  30.825   9.757
  206POPC   GL1 5593  29.310  30.997   9.302
  206POPC   GL2 5594  29.120  30.703   9.232
  206POPC   C1A 5595  28.987  31.012   8.860
  206POPC   D2A 5596  28.835  30.823   8.423
  206POPC   C3A 5597  29.009  30.673   8.041
  206POPC   C4A 5598  29.114  30.853   7.652
  206POPC   C1B 5599  29.432  30.794   8.852
  206POPC   C2B 5600  29.448  30.799   8.416
  206POPC   C3B 5601  29.447  31.010   8.051
  206POPC   C4B 5602  29.620  30.938   7.659
  207POPC   NC3 5603  22.765  33.750   9.398
  207POPC   PO4 5604  23.281  33.534   9.317
  207POPC   GL1 5605  23.134  33.897   9.081
  207POPC   GL2 5606  22.892  34.196   9.181
  207POPC   C1A 5607  23.094  33.796   8.661
  207POPC   D2A 5608  23.220  33.970   8.300
  207POPC   C3A 5609  23.156  33.714   7.940
  207POPC   C4A 5610  23.018  33.857   7.538
  207POPC   C1B 5611  22.711  34.108   8.770
  207POPC   C2B 5612  22.695  33.948   8.351
  207POPC   C3B 5613  22.814  34.100   7.960
  207POPC   C4B 5614  22.575  34.089   7.589
  208POPC   NC3 5615  10.568  16.511   9.449
  208POPC   PO4 5616  10.338  16.990   9.766
  208POPC   GL1 5617  10.583  16.939   9.187
  208POPC   GL2 5618  10.781  16.625   9.020
  208POPC   C1A 5619  10.424  16.819   8.729
  208POPC   D2A 5620  10.407  16.582   8.356
  208POPC   C3A 5621  10.468  16.831   7.994
  208POPC   C4A 5622  10.669  16.782   7.575
  208POPC   C1B 5623  10.867  16.490   8.597
  208POPC   C2B 5624  10.836  16.459   8.125
  208POPC   C3B 5625  11.024  16.441   7.731
  208POPC   C4B 5626  10.806  16.314   7.359
  209POPC   NC3 5627   3.937  42.473   9.676
  209POPC   PO4 5628   4.595  42.280   9.715
  209POPC   GL1 5629   4.401  42.481   9.335
  209POPC   GL2 5630   4.470  42.169   9.160
  209POPC   C1A 5631   4.443  42.583   8.852
  209POPC   D2A 5632   4.399  42.355   8.418
  209POPC   C3A 5633   4.087  42.467   8.091
  209POPC   C4A 5634   4.303  42.478   7.680
  209POPC   C1B 5635   4.481  41.975   8.738
  209POPC   C2B 5636   4.631  41.910   8.292
  209POPC   C3B 5637   4.714  42.223   7.916
  209POPC   C4B 5638   4.705  42.184   7.447
  210POPC   NC3 5639   2.915  13.901   9.535
  210POPC   PO4 5640   2.362  13.792   9.201
  210POPC   GL1 5641   2.794  13.776   9.050
  210POPC   GL2 5642   2.963  13.432   9.110
  210POPC   C1A 5643   2.953  13.677   8.650
  210POPC   D2A 5644   2.686  13.514   8.376
  210POPC   C3A 5645   2.597  13.817   8.122
  210POPC   C4A 5646   2.466  13.856   7.743
  210POPC   C1B 5647   3.083  13.190   8.721
  210POPC   C2B 5648   3.105  13.265   8.265
  210POPC   C3B 5649   2.798  13.331   7.880
  210POPC   C4B 5650   2.940  13.223   7.410
  211POPC   NC3 5651  38.037  19.159   9.267
  211POPC   PO4 5652  37.425  19.330   9.559
  211POPC   GL1 5653  37.674  19.532   9.206
  211POPC   GL2 5654  37.795  19.876   9.265
  211POPC   C1A 5655  37.720  19.654   8.757
  211POPC   D2A 5656  37.504  19.728   8.347
  211POPC   C3A 5657  37.654  19.712   7.945
  211POPC   C4A 5658  37.896  19.716   7.559
  211POPC   C1B 5659  37.776  20.139   8.890
  211POPC   C2B 5660  37.487  20.210   8.579
  211POPC   C3B 5661  37.529  20.214   8.147
  211POPC   C4B 5662  37.714  20.175   7.757
  212POPC   NC3 5663   4.911  29.744   9.425
  212POPC   PO4 5664   5.563  29.866   9.306
  212POPC   GL1 5665   5.252  30.037   9.077
  212POPC   GL2 5666   4.868  30.061   9.044
  212POPC   C1A 5667   5.234  30.171   8.670
  212POPC   D2A 5668   4.933  30.095   8.324
  212POPC   C3A 5669   5.201  29.993   7.954
  212POPC   C4A 5670   5.371  30.023   7.499
  212POPC   C1B 5671   4.977  29.704   8.761
  212POPC   C2B 5672   4.795  29.561   8.371
  212POPC   C3B 5673   4.747  29.735   7.956
  212POPC   C4B 5674   4.524  29.640   7.595
  213POPC   NC3 5675  27.922  27.223   9.545
  213POPC   PO4 5676  27.405  26.801   9.445
  213POPC   GL1 5677  27.618  26.822   9.059
  213POPC   GL2 5678  27.977  26.874   9.152
  213POPC   C1A 5679  27.467  26.987   8.648
  213POPC   D2A 5680  27.497  27.035   8.194
  213POPC   C3A 5681  27.496  26.663   7.907
  213POPC   C4A 5682  27.333  26.594   7.469
  213POPC   C1B 5683  27.867  27.237   8.905
  213POPC   C2B 5684  27.865  27.298   8.495
  213POPC   C3B 5685  28.004  27.205   8.093
  213POPC   C4B 5686  27.751  27.085   7.752
  214POPC   NC3 5687  41.934  17.813   9.659
  214POPC   PO4 5688  42.217  17.195   9.524
  214POPC   GL1 5689  42.118  17.362   9.164
  214POPC   GL2 5690  42.148  17.713   9.195
  214POPC   C1A 5691  42.360  17.308   8.806
  214POPC   D2A 5692  42.592  17.531   8.475
  214POPC   C3A 5693  42.426  17.310   8.163
  214POPC   C4A 5694  42.299  17.321   7.774
  214POPC   C1B 5695  42.324  17.804   8.818
  214POPC   C2B 5696  42.118  17.724   8.425
  214POPC   C3B 5697  42.258  17.772   8.012
  214POPC   C4B 5698  42.068  17.837   7.588
  215POPC   NC3 5699  14.957  10.742   9.350
  215POPC   PO4 5700  14.454  10.278   9.562
  215POPC   GL1 5701  14.492  10.508   9.188
  215POPC   GL2 5702  14.327  10.810   9.150
  215POPC   C1A 5703  14.281  10.413   8.797
  215POPC   D2A 5704  14.304  10.639   8.419
  215POPC   C3A 5705  14.533  10.459   8.071
  215POPC   C4A 5706  14.259  10.247   7.783
  215POPC   C1B 5707  14.646  10.812   8.777
  215POPC   C2B 5708  14.652  11.006   8.357
  215POPC   C3B 5709  14.395  10.932   7.995
  215POPC   C4B 5710  14.491  10.709   7.624
  216POPC   NC3 5711   5.643  12.351   9.564
  216POPC   PO4 5712   6.090  11.878   9.798
  216POPC   GL1 5713   5.980  11.981   9.357
  216POPC   GL2 5714   6.087  12.309   9.280
  216POPC   C1A 5715   5.829  12.033   8.921
  216POPC   D2A 5716   5.819  11.766   8.541
  216POPC   C3A 5717   5.756  11.947   8.132
  216POPC   C4A 5718   5.677  11.945   7.701
  216POPC   C1B 5719   6.138  12.449   8.857
  216POPC   C2B 5720   5.973  12.285   8.475
  216POPC   C3B 5721   6.062  12.370   8.080
  216POPC   C4B 5722   6.050  12.457   7.650
  217POPC   NC3 5723  44.146   5.000   9.494
  217POPC   PO4 5724  43.710   5.537   9.479
  217POPC   GL1 5725  43.793   5.242   9.150
  217POPC   GL2 5726  43.864   4.884   9.078
  217POPC   C1A 5727  43.918   5.262   8.717
  217POPC   D2A 5728  43.841   5.492   8.321
  217POPC   C3A 5729  43.802   5.348   7.896
  217POPC   C4A 5730  43.799   5.374   7.423
  217POPC   C1B 5731  44.157   4.834   8.724
  217POPC   C2B 5732  44.026   4.780   8.330
  217POPC   C3B 5733  44.120   4.945   7.981
  217POPC   C4B 5734  44.178   5.116   7.617
  218POPC   NC3 5735   1.669  34.248   9.503
  218POPC   PO4 5736   2.273  33.919   9.581
  218POPC   GL1 5737   1.979  33.932   9.225
  218POPC   GL2 5738   1.796  33.643   9.111
  218POPC   C1A 5739   2.142  33.892   8.819
  218POPC   D2A 5740   2.241  34.095   8.462
  218POPC   C3A 5741   2.166  33.909   8.093
  218POPC   C4A 5742   1.981  33.927   7.743
  218POPC   C1B 5743   1.645  33.809   8.772
  218POPC   C2B 5744   1.809  33.804   8.415
  218POPC   C3B 5745   1.779  33.555   8.074
  218POPC   C4B 5746   1.577  33.629   7.728
  219POPC   NC3 5747  43.470  18.272   9.431
  219POPC   PO4 5748  43.966  18.638   9.560
  219POPC   GL1 5749  44.036  18.369   9.198
  219POPC   GL2 5750  43.766  18.187   9.030
  219POPC   C1A 5751  44.190  18.508   8.813
  219POPC   D2A 5752  44.114  18.565   8.394
  219POPC   C3A 5753  43.835  18.328   8.158
  219POPC   C4A 5754  43.907  18.170   7.769
  219POPC   C1B 5755  43.966  17.911   8.744
  219POPC   C2B 5756  43.999  17.853   8.309
  219POPC   C3B 5757  44.313  17.998   8.014
  219POPC   C4B 5758  44.367  17.807   7.616
  220POPC   NC3 5759  21.518  18.826   9.470
  220POPC   PO4 5760  20.960  19.109   9.439
  220POPC   GL1 5761  21.169  19.278   9.097
  220POPC   GL2 5762  21.308  18.952   9.019
  220POPC   C1A 5763  21.319  19.291   8.642
  220POPC   D2A 5764  21.302  18.881   8.415
  220POPC   C3A 5765  21.241  18.904   7.981
  220POPC   C4A 5766  21.189  19.016   7.553
  220POPC   C1B 5767  21.744  19.112   8.872
  220POPC   C2B 5768  21.745  19.117   8.437
  220POPC   C3B 5769  21.746  18.838   8.106
  220POPC   C4B 5770  21.648  19.134   7.775
  221POPC   NC3 5771   5.163  31.616   9.572
  221POPC   PO4 5772   4.774  31.165   9.621
  221POPC   GL1 5773   4.971  31.393   9.181
  221POPC   GL2 5774   5.369  31.386   9.156
  221POPC   C1A 5775   5.059  31.371   8.732
  221POPC   D2A 5776   5.263  31.527   8.382
  221POPC   C3A 5777   5.075  31.467   8.032
  221POPC   C4A 5778   4.841  31.698   7.773
  221POPC   C1B 5779   5.566  31.327   8.738
  221POPC   C2B 5780   5.771  31.415   8.337
  221POPC   C3B 5781   5.599  31.362   7.922
  221POPC   C4B 5782   5.412  31.542   7.521
  222POPC   NC3 5783   6.967  24.173   9.332
  222POPC   PO4 5784   6.486  24.579   9.422
  222POPC   GL1 5785   6.554  24.475   9.047
  222POPC   GL2 5786   6.888  24.578   8.966
  222POPC   C1A 5787   6.490  24.625   8.641
  222POPC   D2A 5788   6.828  24.577   8.335
  222POPC   C3A 5789   6.721  24.449   7.928
  222POPC   C4A 5790   6.491  24.673   7.621
  222POPC   C1B 5791   6.787  24.200   8.694
  222POPC   C2B 5792   6.879  24.034   8.298
  222POPC   C3B 5793   6.758  23.918   7.897
  222POPC   C4B 5794   6.842  23.970   7.464
  223POPC   NC3 5795  29.921  12.394   9.314
  223POPC   PO4 5796  30.339  12.101   9.716
  223POPC   GL1 5797  30.313  12.125   9.177
  223POPC   GL2 5798  29.988  12.057   8.927
  223POPC   C1A 5799  30.356  12.306   8.719
  223POPC   D2A 5800  30.089  12.098   8.393
  223POPC   C3A 5801  29.986  12.216   7.959
  223POPC   C4A 5802  30.145  12.044   7.588
  223POPC   C1B 5803  29.573  12.181   8.745
  223POPC   C2B 5804  29.323  12.151   8.387
  223POPC   C3B 5805  29.397  11.802   8.095
  223POPC   C4B 5806  29.706  11.799   7.757
  224POPC   NC3 5807  19.061   9.647   9.716
  224POPC   PO4 5808  18.544   9.854   9.353
  224POPC   GL1 5809  18.876   9.640   9.186
  224POPC   GL2 5810  19.031   9.898   9.060
  224POPC   C1A 5811  18.915   9.453   8.756
  224POPC   D2A 5812  19.246   9.481   8.411
  224POPC   C3A 5813  19.107   9.535   7.975
  224POPC   C4A 5814  18.901   9.580   7.574
  224POPC   C1B 5815  19.180   9.987   8.649
  224POPC   C2B 5816  19.218  10.000   8.201
  224POPC   C3B 5817  19.048  10.161   7.800
  224POPC   C4B 5818  18.745  10.079   7.463
  225POPC   NC3 5819  27.856  31.807   9.426
  225POPC   PO4 5820  28.522  31.498   9.531
  225POPC   GL1 5821  28.321  31.656   9.174
  225POPC   GL2 5822  28.012  31.486   9.060
  225POPC   C1A 5823  28.302  31.830   8.760
  225POPC   D2A 5824  28.128  31.817   8.348
  225POPC   C3A 5825  28.413  31.762   8.003
  225POPC   C4A 5826  28.353  31.659   7.579
  225POPC   C1B 5827  28.132  31.262   8.705
  225POPC   C2B 5828  28.395  31.198   8.323
  225POPC   C3B 5829  28.266  31.282   7.910
  225POPC   C4B 5830  27.966  31.218   7.534
  226POPC   NC3 5831  25.808  10.349   9.432
  226POPC   PO4 5832  26.428  10.233   9.735
  226POPC   GL1 5833  26.264  10.415   9.240
  226POPC   GL2 5834  26.133  10.766   9.110
  226POPC   C1A 5835  26.049  10.391   8.786
  226POPC   D2A 5836  26.155  10.396   8.315
  226POPC   C3A 5837  25.948  10.479   7.893
  226POPC   C4A 5838  25.563  10.421   7.672
  226POPC   C1B 5839  26.037  10.870   8.625
  226POPC   C2B 5840  25.964  10.924   8.142
  226POPC   C3B 5841  26.227  10.883   7.781
  226POPC   C4B 5842  26.243  10.499   7.461
  227POPC   NC3 5843  14.124  41.000   9.507
  227POPC   PO4 5844  14.379  40.343   9.407
  227POPC   GL1 5845  14.429  40.746   9.176
  227POPC   GL2 5846  14.110  40.794   9.036
  227POPC   C1A 5847  14.593  40.983   8.832
  227POPC   D2A 5848  14.444  40.793   8.461
  227POPC   C3A 5849  14.544  40.917   8.047
  227POPC   C4A 5850  14.662  40.589   7.761
  227POPC   C1B 5851  14.068  40.469   8.716
  227POPC   C2B 5852  14.144  40.414   8.265
  227POPC   C3B 5853  14.137  40.664   7.897
  227POPC   C4B 5854  14.307  40.886   7.512
  228POPC   NC3 5855   8.520   6.955   9.490
  228POPC   PO4 5856   8.879   7.556   9.608
  228POPC   GL1 5857   8.925   7.536   9.158
  228POPC   GL2 5858   9.185   7.745   9.078
  228POPC   C1A 5859   9.048   7.339   8.733
  228POPC   D2A 5860   9.138   7.214   8.274
  228POPC   C3A 5861   9.069   7.234   7.779
  228POPC   C4A 5862   9.332   7.248   7.348
  228POPC   C1B 5863   8.857   7.892   8.810
  228POPC   C2B 5864   8.992   7.761   8.423
  228POPC   C3B 5865   8.979   7.737   8.004
  228POPC   C4B 5866   8.759   8.024   7.758
  229POPC   NC3 5867   6.594  16.240   9.533
  229POPC   PO4 5868   6.978  15.787   9.791
  229POPC   GL1 5869   6.985  15.966   9.331
  229POPC   GL2 5870   6.651  16.070   9.058
  229POPC   C1A 5871   7.136  16.055   8.913
  229POPC   D2A 5872   6.882  15.951   8.572
  229POPC   C3A 5873   6.938  16.128   8.179
  229POPC   C4A 5874   6.687  15.909   7.894
  229POPC   C1B 5875   6.569  16.380   8.648
  229POPC   C2B 5876   6.498  16.452   8.176
  229POPC   C3B 5877   6.322  16.259   7.768
  229POPC   C4B 5878   6.098  16.489   7.411
  230POPC   NC3 5879   2.876  19.236   9.516
  230POPC   PO4 5880   2.447  18.747   9.368
  230POPC   GL1 5881   2.846  18.975   9.094
  230POPC   GL2 5882   2.785  19.326   9.027
  230POPC   C1A 5883   3.115  19.137   8.690
  230POPC   D2A 5884   2.970  18.981   8.256
  230POPC   C3A 5885   2.966  19.244   7.847
  230POPC   C4A 5886   3.044  19.391   7.405
  230POPC   C1B 5887   2.611  19.090   8.655
  230POPC   C2B 5888   2.362  19.171   8.299
  230POPC   C3B 5889   2.454  19.093   7.877
  230POPC   C4B 5890   2.173  18.995   7.532
  231POPC   NC3 5891  36.596  31.337   9.683
  231POPC   PO4 5892  37.120  31.735   9.486
  231POPC   GL1 5893  36.954  31.562   9.114
  231POPC   GL2 5894  36.587  31.499   9.168
  231POPC   C1A 5895  36.999  31.503   8.666
  231POPC   D2A 5896  36.759  31.443   8.300
  231POPC   C3A 5897  37.035  31.419   7.957
  231POPC   C4A 5898  37.223  31.069   7.785
  231POPC   C1B 5899  36.630  31.193   8.814
  231POPC   C2B 5900  36.602  30.962   8.426
  231POPC   C3B 5901  36.572  31.127   7.968
  231POPC   C4B 5902  36.589  31.568   7.787
  232POPC   NC3 5903  14.166   1.185   9.611
  232POPC   PO4 5904  14.816   1.161   9.670
  232POPC   GL1 5905  14.661   1.226   9.193
  232POPC   GL2 5906  14.315   1.243   9.135
  232POPC   C1A 5907  14.569   1.414   8.752
  232POPC   D2A 5908  14.642   1.554   8.350
  232POPC   C3A 5909  14.597   1.218   8.048
  232POPC   C4A 5910  14.573   1.240   7.632
  232POPC   C1B 5911  14.104   1.145   8.760
  232POPC   C2B 5912  14.178   1.297   8.368
  232POPC   C3B 5913  14.096   1.063   7.982
  232POPC   C4B 5914  14.105   1.154   7.535
  233POPC   NC3 5915  31.934  44.719   9.502
  233POPC   PO4 5916  32.489  44.931   9.643
  233POPC   GL1 5917  32.409  44.876   9.207
  233POPC   GL2 5918  32.198  44.576   9.080
  233POPC   C1A 5919  32.253   0.002   8.796
  233POPC   D2A 5920  32.097  44.706   8.497
  233POPC   C3A 5921  32.195  44.724   8.039
  233POPC   C4A 5922  32.180  44.476   7.641
  233POPC   C1B 5923  32.544  44.540   8.797
  233POPC   C2B 5924  32.575  44.611   8.360
  233POPC   C3B 5925  32.570  44.387   7.981
  233POPC   C4B 5926  32.533  44.082   7.683
  234POPC   NC3 5927   3.020  16.351   9.590
  234POPC   PO4 5928   2.478  16.823   9.412
  234POPC   GL1 5929   2.921  16.829   9.210
  234POPC   GL2 5930   2.978  16.486   9.089
  234POPC   C1A 5931   3.080  16.877   8.761
  234POPC   D2A 5932   2.898  16.637   8.384
  234POPC   C3A 5933   2.735  16.821   7.987
  234POPC   C4A 5934   2.421  17.095   7.849
  234POPC   C1B 5935   3.276  16.367   8.745
  234POPC   C2B 5936   3.354  16.427   8.314
  234POPC   C3B 5937   3.072  16.335   7.997
  234POPC   C4B 5938   2.592  16.336   7.907
  235POPC   NC3 5939  16.050  17.638   9.407
  235POPC   PO4 5940  15.722  16.984   9.466
  235POPC   GL1 5941  15.920  17.213   9.144
  235POPC   GL2 5942  15.708  17.491   9.025
  235POPC   C1A 5943  16.157  17.391   8.783
  235POPC   D2A 5944  15.976  17.313   8.368
  235POPC   C3A 5945  16.080  17.438   7.956
  235POPC   C4A 5946  15.968  17.349   7.521
  235POPC   C1B 5947  15.802  17.747   8.675
  235POPC   C2B 5948  15.655  17.692   8.267
  235POPC   C3B 5949  15.639  17.751   7.862
  235POPC   C4B 5950  15.789  18.136   7.707
  236POPC   NC3 5951  31.257  11.661   9.462
  236POPC   PO4 5952  31.731  11.200   9.429
  236POPC   GL1 5953  31.431  11.088   9.138
  236POPC   GL2 5954  31.408  11.404   9.035
  236POPC   C1A 5955  31.212  11.006   8.736
  236POPC   D2A 5956  31.420  10.974   8.324
  236POPC   C3A 5957  31.171  10.884   7.945
  236POPC   C4A 5958  31.046  11.167   7.612
  236POPC   C1B 5959  31.626  11.339   8.663
  236POPC   C2B 5960  31.568  11.513   8.286
  236POPC   C3B 5961  31.323  11.369   7.993
  236POPC   C4B 5962  31.586  11.151   7.700
  237POPC   NC3 5963   4.074   0.676   9.370
  237POPC   PO4 5964   4.699   0.501   9.520
  237POPC   GL1 5965   4.533   0.475   9.106
  237POPC   GL2 5966   4.251   0.290   9.091
  237POPC   C1A 5967   4.522   0.258   8.670
  237POPC   D2A 5968   4.270   0.337   8.303
  237POPC   C3A 5969   4.457   0.584   8.009
  237POPC   C4A 5970   4.780   0.842   7.870
  237POPC   C1B 5971   4.006   0.467   8.731
  237POPC   C2B 5972   3.750   0.588   8.349
  237POPC   C3B 5973   3.904   0.596   7.946
  237POPC   C4B 5974   4.161   0.655   7.587
  238POPC   NC3 5975  41.523  21.171  10.007
  238POPC   PO4 5976  41.152  21.520   9.481
  238POPC   GL1 5977  41.324  21.323   9.070
  238POPC   GL2 5978  41.655  21.473   8.923
  238POPC   C1A 5979  41.247  21.360   8.627
  238POPC   D2A 5980  41.442  21.536   8.259
  238POPC   C3A 5981  41.355  21.351   7.812
  238POPC   C4A 5982  41.488  21.266   7.371
  238POPC   C1B 5983  41.721  21.148   8.623
  238POPC   C2B 5984  41.862  20.824   8.344
  238POPC   C3B 5985  41.812  20.788   7.894
  238POPC   C4B 5986  41.967  21.080   7.577
  239POPC   NC3 5987  37.782  14.085   9.564
  239POPC   PO4 5988  37.393  14.684   9.534
  239POPC   GL1 5989  37.610  14.477   9.228
  239POPC   GL2 5990  37.472  14.143   9.172
  239POPC   C1A 5991  37.758  14.650   8.848
  239POPC   D2A 5992  37.920  14.498   8.483
  239POPC   C3A 5993  37.856  14.757   8.164
  239POPC   C4A 5994  37.819  14.717   7.753
  239POPC   C1B 5995  37.715  14.100   8.830
  239POPC   C2B 5996  37.557  14.128   8.418
  239POPC   C3B 5997  37.747  14.251   8.064
  239POPC   C4B 5998  37.911  14.113   7.711
  240POPC   NC3 5999  36.699   4.768   9.614
  240POPC   PO4 6000  37.046   5.296   9.735
  240POPC   GL1 6001  36.957   5.124   9.288
  240POPC   GL2 6002  36.989   5.429   9.126
  240POPC   C1A 6003  36.853   4.937   8.824
  240POPC   D2A 6004  36.888   5.096   8.346
  240POPC   C3A 6005  36.924   4.845   7.926
  240POPC   C4A 6006  37.191   4.888   7.536
  240POPC   C1B 6007  36.699   5.424   8.772
  240POPC   C2B 6008  36.441   5.381   8.397
  240POPC   C3B 6009  36.506   5.429   7.969
  240POPC   C4B 6010  36.565   5.147   7.658
  241POPC   NC3 6011  41.349  35.672   9.383
  241POPC   PO4 6012  41.570  35.041   9.515
  241POPC   GL1 6013  41.605  35.183   9.087
  241POPC   GL2 6014  41.784  35.486   9.075
  241POPC   C1A 6015  41.380  35.343   8.710
  241POPC   D2A 6016  41.461  35.461   8.272
  241POPC   C3A 6017  41.312  35.271   7.865
  241POPC   C4A 6018  41.352  35.455   7.452
  241POPC   C1B 6019  41.938  35.348   8.695
  241POPC   C2B 6020  42.068  35.433   8.280
  241POPC   C3B 6021  41.825  35.210   7.996
  241POPC   C4B 6022  41.743  35.189   7.593
  242POPC   NC3 6023  43.842  26.462   9.507
  242POPC   PO4 6024  44.213  25.817   9.633
  242POPC   GL1 6025  44.017  25.747   9.203
  242POPC   GL2 6026  43.861  26.100   9.113
  242POPC   C1A 6027  44.065  25.818   8.758
  242POPC   D2A 6028  43.910  26.076   8.404
  242POPC   C3A 6029  43.762  25.951   8.001
  242POPC   C4A 6030  44.069  26.197   7.749
  242POPC   C1B 6031  43.662  26.418   8.806
  242POPC   C2B 6032  43.683  26.574   8.343
  242POPC   C3B 6033  43.633  26.416   7.888
  242POPC   C4B 6034  43.687  26.292   7.435
  243POPC   NC3 6035  19.184   2.588   9.751
  243POPC   PO4 6036  18.819   2.975   9.429
  243POPC   GL1 6037  18.990   2.794   9.067
  243POPC   GL2 6038  19.058   2.408   9.078
  243POPC   C1A 6039  18.975   3.011   8.669
  243POPC   D2A 6040  18.764   3.168   8.303
  243POPC   C3A 6041  18.951   3.005   7.944
  243POPC   C4A 6042  18.875   2.762   7.591
  243POPC   C1B 6043  19.005   2.493   8.661
  243POPC   C2B 6044  18.841   2.639   8.300
  243POPC   C3B 6045  19.011   2.456   7.970
  243POPC   C4B 6046  19.352   2.414   7.742
  244POPC   NC3 6047  18.150   0.843   9.719
  244POPC   PO4 6048  18.582   1.278   9.527
  244POPC   GL1 6049  18.396   1.099   9.137
  244POPC   GL2 6050  18.685   1.039   9.016
  244POPC   C1A 6051  18.093   1.040   8.745
  244POPC   D2A 6052  18.166   1.176   8.342
  244POPC   C3A 6053  18.142   1.043   7.962
  244POPC   C4A 6054  18.322   0.960   7.593
  244POPC   C1B 6055  18.589   1.063   8.600
  244POPC   C2B 6056  18.623   0.985   8.169
  244POPC   C3B 6057  18.593   1.293   7.870
  244POPC   C4B 6058  18.674   1.299   7.418
  245POPC   NC3 6059  11.817  38.600   9.346
  245POPC   PO4 6060  11.219  38.629   9.412
  245POPC   GL1 6061  11.377  38.449   9.070
  245POPC   GL2 6062  11.523  38.781   8.988
  245POPC   C1A 6063  11.153  38.239   8.713
  245POPC   D2A 6064  10.993  38.045   8.325
  245POPC   C3A 6065  11.022  38.313   7.944
  245POPC   C4A 6066  11.421  38.481   7.794
  245POPC   C1B 6067  11.129  38.759   8.745
  245POPC   C2B 6068  11.003  38.620   8.338
  245POPC   C3B 6069  11.081  38.839   7.936
  245POPC   C4B 6070  11.321  38.964   7.612
  246POPC   NC3 6071  40.621  42.818   9.449
  246POPC   PO4 6072  39.962  42.375   9.508
  246POPC   GL1 6073  40.108  42.516   9.169
  246POPC   GL2 6074  40.244  42.188   9.098
  246POPC   C1A 6075  40.163  42.549   8.742
  246POPC   D2A 6076  39.862  42.539   8.441
  246POPC   C3A 6077  39.992  42.547   8.013
  246POPC   C4A 6078  40.263  42.602   7.659
  246POPC   C1B 6079  39.869  42.157   8.863
  246POPC   C2B 6080  39.884  42.053   8.452
  246POPC   C3B 6081  39.964  41.988   8.043
  246POPC   C4B 6082  39.888  42.192   7.658
  247POPC   NC3 6083  38.758  35.070   9.556
  247POPC   PO4 6084  39.304  35.538   9.492
  247POPC   GL1 6085  39.459  35.566   9.085
  247POPC   GL2 6086  39.115  35.653   9.003
  247POPC   C1A 6087  39.579  35.359   8.684
  247POPC   D2A 6088  39.491  35.490   8.293
  247POPC   C3A 6089  39.290  35.305   7.971
  247POPC   C4A 6090  39.014  35.567   7.816
  247POPC   C1B 6091  39.116  35.245   8.821
  247POPC   C2B 6092  39.185  35.032   8.431
  247POPC   C3B 6093  38.906  34.980   8.090
  247POPC   C4B 6094  38.806  35.110   7.708
  248POPC   NC3 6095   5.969  13.817   9.678
  248POPC   PO4 6096   5.469  13.421   9.464
  248POPC   GL1 6097   5.820  13.322   9.181
  248POPC   GL2 6098   6.040  13.643   9.190
  248POPC   C1A 6099   5.887  13.419   8.723
  248POPC   D2A 6100   5.705  13.765   8.470
  248POPC   C3A 6101   5.490  13.631   8.105
  248POPC   C4A 6102   5.601  13.646   7.687
  248POPC   C1B 6103   6.094  13.878   8.810
  248POPC   C2B 6104   6.220  13.720   8.399
  248POPC   C3B 6105   6.036  13.680   7.980
  248POPC   C4B 6106   6.046  13.942   7.607
  249POPC   NC3 6107  38.177   9.121   9.450
  249POPC   PO4 6108  37.440   9.245   9.595
  249POPC   GL1 6109  37.650   9.087   9.236
  249POPC   GL2 6110  37.897   9.272   9.078
  249POPC   C1A 6111  37.590   8.981   8.804
  249POPC   D2A 6112  37.310   8.805   8.546
  249POPC   C3A 6113  37.320   8.899   8.129
  249POPC   C4A 6114  37.620   8.961   7.816
  249POPC   C1B 6115  37.971   9.306   8.648
  249POPC   C2B 6116  37.887   9.065   8.281
  249POPC   C3B 6117  38.082   9.125   7.886
  249POPC   C4B 6118  37.963   9.142   7.432
  250POPC   NC3 6119  28.319  41.988   9.351
  250POPC   PO4 6120  28.637  41.418   9.530
  250POPC   GL1 6121  28.646  41.593   9.124
  250POPC   GL2 6122  28.792  41.910   9.129
  250POPC   C1A 6123  28.335  41.505   8.789
  250POPC   D2A 6124  28.368  41.207   8.447
  250POPC   C3A 6125  28.557  41.406   8.105
  250POPC   C4A 6126  28.229  41.557   7.851
  250POPC   C1B 6127  28.587  41.974   8.746
  250POPC   C2B 6128  28.379  41.833   8.369
  250POPC   C3B 6129  28.535  41.933   7.975
  250POPC   C4B 6130  28.678  41.672   7.661
  251POPC   NC3 6131  26.334  14.001   9.448
  251POPC   PO4 6132  26.314  13.356   9.446
  251POPC   GL1 6133  26.132  13.417   9.065
  251POPC   GL2 6134  25.834  13.199   9.044
  251POPC   C1A 6135  26.290  13.557   8.671
  251POPC   D2A 6136  26.143  13.615   8.251
  251POPC   C3A 6137  26.374  13.802   7.914
  251POPC   C4A 6138  26.200  13.437   7.742
  251POPC   C1B 6139  25.775  13.401   8.670
  251POPC   C2B 6140  25.548  13.562   8.342
  251POPC   C3B 6141  25.703  13.509   7.931
  251POPC   C4B 6142  25.759  13.874   7.727
  252POPC   NC3 6143  19.558  31.685   9.406
  252POPC   PO4 6144  19.905  31.056   9.426
  252POPC   GL1 6145  19.636  31.197   9.130
  252POPC   GL2 6146  19.893  31.465   9.103
  252POPC   C1A 6147  19.540  31.377   8.738
  252POPC   D2A 6148  19.857  31.475   8.422
  252POPC   C3A 6149  19.731  31.447   8.010
  252POPC   C4A 6150  19.885  31.700   7.704
  252POPC   C1B 6151  20.219  31.434   8.825
  252POPC   C2B 6152  20.344  31.300   8.421
  252POPC   C3B 6153  20.292  31.162   8.018
  252POPC   C4B 6154  20.219  31.308   7.650
  253POPC   NC3 6155  25.527  27.314   9.293
  253POPC   PO4 6156  24.942  27.488   9.616
  253POPC   GL1 6157  25.130  27.663   9.268
  253POPC   GL2 6158  25.483  27.799   9.211
  253POPC   C1A 6159  25.088  27.636   8.868
  253POPC   D2A 6160  25.040  27.672   8.465
  253POPC   C3A 6161  25.270  27.479   8.149
  253POPC   C4A 6162  25.237  27.629   7.746
  253POPC   C1B 6163  25.514  27.874   8.752
  253POPC   C2B 6164  25.468  27.926   8.321
  253POPC   C3B 6165  25.491  28.051   7.916
  253POPC   C4B 6166  25.478  27.997   7.487
  254POPC   NC3 6167   7.491  14.117   9.557
  254POPC   PO4 6168   7.774  14.757   9.441
  254POPC   GL1 6169   7.609  14.408   9.133
  254POPC   GL2 6170   7.303  14.342   9.113
  254POPC   C1A 6171   7.550  14.450   8.681
  254POPC   D2A 6172   7.739  14.683   8.352
  254POPC   C3A 6173   7.626  14.388   8.073
  254POPC   C4A 6174   7.733  14.228   7.691
  254POPC   C1B 6175   7.019  14.309   8.811
  254POPC   C2B 6176   7.067  14.197   8.444
  254POPC   C3B 6177   7.167  14.188   8.040
  254POPC   C4B 6178   7.011  14.314   7.639
  255POPC   NC3 6179  37.899  21.674   9.553
  255POPC   PO4 6180  37.810  22.369   9.543
  255POPC   GL1 6181  37.689  22.006   9.232
  255POPC   GL2 6182  37.992  21.803   9.074
  255POPC   C1A 6183  37.559  21.869   8.787
  255POPC   D2A 6184  37.807  21.982   8.394
  255POPC   C3A 6185  37.581  21.927   8.008
  255POPC   C4A 6186  37.577  21.884   7.558
  255POPC   C1B 6187  37.940  22.206   8.843
  255POPC   C2B 6188  37.812  22.482   8.518
  255POPC   C3B 6189  37.883  22.394   8.068
  255POPC   C4B 6190  37.539  22.411   7.748
  256POPC   NC3 6191  26.707  41.405   9.688
  256POPC   PO4 6192  25.994  41.457   9.583
  256POPC   GL1 6193  26.067  41.291   9.224
  256POPC   GL2 6194  26.072  41.599   9.098
  256POPC   C1A 6195  25.923  41.169   8.850
  256POPC   D2A 6196  25.730  41.396   8.530
  256POPC   C3A 6197  25.938  41.561   8.200
  256POPC   C4A 6198  25.794  41.807   7.847
  256POPC   C1B 6199  26.026  41.783   8.752
  256POPC   C2B 6200  26.314  41.864   8.454
  256POPC   C3B 6201  26.364  41.773   8.053
  256POPC   C4B 6202  26.267  41.616   7.684
  257POPC   NC3 6203  33.485  40.382   9.460
  257POPC   PO4 6204  32.860  40.155   9.534
  257POPC   GL1 6205  32.868  39.919   9.153
  257POPC   GL2 6206  32.717  40.097   8.910
  257POPC   C1A 6207  32.974  39.657   8.801
  257POPC   D2A 6208  32.867  39.802   8.403
  257POPC   C3A 6209  33.074  39.787   8.012
  257POPC   C4A 6210  32.890  39.963   7.631
  257POPC   C1B 6211  33.187  40.119   8.853
  257POPC   C2B 6212  33.264  40.145   8.469
  257POPC   C3B 6213  33.121  40.317   8.104
  257POPC   C4B 6214  33.320  40.189   7.744
  258POPC   NC3 6215  16.216  13.863   9.433
  258POPC   PO4 6216  15.849  13.316   9.396
  258POPC   GL1 6217  15.666  13.634   9.151
  258POPC   GL2 6218  15.729  13.991   9.136
  258POPC   C1A 6219  15.561  13.666   8.725
  258POPC   D2A 6220  15.673  13.866   8.357
  258POPC   C3A 6221  15.858  13.625   8.079
  258POPC   C4A 6222  15.793  13.691   7.694
  258POPC   C1B 6223  15.983  14.018   8.729
  258POPC   C2B 6224  16.148  14.028   8.249
  258POPC   C3B 6225  16.260  13.871   7.820
  258POPC   C4B 6226  16.131  13.854   7.351
  259POPC   NC3 6227   2.624  32.075   9.505
  259POPC   PO4 6228   3.095  32.551   9.405
  259POPC   GL1 6229   2.951  32.166   9.126
  259POPC   GL2 6230   2.575  32.157   9.011
  259POPC   C1A 6231   2.937  32.010   8.672
  259POPC   D2A 6232   2.775  32.258   8.300
  259POPC   C3A 6233   2.971  32.217   7.876
  259POPC   C4A 6234   2.748  32.095   7.483
  259POPC   C1B 6235   2.428  31.870   8.724
  259POPC   C2B 6236   2.473  31.731   8.301
  259POPC   C3B 6237   2.508  31.946   7.919
  259POPC   C4B 6238   2.211  32.063   7.634
  260POPC   NC3 6239  43.820   6.916   9.474
  260POPC   PO4 6240  43.821   6.294   9.639
  260POPC   GL1 6241  44.032   6.479   9.216
  260POPC   GL2 6242  44.158   6.820   9.111
  260POPC   C1A 6243  43.926   6.529   8.751
  260POPC   D2A 6244  43.535   6.412   8.506
  260POPC   C3A 6245  43.656   6.350   8.073
  260POPC   C4A 6246  43.890   6.544   7.707
  260POPC   C1B 6247  44.369   6.930   8.752
  260POPC   C2B 6248  44.347   6.764   8.345
  260POPC   C3B 6249  44.126   6.931   7.981
  260POPC   C4B 6250  44.060   7.018   7.539
  261POPC   NC3 6251  16.518  32.722   9.525
  261POPC   PO4 6252  16.790  32.007   9.593
  261POPC   GL1 6253  16.885  32.110   9.177
  261POPC   GL2 6254  16.818  32.476   9.176
  261POPC   C1A 6255  16.783  32.188   8.742
  261POPC   D2A 6256  16.944  32.094   8.366
  261POPC   C3A 6257  16.655  32.144   8.052
  261POPC   C4A 6258  16.867  32.130   7.668
  261POPC   C1B 6259  16.427  32.521   8.897
  261POPC   C2B 6260  16.354  32.373   8.481
  261POPC   C3B 6261  16.384  32.604   8.119
  261POPC   C4B 6262  16.588  32.545   7.725
  262POPC   NC3 6263   0.379  11.664  10.018
  262POPC   PO4 6264   0.456  11.234   9.531
  262POPC   GL1 6265   0.685  11.235   9.118
  262POPC   GL2 6266   0.852  11.555   9.112
  262POPC   C1A 6267   0.692  11.177   8.650
  262POPC   D2A 6268   0.410  10.849   8.412
  262POPC   C3A 6269   0.400  10.995   7.989
  262POPC   C4A 6270   0.739  11.289   7.899
  262POPC   C1B 6271   0.679  11.700   8.717
  262POPC   C2B 6272   0.592  11.668   8.240
  262POPC   C3B 6273   0.485  11.713   7.782
  262POPC   C4B 6274   0.276  11.968   7.464
  263POPC   NC3 6275  30.488  37.982   9.357
  263POPC   PO4 6276  29.874  37.713   9.568
  263POPC   GL1 6277  30.181  37.573   9.251
  263POPC   GL2 6278  30.086  37.882   9.060
  263POPC   C1A 6279  30.282  37.492   8.799
  263POPC   D2A 6280  29.995  37.696   8.470
  263POPC   C3A 6281  29.995  37.499   8.059
  263POPC   C4A 6282  30.157  37.612   7.653
  263POPC   C1B 6283  29.759  38.138   8.851
  263POPC   C2B 6284  29.619  38.080   8.451
  263POPC   C3B 6285  29.530  37.774   8.171
  263POPC   C4B 6286  29.679  37.801   7.764
  264POPC   NC3 6287  17.740  22.139   9.607
  264POPC   PO4 6288  17.070  22.198   9.551
  264POPC   GL1 6289  17.262  22.148   9.196
  264POPC   GL2 6290  17.566  22.342   9.162
  264POPC   C1A 6291  17.380  21.833   8.926
  264POPC   D2A 6292  17.521  21.805   8.507
  264POPC   C3A 6293  17.458  22.119   8.167
  264POPC   C4A 6294  17.507  21.988   7.728
  264POPC   C1B 6295  17.529  22.287   8.716
  264POPC   C2B 6296  17.630  22.601   8.422
  264POPC   C3B 6297  17.450  22.653   8.060
  264POPC   C4B 6298  17.497  22.490   7.720
  265POPC   NC3 6299  36.759  22.949   9.582
  265POPC   PO4 6300  37.507  22.982   9.520
  265POPC   GL1 6301  37.130  23.027   9.211
  265POPC   GL2 6302  36.852  22.722   9.139
  265POPC   C1A 6303  36.851  23.156   8.862
  265POPC   D2A 6304  36.649  23.124   8.451
  265POPC   C3A 6305  36.878  22.923   8.107
  265POPC   C4A 6306  36.887  23.000   7.700
  265POPC   C1B 6307  36.551  22.727   8.775
  265POPC   C2B 6308  36.530  22.623   8.314
  265POPC   C3B 6309  36.541  22.655   7.846
  265POPC   C4B 6310  36.600  22.723   7.381
  266POPC   NC3 6311   4.523  16.812   9.409
  266POPC   PO4 6312   4.183  16.315   9.399
  266POPC   GL1 6313   4.219  16.593   9.059
  266POPC   GL2 6314   4.550  16.523   8.949
  266POPC   C1A 6315   4.100  16.952   8.797
  266POPC   D2A 6316   3.959  16.982   8.361
  266POPC   C3A 6317   4.216  16.760   8.081
  266POPC   C4A 6318   4.107  16.554   7.691
  266POPC   C1B 6319   4.614  16.946   8.770
  266POPC   C2B 6320   4.596  17.123   8.353
  266POPC   C3B 6321   4.671  16.942   7.983
  266POPC   C4B 6322   4.609  16.488   7.848
  267POPC   NC3 6323  23.380   4.759   9.729
  267POPC   PO4 6324  23.400   4.121   9.439
  267POPC   GL1 6325  23.497   4.349   9.095
  267POPC   GL2 6326  23.813   4.455   9.160
  267POPC   C1A 6327  23.417   4.331   8.658
  267POPC   D2A 6328  23.527   4.388   8.213
  267POPC   C3A 6329  23.613   4.035   7.944
  267POPC   C4A 6330  23.717   4.080   7.509
  267POPC   C1B 6331  23.893   4.202   8.766
  267POPC   C2B 6332  24.046   3.990   8.349
  267POPC   C3B 6333  24.125   4.073   7.902
  267POPC   C4B 6334  23.988   4.473   7.691
  268POPC   NC3 6335   6.900   7.016   9.491
  268POPC   PO4 6336   6.708   6.313   9.491
  268POPC   GL1 6337   6.786   6.541   9.150
  268POPC   GL2 6338   6.540   6.794   9.138
  268POPC   C1A 6339   6.587   6.474   8.726
  268POPC   D2A 6340   6.360   6.509   8.349
  268POPC   C3A 6341   6.560   6.583   7.970
  268POPC   C4A 6342   6.763   6.316   7.703
  268POPC   C1B 6343   6.822   6.957   8.816
  268POPC   C2B 6344   6.856   6.862   8.381
  268POPC   C3B 6345   6.861   6.998   7.958
  268POPC   C4B 6346   6.526   7.121   7.698
  269POPC   NC3 6347  10.489   5.370   9.580
  269POPC   PO4 6348  10.136   4.844   9.327
  269POPC   GL1 6349  10.332   5.128   9.130
  269POPC   GL2 6350  10.217   5.476   9.158
  269POPC   C1A 6351  10.473   5.002   8.705
  269POPC   D2A 6352  10.713   4.938   8.303
  269POPC   C3A 6353  10.595   5.007   7.887
  269POPC   C4A 6354  10.349   5.079   7.475
  269POPC   C1B 6355  10.085   5.325   8.763
  269POPC   C2B 6356  10.304   5.309   8.342
  269POPC   C3B 6357  10.226   5.352   7.906
  269POPC   C4B 6358  10.148   5.539   7.507
  270POPC   NC3 6359   4.410   7.178   9.582
  270POPC   PO4 6360   4.701   7.843   9.566
  270POPC   GL1 6361   4.572   7.510   9.266
  270POPC   GL2 6362   4.790   7.242   9.235
  270POPC   C1A 6363   4.323   7.421   8.867
  270POPC   D2A 6364   4.319   7.638   8.452
  270POPC   C3A 6365   4.266   7.489   8.027
  270POPC   C4A 6366   4.372   7.773   7.673
  270POPC   C1B 6367   4.737   7.091   8.801
  270POPC   C2B 6368   4.685   7.241   8.379
  270POPC   C3B 6369   4.716   7.062   7.976
  270POPC   C4B 6370   4.288   6.990   7.865
  271POPC   NC3 6371  12.368   4.764   9.524
  271POPC   PO4 6372  11.668   4.808   9.485
  271POPC   GL1 6373  11.977   4.922   9.224
  271POPC   GL2 6374  12.107   5.273   9.317
  271POPC   C1A 6375  11.956   4.808   8.814
  271POPC   D2A 6376  11.927   5.069   8.439
  271POPC   C3A 6377  11.933   4.848   8.078
  271POPC   C4A 6378  12.042   4.978   7.693
  271POPC   C1B 6379  11.968   5.407   8.884
  271POPC   C2B 6380  12.073   5.563   8.448
  271POPC   C3B 6381  12.128   5.411   8.018
  271POPC   C4B 6382  11.929   5.481   7.660
  272POPC   NC3 6383  28.754  26.655   9.444
  272POPC   PO4 6384  28.369  27.133   9.438
  272POPC   GL1 6385  28.500  26.926   9.066
  272POPC   GL2 6386  28.392  26.561   9.072
  272POPC   C1A 6387  28.247  26.917   8.688
  272POPC   D2A 6388  27.899  26.778   8.432
  272POPC   C3A 6389  28.028  26.693   8.004
  272POPC   C4A 6390  28.225  26.955   7.679
  272POPC   C1B 6391  28.747  26.520   8.776
  272POPC   C2B 6392  28.907  26.556   8.344
  272POPC   C3B 6393  28.674  26.566   7.949
  272POPC   C4B 6394  28.792  26.493   7.497
  273POPC   NC3 6395  11.192  42.841   9.488
  273POPC   PO4 6396  11.323  43.484   9.255
  273POPC   GL1 6397  11.172  43.224   9.011
  273POPC   GL2 6398  11.396  42.995   9.022
  273POPC   C1A 6399  11.202  43.206   8.592
  273POPC   D2A 6400  11.224  43.029   8.224
  273POPC   C3A 6401  11.088  43.288   7.964
  273POPC   C4A 6402  11.077  43.323   7.532
  273POPC   C1B 6403  11.554  42.825   8.617
  273POPC   C2B 6404  11.529  42.636   8.196
  273POPC   C3B 6405  11.373  42.726   7.760
  273POPC   C4B 6406  11.516  42.634   7.312
  274POPC   NC3 6407  29.242  18.543   9.531
  274POPC   PO4 6408  28.633  18.344   9.446
  274POPC   GL1 6409  28.934  18.452   9.149
  274POPC   GL2 6410  29.186  18.177   9.142
  274POPC   C1A 6411  29.191  18.582   8.819
  274POPC   D2A 6412  29.174  18.334   8.455
  274POPC   C3A 6413  29.207  18.538   8.060
  274POPC   C4A 6414  29.326  18.530   7.661
  274POPC   C1B 6415  28.851  18.065   8.842
  274POPC   C2B 6416  28.711  18.000   8.427
  274POPC   C3B 6417  28.824  17.922   8.023
  274POPC   C4B 6418  29.157  18.073   7.799
  275POPC   NC3 6419  33.738  16.446   9.461
  275POPC   PO4 6420  33.663  17.084   9.444
  275POPC   GL1 6421  33.726  16.795   9.078
  275POPC   GL2 6422  33.750  16.408   8.961
  275POPC   C1A 6423  33.680  16.830   8.662
  275POPC   D2A 6424  33.919  16.938   8.342
  275POPC   C3A 6425  33.704  17.083   8.044
  275POPC   C4A 6426  33.821  17.102   7.650
  275POPC   C1B 6427  33.551  16.323   8.550
  275POPC   C2B 6428  33.704  16.512   8.160
  275POPC   C3B 6429  33.914  16.637   7.768
  275POPC   C4B 6430  33.983  16.446   7.373
  276POPC   NC3 6431  32.610   0.454   9.561
  276POPC   PO4 6432  33.275   0.456   9.316
  276POPC   GL1 6433  32.895   0.324   9.163
  276POPC   GL2 6434  32.755   0.649   9.119
  276POPC   C1A 6435  32.766   0.129   8.807
  276POPC   D2A 6436  33.046   0.126   8.443
  276POPC   C3A 6437  33.001   0.257   8.002
  276POPC   C4A 6438  33.111   0.264   7.576
  276POPC   C1B 6439  32.970   0.605   8.730
  276POPC   C2B 6440  32.806   0.578   8.335
  276POPC   C3B 6441  32.963   0.814   8.008
  276POPC   C4B 6442  33.201   0.780   7.655
  277POPC   NC3 6443   1.672  38.132   9.397
  277POPC   PO4 6444   2.150  37.596   9.510
  277POPC   GL1 6445   2.131  37.637   9.077
  277POPC   GL2 6446   2.117  37.967   9.090
  277POPC   C1A 6447   1.966  37.625   8.645
  277POPC   D2A 6448   1.668  37.472   8.337
  277POPC   C3A 6449   1.705  37.679   7.933
  277POPC   C4A 6450   1.967  37.830   7.582
  277POPC   C1B 6451   2.361  37.938   8.704
  277POPC   C2B 6452   2.226  37.835   8.257
  277POPC   C3B 6453   2.374  37.962   7.867
  277POPC   C4B 6454   2.452  37.871   7.390
  278POPC   NC3 6455  36.789   3.150   9.481
  278POPC   PO4 6456  37.264   2.598   9.521
  278POPC   GL1 6457  36.923   2.674   9.261
  278POPC   GL2 6458  37.108   2.957   9.123
  278POPC   C1A 6459  36.745   2.702   8.833
  278POPC   D2A 6460  36.869   2.892   8.430
  278POPC   C3A 6461  36.840   2.659   8.035
  278POPC   C4A 6462  36.704   2.944   7.748
  278POPC   C1B 6463  37.371   2.950   8.757
  278POPC   C2B 6464  37.341   3.102   8.384
  278POPC   C3B 6465  37.298   2.892   8.017
  278POPC   C4B 6466  37.277   3.081   7.664
  279POPC   NC3 6467  44.381  20.273   9.690
  279POPC   PO4 6468  44.741  19.809   9.684
  279POPC   GL1 6469  44.632  19.826   9.205
  279POPC   GL2 6470  44.305  19.709   9.125
  279POPC   C1A 6471  44.588  19.901   8.733
  279POPC   D2A 6472  44.813  19.873   8.303
  279POPC   C3A 6473  44.698  19.767   7.875
  279POPC   C4A 6474  44.665  20.023   7.493
  279POPC   C1B 6475  44.261  19.479   8.760
  279POPC   C2B 6476  44.391  19.585   8.363
  279POPC   C3B 6477  44.242  19.570   7.958
  279POPC   C4B 6478  44.315  19.657   7.506
  280POPC   NC3 6479  29.437  23.892   9.820
  280POPC   PO4 6480  29.971  23.627   9.524
  280POPC   GL1 6481  29.973  23.572   9.118
  280POPC   GL2 6482  30.228  23.816   9.128
  280POPC   C1A 6483  29.857  23.541   8.684
  280POPC   D2A 6484  29.724  23.710   8.265
  280POPC   C3A 6485  29.915  23.439   7.980
  280POPC   C4A 6486  29.916  23.629   7.626
  280POPC   C1B 6487  30.374  23.864   8.756
  280POPC   C2B 6488  30.153  23.898   8.431
  280POPC   C3B 6489  30.208  23.838   8.026
  280POPC   C4B 6490  30.449  24.030   7.751
  281POPC   NC3 6491  21.556   4.585   9.477
  281POPC   PO4 6492  20.904   4.262   9.445
  281POPC   GL1 6493  21.183   4.151   9.102
  281POPC   GL2 6494  21.516   4.313   9.048
  281POPC   C1A 6495  21.265   4.091   8.670
  281POPC   D2A 6496  21.487   4.206   8.303
  281POPC   C3A 6497  21.249   4.162   7.931
  281POPC   C4A 6498  21.346   4.265   7.508
  281POPC   C1B 6499  21.669   4.565   8.679
  281POPC   C2B 6500  21.872   4.551   8.232
  281POPC   C3B 6501  21.759   4.281   7.827
  281POPC   C4B 6502  21.850   4.176   7.349
  282POPC   NC3 6503  21.568  13.327   9.626
  282POPC   PO4 6504  21.238  13.808   9.443
  282POPC   GL1 6505  21.606  13.614   9.191
  282POPC   GL2 6506  21.720  13.229   9.159
  282POPC   C1A 6507  21.680  13.752   8.770
  282POPC   D2A 6508  21.359  13.760   8.451
  282POPC   C3A 6509  21.530  13.778   8.055
  282POPC   C4A 6510  21.363  13.763   7.656
  282POPC   C1B 6511  21.456  13.298   8.789
  282POPC   C2B 6512  21.280  13.248   8.367
  282POPC   C3B 6513  21.427  13.288   7.958
  282POPC   C4B 6514  21.247  13.288   7.550
  283POPC   NC3 6515  29.698  29.319   9.487
  283POPC   PO4 6516  30.246  28.987   9.331
  283POPC   GL1 6517  29.870  28.958   9.095
  283POPC   GL2 6518  29.531  28.859   9.216
  283POPC   C1A 6519  29.924  28.918   8.660
  283POPC   D2A 6520  30.130  29.139   8.320
  283POPC   C3A 6521  29.968  29.129   7.919
  283POPC   C4A 6522  29.751  29.422   7.709
  283POPC   C1B 6523  29.429  28.991   8.784
  283POPC   C2B 6524  29.524  28.843   8.338
  283POPC   C3B 6525  29.456  29.026   7.921
  283POPC   C4B 6526  29.489  29.043   7.476
  284POPC   NC3 6527  34.894  42.182   9.433
  284POPC   PO4 6528  34.346  42.523   9.504
  284POPC   GL1 6529  34.600  42.494   9.142
  284POPC   GL2 6530  34.980  42.615   9.159
  284POPC   C1A 6531  34.487  42.219   8.809
  284POPC   D2A 6532  34.563  42.456   8.471
  284POPC   C3A 6533  34.310  42.398   8.115
  284POPC   C4A 6534  34.396  42.155   7.755
  284POPC   C1B 6535  34.972  42.374   8.793
  284POPC   C2B 6536  34.925  42.067   8.492
  284POPC   C3B 6537  34.782  42.194   8.116
  284POPC   C4B 6538  34.902  42.198   7.747
  285POPC   NC3 6539  15.795  38.214   9.580
  285POPC   PO4 6540  16.290  38.632   9.440
  285POPC   GL1 6541  16.046  38.412   9.149
  285POPC   GL2 6542  15.727  38.574   9.193
  285POPC   C1A 6543  15.988  38.229   8.745
  285POPC   D2A 6544  15.890  38.378   8.322
  285POPC   C3A 6545  16.244  38.398   8.019
  285POPC   C4A 6546  16.173  38.325   7.588
  285POPC   C1B 6547  15.542  38.876   8.887
  285POPC   C2B 6548  15.409  38.768   8.448
  285POPC   C3B 6549  15.617  38.762   8.038
  285POPC   C4B 6550  15.536  38.832   7.588
  286POPC   NC3 6551  40.820  41.050   9.444
  286POPC   PO4 6552  40.683  41.685   9.445
  286POPC   GL1 6553  40.512  41.596   9.088
  286POPC   GL2 6554  40.497  41.261   9.123
  286POPC   C1A 6555  40.725  41.700   8.712
  286POPC   D2A 6556  40.983  41.754   8.355
  286POPC   C3A 6557  40.787  41.833   7.980
  286POPC   C4A 6558  40.634  41.740   7.568
  286POPC   C1B 6559  40.640  41.191   8.720
  286POPC   C2B 6560  40.610  41.375   8.313
  286POPC   C3B 6561  40.686  41.305   7.885
  286POPC   C4B 6562  40.565  40.914   7.719
  287POPC   NC3 6563  10.116   9.486   9.540
  287POPC   PO4 6564   9.402   9.631   9.475
  287POPC   GL1 6565   9.720   9.786   9.199
  287POPC   GL2 6566   9.949   9.549   9.080
  287POPC   C1A 6567   9.798   9.914   8.762
  287POPC   D2A 6568   9.627   9.909   8.335
  287POPC   C3A 6569   9.858   9.872   7.936
  287POPC   C4A 6570   9.610   9.897   7.546
  287POPC   C1B 6571  10.074   9.460   8.698
  287POPC   C2B 6572   9.913   9.467   8.299
  287POPC   C3B 6573  10.062   9.360   7.888
  287POPC   C4B 6574   9.979   9.546   7.515
  288POPC   NC3 6575  11.780  33.002   9.247
  288POPC   PO4 6576  12.112  33.313   9.714
  288POPC   GL1 6577  12.276  33.183   9.286
  288POPC   GL2 6578  12.245  32.818   9.195
  288POPC   C1A 6579  12.236  33.196   8.807
  288POPC   D2A 6580  11.879  33.274   8.480
  288POPC   C3A 6581  11.919  33.075   8.038
  288POPC   C4A 6582  12.225  33.139   7.762
  288POPC   C1B 6583  12.058  32.708   8.764
  288POPC   C2B 6584  12.192  32.846   8.408
  288POPC   C3B 6585  12.299  32.707   8.020
  288POPC   C4B 6586  12.032  32.643   7.712
  289POPC   NC3 6587  21.715  41.859   9.494
  289POPC   PO4 6588  21.760  42.541   9.535
  289POPC   GL1 6589  21.393  42.505   9.191
  289POPC   GL2 6590  21.183  42.845   9.122
  289POPC   C1A 6591  21.415  42.237   8.826
  289POPC   D2A 6592  21.624  42.405   8.441
  289POPC   C3A 6593  21.512  42.174   8.063
  289POPC   C4A 6594  21.466  42.308   7.633
  289POPC   C1B 6595  21.285  42.694   8.710
  289POPC   C2B 6596  21.116  42.462   8.367
  289POPC   C3B 6597  20.986  42.519   7.946
  289POPC   C4B 6598  21.145  42.686   7.550
  290POPC   NC3 6599  30.689  15.809   9.734
  290POPC   PO4 6600  30.237  15.527   9.282
  290POPC   GL1 6601  30.582  15.881   9.197
  290POPC   GL2 6602  30.685  16.218   9.034
  290POPC   C1A 6603  30.898  15.816   8.850
  290POPC   D2A 6604  30.925  16.104   8.501
  290POPC   C3A 6605  30.859  15.979   8.062
  290POPC   C4A 6606  31.060  16.169   7.699
  290POPC   C1B 6607  30.394  16.031   8.724
  290POPC   C2B 6608  30.272  15.780   8.353
  290POPC   C3B 6609  30.425  15.651   7.963
  290POPC   C4B 6610  30.319  15.819   7.575
  291POPC   NC3 6611  35.375  41.796   9.488
  291POPC   PO4 6612  35.577  41.040   9.501
  291POPC   GL1 6613  35.632  41.346   9.193
  291POPC   GL2 6614  35.283  41.460   9.130
  291POPC   C1A 6615  35.631  41.423   8.754
  291POPC   D2A 6616  35.484  41.600   8.373
  291POPC   C3A 6617  35.442  41.434   7.941
  291POPC   C4A 6618  35.598  41.469   7.529
  291POPC   C1B 6619  35.080  41.551   8.738
  291POPC   C2B 6620  34.977  41.568   8.320
  291POPC   C3B 6621  35.186  41.872   8.045
  291POPC   C4B 6622  35.223  41.808   7.617
  292POPC   NC3 6623  22.684  41.801   9.734
  292POPC   PO4 6624  22.137  42.046   9.415
  292POPC   GL1 6625  22.184  42.306   9.062
  292POPC   GL2 6626  21.871  42.436   9.029
  292POPC   C1A 6627  22.320  42.529   8.718
  292POPC   D2A 6628  22.569  42.651   8.367
  292POPC   C3A 6629  22.334  42.391   8.043
  292POPC   C4A 6630  21.925  42.417   7.833
  292POPC   C1B 6631  21.896  42.081   8.721
  292POPC   C2B 6632  21.973  42.066   8.267
  292POPC   C3B 6633  21.940  41.843   7.881
  292POPC   C4B 6634  22.300  41.671   7.604
  293POPC   NC3 6635   9.295   6.454   9.455
  293POPC   PO4 6636   8.970   7.075   9.357
  293POPC   GL1 6637   9.029   6.755   9.113
  293POPC   GL2 6638   8.681   6.675   9.078
  293POPC   C1A 6639   9.264   6.735   8.730
  293POPC   D2A 6640   9.107   6.715   8.288
  293POPC   C3A 6641   9.081   6.319   8.105
  293POPC   C4A 6642   9.256   6.293   7.702
  293POPC   C1B 6643   8.761   6.870   8.673
  293POPC   C2B 6644   8.642   6.537   8.367
  293POPC   C3B 6645   8.638   6.557   7.963
  293POPC   C4B 6646   8.982   6.714   7.749
  294POPC   NC3 6647  15.247  36.648   9.427
  294POPC   PO4 6648  15.069  35.981   9.702
  294POPC   GL1 6649  15.042  36.071   9.240
  294POPC   GL2 6650  15.026  35.743   9.055
  294POPC   C1A 6651  15.294  36.174   8.851
  294POPC   D2A 6652  15.319  36.019   8.408
  294POPC   C3A 6653  15.464  36.243   8.037
  294POPC   C4A 6654  15.395  36.140   7.585
  294POPC   C1B 6655  14.871  35.942   8.678
  294POPC   C2B 6656  14.834  36.199   8.313
  294POPC   C3B 6657  14.984  36.149   7.906
  294POPC   C4B 6658  14.878  36.086   7.492
  295POPC   NC3 6659  17.141  10.774   9.779
  295POPC   PO4 6660  17.262  11.283   9.289
  295POPC   GL1 6661  17.412  11.110   8.919
  295POPC   GL2 6662  17.671  10.864   8.983
  295POPC   C1A 6663  17.351  11.326   8.576
  295POPC   D2A 6664  17.138  11.464   8.269
  295POPC   C3A 6665  17.438  11.537   7.944
  295POPC   C4A 6666  17.424  11.306   7.613
  295POPC   C1B 6667  17.862  11.169   8.668
  295POPC   C2B 6668  17.808  11.350   8.256
  295POPC   C3B 6669  17.875  11.201   7.821
  295POPC   C4B 6670  17.909  11.180   7.339
  296POPC   NC3 6671  19.499  27.273   9.571
  296POPC   PO4 6672  19.026  27.741   9.600
  296POPC   GL1 6673  19.130  27.495   9.243
  296POPC   GL2 6674  19.409  27.722   9.226
  296POPC   C1A 6675  18.968  27.347   8.823
  296POPC   D2A 6676  18.918  27.538   8.413
  296POPC   C3A 6677  18.993  27.383   7.993
  296POPC   C4A 6678  18.918  27.709   7.746
  296POPC   C1B 6679  19.153  27.823   8.833
  296POPC   C2B 6680  19.197  27.993   8.419
  296POPC   C3B 6681  19.342  27.771   8.031
  296POPC   C4B 6682  19.448  27.491   7.680
  297POPC   NC3 6683   9.509  10.210   9.464
  297POPC   PO4 6684   9.961  10.679   9.702
  297POPC   GL1 6685  10.096  10.561   9.231
  297POPC   GL2 6686   9.874  10.702   8.947
  297POPC   C1A 6687  10.150  10.299   8.815
  297POPC   D2A 6688   9.842  10.360   8.467
  297POPC   C3A 6689   9.641  10.379   8.040
  297POPC   C4A 6690   9.472  10.378   7.598
  297POPC   C1B 6691   9.706  10.853   8.542
  297POPC   C2B 6692   9.892  10.866   8.114
  297POPC   C3B 6693   9.751  10.803   7.677
  297POPC   C4B 6694   9.467  10.894   7.328
  298POPC   NC3 6695  24.146  33.678   9.593
  298POPC   PO4 6696  23.682  33.072   9.611
  298POPC   GL1 6697  23.711  32.999   9.176
  298POPC   GL2 6698  23.587  32.676   9.209
  298POPC   C1A 6699  23.810  33.163   8.756
  298POPC   D2A 6700  23.702  33.066   8.339
  298POPC   C3A 6701  23.498  33.288   7.993
  298POPC   C4A 6702  23.733  33.107   7.656
  298POPC   C1B 6703  23.863  32.613   8.851
  298POPC   C2B 6704  23.834  32.552   8.404
  298POPC   C3B 6705  23.919  32.703   7.967
  298POPC   C4B 6706  24.090  32.750   7.527
  299POPC   NC3 6707  18.081   1.504   9.418
  299POPC   PO4 6708  18.597   2.002   9.488
  299POPC   GL1 6709  18.430   1.871   9.124
  299POPC   GL2 6710  18.596   1.558   9.114
  299POPC   C1A 6711  18.267   2.023   8.728
  299POPC   D2A 6712  18.026   2.140   8.334
  299POPC   C3A 6713  18.253   2.058   7.957
  299POPC   C4A 6714  18.552   2.363   7.782
  299POPC   C1B 6715  18.337   1.494   8.766
  299POPC   C2B 6716  18.167   1.665   8.384
  299POPC   C3B 6717  18.168   1.558   7.978
  299POPC   C4B 6718  18.366   1.676   7.578
  300POPC   NC3 6719  24.677  26.121   9.921
  300POPC   PO4 6720  24.274  26.287   9.409
  300POPC   GL1 6721  24.418  26.096   9.058
  300POPC   GL2 6722  24.353  26.443   8.942
  300POPC   C1A 6723  24.589  25.838   8.723
  300POPC   D2A 6724  24.382  25.739   8.306
  300POPC   C3A 6725  24.577  25.894   7.929
  300POPC   C4A 6726  24.796  25.875   7.554
  300POPC   C1B 6727  24.549  26.340   8.588
  300POPC   C2B 6728  24.696  26.339   8.195
  300POPC   C3B 6729  24.415  26.378   7.883
  300POPC   C4B 6730  24.419  26.213   7.485
  301POPC   NC3 6731   9.442  22.650   9.536
  301POPC   PO4 6732  10.049  22.925   9.560
  301POPC   GL1 6733   9.844  22.802   9.201
  301POPC   GL2 6734   9.532  22.973   9.149
  301POPC   C1A 6735   9.887  22.945   8.783
  301POPC   D2A 6736   9.530  23.107   8.580
  301POPC   C3A 6737   9.537  22.991   8.135
  301POPC   C4A 6738   9.786  23.128   7.801
  301POPC   C1B 6739   9.454  22.661   8.844
  301POPC   C2B 6740   9.266  22.670   8.449
  301POPC   C3B 6741   9.287  22.520   8.052
  301POPC   C4B 6742   9.455  22.715   7.696
  302POPC   NC3 6743  18.286   5.353   9.935
  302POPC   PO4 6744  18.472   4.780   9.578
  302POPC   GL1 6745  18.544   5.078   9.194
  302POPC   GL2 6746  18.691   4.944   8.884
  302POPC   C1A 6747  18.389   5.352   8.810
  302POPC   D2A 6748  18.489   5.183   8.379
  302POPC   C3A 6749  18.262   5.283   8.020
  302POPC   C4A 6750  18.260   5.107   7.633
  302POPC   C1B 6751  18.243   4.880   8.701
  302POPC   C2B 6752  17.978   4.957   8.293
  302POPC   C3B 6753  17.801   5.072   7.852
  302POPC   C4B 6754  17.816   5.014   7.362
  303POPC   NC3 6755  30.409  19.848   9.399
  303POPC   PO4 6756  31.006  20.127   9.663
  303POPC   GL1 6757  30.900  20.095   9.194
  303POPC   GL2 6758  30.565  20.246   9.119
  303POPC   C1A 6759  30.741  19.886   8.789
  303POPC   D2A 6760  30.519  19.820   8.418
  303POPC   C3A 6761  30.700  19.568   8.109
  303POPC   C4A 6762  30.770  19.669   7.701
  303POPC   C1B 6763  30.304  20.185   8.725
  303POPC   C2B 6764  30.387  20.294   8.290
  303POPC   C3B 6765  30.496  20.034   7.941
  303POPC   C4B 6766  30.332  19.894   7.554
  304POPC   NC3 6767   9.148  14.064   9.327
  304POPC   PO4 6768   8.689  14.500   9.507
  304POPC   GL1 6769   8.884  14.628   9.115
  304POPC   GL2 6770   9.215  14.484   9.042
  304POPC   C1A 6771   8.914  14.750   8.682
  304POPC   D2A 6772   8.874  14.476   8.321
  304POPC   C3A 6773   9.160  14.510   7.993
  304POPC   C4A 6774   8.885  14.481   7.670
  304POPC   C1B 6775   8.942  14.223   8.755
  304POPC   C2B 6776   9.031  13.950   8.416
  304POPC   C3B 6777   8.968  14.028   7.986
  304POPC   C4B 6778   9.214  14.091   7.618
  305POPC   NC3 6779  20.893  11.638   9.706
  305POPC   PO4 6780  20.697  11.087   9.610
  305POPC   GL1 6781  20.450  11.260   9.279
  305POPC   GL2 6782  20.215  11.032   9.067
  305POPC   C1A 6783  20.615  11.294   8.865
  305POPC   D2A 6784  20.747  11.310   8.423
  305POPC   C3A 6785  20.579  11.144   8.058
  305POPC   C4A 6786  20.617  11.303   7.645
  305POPC   C1B 6787  20.315  11.003   8.577
  305POPC   C2B 6788  20.106  11.024   8.166
  305POPC   C3B 6789  20.126  11.242   7.777
  305POPC   C4B 6790  20.214  11.571   7.451
  306POPC   NC3 6791  37.228  10.412   9.258
  306POPC   PO4 6792  37.909  10.527   9.405
  306POPC   GL1 6793  37.708  10.471   9.052
  306POPC   GL2 6794  37.560  10.789   9.067
  306POPC   C1A 6795  37.826  10.521   8.623
  306POPC   D2A 6796  37.922  10.714   8.208
  306POPC   C3A 6797  37.898  10.506   7.799
  306POPC   C4A 6798  37.585  10.467   7.492
  306POPC   C1B 6799  37.349  10.732   8.702
  306POPC   C2B 6800  37.374  10.891   8.317
  306POPC   C3B 6801  37.464  10.769   7.911
  306POPC   C4B 6802  37.227  10.910   7.579
  307POPC   NC3 6803  28.059  12.683   9.666
  307POPC   PO4 6804  28.622  12.980   9.494
  307POPC   GL1 6805  28.479  12.932   9.122
  307POPC   GL2 6806  28.139  12.801   9.161
  307POPC   C1A 6807  28.663  12.863   8.736
  307POPC   D2A 6808  28.436  12.748   8.394
  307POPC   C3A 6809  28.551  12.897   8.003
  307POPC   C4A 6810  28.479  12.717   7.612
  307POPC   C1B 6811  28.110  13.002   8.752
  307POPC   C2B 6812  27.935  12.885   8.334
  307POPC   C3B 6813  28.064  12.871   7.880
  307POPC   C4B 6814  28.105  12.949   7.395
  308POPC   NC3 6815  16.328  23.049   9.534
  308POPC   PO4 6816  16.992  23.015   9.523
  308POPC   GL1 6817  16.814  22.929   9.125
  308POPC   GL2 6818  16.838  22.592   9.178
  308POPC   C1A 6819  16.679  22.708   8.720
  308POPC   D2A 6820  16.495  22.804   8.352
  308POPC   C3A 6821  16.680  23.133   8.186
  308POPC   C4A 6822  16.661  23.040   7.791
  308POPC   C1B 6823  17.109  22.499   8.863
  308POPC   C2B 6824  17.126  22.482   8.442
  308POPC   C3B 6825  16.944  22.694   8.121
  308POPC   C4B 6826  16.992  22.565   7.728
  309POPC   NC3 6827   0.715  13.765   9.531
  309POPC   PO4 6828   1.325  13.551   9.566
  309POPC   GL1 6829   1.064  13.438   9.250
  309POPC   GL2 6830   1.061  13.777   9.132
  309POPC   C1A 6831   1.084  13.266   8.832
  309POPC   D2A 6832   1.343  13.425   8.500
  309POPC   C3A 6833   1.222  13.598   8.084
  309POPC   C4A 6834   1.224  13.394   7.674
  309POPC   C1B 6835   1.254  13.922   8.743
  309POPC   C2B 6836   1.074  14.044   8.343
  309POPC   C3B 6837   0.962  14.016   7.917
  309POPC   C4B 6838   1.183  14.165   7.590
  310POPC   NC3 6839   7.856   8.314   9.333
  310POPC   PO4 6840   8.565   8.115   9.411
  310POPC   GL1 6841   8.263   8.134   9.115
  310POPC   GL2 6842   8.030   7.848   9.211
  310POPC   C1A 6843   8.224   8.194   8.695
  310POPC   D2A 6844   8.481   7.943   8.443
  310POPC   C3A 6845   8.372   8.108   8.076
  310POPC   C4A 6846   8.235   8.201   7.679
  310POPC   C1B 6847   8.041   7.728   8.799
  310POPC   C2B 6848   7.956   7.892   8.359
  310POPC   C3B 6849   8.008   7.794   7.917
  310POPC   C4B 6850   8.063   7.746   7.460
  311POPC   NC3 6851  33.654  26.980   9.410
  311POPC   PO4 6852  34.165  26.654   9.650
  311POPC   GL1 6853  33.948  26.607   9.177
  311POPC   GL2 6854  33.583  26.688   9.014
  311POPC   C1A 6855  33.933  26.478   8.701
  311POPC   D2A 6856  33.889  26.577   8.219
  311POPC   C3A 6857  33.991  26.960   7.920
  311POPC   C4A 6858  34.041  27.023   7.411
  311POPC   C1B 6859  33.767  26.965   8.721
  311POPC   C2B 6860  33.616  27.091   8.314
  311POPC   C3B 6861  33.481  26.802   7.997
  311POPC   C4B 6862  33.670  26.730   7.607
  312POPC   NC3 6863  17.814  19.037   9.475
  312POPC   PO4 6864  17.322  18.706   9.721
  312POPC   GL1 6865  17.396  18.831   9.214
  312POPC   GL2 6866  17.737  18.870   9.011
  312POPC   C1A 6867  17.319  19.142   8.836
  312POPC   D2A 6868  17.246  19.330   8.453
  312POPC   C3A 6869  17.250  19.088   8.071
  312POPC   C4A 6870  17.357  19.177   7.645
  312POPC   C1B 6871  17.525  18.726   8.636
  312POPC   C2B 6872  17.569  18.695   8.204
  312POPC   C3B 6873  17.743  19.006   7.922
  312POPC   C4B 6874  17.724  18.860   7.478
  313POPC   NC3 6875   4.590   2.615   9.562
  313POPC   PO4 6876   4.035   2.628   9.188
  313POPC   GL1 6877   4.426   2.723   9.089
  313POPC   GL2 6878   4.514   3.034   9.261
  313POPC   C1A 6879   4.648   2.642   8.716
  313POPC   D2A 6880   4.420   2.466   8.336
  313POPC   C3A 6881   4.241   2.712   8.009
  313POPC   C4A 6882   4.043   2.602   7.671
  313POPC   C1B 6883   4.516   3.145   8.825
  313POPC   C2B 6884   4.428   2.987   8.418
  313POPC   C3B 6885   4.710   2.858   8.076
  313POPC   C4B 6886   4.584   3.044   7.695
  314POPC   NC3 6887  15.510  30.641   9.432
  314POPC   PO4 6888  14.921  30.537   9.503
  314POPC   GL1 6889  15.122  30.748   9.115
  314POPC   GL2 6890  15.496  30.882   8.994
  314POPC   C1A 6891  15.072  30.975   8.741
  314POPC   D2A 6892  15.201  30.963   8.339
  314POPC   C3A 6893  14.870  30.755   8.116
  314POPC   C4A 6894  14.974  30.692   7.693
  314POPC   C1B 6895  15.355  30.534   8.729
  314POPC   C2B 6896  15.174  30.432   8.387
  314POPC   C3B 6897  15.331  30.545   8.025
  314POPC   C4B 6898  15.455  30.403   7.650
  315POPC   NC3 6899  14.297  44.139   9.271
  315POPC   PO4 6900  14.808  43.807   9.500
  315POPC   GL1 6901  14.588  43.748   9.136
  315POPC   GL2 6902  14.727  44.050   8.989
  315POPC   C1A 6903  14.394  43.688   8.736
  315POPC   D2A 6904  14.588  43.744   8.336
  315POPC   C3A 6905  14.374  43.672   7.969
  315POPC   C4A 6906  14.577  43.556   7.594
  315POPC   C1B 6907  14.458  44.181   8.649
  315POPC   C2B 6908  14.137  44.006   8.365
  315POPC   C3B 6909  14.113  44.133   7.922
  315POPC   C4B 6910  14.558  44.077   7.688
  316POPC   NC3 6911   6.758   4.041   9.483
  316POPC   PO4 6912   6.644   4.649   9.541
  316POPC   GL1 6913   6.647   4.464   9.180
  316POPC   GL2 6914   6.370   4.223   9.164
  316POPC   C1A 6915   6.936   4.487   8.850
  316POPC   D2A 6916   6.652   4.488   8.522
  316POPC   C3A 6917   6.723   4.558   8.109
  316POPC   C4A 6918   6.410   4.585   7.823
  316POPC   C1B 6919   6.601   4.075   8.804
  316POPC   C2B 6920   6.685   4.016   8.352
  316POPC   C3B 6921   6.694   4.061   7.905
  316POPC   C4B 6922   6.653   3.849   7.522
  317POPC   NC3 6923  39.006  13.757   9.528
  317POPC   PO4 6924  39.590  13.407   9.648
  317POPC   GL1 6925  39.412  13.523   9.199
  317POPC   GL2 6926  39.212  13.815   9.051
  317POPC   C1A 6927  39.502  13.572   8.723
  317POPC   D2A 6928  39.256  13.819   8.425
  317POPC   C3A 6929  39.435  13.672   8.046
  317POPC   C4A 6930  39.285  13.523   7.653
  317POPC   C1B 6931  38.840  13.925   8.749
  317POPC   C2B 6932  38.822  14.082   8.299
  317POPC   C3B 6933  39.033  13.946   7.903
  317POPC   C4B 6934  39.051  13.984   7.434
  318POPC   NC3 6935  41.367  27.532   9.407
  318POPC   PO4 6936  42.039  27.481   9.391
  318POPC   GL1 6937  41.754  27.366   9.088
  318POPC   GL2 6938  41.684  27.710   9.040
  318POPC   C1A 6939  41.616  27.389   8.651
  318POPC   D2A 6940  41.737  27.260   8.250
  318POPC   C3A 6941  41.668  27.562   7.945
  318POPC   C4A 6942  41.382  27.515   7.562
  318POPC   C1B 6943  41.375  27.850   8.743
  318POPC   C2B 6944  41.460  27.978   8.316
  318POPC   C3B 6945  41.328  27.935   7.892
  318POPC   C4B 6946  41.652  27.920   7.548
  319POPC   NC3 6947  23.475  44.130   9.835
  319POPC   PO4 6948  23.601  44.737   9.633
  319POPC   GL1 6949  23.701  44.605   9.158
  319POPC   GL2 6950  23.434  44.431   9.119
  319POPC   C1A 6951  23.925  44.670   8.716
  319POPC   D2A 6952  23.857  44.774   8.254
  319POPC   C3A 6953  23.960  44.683   7.791
  319POPC   C4A 6954  23.774  44.545   7.372
  319POPC   C1B 6955  23.605  44.293   8.697
  319POPC   C2B 6956  23.479  44.403   8.274
  319POPC   C3B 6957  23.562  44.328   7.824
  319POPC   C4B 6958  23.351  44.229   7.425
  320POPC   NC3 6959   5.387  42.938   9.540
  320POPC   PO4 6960   5.874  43.316   9.772
  320POPC   GL1 6961   5.964  43.228   9.297
  320POPC   GL2 6962   6.190  42.933   9.302
  320POPC   C1A 6963   5.880  43.049   8.841
  320POPC   D2A 6964   5.648  42.978   8.405
  320POPC   C3A 6965   5.741  43.144   7.952
  320POPC   C4A 6966   5.713  43.113   7.454
  320POPC   C1B 6967   6.323  42.743   8.890
  320POPC   C2B 6968   6.291  42.951   8.499
  320POPC   C3B 6969   6.182  42.879   8.071
  320POPC   C4B 6970   6.169  43.051   7.660
  321POPC   NC3 6971  43.854  43.484   9.664
  321POPC   PO4 6972  43.807  42.833   9.583
  321POPC   GL1 6973  43.821  43.065   9.185
  321POPC   GL2 6974  43.754  43.384   9.181
  321POPC   C1A 6975  43.977  43.248   8.754
  321POPC   D2A 6976  44.066  43.227   8.315
  321POPC   C3A 6977  44.079  42.813   8.115
  321POPC   C4A 6978  43.999  42.704   7.684
  321POPC   C1B 6979  43.644  43.652   8.820
  321POPC   C2B 6980  43.508  43.668   8.396
  321POPC   C3B 6981  43.579  43.505   7.979
  321POPC   C4B 6982  43.760  43.134   7.829
  322POPC   NC3 6983  24.391  19.689   9.367
  322POPC   PO4 6984  24.657  20.288   9.445
  322POPC   GL1 6985  24.536  20.102   9.076
  322POPC   GL2 6986  24.175  20.081   9.126
  322POPC   C1A 6987  24.572  19.777   8.740
  322POPC   D2A 6988  24.416  19.665   8.322
  322POPC   C3A 6989  24.680  19.733   7.983
  322POPC   C4A 6990  24.605  19.974   7.605
  322POPC   C1B 6991  24.066  19.823   8.787
  322POPC   C2B 6992  24.005  19.959   8.383
  322POPC   C3B 6993  24.173  19.962   7.964
  322POPC   C4B 6994  23.910  20.229   7.726
  323POPC   NC3 6995  44.523   1.676   9.882
  323POPC   PO4 6996  44.557   2.186   9.453
  323POPC   GL1 6997  44.589   2.237   9.047
  323POPC   GL2 6998  44.851   2.044   8.943
  323POPC   C1A 6999  44.322   2.383   8.725
  323POPC   D2A 7000  44.168   2.242   8.369
  323POPC   C3A 7001  44.343   2.084   8.033
  323POPC   C4A 7002  44.404   2.224   7.639
  323POPC   C1B 7003  44.576   1.946   8.621
  323POPC   C2B 7004  44.678   1.776   8.246
  323POPC   C3B 7005  44.854   2.026   7.912
  323POPC   C4B 7006  44.847   2.028   7.480
  324POPC   NC3 7007  30.630  39.911   9.672
  324POPC   PO4 7008  30.722  40.548   9.626
  324POPC   GL1 7009  30.534  40.246   9.295
  324POPC   GL2 7010  30.563  39.870   9.182
  324POPC   C1A 7011  30.322  40.222   8.880
  324POPC   D2A 7012  30.459  40.024   8.520
  324POPC   C3A 7013  30.289  40.098   8.105
  324POPC   C4A 7014  30.609  40.185   7.790
  324POPC   C1B 7015  30.818  39.714   8.849
  324POPC   C2B 7016  30.721  39.576   8.438
  324POPC   C3B 7017  30.567  39.683   8.044
  324POPC   C4B 7018  30.755  39.675   7.644
  325POPC   NC3 7019  14.678  37.429   9.167
  325POPC   PO4 7020  15.071  37.067   9.577
  325POPC   GL1 7021  15.040  37.060   9.140
  325POPC   GL2 7022  15.257  37.319   9.060
  325POPC   C1A 7023  15.035  36.878   8.713
  325POPC   D2A 7024  15.186  36.549   8.427
  325POPC   C3A 7025  15.117  36.639   7.995
  325POPC   C4A 7026  15.476  36.737   7.774
  325POPC   C1B 7027  15.076  37.391   8.649
  325POPC   C2B 7028  15.053  37.152   8.277
  325POPC   C3B 7029  14.795  37.109   7.939
  325POPC   C4B 7030  14.962  36.966   7.624
  326POPC   NC3 7031   7.902   2.262   9.356
  326POPC   PO4 7032   8.325   1.758   9.447
  326POPC   GL1 7033   8.218   1.971   9.083
  326POPC   GL2 7034   8.336   2.340   9.081
  326POPC   C1A 7035   7.962   1.943   8.708
  326POPC   D2A 7036   8.067   1.738   8.331
  326POPC   C3A 7037   7.969   1.930   7.959
  326POPC   C4A 7038   8.185   1.877   7.578
  326POPC   C1B 7039   8.438   2.190   8.678
  326POPC   C2B 7040   8.289   2.206   8.253
  326POPC   C3B 7041   8.405   2.281   7.815
  326POPC   C4B 7042   8.446   2.298   7.348
  327POPC   NC3 7043  26.235   3.185   9.583
  327POPC   PO4 7044  25.883   3.752   9.547
  327POPC   GL1 7045  25.939   3.451   9.244
  327POPC   GL2 7046  26.295   3.516   9.173
  327POPC   C1A 7047  25.852   3.319   8.833
  327POPC   D2A 7048  26.061   3.377   8.446
  327POPC   C3A 7049  25.817   3.396   8.082
  327POPC   C4A 7050  25.990   3.638   7.730
  327POPC   C1B 7051  26.169   3.738   8.788
  327POPC   C2B 7052  26.229   3.910   8.363
  327POPC   C3B 7053  26.407   3.855   7.932
  327POPC   C4B 7054  26.520   3.914   7.487
  328POPC   NC3 7055  36.482   9.685   9.489
  328POPC   PO4 7056  35.809   9.587   9.449
  328POPC   GL1 7057  36.046   9.738   9.176
  328POPC   GL2 7058  36.231   9.479   9.075
  328POPC   C1A 7059  36.091   9.946   8.820
  328POPC   D2A 7060  36.090   9.909   8.394
  328POPC   C3A 7061  35.875   9.747   8.036
  328POPC   C4A 7062  36.001   9.710   7.593
  328POPC   C1B 7063  35.974   9.460   8.726
  328POPC   C2B 7064  36.156   9.387   8.344
  328POPC   C3B 7065  36.284   9.453   7.932
  328POPC   C4B 7066  35.972   9.210   7.755
  329POPC   NC3 7067  38.708   8.863   9.546
  329POPC   PO4 7068  38.120   8.710   9.160
  329POPC   GL1 7069  38.491   8.974   9.101
  329POPC   GL2 7070  38.807   8.823   9.056
  329POPC   C1A 7071  38.465   9.249   8.801
  329POPC   D2A 7072  38.401   9.206   8.362
  329POPC   C3A 7073  38.667   9.378   8.051
  329POPC   C4A 7074  38.523   9.232   7.678
  329POPC   C1B 7075  38.598   8.783   8.648
  329POPC   C2B 7076  38.413   8.622   8.278
  329POPC   C3B 7077  38.407   8.701   7.845
  329POPC   C4B 7078  38.459   8.443   7.484
  330POPC   NC3 7079   7.115  29.769   9.611
  330POPC   PO4 7080   7.568  30.215   9.775
  330POPC   GL1 7081   7.432  30.014   9.303
  330POPC   GL2 7082   7.081  30.013   9.169
  330POPC   C1A 7083   7.503  29.960   8.846
  330POPC   D2A 7084   7.325  29.895   8.431
  330POPC   C3A 7085   7.456  30.084   8.031
  330POPC   C4A 7086   7.541  29.847   7.655
  330POPC   C1B 7087   7.003  29.767   8.823
  330POPC   C2B 7088   6.825  29.768   8.458
  330POPC   C3B 7089   6.928  30.021   8.126
  330POPC   C4B 7090   7.051  29.982   7.720
  331POPC   NC3 7091  26.746   5.336   9.589
  331POPC   PO4 7092  27.240   5.021   9.711
  331POPC   GL1 7093  26.874   5.070   9.185
  331POPC   GL2 7094  26.572   5.278   9.109
  331POPC   C1A 7095  27.001   5.053   8.709
  331POPC   D2A 7096  27.234   4.938   8.345
  331POPC   C3A 7097  27.038   5.056   7.955
  331POPC   C4A 7098  27.033   5.212   7.549
  331POPC   C1B 7099  26.503   5.220   8.663
  331POPC   C2B 7100  26.729   5.292   8.273
  331POPC   C3B 7101  26.615   5.371   7.825
  331POPC   C4B 7102  26.514   5.237   7.405
  332POPC   NC3 7103  14.818  25.778   9.554
  332POPC   PO4 7104  14.287  26.266   9.522
  332POPC   GL1 7105  14.451  26.184   9.144
  332POPC   GL2 7106  14.529  25.819   9.140
  332POPC   C1A 7107  14.492  26.093   8.738
  332POPC   D2A 7108  14.515  25.764   8.477
  332POPC   C3A 7109  14.298  25.850   8.104
  332POPC   C4A 7110  14.093  26.087   7.815
  332POPC   C1B 7111  14.885  25.774   8.838
  332POPC   C2B 7112  15.018  25.782   8.404
  332POPC   C3B 7113  14.810  25.892   8.019
  332POPC   C4B 7114  14.568  25.825   7.651
  333POPC   NC3 7115  43.703   7.644   9.498
  333POPC   PO4 7116  44.204   7.200   9.460
  333POPC   GL1 7117  44.056   7.392   9.105
  333POPC   GL2 7118  43.731   7.270   9.107
  333POPC   C1A 7119  43.956   7.265   8.660
  333POPC   D2A 7120  43.717   7.307   8.260
  333POPC   C3A 7121  43.974   7.407   7.886
  333POPC   C4A 7122  43.927   7.515   7.441
  333POPC   C1B 7123  43.603   6.938   8.792
  333POPC   C2B 7124  43.791   6.824   8.363
  333POPC   C3B 7125  43.611   6.892   7.941
  333POPC   C4B 7126  43.587   7.193   7.631
  334POPC   NC3 7127  35.616  21.652   9.439
  334POPC   PO4 7128  35.581  21.093   9.780
  334POPC   GL1 7129  35.389  21.205   9.317
  334POPC   GL2 7130  35.123  21.469   9.285
  334POPC   C1A 7131  35.419  21.437   8.877
  334POPC   D2A 7132  35.593  21.295   8.506
  334POPC   C3A 7133  35.411  21.393   8.149
  334POPC   C4A 7134  35.562  21.297   7.777
  334POPC   C1B 7135  34.995  21.729   8.881
  334POPC   C2B 7136  35.221  21.783   8.492
  334POPC   C3B 7137  35.106  21.894   8.089
  334POPC   C4B 7138  35.232  21.687   7.728
  335POPC   NC3 7139   5.718   5.662   9.514
  335POPC   PO4 7140   6.061   6.152   9.549
  335POPC   GL1 7141   5.954   5.935   9.150
  335POPC   GL2 7142   6.035   5.571   9.132
  335POPC   C1A 7143   5.677   5.948   8.781
  335POPC   D2A 7144   5.499   6.167   8.389
  335POPC   C3A 7145   5.630   5.945   8.010
  335POPC   C4A 7146   5.918   6.031   7.712
  335POPC   C1B 7147   6.110   5.668   8.729
  335POPC   C2B 7148   5.865   5.669   8.380
  335POPC   C3B 7149   6.032   5.593   7.977
  335POPC   C4B 7150   5.790   5.534   7.627
  336POPC   NC3 7151  34.566  20.114   9.540
  336POPC   PO4 7152  34.917  19.528   9.491
  336POPC   GL1 7153  34.691  19.743   9.162
  336POPC   GL2 7154  34.322  19.704   9.105
  336POPC   C1A 7155  34.748  19.776   8.724
  336POPC   D2A 7156  34.823  19.561   8.340
  336POPC   C3A 7157  34.793  19.776   7.962
  336POPC   C4A 7158  34.417  19.711   7.799
  336POPC   C1B 7159  34.413  20.122   8.915
  336POPC   C2B 7160  34.518  20.242   8.510
  336POPC   C3B 7161  34.381  20.122   8.122
  336POPC   C4B 7162  34.462  20.226   7.713
  337POPC   NC3 7163  12.998  26.828   9.588
  337POPC   PO4 7164  12.694  26.354   9.247
  337POPC   GL1 7165  12.860  26.688   9.113
  337POPC   GL2 7166  13.210  26.554   9.152
  337POPC   C1A 7167  12.767  26.901   8.743
  337POPC   D2A 7168  12.713  27.095   8.361
  337POPC   C3A 7169  12.892  26.967   7.993
  337POPC   C4A 7170  12.932  27.217   7.622
  337POPC   C1B 7171  13.106  26.393   8.739
  337POPC   C2B 7172  13.004  26.585   8.376
  337POPC   C3B 7173  12.873  26.425   8.026
  337POPC   C4B 7174  12.918  26.570   7.673
  338POPC   NC3 7175   4.589  41.790   9.615
  338POPC   PO4 7176   4.089  41.339   9.611
  338POPC   GL1 7177   4.299  41.478   9.249
  338POPC   GL2 7178   4.144  41.792   9.326
  338POPC   C1A 7179   4.426  41.473   8.801
  338POPC   D2A 7180   4.270  41.278   8.413
  338POPC   C3A 7181   4.351  41.506   8.088
  338POPC   C4A 7182   4.456  41.345   7.744
  338POPC   C1B 7183   4.021  41.802   8.907
  338POPC   C2B 7184   4.053  41.727   8.477
  338POPC   C3B 7185   4.146  41.968   8.115
  338POPC   C4B 7186   4.389  41.894   7.747
  339POPC   NC3 7187  35.086  40.980   9.470
  339POPC   PO4 7188  35.292  40.308   9.557
  339POPC   GL1 7189  35.361  40.611   9.144
  339POPC   GL2 7190  35.324  40.965   9.027
  339POPC   C1A 7191  35.565  40.675   8.695
  339POPC   D2A 7192  35.388  40.659   8.267
  339POPC   C3A 7193  35.184  40.999   8.095
  339POPC   C4A 7194  35.159  40.974   7.677
  339POPC   C1B 7195  35.282  41.100   8.593
  339POPC   C2B 7196  35.640  41.119   8.297
  339POPC   C3B 7197  35.645  40.951   7.866
  339POPC   C4B 7198  35.486  40.574   7.680
  340POPC   NC3 7199  21.494   7.220   9.313
  340POPC   PO4 7200  21.605   7.823   9.517
  340POPC   GL1 7201  21.421   7.692   9.131
  340POPC   GL2 7202  21.687   7.512   8.931
  340POPC   C1A 7203  21.289   7.767   8.730
  340POPC   D2A 7204  21.424   7.596   8.345
  340POPC   C3A 7205  21.145   7.735   8.031
  340POPC   C4A 7206  20.944   7.552   7.671
  340POPC   C1B 7207  21.329   7.251   8.723
  340POPC   C2B 7208  21.164   7.119   8.370
  340POPC   C3B 7209  21.299   7.244   7.983
  340POPC   C4B 7210  21.252   7.121   7.597
  341POPC   NC3 7211  20.779   5.495   9.602
  341POPC   PO4 7212  21.277   4.984   9.453
  341POPC   GL1 7213  21.452   5.068   9.069
  341POPC   GL2 7214  21.380   5.427   9.079
  341POPC   C1A 7215  21.325   4.969   8.643
  341POPC   D2A 7216  21.136   4.968   8.236
  341POPC   C3A 7217  21.403   4.774   7.905
  341POPC   C4A 7218  21.172   4.754   7.527
  341POPC   C1B 7219  21.536   5.432   8.656
  341POPC   C2B 7220  21.542   5.309   8.227
  341POPC   C3B 7221  21.349   5.300   7.861
  341POPC   C4B 7222  21.370   5.601   7.529
  342POPC   NC3 7223  22.488  34.522   9.487
  342POPC   PO4 7224  21.802  34.258   9.564
  342POPC   GL1 7225  22.070  34.390   9.214
  342POPC   GL2 7226  21.874  34.222   9.027
  342POPC   C1A 7227  22.293  34.409   8.774
  342POPC   D2A 7228  22.258  34.235   8.335
  342POPC   C3A 7229  22.430  34.445   7.984
  342POPC   C4A 7230  22.253  34.571   7.632
  342POPC   C1B 7231  21.842  34.632   8.817
  342POPC   C2B 7232  21.838  34.561   8.414
  342POPC   C3B 7233  21.867  34.422   8.021
  342POPC   C4B 7234  21.684  34.393   7.653
  343POPC   NC3 7235  14.256   9.867   9.406
  343POPC   PO4 7236  14.863   9.526   9.392
  343POPC   GL1 7237  14.643   9.706   9.098
  343POPC   GL2 7238  14.646  10.034   9.119
  343POPC   C1A 7239  14.381   9.756   8.747
  343POPC   D2A 7240  14.471   9.561   8.360
  343POPC   C3A 7241  14.138   9.432   8.108
  343POPC   C4A 7242  14.152   9.687   7.765
  343POPC   C1B 7243  14.765  10.263   8.809
  343POPC   C2B 7244  14.578  10.116   8.439
  343POPC   C3B 7245  14.567   9.943   8.021
  343POPC   C4B 7246  14.751  10.167   7.671
  344POPC   NC3 7247  30.608  41.836   9.505
  344POPC   PO4 7248  30.338  42.449   9.540
  344POPC   GL1 7249  30.382  42.431   9.097
  344POPC   GL2 7250  30.674  42.199   9.082
  344POPC   C1A 7251  30.495  42.652   8.712
  344POPC   D2A 7252  30.540  42.592   8.256
  344POPC   C3A 7253  30.923  42.525   8.035
  344POPC   C4A 7254  30.882  42.322   7.648
  344POPC   C1B 7255  30.944  42.018   8.764
  344POPC   C2B 7256  30.952  42.106   8.342
  344POPC   C3B 7257  30.615  42.078   8.023
  344POPC   C4B 7258  30.516  41.971   7.588
  345POPC   NC3 7259  41.709   2.966   9.542
  345POPC   PO4 7260  41.322   2.467   9.340
  345POPC   GL1 7261  41.465   2.726   9.100
  345POPC   GL2 7262  41.332   2.996   9.104
  345POPC   C1A 7263  41.595   2.721   8.719
  345POPC   D2A 7264  41.485   2.509   8.350
  345POPC   C3A 7265  41.587   2.690   7.986
  345POPC   C4A 7266  41.887   2.591   7.786
  345POPC   C1B 7267  41.126   3.008   8.693
  345POPC   C2B 7268  41.045   2.932   8.232
  345POPC   C3B 7269  41.202   2.953   7.784
  345POPC   C4B 7270  41.126   2.977   7.309
  346POPC   NC3 7271  38.081  30.890   9.453
  346POPC   PO4 7272  37.436  30.778   9.394
  346POPC   GL1 7273  37.739  30.742   9.092
  346POPC   GL2 7274  37.901  30.433   8.974
  346POPC   C1A 7275  37.653  30.759   8.670
  346POPC   D2A 7276  37.796  30.535   8.335
  346POPC   C3A 7277  37.475  30.721   8.097
  346POPC   C4A 7278  37.280  30.568   7.770
  346POPC   C1B 7279  38.150  30.797   8.787
  346POPC   C2B 7280  38.105  30.984   8.379
  346POPC   C3B 7281  37.950  30.873   7.985
  346POPC   C4B 7282  37.806  30.489   7.764
  347POPC   NC3 7283   0.139   8.543   9.476
  347POPC   PO4 7284   0.650   8.084   9.540
  347POPC   GL1 7285   0.584   8.272   9.156
  347POPC   GL2 7286   0.238   8.234   9.094
  347POPC   C1A 7287   0.578   8.440   8.721
  347POPC   D2A 7288   0.569   8.665   8.316
  347POPC   C3A 7289   0.611   8.391   7.976
  347POPC   C4A 7290   0.838   8.219   7.679
  347POPC   C1B 7291   0.264   8.039   8.708
  347POPC   C2B 7292   0.253   8.207   8.291
  347POPC   C3B 7293   0.271   8.025   7.868
  347POPC   C4B 7294   0.309   8.075   7.434
  348POPC   NC3 7295  14.298  43.644   9.574
  348POPC   PO4 7296  14.644  43.070   9.473
  348POPC   GL1 7297  14.683  43.244   9.078
  348POPC   GL2 7298  14.335  43.302   9.070
  348POPC   C1A 7299  14.613  43.247   8.624
  348POPC   D2A 7300  14.389  43.088   8.290
  348POPC   C3A 7301  14.607  43.199   7.960
  348POPC   C4A 7302  14.762  43.075   7.585
  348POPC   C1B 7303  14.110  43.123   8.725
  348POPC   C2B 7304  13.897  43.224   8.323
  348POPC   C3B 7305  14.077  43.207   7.887
  348POPC   C4B 7306  14.250  43.174   7.463
  349POPC   NC3 7307  17.670  27.449   9.520
  349POPC   PO4 7308  17.581  26.789   9.723
  349POPC   GL1 7309  17.629  26.849   9.278
  349POPC   GL2 7310  17.508  27.152   9.146
  349POPC   C1A 7311  17.735  26.708   8.847
  349POPC   D2A 7312  17.729  26.442   8.459
  349POPC   C3A 7313  17.527  26.562   8.099
  349POPC   C4A 7314  17.408  26.650   7.696
  349POPC   C1B 7315  17.297  26.999   8.805
  349POPC   C2B 7316  17.504  26.965   8.435
  349POPC   C3B 7317  17.412  27.049   8.038
  349POPC   C4B 7318  17.593  27.112   7.680
  350POPC   NC3 7319  27.770  10.255   9.504
  350POPC   PO4 7320  27.877  10.909   9.428
  350POPC   GL1 7321  27.835  10.603   9.072
  350POPC   GL2 7322  27.733  10.251   9.005
  350POPC   C1A 7323  27.875  10.554   8.625
  350POPC   D2A 7324  28.119  10.531   8.288
  350POPC   C3A 7325  27.835  10.674   8.012
  350POPC   C4A 7326  27.659  10.506   7.656
  350POPC   C1B 7327  27.404  10.389   8.702
  350POPC   C2B 7328  27.423  10.577   8.288
  350POPC   C3B 7329  27.196  10.503   7.884
  350POPC   C4B 7330  27.209  10.339   7.430
  351POPC   NC3 7331  33.298  42.115   9.511
  351POPC   PO4 7332  32.723  42.186   9.371
  351POPC   GL1 7333  33.035  42.251   9.078
  351POPC   GL2 7334  33.190  42.535   9.168
  351POPC   C1A 7335  33.258  42.305   8.715
  351POPC   D2A 7336  33.071  42.383   8.345
  351POPC   C3A 7337  33.248  42.138   8.031
  351POPC   C4A 7338  33.169  42.246   7.633
  351POPC   C1B 7339  33.389  42.795   8.847
  351POPC   C2B 7340  33.425  42.846   8.403
  351POPC   C3B 7341  33.304  42.695   7.997
  351POPC   C4B 7342  33.275  42.750   7.563
  352POPC   NC3 7343  16.255  23.765   9.319
  352POPC   PO4 7344  15.771  24.160   9.500
  352POPC   GL1 7345  15.826  23.919   9.084
  352POPC   GL2 7346  15.941  23.528   9.009
  352POPC   C1A 7347  16.037  23.845   8.653
  352POPC   D2A 7348  15.897  23.574   8.334
  352POPC   C3A 7349  16.052  23.710   7.937
  352POPC   C4A 7350  15.904  23.938   7.610
  352POPC   C1B 7351  15.741  23.249   8.746
  352POPC   C2B 7352  15.533  23.144   8.370
  352POPC   C3B 7353  15.674  23.264   7.981
  352POPC   C4B 7354  15.766  23.441   7.617
  353POPC   NC3 7355  25.923  36.157   9.615
  353POPC   PO4 7356  26.249  35.616   9.310
  353POPC   GL1 7357  26.238  36.023   9.199
  353POPC   GL2 7358  26.027  36.335   9.141
  353POPC   C1A 7359  26.340  36.093   8.802
  353POPC   D2A 7360  26.054  36.031   8.461
  353POPC   C3A 7361  25.934  36.317   8.160
  353POPC   C4A 7362  26.057  36.175   7.765
  353POPC   C1B 7363  25.706  36.293   8.802
  353POPC   C2B 7364  25.570  35.910   8.570
  353POPC   C3B 7365  25.634  35.899   8.112
  353POPC   C4B 7366  25.552  36.217   7.810
  354POPC   NC3 7367   6.296   4.884   9.758
  354POPC   PO4 7368   5.832   5.222   9.433
  354POPC   GL1 7369   5.871   5.032   9.077
  354POPC   GL2 7370   5.585   4.831   8.963
  354POPC   C1A 7371   5.831   5.233   8.709
  354POPC   D2A 7372   6.007   5.196   8.327
  354POPC   C3A 7373   5.775   5.127   7.955
  354POPC   C4A 7374   5.568   5.042   7.551
  354POPC   C1B 7375   5.943   4.741   8.639
  354POPC   C2B 7376   5.970   4.685   8.172
  354POPC   C3B 7377   5.938   4.709   7.710
  354POPC   C4B 7378   6.033   4.570   7.283
  355POPC   NC3 7379   0.109  31.942   9.470
  355POPC   PO4 7380  44.629  32.542   9.548
  355POPC   GL1 7381  44.774  32.313   9.203
  355POPC   GL2 7382   0.132  32.319   9.134
  355POPC   C1A 7383  44.611  32.223   8.777
  355POPC   D2A 7384  44.719  32.052   8.374
  355POPC   C3A 7385  44.752  32.250   7.954
  355POPC   C4A 7386  44.533  32.240   7.523
  355POPC   C1B 7387   0.113  32.075   8.747
  355POPC   C2B 7388   0.181  31.805   8.370
  355POPC   C3B 7389  44.908  31.745   7.994
  355POPC   C4B 7390  44.934  31.944   7.568
  356POPC   NC3 7391  44.363  28.835   9.625
  356POPC   PO4 7392   0.016  29.095   9.673
  356POPC   GL1 7393  44.733  29.146   9.306
  356POPC   GL2 7394  44.631  28.851   9.138
  356POPC   C1A 7395  44.621  29.365   8.891
  356POPC   D2A 7396  44.736  29.518   8.464
  356POPC   C3A 7397  44.524  29.306   8.122
  356POPC   C4A 7398  44.534  29.058   7.765
  356POPC   C1B 7399  44.810  28.915   8.697
  356POPC   C2B 7400  44.582  28.798   8.292
  356POPC   C3B 7401  44.806  28.674   7.916
  356POPC   C4B 7402   0.139  28.880   7.653
  357POPC   NC3 7403  31.334  24.000   9.629
  357POPC   PO4 7404  31.508  23.383   9.643
  357POPC   GL1 7405  31.411  23.626   9.250
  357POPC   GL2 7406  31.672  23.888   9.200
  357POPC   C1A 7407  31.285  23.461   8.847
  357POPC   D2A 7408  31.410  23.613   8.439
  357POPC   C3A 7409  31.329  23.418   8.030
  357POPC   C4A 7410  31.439  23.619   7.683
  357POPC   C1B 7411  31.370  23.976   8.855
  357POPC   C2B 7412  31.482  24.138   8.456
  357POPC   C3B 7413  31.398  23.986   8.065
  357POPC   C4B 7414  31.411  24.130   7.690
  358POPC   NC3 7415  33.417  18.292   9.507
  358POPC   PO4 7416  33.991  18.623   9.459
  358POPC   GL1 7417  33.861  18.424   9.102
  358POPC   GL2 7418  33.668  18.106   9.086
  358POPC   C1A 7419  33.729  18.470   8.685
  358POPC   D2A 7420  33.642  18.237   8.312
  358POPC   C3A 7421  33.809  18.483   7.970
  358POPC   C4A 7422  33.966  18.355   7.601
  358POPC   C1B 7423  34.008  18.044   8.790
  358POPC   C2B 7424  34.058  17.846   8.388
  358POPC   C3B 7425  33.948  17.997   7.978
  358POPC   C4B 7426  33.553  18.071   7.730
  359POPC   NC3 7427   8.217  28.986   9.567
  359POPC   PO4 7428   8.195  29.561   9.514
  359POPC   GL1 7429   8.220  29.259   9.136
  359POPC   GL2 7430   8.411  28.956   9.061
  359POPC   C1A 7431   8.363  29.337   8.709
  359POPC   D2A 7432   8.214  29.559   8.330
  359POPC   C3A 7433   8.254  29.304   7.962
  359POPC   C4A 7434   8.416  28.988   7.709
  359POPC   C1B 7435   8.101  28.883   8.784
  359POPC   C2B 7436   8.052  29.060   8.392
  359POPC   C3B 7437   8.029  28.840   8.048
  359POPC   C4B 7438   7.894  28.953   7.688
  360POPC   NC3 7439   6.405  25.842   9.444
  360POPC   PO4 7440   6.976  26.204   9.514
  360POPC   GL1 7441   6.783  26.049   9.138
  360POPC   GL2 7442   6.637  26.354   9.100
  360POPC   C1A 7443   6.615  26.012   8.696
  360POPC   D2A 7444   6.410  26.157   8.349
  360POPC   C3A 7445   6.565  26.004   7.990
  360POPC   C4A 7446   6.763  25.895   7.617
  360POPC   C1B 7447   6.940  26.380   8.736
  360POPC   C2B 7448   6.930  26.261   8.288
  360POPC   C3B 7449   6.967  26.310   7.829
  360POPC   C4B 7450   7.049  26.236   7.364
  361POPC   NC3 7451  12.997  44.855   9.629
  361POPC   PO4 7452  13.195  44.223   9.536
  361POPC   GL1 7453  13.014  44.544   9.202
  361POPC   GL2 7454  13.184  44.855   9.108
  361POPC   C1A 7455  12.837  44.619   8.795
  361POPC   D2A 7456  12.783  44.809   8.369
  361POPC   C3A 7457  12.728  44.606   7.932
  361POPC   C4A 7458  12.531  44.609   7.514
  361POPC   C1B 7459  13.044   0.084   8.731
  361POPC   C2B 7460  13.058   0.264   8.323
  361POPC   C3B 7461  12.967   0.055   7.946
  361POPC   C4B 7462  13.016  44.818   7.521
  362POPC   NC3 7463  17.234  22.624   9.484
  362POPC   PO4 7464  17.559  23.192   9.431
  362POPC   GL1 7465  17.627  22.855   9.225
  362POPC   GL2 7466  17.336  22.893   9.054
  362POPC   C1A 7467  17.839  22.797   8.847
  362POPC   D2A 7468  17.857  23.088   8.512
  362POPC   C3A 7469  17.874  22.958   8.088
  362POPC   C4A 7470  17.659  22.997   7.714
  362POPC   C1B 7471  17.221  22.975   8.624
  362POPC   C2B 7472  17.371  23.123   8.213
  362POPC   C3B 7473  17.171  23.046   7.814
  362POPC   C4B 7474  16.975  23.274   7.484
  363POPC   NC3 7475  24.544   3.329   9.508
  363POPC   PO4 7476  24.384   3.984   9.553
  363POPC   GL1 7477  24.248   3.697   9.245
  363POPC   GL2 7478  24.563   3.623   9.074
  363POPC   C1A 7479  24.161   3.757   8.793
  363POPC   D2A 7480  24.439   3.605   8.454
  363POPC   C3A 7481  24.338   3.613   8.023
  363POPC   C4A 7482  24.700   3.435   7.770
  363POPC   C1B 7483  24.297   3.282   8.837
  363POPC   C2B 7484  24.452   3.049   8.497
  363POPC   C3B 7485  24.430   3.125   8.083
  363POPC   C4B 7486  24.207   3.187   7.716
  364POPC   NC3 7487   8.016  22.661   9.377
  364POPC   PO4 7488   8.434  23.193   9.514
  364POPC   GL1 7489   8.086  23.142   9.213
  364POPC   GL2 7490   8.147  23.402   9.037
  364POPC   C1A 7491   7.980  22.992   8.784
  364POPC   D2A 7492   8.263  22.820   8.469
  364POPC   C3A 7493   8.129  22.667   8.097
  364POPC   C4A 7494   8.131  22.763   7.691
  364POPC   C1B 7495   8.481  23.137   8.826
  364POPC   C2B 7496   8.610  23.203   8.392
  364POPC   C3B 7497   8.520  22.995   7.985
  364POPC   C4B 7498   8.396  23.132   7.521
  365POPC   NC3 7499  10.893  28.705   9.355
  365POPC   PO4 7500  11.319  28.162   9.619
  365POPC   GL1 7501  11.237  28.307   9.220
  365POPC   GL2 7502  10.891  28.193   9.202
  365POPC   C1A 7503  11.356  28.489   8.819
  365POPC   D2A 7504  11.514  28.793   8.504
  365POPC   C3A 7505  11.464  28.560   8.140
  365POPC   C4A 7506  11.329  28.533   7.745
  365POPC   C1B 7507  11.050  28.022   8.810
  365POPC   C2B 7508  11.137  28.209   8.430
  365POPC   C3B 7509  11.009  28.252   8.029
  365POPC   C4B 7510  11.230  28.030   7.755
  366POPC   NC3 7511  40.648  11.157   9.518
  366POPC   PO4 7512  40.505  11.818   9.425
  366POPC   GL1 7513  40.746  11.557   9.121
  366POPC   GL2 7514  40.735  11.196   9.031
  366POPC   C1A 7515  40.899  11.572   8.697
  366POPC   D2A 7516  40.619  11.572   8.352
  366POPC   C3A 7517  40.730  11.555   7.945
  366POPC   C4A 7518  40.989  11.299   7.719
  366POPC   C1B 7519  40.671  11.079   8.615
  366POPC   C2B 7520  40.823  11.097   8.211
  366POPC   C3B 7521  40.563  11.094   7.886
  366POPC   C4B 7522  40.301  10.893   7.711
  367POPC   NC3 7523   5.508  12.972   9.567
  367POPC   PO4 7524   6.022  12.613   9.669
  367POPC   GL1 7525   5.914  12.800   9.251
  367POPC   GL2 7526   5.617  12.672   9.149
  367POPC   C1A 7527   5.904  12.901   8.773
  367POPC   D2A 7528   6.191  12.761   8.412
  367POPC   C3A 7529   6.132  12.886   7.967
  367POPC   C4A 7530   5.838  13.217   7.878
  367POPC   C1B 7531   5.597  12.478   8.773
  367POPC   C2B 7532   5.636  12.648   8.372
  367POPC   C3B 7533   5.582  12.447   7.995
  367POPC   C4B 7534   5.648  12.752   7.739
  368POPC   NC3 7535  29.973  42.713   9.558
  368POPC   PO4 7536  30.017  43.418   9.629
  368POPC   GL1 7537  29.813  43.349   9.226
  368POPC   GL2 7538  29.858  43.018   9.134
  368POPC   C1A 7539  29.852  43.392   8.777
  368POPC   D2A 7540  30.083  43.352   8.423
  368POPC   C3A 7541  29.900  43.452   8.059
  368POPC   C4A 7542  29.947  43.338   7.668
  368POPC   C1B 7543  29.928  42.875   8.726
  368POPC   C2B 7544  30.082  42.821   8.329
  368POPC   C3B 7545  29.911  42.909   7.944
  368POPC   C4B 7546  30.071  42.853   7.523
  369POPC   NC3 7547  19.526   7.404   9.435
  369POPC   PO4 7548  20.117   7.325   9.726
  369POPC   GL1 7549  20.050   7.386   9.275
  369POPC   GL2 7550  19.866   7.682   9.143
  369POPC   C1A 7551  20.074   7.348   8.826
  369POPC   D2A 7552  19.870   7.544   8.479
  369POPC   C3A 7553  19.961   7.324   8.101
  369POPC   C4A 7554  19.955   7.342   7.666
  369POPC   C1B 7555  19.523   7.752   8.821
  369POPC   C2B 7556  19.344   7.549   8.450
  369POPC   C3B 7557  19.454   7.508   7.984
  369POPC   C4B 7558  19.433   7.828   7.636
  370POPC   NC3 7559  31.534  28.909   9.329
  370POPC   PO4 7560  31.124  29.449   9.208
  370POPC   GL1 7561  31.341  29.253   8.913
  370POPC   GL2 7562  31.680  29.285   8.997
  370POPC   C1A 7563  31.511  29.452   8.553
  370POPC   D2A 7564  31.651  29.551   8.163
  370POPC   C3A 7565  31.463  29.275   7.888
  370POPC   C4A 7566  31.422  28.824   7.838
  370POPC   C1B 7567  31.740  28.985   8.711
  370POPC   C2B 7568  31.602  28.981   8.313
  370POPC   C3B 7569  31.878  28.985   8.030
  370POPC   C4B 7570  31.835  29.052   7.647
  371POPC   NC3 7571  14.443  37.858   9.710
  371POPC   PO4 7572  14.280  37.281   9.355
  371POPC   GL1 7573  14.182  37.598   9.091
  371POPC   GL2 7574  14.431  37.894   9.137
  371POPC   C1A 7575  14.218  37.543   8.648
  371POPC   D2A 7576  14.520  37.266   8.419
  371POPC   C3A 7577  14.622  37.553   8.099
  371POPC   C4A 7578  14.438  37.507   7.700
  371POPC   C1B 7579  14.066  38.040   8.883
  371POPC   C2B 7580  13.923  37.981   8.455
  371POPC   C3B 7581  14.144  38.171   8.111
  371POPC   C4B 7582  14.446  37.993   7.834
  372POPC   NC3 7583  37.820  22.738   9.269
  372POPC   PO4 7584  38.120  23.319   9.511
  372POPC   GL1 7585  37.988  23.198   9.099
  372POPC   GL2 7586  37.653  23.210   9.102
  372POPC   C1A 7587  37.833  23.042   8.677
  372POPC   D2A 7588  37.703  23.210   8.311
  372POPC   C3A 7589  37.726  22.900   8.015
  372POPC   C4A 7590  37.931  22.730   7.684
  372POPC   C1B 7591  37.389  23.304   8.788
  372POPC   C2B 7592  37.200  23.115   8.437
  372POPC   C3B 7593  37.303  23.187   7.975
  372POPC   C4B 7594  37.412  22.924   7.616
  373POPC   NC3 7595   8.216  36.377   9.522
  373POPC   PO4 7596   8.033  37.031   9.433
  373POPC   GL1 7597   8.163  36.779   9.114
  373POPC   GL2 7598   7.887  36.578   9.153
  373POPC   C1A 7599   8.231  36.876   8.662
  373POPC   D2A 7600   8.508  37.022   8.330
  373POPC   C3A 7601   8.309  37.151   7.943
  373POPC   C4A 7602   8.408  37.044   7.507
  373POPC   C1B 7603   7.921  36.459   8.749
  373POPC   C2B 7604   7.814  36.433   8.347
  373POPC   C3B 7605   7.950  36.743   8.071
  373POPC   C4B 7606   7.986  36.808   7.638
  374POPC   NC3 7607  32.660   4.780   9.297
  374POPC   PO4 7608  33.090   5.233   9.607
  374POPC   GL1 7609  32.959   5.200   9.229
  374POPC   GL2 7610  33.268   5.216   9.124
  374POPC   C1A 7611  32.834   5.183   8.809
  374POPC   D2A 7612  32.767   5.424   8.452
  374POPC   C3A 7613  32.898   5.240   8.042
  374POPC   C4A 7614  32.667   5.114   7.668
  374POPC   C1B 7615  33.340   5.050   8.713
  374POPC   C2B 7616  33.071   4.808   8.480
  374POPC   C3B 7617  32.934   4.734   8.076
  374POPC   C4B 7618  33.092   4.832   7.694
  375POPC   NC3 7619  18.219   6.281   9.489
  375POPC   PO4 7620  18.437   5.775   9.891
  375POPC   GL1 7621  18.443   5.826   9.385
  375POPC   GL2 7622  18.129   5.893   9.175
  375POPC   C1A 7623  18.559   5.876   8.912
  375POPC   D2A 7624  18.497   5.995   8.457
  375POPC   C3A 7625  18.528   5.722   8.082
  375POPC   C4A 7626  18.385   5.631   7.669
  375POPC   C1B 7627  18.089   5.777   8.726
  375POPC   C2B 7628  18.070   5.695   8.282
  375POPC   C3B 7629  17.984   5.893   7.877
  375POPC   C4B 7630  17.618   5.977   7.599
  376POPC   NC3 7631  22.353  18.467   9.626
  376POPC   PO4 7632  22.021  17.752   9.566
  376POPC   GL1 7633  22.084  17.949   9.156
  376POPC   GL2 7634  22.219  18.288   9.176
  376POPC   C1A 7635  21.910  18.181   8.785
  376POPC   D2A 7636  22.093  18.380   8.408
  376POPC   C3A 7637  21.897  18.287   8.031
  376POPC   C4A 7638  21.895  18.153   7.621
  376POPC   C1B 7639  22.422  18.181   8.792
  376POPC   C2B 7640  22.607  18.199   8.396
  376POPC   C3B 7641  22.426  18.261   8.028
  376POPC   C4B 7642  22.342  18.419   7.649
  377POPC   NC3 7643  29.358  26.334   9.590
  377POPC   PO4 7644  29.131  26.934   9.442
  377POPC   GL1 7645  29.123  26.704   9.103
  377POPC   GL2 7646  29.425  26.598   9.168
  377POPC   C1A 7647  29.164  26.836   8.699
  377POPC   D2A 7648  29.466  26.976   8.418
  377POPC   C3A 7649  29.404  26.762   8.027
  377POPC   C4A 7650  29.062  26.842   7.769
  377POPC   C1B 7651  29.629  26.652   8.815
  377POPC   C2B 7652  29.614  26.487   8.432
  377POPC   C3B 7653  29.673  26.202   8.131
  377POPC   C4B 7654  29.734  26.452   7.786
  378POPC   NC3 7655  40.423  20.448  10.001
  378POPC   PO4 7656  40.625  20.810   9.469
  378POPC   GL1 7657  40.737  20.618   9.110
  378POPC   GL2 7658  40.476  20.434   9.123
  378POPC   C1A 7659  41.018  20.487   8.799
  378POPC   D2A 7660  41.062  20.641   8.379
  378POPC   C3A 7661  40.654  20.716   8.205
  378POPC   C4A 7662  40.645  20.554   7.808
  378POPC   C1B 7663  40.462  20.564   8.669
  378POPC   C2B 7664  40.467  20.254   8.302
  378POPC   C3B 7665  40.344  20.114   7.880
  378POPC   C4B 7666  40.345  20.305   7.453
  379POPC   NC3 7667  32.180  27.133   9.839
  379POPC   PO4 7668  31.894  26.672   9.371
  379POPC   GL1 7669  32.053  26.734   8.986
  379POPC   GL2 7670  32.372  26.879   9.026
  379POPC   C1A 7671  32.120  27.096   8.664
  379POPC   D2A 7672  32.252  27.089   8.269
  379POPC   C3A 7673  31.973  26.934   7.990
  379POPC   C4A 7674  31.852  26.595   7.715
  379POPC   C1B 7675  32.438  26.695   8.669
  379POPC   C2B 7676  32.348  26.569   8.289
  379POPC   C3B 7677  32.424  26.733   7.888
  379POPC   C4B 7678  32.657  26.897   7.566
  380POPC   NC3 7679  32.853  31.148   9.493
  380POPC   PO4 7680  32.732  31.790   9.513
  380POPC   GL1 7681  32.953  31.644   9.114
  380POPC   GL2 7682  32.872  31.345   9.007
  380POPC   C1A 7683  33.286  31.509   8.769
  380POPC   D2A 7684  33.552  31.692   8.471
  380POPC   C3A 7685  33.555  31.530   8.062
  380POPC   C4A 7686  33.276  31.457   7.742
  380POPC   C1B 7687  32.835  31.655   8.613
  380POPC   C2B 7688  33.001  31.572   8.190
  380POPC   C3B 7689  32.798  31.319   7.842
  380POPC   C4B 7690  32.698  30.891   7.768
  381POPC   NC3 7691  36.408   7.672   9.609
  381POPC   PO4 7692  35.779   7.432   9.594
  381POPC   GL1 7693  35.932   7.709   9.241
  381POPC   GL2 7694  36.290   7.782   9.138
  381POPC   C1A 7695  35.852   7.743   8.810
  381POPC   D2A 7696  35.944   7.529   8.407
  381POPC   C3A 7697  35.962   7.707   7.980
  381POPC   C4A 7698  36.006   7.370   7.680
  381POPC   C1B 7699  36.308   7.478   8.832
  381POPC   C2B 7700  36.466   7.321   8.459
  381POPC   C3B 7701  36.378   7.308   8.048
  381POPC   C4B 7702  36.501   7.602   7.788
  382POPC   NC3 7703   0.430   1.566   9.830
  382POPC   PO4 7704   0.085   1.350   9.307
  382POPC   GL1 7705   0.169   1.164   8.928
  382POPC   GL2 7706   0.309   0.816   8.984
  382POPC   C1A 7707   0.482   1.332   8.689
  382POPC   D2A 7708   0.754   1.246   8.354
  382POPC   C3A 7709   0.488   1.338   8.011
  382POPC   C4A 7710   0.511   1.314   7.600
  382POPC   C1B 7711   0.548   0.830   8.637
  382POPC   C2B 7712   0.337   0.918   8.270
  382POPC   C3B 7713   0.355   0.882   7.806
  382POPC   C4B 7714   0.090   1.056   7.495
  383POPC   NC3 7715  39.406  31.949   9.170
  383POPC   PO4 7716  39.372  32.474   9.644
  383POPC   GL1 7717  39.168  32.639   9.184
  383POPC   GL2 7718  39.061  32.329   9.034
  383POPC   C1A 7719  39.280  32.656   8.702
  383POPC   D2A 7720  39.328  32.357   8.349
  383POPC   C3A 7721  39.338  32.523   7.945
  383POPC   C4A 7722  39.612  32.425   7.609
  383POPC   C1B 7723  39.039  32.094   8.674
  383POPC   C2B 7724  39.391  31.844   8.472
  383POPC   C3B 7725  39.576  31.855   8.066
  383POPC   C4B 7726  39.389  31.949   7.683
  384POPC   NC3 7727  10.180  35.175   9.569
  384POPC   PO4 7728  10.788  35.051   9.294
  384POPC   GL1 7729  10.401  35.190   9.110
  384POPC   GL2 7730  10.393  35.499   9.136
  384POPC   C1A 7731  10.205  35.246   8.726
  384POPC   D2A 7732  10.378  35.254   8.327
  384POPC   C3A 7733  10.135  35.444   8.014
  384POPC   C4A 7734  10.247  35.333   7.640
  384POPC   C1B 7735  10.696  35.408   8.753
  384POPC   C2B 7736  10.790  35.586   8.380
  384POPC   C3B 7737  10.712  35.413   7.938
  384POPC   C4B 7738  10.806  35.526   7.501
  385POPC   NC3 7739  11.843   1.789   9.503
  385POPC   PO4 7740  12.340   2.202   9.663
  385POPC   GL1 7741  12.141   2.142   9.255
  385POPC   GL2 7742  12.207   1.797   9.148
  385POPC   C1A 7743  12.097   2.150   8.790
  385POPC   D2A 7744  12.270   2.314   8.393
  385POPC   C3A 7745  12.157   2.125   8.000
  385POPC   C4A 7746  12.129   2.289   7.566
  385POPC   C1B 7747  11.945   1.662   8.835
  385POPC   C2B 7748  11.860   1.806   8.423
  385POPC   C3B 7749  11.917   1.659   8.021
  385POPC   C4B 7750  12.086   1.776   7.640
  386POPC   NC3 7751  21.683  11.622   9.226
  386POPC   PO4 7752  22.022  12.029   9.620
  386POPC   GL1 7753  21.920  12.094   9.138
  386POPC   GL2 7754  21.571  12.115   9.065
  386POPC   C1A 7755  21.902  11.954   8.661
  386POPC   D2A 7756  21.780  11.932   8.192
  386POPC   C3A 7757  21.442  11.749   7.923
  386POPC   C4A 7758  21.010  11.802   7.793
  386POPC   C1B 7759  21.530  12.394   8.689
  386POPC   C2B 7760  21.409  12.354   8.255
  386POPC   C3B 7761  21.462  12.275   7.810
  386POPC   C4B 7762  21.524  12.336   7.372
  387POPC   NC3 7763  36.814  20.505   9.554
  387POPC   PO4 7764  37.324  20.198   9.311
  387POPC   GL1 7765  36.928  20.293   9.091
  387POPC   GL2 7766  36.823  20.672   9.076
  387POPC   C1A 7767  36.886  20.389   8.660
  387POPC   D2A 7768  37.148  20.527   8.340
  387POPC   C3A 7769  36.916  20.421   8.024
  387POPC   C4A 7770  36.830  20.352   7.617
  387POPC   C1B 7771  37.126  20.841   8.761
  387POPC   C2B 7772  37.062  21.022   8.347
  387POPC   C3B 7773  37.065  20.888   7.922
  387POPC   C4B 7774  36.673  20.862   7.693
  388POPC   NC3 7775  20.234  37.212   9.478
  388POPC   PO4 7776  20.777  36.740   9.475
  388POPC   GL1 7777  20.688  36.682   9.081
  388POPC   GL2 7778  20.379  36.855   9.116
  388POPC   C1A 7779  20.871  36.682   8.689
  388POPC   D2A 7780  20.858  36.947   8.346
  388POPC   C3A 7781  20.911  36.855   7.921
  388POPC   C4A 7782  20.722  36.832   7.512
  388POPC   C1B 7783  20.525  37.076   8.772
  388POPC   C2B 7784  20.334  37.077   8.384
  388POPC   C3B 7785  20.448  37.033   7.974
  388POPC   C4B 7786  20.357  37.195   7.607
  389POPC   NC3 7787  17.965  21.254   9.461
  389POPC   PO4 7788  18.657  21.575   9.487
  389POPC   GL1 7789  18.464  21.524   9.104
  389POPC   GL2 7790  18.118  21.538   9.081
  389POPC   C1A 7791  18.440  21.549   8.659
  389POPC   D2A 7792  18.315  21.224   8.370
  389POPC   C3A 7793  18.498  21.210   7.972
  389POPC   C4A 7794  18.303  21.119   7.616
  389POPC   C1B 7795  17.967  21.781   8.754
  389POPC   C2B 7796  18.022  21.657   8.352
  389POPC   C3B 7797  18.066  21.476   7.971
  389POPC   C4B 7798  17.996  21.815   7.762
  390POPC   NC3 7799  10.249  32.783   9.325
  390POPC   PO4 7800   9.955  33.367   9.416
  390POPC   GL1 7801   9.795  33.076   9.144
  390POPC   GL2 7802  10.071  33.085   8.939
  390POPC   C1A 7803   9.533  32.936   8.795
  390POPC   D2A 7804   9.621  32.681   8.460
  390POPC   C3A 7805   9.688  32.850   8.059
  390POPC   C4A 7806   9.441  33.053   7.752
  390POPC   C1B 7807  10.087  32.698   8.685
  390POPC   C2B 7808  10.073  32.503   8.269
  390POPC   C3B 7809  10.168  32.704   7.897
  390POPC   C4B 7810  10.045  33.127   7.811
  391POPC   NC3 7811  24.059  30.850   9.541
  391POPC   PO4 7812  24.713  30.754   9.531
  391POPC   GL1 7813  24.596  30.543   9.167
  391POPC   GL2 7814  24.289  30.630   9.077
  391POPC   C1A 7815  24.737  30.449   8.752
  391POPC   D2A 7816  24.765  30.687   8.345
  391POPC   C3A 7817  24.794  30.576   7.887
  391POPC   C4A 7818  24.886  30.794   7.460
  391POPC   C1B 7819  24.255  30.580   8.615
  391POPC   C2B 7820  24.208  30.559   8.191
  391POPC   C3B 7821  24.220  30.508   7.780
  391POPC   C4B 7822  24.080  30.494   7.350
  392POPC   NC3 7823  38.748  42.416   9.473
  392POPC   PO4 7824  38.182  42.030   9.475
  392POPC   GL1 7825  38.486  42.101   9.136
  392POPC   GL2 7826  38.531  42.502   9.022
  392POPC   C1A 7827  38.580  42.116   8.695
  392POPC   D2A 7828  38.489  42.506   8.474
  392POPC   C3A 7829  38.458  42.414   8.038
  392POPC   C4A 7830  38.662  42.245   7.655
  392POPC   C1B 7831  38.207  42.786   8.810
  392POPC   C2B 7832  38.072  42.777   8.384
  392POPC   C3B 7833  38.193  42.883   7.968
  392POPC   C4B 7834  38.437  42.728   7.639
  393POPC   NC3 7835  38.448  20.183   9.540
  393POPC   PO4 7836  38.284  19.553   9.347
  393POPC   GL1 7837  38.555  19.850   9.123
  393POPC   GL2 7838  38.266  20.039   9.061
  393POPC   C1A 7839  38.637  19.793   8.651
  393POPC   D2A 7840  38.481  19.808   8.193
  393POPC   C3A 7841  38.708  19.839   7.768
  393POPC   C4A 7842  38.842  19.660   7.311
  393POPC   C1B 7843  38.148  19.940   8.626
  393POPC   C2B 7844  38.000  19.999   8.200
  393POPC   C3B 7845  38.213  20.039   7.796
  393POPC   C4B 7846  38.095  20.278   7.444
  394POPC   NC3 7847  13.617   7.990   9.609
  394POPC   PO4 7848  13.509   8.690   9.699
  394POPC   GL1 7849  13.491   8.448   9.305
  394POPC   GL2 7850  13.817   8.275   9.219
  394POPC   C1A 7851  13.396   8.144   8.970
  394POPC   D2A 7852  13.549   8.134   8.578
  394POPC   C3A 7853  13.506   7.957   8.201
  394POPC   C4A 7854  13.588   8.207   7.857
  394POPC   C1B 7855  13.885   7.934   8.893
  394POPC   C2B 7856  13.972   7.880   8.419
  394POPC   C3B 7857  13.925   7.809   7.942
  394POPC   C4B 7858  13.720   7.865   7.510
  395POPC   NC3 7859  12.220   0.107   9.497
  395POPC   PO4 7860  11.708   0.523   9.734
  395POPC   GL1 7861  11.857   0.438   9.283
  395POPC   GL2 7862  11.930   0.739   9.108
  395POPC   C1A 7863  12.018   0.213   8.884
  395POPC   D2A 7864  12.067  44.996   8.467
  395POPC   C3A 7865  12.030   0.315   8.123
  395POPC   C4A 7866  12.238   0.482   7.740
  395POPC   C1B 7867  12.250   0.758   8.769
  395POPC   C2B 7868  12.328   0.759   8.308
  395POPC   C3B 7869  12.437   0.948   7.904
  395POPC   C4B 7870  12.332   0.913   7.462
  396POPC   NC3 7871  42.389  27.786   9.417
  396POPC   PO4 7872  42.741  27.202   9.375
  396POPC   GL1 7873  42.433  27.384   9.063
  396POPC   GL2 7874  42.627  27.685   8.967
  396POPC   C1A 7875  42.113  27.587   8.776
  396POPC   D2A 7876  41.913  27.727   8.416
  396POPC   C3A 7877  42.251  27.737   8.157
  396POPC   C4A 7878  42.446  27.695   7.786
  396POPC   C1B 7879  42.789  27.314   8.718
  396POPC   C2B 7880  42.775  27.071   8.359
  396POPC   C3B 7881  42.633  27.308   8.061
  396POPC   C4B 7882  42.661  27.244   7.657
  397POPC   NC3 7883   0.940  34.171   9.521
  397POPC   PO4 7884   1.537  33.733   9.514
  397POPC   GL1 7885   1.350  33.917   9.157
  397POPC   GL2 7886   1.035  33.839   9.150
  397POPC   C1A 7887   1.172  33.668   8.710
  397POPC   D2A 7888   1.384  33.497   8.386
  397POPC   C3A 7889   1.187  33.691   8.042
  397POPC   C4A 7890   0.806  33.612   7.857
  397POPC   C1B 7891   1.113  34.148   8.795
  397POPC   C2B 7892   0.915  34.290   8.489
  397POPC   C3B 7893   0.840  34.071   8.150
  397POPC   C4B 7894   0.849  34.106   7.743
  398POPC   NC3 7895   4.562  16.061   9.379
  398POPC   PO4 7896   3.944  15.733   9.482
  398POPC   GL1 7897   4.124  15.884   9.102
  398POPC   GL2 7898   4.447  15.712   9.038
  398POPC   C1A 7899   4.165  16.183   8.753
  398POPC   D2A 7900   4.448  16.195   8.382
  398POPC   C3A 7901   4.238  16.117   7.989
  398POPC   C4A 7902   4.360  16.145   7.569
  398POPC   C1B 7903   4.338  15.735   8.603
  398POPC   C2B 7904   3.958  15.865   8.372
  398POPC   C3B 7905   3.899  15.686   7.971
  398POPC   C4B 7906   4.257  15.661   7.667
  399POPC   NC3 7907  21.092  17.005   9.413
  399POPC   PO4 7908  21.724  16.769   9.546
  399POPC   GL1 7909  21.480  16.768   9.170
  399POPC   GL2 7910  21.410  16.422   9.119
  399POPC   C1A 7911  21.368  17.007   8.776
  399POPC   D2A 7912  21.512  17.167   8.344
  399POPC   C3A 7913  21.404  16.949   7.934
  399POPC   C4A 7914  21.481  16.703   7.541
  399POPC   C1B 7915  21.211  16.522   8.745
  399POPC   C2B 7916  21.256  16.696   8.357
  399POPC   C3B 7917  21.328  16.452   7.991
  399POPC   C4B 7918  21.272  16.238   7.606
  400POPC   NC3 7919   4.191  10.776   9.375
  400POPC   PO4 7920   4.130  10.177   9.771
  400POPC   GL1 7921   4.525  10.238   9.351
  400POPC   GL2 7922   4.644  10.575   9.191
  400POPC   C1A 7923   4.545  10.214   8.853
  400POPC   D2A 7924   4.239  10.283   8.515
  400POPC   C3A 7925   4.381  10.333   8.087
  400POPC   C4A 7926   4.217  10.430   7.670
  400POPC   C1B 7927   4.463  10.719   8.757
  400POPC   C2B 7928   4.555  10.896   8.308
  400POPC   C3B 7929   4.585  10.753   7.855
  400POPC   C4B 7930   4.476  10.798   7.425
  401POPC   NC3 7931  38.197   3.921   9.461
  401POPC   PO4 7932  38.592   3.446   9.761
  401POPC   GL1 7933  38.508   3.485   9.294
  401POPC   GL2 7934  38.353   3.208   9.147
  401POPC   C1A 7935  38.467   3.630   8.838
  401POPC   D2A 7936  38.721   3.676   8.429
  401POPC   C3A 7937  38.489   3.670   8.016
  401POPC   C4A 7938  38.672   3.732   7.594
  401POPC   C1B 7939  38.269   3.093   8.762
  401POPC   C2B 7940  38.385   3.220   8.370
  401POPC   C3B 7941  38.211   3.130   7.982
  401POPC   C4B 7942  38.439   3.251   7.641
  402POPC   NC3 7943  28.282  27.990   9.559
  402POPC   PO4 7944  28.818  27.755   9.228
  402POPC   GL1 7945  28.369  27.607   9.184
  402POPC   GL2 7946  28.056  27.822   9.136
  402POPC   C1A 7947  28.291  27.477   8.763
  402POPC   D2A 7948  28.577  27.483   8.403
  402POPC   C3A 7949  28.507  27.232   8.010
  402POPC   C4A 7950  28.444  27.424   7.587
  402POPC   C1B 7951  27.847  27.760   8.748
  402POPC   C2B 7952  28.052  27.756   8.369
  402POPC   C3B 7953  28.296  27.700   8.027
  402POPC   C4B 7954  28.004  27.599   7.737
  403POPC   NC3 7955  32.776   8.226   9.536
  403POPC   PO4 7956  32.177   7.846   9.491
  403POPC   GL1 7957  32.332   8.182   9.187
  403POPC   GL2 7958  32.617   8.358   9.041
  403POPC   C1A 7959  32.184   8.295   8.765
  403POPC   D2A 7960  32.069   8.069   8.392
  403POPC   C3A 7961  32.250   8.224   8.046
  403POPC   C4A 7962  32.145   8.055   7.685
  403POPC   C1B 7963  32.653   8.063   8.753
  403POPC   C2B 7964  32.557   7.902   8.366
  403POPC   C3B 7965  32.719   8.032   7.962
  403POPC   C4B 7966  32.686   7.971   7.525
  404POPC   NC3 7967   0.855  42.231   9.610
  404POPC   PO4 7968   0.137  42.062   9.473
  404POPC   GL1 7969   0.370  42.315   9.238
  404POPC   GL2 7970   0.074  42.419   9.058
  404POPC   C1A 7971   0.534  42.475   8.838
  404POPC   D2A 7972   0.381  42.593   8.403
  404POPC   C3A 7973   0.547  42.457   8.013
  404POPC   C4A 7974   0.672  42.240   7.646
  404POPC   C1B 7975   0.107  42.254   8.679
  404POPC   C2B 7976   0.367  41.972   8.467
  404POPC   C3B 7977   0.446  41.972   8.037
  404POPC   C4B 7978   0.211  41.966   7.675
  405POPC   NC3 7979   9.688   4.782   9.466
  405POPC   PO4 7980  10.050   5.290   9.680
  405POPC   GL1 7981   9.789   5.210   9.218
  405POPC   GL2 7982   9.747   4.936   8.985
  405POPC   C1A 7983   9.580   5.392   8.832
  405POPC   D2A 7984   9.505   5.159   8.446
  405POPC   C3A 7985   9.795   5.172   8.096
  405POPC   C4A 7986   9.688   5.330   7.658
  405POPC   C1B 7987   9.979   4.861   8.618
  405POPC   C2B 7988  10.220   4.787   8.270
  405POPC   C3B 7989  10.119   4.818   7.866
  405POPC   C4B 7990   9.888   4.882   7.505
  406POPC   NC3 7991   5.207  24.122   9.405
  406POPC   PO4 7992   5.195  23.453   9.619
  406POPC   GL1 7993   4.844  23.777   9.238
  406POPC   GL2 7994   4.905  24.114   9.003
  406POPC   C1A 7995   4.834  23.720   8.709
  406POPC   D2A 7996   5.153  23.520   8.447
  406POPC   C3A 7997   5.035  23.533   8.020
  406POPC   C4A 7998   5.065  23.534   7.577
  406POPC   C1B 7999   5.227  24.036   8.638
  406POPC   C2B 8000   5.331  24.005   8.189
  406POPC   C3B 8001   5.381  23.892   7.744
  406POPC   C4B 8002   5.353  23.816   7.283
  407POPC   NC3 8003  13.138  32.862   9.401
  407POPC   PO4 8004  13.693  33.233   9.386
  407POPC   GL1 8005  13.414  33.120   9.057
  407POPC   GL2 8006  13.672  32.878   8.949
  407POPC   C1A 8007  13.310  33.005   8.630
  407POPC   D2A 8008  13.698  33.021   8.404
  407POPC   C3A 8009  13.592  32.941   8.004
  407POPC   C4A 8010  13.480  33.229   7.697
  407POPC   C1B 8011  14.023  32.771   8.704
  407POPC   C2B 8012  14.034  32.559   8.306
  407POPC   C3B 8013  13.926  32.560   7.871
  407POPC   C4B 8014  13.858  32.906   7.553
  408POPC   NC3 8015  13.884  21.138   9.540
  408POPC   PO4 8016  13.656  21.769   9.343
  408POPC   GL1 8017  13.648  21.470   9.067
  408POPC   GL2 8018  13.465  21.217   9.221
  408POPC   C1A 8019  13.679  21.547   8.634
  408POPC   D2A 8020  13.946  21.777   8.412
  408POPC   C3A 8021  13.670  21.729   8.081
  408POPC   C4A 8022  13.713  21.487   7.701
  408POPC   C1B 8023  13.409  21.130   8.767
  408POPC   C2B 8024  13.647  21.105   8.374
  408POPC   C3B 8025  13.641  21.003   7.948
  408POPC   C4B 8026  13.326  21.120   7.638
  409POPC   NC3 8027  19.982  17.312   9.476
  409POPC   PO4 8028  19.667  17.920   9.326
  409POPC   GL1 8029  19.851  17.597   9.077
  409POPC   GL2 8030  19.624  17.303   8.978
  409POPC   C1A 8031  19.986  17.490   8.673
  409POPC   D2A 8032  20.220  17.625   8.336
  409POPC   C3A 8033  19.990  17.618   7.968
  409POPC   C4A 8034  19.962  17.263   7.699
  409POPC   C1B 8035  19.489  17.684   8.724
  409POPC   C2B 8036  19.595  17.677   8.303
  409POPC   C3B 8037  19.488  17.414   7.943
  409POPC   C4B 8038  19.452  17.233   7.556
  410POPC   NC3 8039   3.309  35.300   9.271
  410POPC   PO4 8040   3.803  35.707   9.430
  410POPC   GL1 8041   3.794  35.490   9.064
  410POPC   GL2 8042   3.831  35.129   9.064
  410POPC   C1A 8043   3.621  35.424   8.681
  410POPC   D2A 8044   3.788  35.404   8.314
  410POPC   C3A 8045   3.437  35.474   8.077
  410POPC   C4A 8046   3.337  35.313   7.680
  410POPC   C1B 8047   3.565  34.909   8.735
  410POPC   C2B 8048   3.406  34.963   8.328
  410POPC   C3B 8049   3.667  35.035   7.958
  410POPC   C4B 8050   3.898  35.086   7.589
  411POPC   NC3 8051  33.487   0.879   9.334
  411POPC   PO4 8052  33.992   1.288   9.607
  411POPC   GL1 8053  34.133   1.208   9.158
  411POPC   GL2 8054  33.946   0.948   9.093
  411POPC   C1A 8055  33.902   1.295   8.735
  411POPC   D2A 8056  33.751   1.447   8.301
  411POPC   C3A 8057  33.918   1.233   7.914
  411POPC   C4A 8058  34.104   1.040   7.539
  411POPC   C1B 8059  33.809   0.766   8.680
  411POPC   C2B 8060  33.804   0.784   8.234
  411POPC   C3B 8061  33.488   1.001   7.997
  411POPC   C4B 8062  33.585   1.127   7.524
  412POPC   NC3 8063   5.836  25.573   9.545
  412POPC   PO4 8064   5.613  24.920   9.431
  412POPC   GL1 8065   5.892  25.192   9.143
  412POPC   GL2 8066   6.070  25.531   9.085
  412POPC   C1A 8067   5.713  25.348   8.736
  412POPC   D2A 8068   5.616  25.096   8.354
  412POPC   C3A 8069   5.743  25.237   7.906
  412POPC   C4A 8070   5.991  24.990   7.596
  412POPC   C1B 8071   6.229  25.306   8.728
  412POPC   C2B 8072   6.052  25.386   8.323
  412POPC   C3B 8073   6.194  25.601   7.959
  412POPC   C4B 8074   6.208  25.456   7.546
  413POPC   NC3 8075  22.039  28.002   9.335
  413POPC   PO4 8076  21.952  28.669   9.533
  413POPC   GL1 8077  21.853  28.467   9.140
  413POPC   GL2 8078  22.203  28.402   9.061
  413POPC   C1A 8079  21.898  28.321   8.684
  413POPC   D2A 8080  22.298  28.386   8.458
  413POPC   C3A 8081  22.226  28.462   8.046
  413POPC   C4A 8082  22.296  28.546   7.645
  413POPC   C1B 8083  22.413  28.053   8.834
  413POPC   C2B 8084  22.359  27.872   8.447
  413POPC   C3B 8085  22.570  28.065   8.080
  413POPC   C4B 8086  22.675  28.208   7.647
  414POPC   NC3 8087   7.499  41.823   9.515
  414POPC   PO4 8088   7.356  42.513   9.529
  414POPC   GL1 8089   7.507  42.248   9.221
  414POPC   GL2 8090   7.215  42.105   9.177
  414POPC   C1A 8091   7.618  42.182   8.783
  414POPC   D2A 8092   7.613  42.437   8.411
  414POPC   C3A 8093   7.868  42.351   8.050
  414POPC   C4A 8094   7.672  42.250   7.670
  414POPC   C1B 8095   7.117  42.020   8.799
  414POPC   C2B 8096   7.309  41.990   8.417
  414POPC   C3B 8097   7.367  42.147   8.052
  414POPC   C4B 8098   7.152  42.071   7.684
  415POPC   NC3 8099  24.575  14.336   9.428
  415POPC   PO4 8100  24.271  15.008   9.558
  415POPC   GL1 8101  24.368  14.741   9.150
  415POPC   GL2 8102  24.281  14.371   9.008
  415POPC   C1A 8103  24.658  14.600   8.789
  415POPC   D2A 8104  24.727  14.362   8.405
  415POPC   C3A 8105  24.686  14.540   7.987
  415POPC   C4A 8106  24.848  14.188   7.792
  415POPC   C1B 8107  24.305  14.141   8.626
  415POPC   C2B 8108  24.236  14.296   8.213
  415POPC   C3B 8109  24.255  14.344   7.781
  415POPC   C4B 8110  24.041  14.500   7.420
  416POPC   NC3 8111   6.929  36.926   9.373
  416POPC   PO4 8112   6.400  37.079   9.670
  416POPC   GL1 8113   6.443  36.892   9.218
  416POPC   GL2 8114   6.516  36.538   9.266
  416POPC   C1A 8115   6.722  36.865   8.785
  416POPC   D2A 8116   7.050  36.938   8.463
  416POPC   C3A 8117   6.815  37.013   8.076
  416POPC   C4A 8118   6.709  36.958   7.642
  416POPC   C1B 8119   6.456  36.439   8.803
  416POPC   C2B 8120   6.456  36.669   8.357
  416POPC   C3B 8121   6.304  36.770   7.909
  416POPC   C4B 8122   6.284  36.731   7.424
  417POPC   NC3 8123  17.057  39.675   9.555
  417POPC   PO4 8124  16.639  40.180   9.541
  417POPC   GL1 8125  16.728  39.940   9.207
  417POPC   GL2 8126  16.816  40.267   9.040
  417POPC   C1A 8127  16.732  39.825   8.782
  417POPC   D2A 8128  16.743  40.066   8.388
  417POPC   C3A 8129  16.750  39.836   7.991
  417POPC   C4A 8130  16.480  39.826   7.623
  417POPC   C1B 8131  16.913  40.496   8.665
  417POPC   C2B 8132  17.079  40.653   8.281
  417POPC   C3B 8133  16.981  40.331   8.012
  417POPC   C4B 8134  16.808  40.218   7.629
  418POPC   NC3 8135  26.018  30.191   9.383
  418POPC   PO4 8136  25.984  29.451   9.475
  418POPC   GL1 8137  25.984  29.670   9.099
  418POPC   GL2 8138  25.753  29.919   9.065
  418POPC   C1A 8139  25.861  29.641   8.656
  418POPC   D2A 8140  26.095  29.777   8.317
  418POPC   C3A 8141  25.790  29.757   8.017
  418POPC   C4A 8142  25.894  29.678   7.625
  418POPC   C1B 8143  26.113  30.062   8.778
  418POPC   C2B 8144  26.105  30.297   8.421
  418POPC   C3B 8145  26.098  30.185   7.978
  418POPC   C4B 8146  26.192  30.259   7.541
  419POPC   NC3 8147   8.722  19.807   9.293
  419POPC   PO4 8148   8.121  19.798   9.621
  419POPC   GL1 8149   8.008  19.709   9.186
  419POPC   GL2 8150   8.313  19.630   9.039
  419POPC   C1A 8151   7.946  19.932   8.781
  419POPC   D2A 8152   8.166  19.993   8.382
  419POPC   C3A 8153   8.032  19.805   8.009
  419POPC   C4A 8154   7.865  19.748   7.590
  419POPC   C1B 8155   8.643  19.537   8.716
  419POPC   C2B 8156   8.701  19.723   8.358
  419POPC   C3B 8157   8.559  19.924   8.030
  419POPC   C4B 8158   8.382  19.828   7.652
  420POPC   NC3 8159  40.047  32.046   9.573
  420POPC   PO4 8160  39.588  32.364   9.178
  420POPC   GL1 8161  39.905  32.064   9.094
  420POPC   GL2 8162  40.161  32.294   9.123
  420POPC   C1A 8163  40.085  31.971   8.735
  420POPC   D2A 8164  39.827  32.165   8.434
  420POPC   C3A 8165  39.993  32.241   8.052
  420POPC   C4A 8166  39.915  32.032   7.685
  420POPC   C1B 8167  40.110  32.500   8.737
  420POPC   C2B 8168  40.321  32.565   8.349
  420POPC   C3B 8169  40.344  32.724   7.927
  420POPC   C4B 8170  40.119  32.518   7.613
  421POPC   NC3 8171  22.939  14.219   9.472
  421POPC   PO4 8172  23.304  14.755   9.526
  421POPC   GL1 8173  23.043  14.761   9.147
  421POPC   GL2 8174  23.104  14.419   9.036
  421POPC   C1A 8175  22.853  14.731   8.706
  421POPC   D2A 8176  22.877  14.548   8.283
  421POPC   C3A 8177  22.697  14.218   8.073
  421POPC   C4A 8178  22.899  14.337   7.734
  421POPC   C1B 8179  23.322  14.196   8.727
  421POPC   C2B 8180  23.130  14.115   8.348
  421POPC   C3B 8181  23.290  14.098   7.970
  421POPC   C4B 8182  23.168  13.933   7.558
  422POPC   NC3 8183  31.608  41.830   9.504
  422POPC   PO4 8184  31.407  41.156   9.460
  422POPC   GL1 8185  31.449  41.499   9.135
  422POPC   GL2 8186  31.778  41.610   9.082
  422POPC   C1A 8187  31.364  41.714   8.746
  422POPC   D2A 8188  31.500  41.855   8.349
  422POPC   C3A 8189  31.534  41.716   7.935
  422POPC   C4A 8190  31.254  41.413   7.773
  422POPC   C1B 8191  31.861  41.551   8.656
  422POPC   C2B 8192  31.922  41.291   8.318
  422POPC   C3B 8193  31.836  41.310   7.912
  422POPC   C4B 8194  31.912  41.562   7.575
  423POPC   NC3 8195   5.169   7.705   9.685
  423POPC   PO4 8196   5.176   7.083   9.566
  423POPC   GL1 8197   5.255   7.454   9.253
  423POPC   GL2 8198   5.028   7.738   9.190
  423POPC   C1A 8199   5.321   7.464   8.817
  423POPC   D2A 8200   5.187   7.156   8.518
  423POPC   C3A 8201   5.148   7.372   8.172
  423POPC   C4A 8202   5.235   7.447   7.765
  423POPC   C1B 8203   4.809   7.611   8.806
  423POPC   C2B 8204   4.824   7.747   8.369
  423POPC   C3B 8205   4.759   7.584   7.937
  423POPC   C4B 8206   4.850   7.660   7.499
  424POPC   NC3 8207  11.564  17.100   9.347
  424POPC   PO4 8208  10.996  16.731   9.527
  424POPC   GL1 8209  11.236  16.764   9.185
  424POPC   GL2 8210  11.093  17.045   9.126
  424POPC   C1A 8211  11.379  16.792   8.740
  424POPC   D2A 8212  11.268  16.659   8.311
  424POPC   C3A 8213  11.476  16.832   7.964
  424POPC   C4A 8214  11.468  16.649   7.595
  424POPC   C1B 8215  10.921  17.056   8.754
  424POPC   C2B 8216  10.820  16.952   8.354
  424POPC   C3B 8217  10.977  16.930   7.954
  424POPC   C4B 8218  11.196  17.087   7.616
  425POPC   NC3 8219   0.899  24.925   9.526
  425POPC   PO4 8220   1.163  24.292   9.411
  425POPC   GL1 8221   1.178  24.664   9.186
  425POPC   GL2 8222   1.508  24.716   9.148
  425POPC   C1A 8223   1.171  24.857   8.784
  425POPC   D2A 8224   1.280  24.735   8.412
  425POPC   C3A 8225   1.108  24.352   8.277
  425POPC   C4A 8226   1.024  24.521   7.911
  425POPC   C1B 8227   1.439  24.410   8.807
  425POPC   C2B 8228   1.606  24.351   8.397
  425POPC   C3B 8229   1.542  24.550   8.000
  425POPC   C4B 8230   1.395  24.339   7.650
  426POPC   NC3 8231   7.107  16.631   9.460
  426POPC   PO4 8232   7.682  16.810   9.377
  426POPC   GL1 8233   7.494  16.582   9.078
  426POPC   GL2 8234   7.281  16.879   9.039
  426POPC   C1A 8235   7.289  16.513   8.704
  426POPC   D2A 8236   7.343  16.790   8.381
  426POPC   C3A 8237   7.562  16.670   8.041
  426POPC   C4A 8238   7.369  16.469   7.743
  426POPC   C1B 8239   7.246  17.181   8.716
  426POPC   C2B 8240   7.394  17.295   8.340
  426POPC   C3B 8241   7.350  17.120   7.966
  426POPC   C4B 8242   7.538  16.998   7.612
  427POPC   NC3 8243  10.380  23.217   9.388
  427POPC   PO4 8244  10.846  22.774   9.517
  427POPC   GL1 8245  10.665  22.851   9.149
  427POPC   GL2 8246  10.749  23.205   9.054
  427POPC   C1A 8247  10.525  22.609   8.799
  427POPC   D2A 8248  10.721  22.608   8.377
  427POPC   C3A 8249  10.485  22.656   7.993
  427POPC   C4A 8250  10.293  23.045   7.854
  427POPC   C1B 8251  10.785  23.030   8.669
  427POPC   C2B 8252  11.006  23.016   8.302
  427POPC   C3B 8253  10.826  23.059   7.898
  427POPC   C4B 8254  10.698  23.436   7.661
  428POPC   NC3 8255  18.731  37.468   9.567
  428POPC   PO4 8256  19.114  38.055   9.423
  428POPC   GL1 8257  19.224  37.707   9.148
  428POPC   GL2 8258  18.976  37.458   9.136
  428POPC   C1A 8259  19.387  37.764   8.736
  428POPC   D2A 8260  19.360  37.980   8.337
  428POPC   C3A 8261  19.239  37.802   7.926
  428POPC   C4A 8262  19.376  37.505   7.596
  428POPC   C1B 8263  18.875  37.703   8.785
  428POPC   C2B 8264  19.005  37.631   8.393
  428POPC   C3B 8265  18.763  37.739   8.062
  428POPC   C4B 8266  18.687  37.950   7.706
  429POPC   NC3 8267   9.695   0.131   9.609
  429POPC   PO4 8268  10.137   0.556   9.607
  429POPC   GL1 8269   9.924   0.476   9.240
  429POPC   GL2 8270  10.041   0.787   9.109
  429POPC   C1A 8271   9.683   0.435   8.867
  429POPC   D2A 8272   9.510   0.612   8.485
  429POPC   C3A 8273   9.382   0.525   8.051
  429POPC   C4A 8274   9.561   0.332   7.698
  429POPC   C1B 8275  10.181   0.532   8.769
  429POPC   C2B 8276  10.213   0.618   8.346
  429POPC   C3B 8277   9.938   0.529   8.006
  429POPC   C4B 8278   9.935   0.670   7.597
  430POPC   NC3 8279  29.981  36.351   9.532
  430POPC   PO4 8280  29.814  35.713   9.375
  430POPC   GL1 8281  29.811  36.069   9.118
  430POPC   GL2 8282  30.171  36.138   9.099
  430POPC   C1A 8283  29.869  36.309   8.732
  430POPC   D2A 8284  29.677  36.434   8.341
  430POPC   C3A 8285  29.857  36.318   7.983
  430POPC   C4A 8286  29.712  35.913   7.851
  430POPC   C1B 8287  30.084  35.849   8.720
  430POPC   C2B 8288  30.061  35.894   8.238
  430POPC   C3B 8289  30.222  36.005   7.809
  430POPC   C4B 8290  30.395  36.275   7.445
  431POPC   NC3 8291  39.290  24.888   9.373
  431POPC   PO4 8292  39.042  25.537   9.462
  431POPC   GL1 8293  39.247  25.321   9.112
  431POPC   GL2 8294  39.027  24.990   8.971
  431POPC   C1A 8295  39.245  25.327   8.684
  431POPC   D2A 8296  39.029  25.110   8.372
  431POPC   C3A 8297  39.114  25.367   8.042
  431POPC   C4A 8298  38.877  25.531   7.731
  431POPC   C1B 8299  39.312  24.808   8.681
  431POPC   C2B 8300  39.545  25.034   8.346
  431POPC   C3B 8301  39.345  24.909   7.971
  431POPC   C4B 8302  39.350  24.767   7.548
  432POPC   NC3 8303   6.059  32.956   9.290
  432POPC   PO4 8304   5.615  33.446   9.439
  432POPC   GL1 8305   5.594  33.130   9.104
  432POPC   GL2 8306   5.585  32.756   9.201
  432POPC   C1A 8307   5.834  33.109   8.708
  432POPC   D2A 8308   5.994  32.757   8.460
  432POPC   C3A 8309   6.018  32.826   8.014
  432POPC   C4A 8310   5.779  33.144   7.809
  432POPC   C1B 8311   5.506  32.717   8.757
  432POPC   C2B 8312   5.514  32.941   8.353
  432POPC   C3B 8313   5.462  32.795   7.985
  432POPC   C4B 8314   5.290  32.966   7.633
  433POPC   NC3 8315  25.610  19.370   9.486
  433POPC   PO4 8316  25.221  18.861   9.484
  433POPC   GL1 8317  25.482  18.981   9.149
  433POPC   GL2 8318  25.290  19.257   9.080
  433POPC   C1A 8319  25.575  19.042   8.731
  433POPC   D2A 8320  25.310  19.204   8.457
  433POPC   C3A 8321  25.417  19.023   8.075
  433POPC   C4A 8322  25.290  19.149   7.689
  433POPC   C1B 8323  25.069  19.544   8.790
  433POPC   C2B 8324  24.852  19.429   8.428
  433POPC   C3B 8325  24.962  19.299   8.034
  433POPC   C4B 8326  24.820  19.426   7.597
  434POPC   NC3 8327  16.708  20.038   9.490
  434POPC   PO4 8328  16.640  19.375   9.452
  434POPC   GL1 8329  16.902  19.634   9.199
  434POPC   GL2 8330  16.601  19.812   9.046
  434POPC   C1A 8331  17.042  19.773   8.795
  434POPC   D2A 8332  16.759  19.808   8.456
  434POPC   C3A 8333  16.921  19.570   8.149
  434POPC   C4A 8334  17.053  19.802   7.779
  434POPC   C1B 8335  16.329  19.981   8.726
  434POPC   C2B 8336  16.267  19.937   8.289
  434POPC   C3B 8337  16.517  19.769   7.948
  434POPC   C4B 8338  16.640  19.688   7.500
  435POPC   NC3 8339  32.856  24.330   9.368
  435POPC   PO4 8340  33.352  24.691   9.536
  435POPC   GL1 8341  33.145  24.686   9.139
  435POPC   GL2 8342  32.859  24.892   9.239
  435POPC   C1A 8343  33.041  24.399   8.763
  435POPC   D2A 8344  33.100  24.473   8.351
  435POPC   C3A 8345  33.219  24.155   8.131
  435POPC   C4A 8346  33.495  24.169   7.801
  435POPC   C1B 8347  32.764  24.821   8.824
  435POPC   C2B 8348  32.586  24.530   8.523
  435POPC   C3B 8349  32.655  24.490   8.102
  435POPC   C4B 8350  32.963  24.762   7.924
  436POPC   NC3 8351  23.233  18.374   9.646
  436POPC   PO4 8352  22.595  18.055   9.626
  436POPC   GL1 8353  22.717  18.161   9.227
  436POPC   GL2 8354  22.726  18.480   9.262
  436POPC   C1A 8355  22.934  18.172   8.828
  436POPC   D2A 8356  23.248  18.098   8.513
  436POPC   C3A 8357  23.097  18.081   8.085
  436POPC   C4A 8358  23.293  18.376   7.772
  436POPC   C1B 8359  22.676  18.640   8.864
  436POPC   C2B 8360  22.636  18.694   8.433
  436POPC   C3B 8361  22.839  18.552   8.039
  436POPC   C4B 8362  22.814  18.232   7.680
  437POPC   NC3 8363   0.276  18.772   9.442
  437POPC   PO4 8364   0.644  19.329   9.378
  437POPC   GL1 8365   0.406  19.064   9.048
  437POPC   GL2 8366   0.046  19.005   9.022
  437POPC   C1A 8367   0.383  18.669   8.795
  437POPC   D2A 8368   0.607  18.786   8.446
  437POPC   C3A 8369   0.579  18.650   8.054
  437POPC   C4A 8370   0.667  18.588   7.642
  437POPC   C1B 8371   0.143  19.076   8.577
  437POPC   C2B 8372   0.282  19.094   8.164
  437POPC   C3B 8373   0.486  19.279   7.803
  437POPC   C4B 8374   0.314  19.327   7.367
  438POPC   NC3 8375  24.513  27.738   9.542
  438POPC   PO4 8376  24.004  27.248   9.482
  438POPC   GL1 8377  24.262  27.507   9.143
  438POPC   GL2 8378  24.638  27.626   9.081
  438POPC   C1A 8379  24.272  27.820   8.796
  438POPC   D2A 8380  24.518  27.868   8.401
  438POPC   C3A 8381  24.305  27.622   8.048
  438POPC   C4A 8382  24.263  27.703   7.616
  438POPC   C1B 8383  24.562  27.388   8.708
  438POPC   C2B 8384  24.696  27.357   8.281
  438POPC   C3B 8385  24.810  27.694   8.011
  438POPC   C4B 8386  24.746  27.576   7.630
  439POPC   NC3 8387  18.406  44.388   9.568
  439POPC   PO4 8388  18.178   0.054   9.638
  439POPC   GL1 8389  18.005  44.916   9.240
  439POPC   GL2 8390  18.046  44.598   9.213
  439POPC   C1A 8391  18.367  44.822   8.909
  439POPC   D2A 8392  18.539  44.652   8.527
  439POPC   C3A 8393  18.325  44.570   8.150
  439POPC   C4A 8394  18.428  44.756   7.762
  439POPC   C1B 8395  18.011  44.463   8.790
  439POPC   C2B 8396  18.054  44.193   8.434
  439POPC   C3B 8397  17.930  44.250   8.016
  439POPC   C4B 8398  18.114  44.360   7.637
  440POPC   NC3 8399   3.496  32.617   9.645
  440POPC   PO4 8400   3.320  33.284   9.455
  440POPC   GL1 8401   3.448  32.890   9.178
  440POPC   GL2 8402   3.746  33.023   9.000
  440POPC   C1A 8403   3.397  32.765   8.737
  440POPC   D2A 8404   3.474  33.122   8.499
  440POPC   C3A 8405   3.445  33.183   8.089
  440POPC   C4A 8406   3.225  33.073   7.768
  440POPC   C1B 8407   3.949  32.939   8.610
  440POPC   C2B 8408   3.841  32.812   8.190
  440POPC   C3B 8409   3.711  32.887   7.770
  440POPC   C4B 8410   3.909  32.929   7.376
  441POPC   NC3 8411  22.630  27.571   9.548
  441POPC   PO4 8412  23.293  27.873   9.648
  441POPC   GL1 8413  23.268  27.742   9.193
  441POPC   GL2 8414  22.954  27.540   9.146
  441POPC   C1A 8415  23.086  27.794   8.733
  441POPC   D2A 8416  22.844  27.746   8.364
  441POPC   C3A 8417  23.072  27.731   7.962
  441POPC   C4A 8418  23.015  27.489   7.551
  441POPC   C1B 8419  22.607  27.552   8.820
  441POPC   C2B 8420  22.519  27.356   8.414
  441POPC   C3B 8421  22.710  27.371   8.010
  441POPC   C4B 8422  22.594  27.690   7.731
  442POPC   NC3 8423  37.710  36.709   9.576
  442POPC   PO4 8424  37.183  36.413   9.584
  442POPC   GL1 8425  37.477  36.401   9.174
  442POPC   GL2 8426  37.801  36.609   9.079
  442POPC   C1A 8427  37.438  36.493   8.703
  442POPC   D2A 8428  37.687  36.615   8.329
  442POPC   C3A 8429  37.503  36.853   7.968
  442POPC   C4A 8430  37.620  36.780   7.537
  442POPC   C1B 8431  37.894  36.882   8.720
  442POPC   C2B 8432  37.914  37.094   8.292
  442POPC   C3B 8433  37.977  36.968   7.863
  442POPC   C4B 8434  37.924  37.176   7.451
  443POPC   NC3 8435  40.154   8.242   9.530
  443POPC   PO4 8436  39.515   7.851   9.352
  443POPC   GL1 8437  39.867   8.141   9.084
  443POPC   GL2 8438  40.199   8.333   9.048
  443POPC   C1A 8439  39.844   8.363   8.675
  443POPC   D2A 8440  39.734   8.399   8.249
  443POPC   C3A 8441  39.896   8.235   7.874
  443POPC   C4A 8442  39.663   8.340   7.476
  443POPC   C1B 8443  40.249   8.042   8.726
  443POPC   C2B 8444  40.230   8.232   8.315
  443POPC   C3B 8445  40.398   8.361   7.927
  443POPC   C4B 8446  40.475   8.020   7.657
  444POPC   NC3 8447   3.458  27.928   9.352
  444POPC   PO4 8448   3.914  27.476   9.477
  444POPC   GL1 8449   3.682  27.529   9.097
  444POPC   GL2 8450   3.304  27.511   9.086
  444POPC   C1A 8451   3.611  27.552   8.668
  444POPC   D2A 8452   3.840  27.680   8.290
  444POPC   C3A 8453   3.669  27.784   7.878
  444POPC   C4A 8454   3.797  27.476   7.563
  444POPC   C1B 8455   3.187  27.833   8.750
  444POPC   C2B 8456   3.321  27.800   8.343
  444POPC   C3B 8457   3.124  27.877   8.027
  444POPC   C4B 8458   3.151  27.701   7.663
  445POPC   NC3 8459  13.548  33.682   9.479
  445POPC   PO4 8460  13.667  34.321   9.246
  445POPC   GL1 8461  13.475  34.019   8.969
  445POPC   GL2 8462  13.332  33.681   9.037
  445POPC   C1A 8463  13.569  33.972   8.555
  445POPC   D2A 8464  13.749  34.103   8.185
  445POPC   C3A 8465  13.606  33.773   7.946
  445POPC   C4A 8466  13.716  33.680   7.554
  445POPC   C1B 8467  13.451  33.489   8.659
  445POPC   C2B 8468  13.415  33.392   8.230
  445POPC   C3B 8469  13.128  33.478   7.936
  445POPC   C4B 8470  13.220  33.717   7.607
  446POPC   NC3 8471  14.043  21.931   9.582
  446POPC   PO4 8472  14.501  22.293   9.242
  446POPC   GL1 8473  14.369  21.936   9.077
  446POPC   GL2 8474  14.026  21.972   9.066
  446POPC   C1A 8475  14.483  21.842   8.653
  446POPC   D2A 8476  14.445  21.749   8.219
  446POPC   C3A 8477  14.583  22.057   7.912
  446POPC   C4A 8478  14.640  22.054   7.461
  446POPC   C1B 8479  14.099  22.210   8.716
  446POPC   C2B 8480  14.355  22.263   8.383
  446POPC   C3B 8481  14.347  22.515   8.058
  446POPC   C4B 8482  14.585  22.538   7.714
  447POPC   NC3 8483  43.068  43.735   9.497
  447POPC   PO4 8484  43.621  44.324   9.433
  447POPC   GL1 8485  43.364  44.062   9.082
  447POPC   GL2 8486  42.999  43.976   9.069
  447POPC   C1A 8487  43.244  44.066   8.637
  447POPC   D2A 8488  42.826  44.067   8.450
  447POPC   C3A 8489  42.834  44.274   8.050
  447POPC   C4A 8490  42.780  44.036   7.693
  447POPC   C1B 8491  43.127  43.606   8.821
  447POPC   C2B 8492  42.998  43.569   8.394
  447POPC   C3B 8493  42.958  43.637   7.968
  447POPC   C4B 8494  43.174  43.706   7.592
  448POPC   NC3 8495  20.396  35.635   9.397
  448POPC   PO4 8496  20.685  34.994   9.321
  448POPC   GL1 8497  20.591  35.327   9.038
  448POPC   GL2 8498  20.774  35.661   9.031
  448POPC   C1A 8499  20.674  35.423   8.618
  448POPC   D2A 8500  20.666  35.691   8.269
  448POPC   C3A 8501  20.704  35.384   7.927
  448POPC   C4A 8502  20.937  35.228   7.581
  448POPC   C1B 8503  20.398  35.825   8.753
  448POPC   C2B 8504  20.147  35.711   8.373
  448POPC   C3B 8505  20.246  35.640   7.890
  448POPC   C4B 8506  20.208  35.612   7.390
  449POPC   NC3 8507   1.391  26.459   9.420
  449POPC   PO4 8508   1.276  27.087   9.717
  449POPC   GL1 8509   1.175  26.985   9.242
  449POPC   GL2 8510   1.145  26.654   9.031
  449POPC   C1A 8511   1.317  27.071   8.816
  449POPC   D2A 8512   1.254  26.803   8.451
  449POPC   C3A 8513   1.264  27.071   8.128
  449POPC   C4A 8514   1.095  27.058   7.764
  449POPC   C1B 8515   1.581  26.593   8.773
  449POPC   C2B 8516   1.682  26.581   8.306
  449POPC   C3B 8517   1.343  26.582   7.955
  449POPC   C4B 8518   1.388  26.751   7.511
  450POPC   NC3 8519   7.017  26.625   9.332
  450POPC   PO4 8520   6.462  27.059   9.582
  450POPC   GL1 8521   6.628  26.921   9.189
  450POPC   GL2 8522   6.922  27.094   9.089
  450POPC   C1A 8523   6.552  26.732   8.786
  450POPC   D2A 8524   6.363  26.808   8.405
  450POPC   C3A 8525   6.532  26.607   8.046
  450POPC   C4A 8526   6.428  26.845   7.669
  450POPC   C1B 8527   6.723  27.196   8.731
  450POPC   C2B 8528   6.682  27.321   8.361
  450POPC   C3B 8529   6.687  27.118   8.003
  450POPC   C4B 8530   6.944  27.074   7.629
  451POPC   NC3 8531  26.388  19.350   9.314
  451POPC   PO4 8532  26.816  18.960   9.693
  451POPC   GL1 8533  26.812  18.998   9.229
  451POPC   GL2 8534  26.787  19.293   9.006
  451POPC   C1A 8535  26.901  18.843   8.808
  451POPC   D2A 8536  26.831  18.945   8.377
  451POPC   C3A 8537  26.909  18.687   7.994
  451POPC   C4A 8538  26.947  18.869   7.586
  451POPC   C1B 8539  26.481  19.161   8.706
  451POPC   C2B 8540  26.351  19.156   8.295
  451POPC   C3B 8541  26.562  19.070   7.945
  451POPC   C4B 8542  26.553  19.192   7.527
  452POPC   NC3 8543  19.780   4.752   9.410
  452POPC   PO4 8544  19.943   3.989   9.476
  452POPC   GL1 8545  19.987   4.326   9.170
  452POPC   GL2 8546  20.180   4.106   9.020
  452POPC   C1A 8547  19.829   4.405   8.723
  452POPC   D2A 8548  19.429   4.309   8.474
  452POPC   C3A 8549  19.559   4.123   8.086
  452POPC   C4A 8550  19.802   4.443   7.872
  452POPC   C1B 8551  20.085   3.856   8.722
  452POPC   C2B 8552  19.990   4.048   8.382
  452POPC   C3B 8553  20.080   4.026   8.002
  452POPC   C4B 8554  19.845   3.990   7.649
  453POPC   NC3 8555   5.849  18.431   9.523
  453POPC   PO4 8556   6.153  17.916   9.225
  453POPC   GL1 8557   5.887  18.231   9.066
  453POPC   GL2 8558   6.116  18.553   9.100
  453POPC   C1A 8559   5.613  18.299   8.724
  453POPC   D2A 8560   5.709  18.116   8.325
  453POPC   C3A 8561   5.500  18.281   7.968
  453POPC   C4A 8562   5.568  18.473   7.556
  453POPC   C1B 8563   6.078  18.729   8.683
  453POPC   C2B 8564   5.918  18.569   8.297
  453POPC   C3B 8565   5.984  18.353   7.921
  453POPC   C4B 8566   5.908  18.754   7.762
  454POPC   NC3 8567  39.606  34.475   9.373
  454POPC   PO4 8568  38.984  34.656   9.530
  454POPC   GL1 8569  39.174  34.875   9.193
  454POPC   GL2 8570  39.147  34.534   9.045
  454POPC   C1A 8571  39.471  34.856   8.823
  454POPC   D2A 8572  39.309  34.533   8.539
  454POPC   C3A 8573  39.272  34.620   8.119
  454POPC   C4A 8574  39.241  34.852   7.731
  454POPC   C1B 8575  38.886  34.319   8.733
  454POPC   C2B 8576  39.001  34.082   8.363
  454POPC   C3B 8577  39.194  34.143   7.951
  454POPC   C4B 8578  39.063  34.396   7.630
  455POPC   NC3 8579  18.031   7.037   9.468
  455POPC   PO4 8580  18.456   7.552   9.575
  455POPC   GL1 8581  18.398   7.339   9.213
  455POPC   GL2 8582  18.067   7.474   9.189
  455POPC   C1A 8583  18.416   7.329   8.760
  455POPC   D2A 8584  18.366   7.082   8.378
  455POPC   C3A 8585  18.382   7.244   7.970
  455POPC   C4A 8586  17.946   7.272   7.824
  455POPC   C1B 8587  18.068   7.693   8.807
  455POPC   C2B 8588  18.042   7.542   8.395
  455POPC   C3B 8589  18.128   7.709   8.010
  455POPC   C4B 8590  18.156   8.037   7.763
  456POPC   NC3 8591  35.322  12.494   9.489
  456POPC   PO4 8592  35.606  11.859   9.484
  456POPC   GL1 8593  35.388  11.898   9.102
  456POPC   GL2 8594  35.223  12.227   9.054
  456POPC   C1A 8595  35.313  11.934   8.661
  456POPC   D2A 8596  35.358  12.032   8.252
  456POPC   C3A 8597  35.227  12.055   7.842
  456POPC   C4A 8598  35.455  12.148   7.447
  456POPC   C1B 8599  35.214  12.446   8.628
  456POPC   C2B 8600  35.281  12.544   8.189
  456POPC   C3B 8601  35.331  12.553   7.761
  456POPC   C4B 8602  35.011  12.411   7.513
  457POPC   NC3 8603   7.771  20.071   9.452
  457POPC   PO4 8604   7.183  20.051   9.384
  457POPC   GL1 8605   7.455  19.876   9.101
  457POPC   GL2 8606   7.572  20.240   9.027
  457POPC   C1A 8607   7.274  19.603   8.766
  457POPC   D2A 8608   7.053  19.727   8.386
  457POPC   C3A 8609   7.260  19.750   7.964
  457POPC   C4A 8610   7.317  19.990   7.596
  457POPC   C1B 8611   7.429  20.068   8.642
  457POPC   C2B 8612   7.603  19.782   8.376
  457POPC   C3B 8613   7.635  20.088   8.098
  457POPC   C4B 8614   7.736  20.213   7.731
  458POPC   NC3 8615  35.163  28.205   9.642
  458POPC   PO4 8616  35.602  28.587   9.370
  458POPC   GL1 8617  35.345  28.487   9.030
  458POPC   GL2 8618  35.025  28.372   9.174
  458POPC   C1A 8619  35.413  28.459   8.580
  458POPC   D2A 8620  35.757  28.468   8.261
  458POPC   C3A 8621  35.594  28.400   7.853
  458POPC   C4A 8622  35.260  28.637   7.706
  458POPC   C1B 8623  35.082  28.093   8.823
  458POPC   C2B 8624  35.047  28.124   8.387
  458POPC   C3B 8625  35.137  28.158   7.959
  458POPC   C4B 8626  34.974  27.777   7.833
  459POPC   NC3 8627   4.231   7.851   9.578
  459POPC   PO4 8628   4.282   8.446   9.350
  459POPC   GL1 8629   4.266   8.218   9.034
  459POPC   GL2 8630   4.419   7.927   9.064
  459POPC   C1A 8631   4.149   8.073   8.661
  459POPC   D2A 8632   4.181   8.141   8.265
  459POPC   C3A 8633   3.925   8.383   8.018
  459POPC   C4A 8634   4.217   8.243   7.720
  459POPC   C1B 8635   4.669   8.107   8.723
  459POPC   C2B 8636   4.671   8.300   8.366
  459POPC   C3B 8637   4.624   8.080   8.024
  459POPC   C4B 8638   4.769   8.133   7.667
  460POPC   NC3 8639   4.340  17.633   9.585
  460POPC   PO4 8640   4.825  17.136   9.556
  460POPC   GL1 8641   4.643  17.347   9.181
  460POPC   GL2 8642   4.272  17.337   9.154
  460POPC   C1A 8643   4.508  17.448   8.721
  460POPC   D2A 8644   4.166  17.434   8.389
  460POPC   C3A 8645   4.278  17.290   7.963
  460POPC   C4A 8646   4.605  17.384   7.658
  460POPC   C1B 8647   4.146  17.742   8.916
  460POPC   C2B 8648   4.274  17.912   8.505
  460POPC   C3B 8649   4.361  17.794   8.072
  460POPC   C4B 8650   4.037  17.726   7.777
  461POPC   NC3 8651  19.330  39.165   9.539
  461POPC   PO4 8652  20.014  39.349   9.455
  461POPC   GL1 8653  19.685  39.232   9.173
  461POPC   GL2 8654  19.533  39.571   9.198
  461POPC   C1A 8655  19.525  38.966   8.820
  461POPC   D2A 8656  19.433  39.045   8.372
  461POPC   C3A 8657  19.828  39.054   8.109
  461POPC   C4A 8658  19.787  39.036   7.677
  461POPC   C1B 8659  19.827  39.603   8.837
  461POPC   C2B 8660  19.902  39.591   8.396
  461POPC   C3B 8661  20.095  39.638   8.016
  461POPC   C4B 8662  19.910  39.516   7.677
  462POPC   NC3 8663  34.409   5.944   9.542
  462POPC   PO4 8664  34.716   5.400   9.185
  462POPC   GL1 8665  34.402   5.680   9.052
  462POPC   GL2 8666  34.399   6.048   9.040
  462POPC   C1A 8667  34.472   5.743   8.613
  462POPC   D2A 8668  34.479   5.489   8.256
  462POPC   C3A 8669  34.743   5.667   7.969
  462POPC   C4A 8670  34.579   5.983   7.718
  462POPC   C1B 8671  34.292   6.214   8.615
  462POPC   C2B 8672  34.556   6.149   8.242
  462POPC   C3B 8673  34.408   6.418   7.912
  462POPC   C4B 8674  34.118   6.274   7.603
  463POPC   NC3 8675   0.858  15.494   9.555
  463POPC   PO4 8676   1.487  15.177   9.492
  463POPC   GL1 8677   1.209  15.058   9.137
  463POPC   GL2 8678   0.960  14.761   9.148
  463POPC   C1A 8679   1.356  14.932   8.745
  463POPC   D2A 8680   1.440  15.089   8.341
  463POPC   C3A 8681   1.163  15.391   8.124
  463POPC   C4A 8682   1.112  15.366   7.682
  463POPC   C1B 8683   0.800  14.968   8.775
  463POPC   C2B 8684   0.766  15.166   8.358
  463POPC   C3B 8685   0.770  15.020   7.900
  463POPC   C4B 8686   0.745  14.932   7.411
  464POPC   NC3 8687  22.718  16.058   9.680
  464POPC   PO4 8688  22.056  16.131   9.562
  464POPC   GL1 8689  22.279  16.093   9.174
  464POPC   GL2 8690  22.174  15.825   8.945
  464POPC   C1A 8691  22.362  16.257   8.762
  464POPC   D2A 8692  22.114  16.395   8.412
  464POPC   C3A 8693  22.267  16.240   7.997
  464POPC   C4A 8694  22.283  16.378   7.573
  464POPC   C1B 8695  22.550  15.628   8.739
  464POPC   C2B 8696  22.658  15.484   8.311
  464POPC   C3B 8697  22.587  15.762   7.998
  464POPC   C4B 8698  22.447  15.885   7.598
  465POPC   NC3 8699   6.449  17.904   9.570
  465POPC   PO4 8700   6.978  17.486   9.592
  465POPC   GL1 8701   6.880  17.402   9.177
  465POPC   GL2 8702   6.587  17.607   9.145
  465POPC   C1A 8703   6.746  17.313   8.742
  465POPC   D2A 8704   6.520  17.422   8.347
  465POPC   C3A 8705   6.697  17.417   7.932
  465POPC   C4A 8706   6.362  17.439   7.654
  465POPC   C1B 8707   6.484  17.757   8.717
  465POPC   C2B 8708   6.608  17.950   8.349
  465POPC   C3B 8709   6.590  17.922   7.931
  465POPC   C4B 8710   6.879  17.839   7.636
  466POPC   NC3 8711  24.822  32.959   9.432
  466POPC   PO4 8712  24.158  33.260   9.348
  466POPC   GL1 8713  24.519  33.142   9.077
  466POPC   GL2 8714  24.711  32.781   8.962
  466POPC   C1A 8715  24.676  33.191   8.670
  466POPC   D2A 8716  24.717  33.048   8.296
  466POPC   C3A 8717  24.512  33.324   8.026
  466POPC   C4A 8718  24.810  33.356   7.777
  466POPC   C1B 8719  24.305  32.847   8.732
  466POPC   C2B 8720  24.207  32.964   8.319
  466POPC   C3B 8721  24.410  32.848   7.918
  466POPC   C4B 8722  24.600  32.647   7.551
  467POPC   NC3 8723  43.601  30.814   9.644
  467POPC   PO4 8724  44.185  30.599   9.512
  467POPC   GL1 8725  43.811  30.570   9.209
  467POPC   GL2 8726  43.463  30.763   9.166
  467POPC   C1A 8727  43.828  30.762   8.796
  467POPC   D2A 8728  44.089  30.673   8.448
  467POPC   C3A 8729  43.828  30.689   8.103
  467POPC   C4A 8730  43.792  30.413   7.789
  467POPC   C1B 8731  43.251  30.903   8.813
  467POPC   C2B 8732  43.428  30.836   8.418
  467POPC   C3B 8733  43.497  31.101   8.108
  467POPC   C4B 8734  43.763  31.116   7.793
  468POPC   NC3 8735  40.366   2.015   9.460
  468POPC   PO4 8736  39.685   1.967   9.501
  468POPC   GL1 8737  39.743   2.010   9.074
  468POPC   GL2 8738  39.635   2.365   9.049
  468POPC   C1A 8739  39.933   1.810   8.698
  468POPC   D2A 8740  40.247   2.041   8.441
  468POPC   C3A 8741  40.256   1.892   8.024
  468POPC   C4A 8742  39.919   1.783   7.808
  468POPC   C1B 8743  39.759   2.266   8.637
  468POPC   C2B 8744  39.785   2.080   8.214
  468POPC   C3B 8745  39.909   2.297   7.828
  468POPC   C4B 8746  39.617   2.455   7.453
  469POPC   NC3 8747   3.807  43.298   9.348
  469POPC   PO4 8748   3.246  42.847   9.456
  469POPC   GL1 8749   3.502  42.989   9.127
  469POPC   GL2 8750   3.338  43.299   9.107
  469POPC   C1A 8751   3.708  42.899   8.724
  469POPC   D2A 8752   3.856  43.030   8.317
  469POPC   C3A 8753   3.629  43.014   7.924
  469POPC   C4A 8754   3.410  43.358   7.744
  469POPC   C1B 8755   3.164  42.996   8.784
  469POPC   C2B 8756   3.311  42.971   8.385
  469POPC   C3B 8757   3.117  43.006   8.013
  469POPC   C4B 8758   3.161  42.948   7.591
  470POPC   NC3 8759   8.297  34.841   9.492
  470POPC   PO4 8760   7.865  34.395   9.303
  470POPC   GL1 8761   8.121  34.603   9.005
  470POPC   GL2 8762   8.429  34.658   9.056
  470POPC   C1A 8763   8.236  34.760   8.607
  470POPC   D2A 8764   8.031  34.948   8.254
  470POPC   C3A 8765   8.051  34.639   7.905
  470POPC   C4A 8766   8.018  34.611   7.477
  470POPC   C1B 8767   8.630  34.415   8.778
  470POPC   C2B 8768   8.614  34.468   8.370
  470POPC   C3B 8769   8.391  34.312   8.073
  470POPC   C4B 8770   8.332  34.245   7.652
  471POPC   NC3 8771  29.322  39.413   9.630
  471POPC   PO4 8772  28.731  39.023   9.683
  471POPC   GL1 8773  28.777  39.215   9.248
  471POPC   GL2 8774  28.961  39.565   9.208
  471POPC   C1A 8775  28.866  39.264   8.784
  471POPC   D2A 8776  28.801  39.325   8.348
  471POPC   C3A 8777  29.103  39.209   8.049
  471POPC   C4A 8778  29.345  39.062   7.700
  471POPC   C1B 8779  29.332  39.501   8.912
  471POPC   C2B 8780  29.408  39.255   8.526
  471POPC   C3B 8781  29.584  39.351   8.117
  471POPC   C4B 8782  29.381  39.573   7.797
  472POPC   NC3 8783  28.799  38.605   9.900
  472POPC   PO4 8784  28.274  38.528   9.461
  472POPC   GL1 8785  28.360  38.457   9.063
  472POPC   GL2 8786  28.596  38.238   9.088
  472POPC   C1A 8787  28.149  38.369   8.694
  472POPC   D2A 8788  27.921  38.578   8.366
  472POPC   C3A 8789  28.155  38.460   8.060
  472POPC   C4A 8790  28.466  38.470   7.821
  472POPC   C1B 8791  28.682  38.218   8.687
  472POPC   C2B 8792  28.642  38.332   8.284
  472POPC   C3B 8793  28.763  38.069   7.949
  472POPC   C4B 8794  28.911  38.326   7.642
  473POPC   NC3 8795  26.613  35.843   9.514
  473POPC   PO4 8796  27.046  36.284   9.454
  473POPC   GL1 8797  26.775  36.154   9.138
  473POPC   GL2 8798  26.545  36.415   9.242
  473POPC   C1A 8799  26.944  36.128   8.726
  473POPC   D2A 8800  27.006  35.904   8.362
  473POPC   C3A 8801  26.883  36.033   7.985
  473POPC   C4A 8802  26.885  35.800   7.635
  473POPC   C1B 8803  26.645  36.532   8.827
  473POPC   C2B 8804  26.569  36.333   8.435
  473POPC   C3B 8805  26.462  36.313   8.054
  473POPC   C4B 8806  26.695  36.564   7.793
  474POPC   NC3 8807   8.679  22.748   9.530
  474POPC   PO4 8808   9.252  23.096   9.566
  474POPC   GL1 8809   9.014  23.091   9.189
  474POPC   GL2 8810   9.051  22.746   9.154
  474POPC   C1A 8811   9.008  23.040   8.730
  474POPC   D2A 8812   9.096  23.160   8.312
  474POPC   C3A 8813   9.035  22.947   7.944
  474POPC   C4A 8814   8.885  23.178   7.625
  474POPC   C1B 8815   8.858  22.542   8.783
  474POPC   C2B 8816   8.774  22.703   8.359
  474POPC   C3B 8817   8.748  22.506   7.959
  474POPC   C4B 8818   8.654  22.703   7.588
  475POPC   NC3 8819  29.132  21.024   9.510
  475POPC   PO4 8820  29.242  21.732   9.427
  475POPC   GL1 8821  29.133  21.430   9.087
  475POPC   GL2 8822  28.961  21.114   9.056
  475POPC   C1A 8823  29.239  21.314   8.674
  475POPC   D2A 8824  29.403  21.392   8.281
  475POPC   C3A 8825  29.080  21.356   8.012
  475POPC   C4A 8826  28.807  21.691   7.883
  475POPC   C1B 8827  28.846  20.848   8.758
  475POPC   C2B 8828  28.914  21.015   8.396
  475POPC   C3B 8829  28.609  21.083   8.108
  475POPC   C4B 8830  28.703  21.189   7.717
  476POPC   NC3 8831  15.422  11.540   9.734
  476POPC   PO4 8832  16.032  11.481   9.492
  476POPC   GL1 8833  15.926  11.409   9.105
  476POPC   GL2 8834  15.806  11.106   9.128
  476POPC   C1A 8835  16.078  11.301   8.718
  476POPC   D2A 8836  16.207  11.452   8.360
  476POPC   C3A 8837  16.213  11.154   8.059
  476POPC   C4A 8838  16.092  11.302   7.682
  476POPC   C1B 8839  15.664  11.018   8.727
  476POPC   C2B 8840  15.724  11.204   8.330
  476POPC   C3B 8841  15.636  11.269   7.929
  476POPC   C4B 8842  15.343  11.234   7.609
  477POPC   NC3 8843  40.329  40.418   9.830
  477POPC   PO4 8844  40.816  39.997   9.701
  477POPC   GL1 8845  40.806  40.064   9.227
  477POPC   GL2 8846  41.029  39.836   9.058
  477POPC   C1A 8847  40.559  39.969   8.826
  477POPC   D2A 8848  40.483  39.751   8.414
  477POPC   C3A 8849  40.389  40.048   8.070
  477POPC   C4A 8850  40.484  40.093   7.636
  477POPC   C1B 8851  41.043  40.115   8.694
  477POPC   C2B 8852  40.875  40.062   8.276
  477POPC   C3B 8853  40.921  39.965   7.838
  477POPC   C4B 8854  40.954  40.169   7.424
  478POPC   NC3 8855  37.400  23.458   9.456
  478POPC   PO4 8856  36.758  23.412   9.516
  478POPC   GL1 8857  36.965  23.653   9.216
  478POPC   GL2 8858  36.942  24.018   9.218
  478POPC   C1A 8859  37.003  23.630   8.795
  478POPC   D2A 8860  36.807  23.685   8.442
  478POPC   C3A 8861  36.886  23.439   8.117
  478POPC   C4A 8862  36.857  23.494   7.707
  478POPC   C1B 8863  37.023  24.123   8.814
  478POPC   C2B 8864  37.112  24.083   8.391
  478POPC   C3B 8865  36.891  23.961   8.022
  478POPC   C4B 8866  37.017  23.973   7.635
  479POPC   NC3 8867  38.407  21.013   9.450
  479POPC   PO4 8868  38.738  20.527   9.517
  479POPC   GL1 8869  38.526  20.487   9.150
  479POPC   GL2 8870  38.496  20.768   9.028
  479POPC   C1A 8871  38.589  20.289   8.768
  479POPC   D2A 8872  38.384  20.312   8.377
  479POPC   C3A 8873  38.591  20.303   8.019
  479POPC   C4A 8874  38.469  20.513   7.677
  479POPC   C1B 8875  38.528  20.766   8.601
  479POPC   C2B 8876  38.155  20.878   8.371
  479POPC   C3B 8877  37.961  21.049   8.022
  479POPC   C4B 8878  38.276  20.987   7.728
  480POPC   NC3 8879  13.057   7.503   9.524
  480POPC   PO4 8880  12.353   7.534   9.388
  480POPC   GL1 8881  12.689   7.769   9.191
  480POPC   GL2 8882  13.039   7.765   9.095
  480POPC   C1A 8883  12.712   7.733   8.737
  480POPC   D2A 8884  12.605   7.387   8.504
  480POPC   C3A 8885  12.741   7.470   8.107
  480POPC   C4A 8886  12.728   7.264   7.741
  480POPC   C1B 8887  13.001   7.340   8.858
  480POPC   C2B 8888  13.116   7.272   8.425
  480POPC   C3B 8889  13.090   7.059   8.034
  480POPC   C4B 8890  13.165   7.049   7.586
  481POPC   NC3 8891  19.623  33.457   9.340
  481POPC   PO4 8892  19.889  34.058   9.513
  481POPC   GL1 8893  19.992  33.804   9.180
  481POPC   GL2 8894  19.695  33.836   8.980
  481POPC   C1A 8895  20.213  33.934   8.831
  481POPC   D2A 8896  19.972  33.971   8.502
  481POPC   C3A 8897  20.021  33.756   8.113
  481POPC   C4A 8898  19.992  33.973   7.759
  481POPC   C1B 8899  19.906  33.512   8.746
  481POPC   C2B 8900  19.779  33.383   8.362
  481POPC   C3B 8901  19.492  33.478   8.039
  481POPC   C4B 8902  19.634  33.646   7.673
  482POPC   NC3 8903  18.416  15.243   9.716
  482POPC   PO4 8904  17.843  15.247   9.515
  482POPC   GL1 8905  18.131  15.402   9.236
  482POPC   GL2 8906  17.987  15.620   8.961
  482POPC   C1A 8907  18.221  15.149   8.862
  482POPC   D2A 8908  18.424  15.107   8.441
  482POPC   C3A 8909  18.256  15.371   8.101
  482POPC   C4A 8910  18.055  15.106   7.788
  482POPC   C1B 8911  18.318  15.593   8.628
  482POPC   C2B 8912  18.713  15.520   8.363
  482POPC   C3B 8913  18.686  15.668   7.952
  482POPC   C4B 8914  18.452  15.461   7.603
  483POPC   NC3 8915  21.640  33.069   9.298
  483POPC   PO4 8916  21.013  32.813   9.262
  483POPC   GL1 8917  21.224  33.056   9.011
  483POPC   GL2 8918  21.425  32.802   8.949
  483POPC   C1A 8919  21.398  33.147   8.614
  483POPC   D2A 8920  21.193  33.115   8.290
  483POPC   C3A 8921  21.446  33.235   8.017
  483POPC   C4A 8922  21.318  33.281   7.628
  483POPC   C1B 8923  21.081  32.724   8.630
  483POPC   C2B 8924  21.179  32.622   8.232
  483POPC   C3B 8925  21.423  32.735   7.883
  483POPC   C4B 8926  21.329  32.800   7.424
  484POPC   NC3 8927  23.024   4.400   9.340
  484POPC   PO4 8928  22.790   4.864   9.737
  484POPC   GL1 8929  22.699   4.763   9.164
  484POPC   GL2 8930  23.078   4.630   8.917
  484POPC   C1A 8931  22.689   4.711   8.655
  484POPC   D2A 8932  23.036   4.500   8.377
  484POPC   C3A 8933  23.111   4.547   7.928
  484POPC   C4A 8934  22.715   4.457   7.780
  484POPC   C1B 8935  22.827   4.220   8.740
  484POPC   C2B 8936  22.758   4.019   8.320
  484POPC   C3B 8937  22.651   3.969   7.865
  484POPC   C4B 8938  23.101   4.034   7.731
  485POPC   NC3 8939   8.369  20.216   9.671
  485POPC   PO4 8940   7.829  20.528   9.446
  485POPC   GL1 8941   8.176  20.431   9.176
  485POPC   GL2 8942   8.332  20.123   9.162
  485POPC   C1A 8943   8.394  20.608   8.807
  485POPC   D2A 8944   8.245  20.884   8.478
  485POPC   C3A 8945   8.385  20.808   8.070
  485POPC   C4A 8946   8.281  20.778   7.639
  485POPC   C1B 8947   8.529  20.111   8.726
  485POPC   C2B 8948   8.508  20.369   8.321
  485POPC   C3B 8949   8.299  20.321   7.869
  485POPC   C4B 8950   8.582  20.248   7.460
  486POPC   NC3 8951  22.250  27.029   9.429
  486POPC   PO4 8952  21.886  26.425   9.492
  486POPC   GL1 8953  22.124  26.601   9.133
  486POPC   GL2 8954  22.483  26.596   9.234
  486POPC   C1A 8955  22.095  26.620   8.658
  486POPC   D2A 8956  22.016  26.959   8.343
  486POPC   C3A 8957  21.972  26.782   7.943
  486POPC   C4A 8958  21.877  26.934   7.590
  486POPC   C1B 8959  22.505  26.856   8.855
  486POPC   C2B 8960  22.508  26.859   8.439
  486POPC   C3B 8961  22.429  26.956   8.027
  486POPC   C4B 8962  22.447  26.604   7.783
  487POPC   NC3 8963  22.071   7.858   9.546
  487POPC   PO4 8964  21.955   7.199   9.445
  487POPC   GL1 8965  22.156   7.386   9.148
  487POPC   GL2 8966  22.492   7.502   9.294
  487POPC   C1A 8967  22.097   7.243   8.726
  487POPC   D2A 8968  22.347   7.074   8.402
  487POPC   C3A 8969  22.122   7.212   8.075
  487POPC   C4A 8970  21.767   7.369   7.811
  487POPC   C1B 8971  22.559   7.411   8.833
  487POPC   C2B 8972  22.691   7.489   8.411
  487POPC   C3B 8973  22.424   7.658   8.097
  487POPC   C4B 8974  22.230   7.567   7.732
  488POPC   NC3 8975  36.483  17.627   9.637
  488POPC   PO4 8976  35.942  17.309   9.495
  488POPC   GL1 8977  36.012  17.431   9.084
  488POPC   GL2 8978  36.350  17.386   9.171
  488POPC   C1A 8979  36.038  17.782   8.781
  488POPC   D2A 8980  36.398  17.898   8.458
  488POPC   C3A 8981  36.350  17.736   8.018
  488POPC   C4A 8982  35.952  17.639   7.766
  488POPC   C1B 8983  36.414  17.463   8.740
  488POPC   C2B 8984  36.119  17.436   8.384
  488POPC   C3B 8985  36.055  17.189   7.998
  488POPC   C4B 8986  36.346  17.328   7.690
  489POPC   NC3 8987  13.301  22.602   9.562
  489POPC   PO4 8988  13.848  23.030   9.416
  489POPC   GL1 8989  13.808  22.900   9.012
  489POPC   GL2 8990  13.489  22.759   9.090
  489POPC   C1A 8991  13.750  22.609   8.673
  489POPC   D2A 8992  13.516  22.697   8.316
  489POPC   C3A 8993  13.753  22.771   7.949
  489POPC   C4A 8994  13.957  22.461   7.740
  489POPC   C1B 8995  13.400  23.011   8.724
  489POPC   C2B 8996  13.330  23.169   8.285
  489POPC   C3B 8997  13.392  23.148   7.806
  489POPC   C4B 8998  13.457  23.121   7.344
  490POPC   NC3 8999  24.040  34.460   9.708
  490POPC   PO4 9000  23.575  34.878   9.437
  490POPC   GL1 9001  23.711  34.667   9.127
  490POPC   GL2 9002  23.923  34.475   9.228
  490POPC   C1A 9003  23.591  34.607   8.759
  490POPC   D2A 9004  23.888  34.678   8.491
  490POPC   C3A 9005  23.771  34.731   8.111
  490POPC   C4A 9006  24.002  34.637   7.749
  490POPC   C1B 9007  23.940  34.246   8.844
  490POPC   C2B 9008  23.714  34.187   8.451
  490POPC   C3B 9009  23.935  34.252   8.085
  490POPC   C4B 9010  23.971  34.083   7.703
  491POPC   NC3 9011  18.066   7.851   9.554
  491POPC   PO4 9012  18.542   8.422   9.574
  491POPC   GL1 9013  18.300   8.211   9.256
  491POPC   GL2 9014  18.401   7.876   9.159
  491POPC   C1A 9015  18.213   8.223   8.823
  491POPC   D2A 9016  18.146   8.074   8.402
  491POPC   C3A 9017  18.293   8.383   8.113
  491POPC   C4A 9018  18.143   8.561   7.736
  491POPC   C1B 9019  18.570   7.843   8.764
  491POPC   C2B 9020  18.521   7.750   8.334
  491POPC   C3B 9021  18.622   7.905   7.918
  491POPC   C4B 9022  18.688   7.932   7.437
  492POPC   NC3 9023   7.716  18.667   9.505
  492POPC   PO4 9024   7.264  18.143   9.535
  492POPC   GL1 9025   7.192  18.237   9.134
  492POPC   GL2 9026   7.459  18.439   9.135
  492POPC   C1A 9027   7.331  18.152   8.717
  492POPC   D2A 9028   7.444  18.260   8.317
  492POPC   C3A 9029   7.178  18.095   8.003
  492POPC   C4A 9030   7.307  18.090   7.572
  492POPC   C1B 9031   7.793  18.302   8.875
  492POPC   C2B 9032   7.923  18.410   8.469
  492POPC   C3B 9033   7.789  18.561   8.088
  492POPC   C4B 9034   7.708  18.318   7.747
  493POPC   NC3 9035   0.695  44.110   9.717
  493POPC   PO4 9036   0.247  43.614   9.505
  493POPC   GL1 9037   0.610  43.744   9.253
  493POPC   GL2 9038   0.528  44.085   9.203
  493POPC   C1A 9039   0.791  43.855   8.823
  493POPC   D2A 9040   0.633  44.002   8.400
  493POPC   C3A 9041   0.747  43.801   7.997
  493POPC   C4A 9042   0.582  43.697   7.566
  493POPC   C1B 9043   0.326  44.152   8.797
  493POPC   C2B 9044   0.248  44.360   8.379
  493POPC   C3B 9045   0.348  44.184   7.984
  493POPC   C4B 9046   0.196  43.787   7.875
  494POPC   NC3 9047  40.013  28.086   9.420
  494POPC   PO4 9048  39.794  28.670   9.495
  494POPC   GL1 9049  39.986  28.486   9.124
  494POPC   GL2 9050  39.687  28.247   9.047
  494POPC   C1A 9051  40.110  28.240   8.733
  494POPC   D2A 9052  39.999  28.038   8.332
  494POPC   C3A 9053  40.080  28.202   7.895
  494POPC   C4A 9054  40.031  28.256   7.427
  494POPC   C1B 9055  39.555  28.248   8.596
  494POPC   C2B 9056  39.486  28.206   8.156
  494POPC   C3B 9057  39.631  28.453   7.815
  494POPC   C4B 9058  39.582  28.470   7.357
  495POPC   NC3 9059  32.006  24.610   9.815
  495POPC   PO4 9060  31.330  24.478   9.514
  495POPC   GL1 9061  31.449  24.421   9.104
  495POPC   GL2 9062  31.501  24.765   9.008
  495POPC   C1A 9063  31.202  24.466   8.714
  495POPC   D2A 9064  31.102  24.646   8.331
  495POPC   C3A 9065  31.207  24.532   7.925
  495POPC   C4A 9066  31.251  24.762   7.530
  495POPC   C1B 9067  31.708  24.587   8.645
  495POPC   C2B 9068  31.663  24.554   8.187
  495POPC   C3B 9069  31.696  24.732   7.767
  495POPC   C4B 9070  31.705  24.779   7.274
  496POPC   NC3 9071  27.643   4.795   9.529
  496POPC   PO4 9072  27.400   4.110   9.483
  496POPC   GL1 9073  27.320   4.387   9.140
  496POPC   GL2 9074  27.660   4.477   9.052
  496POPC   C1A 9075  27.288   4.572   8.697
  496POPC   D2A 9076  27.508   4.474   8.343
  496POPC   C3A 9077  27.300   4.446   7.978
  496POPC   C4A 9078  27.569   4.484   7.612
  496POPC   C1B 9079  27.557   4.125   8.749
  496POPC   C2B 9080  27.499   3.954   8.327
  496POPC   C3B 9081  27.390   3.962   7.882
  496POPC   C4B 9082  27.618   3.998   7.493
  497POPC   NC3 9083  13.835   0.384   9.495
  497POPC   PO4 9084  13.224   0.826   9.308
  497POPC   GL1 9085  13.585   0.609   9.126
  497POPC   GL2 9086  13.612   0.237   9.061
  497POPC   C1A 9087  13.919   0.621   8.830
  497POPC   D2A 9088  13.907   0.664   8.428
  497POPC   C3A 9089  13.694   0.371   8.174
  497POPC   C4A 9090  13.738   0.578   7.798
  497POPC   C1B 9091  13.475   0.391   8.667
  497POPC   C2B 9092  13.347   0.697   8.396
  497POPC   C3B 9093  13.227   0.619   7.964
  497POPC   C4B 9094  13.366   0.247   7.739
  498POPC   NC3 9095  37.228  15.791   9.632
  498POPC   PO4 9096  36.738  16.274   9.760
  498POPC   GL1 9097  36.987  16.110   9.309
  498POPC   GL2 9098  36.980  15.756   9.188
  498POPC   C1A 9099  37.080  16.091   8.817
  498POPC   D2A 9100  37.084  16.259   8.369
  498POPC   C3A 9101  36.894  16.136   7.969
  498POPC   C4A 9102  37.095  16.004   7.609
  498POPC   C1B 9103  36.767  15.691   8.774
  498POPC   C2B 9104  36.838  15.794   8.328
  498POPC   C3B 9105  36.888  15.600   7.886
  498POPC   C4B 9106  36.955  15.560   7.401
  499POPC   NC3 9107  29.767  11.260   9.360
  499POPC   PO4 9108  29.920  11.928   9.402
  499POPC   GL1 9109  30.084  11.596   9.140
  499POPC   GL2 9110  29.741  11.579   8.962
  499POPC   C1A 9111  30.147  11.290   8.778
  499POPC   D2A 9112  30.200  11.425   8.366
  499POPC   C3A 9113  30.205  11.211   7.985
  499POPC   C4A 9114  30.173  11.571   7.732
  499POPC   C1B 9115  29.655  11.152   8.747
  499POPC   C2B 9116  29.809  11.090   8.348
  499POPC   C3B 9117  29.714  11.351   8.036
  499POPC   C4B 9118  29.807  11.234   7.654
  500POPC   NC3 9119  35.382   7.249   9.373
  500POPC   PO4 9120  35.277   7.959   9.453
  500POPC   GL1 9121  35.390   7.693   9.116
  500POPC   GL2 9122  35.055   7.527   9.057
  500POPC   C1A 9123  35.434   7.453   8.713
  500POPC   D2A 9124  35.371   7.261   8.318
  500POPC   C3A 9125  35.549   7.392   7.923
  500POPC   C4A 9126  35.373   7.511   7.509
  500POPC   C1B 9127  34.865   7.322   8.648
  500POPC   C2B 9128  34.912   7.061   8.258
  500POPC   C3B 9129  35.063   7.223   7.860
  500POPC   C4B 9130  35.015   7.172   7.416
  501POPC   NC3 9131  26.413  29.444   9.265
  501POPC   PO4 9132  27.021  29.526   9.493
  501POPC   GL1 9133  26.997  29.261   9.162
  501POPC   GL2 9134  26.747  29.023   9.215
  501POPC   C1A 9135  26.820  29.266   8.753
  501POPC   D2A 9136  26.728  29.208   8.339
  501POPC   C3A 9137  26.960  29.181   7.969
  501POPC   C4A 9138  26.762  29.207   7.580
  501POPC   C1B 9139  26.468  28.911   8.858
  501POPC   C2B 9140  26.495  28.789   8.449
  501POPC   C3B 9141  26.451  28.964   8.004
  501POPC   C4B 9142  26.493  28.791   7.602
  502POPC   NC3 9143  20.036  28.102   9.412
  502POPC   PO4 9144  19.966  27.495   9.835
  502POPC   GL1 9145  19.914  27.605   9.339
  502POPC   GL2 9146  19.808  27.361   9.132
  502POPC   C1A 9147  19.759  27.824   8.877
  502POPC   D2A 9148  19.695  28.064   8.453
  502POPC   C3A 9149  19.859  27.807   8.094
  502POPC   C4A 9150  19.992  27.425   7.840
  502POPC   C1B 9151  19.470  27.371   8.862
  502POPC   C2B 9152  19.437  27.540   8.479
  502POPC   C3B 9153  19.580  27.318   8.131
  502POPC   C4B 9154  19.490  27.001   7.807
  503POPC   NC3 9155  20.695   0.887   9.389
  503POPC   PO4 9156  20.289   1.420   9.476
  503POPC   GL1 9157  20.515   1.289   9.106
  503POPC   GL2 9158  20.442   0.958   8.942
  503POPC   C1A 9159  20.577   1.417   8.683
  503POPC   D2A 9160  20.266   1.311   8.396
  503POPC   C3A 9161  20.392   1.245   7.991
  503POPC   C4A 9162  20.806   1.343   7.813
  503POPC   C1B 9163  20.836   0.992   8.747
  503POPC   C2B 9164  20.788   1.072   8.290
  503POPC   C3B 9165  20.716   0.843   7.870
  503POPC   C4B 9166  20.918   0.927   7.471
  504POPC   NC3 9167  29.479  44.981   9.359
  504POPC   PO4 9168  29.395   0.675   9.434
  504POPC   GL1 9169  29.226   0.744   9.043
  504POPC   GL2 9170  29.054   0.427   9.064
  504POPC   C1A 9171  29.098   0.644   8.614
  504POPC   D2A 9172  28.975   0.307   8.378
  504POPC   C3A 9173  29.157   0.397   8.003
  504POPC   C4A 9174  29.055   0.557   7.612
  504POPC   C1B 9175  29.354   0.229   8.761
  504POPC   C2B 9176  29.629   0.111   8.424
  504POPC   C3B 9177  29.570   0.080   7.988
  504POPC   C4B 9178  29.519   0.298   7.630
  505POPC   NC3 9179  37.781   8.609   9.462
  505POPC   PO4 9180  37.610   7.901   9.452
  505POPC   GL1 9181  37.591   8.029   9.030
  505POPC   GL2 9182  37.479   8.367   9.111
  505POPC   C1A 9183  37.700   7.965   8.599
  505POPC   D2A 9184  37.970   8.142   8.307
  505POPC   C3A 9185  37.712   8.150   7.944
  505POPC   C4A 9186  37.830   7.940   7.592
  505POPC   C1B 9187  37.659   8.463   8.730
  505POPC   C2B 9188  37.606   8.496   8.299
  505POPC   C3B 9189  37.925   8.612   8.032
  505POPC   C4B 9190  37.971   8.628   7.598
  506POPC   NC3 9191   4.549  34.099   9.362
  506POPC   PO4 9192   4.172  33.608   9.723
  506POPC   GL1 9193   4.195  33.746   9.286
  506POPC   GL2 9194   4.091  34.066   9.141
  506POPC   C1A 9195   4.346  33.731   8.838
  506POPC   D2A 9196   4.337  33.483   8.472
  506POPC   C3A 9197   4.236  33.683   8.090
  506POPC   C4A 9198   4.399  33.946   7.783
  506POPC   C1B 9199   3.907  33.959   8.782
  506POPC   C2B 9200   4.007  34.010   8.384
  506POPC   C3B 9201   3.987  34.186   7.969
  506POPC   C4B 9202   4.044  34.254   7.508
  507POPC   NC3 9203  27.626  37.431   9.824
  507POPC   PO4 9204  27.870  37.885   9.355
  507POPC   GL1 9205  27.820  37.717   8.971
  507POPC   GL2 9206  27.487  37.681   8.869
  507POPC   C1A 9207  27.809  37.987   8.623
  507POPC   D2A 9208  27.845  38.081   8.219
  507POPC   C3A 9209  27.834  37.682   8.022
  507POPC   C4A 9210  27.835  37.563   7.597
  507POPC   C1B 9211  27.379  37.288   8.693
  507POPC   C2B 9212  27.438  37.359   8.294
  507POPC   C3B 9213  27.473  37.341   7.892
  507POPC   C4B 9214  27.154  37.247   7.586
  508POPC   NC3 9215  19.832   1.288   9.677
  508POPC   PO4 9216  20.260   0.748   9.372
  508POPC   GL1 9217  20.007   1.128   9.151
  508POPC   GL2 9218  19.645   1.205   9.165
  508POPC   C1A 9219  19.852   1.210   8.704
  508POPC   D2A 9220  19.770   1.330   8.279
  508POPC   C3A 9221  19.819   1.009   7.981
  508POPC   C4A 9222  19.693   1.003   7.556
  508POPC   C1B 9223  19.506   1.561   8.850
  508POPC   C2B 9224  19.399   1.670   8.374
  508POPC   C3B 9225  19.537   1.585   7.902
  508POPC   C4B 9226  19.599   1.564   7.418
  509POPC   NC3 9227  15.803  11.911   9.376
  509POPC   PO4 9228  16.222  12.463   9.481
  509POPC   GL1 9229  16.167  12.171   9.128
  509POPC   GL2 9230  16.267  11.795   9.159
  509POPC   C1A 9231  15.932  12.288   8.748
  509POPC   D2A 9232  16.116  12.413   8.356
  509POPC   C3A 9233  16.013  12.217   7.990
  509POPC   C4A 9234  15.677  12.084   7.772
  509POPC   C1B 9235  16.088  11.804   8.758
  509POPC   C2B 9236  15.874  11.893   8.390
  509POPC   C3B 9237  15.908  11.689   8.004
  509POPC   C4B 9238  16.139  11.829   7.658
  510POPC   NC3 9239  36.529   4.115   9.452
  510POPC   PO4 9240  37.123   4.323   9.604
  510POPC   GL1 9241  36.957   4.246   9.195
  510POPC   GL2 9242  37.002   3.933   9.078
  510POPC   C1A 9243  36.764   4.330   8.790
  510POPC   D2A 9244  36.922   4.535   8.421
  510POPC   C3A 9245  36.698   4.385   8.053
  510POPC   C4A 9246  36.861   4.379   7.642
  510POPC   C1B 9247  37.123   3.906   8.679
  510POPC   C2B 9248  36.947   4.004   8.306
  510POPC   C3B 9249  37.119   3.966   7.899
  510POPC   C4B 9250  37.129   3.962   7.452
  511POPC   NC3 9251  10.238  36.054   9.595
  511POPC   PO4 9252  10.815  35.793   9.732
  511POPC   GL1 9253  10.614  35.919   9.278
  511POPC   GL2 9254  10.450  36.230   9.179
  511POPC   C1A 9255  10.676  35.924   8.814
  511POPC   D2A 9256  10.834  36.102   8.422
  511POPC   C3A 9257  10.593  35.945   8.087
  511POPC   C4A 9258  10.428  35.795   7.720
  511POPC   C1B 9259  10.601  36.431   8.817
  511POPC   C2B 9260  10.729  36.606   8.444
  511POPC   C3B 9261  10.694  36.484   8.045
  511POPC   C4B 9262  10.527  36.286   7.715
  512POPC   NC3 9263  11.105   1.086   9.477
  512POPC   PO4 9264  11.551   1.510   9.728
  512POPC   GL1 9265  11.475   1.425   9.247
  512POPC   GL2 9266  11.095   1.418   9.095
  512POPC   C1A 9267  11.467   1.504   8.774
  512POPC   D2A 9268  11.139   1.419   8.468
  512POPC   C3A 9269  11.301   1.229   8.089
  512POPC   C4A 9270  11.584   1.369   7.774
  512POPC   C1B 9271  11.030   1.022   8.830
  512POPC   C2B 9272  11.129   0.667   8.569
  512POPC   C3B 9273  11.175   0.702   8.127
  512POPC   C4B 9274  11.039   0.942   7.751
  513POPC   NC3 9275  15.156  18.084   9.456
  513POPC   PO4 9276  15.603  18.643   9.491
  513POPC   GL1 9277  15.366  18.488   9.112
  513POPC   GL2 9278  15.031  18.358   9.051
  513POPC   C1A 9279  15.241  18.650   8.694
  513POPC   D2A 9280  15.041  18.486   8.281
  513POPC   C3A 9281  15.189  18.672   7.854
  513POPC   C4A 9282  15.033  18.622   7.398
  513POPC   C1B 9283  15.104  18.158   8.699
  513POPC   C2B 9284  15.300  18.034   8.338
  513POPC   C3B 9285  15.327  18.165   7.951
  513POPC   C4B 9286  14.951  18.224   7.754
  514POPC   NC3 9287  29.913  18.715   9.502
  514POPC   PO4 9288  30.181  19.333   9.450
  514POPC   GL1 9289  29.939  19.097   9.131
  514POPC   GL2 9290  30.148  18.822   9.033
  514POPC   C1A 9291  29.842  19.172   8.688
  514POPC   D2A 9292  29.765  19.311   8.265
  514POPC   C3A 9293  30.024  19.101   7.961
  514POPC   C4A 9294  30.038  19.135   7.508
  514POPC   C1B 9295  29.719  18.697   8.849
  514POPC   C2B 9296  29.561  18.692   8.406
  514POPC   C3B 9297  29.736  18.677   7.943
  514POPC   C4B 9298  30.112  18.654   7.639
  515POPC   NC3 9299  39.825  27.175   9.402
  515POPC   PO4 9300  40.142  27.733   9.683
  515POPC   GL1 9301  39.999  27.670   9.181
  515POPC   GL2 9302  39.752  27.484   9.026
  515POPC   C1A 9303  40.217  27.717   8.767
  515POPC   D2A 9304  40.468  27.854   8.416
  515POPC   C3A 9305  40.319  27.726   8.022
  515POPC   C4A 9306  40.202  27.317   7.808
  515POPC   C1B 9307  39.728  27.807   8.751
  515POPC   C2B 9308  39.615  27.733   8.337
  515POPC   C3B 9309  39.805  27.742   7.941
  515POPC   C4B 9310  39.749  27.477   7.592
  516POPC   NC3 9311  40.181  21.960   9.570
  516POPC   PO4 9312  39.560  22.217   9.496
  516POPC   GL1 9313  39.755  22.219   9.105
  516POPC   GL2 9314  40.087  22.102   9.107
  516POPC   C1A 9315  39.881  22.102   8.664
  516POPC   D2A 9316  39.726  21.852   8.398
  516POPC   C3A 9317  39.624  21.904   8.034
  516POPC   C4A 9318  39.684  22.253   7.783
  516POPC   C1B 9319  40.302  21.844   8.797
  516POPC   C2B 9320  40.347  22.004   8.403
  516POPC   C3B 9321  40.104  22.052   8.055
  516POPC   C4B 9322  40.180  22.140   7.610
  517POPC   NC3 9323   3.314  12.244   9.570
  517POPC   PO4 9324   3.666  11.720   9.425
  517POPC   GL1 9325   3.499  11.986   9.132
  517POPC   GL2 9326   3.653  12.307   9.201
  517POPC   C1A 9327   3.513  11.846   8.715
  517POPC   D2A 9328   3.302  11.853   8.350
  517POPC   C3A 9329   3.512  11.788   7.991
  517POPC   C4A 9330   3.245  12.080   7.778
  517POPC   C1B 9331   3.557  12.450   8.836
  517POPC   C2B 9332   3.556  12.329   8.452
  517POPC   C3B 9333   3.520  12.443   8.056
  517POPC   C4B 9334   3.765  12.193   7.814
  518POPC   NC3 9335  18.033  26.886   9.642
  518POPC   PO4 9336  18.513  26.471   9.859
  518POPC   GL1 9337  18.391  26.664   9.353
  518POPC   GL2 9338  18.175  26.951   9.163
  518POPC   C1A 9339  18.236  26.554   8.881
  518POPC   D2A 9340  18.244  26.460   8.424
  518POPC   C3A 9341  18.053  26.653   8.044
  518POPC   C4A 9342  18.248  26.673   7.631
  518POPC   C1B 9343  18.583  26.985   8.934
  518POPC   C2B 9344  18.672  27.049   8.478
  518POPC   C3B 9345  18.499  26.950   8.069
  518POPC   C4B 9346  18.661  27.053   7.689
  519POPC   NC3 9347  40.261  37.429   9.543
  519POPC   PO4 9348  39.801  37.997   9.598
  519POPC   GL1 9349  40.052  37.809   9.235
  519POPC   GL2 9350  39.943  37.475   9.160
  519POPC   C1A 9351  40.150  37.731   8.784
  519POPC   D2A 9352  39.987  37.682   8.407
  519POPC   C3A 9353  40.130  37.902   8.076
  519POPC   C4A 9354  39.897  37.850   7.726
  519POPC   C1B 9355  39.805  37.301   8.774
  519POPC   C2B 9356  39.874  37.193   8.352
  519POPC   C3B 9357  39.843  37.412   7.968
  519POPC   C4B 9358  39.957  37.376   7.518
  520POPC   NC3 9359  34.947  39.999   9.601
  520POPC   PO4 9360  34.267  40.078   9.525
  520POPC   GL1 9361  34.469  40.036   9.123
  520POPC   GL2 9362  34.616  40.335   8.943
  520POPC   C1A 9363  34.550  39.876   8.728
  520POPC   D2A 9364  34.610  40.023   8.309
  520POPC   C3A 9365  34.568  39.724   7.975
  520POPC   C4A 9366  34.731  39.568   7.578
  520POPC   C1B 9367  34.267  40.296   8.652
  520POPC   C2B 9368  34.162  40.257   8.247
  520POPC   C3B 9369  34.370  40.204   7.872
  520POPC   C4B 9370  34.731  40.115   7.597
  521POPC   NC3 9371  34.388  28.548   9.568
  521POPC   PO4 9372  34.749  28.073   9.502
  521POPC   GL1 9373  34.494  28.261   9.162
  521POPC   GL2 9374  34.571  28.619   9.057
  521POPC   C1A 9375  34.437  28.255   8.734
  521POPC   D2A 9376  34.600  28.390   8.353
  521POPC   C3A 9377  34.628  28.106   8.023
  521POPC   C4A 9378  34.488  28.170   7.596
  521POPC   C1B 9379  34.916  28.596   8.709
  521POPC   C2B 9380  35.052  28.623   8.233
  521POPC   C3B 9381  34.777  28.576   7.877
  521POPC   C4B 9382  34.325  28.528   7.930
  522POPC   NC3 9383  13.350   3.249   9.488
  522POPC   PO4 9384  13.926   3.694   9.472
  522POPC   GL1 9385  13.597   3.565   9.193
  522POPC   GL2 9386  13.656   3.248   9.059
  522POPC   C1A 9387  13.399   3.669   8.827
  522POPC   D2A 9388  13.571   3.390   8.507
  522POPC   C3A 9389  13.837   3.545   8.179
  522POPC   C4A 9390  13.675   3.723   7.781
  522POPC   C1B 9391  13.218   3.185   8.864
  522POPC   C2B 9392  13.167   3.084   8.433
  522POPC   C3B 9393  13.343   3.287   8.034
  522POPC   C4B 9394  13.517   3.279   7.607
  523POPC   NC3 9395   1.503  44.147   9.527
  523POPC   PO4 9396   0.979  43.671   9.629
  523POPC   GL1 9397   1.138  43.757   9.214
  523POPC   GL2 9398   1.043  44.095   9.279
  523POPC   C1A 9399   1.302  43.690   8.764
  523POPC   D2A 9400   1.526  43.725   8.359
  523POPC   C3A 9401   1.310  43.583   7.992
  523POPC   C4A 9402   1.113  43.805   7.612
  523POPC   C1B 9403   1.235  44.166   8.902
  523POPC   C2B 9404   1.148  44.097   8.468
  523POPC   C3B 9405   1.212  44.084   8.028
  523POPC   C4B 9406   1.360  44.345   7.685
  524POPC   NC3 9407  12.601  34.125   9.469
  524POPC   PO4 9408  13.018  33.603   9.498
  524POPC   GL1 9409  12.840  33.807   9.147
  524POPC   GL2 9410  13.021  34.151   9.174
  524POPC   C1A 9411  12.982  33.854   8.723
  524POPC   D2A 9412  13.089  33.826   8.306
  524POPC   C3A 9413  12.696  33.683   8.108
  524POPC   C4A 9414  12.699  33.706   7.674
  524POPC   C1B 9415  12.788  34.327   8.828
  524POPC   C2B 9416  12.695  34.166   8.418
  524POPC   C3B 9417  12.812  34.174   7.994
  524POPC   C4B 9418  12.518  34.180   7.670
  525POPC   NC3 9419  30.875   4.647   9.425
  525POPC   PO4 9420  30.574   5.247   9.439
  525POPC   GL1 9421  30.679   5.002   9.089
  525POPC   GL2 9422  31.028   5.073   9.143
  525POPC   C1A 9423  30.749   4.766   8.696
  525POPC   D2A 9424  30.799   4.582   8.290
  525POPC   C3A 9425  30.544   4.830   8.020
  525POPC   C4A 9426  30.491   4.957   7.616
  525POPC   C1B 9427  30.934   5.266   8.739
  525POPC   C2B 9428  30.727   5.196   8.349
  525POPC   C3B 9429  30.898   5.191   7.935
  525POPC   C4B 9430  30.921   5.419   7.561
  526POPC   NC3 9431   7.840  39.966   9.502
  526POPC   PO4 9432   8.390  39.522   9.583
  526POPC   GL1 9433   8.318  39.843   9.257
  526POPC   GL2 9434   8.437  40.204   9.276
  526POPC   C1A 9435   8.069  39.850   8.874
  526POPC   D2A 9436   8.201  39.844   8.456
  526POPC   C3A 9437   7.928  39.704   8.145
  526POPC   C4A 9438   8.041  39.914   7.775
  526POPC   C1B 9439   8.264  40.335   8.871
  526POPC   C2B 9440   8.207  40.367   8.425
  526POPC   C3B 9441   8.353  40.196   8.058
  526POPC   C4B 9442   8.314  40.365   7.663
  527POPC   NC3 9443   3.966  21.226   9.367
  527POPC   PO4 9444   4.615  21.307   9.561
  527POPC   GL1 9445   4.478  21.318   9.155
  527POPC   GL2 9446   4.514  21.685   9.143
  527POPC   C1A 9447   4.542  21.146   8.732
  527POPC   D2A 9448   4.261  21.091   8.377
  527POPC   C3A 9449   4.388  21.244   8.007
  527POPC   C4A 9450   4.545  21.198   7.609
  527POPC   C1B 9451   4.722  21.617   8.745
  527POPC   C2B 9452   4.752  21.519   8.292
  527POPC   C3B 9453   4.528  21.719   7.924
  527POPC   C4B 9454   4.158  21.579   7.668
  528POPC   NC3 9455   3.438  24.958   9.581
  528POPC   PO4 9456   3.619  25.636   9.392
  528POPC   GL1 9457   3.451  25.294   9.212
  528POPC   GL2 9458   3.259  25.489   9.026
  528POPC   C1A 9459   3.313  24.988   8.900
  528POPC   D2A 9460   3.362  24.898   8.506
  528POPC   C3A 9461   3.374  25.239   8.245
  528POPC   C4A 9462   3.204  25.094   7.896
  528POPC   C1B 9463   3.604  25.352   8.719
  528POPC   C2B 9464   3.863  25.163   8.406
  528POPC   C3B 9465   3.833  25.295   8.003
  528POPC   C4B 9466   3.596  25.349   7.677
  529POPC   NC3 9467  21.504   2.195   9.547
  529POPC   PO4 9468  20.954   1.947   9.492
  529POPC   GL1 9469  21.186   2.101   9.161
  529POPC   GL2 9470  21.372   1.785   9.204
  529POPC   C1A 9471  21.341   2.216   8.766
  529POPC   D2A 9472  21.223   2.030   8.366
  529POPC   C3A 9473  21.454   2.161   7.994
  529POPC   C4A 9474  21.385   2.192   7.581
  529POPC   C1B 9475  21.546   1.721   8.827
  529POPC   C2B 9476  21.674   1.819   8.412
  529POPC   C3B 9477  21.486   1.673   8.035
  529POPC   C4B 9478  21.560   1.663   7.634
  530POPC   NC3 9479  22.556   8.710   9.351
  530POPC   PO4 9480  22.494   8.050   9.665
  530POPC   GL1 9481  22.349   8.165   9.218
  530POPC   GL2 9482  22.233   7.876   9.029
  530POPC   C1A 9483  22.119   8.357   8.827
  530POPC   D2A 9484  22.243   8.389   8.353
  530POPC   C3A 9485  21.943   8.488   7.995
  530POPC   C4A 9486  21.918   8.343   7.553
  530POPC   C1B 9487  22.227   7.727   8.592
  530POPC   C2B 9488  21.933   7.677   8.234
  530POPC   C3B 9489  22.037   7.990   7.925
  530POPC   C4B 9490  22.420   8.190   7.803
  531POPC   NC3 9491  44.990   4.555   9.440
  531POPC   PO4 9492  44.492   4.165   9.646
  531POPC   GL1 9493  44.566   4.335   9.219
  531POPC   GL2 9494  44.313   4.590   9.136
  531POPC   C1A 9495  44.866   4.263   8.847
  531POPC   D2A 9496   0.059   4.365   8.414
  531POPC   C3A 9497  44.795   4.187   8.063
  531POPC   C4A 9498  44.423   3.940   7.933
  531POPC   C1B 9499  44.641   4.724   8.785
  531POPC   C2B 9500  44.551   4.740   8.310
  531POPC   C3B 9501  44.413   4.523   7.898
  531POPC   C4B 9502  44.261   4.608   7.466
  532POPC   NC3 9503  35.049  25.370   9.839
  532POPC   PO4 9504  34.533  25.736   9.504
  532POPC   GL1 9505  34.345  25.922   9.152
  532POPC   GL2 9506  34.159  25.619   9.092
  532POPC   C1A 9507  34.539  26.211   8.835
  532POPC   D2A 9508  34.898  26.230   8.534
  532POPC   C3A 9509  34.815  26.414   8.155
  532POPC   C4A 9510  34.725  26.272   7.793
  532POPC   C1B 9511  34.328  25.702   8.684
  532POPC   C2B 9512  34.421  26.014   8.370
  532POPC   C3B 9513  34.320  26.009   7.940
  532POPC   C4B 9514  34.010  26.278   7.757
  533POPC   NC3 9515   2.565  18.290   9.424
  533POPC   PO4 9516   3.239  18.170   9.496
  533POPC   GL1 9517   3.004  18.501   9.200
  533POPC   GL2 9518   2.799  18.266   8.983
  533POPC   C1A 9519   2.949  18.655   8.724
  533POPC   D2A 9520   2.865  18.329   8.460
  533POPC   C3A 9521   2.818  18.348   8.025
  533POPC   C4A 9522   2.804  18.728   7.799
  533POPC   C1B 9523   2.475  18.089   8.706
  533POPC   C2B 9524   2.369  18.203   8.313
  533POPC   C3B 9525   2.418  18.004   7.949
  533POPC   C4B 9526   2.538  18.062   7.524
  534POPC   NC3 9527  30.182   3.989   9.513
  534POPC   PO4 9528  29.674   4.394   9.406
  534POPC   GL1 9529  29.822   4.085   9.121
  534POPC   GL2 9530  29.522   3.992   8.909
  534POPC   C1A 9531  29.978   4.009   8.704
  534POPC   D2A 9532  29.932   4.205   8.297
  534POPC   C3A 9533  30.042   4.020   7.905
  534POPC   C4A 9534  29.974   4.252   7.536
  534POPC   C1B 9535  29.685   4.399   8.727
  534POPC   C2B 9536  29.777   4.701   8.437
  534POPC   C3B 9537  29.554   4.698   8.061
  534POPC   C4B 9538  29.546   4.597   7.655
  535POPC   NC3 9539  29.709  19.423   9.447
  535POPC   PO4 9540  29.969  20.061   9.453
  535POPC   GL1 9541  29.946  19.954   9.038
  535POPC   GL2 9542  29.635  19.798   9.093
  535POPC   C1A 9543  30.081  19.644   8.702
  535POPC   D2A 9544  30.267  19.378   8.336
  535POPC   C3A 9545  30.141  19.627   7.964
  535POPC   C4A 9546  29.977  20.077   7.980
  535POPC   C1B 9547  29.520  19.592   8.715
  535POPC   C2B 9548  29.536  19.768   8.301
  535POPC   C3B 9549  29.629  19.707   7.891
  535POPC   C4B 9550  29.639  19.324   7.747
  536POPC   NC3 9551   2.344  12.279   9.329
  536POPC   PO4 9552   2.870  12.116   9.669
  536POPC   GL1 9553   2.860  12.146   9.212
  536POPC   GL2 9554   3.122  12.375   9.122
  536POPC   C1A 9555   2.658  12.072   8.800
  536POPC   D2A 9556   2.784  11.885   8.414
  536POPC   C3A 9557   2.529  11.914   8.067
  536POPC   C4A 9558   2.655  12.010   7.659
  536POPC   C1B 9559   3.135  12.179   8.722
  536POPC   C2B 9560   3.068  12.322   8.299
  536POPC   C3B 9561   2.861  12.400   7.922
  536POPC   C4B 9562   2.948  12.422   7.480
  537POPC   NC3 9563  42.797  37.552   9.740
  537POPC   PO4 9564  43.408  37.622   9.672
  537POPC   GL1 9565  43.203  37.640   9.221
  537POPC   GL2 9566  42.831  37.698   9.205
  537POPC   C1A 9567  43.357  37.539   8.776
  537POPC   D2A 9568  43.355  37.196   8.487
  537POPC   C3A 9569  43.480  37.372   8.097
  537POPC   C4A 9570  43.335  37.707   7.806
  537POPC   C1B 9571  42.913  37.755   8.757
  537POPC   C2B 9572  43.097  37.707   8.333
  537POPC   C3B 9573  42.886  37.881   7.954
  537POPC   C4B 9574  42.732  38.175   7.598
  538POPC   NC3 9575   3.648  41.599   9.637
  538POPC   PO4 9576   3.323  42.104   9.310
  538POPC   GL1 9577   3.578  41.730   9.148
  538POPC   GL2 9578   3.776  41.415   9.188
  538POPC   C1A 9579   3.566  41.662   8.702
  538POPC   D2A 9580   3.293  41.548   8.345
  538POPC   C3A 9581   3.454  41.629   7.948
  538POPC   C4A 9582   3.556  41.267   7.696
  538POPC   C1B 9583   3.937  41.288   8.806
  538POPC   C2B 9584   3.741  41.272   8.424
  538POPC   C3B 9585   3.897  41.314   8.043
  538POPC   C4B 9586   3.927  41.666   7.754
  539POPC   NC3 9587  16.121  36.164   9.464
  539POPC   PO4 9588  15.664  35.649   9.758
  539POPC   GL1 9589  15.556  35.944   9.252
  539POPC   GL2 9590  15.796  36.179   9.088
  539POPC   C1A 9591  15.685  35.833   8.766
  539POPC   D2A 9592  15.839  36.130   8.445
  539POPC   C3A 9593  15.890  35.937   8.057
  539POPC   C4A 9594  15.878  36.135   7.686
  539POPC   C1B 9595  16.179  35.995   8.815
  539POPC   C2B 9596  16.434  36.207   8.504
  539POPC   C3B 9597  16.333  36.259   8.053
  539POPC   C4B 9598  16.374  36.191   7.605
  540POPC   NC3 9599   3.957  44.142   9.387
  540POPC   PO4 9600   4.474  43.710   9.527
  540POPC   GL1 9601   4.388  43.914   9.146
  540POPC   GL2 9602   4.645  44.106   9.055
  540POPC   C1A 9603   4.106  43.912   8.786
  540POPC   D2A 9604   4.021  43.835   8.352
  540POPC   C3A 9605   4.373  43.869   8.082
  540POPC   C4A 9606   4.275  44.202   7.753
  540POPC   C1B 9607   4.589  44.022   8.623
  540POPC   C2B 9608   4.835  44.128   8.260
  540POPC   C3B 9609   4.769  44.119   7.844
  540POPC   C4B 9610   4.797  44.144   7.430
  541POPC   NC3 9611  27.896  17.495   9.583
  541POPC   PO4 9612  27.282  17.410   9.444
  541POPC   GL1 9613  27.602  17.591   9.175
  541POPC   GL2 9614  27.822  17.266   9.144
  541POPC   C1A 9615  27.520  17.663   8.753
  541POPC   D2A 9616  27.514  17.364   8.421
  541POPC   C3A 9617  27.669  17.550   8.081
  541POPC   C4A 9618  27.488  17.682   7.722
  541POPC   C1B 9619  27.869  17.178   8.728
  541POPC   C2B 9620  28.064  17.301   8.362
  541POPC   C3B 9621  27.998  17.190   7.978
  541POPC   C4B 9622  27.745  17.223   7.646
  542POPC   NC3 9623  32.542  22.831   9.524
  542POPC   PO4 9624  33.158  23.167   9.572
  542POPC   GL1 9625  32.991  22.976   9.169
  542POPC   GL2 9626  32.900  22.694   9.205
  542POPC   C1A 9627  33.190  22.835   8.712
  542POPC   D2A 9628  33.465  22.723   8.333
  542POPC   C3A 9629  33.237  22.891   7.984
  542POPC   C4A 9630  33.206  23.335   7.896
  542POPC   C1B 9631  32.720  22.661   8.800
  542POPC   C2B 9632  32.641  22.814   8.384
  542POPC   C3B 9633  32.746  23.021   8.010
  542POPC   C4B 9634  32.786  22.861   7.601
  543POPC   NC3 9635  28.255  23.021   9.549
  543POPC   PO4 9636  28.701  22.570   9.361
  543POPC   GL1 9637  28.437  22.860   9.092
  543POPC   GL2 9638  28.046  22.842   9.091
  543POPC   C1A 9639  28.496  23.149   8.758
  543POPC   D2A 9640  28.489  23.052   8.338
  543POPC   C3A 9641  28.678  23.284   8.005
  543POPC   C4A 9642  28.730  22.899   7.745
  543POPC   C1B 9643  28.034  22.890   8.635
  543POPC   C2B 9644  27.996  23.162   8.277
  543POPC   C3B 9645  28.216  23.081   7.888
  543POPC   C4B 9646  28.273  22.723   7.638
  544POPC   NC3 9647   7.492  31.755   9.431
  544POPC   PO4 9648   7.213  31.137   9.620
  544POPC   GL1 9649   7.204  31.383   9.193
  544POPC   GL2 9650   6.915  31.631   9.214
  544POPC   C1A 9651   7.350  31.293   8.742
  544POPC   D2A 9652   7.611  31.402   8.346
  544POPC   C3A 9653   7.494  31.215   7.922
  544POPC   C4A 9654   7.146  31.350   7.626
  544POPC   C1B 9655   7.122  31.738   8.836
  544POPC   C2B 9656   7.281  31.783   8.448
  544POPC   C3B 9657   7.230  31.656   8.054
  544POPC   C4B 9658   6.992  31.817   7.760
  545POPC   NC3 9659   5.178  33.448   9.292
  545POPC   PO4 9660   4.827  32.973   9.517
  545POPC   GL1 9661   5.085  32.981   9.132
  545POPC   GL2 9662   4.872  32.866   8.906
  545POPC   C1A 9663   5.246  33.178   8.721
  545POPC   D2A 9664   5.195  33.489   8.384
  545POPC   C3A 9665   5.355  33.343   7.998
  545POPC   C4A 9666   5.524  33.533   7.600
  545POPC   C1B 9667   5.049  32.744   8.509
  545POPC   C2B 9668   5.009  32.977   8.125
  545POPC   C3B 9669   4.794  33.032   7.713
  545POPC   C4B 9670   4.880  32.908   7.259
  546POPC   NC3 9671  12.334  22.327   9.597
  546POPC   PO4 9672  11.923  21.872   9.456
  546POPC   GL1 9673  12.029  22.103   9.130
  546POPC   GL2 9674  12.056  22.484   9.203
  546POPC   C1A 9675  11.899  22.053   8.711
  546POPC   D2A 9676  12.006  21.893   8.307
  546POPC   C3A 9677  11.771  22.012   7.940
  546POPC   C4A 9678  12.065  22.077   7.637
  546POPC   C1B 9679  12.204  22.461   8.798
  546POPC   C2B 9680  12.281  22.288   8.425
  546POPC   C3B 9681  12.111  22.377   8.044
  546POPC   C4B 9682  12.072  22.659   7.723
  547POPC   NC3 9683  31.582   3.126   9.487
  547POPC   PO4 9684  31.193   3.637   9.474
  547POPC   GL1 9685  31.459   3.541   9.114
  547POPC   GL2 9686  31.288   3.238   9.093
  547POPC   C1A 9687  31.760   3.280   8.813
  547POPC   D2A 9688  31.978   3.280   8.398
  547POPC   C3A 9689  31.728   3.573   8.138
  547POPC   C4A 9690  31.540   3.610   7.721
  547POPC   C1B 9691  31.244   3.294   8.706
  547POPC   C2B 9692  31.465   3.175   8.369
  547POPC   C3B 9693  31.293   3.265   8.012
  547POPC   C4B 9694  31.179   3.242   7.590
  548POPC   NC3 9695  36.986  28.781   9.513
  548POPC   PO4 9696  36.895  29.427   9.610
  548POPC   GL1 9697  36.949  29.201   9.224
  548POPC   GL2 9698  36.589  29.236   9.198
  548POPC   C1A 9699  36.910  28.997   8.806
  548POPC   D2A 9700  36.765  28.806   8.394
  548POPC   C3A 9701  36.879  29.016   8.000
  548POPC   C4A 9702  37.046  29.120   7.603
  548POPC   C1B 9703  36.578  29.477   8.820
  548POPC   C2B 9704  36.740  29.353   8.442
  548POPC   C3B 9705  36.574  29.393   8.077
  548POPC   C4B 9706  36.596  29.402   7.664
  549POPC   NC3 9707  29.169  22.635   9.426
  549POPC   PO4 9708  29.520  23.229   9.362
  549POPC   GL1 9709  29.175  23.047   9.138
  549POPC   GL2 9710  29.365  22.806   9.012
  549POPC   C1A 9711  28.958  22.895   8.746
  549POPC   D2A 9712  28.991  23.150   8.408
  549POPC   C3A 9713  29.128  23.032   8.004
  549POPC   C4A 9714  29.115  23.182   7.568
  549POPC   C1B 9715  29.541  22.606   8.705
  549POPC   C2B 9716  29.377  22.749   8.350
  549POPC   C3B 9717  29.572  22.783   7.974
  549POPC   C4B 9718  29.579  22.630   7.542
  550POPC   NC3 9719  40.513   7.705   9.276
  550POPC   PO4 9720  40.992   7.344   9.562
  550POPC   GL1 9721  40.827   7.284   9.113
  550POPC   GL2 9722  40.993   7.586   9.057
  550POPC   C1A 9723  40.589   7.444   8.685
  550POPC   D2A 9724  40.475   7.763   8.349
  550POPC   C3A 9725  40.613   7.582   7.973
  550POPC   C4A 9726  40.566   7.147   7.867
  550POPC   C1B 9727  41.078   7.417   8.648
  550POPC   C2B 9728  40.882   7.207   8.294
  550POPC   C3B 9729  41.065   7.184   7.895
  550POPC   C4B 9730  41.112   7.553   7.744
  551POPC   NC3 9731  37.922  16.754   9.407
  551POPC   PO4 9732  37.343  17.048   9.573
  551POPC   GL1 9733  37.484  16.966   9.130
  551POPC   GL2 9734  37.420  16.625   9.216
  551POPC   C1A 9735  37.770  16.829   8.744
  551POPC   D2A 9736  38.075  16.919   8.369
  551POPC   C3A 9737  37.995  16.822   7.978
  551POPC   C4A 9738  37.612  16.729   7.790
  551POPC   C1B 9739  37.347  16.546   8.758
  551POPC   C2B 9740  37.490  16.563   8.302
  551POPC   C3B 9741  37.375  16.305   7.908
  551POPC   C4B 9742  37.419  16.347   7.419
  552POPC   NC3 9743  21.215  43.882   9.699
  552POPC   PO4 9744  21.775  44.228   9.419
  552POPC   GL1 9745  21.420  44.054   9.159
  552POPC   GL2 9746  21.181  43.757   9.194
  552POPC   C1A 9747  21.439  43.989   8.683
  552POPC   D2A 9748  21.594  43.756   8.292
  552POPC   C3A 9749  21.535  43.904   7.864
  552POPC   C4A 9750  21.701  43.729   7.490
  552POPC   C1B 9751  20.978  43.507   8.881
  552POPC   C2B 9752  21.137  43.556   8.477
  552POPC   C3B 9753  21.165  43.556   8.080
  552POPC   C4B 9754  21.067  43.712   7.716
  553POPC   NC3 9755  41.822  14.609   9.461
  553POPC   PO4 9756  42.200  15.064   9.325
  553POPC   GL1 9757  42.369  15.322   9.048
  553POPC   GL2 9758  42.647  15.062   8.986
  553POPC   C1A 9759  42.146  15.448   8.702
  553POPC   D2A 9760  42.349  15.421   8.320
  553POPC   C3A 9761  42.099  15.385   7.982
  553POPC   C4A 9762  42.223  15.168   7.650
  553POPC   C1B 9763  42.415  15.007   8.612
  553POPC   C2B 9764  42.545  14.956   8.188
  553POPC   C3B 9765  42.658  14.935   7.766
  553POPC   C4B 9766  42.610  14.666   7.421
  554POPC   NC3 9767  44.606  27.107   9.513
  554POPC   PO4 9768  44.748  26.513   9.726
  554POPC   GL1 9769  44.640  26.664   9.210
  554POPC   GL2 9770  44.814  27.007   9.069
  554POPC   C1A 9771  44.469  26.799   8.782
  554POPC   D2A 9772  44.676  26.656   8.420
  554POPC   C3A 9773  44.744  26.702   8.015
  554POPC   C4A 9774  44.426  26.807   7.763
  554POPC   C1B 9775  44.685  27.261   8.685
  554POPC   C2B 9776  44.619  27.201   8.195
  554POPC   C3B 9777  44.809  27.138   7.755
  554POPC   C4B 9778   0.047  27.126   7.351
  555POPC   NC3 9779  16.293  39.081   9.542
  555POPC   PO4 9780  15.800  39.508   9.553
  555POPC   GL1 9781  15.915  39.276   9.172
  555POPC   GL2 9782  16.059  38.944   9.096
  555POPC   C1A 9783  15.918  39.263   8.727
  555POPC   D2A 9784  15.688  39.169   8.380
  555POPC   C3A 9785  15.605  39.477   8.103
  555POPC   C4A 9786  15.795  39.224   7.831
  555POPC   C1B 9787  16.003  38.750   8.674
  555POPC   C2B 9788  16.088  38.861   8.221
  555POPC   C3B 9789  16.055  38.800   7.743
  555POPC   C4B 9790  16.036  38.858   7.291
  556POPC   NC3 9791  27.117  27.179   9.398
  556POPC   PO4 9792  26.457  27.260   9.434
  556POPC   GL1 9793  26.656  27.103   9.097
  556POPC   GL2 9794  26.747  26.808   9.256
  556POPC   C1A 9795  26.915  27.190   8.740
  556POPC   D2A 9796  27.001  26.944   8.386
  556POPC   C3A 9797  26.905  27.030   7.963
  556POPC   C4A 9798  27.247  27.074   7.727
  556POPC   C1B 9799  26.804  26.626   8.855
  556POPC   C2B 9800  26.953  26.437   8.481
  556POPC   C3B 9801  27.004  26.531   8.052
  556POPC   C4B 9802  26.846  26.589   7.647
  557POPC   NC3 9803   4.594  30.416   9.427
  557POPC   PO4 9804   4.741  30.955   9.142
  557POPC   GL1 9805   4.377  30.723   8.969
  557POPC   GL2 9806   4.283  30.335   8.977
  557POPC   C1A 9807   4.247  30.893   8.562
  557POPC   D2A 9808   4.412  30.711   8.192
  557POPC   C3A 9809   4.500  30.906   7.825
  557POPC   C4A 9810   4.250  30.915   7.438
  557POPC   C1B 9811   3.960  30.481   8.634
  557POPC   C2B 9812   3.897  30.583   8.182
  557POPC   C3B 9813   4.142  30.540   7.788
  557POPC   C4B 9814   4.081  30.417   7.325
  558POPC   NC3 9815   5.687   1.096   9.791
  558POPC   PO4 9816   5.128   1.447   9.614
  558POPC   GL1 9817   5.003   1.454   9.176
  558POPC   GL2 9818   5.145   1.120   9.095
  558POPC   C1A 9819   4.891   1.395   8.719
  558POPC   D2A 9820   5.192   1.381   8.367
  558POPC   C3A 9821   5.085   1.254   7.969
  558POPC   C4A 9822   5.247   1.452   7.670
  558POPC   C1B 9823   5.157   0.962   8.652
  558POPC   C2B 9824   5.289   0.875   8.227
  558POPC   C3B 9825   5.514   0.983   7.837
  558POPC   C4B 9826   5.373   0.975   7.393
  559POPC   NC3 9827  41.043  14.493   9.555
  559POPC   PO4 9828  41.690  14.168   9.510
  559POPC   GL1 9829  41.405  14.373   9.168
  559POPC   GL2 9830  41.279  14.732   9.173
  559POPC   C1A 9831  41.387  14.349   8.694
  559POPC   D2A 9832  41.694  14.357   8.357
  559POPC   C3A 9833  41.647  14.160   7.937
  559POPC   C4A 9834  41.946  14.207   7.570
  559POPC   C1B 9835  41.567  14.816   8.833
  559POPC   C2B 9836  41.455  14.808   8.395
  559POPC   C3B 9837  41.577  14.678   7.970
  559POPC   C4B 9838  41.538  14.507   7.554
  560POPC   NC3 9839  10.211  20.953   9.331
  560POPC   PO4 9840  10.550  20.535   9.775
  560POPC   GL1 9841  10.502  20.486   9.287
  560POPC   GL2 9842  10.312  20.257   9.213
  560POPC   C1A 9843  10.391  20.636   8.809
  560POPC   D2A 9844  10.246  20.821   8.397
  560POPC   C3A 9845  10.552  20.697   8.088
  560POPC   C4A 9846  10.808  20.738   7.743
  560POPC   C1B 9847  10.416  20.140   8.808
  560POPC   C2B 9848  10.205  20.298   8.457
  560POPC   C3B 9849  10.286  20.269   8.065
  560POPC   C4B 9850  10.101  20.432   7.724
  561POPC   NC3 9851  15.942  29.515   9.346
  561POPC   PO4 9852  16.121  28.802   9.377
  561POPC   GL1 9853  16.033  29.066   9.047
  561POPC   GL2 9854  15.813  28.811   8.935
  561POPC   C1A 9855  15.813  29.223   8.658
  561POPC   D2A 9856  16.030  29.166   8.259
  561POPC   C3A 9857  15.908  29.453   7.931
  561POPC   C4A 9858  15.787  29.593   7.522
  561POPC   C1B 9859  15.849  28.694   8.504
  561POPC   C2B 9860  15.565  28.683   8.157
  561POPC   C3B 9861  15.740  28.978   7.869
  561POPC   C4B 9862  16.200  28.897   7.824
  562POPC   NC3 9863   6.118   2.383   9.663
  562POPC   PO4 9864   5.755   1.757   9.617
  562POPC   GL1 9865   5.961   1.925   9.243
  562POPC   GL2 9866   5.811   2.254   9.214
  562POPC   C1A 9867   5.934   1.972   8.783
  562POPC   D2A 9868   5.895   2.174   8.389
  562POPC   C3A 9869   5.900   1.954   8.031
  562POPC   C4A 9870   6.161   1.934   7.658
  562POPC   C1B 9871   5.557   2.309   8.826
  562POPC   C2B 9872   5.384   2.206   8.435
  562POPC   C3B 9873   5.506   2.309   8.021
  562POPC   C4B 9874   5.698   2.230   7.645
  563POPC   NC3 9875  20.389  36.457   9.451
  563POPC   PO4 9876  20.845  35.948   9.431
  563POPC   GL1 9877  20.683  36.172   9.064
  563POPC   GL2 9878  20.349  36.291   8.981
  563POPC   C1A 9879  20.685  36.224   8.600
  563POPC   D2A 9880  20.867  36.224   8.182
  563POPC   C3A 9881  20.618  36.003   7.857
  563POPC   C4A 9882  20.263  36.062   7.578
  563POPC   C1B 9883  20.330  36.603   8.680
  563POPC   C2B 9884  20.498  36.610   8.282
  563POPC   C3B 9885  20.530  36.501   7.875
  563POPC   C4B 9886  20.962  36.393   7.698
  564POPC   NC3 9887  41.236  33.969   9.402
  564POPC   PO4 9888  41.719  33.564   9.382
  564POPC   GL1 9889  41.427  33.670   9.053
  564POPC   GL2 9890  41.398  34.059   8.930
  564POPC   C1A 9891  41.178  33.653   8.700
  564POPC   D2A 9892  41.250  33.840   8.321
  564POPC   C3A 9893  41.520  33.732   8.028
  564POPC   C4A 9894  41.543  34.098   7.807
  564POPC   C1B 9895  41.673  33.817   8.631
  564POPC   C2B 9896  41.894  33.542   8.339
  564POPC   C3B 9897  41.993  33.585   7.873
  564POPC   C4B 9898  41.843  33.813   7.507
  565POPC   NC3 9899  40.047  29.692   9.564
  565POPC   PO4 9900  39.785  30.169   9.958
  565POPC   GL1 9901  39.952  30.177   9.423
  565POPC   GL2 9902  39.855  29.932   9.165
  565POPC   C1A 9903  40.162  30.238   8.950
  565POPC   D2A 9904  39.910  30.157   8.574
  565POPC   C3A 9905  39.950  30.073   8.122
  565POPC   C4A 9906  39.789  29.725   7.838
  565POPC   C1B 9907  40.135  29.694   8.898
  565POPC   C2B 9908  40.155  29.656   8.461
  565POPC   C3B 9909  40.278  29.609   8.052
  565POPC   C4B 9910  40.273  29.918   7.763
  566POPC   NC3 9911   3.246   0.678   9.572
  566POPC   PO4 9912   3.877   0.261   9.433
  566POPC   GL1 9913   3.485   0.407   9.195
  566POPC   GL2 9914   3.362   0.724   9.093
  566POPC   C1A 9915   3.497   0.362   8.736
  566POPC   D2A 9916   3.604   0.095   8.359
  566POPC   C3A 9917   3.475   0.243   7.946
  566POPC   C4A 9918   3.709   0.296   7.570
  566POPC   C1B 9919   3.217   1.008   8.810
  566POPC   C2B 9920   3.177   0.806   8.438
  566POPC   C3B 9921   3.317   0.728   8.064
  566POPC   C4B 9922   3.453   0.713   7.699
  567POPC   NC3 9923  34.068  42.075   9.448
  567POPC   PO4 9924  33.563  42.530   9.527
  567POPC   GL1 9925  33.654  42.303   9.146
  567POPC   GL2 9926  33.494  41.988   9.077
  567POPC   C1A 9927  33.757  42.455   8.737
  567POPC   D2A 9928  33.903  42.641   8.382
  567POPC   C3A 9929  33.756  42.457   8.054
  567POPC   C4A 9930  33.750  42.634   7.681
  567POPC   C1B 9931  33.692  41.955   8.705
  567POPC   C2B 9932  34.011  42.119   8.431
  567POPC   C3B 9933  33.983  42.008   7.990
  567POPC   C4B 9934  33.841  42.122   7.570
  568POPC   NC3 9935   8.560  42.198   9.481
  568POPC   PO4 9936   9.194  42.589   9.499
  568POPC   GL1 9937   8.952  42.424   9.181
  568POPC   GL2 9938   8.623  42.550   9.122
  568POPC   C1A 9939   8.876  42.189   8.818
  568POPC   D2A 9940   8.710  42.106   8.417
  568POPC   C3A 9941   9.084  42.030   8.152
  568POPC   C4A 9942   9.289  42.115   7.772
  568POPC   C1B 9943   8.595  42.671   8.708
  568POPC   C2B 9944   8.463  42.612   8.299
  568POPC   C3B 9945   8.610  42.586   7.887
  568POPC   C4B 9946   8.781  42.192   7.748
  569POPC   NC3 9947  42.089  26.249   9.544
  569POPC   PO4 9948  42.449  25.719   9.509
  569POPC   GL1 9949  42.475  25.960   9.125
  569POPC   GL2 9950  42.222  26.188   9.072
  569POPC   C1A 9951  42.581  25.932   8.694
  569POPC   D2A 9952  42.518  26.125   8.295
  569POPC   C3A 9953  42.427  25.894   7.923
  569POPC   C4A 9954  42.464  26.064   7.513
  569POPC   C1B 9955  42.290  26.376   8.711
  569POPC   C2B 9956  42.034  26.337   8.385
  569POPC   C3B 9957  42.165  26.333   8.000
  569POPC   C4B 9958  42.015  26.259   7.641
  570POPC   NC3 9959  10.017   6.250   9.622
  570POPC   PO4 9960   9.572   6.840   9.522
  570POPC   GL1 9961   9.722   6.599   9.202
  570POPC   GL2 9962  10.065   6.578   9.236
  570POPC   C1A 9963   9.743   6.456   8.779
  570POPC   D2A 9964   9.512   6.427   8.388
  570POPC   C3A 9965   9.603   6.611   7.951
  570POPC   C4A 9966   9.731   6.394   7.540
  570POPC   C1B 9967  10.038   6.860   8.887
  570POPC   C2B 9968   9.910   6.865   8.459
  570POPC   C3B 9969  10.025   7.000   8.066
  570POPC   C4B 9970  10.056   6.792   7.706
  571POPC   NC3 9971  28.346  10.874   9.395
  571POPC   PO4 9972  28.254  10.204   9.473
  571POPC   GL1 9973  28.311  10.440   9.131
  571POPC   GL2 9974  28.544  10.255   8.968
  571POPC   C1A 9975  28.349  10.669   8.750
  571POPC   D2A 9976  28.651  10.454   8.468
  571POPC   C3A 9977  28.555  10.469   8.033
  571POPC   C4A 9978  28.194  10.440   7.767
  571POPC   C1B 9979  28.242  10.172   8.643
  571POPC   C2B 9980  28.287  10.045   8.190
  571POPC   C3B 9981  28.478  10.033   7.750
  571POPC   C4B 9982  28.297  10.171   7.329
  572POPC   NC3 9983  37.609   6.558   9.546
  572POPC   PO4 9984  38.193   6.343   9.308
  572POPC   GL1 9985  37.887   6.663   9.134
  572POPC   GL2 9986  37.502   6.632   9.052
  572POPC   C1A 9987  37.841   7.036   8.885
  572POPC   D2A 9988  37.636   7.181   8.496
  572POPC   C3A 9989  37.794   7.004   8.096
  572POPC   C4A 9990  37.632   6.912   7.699
  572POPC   C1B 9991  37.342   6.325   8.741
  572POPC   C2B 9992  37.399   6.311   8.288
  572POPC   C3B 9993  37.470   6.425   7.842
  572POPC   C4B 9994  37.690   6.269   7.466
  573POPC   NC3 9995  21.830  11.295   9.650
  573POPC   PO4 9996  22.491  11.276   9.751
  573POPC   GL1 9997  22.319  11.093   9.304
  573POPC   GL2 9998  21.941  11.129   9.146
  573POPC   C1A 9999  22.295  10.967   8.833
  573POPC   D2A10000  22.394  11.106   8.418
  573POPC   C3A10001  22.179  11.053   8.035
  573POPC   C4A10002  22.336  11.326   7.703
  573POPC   C1B10003  22.075  11.407   8.707
  573POPC   C2B10004  22.138  11.532   8.226
  573POPC   C3B10005  21.913  11.595   7.801
  573POPC   C4B10006  21.589  11.430   7.527
  574POPC   NC310007  31.383  20.065   9.417
  574POPC   PO410008  31.524  20.685   9.415
  574POPC   GL110009  31.440  20.407   9.059
  574POPC   GL210010  31.701  20.122   9.028
  574POPC   C1A10011  31.290  20.573   8.668
  574POPC   D2A10012  31.570  20.845   8.431
  574POPC   C3A10013  31.632  20.650   8.038
  574POPC   C4A10014  31.236  20.565   7.840
  574POPC   C1B10015  31.685  20.272   8.621
  574POPC   C2B10016  31.390  20.253   8.266
  574POPC   C3B10017  31.515  20.106   7.872
  574POPC   C4B10018  31.770  20.381   7.625
  575POPC   NC310019   2.518  27.594   9.420
  575POPC   PO410020   1.907  27.811   9.439
  575POPC   GL110021   1.943  27.484   9.125
  575POPC   GL210022   2.253  27.564   8.972
  575POPC   C1A10023   1.785  27.283   8.744
  575POPC   D2A10024   1.597  27.403   8.344
  575POPC   C3A10025   1.915  27.522   8.050
  575POPC   C4A10026   1.971  27.430   7.629
  575POPC   C1B10027   2.106  27.647   8.544
  575POPC   C2B10028   2.158  27.960   8.201
  575POPC   C3B10029   2.222  27.859   7.768
  575POPC   C4B10030   2.187  27.802   7.331
  576POPC   NC310031  29.229  44.322   9.381
  576POPC   PO410032  29.190  43.611   9.378
  576POPC   GL110033  29.140  43.927   9.071
  576POPC   GL210034  29.387  44.179   8.916
  576POPC   C1A10035  29.012  43.865   8.663
  576POPC   D2A10036  28.710  43.646   8.423
  576POPC   C3A10037  28.726  43.832   8.005
  576POPC   C4A10038  29.031  44.035   7.710
  576POPC   C1B10039  29.519  43.769   8.770
  576POPC   C2B10040  29.491  43.595   8.359
  576POPC   C3B10041  29.423  43.712   7.915
  576POPC   C4B10042  29.490  43.528   7.502
  577POPC   NC310043   3.870   3.034   9.322
  577POPC   PO410044   3.332   2.725   9.656
  577POPC   GL110045   3.318   2.635   9.188
  577POPC   GL210046   3.598   2.554   8.925
  577POPC   C1A10047   3.208   2.858   8.790
  577POPC   D2A10048   3.451   2.806   8.456
  577POPC   C3A10049   3.390   3.086   8.138
  577POPC   C4A10050   3.278   2.950   7.737
  577POPC   C1B10051   3.945   2.676   8.580
  577POPC   C2B10052   3.906   2.953   8.270
  577POPC   C3B10053   3.678   2.695   8.007
  577POPC   C4B10054   3.538   2.511   7.652
  578POPC   NC310055  27.216  38.206   9.562
  578POPC   PO410056  26.613  38.203   9.473
  578POPC   GL110057  26.708  38.259   9.095
  578POPC   GL210058  27.023  38.343   9.109
  578POPC   C1A10059  26.728  38.321   8.682
  578POPC   D2A10060  26.891  38.115   8.341
  578POPC   C3A10061  26.987  38.383   8.036
  578POPC   C4A10062  27.204  38.462   7.697
  578POPC   C1B10063  27.135  38.656   8.813
  578POPC   C2B10064  27.090  38.724   8.407
  578POPC   C3B10065  27.275  38.849   8.017
  578POPC   C4B10066  27.144  39.015   7.604
  579POPC   NC310067   9.509  43.735   9.514
  579POPC   PO410068   9.086  44.263   9.494
  579POPC   GL110069   8.873  44.096   9.149
  579POPC   GL210070   8.996  43.749   9.216
  579POPC   C1A10071   8.837  44.158   8.709
  579POPC   D2A10072   9.036  44.284   8.360
  579POPC   C3A10073   8.994  44.117   7.964
  579POPC   C4A10074   9.311  43.992   7.688
  579POPC   C1B10075   8.923  43.664   8.766
  579POPC   C2B10076   8.790  43.794   8.326
  579POPC   C3B10077   8.863  43.626   7.894
  579POPC   C4B10078   8.828  43.596   7.438
  580POPC   NC310079   4.025  22.835   9.491
  580POPC   PO410080   4.739  22.945   9.546
  580POPC   GL110081   4.418  22.996   9.215
  580POPC   GL210082   4.394  23.306   9.075
  580POPC   C1A10083   4.261  22.916   8.779
  580POPC   D2A10084   4.145  23.132   8.431
  580POPC   C3A10085   4.103  22.920   8.090
  580POPC   C4A10086   4.119  23.011   7.686
  580POPC   C1B10087   4.409  23.471   8.700
  580POPC   C2B10088   4.640  23.366   8.361
  580POPC   C3B10089   4.509  23.213   8.002
  580POPC   C4B10090   4.428  23.413   7.644
  581POPC   NC310091   3.377  17.822   9.774
  581POPC   PO410092   3.816  18.248   9.425
  581POPC   GL110093   3.686  18.237   9.002
  581POPC   GL210094   3.333  18.222   8.953
  581POPC   C1A10095   3.793  18.283   8.566
  581POPC   D2A10096   3.841  18.677   8.335
  581POPC   C3A10097   3.744  18.602   7.919
  581POPC   C4A10098   3.494  18.485   7.560
  581POPC   C1B10099   3.400  17.940   8.621
  581POPC   C2B10100   3.233  18.041   8.252
  581POPC   C3B10101   3.297  18.194   7.906
  581POPC   C4B10102   3.696  18.095   7.836
  582POPC   NC310103  11.053   3.821   9.460
  582POPC   PO410104  11.314   3.099   9.475
  582POPC   GL110105  11.317   3.363   9.114
  582POPC   GL210106  11.562   3.610   9.121
  582POPC   C1A10107  11.266   3.494   8.674
  582POPC   D2A10108  11.059   3.459   8.338
  582POPC   C3A10109  11.332   3.307   8.055
  582POPC   C4A10110  11.326   3.526   7.703
  582POPC   C1B10111  11.465   3.905   8.852
  582POPC   C2B10112  11.506   3.946   8.459
  582POPC   C3B10113  11.351   3.839   8.105
  582POPC   C4B10114  11.472   4.025   7.769
  583POPC   NC310115   9.266   9.173   9.560
  583POPC   PO410116   9.912   9.019   9.594
  583POPC   GL110117   9.690   9.149   9.259
  583POPC   GL210118   9.503   8.884   9.188
  583POPC   C1A10119   9.600   9.223   8.814
  583POPC   D2A10120   9.718   8.961   8.464
  583POPC   C3A10121   9.663   9.084   8.070
  583POPC   C4A10122   9.816   8.919   7.678
  583POPC   C1B10123   9.534   8.637   8.854
  583POPC   C2B10124   9.382   8.571   8.484
  583POPC   C3B10125   9.600   8.567   8.119
  583POPC   C4B10126   9.600   8.444   7.735
  584POPC   NC310127  31.187  19.592   9.675
  584POPC   PO410128  31.810  19.888   9.477
  584POPC   GL110129  31.611  19.618   9.193
  584POPC   GL210130  31.271  19.720   9.095
  584POPC   C1A10131  31.629  19.665   8.754
  584POPC   D2A10132  31.580  19.817   8.397
  584POPC   C3A10133  31.734  19.657   8.064
  584POPC   C4A10134  31.626  19.509   7.707
  584POPC   C1B10135  31.232  20.018   8.750
  584POPC   C2B10136  31.077  19.790   8.392
  584POPC   C3B10137  31.217  19.671   7.978
  584POPC   C4B10138  31.222  19.774   7.520
  585POPC   NC310139  30.141  34.947   9.627
  585POPC   PO410140  29.582  34.620   9.384
  585POPC   GL110141  29.964  34.719   9.186
  585POPC   GL210142  30.109  34.417   9.084
  585POPC   C1A10143  30.073  34.810   8.767
  585POPC   D2A10144  29.891  34.735   8.367
  585POPC   C3A10145  30.104  34.701   7.946
  585POPC   C4A10146  29.856  34.567   7.551
  585POPC   C1B10147  29.755  34.375   8.796
  585POPC   C2B10148  29.541  34.358   8.411
  585POPC   C3B10149  29.671  34.435   8.013
  585POPC   C4B10150  29.609  34.124   7.702
  586POPC   NC310151  42.811   8.205   9.260
  586POPC   PO410152  43.382   7.971   9.501
  586POPC   GL110153  43.344   8.082   9.083
  586POPC   GL210154  43.190   8.365   8.947
  586POPC   C1A10155  43.261   7.946   8.671
  586POPC   D2A10156  43.092   8.040   8.271
  586POPC   C3A10157  43.393   8.162   7.986
  586POPC   C4A10158  43.378   8.190   7.574
  586POPC   C1B10159  42.834   8.309   8.628
  586POPC   C2B10160  42.822   8.465   8.185
  586POPC   C3B10161  42.912   8.279   7.779
  586POPC   C4B10162  43.039   8.463   7.338
  587POPC   NC310163  28.148  30.357   9.379
  587POPC   PO410164  28.526  29.882   9.673
  587POPC   GL110165  28.417  29.907   9.259
  587POPC   GL210166  28.588  30.214   9.151
  587POPC   C1A10167  28.216  29.657   8.913
  587POPC   D2A10168  28.255  29.491   8.473
  587POPC   C3A10169  28.308  29.825   8.153
  587POPC   C4A10170  28.233  29.850   7.723
  587POPC   C1B10171  28.486  30.323   8.722
  587POPC   C2B10172  28.671  30.262   8.312
  587POPC   C3B10173  28.513  30.278   7.904
  587POPC   C4B10174  28.591  30.104   7.507
  588POPC   NC310175  42.753  32.856   9.555
  588POPC   PO410176  42.615  33.395   9.232
  588POPC   GL110177  42.411  33.038   9.093
  588POPC   GL210178  42.709  32.850   9.049
  588POPC   C1A10179  42.226  33.130   8.700
  588POPC   D2A10180  42.547  33.204   8.391
  588POPC   C3A10181  42.353  33.193   7.984
  588POPC   C4A10182  42.597  33.194   7.655
  588POPC   C1B10183  42.525  32.715   8.677
  588POPC   C2B10184  42.421  32.735   8.227
  588POPC   C3B10185  42.463  32.713   7.783
  588POPC   C4B10186  42.480  32.643   7.304
  589POPC   NC310187  12.639  29.531   9.520
  589POPC   PO410188  12.890  28.979   9.330
  589POPC   GL110189  12.917  29.269   9.058
  589POPC   GL210190  12.589  29.317   9.067
  589POPC   C1A10191  12.820  29.054   8.676
  589POPC   D2A10192  12.815  28.759   8.355
  589POPC   C3A10193  12.732  28.947   7.993
  589POPC   C4A10194  12.931  29.196   7.700
  589POPC   C1B10195  12.423  29.412   8.703
  589POPC   C2B10196  12.566  29.300   8.306
  589POPC   C3B10197  12.512  29.399   7.892
  589POPC   C4B10198  12.572  29.818   7.746
  590POPC   NC310199   9.429  37.372   9.518
  590POPC   PO410200   9.426  38.045   9.549
  590POPC   GL110201   9.496  37.782   9.189
  590POPC   GL210202   9.837  37.735   9.121
  590POPC   C1A10203   9.511  37.615   8.758
  590POPC   D2A10204   9.769  37.678   8.410
  590POPC   C3A10205   9.603  37.586   8.031
  590POPC   C4A10206   9.882  37.604   7.694
  590POPC   C1B10207  10.000  37.426   8.788
  590POPC   C2B10208  10.052  37.204   8.365
  590POPC   C3B10209  10.109  37.176   7.874
  590POPC   C4B10210  10.029  37.022   7.405
  591POPC   NC310211  11.344  36.371   9.619
  591POPC   PO410212  10.896  37.014   9.473
  591POPC   GL110213  11.170  36.901   9.134
  591POPC   GL210214  11.271  36.568   9.147
  591POPC   C1A10215  11.391  36.853   8.721
  591POPC   D2A10216  11.128  36.908   8.356
  591POPC   C3A10217  11.301  37.064   7.982
  591POPC   C4A10218  11.070  37.015   7.606
  591POPC   C1B10219  11.105  36.430   8.749
  591POPC   C2B10220  11.233  36.403   8.304
  591POPC   C3B10221  11.207  36.584   7.897
  591POPC   C4B10222  11.500  36.679   7.568
  592POPC   NC310223  33.322  34.143   9.740
  592POPC   PO410224  33.062  34.703   9.401
  592POPC   GL110225  33.064  34.409   9.111
  592POPC   GL210226  33.409  34.226   9.136
  592POPC   C1A10227  32.850  34.505   8.725
  592POPC   D2A10228  32.735  34.357   8.305
  592POPC   C3A10229  32.892  34.545   7.931
  592POPC   C4A10230  32.762  34.454   7.504
  592POPC   C1B10231  33.288  34.251   8.679
  592POPC   C2B10232  33.275  34.485   8.272
  592POPC   C3B10233  33.401  34.481   7.817
  592POPC   C4B10234  33.236  34.538   7.395
  593POPC   NC310235  19.038   4.847   9.569
  593POPC   PO410236  19.434   4.492   9.229
  593POPC   GL110237  19.233   4.890   9.060
  593POPC   GL210238  19.070   5.182   9.176
  593POPC   C1A10239  19.160   5.133   8.662
  593POPC   D2A10240  19.382   5.245   8.250
  593POPC   C3A10241  19.146   5.052   7.927
  593POPC   C4A10242  18.683   4.951   7.937
  593POPC   C1B10243  18.861   5.461   8.939
  593POPC   C2B10244  18.782   5.566   8.522
  593POPC   C3B10245  19.041   5.718   8.196
  593POPC   C4B10246  19.214   5.547   7.822
  594POPC   NC310247  17.587  44.468   9.383
  594POPC   PO410248  17.563   0.162   9.570
  594POPC   GL110249  17.319  44.889   9.218
  594POPC   GL210250  17.560  44.743   8.980
  594POPC   C1A10251  17.141  44.935   8.762
  594POPC   D2A10252  17.014  44.984   8.330
  594POPC   C3A10253  17.375  44.835   8.106
  594POPC   C4A10254  17.452  44.550   7.750
  594POPC   C1B10255  17.556  44.580   8.568
  594POPC   C2B10256  17.855  44.722   8.291
  594POPC   C3B10257  17.921  44.781   7.862
  594POPC   C4B10258  17.825  44.704   7.407
  595POPC   NC310259  21.506  32.089   9.448
  595POPC   PO410260  21.673  31.453   9.620
  595POPC   GL110261  21.566  31.529   9.167
  595POPC   GL210262  21.461  31.818   8.987
  595POPC   C1A10263  21.532  31.387   8.718
  595POPC   D2A10264  21.412  31.656   8.390
  595POPC   C3A10265  21.654  31.659   8.029
  595POPC   C4A10266  21.599  31.587   7.576
  595POPC   C1B10267  21.074  31.608   8.781
  595POPC   C2B10268  20.892  31.545   8.344
  595POPC   C3B10269  21.159  31.530   7.952
  595POPC   C4B10270  21.175  31.859   7.664
  596POPC   NC310271  28.693  13.431   9.419
  596POPC   PO410272  28.104  13.729   9.599
  596POPC   GL110273  28.230  13.490   9.213
  596POPC   GL210274  28.425  13.774   9.154
  596POPC   C1A10275  28.479  13.365   8.798
  596POPC   D2A10276  28.328  13.256   8.363
  596POPC   C3A10277  28.077  13.537   8.116
  596POPC   C4A10278  28.106  13.734   7.753
  596POPC   C1B10279  28.530  13.914   8.796
  596POPC   C2B10280  28.404  13.786   8.412
  596POPC   C3B10281  28.603  13.593   8.068
  596POPC   C4B10282  28.617  13.928   7.799
  597POPC   NC310283   6.647  17.132   9.675
  597POPC   PO410284   6.712  16.585   9.249
  597POPC   GL110285   6.772  16.909   9.065
  597POPC   GL210286   6.487  17.063   9.193
  597POPC   C1A10287   6.885  16.835   8.645
  597POPC   D2A10288   6.922  17.104   8.288
  597POPC   C3A10289   6.886  16.853   7.940
  597POPC   C4A10290   6.835  16.436   7.768
  597POPC   C1B10291   6.326  16.838   8.818
  597POPC   C2B10292   6.444  16.920   8.416
  597POPC   C3B10293   6.387  17.036   8.020
  597POPC   C4B10294   6.384  16.750   7.748
  598POPC   NC310295  25.491  14.920   9.516
  598POPC   PO410296  25.005  15.312   9.562
  598POPC   GL110297  25.293  15.256   9.190
  598POPC   GL210298  25.145  14.934   9.125
  598POPC   C1A10299  25.296  15.298   8.710
  598POPC   D2A10300  25.177  15.112   8.286
  598POPC   C3A10301  25.224  15.215   7.849
  598POPC   C4A10302  25.452  15.420   7.520
  598POPC   C1B10303  25.447  14.822   8.856
  598POPC   C2B10304  25.618  14.957   8.494
  598POPC   C3B10305  25.575  14.848   8.096
  598POPC   C4B10306  25.673  15.000   7.710
  599POPC   NC310307  13.061  39.092   9.403
  599POPC   PO410308  13.619  38.894   9.699
  599POPC   GL110309  13.512  39.134   9.238
  599POPC   GL210310  13.751  39.283   9.025
  599POPC   C1A10311  13.314  39.112   8.816
  599POPC   D2A10312  13.429  39.213   8.407
  599POPC   C3A10313  13.473  38.910   8.091
  599POPC   C4A10314  13.446  39.162   7.710
  599POPC   C1B10315  13.732  39.507   8.698
  599POPC   C2B10316  13.885  39.497   8.308
  599POPC   C3B10317  13.722  39.567   7.910
  599POPC   C4B10318  13.999  39.789   7.668
  600POPC   NC310319  15.047  19.705   9.352
  600POPC   PO410320  15.550  20.264   9.464
  600POPC   GL110321  15.355  20.072   9.099
  600POPC   GL210322  14.968  20.118   9.039
  600POPC   C1A10323  15.293  20.036   8.648
  600POPC   D2A10324  15.055  19.968   8.316
  600POPC   C3A10325  15.257  19.725   8.011
  600POPC   C4A10326  15.437  19.990   7.708
  600POPC   C1B10327  14.861  19.729   8.742
  600POPC   C2B10328  14.899  19.482   8.348
  600POPC   C3B10329  14.744  19.734   8.005
  600POPC   C4B10330  14.933  19.933   7.676
  601POPC   NC310331   3.749  14.674   9.436
  601POPC   PO410332   3.110  14.508   9.463
  601POPC   GL110333   3.384  14.478   9.144
  601POPC   GL210334   3.451  14.151   9.213
  601POPC   C1A10335   3.548  14.455   8.741
  601POPC   D2A10336   3.321  14.562   8.387
  601POPC   C3A10337   3.371  14.294   8.037
  601POPC   C4A10338   3.635  14.318   7.729
  601POPC   C1B10339   3.209  14.054   8.894
  601POPC   C2B10340   3.281  14.030   8.478
  601POPC   C3B10341   3.148  13.780   8.134
  601POPC   C4B10342   3.328  13.864   7.740
  602POPC   NC310343  30.600  27.378   9.455
  602POPC   PO410344  30.367  28.043   9.520
  602POPC   GL110345  30.535  27.805   9.165
  602POPC   GL210346  30.835  27.906   9.114
  602POPC   C1A10347  30.577  27.549   8.762
  602POPC   D2A10348  30.841  27.400   8.377
  602POPC   C3A10349  30.663  27.481   7.945
  602POPC   C4A10350  30.315  27.781   7.809
  602POPC   C1B10351  31.060  27.695   8.758
  602POPC   C2B10352  31.256  27.710   8.333
  602POPC   C3B10353  31.116  27.754   7.883
  602POPC   C4B10354  31.265  27.860   7.418
  603POPC   NC310355  31.148  13.992   9.259
  603POPC   PO410356  31.288  14.559   9.499
  603POPC   GL110357  31.163  14.609   9.095
  603POPC   GL210358  31.390  14.338   8.979
  603POPC   C1A10359  31.140  14.625   8.628
  603POPC   D2A10360  31.386  14.389   8.307
  603POPC   C3A10361  31.381  14.534   7.880
  603POPC   C4A10362  31.313  14.452   7.402
  603POPC   C1B10363  31.619  14.680   8.810
  603POPC   C2B10364  31.827  14.662   8.413
  603POPC   C3B10365  31.874  14.511   8.025
  603POPC   C4B10366  31.802  14.486   7.593
  604POPC   NC310367  21.069  20.369   9.491
  604POPC   PO410368  21.370  19.773   9.544
  604POPC   GL110369  21.461  19.723   9.136
  604POPC   GL210370  21.537  20.063   9.102
  604POPC   C1A10371  21.656  19.671   8.736
  604POPC   D2A10372  21.368  19.748   8.398
  604POPC   C3A10373  21.341  19.467   8.044
  604POPC   C4A10374  21.452  19.753   7.695
  604POPC   C1B10375  21.312  20.246   8.784
  604POPC   C2B10376  21.160  20.225   8.367
  604POPC   C3B10377  21.425  20.136   8.014
  604POPC   C4B10378  21.334  20.246   7.575
  605POPC   NC310379   3.455  17.850   9.253
  605POPC   PO410380   3.901  17.412   9.521
  605POPC   GL110381   3.761  17.447   9.093
  605POPC   GL210382   3.429  17.389   9.040
  605POPC   C1A10383   3.728  17.535   8.650
  605POPC   D2A10384   3.705  17.724   8.237
  605POPC   C3A10385   3.741  17.363   7.988
  605POPC   C4A10386   3.881  17.007   7.795
  605POPC   C1B10387   3.205  17.415   8.730
  605POPC   C2B10388   3.169  17.552   8.349
  605POPC   C3B10389   3.219  17.365   7.990
  605POPC   C4B10390   3.388  17.682   7.782
  606POPC   NC310391  34.302  13.282   9.422
  606POPC   PO410392  34.780  13.746   9.473
  606POPC   GL110393  34.420  13.755   9.185
  606POPC   GL210394  34.542  13.470   8.996
  606POPC   C1A10395  34.310  13.813   8.738
  606POPC   D2A10396  34.589  13.778   8.394
  606POPC   C3A10397  34.402  13.625   8.030
  606POPC   C4A10398  34.444  13.692   7.583
  606POPC   C1B10399  34.583  13.284   8.595
  606POPC   C2B10400  34.726  13.228   8.192
  606POPC   C3B10401  34.812  13.425   7.807
  606POPC   C4B10402  34.691  13.263   7.393
  607POPC   NC310403  28.071   0.429   9.529
  607POPC   PO410404  27.711   0.976   9.591
  607POPC   GL110405  27.724   0.676   9.151
  607POPC   GL210406  27.808   0.268   9.130
  607POPC   C1A10407  27.408   0.761   8.761
  607POPC   D2A10408  27.557   0.787   8.359
  607POPC   C3A10409  27.463   0.599   7.976
  607POPC   C4A10410  27.381   0.835   7.611
  607POPC   C1B10411  27.572   0.293   8.771
  607POPC   C2B10412  27.525   0.059   8.410
  607POPC   C3B10413  27.682   0.147   8.035
  607POPC   C4B10414  27.735   0.311   7.634
  608POPC   NC310415  15.314  19.039   9.548
  608POPC   PO410416  15.428  19.559   9.130
  608POPC   GL110417  15.127  19.228   9.098
  608POPC   GL210418  15.021  18.859   9.186
  608POPC   C1A10419  15.050  19.149   8.709
  608POPC   D2A10420  15.191  18.987   8.309
  608POPC   C3A10421  15.103  19.223   7.926
  608POPC   C4A10422  15.417  19.116   7.628
  608POPC   C1B10423  14.762  18.759   8.837
  608POPC   C2B10424  14.651  19.017   8.448
  608POPC   C3B10425  14.765  18.870   8.075
  608POPC   C4B10426  14.749  18.925   7.667
  609POPC   NC310427  13.381  34.661   9.364
  609POPC   PO410428  13.943  34.849   9.621
  609POPC   GL110429  13.965  34.856   9.121
  609POPC   GL210430  13.673  34.715   8.936
  609POPC   C1A10431  14.020  34.906   8.632
  609POPC   D2A10432  13.639  34.757   8.381
  609POPC   C3A10433  13.646  34.600   7.966
  609POPC   C4A10434  13.533  34.899   7.637
  609POPC   C1B10435  13.359  34.452   8.692
  609POPC   C2B10436  13.251  34.298   8.305
  609POPC   C3B10437  13.316  34.191   7.887
  609POPC   C4B10438  13.355  34.448   7.541
  610POPC   NC310439  40.235   6.554   9.466
  610POPC   PO410440  40.314   7.261   9.241
  610POPC   GL110441  40.120   6.848   9.043
  610POPC   GL210442  39.930   6.507   9.083
  610POPC   C1A10443  40.075   6.654   8.619
  610POPC   D2A10444  40.429   6.607   8.329
  610POPC   C3A10445  40.260   6.738   7.939
  610POPC   C4A10446  39.883   6.564   7.784
  610POPC   C1B10447  40.305   6.284   8.884
  610POPC   C2B10448  40.203   6.144   8.508
  610POPC   C3B10449  40.048   6.286   8.184
  610POPC   C4B10450  40.278   6.228   7.867
  611POPC   NC310451  32.343  26.520   9.395
  611POPC   PO410452  32.178  25.821   9.524
  611POPC   GL110453  32.378  26.015   9.193
  611POPC   GL210454  32.683  25.792   9.177
  611POPC   C1A10455  32.289  26.221   8.786
  611POPC   D2A10456  32.037  26.153   8.422
  611POPC   C3A10457  32.104  26.246   7.991
  611POPC   C4A10458  31.916  26.104   7.615
  611POPC   C1B10459  32.463  25.736   8.769
  611POPC   C2B10460  32.308  25.705   8.328
  611POPC   C3B10461  32.352  25.821   7.868
  611POPC   C4B10462  32.655  25.952   7.560
  612POPC   NC310463   1.000  18.237   9.682
  612POPC   PO410464   1.655  18.346   9.491
  612POPC   GL110465   1.454  18.166   9.167
  612POPC   GL210466   1.145  18.355   9.189
  612POPC   C1A10467   1.373  18.121   8.739
  612POPC   D2A10468   1.483  18.332   8.366
  612POPC   C3A10469   1.308  18.130   8.009
  612POPC   C4A10470   1.116  18.221   7.568
  612POPC   C1B10471   0.908  18.451   8.799
  612POPC   C2B10472   0.972  18.433   8.345
  612POPC   C3B10473   1.125  18.590   7.937
  612POPC   C4B10474   1.160  18.733   7.495
  613POPC   NC310475  32.024   2.278   9.356
  613POPC   PO410476  32.540   1.919   9.456
  613POPC   GL110477  32.336   1.972   9.076
  613POPC   GL210478  32.045   1.809   9.129
  613POPC   C1A10479  32.362   1.943   8.628
  613POPC   D2A10480  32.101   1.782   8.374
  613POPC   C3A10481  32.007   1.957   7.994
  613POPC   C4A10482  32.115   1.790   7.600
  613POPC   C1B10483  31.901   2.095   8.765
  613POPC   C2B10484  32.034   2.317   8.388
  613POPC   C3B10485  32.224   2.443   8.028
  613POPC   C4B10486  32.056   2.307   7.634
  614POPC   NC310487   2.807  28.144   9.660
  614POPC   PO410488   3.419  28.288   9.637
  614POPC   GL110489   3.094  28.287   9.252
  614POPC   GL210490   2.735  28.165   9.165
  614POPC   C1A10491   3.040  28.461   8.840
  614POPC   D2A10492   3.017  28.810   8.536
  614POPC   C3A10493   3.099  28.686   8.101
  614POPC   C4A10494   3.027  28.577   7.646
  614POPC   C1B10495   2.570  28.233   8.762
  614POPC   C2B10496   2.709  28.429   8.381
  614POPC   C3B10497   2.791  28.287   7.978
  614POPC   C4B10498   2.648  28.260   7.580
  615POPC   NC310499   4.160  40.881   9.652
  615POPC   PO410500   4.746  40.597   9.490
  615POPC   GL110501   4.460  40.880   9.220
  615POPC   GL210502   4.068  40.971   9.181
  615POPC   C1A10503   4.390  40.970   8.794
  615POPC   D2A10504   4.517  40.828   8.404
  615POPC   C3A10505   4.681  40.981   8.019
  615POPC   C4A10506   4.509  40.827   7.632
  615POPC   C1B10507   3.928  40.734   8.831
  615POPC   C2B10508   4.002  40.840   8.430
  615POPC   C3B10509   4.162  40.866   8.029
  615POPC   C4B10510   3.883  40.760   7.727
  616POPC   NC310511  24.025  18.483   9.507
  616POPC   PO410512  23.571  18.057   9.680
  616POPC   GL110513  23.733  18.122   9.248
  616POPC   GL210514  23.619  18.457   9.165
  616POPC   C1A10515  23.692  18.149   8.782
  616POPC   D2A10516  23.737  17.957   8.412
  616POPC   C3A10517  23.598  18.157   8.124
  616POPC   C4A10518  23.761  18.154   7.782
  616POPC   C1B10519  23.677  18.662   8.791
  616POPC   C2B10520  23.813  18.531   8.404
  616POPC   C3B10521  23.757  18.639   7.965
  616POPC   C4B10522  24.095  18.550   7.671
  617POPC   NC310523  27.184  14.230   9.658
  617POPC   PO410524  26.515  14.443   9.529
  617POPC   GL110525  26.693  14.419   9.169
  617POPC   GL210526  27.040  14.332   9.172
  617POPC   C1A10527  26.604  14.333   8.776
  617POPC   D2A10528  26.388  14.398   8.422
  617POPC   C3A10529  26.530  14.309   8.016
  617POPC   C4A10530  26.491  14.579   7.665
  617POPC   C1B10531  27.095  14.179   8.765
  617POPC   C2B10532  26.925  14.376   8.377
  617POPC   C3B10533  26.962  14.591   7.986
  617POPC   C4B10534  26.948  14.367   7.584
  618POPC   NC310535  18.003  31.788   9.453
  618POPC   PO410536  18.227  31.228   9.322
  618POPC   GL110537  18.257  31.532   9.040
  618POPC   GL210538  18.444  31.812   9.049
  618POPC   C1A10539  18.376  31.488   8.637
  618POPC   D2A10540  18.600  31.430   8.284
  618POPC   C3A10541  18.323  31.659   8.027
  618POPC   C4A10542  18.040  31.491   7.755
  618POPC   C1B10543  18.765  31.776   8.750
  618POPC   C2B10544  18.908  31.832   8.377
  618POPC   C3B10545  18.822  31.812   7.972
  618POPC   C4B10546  18.622  31.877   7.596
  619POPC   NC310547  24.771  34.098   9.385
  619POPC   PO410548  24.581  33.543   9.715
  619POPC   GL110549  24.522  33.660   9.238
  619POPC   GL210550  24.874  33.509   9.213
  619POPC   C1A10551  24.372  33.944   8.802
  619POPC   D2A10552  24.339  34.073   8.334
  619POPC   C3A10553  24.276  33.792   7.971
  619POPC   C4A10554  24.350  33.652   7.520
  619POPC   C1B10555  24.777  33.658   8.809
  619POPC   C2B10556  24.592  33.639   8.410
  619POPC   C3B10557  24.769  33.822   8.043
  619POPC   C4B10558  25.113  34.110   7.980
  620POPC   NC310559  41.256  23.470   9.520
  620POPC   PO410560  41.726  23.938   9.489
  620POPC   GL110561  41.468  23.843   9.078
  620POPC   GL210562  41.190  23.587   9.033
  620POPC   C1A10563  41.549  23.693   8.645
  620POPC   D2A10564  41.450  23.854   8.232
  620POPC   C3A10565  41.738  23.818   7.837
  620POPC   C4A10566  41.812  23.856   7.354
  620POPC   C1B10567  41.220  23.314   8.646
  620POPC   C2B10568  41.444  23.343   8.245
  620POPC   C3B10569  41.304  23.548   7.844
  620POPC   C4B10570  41.137  23.979   7.874
  621POPC   NC310571  23.746  14.875   9.567
  621POPC   PO410572  24.126  14.403   9.496
  621POPC   GL110573  23.871  14.608   9.143
  621POPC   GL210574  23.559  14.640   9.112
  621POPC   C1A10575  23.805  14.417   8.701
  621POPC   D2A10576  23.714  14.170   8.311
  621POPC   C3A10577  23.760  14.416   7.933
  621POPC   C4A10578  23.904  14.825   7.779
  621POPC   C1B10579  23.374  14.767   8.733
  621POPC   C2B10580  23.387  14.562   8.348
  621POPC   C3B10581  23.288  14.619   7.931
  621POPC   C4B10582  23.383  14.412   7.542
  622POPC   NC310583   4.098  36.855   9.527
  622POPC   PO410584   4.529  36.329   9.516
  622POPC   GL110585   4.460  36.741   9.192
  622POPC   GL210586   4.221  37.057   9.093
  622POPC   C1A10587   4.361  36.688   8.730
  622POPC   D2A10588   4.537  36.602   8.294
  622POPC   C3A10589   4.300  36.685   7.939
  622POPC   C4A10590   4.384  36.860   7.573
  622POPC   C1B10591   4.466  37.185   8.757
  622POPC   C2B10592   4.286  37.080   8.363
  622POPC   C3B10593   4.384  37.208   7.964
  622POPC   C4B10594   4.186  37.345   7.630
  623POPC   NC310595  38.537   4.581   9.858
  623POPC   PO410596  38.697   3.935   9.484
  623POPC   GL110597  38.687   4.185   9.164
  623POPC   GL210598  38.375   4.309   9.065
  623POPC   C1A10599  38.664   4.105   8.730
  623POPC   D2A10600  38.456   4.145   8.367
  623POPC   C3A10601  38.755   4.106   8.068
  623POPC   C4A10602  38.620   4.266   7.710
  623POPC   C1B10603  38.301   4.560   8.698
  623POPC   C2B10604  38.091   4.567   8.364
  623POPC   C3B10605  38.362   4.593   8.052
  623POPC   C4B10606  38.172   4.492   7.691
  624POPC   NC310607  42.221   7.854   9.244
  624POPC   PO410608  42.473   7.311   9.637
  624POPC   GL110609  42.512   7.253   9.150
  624POPC   GL210610  42.314   7.482   8.920
  624POPC   C1A10611  42.544   7.114   8.698
  624POPC   D2A10612  42.320   7.378   8.356
  624POPC   C3A10613  42.465   7.379   7.923
  624POPC   C4A10614  42.361   7.094   7.543
  624POPC   C1B10615  42.003   7.678   8.645
  624POPC   C2B10616  41.873   7.643   8.229
  624POPC   C3B10617  42.071   7.711   7.841
  624POPC   C4B10618  42.220   7.566   7.465
  625POPC   NC310619  23.500   0.388   9.709
  625POPC   PO410620  23.739   0.117   9.168
  625POPC   GL110621  23.764   0.552   9.103
  625POPC   GL210622  23.435   0.577   9.161
  625POPC   C1A10623  23.840   0.641   8.674
  625POPC   D2A10624  23.662   0.332   8.383
  625POPC   C3A10625  23.770   0.182   7.974
  625POPC   C4A10626  23.726   0.060   7.517
  625POPC   C1B10627  23.335   0.735   8.741
  625POPC   C2B10628  23.521   0.826   8.322
  625POPC   C3B10629  23.452   0.594   7.939
  625POPC   C4B10630  23.796   0.552   7.645
  626POPC   NC310631   2.981  43.256   9.515
  626POPC   PO410632   2.312  43.186   9.552
  626POPC   GL110633   2.552  43.375   9.204
  626POPC   GL210634   2.877  43.547   9.124
  626POPC   C1A10635   2.647  43.138   8.837
  626POPC   D2A10636   2.801  42.977   8.437
  626POPC   C3A10637   2.623  43.128   8.088
  626POPC   C4A10638   2.685  42.964   7.721
  626POPC   C1B10639   3.001  43.487   8.759
  626POPC   C2B10640   2.757  43.493   8.440
  626POPC   C3B10641   2.977  43.526   8.098
  626POPC   C4B10642   2.903  43.415   7.730
  627POPC   NC310643  30.963   5.554   9.468
  627POPC   PO410644  30.715   6.191   9.449
  627POPC   GL110645  30.736   5.996   9.074
  627POPC   GL210646  30.729   5.616   9.049
  627POPC   C1A10647  30.600   5.907   8.662
  627POPC   D2A10648  30.428   6.090   8.323
  627POPC   C3A10649  30.547   6.060   7.929
  627POPC   C4A10650  30.529   6.046   7.451
  627POPC   C1B10651  31.093   5.772   8.812
  627POPC   C2B10652  31.095   5.628   8.414
  627POPC   C3B10653  30.813   5.668   8.102
  627POPC   C4B10654  30.951   5.872   7.744
  628POPC   NC310655   9.514  44.501   9.411
  628POPC   PO410656  10.088  44.849   9.644
  628POPC   GL110657  10.011  44.646   9.276
  628POPC   GL210658   9.876  44.953   9.144
  628POPC   C1A10659   9.950  44.494   8.850
  628POPC   D2A10660   9.628  44.473   8.525
  628POPC   C3A10661   9.791  44.414   8.114
  628POPC   C4A10662   9.756  44.381   7.671
  628POPC   C1B10663   9.683  44.953   8.711
  628POPC   C2B10664   9.652   0.115   8.272
  628POPC   C3B10665   9.619  44.863   7.893
  628POPC   C4B10666   9.544  44.851   7.439
  629POPC   NC310667  39.842  24.767   9.590
  629POPC   PO410668  40.175  24.268   9.421
  629POPC   GL110669  39.885  24.514   9.149
  629POPC   GL210670  40.131  24.764   9.125
  629POPC   C1A10671  39.796  24.782   8.762
  629POPC   D2A10672  40.017  24.738   8.360
  629POPC   C3A10673  39.847  24.804   7.923
  629POPC   C4A10674  39.800  24.483   7.582
  629POPC   C1B10675  40.160  24.429   8.751
  629POPC   C2B10676  40.294  24.273   8.374
  629POPC   C3B10677  40.130  24.377   7.972
  629POPC   C4B10678  40.320  24.546   7.601
  630POPC   NC310679  28.828  32.778   9.487
  630POPC   PO410680  29.164  33.200   9.954
  630POPC   GL110681  29.187  33.266   9.419
  630POPC   GL210682  29.242  32.924   9.211
  630POPC   C1A10683  29.268  33.350   8.926
  630POPC   D2A10684  29.480  33.245   8.521
  630POPC   C3A10685  29.194  33.290   8.171
  630POPC   C4A10686  29.062  33.307   7.755
  630POPC   C1B10687  29.115  32.914   8.728
  630POPC   C2B10688  29.247  32.805   8.297
  630POPC   C3B10689  29.250  32.840   7.855
  630POPC   C4B10690  29.502  32.608   7.551
  631POPC   NC310691   0.672   9.340   9.761
  631POPC   PO410692   1.220   9.282   9.403
  631POPC   GL110693   1.221   8.913   9.134
  631POPC   GL210694   0.929   8.676   9.090
  631POPC   C1A10695   1.355   9.017   8.711
  631POPC   D2A10696   1.401   9.353   8.405
  631POPC   C3A10697   1.419   9.203   7.990
  631POPC   C4A10698   1.096   9.125   7.698
  631POPC   C1B10699   0.850   8.880   8.709
  631POPC   C2B10700   1.041   8.909   8.281
  631POPC   C3B10701   1.107   8.612   7.968
  631POPC   C4B10702   1.101   8.625   7.530
  632POPC   NC310703  10.207  29.418   9.499
  632POPC   PO410704  10.550  28.801   9.650
  632POPC   GL110705  10.511  28.951   9.168
  632POPC   GL210706  10.252  29.130   9.070
  632POPC   C1A10707  10.667  28.982   8.742
  632POPC   D2A10708  10.542  28.867   8.323
  632POPC   C3A10709  10.639  29.186   8.009
  632POPC   C4A10710  10.688  29.076   7.588
  632POPC   C1B10711  10.310  29.349   8.692
  632POPC   C2B10712  10.187  29.275   8.266
  632POPC   C3B10713  10.182  29.403   7.821
  632POPC   C4B10714  10.087  29.498   7.367
  633POPC   NC310715  23.389  37.161   9.810
  633POPC   PO410716  23.820  36.610   9.698
  633POPC   GL110717  23.816  36.710   9.278
  633POPC   GL210718  23.480  36.805   9.268
  633POPC   C1A10719  23.896  36.618   8.856
  633POPC   D2A10720  23.811  36.853   8.501
  633POPC   C3A10721  23.901  36.700   8.121
  633POPC   C4A10722  23.863  36.866   7.735
  633POPC   C1B10723  23.386  36.856   8.829
  633POPC   C2B10724  23.280  36.852   8.394
  633POPC   C3B10725  23.481  37.029   8.041
  633POPC   C4B10726  23.399  36.977   7.603
  634POPC   NC310727   8.077  38.185   9.442
  634POPC   PO410728   8.150  38.810   9.482
  634POPC   GL110729   7.970  38.586   9.119
  634POPC   GL210730   8.296  38.376   9.028
  634POPC   C1A10731   8.018  38.595   8.667
  634POPC   D2A10732   8.379  38.504   8.391
  634POPC   C3A10733   8.270  38.647   7.974
  634POPC   C4A10734   8.035  38.449   7.651
  634POPC   C1B10735   7.990  38.096   8.803
  634POPC   C2B10736   8.114  37.883   8.452
  634POPC   C3B10737   8.174  38.127   8.093
  634POPC   C4B10738   8.476  38.211   7.780
  635POPC   NC310739  37.115  42.397   9.585
  635POPC   PO410740  36.573  42.181   9.441
  635POPC   GL110741  36.787  42.473   9.169
  635POPC   GL210742  37.001  42.179   9.118
  635POPC   C1A10743  36.989  42.625   8.769
  635POPC   D2A10744  37.132  42.659   8.316
  635POPC   C3A10745  36.794  42.640   7.963
  635POPC   C4A10746  36.687  42.286   7.666
  635POPC   C1B10747  36.760  42.145   8.732
  635POPC   C2B10748  36.715  42.203   8.282
  635POPC   C3B10749  37.055  42.209   7.990
  635POPC   C4B10750  37.219  41.946   7.648
  636POPC   NC310751  30.137  39.318   9.923
  636POPC   PO410752  30.746  39.298   9.589
  636POPC   GL110753  30.703  39.303   9.147
  636POPC   GL210754  30.617  38.941   9.121
  636POPC   C1A10755  30.866  39.193   8.752
  636POPC   D2A10756  30.924  39.059   8.349
  636POPC   C3A10757  30.835  39.268   7.992
  636POPC   C4A10758  30.844  39.169   7.554
  636POPC   C1B10759  30.346  39.055   8.767
  636POPC   C2B10760  30.429  39.179   8.343
  636POPC   C3B10761  30.393  39.048   7.937
  636POPC   C4B10762  30.357  39.315   7.570
  637POPC   NC310763   6.142  33.667   9.438
  637POPC   PO410764   5.648  34.061   9.476
  637POPC   GL110765   5.784  33.856   9.078
  637POPC   GL210766   5.925  33.517   9.016
  637POPC   C1A10767   5.781  33.807   8.617
  637POPC   D2A10768   6.067  33.827   8.252
  637POPC   C3A10769   5.900  33.830   7.823
  637POPC   C4A10770   5.995  33.957   7.390
  637POPC   C1B10771   6.183  33.497   8.642
  637POPC   C2B10772   6.055  33.295   8.260
  637POPC   C3B10773   6.227  33.336   7.861
  637POPC   C4B10774   6.060  33.469   7.451
  638POPC   NC310775  26.410  35.284   9.616
  638POPC   PO410776  27.147  35.299   9.593
  638POPC   GL110777  27.003  35.541   9.220
  638POPC   GL210778  27.076  35.302   8.943
  638POPC   C1A10779  26.759  35.671   8.834
  638POPC   D2A10780  26.772  35.387   8.473
  638POPC   C3A10781  26.791  35.504   8.055
  638POPC   C4A10782  26.545  35.418   7.668
  638POPC   C1B10783  27.151  35.049   8.570
  638POPC   C2B10784  27.067  35.044   8.133
  638POPC   C3B10785  27.021  35.214   7.712
  638POPC   C4B10786  26.903  35.144   7.288
  639POPC   NC310787  37.175  35.146   9.476
  639POPC   PO410788  37.719  35.569   9.552
  639POPC   GL110789  37.639  35.336   9.120
  639POPC   GL210790  37.899  35.130   9.048
  639POPC   C1A10791  37.509  35.113   8.709
  639POPC   D2A10792  37.281  35.069   8.275
  639POPC   C3A10793  37.515  35.281   7.922
  639POPC   C4A10794  37.543  35.506   7.501
  639POPC   C1B10795  38.136  35.438   8.816
  639POPC   C2B10796  38.112  35.628   8.404
  639POPC   C3B10797  38.160  35.746   7.975
  639POPC   C4B10798  38.051  35.524   7.589
  640POPC   NC310799  14.309  38.934   9.507
  640POPC   PO410800  14.407  38.260   9.510
  640POPC   GL110801  14.477  38.444   9.108
  640POPC   GL210802  14.703  38.761   9.163
  640POPC   C1A10803  14.554  38.201   8.720
  640POPC   D2A10804  14.676  38.072   8.297
  640POPC   C3A10805  14.631  38.426   8.004
  640POPC   C4A10806  14.326  38.482   7.746
  640POPC   C1B10807  14.528  38.790   8.749
  640POPC   C2B10808  14.298  38.567   8.445
  640POPC   C3B10809  14.315  38.813   8.130
  640POPC   C4B10810  14.523  38.953   7.804
  641POPC   NC310811  40.132  12.113   9.417
  641POPC   PO410812  39.512  11.714   9.480
  641POPC   GL110813  39.654  11.963   9.118
  641POPC   GL210814  39.614  12.333   9.075
  641POPC   C1A10815  39.954  11.889   8.763
  641POPC   D2A10816  40.163  11.846   8.356
  641POPC   C3A10817  39.866  11.790   8.007
  641POPC   C4A10818  39.820  12.042   7.621
  641POPC   C1B10819  39.963  12.401   8.753
  641POPC   C2B10820  40.216  12.373   8.346
  641POPC   C3B10821  40.163  12.352   7.865
  641POPC   C4B10822  40.249  12.233   7.402
  642POPC   NC310823  39.047  11.610   9.542
  642POPC   PO410824  39.241  10.969   9.511
  642POPC   GL110825  39.349  11.076   9.075
  642POPC   GL210826  39.314  11.449   9.098
  642POPC   C1A10827  39.149  11.200   8.693
  642POPC   D2A10828  39.264  11.103   8.300
  642POPC   C3A10829  39.049  11.261   7.969
  642POPC   C4A10830  39.146  11.040   7.655
  642POPC   C1B10831  39.513  11.600   8.738
  642POPC   C2B10832  39.452  11.720   8.311
  642POPC   C3B10833  39.299  11.695   7.898
  642POPC   C4B10834  39.268  11.825   7.500
  643POPC   NC310835  25.325  38.034   9.528
  643POPC   PO410836  25.189  38.628   9.539
  643POPC   GL110837  25.376  38.528   9.108
  643POPC   GL210838  25.336  38.173   9.029
  643POPC   C1A10839  25.304  38.458   8.621
  643POPC   D2A10840  25.118  38.174   8.313
  643POPC   C3A10841  25.205  38.335   7.879
  643POPC   C4A10842  25.257  38.199   7.434
  643POPC   C1B10843  25.602  38.045   8.655
  643POPC   C2B10844  25.612  38.117   8.218
  643POPC   C3B10845  25.638  38.087   7.776
  643POPC   C4B10846  25.764  38.156   7.340
  644POPC   NC310847  21.800  43.739   9.452
  644POPC   PO410848  22.235  44.171   9.740
  644POPC   GL110849  22.271  43.990   9.299
  644POPC   GL210850  22.463  43.687   9.270
  644POPC   C1A10851  22.151  43.817   8.883
  644POPC   D2A10852  21.971  43.998   8.534
  644POPC   C3A10853  22.129  43.882   8.143
  644POPC   C4A10854  22.047  44.007   7.735
  644POPC   C1B10855  22.560  43.497   8.878
  644POPC   C2B10856  22.530  43.695   8.481
  644POPC   C3B10857  22.664  43.819   8.089
  644POPC   C4B10858  22.462  43.684   7.777
  645POPC   NC310859  29.102  42.498   9.485
  645POPC   PO410860  29.474  41.965   9.527
  645POPC   GL110861  29.268  42.100   9.147
  645POPC   GL210862  29.367  42.397   9.090
  645POPC   C1A10863  29.033  42.265   8.764
  645POPC   D2A10864  29.106  42.562   8.418
  645POPC   C3A10865  29.121  42.272   8.059
  645POPC   C4A10866  28.912  42.154   7.692
  645POPC   C1B10867  29.510  42.564   8.758
  645POPC   C2B10868  29.631  42.604   8.370
  645POPC   C3B10869  29.427  42.680   8.002
  645POPC   C4B10870  29.321  42.452   7.601
  646POPC   NC310871   0.514  10.167   9.591
  646POPC   PO410872   0.260   9.557   9.582
  646POPC   GL110873   0.406   9.637   9.163
  646POPC   GL210874   0.415   9.964   9.133
  646POPC   C1A10875   0.653   9.731   8.761
  646POPC   D2A10876   0.505   9.673   8.358
  646POPC   C3A10877   0.726   9.902   8.070
  646POPC   C4A10878   0.606   9.878   7.672
  646POPC   C1B10879   0.158   9.888   8.761
  646POPC   C2B10880   0.114   9.994   8.363
  646POPC   C3B10881   0.201  10.046   7.936
  646POPC   C4B10882   0.194  10.283   7.508
  647POPC   NC310883   0.319   6.978   9.445
  647POPC   PO410884   0.977   6.908   9.533
  647POPC   GL110885   0.718   6.928   9.153
  647POPC   GL210886   0.516   6.641   9.108
  647POPC   C1A10887   0.481   7.038   8.770
  647POPC   D2A10888   0.290   7.068   8.334
  647POPC   C3A10889   0.405   6.784   7.972
  647POPC   C4A10890   0.615   6.390   7.807
  647POPC   C1B10891   0.345   6.532   8.687
  647POPC   C2B10892   0.407   6.348   8.277
  647POPC   C3B10893   0.134   6.328   7.877
  647POPC   C4B10894  44.936   6.675   7.704
  648POPC   NC310895  30.993  41.425   9.326
  648POPC   PO410896  30.387  41.458   9.658
  648POPC   GL110897  30.455  41.434   9.199
  648POPC   GL210898  30.663  41.668   9.015
  648POPC   C1A10899  30.419  41.292   8.778
  648POPC   D2A10900  30.495  41.600   8.422
  648POPC   C3A10901  30.491  41.377   8.063
  648POPC   C4A10902  30.748  41.468   7.751
  648POPC   C1B10903  30.918  41.464   8.673
  648POPC   C2B10904  31.006  41.586   8.243
  648POPC   C3B10905  31.051  41.867   7.903
  648POPC   C4B10906  30.993  41.807   7.479
  649POPC   NC310907  28.366  42.816   9.194
  649POPC   PO410908  28.684  42.239   9.494
  649POPC   GL110909  28.658  42.409   9.099
  649POPC   GL210910  28.307  42.354   9.020
  649POPC   C1A10911  28.614  42.530   8.660
  649POPC   D2A10912  28.690  42.269   8.341
  649POPC   C3A10913  28.635  42.461   7.974
  649POPC   C4A10914  28.380  42.288   7.652
  649POPC   C1B10915  28.165  42.235   8.625
  649POPC   C2B10916  28.187  42.282   8.198
  649POPC   C3B10917  28.013  42.034   7.886
  649POPC   C4B10918  27.899  42.292   7.521
  650POPC   NC310919  25.058  30.470   9.378
  650POPC   PO410920  25.396  31.111   9.568
  650POPC   GL110921  25.359  30.838   9.191
  650POPC   GL210922  25.406  30.515   8.996
  650POPC   C1A10923  25.098  30.868   8.808
  650POPC   D2A10924  25.293  30.948   8.420
  650POPC   C3A10925  25.279  30.637   8.109
  650POPC   C4A10926  25.326  30.777   7.702
  650POPC   C1B10927  25.641  30.273   8.687
  650POPC   C2B10928  25.637  30.224   8.229
  650POPC   C3B10929  25.717  30.482   7.862
  650POPC   C4B10930  25.716  30.451   7.434
  651POPC   NC310931   3.347  35.971   9.483
  651POPC   PO410932   3.818  36.445   9.501
  651POPC   GL110933   3.684  36.183   9.165
  651POPC   GL210934   3.388  36.357   9.126
  651POPC   C1A10935   3.664  35.940   8.768
  651POPC   D2A10936   3.899  35.923   8.359
  651POPC   C3A10937   3.639  35.962   8.009
  651POPC   C4A10938   3.448  35.802   7.671
  651POPC   C1B10939   3.534  36.471   8.753
  651POPC   C2B10940   3.534  36.328   8.364
  651POPC   C3B10941   3.632  36.490   7.973
  651POPC   C4B10942   3.390  36.313   7.671
  652POPC   NC310943  35.424  44.273   9.376
  652POPC   PO410944  35.236  44.817   9.574
  652POPC   GL110945  35.446  44.818   9.184
  652POPC   GL210946  35.779  44.713   9.149
  652POPC   C1A10947  35.269  44.746   8.785
  652POPC   D2A10948  34.899  44.838   8.533
  652POPC   C3A10949  34.938  44.562   8.197
  652POPC   C4A10950  35.107  44.685   7.820
  652POPC   C1B10951  35.709  44.464   8.791
  652POPC   C2B10952  35.466  44.392   8.415
  652POPC   C3B10953  35.576  44.540   8.006
  652POPC   C4B10954  35.446  44.445   7.550
  653POPC   NC310955  13.284  25.224   9.791
  653POPC   PO410956  13.810  25.001   9.377
  653POPC   GL110957  13.808  25.234   9.066
  653POPC   GL210958  13.728  25.510   9.224
  653POPC   C1A10959  13.758  25.200   8.655
  653POPC   D2A10960  13.990  25.014   8.360
  653POPC   C3A10961  13.766  24.968   8.008
  653POPC   C4A10962  13.487  24.924   7.700
  653POPC   C1B10963  13.634  25.660   8.846
  653POPC   C2B10964  13.608  25.705   8.459
  653POPC   C3B10965  13.638  25.430   8.177
  653POPC   C4B10966  13.625  25.412   7.728
  654POPC   NC310967   2.165  30.233   9.544
  654POPC   PO410968   1.755  29.780   9.264
  654POPC   GL110969   2.003  30.045   9.091
  654POPC   GL210970   2.289  29.822   9.120
  654POPC   C1A10971   1.942  30.197   8.705
  654POPC   D2A10972   2.065  29.945   8.343
  654POPC   C3A10973   1.927  30.144   7.974
  654POPC   C4A10974   1.580  30.020   7.711
  654POPC   C1B10975   2.264  29.618   8.703
  654POPC   C2B10976   2.354  29.415   8.288
  654POPC   C3B10977   2.378  29.524   7.861
  654POPC   C4B10978   2.193  29.690   7.476
  655POPC   NC310979  16.319   8.871   9.528
  655POPC   PO410980  15.658   8.749   9.645
  655POPC   GL110981  15.792   8.888   9.240
  655POPC   GL210982  16.005   8.603   9.196
  655POPC   C1A10983  15.985   9.049   8.833
  655POPC   D2A10984  16.076   8.820   8.417
  655POPC   C3A10985  16.226   8.964   7.998
  655POPC   C4A10986  16.213   9.276   7.661
  655POPC   C1B10987  15.805   8.582   8.794
  655POPC   C2B10988  15.617   8.601   8.393
  655POPC   C3B10989  15.847   8.600   8.021
  655POPC   C4B10990  15.696   8.629   7.658
  656POPC   NC310991  23.421   0.962   9.489
  656POPC   PO410992  23.780   1.599   9.415
  656POPC   GL110993  23.665   1.224   9.099
  656POPC   GL210994  23.275   1.129   9.047
  656POPC   C1A10995  23.874   1.178   8.666
  656POPC   D2A10996  24.009   1.505   8.359
  656POPC   C3A10997  23.905   1.411   7.925
  656POPC   C4A10998  23.801   0.984   7.905
  656POPC   C1B10999  23.366   1.254   8.657
  656POPC   C2B11000  23.516   1.350   8.257
  656POPC   C3B11001  23.369   1.262   7.849
  656POPC   C4B11002  23.437   0.936   7.553
  657POPC   NC311003  14.339  24.046   9.467
  657POPC   PO411004  14.525  23.430   9.594
  657POPC   GL111005  14.576  23.646   9.163
  657POPC   GL211006  14.717  23.988   9.107
  657POPC   C1A11007  14.329  23.645   8.777
  657POPC   D2A11008  14.032  23.602   8.398
  657POPC   C3A11009  14.208  23.537   7.963
  657POPC   C4A11010  14.134  23.688   7.503
  657POPC   C1B11011  14.781  24.220   8.721
  657POPC   C2B11012  14.660  24.355   8.298
  657POPC   C3B11013  14.692  24.172   7.928
  657POPC   C4B11014  14.560  23.812   7.732
  658POPC   NC311015  25.898  21.899   9.561
  658POPC   PO411016  26.287  22.420   9.429
  658POPC   GL111017  26.067  22.232   9.093
  658POPC   GL211018  25.693  22.258   9.145
  658POPC   C1A11019  26.257  22.263   8.677
  658POPC   D2A11020  26.495  22.010   8.368
  658POPC   C3A11021  26.275  22.232   8.062
  658POPC   C4A11022  25.989  22.072   7.799
  658POPC   C1B11023  25.729  22.155   8.687
  658POPC   C2B11024  25.683  22.188   8.235
  658POPC   C3B11025  25.591  21.827   7.959
  658POPC   C4B11026  25.526  21.879   7.525
  659POPC   NC311027  15.835  24.641   9.557
  659POPC   PO411028  16.438  24.524   9.376
  659POPC   GL111029  16.023  24.415   9.109
  659POPC   GL211030  15.632  24.528   9.118
  659POPC   C1A11031  15.812  24.300   8.705
  659POPC   D2A11032  15.683  24.071   8.337
  659POPC   C3A11033  15.971  24.211   8.037
  659POPC   C4A11034  16.063  24.428   7.649
  659POPC   C1B11035  15.493  24.714   8.733
  659POPC   C2B11036  15.524  24.561   8.301
  659POPC   C3B11037  15.762  24.691   7.944
  659POPC   C4B11038  15.659  24.710   7.463
  660POPC   NC311039  39.419  41.745   9.586
  660POPC   PO411040  38.888  41.325   9.538
  660POPC   GL111041  39.045  41.578   9.181
  660POPC   GL211042  39.421  41.549   9.091
  660POPC   C1A11043  39.052  41.744   8.744
  660POPC   D2A11044  39.144  41.476   8.363
  660POPC   C3A11045  39.102  41.533   7.906
  660POPC   C4A11046  39.450  41.360   7.680
  660POPC   C1B11047  39.570  41.725   8.706
  660POPC   C2B11048  39.522  41.777   8.243
  660POPC   C3B11049  39.514  41.858   7.811
  660POPC   C4B11050  39.590  41.763   7.391
  661POPC   NC311051  31.939  24.723   9.296
  661POPC   PO411052  32.064  24.173   9.636
  661POPC   GL111053  32.203  24.256   9.197
  661POPC   GL211054  32.444  24.529   9.096
  661POPC   C1A11055  32.279  24.166   8.755
  661POPC   D2A11056  32.050  24.264   8.408
  661POPC   C3A11057  32.254  24.153   8.049
  661POPC   C4A11058  32.344  24.180   7.626
  661POPC   C1B11059  32.258  24.833   8.761
  661POPC   C2B11060  32.120  24.758   8.370
  661POPC   C3B11061  32.165  24.646   7.964
  661POPC   C4B11062  32.494  24.693   7.678
  662POPC   NC311063   6.314  43.286   9.679
  662POPC   PO411064   6.642  42.728   9.517
  662POPC   GL111065   6.683  43.002   9.136
  662POPC   GL211066   6.482  43.334   9.152
  662POPC   C1A11067   6.801  42.867   8.705
  662POPC   D2A11068   6.988  42.938   8.302
  662POPC   C3A11069   6.698  42.860   7.996
  662POPC   C4A11070   6.655  42.954   7.625
  662POPC   C1B11071   6.681  43.371   8.725
  662POPC   C2B11072   6.613  43.285   8.279
  662POPC   C3B11073   6.619  43.427   7.856
  662POPC   C4B11074   6.673  43.393   7.397
  663POPC   NC311075  14.685  28.485   9.519
  663POPC   PO411076  14.021  28.132   9.446
  663POPC   GL111077  14.369  28.247   9.166
  663POPC   GL211078  14.384  28.596   9.117
  663POPC   C1A11079  14.547  28.268   8.735
  663POPC   D2A11080  14.353  28.311   8.314
  663POPC   C3A11081  14.583  28.291   7.910
  663POPC   C4A11082  14.723  28.119   7.533
  663POPC   C1B11083  14.141  28.637   8.738
  663POPC   C2B11084  14.088  28.779   8.340
  663POPC   C3B11085  14.171  28.601   7.927
  663POPC   C4B11086  14.071  28.150   7.829
  664POPC   NC311087  38.591  14.481   9.608
  664POPC   PO411088  38.203  13.896   9.679
  664POPC   GL111089  38.242  14.203   9.310
  664POPC   GL211090  38.604  14.179   9.163
  664POPC   C1A11091  38.212  14.398   8.888
  664POPC   D2A11092  38.402  14.321   8.459
  664POPC   C3A11093  38.227  14.427   8.056
  664POPC   C4A11094  38.267  14.503   7.624
  664POPC   C1B11095  38.730  14.490   8.815
  664POPC   C2B11096  38.796  14.625   8.357
  664POPC   C3B11097  38.714  14.507   7.923
  664POPC   C4B11098  38.574  14.104   7.746
  665POPC   NC311099  14.076  10.478   9.743
  665POPC   PO411100  13.390  10.469   9.736
  665POPC   GL111101  13.631  10.404   9.303
  665POPC   GL211102  13.992  10.370   9.229
  665POPC   C1A11103  13.515  10.335   8.840
  665POPC   D2A11104  13.382  10.482   8.412
  665POPC   C3A11105  13.543  10.334   8.039
  665POPC   C4A11106  13.506  10.612   7.696
  665POPC   C1B11107  13.868  10.707   8.901
  665POPC   C2B11108  13.812  10.791   8.431
  665POPC   C3B11109  13.968  10.619   8.001
  665POPC   C4B11110  13.999  10.552   7.503
  666POPC   NC311111   4.700  19.986   9.759
  666POPC   PO411112   4.128  19.773   9.438
  666POPC   GL111113   4.490  19.796   9.160
  666POPC   GL211114   4.566  19.489   8.966
  666POPC   C1A11115   4.584  19.930   8.759
  666POPC   D2A11116   4.338  19.786   8.416
  666POPC   C3A11117   4.433  19.911   7.992
  666POPC   C4A11118   4.695  19.736   7.676
  666POPC   C1B11119   4.195  19.288   8.813
  666POPC   C2B11120   4.000  19.297   8.426
  666POPC   C3B11121   4.156  19.458   8.066
  666POPC   C4B11122   4.097  19.435   7.645
  667POPC   NC311123  18.067  23.069   9.433
  667POPC   PO411124  18.100  22.403   9.546
  667POPC   GL111125  18.354  22.506   9.187
  667POPC   GL211126  18.487  22.840   9.160
  667POPC   C1A11127  18.452  22.539   8.761
  667POPC   D2A11128  18.159  22.641   8.422
  667POPC   C3A11129  18.314  22.708   7.997
  667POPC   C4A11130  18.170  22.927   7.612
  667POPC   C1B11131  18.340  23.043   8.747
  667POPC   C2B11132  18.327  23.144   8.297
  667POPC   C3B11133  18.490  23.237   7.895
  667POPC   C4B11134  18.657  23.333   7.476
  668POPC   NC311135  34.472   2.543   9.513
  668POPC   PO411136  34.816   3.083   9.569
  668POPC   GL111137  34.584   2.905   9.165
  668POPC   GL211138  34.288   2.631   9.065
  668POPC   C1A11139  34.646   2.799   8.742
  668POPC   D2A11140  34.670   3.019   8.352
  668POPC   C3A11141  34.660   2.770   7.977
  668POPC   C4A11142  34.889   2.919   7.619
  668POPC   C1B11143  34.125   2.825   8.711
  668POPC   C2B11144  34.228   2.749   8.305
  668POPC   C3B11145  34.116   2.841   7.912
  668POPC   C4B11146  34.258   2.541   7.701
  669POPC   NC311147   9.798  25.808   9.476
  669POPC   PO411148  10.122  26.371   9.661
  669POPC   GL111149  10.073  26.222   9.231
  669POPC   GL211150   9.758  26.095   9.060
  669POPC   C1A11151  10.115  26.311   8.797
  669POPC   D2A11152   9.960  26.128   8.444
  669POPC   C3A11153  10.126  26.361   8.099
  669POPC   C4A11154   9.969  26.251   7.708
  669POPC   C1B11155   9.471  25.985   8.740
  669POPC   C2B11156   9.445  25.975   8.303
  669POPC   C3B11157   9.651  25.876   7.890
  669POPC   C4B11158   9.373  25.858   7.535
  670POPC   NC311159  15.809  27.616   9.648
  670POPC   PO411160  16.013  27.022   9.533
  670POPC   GL111161  15.891  27.374   9.184
  670POPC   GL211162  16.004  27.743   9.197
  670POPC   C1A11163  15.956  27.376   8.699
  670POPC   D2A11164  16.173  27.345   8.267
  670POPC   C3A11165  15.965  27.515   7.844
  670POPC   C4A11166  16.057  27.374   7.370
  670POPC   C1B11167  15.878  27.884   8.806
  670POPC   C2B11168  16.036  27.825   8.390
  670POPC   C3B11169  16.225  27.930   8.007
  670POPC   C4B11170  15.948  27.997   7.674
  671POPC   NC311171   0.511   6.007   9.584
  671POPC   PO411172   0.089   6.499   9.366
  671POPC   GL111173   0.311   6.167   9.102
  671POPC   GL211174   0.498   5.828   9.106
  671POPC   C1A11175   0.267   6.007   8.697
  671POPC   D2A11176   0.521   5.768   8.445
  671POPC   C3A11177   0.357   5.873   8.079
  671POPC   C4A11178   0.497   5.720   7.745
  671POPC   C1B11179   0.768   6.058   8.807
  671POPC   C2B11180   0.906   6.180   8.383
  671POPC   C3B11181   0.883   5.986   7.969
  671POPC   C4B11182   0.880   6.062   7.488
  672POPC   NC311183   2.255  25.874   9.416
  672POPC   PO411184   1.643  26.098   9.600
  672POPC   GL111185   1.849  26.117   9.178
  672POPC   GL211186   2.043  26.363   8.986
  672POPC   C1A11187   1.944  25.828   8.827
  672POPC   D2A11188   1.815  25.828   8.383
  672POPC   C3A11189   1.905  26.154   8.111
  672POPC   C4A11190   1.713  26.114   7.711
  672POPC   C1B11191   2.317  26.149   8.669
  672POPC   C2B11192   2.300  25.727   8.469
  672POPC   C3B11193   2.205  25.652   8.099
  672POPC   C4B11194   2.156  25.884   7.762
  673POPC   NC311195  36.756   6.803   9.410
  673POPC   PO411196  37.204   6.322   9.459
  673POPC   GL111197  36.984   6.479   9.081
  673POPC   GL211198  36.654   6.353   9.153
  673POPC   C1A11199  37.016   6.724   8.674
  673POPC   D2A11200  37.311   6.823   8.312
  673POPC   C3A11201  37.152   6.831   7.897
  673POPC   C4A11202  36.949   6.516   7.732
  673POPC   C1B11203  36.533   6.537   8.779
  673POPC   C2B11204  36.557   6.793   8.408
  673POPC   C3B11205  36.601   6.834   7.962
  673POPC   C4B11206  36.484   6.645   7.593
  674POPC   NC311207  16.940  44.739   9.557
  674POPC   PO411208  17.201  44.358   9.098
  674POPC   GL111209  16.863  44.609   9.042
  674POPC   GL211210  16.778  44.944   9.115
  674POPC   C1A11211  16.695  44.652   8.665
  674POPC   D2A11212  16.566  44.322   8.411
  674POPC   C3A11213  16.463  44.522   8.047
  674POPC   C4A11214  16.567  44.279   7.682
  674POPC   C1B11215  16.690   0.188   8.735
  674POPC   C2B11216  16.477   0.034   8.356
  674POPC   C3B11217  16.631   0.011   7.943
  674POPC   C4B11218  17.028  44.926   7.723
  675POPC   NC311219  39.619  15.566   9.866
  675POPC   PO411220  39.197  15.105   9.537
  675POPC   GL111221  39.248  15.059   9.099
  675POPC   GL211222  39.117  14.728   9.042
  675POPC   C1A11223  39.029  15.279   8.747
  675POPC   D2A11224  38.938  15.265   8.283
  675POPC   C3A11225  39.308  15.321   7.988
  675POPC   C4A11226  39.451  15.405   7.574
  675POPC   C1B11227  39.182  14.808   8.633
  675POPC   C2B11228  39.230  14.872   8.222
  675POPC   C3B11229  39.062  14.889   7.805
  675POPC   C4B11230  39.042  15.156   7.426
  676POPC   NC311231  33.284  10.415   9.456
  676POPC   PO411232  33.107  10.964   9.733
  676POPC   GL111233  33.098  10.875   9.245
  676POPC   GL211234  32.956  10.530   9.089
  676POPC   C1A11235  32.949  10.919   8.795
  676POPC   D2A11236  32.768  10.653   8.439
  676POPC   C3A11237  32.944  10.756   8.006
  676POPC   C4A11238  32.845  10.725   7.575
  676POPC   C1B11239  33.000  10.230   8.745
  676POPC   C2B11240  33.061  10.191   8.316
  676POPC   C3B11241  32.943  10.240   7.896
  676POPC   C4B11242  33.214  10.054   7.610
  677POPC   NC311243  31.975  16.376   9.730
  677POPC   PO411244  32.118  16.865   9.381
  677POPC   GL111245  32.413  16.694   9.102
  677POPC   GL211246  32.698  16.905   9.021
  677POPC   C1A11247  32.248  16.627   8.706
  677POPC   D2A11248  32.208  16.926   8.355
  677POPC   C3A11249  32.086  16.735   7.952
  677POPC   C4A11250  31.738  16.904   7.673
  677POPC   C1B11251  32.712  16.810   8.588
  677POPC   C2B11252  32.552  16.553   8.296
  677POPC   C3B11253  32.693  16.347   7.995
  677POPC   C4B11254  32.637  16.677   7.717
  678POPC   NC311255   7.102  22.495   9.482
  678POPC   PO411256   6.852  21.879   9.449
  678POPC   GL111257   7.047  22.102   9.076
  678POPC   GL211258   7.383  22.277   9.092
  678POPC   C1A11259   7.268  22.015   8.674
  678POPC   D2A11260   7.484  21.816   8.339
  678POPC   C3A11261   7.262  21.948   8.008
  678POPC   C4A11262   7.170  22.372   7.846
  678POPC   C1B11263   7.698  22.554   8.833
  678POPC   C2B11264   7.779  22.542   8.444
  678POPC   C3B11265   7.641  22.315   8.099
  678POPC   C4B11266   7.841  22.353   7.740
  679POPC   NC311267  38.127  39.101   9.388
  679POPC   PO411268  38.499  39.559   9.677
  679POPC   GL111269  38.527  39.398   9.249
  679POPC   GL211270  38.648  39.090   9.132
  679POPC   C1A11271  38.471  39.498   8.794
  679POPC   D2A11272  38.310  39.347   8.378
  679POPC   C3A11273  38.506  39.472   7.988
  679POPC   C4A11274  38.690  39.526   7.585
  679POPC   C1B11275  38.646  38.823   8.770
  679POPC   C2B11276  38.381  38.774   8.416
  679POPC   C3B11277  38.309  38.929   8.000
  679POPC   C4B11278  38.625  38.987   7.728
  680POPC   NC311279  35.591  35.073   9.436
  680POPC   PO411280  35.253  35.692   9.341
  680POPC   GL111281  35.306  35.427   9.025
  680POPC   GL211282  35.650  35.322   9.001
  680POPC   C1A11283  35.112  35.418   8.630
  680POPC   D2A11284  35.285  35.621   8.271
  680POPC   C3A11285  35.225  35.435   7.878
  680POPC   C4A11286  34.843  35.286   7.670
  680POPC   C1B11287  35.612  35.303   8.579
  680POPC   C2B11288  35.742  35.371   8.158
  680POPC   C3B11289  35.651  35.736   7.904
  680POPC   C4B11290  35.427  35.787   7.491
  681POPC   NC311291  32.441  17.195   9.396
  681POPC   PO411292  32.002  17.623   9.612
  681POPC   GL111293  32.172  17.624   9.183
  681POPC   GL211294  32.029  17.301   9.077
  681POPC   C1A11295  32.367  17.733   8.746
  681POPC   D2A11296  32.250  17.530   8.361
  681POPC   C3A11297  32.406  17.485   7.949
  681POPC   C4A11298  32.035  17.312   7.718
  681POPC   C1B11299  32.375  17.211   8.765
  681POPC   C2B11300  32.711  17.300   8.484
  681POPC   C3B11301  32.652  17.063   8.123
  681POPC   C4B11302  32.786  17.176   7.738
  682POPC   NC311303  41.989  19.566   9.481
  682POPC   PO411304  42.178  20.213   9.552
  682POPC   GL111305  42.273  19.907   9.216
  682POPC   GL211306  42.479  19.587   9.246
  682POPC   C1A11307  42.193  19.747   8.814
  682POPC   D2A11308  42.246  19.888   8.383
  682POPC   C3A11309  42.136  19.635   8.021
  682POPC   C4A11310  41.812  19.771   7.715
  682POPC   C1B11311  42.666  19.539   8.818
  682POPC   C2B11312  42.549  19.494   8.361
  682POPC   C3B11313  42.655  19.587   7.930
  682POPC   C4B11314  42.507  19.722   7.458
  683POPC   NC311315  20.807  27.901   9.406
  683POPC   PO411316  20.370  28.408   9.541
  683POPC   GL111317  20.595  28.498   9.152
  683POPC   GL211318  20.704  28.200   9.008
  683POPC   C1A11319  20.634  28.639   8.704
  683POPC   D2A11320  20.512  28.486   8.282
  683POPC   C3A11321  20.680  28.666   7.894
  683POPC   C4A11322  20.732  28.562   7.482
  683POPC   C1B11323  20.858  28.138   8.607
  683POPC   C2B11324  20.671  28.004   8.231
  683POPC   C3B11325  20.690  28.153   7.835
  683POPC   C4B11326  20.981  28.084   7.515
  684POPC   NC311327   7.619  10.442   9.669
  684POPC   PO411328   7.229  10.869   9.383
  684POPC   GL111329   7.580  10.820   9.103
  684POPC   GL211330   7.728  10.492   9.166
  684POPC   C1A11331   7.667  10.806   8.657
  684POPC   D2A11332   7.756  10.646   8.247
  684POPC   C3A11333   7.359  10.653   8.002
  684POPC   C4A11334   7.034  10.393   7.826
  684POPC   C1B11335   7.379  10.404   8.904
  684POPC   C2B11336   7.353  10.402   8.469
  684POPC   C3B11337   7.583  10.179   8.167
  684POPC   C4B11338   7.498  10.211   7.739
  685POPC   NC311339  12.784  30.187   9.259
  685POPC   PO411340  13.128  29.617   9.478
  685POPC   GL111341  13.157  29.742   9.051
  685POPC   GL211342  12.801  29.768   8.971
  685POPC   C1A11343  13.132  30.013   8.665
  685POPC   D2A11344  12.742  30.102   8.407
  685POPC   C3A11345  12.857  30.158   7.980
  685POPC   C4A11346  13.079  29.890   7.677
  685POPC   C1B11347  12.894  29.572   8.587
  685POPC   C2B11348  12.924  29.643   8.135
  685POPC   C3B11349  13.295  29.487   7.885
  685POPC   C4B11350  13.255  29.462   7.396
  686POPC   NC311351   3.338   9.175   9.459
  686POPC   PO411352   3.929   8.973   9.295
  686POPC   GL111353   3.563   8.960   9.024
  686POPC   GL211354   3.321   8.702   9.186
  686POPC   C1A11355   3.622   9.090   8.589
  686POPC   D2A11356   3.468   9.280   8.193
  686POPC   C3A11357   3.806   9.304   7.896
  686POPC   C4A11358   4.049   8.909   7.853
  686POPC   C1B11359   3.278   8.489   8.785
  686POPC   C2B11360   3.462   8.624   8.411
  686POPC   C3B11361   3.549   8.783   8.022
  686POPC   C4B11362   3.402   8.495   7.729
  687POPC   NC311363   0.183  15.287   9.482
  687POPC   PO411364   0.767  14.958   9.659
  687POPC   GL111365   0.645  15.158   9.245
  687POPC   GL211366   0.428  14.912   9.205
  687POPC   C1A11367   0.539  15.423   8.852
  687POPC   D2A11368   0.220  15.395   8.485
  687POPC   C3A11369   0.368  15.331   8.066
  687POPC   C4A11370   0.358  15.203   7.626
  687POPC   C1B11371   0.269  14.997   8.826
  687POPC   C2B11372   0.378  14.851   8.417
  687POPC   C3B11373   0.245  14.845   7.979
  687POPC   C4B11374  44.965  14.839   7.606
  688POPC   NC311375   4.131  28.975   9.359
  688POPC   PO411376   4.771  29.291   9.510
  688POPC   GL111377   4.529  29.260   9.178
  688POPC   GL211378   4.586  28.922   9.174
  688POPC   C1A11379   4.489  29.407   8.768
  688POPC   D2A11380   4.284  29.292   8.391
  688POPC   C3A11381   4.527  29.262   8.027
  688POPC   C4A11382   4.383  29.170   7.617
  688POPC   C1B11383   4.306  28.925   8.770
  688POPC   C2B11384   4.118  28.804   8.396
  688POPC   C3B11385   4.075  28.999   8.003
  688POPC   C4B11386   3.985  28.825   7.603
  689POPC   NC311387  11.095  11.304   9.495
  689POPC   PO411388  11.666  10.974   9.355
  689POPC   GL111389  11.478  11.166   9.052
  689POPC   GL211390  11.136  11.022   9.086
  689POPC   C1A11391  11.341  11.113   8.627
  689POPC   D2A11392  11.099  11.382   8.369
  689POPC   C3A11393  11.252  11.372   7.947
  689POPC   C4A11394  11.408  10.986   7.831
  689POPC   C1B11395  10.810  11.031   8.782
  689POPC   C2B11396  10.711  10.924   8.371
  689POPC   C3B11397  10.879  11.025   7.966
  689POPC   C4B11398  10.991  11.095   7.519
  690POPC   NC311399   7.429  15.710   9.679
  690POPC   PO411400   7.427  16.318   9.516
  690POPC   GL111401   7.575  16.040   9.172
  690POPC   GL211402   7.451  15.714   9.178
  690POPC   C1A11403   7.629  16.128   8.724
  690POPC   D2A11404   7.460  16.241   8.306
  690POPC   C3A11405   7.530  16.015   7.931
  690POPC   C4A11406   7.169  16.018   7.629
  690POPC   C1B11407   7.641  15.630   8.801
  690POPC   C2B11408   7.430  15.723   8.408
  690POPC   C3B11409   7.158  15.675   8.051
  690POPC   C4B11410   7.377  15.560   7.709
  691POPC   NC311411   8.122  26.160   9.587
  691POPC   PO411412   8.590  25.663   9.574
  691POPC   GL111413   8.495  25.894   9.186
  691POPC   GL211414   8.256  26.176   9.105
  691POPC   C1A11415   8.545  25.973   8.745
  691POPC   D2A11416   8.522  26.179   8.368
  691POPC   C3A11417   8.356  25.935   8.041
  691POPC   C4A11418   8.239  26.274   7.760
  691POPC   C1B11419   8.066  25.826   8.884
  691POPC   C2B11420   8.018  25.959   8.457
  691POPC   C3B11421   7.859  26.087   8.052
  691POPC   C4B11422   7.883  25.915   7.645
  692POPC   NC311423  11.153  15.675   9.449
  692POPC   PO411424  11.311  14.965   9.546
  692POPC   GL111425  11.395  15.206   9.217
  692POPC   GL211426  11.035  15.261   9.185
  692POPC   C1A11427  11.508  15.051   8.808
  692POPC   D2A11428  11.339  15.139   8.402
  692POPC   C3A11429  11.522  15.190   8.017
  692POPC   C4A11430  11.260  14.989   7.724
  692POPC   C1B11431  10.888  15.453   8.824
  692POPC   C2B11432  10.968  15.505   8.412
  692POPC   C3B11433  10.924  15.255   8.036
  692POPC   C4B11434  10.991  15.433   7.630
  693POPC   NC311435  38.549  17.636   9.606
  693POPC   PO411436  38.217  17.112   9.441
  693POPC   GL111437  38.538  17.321   9.132
  693POPC   GL211438  38.597  17.705   9.120
  693POPC   C1A11439  38.395  17.437   8.696
  693POPC   D2A11440  38.077  17.434   8.327
  693POPC   C3A11441  38.224  17.326   7.916
  693POPC   C4A11442  38.628  17.372   7.776
  693POPC   C1B11443  38.214  17.838   8.941
  693POPC   C2B11444  38.231  17.888   8.502
  693POPC   C3B11445  38.423  17.780   8.122
  693POPC   C4B11446  38.317  17.793   7.716
  694POPC   NC311447  15.220  30.166   9.583
  694POPC   PO411448  14.882  29.580   9.483
  694POPC   GL111449  15.257  29.838   9.205
  694POPC   GL211450  15.222  30.227   9.100
  694POPC   C1A11451  15.369  29.916   8.746
  694POPC   D2A11452  15.094  29.939   8.408
  694POPC   C3A11453  15.285  30.033   8.018
  694POPC   C4A11454  15.381  29.891   7.613
  694POPC   C1B11455  14.867  30.362   8.832
  694POPC   C2B11456  14.684  30.258   8.427
  694POPC   C3B11457  14.836  30.264   7.998
  694POPC   C4B11458  14.970  30.215   7.568
  695POPC   NC311459  44.404  35.550   9.548
  695POPC   PO411460  44.895  35.995   9.419
  695POPC   GL111461  44.677  35.664   9.125
  695POPC   GL211462  44.830  35.364   9.113
  695POPC   C1A11463  44.620  35.438   8.669
  695POPC   D2A11464  44.402  35.354   8.294
  695POPC   C3A11465  44.333  35.652   8.002
  695POPC   C4A11466  44.661  35.581   7.786
  695POPC   C1B11467  44.880  35.036   8.775
  695POPC   C2B11468  44.796  34.996   8.329
  695POPC   C3B11469  44.509  34.986   7.958
  695POPC   C4B11470  44.259  35.263   7.705
  696POPC   NC311471   0.599  43.215   9.445
  696POPC   PO411472   0.754  42.670   9.747
  696POPC   GL111473   0.392  42.814   9.265
  696POPC   GL211474   0.204  43.215   9.146
  696POPC   C1A11475   0.375  42.951   8.772
  696POPC   D2A11476   0.106  43.050   8.381
  696POPC   C3A11477   0.264  42.882   7.974
  696POPC   C4A11478   0.712  42.890   7.828
  696POPC   C1B11479   0.399  43.496   8.830
  696POPC   C2B11480   0.567  43.475   8.402
  696POPC   C3B11481   0.453  43.356   7.969
  696POPC   C4B11482   0.096  43.323   7.678
  697POPC   NC311483   2.754   4.853   9.571
  697POPC   PO411484   2.902   5.529   9.485
  697POPC   GL111485   2.865   5.323   9.094
  697POPC   GL211486   2.957   4.992   9.136
  697POPC   C1A11487   2.717   5.242   8.656
  697POPC   D2A11488   2.724   5.225   8.195
  697POPC   C3A11489   2.824   5.528   7.891
  697POPC   C4A11490   2.643   5.590   7.477
  697POPC   C1B11491   2.881   4.661   8.839
  697POPC   C2B11492   2.730   4.756   8.437
  697POPC   C3B11493   2.821   4.758   7.993
  697POPC   C4B11494   2.714   5.004   7.657
  698POPC   NC311495  29.475  12.075   9.412
  698POPC   PO411496  28.815  12.241   9.611
  698POPC   GL111497  29.011  12.266   9.206
  698POPC   GL211498  28.753  12.063   9.124
  698POPC   C1A11499  28.990  12.370   8.745
  698POPC   D2A11500  28.924  12.564   8.307
  698POPC   C3A11501  28.993  12.218   8.004
  698POPC   C4A11502  29.323  12.171   7.721
  698POPC   C1B11503  28.839  11.863   8.765
  698POPC   C2B11504  28.885  11.859   8.356
  698POPC   C3B11505  28.921  11.681   7.982
  698POPC   C4B11506  28.973  11.823   7.615
  699POPC   NC311507  36.014   5.465   9.405
  699POPC   PO411508  36.225   4.758   9.547
  699POPC   GL111509  36.214   5.032   9.220
  699POPC   GL211510  35.907   4.957   9.114
  699POPC   C1A11511  36.288   5.057   8.782
  699POPC   D2A11512  36.472   4.758   8.518
  699POPC   C3A11513  36.444   4.872   8.110
  699POPC   C4A11514  36.116   4.976   7.850
  699POPC   C1B11515  35.736   5.026   8.736
  699POPC   C2B11516  35.902   5.279   8.459
  699POPC   C3B11517  35.829   5.348   8.050
  699POPC   C4B11518  35.596   5.000   7.915
  700POPC   NC311519  36.187  31.166   9.298
  700POPC   PO411520  36.210  31.711   9.551
  700POPC   GL111521  36.065  31.605   9.103
  700POPC   GL211522  35.822  31.283   9.004
  700POPC   C1A11523  36.301  31.777   8.755
  700POPC   D2A11524  36.235  31.981   8.397
  700POPC   C3A11525  36.230  31.574   8.150
  700POPC   C4A11526  36.139  31.324   7.743
  700POPC   C1B11527  36.142  31.306   8.646
  700POPC   C2B11528  36.134  31.091   8.259
  700POPC   C3B11529  35.915  30.887   7.956
  700POPC   C4B11530  35.809  30.969   7.539
  701POPC   NC311531  15.167  44.149   9.476
  701POPC   PO411532  15.474  43.519   9.446
  701POPC   GL111533  15.453  43.740   9.099
  701POPC   GL211534  15.112  43.722   9.108
  701POPC   C1A11535  15.336  43.927   8.690
  701POPC   D2A11536  14.944  44.105   8.473
  701POPC   C3A11537  14.961  44.005   8.029
  701POPC   C4A11538  15.348  44.048   7.797
  701POPC   C1B11539  14.910  43.640   8.738
  701POPC   C2B11540  15.078  43.575   8.317
  701POPC   C3B11541  15.013  43.519   7.860
  701POPC   C4B11542  15.067  43.438   7.418
  702POPC   NC311543  43.496   1.714   9.778
  702POPC   PO411544  44.179   1.450   9.671
  702POPC   GL111545  44.130   1.222   9.256
  702POPC   GL211546  43.737   1.156   9.211
  702POPC   C1A11547  44.062   1.371   8.815
  702POPC   D2A11548  43.763   1.452   8.483
  702POPC   C3A11549  43.898   1.293   8.082
  702POPC   C4A11550  44.085   1.404   7.687
  702POPC   C1B11551  43.581   1.056   8.802
  702POPC   C2B11552  43.353   0.909   8.429
  702POPC   C3B11553  43.443   0.815   7.999
  702POPC   C4B11554  43.682   1.028   7.687
  703POPC   NC311555  32.987   7.032   9.496
  703POPC   PO411556  33.550   7.459   9.578
  703POPC   GL111557  33.408   7.227   9.231
  703POPC   GL211558  33.212   7.506   9.056
  703POPC   C1A11559  33.218   7.038   8.852
  703POPC   D2A11560  33.192   7.229   8.437
  703POPC   C3A11561  32.866   7.196   8.119
  703POPC   C4A11562  32.704   7.536   7.848
  703POPC   C1B11563  32.944   7.638   8.693
  703POPC   C2B11564  33.005   7.682   8.255
  703POPC   C3B11565  33.278   7.474   7.952
  703POPC   C4B11566  33.465   7.323   7.565
  704POPC   NC311567  22.390   6.966   9.398
  704POPC   PO411568  21.876   6.524   9.580
  704POPC   GL111569  22.010   6.716   9.200
  704POPC   GL211570  21.937   6.421   9.089
  704POPC   C1A11571  22.190   6.710   8.756
  704POPC   D2A11572  21.997   6.641   8.345
  704POPC   C3A11573  22.247   6.718   7.962
  704POPC   C4A11574  22.364   6.568   7.529
  704POPC   C1B11575  21.644   6.410   8.766
  704POPC   C2B11576  21.700   6.211   8.365
  704POPC   C3B11577  21.600   6.325   7.985
  704POPC   C4B11578  21.852   6.475   7.684
  705POPC   NC311579  17.836   0.116   9.948
  705POPC   PO411580  17.694   0.707   9.698
  705POPC   GL111581  17.599   0.616   9.156
  705POPC   GL211582  17.641   0.259   9.055
  705POPC   C1A11583  17.777   0.629   8.711
  705POPC   D2A11584  17.746   0.872   8.318
  705POPC   C3A11585  17.559   0.747   7.937
  705POPC   C4A11586  17.595   0.547   7.529
  705POPC   C1B11587  17.603   0.119   8.645
  705POPC   C2B11588  17.793   0.264   8.326
  705POPC   C3B11589  17.723   0.249   7.947
  705POPC   C4B11590  17.522   0.056   7.671
  706POPC   NC311591  28.730  38.647   9.382
  706POPC   PO411592  29.312  38.307   9.550
  706POPC   GL111593  29.387  38.424   9.113
  706POPC   GL211594  29.046  38.503   9.008
  706POPC   C1A11595  29.435  38.522   8.662
  706POPC   D2A11596  29.478  38.797   8.321
  706POPC   C3A11597  29.262  38.633   7.998
  706POPC   C4A11598  29.395  38.550   7.619
  706POPC   C1B11599  28.801  38.726   8.719
  706POPC   C2B11600  28.875  38.811   8.294
  706POPC   C3B11601  28.823  38.822   7.852
  706POPC   C4B11602  28.959  38.805   7.446
  707POPC   NC311603   8.702  11.469   9.439
  707POPC   PO411604   9.047  10.925   9.700
  707POPC   GL111605   8.906  11.030   9.224
  707POPC   GL211606   9.046  11.321   9.083
  707POPC   C1A11607   8.825  11.067   8.725
  707POPC   D2A11608   9.028  11.322   8.412
  707POPC   C3A11609   9.016  11.184   7.987
  707POPC   C4A11610   9.169  11.239   7.566
  707POPC   C1B11611   8.767  11.572   8.804
  707POPC   C2B11612   8.521  11.590   8.466
  707POPC   C3B11613   8.730  11.593   8.096
  707POPC   C4B11614   8.900  11.648   7.710
  708POPC   NC311615  26.664  24.527   9.547
  708POPC   PO411616  27.263  24.311   9.453
  708POPC   GL111617  26.892  24.328   9.154
  708POPC   GL211618  26.798  24.712   9.083
  708POPC   C1A11619  26.734  24.326   8.746
  708POPC   D2A11620  27.005  24.391   8.339
  708POPC   C3A11621  26.954  24.501   7.906
  708POPC   C4A11622  26.672  24.236   7.665
  708POPC   C1B11623  26.855  24.795   8.629
  708POPC   C2B11624  26.535  24.637   8.352
  708POPC   C3B11625  26.482  24.685   7.916
  708POPC   C4B11626  26.602  24.668   7.430
  709POPC   NC311627  25.266  25.464   9.450
  709POPC   PO411628  24.801  25.050   9.340
  709POPC   GL111629  25.151  25.157   9.015
  709POPC   GL211630  25.505  25.318   9.036
  709POPC   C1A11631  25.313  25.357   8.576
  709POPC   D2A11632  25.380  25.652   8.209
  709POPC   C3A11633  25.014  25.554   7.912
  709POPC   C4A11634  24.976  25.121   7.757
  709POPC   C1B11635  25.546  24.928   8.800
  709POPC   C2B11636  25.669  24.961   8.400
  709POPC   C3B11637  25.401  25.091   8.056
  709POPC   C4B11638  25.463  25.425   7.746
  710POPC   NC311639   3.520  42.517   9.265
  710POPC   PO411640   3.806  42.042   9.654
  710POPC   GL111641   3.921  42.230   9.176
  710POPC   GL211642   3.612  42.160   8.909
  710POPC   C1A11643   3.972  42.395   8.696
  710POPC   D2A11644   3.721  42.103   8.406
  710POPC   C3A11645   3.675  42.134   7.964
  710POPC   C4A11646   3.806  42.418   7.633
  710POPC   C1B11647   3.434  42.474   8.626
  710POPC   C2B11648   3.586  42.579   8.230
  710POPC   C3B11649   3.386  42.568   7.850
  710POPC   C4B11650   3.378  42.557   7.383
  711POPC   NC311651  25.588  30.715   9.722
  711POPC   PO411652  26.179  31.061   9.497
  711POPC   GL111653  26.201  30.701   9.267
  711POPC   GL211654  25.862  30.660   9.189
  711POPC   C1A11655  26.263  30.584   8.834
  711POPC   D2A11656  26.507  30.638   8.463
  711POPC   C3A11657  26.250  30.662   8.096
  711POPC   C4A11658  26.148  30.738   7.678
  711POPC   C1B11659  25.769  30.793   8.754
  711POPC   C2B11660  25.781  30.735   8.313
  711POPC   C3B11661  25.742  30.993   7.934
  711POPC   C4B11662  25.759  30.947   7.453
  712POPC   NC311663  16.054  20.435   9.463
  712POPC   PO411664  15.785  21.031   9.608
  712POPC   GL111665  16.010  20.905   9.261
  712POPC   GL211666  15.711  20.674   9.171
  712POPC   C1A11667  16.265  20.871   8.866
  712POPC   D2A11668  16.309  20.940   8.421
  712POPC   C3A11669  16.309  20.689   8.032
  712POPC   C4A11670  16.153  20.890   7.690
  712POPC   C1B11671  15.905  20.517   8.787
  712POPC   C2B11672  15.978  20.425   8.329
  712POPC   C3B11673  15.763  20.676   8.000
  712POPC   C4B11674  15.644  20.891   7.610
  713POPC   NC311675  29.253   2.821   9.546
  713POPC   PO411676  28.688   3.070   9.451
  713POPC   GL111677  28.922   2.775   9.148
  713POPC   GL211678  29.265   2.921   9.066
  713POPC   C1A11679  28.950   2.815   8.690
  713POPC   D2A11680  28.893   3.019   8.296
  713POPC   C3A11681  29.090   2.786   7.953
  713POPC   C4A11682  28.949   2.687   7.543
  713POPC   C1B11683  29.391   2.557   8.861
  713POPC   C2B11684  29.424   2.502   8.385
  713POPC   C3B11685  29.608   2.788   8.061
  713POPC   C4B11686  29.563   3.064   7.709
  714POPC   NC311687  14.862   9.075   9.487
  714POPC   PO411688  14.282   8.729   9.558
  714POPC   GL111689  14.348   9.001   9.206
  714POPC   GL211690  14.666   8.931   9.043
  714POPC   C1A11691  14.215   9.035   8.766
  714POPC   D2A11692  14.071   8.838   8.367
  714POPC   C3A11693  14.237   8.958   7.953
  714POPC   C4A11694  14.526   9.293   7.821
  714POPC   C1B11695  14.628   8.761   8.635
  714POPC   C2B11696  14.646   8.684   8.214
  714POPC   C3B11697  14.675   8.748   7.778
  714POPC   C4B11698  14.872   8.687   7.391
  715POPC   NC311699  33.936  31.496   9.531
  715POPC   PO411700  33.262  31.367   9.428
  715POPC   GL111701  33.629  31.555   9.124
  715POPC   GL211702  33.968  31.774   9.113
  715POPC   C1A11703  33.780  31.311   8.740
  715POPC   D2A11704  33.547  31.036   8.422
  715POPC   C3A11705  33.754  31.026   8.021
  715POPC   C4A11706  33.819  31.297   7.678
  715POPC   C1B11707  33.998  31.785   8.684
  715POPC   C2B11708  34.025  31.544   8.287
  715POPC   C3B11709  34.128  31.701   7.862
  715POPC   C4B11710  34.174  31.879   7.428
  716POPC   NC311711  43.850   1.618   9.381
  716POPC   PO411712  43.495   2.173   9.570
  716POPC   GL111713  43.743   2.045   9.135
  716POPC   GL211714  43.665   1.687   8.928
  716POPC   C1A11715  44.078   1.941   8.810
  716POPC   D2A11716  44.165   1.739   8.411
  716POPC   C3A11717  43.894   1.821   8.096
  716POPC   C4A11718  44.004   1.906   7.699
  716POPC   C1B11719  43.538   1.972   8.657
  716POPC   C2B11720  43.418   1.874   8.281
  716POPC   C3B11721  43.475   2.059   7.884
  716POPC   C4B11722  43.575   1.991   7.450
  717POPC   NC311723  26.779  20.968   9.478
  717POPC   PO411724  26.229  20.497   9.567
  717POPC   GL111725  26.551  20.647   9.187
  717POPC   GL211726  26.712  20.476   9.041
  717POPC   C1A11727  26.952  20.908   8.883
  717POPC   D2A11728  27.136  21.087   8.468
  717POPC   C3A11729  26.992  20.903   8.046
  717POPC   C4A11730  26.719  20.899   7.632
  717POPC   C1B11731  26.685  20.582   8.629
  717POPC   C2B11732  26.868  20.459   8.297
  717POPC   C3B11733  26.707  20.484   7.931
  717POPC   C4B11734  27.047  20.506   7.693
  718POPC   NC311735  29.880  27.842   9.482
  718POPC   PO411736  30.127  27.192   9.462
  718POPC   GL111737  30.108  27.490   9.137
  718POPC   GL211738  29.771  27.573   9.080
  718POPC   C1A11739  30.066  27.570   8.687
  718POPC   D2A11740  30.303  27.587   8.310
  718POPC   C3A11741  30.139  27.343   7.974
  718POPC   C4A11742  29.915  27.526   7.612
  718POPC   C1B11743  29.688  27.903   8.747
  718POPC   C2B11744  29.838  27.931   8.321
  718POPC   C3B11745  29.652  27.800   7.930
  718POPC   C4B11746  29.369  27.990   7.664
  719POPC   NC311747  21.823  21.734   9.428
  719POPC   PO411748  21.172  21.615   9.524
  719POPC   GL111749  21.113  21.353   9.141
  719POPC   GL211750  20.936  21.543   8.933
  719POPC   C1A11751  21.218  21.203   8.695
  719POPC   D2A11752  21.506  21.201   8.368
  719POPC   C3A11753  21.444  21.049   7.956
  719POPC   C4A11754  21.199  21.269   7.660
  719POPC   C1B11755  21.408  21.652   8.835
  719POPC   C2B11756  21.617  21.707   8.423
  719POPC   C3B11757  21.492  21.550   7.987
  719POPC   C4B11758  21.586  21.590   7.518
  720POPC   NC311759  41.196  34.903   9.756
  720POPC   PO411760  41.387  34.408   9.344
  720POPC   GL111761  41.628  34.603   9.046
  720POPC   GL211762  41.929  34.408   9.022
  720POPC   C1A11763  41.556  34.853   8.664
  720POPC   D2A11764  41.467  34.945   8.241
  720POPC   C3A11765  41.564  34.758   7.839
  720POPC   C4A11766  41.335  34.484   7.558
  720POPC   C1B11767  41.707  34.344   8.635
  720POPC   C2B11768  41.579  34.439   8.265
  720POPC   C3B11769  41.948  34.507   8.048
  720POPC   C4B11770  41.940  34.368   7.655
  721POPC   NC311771  18.607   3.397   9.406
  721POPC   PO411772  17.908   3.362   9.572
  721POPC   GL111773  18.109   3.289   9.205
  721POPC   GL211774  18.088   3.638   9.133
  721POPC   C1A11775  18.255   3.267   8.788
  721POPC   D2A11776  18.231   3.509   8.405
  721POPC   C3A11777  18.389   3.390   8.020
  721POPC   C4A11778  18.315   3.325   7.604
  721POPC   C1B11779  18.315   3.833   8.813
  721POPC   C2B11780  18.293   4.015   8.393
  721POPC   C3B11781  18.155   3.880   7.985
  721POPC   C4B11782  18.245   3.826   7.517
  722POPC   NC311783  18.655  10.300   9.322
  722POPC   PO411784  19.245  10.042   9.530
  722POPC   GL111785  19.268  10.337   9.204
  722POPC   GL211786  19.016  10.405   8.974
  722POPC   C1A11787  19.514  10.364   8.843
  722POPC   D2A11788  19.583  10.322   8.398
  722POPC   C3A11789  19.242  10.510   8.129
  722POPC   C4A11790  19.029  10.721   7.770
  722POPC   C1B11791  18.778  10.372   8.615
  722POPC   C2B11792  18.732  10.260   8.220
  722POPC   C3B11793  18.605  10.429   7.842
  722POPC   C4B11794  18.673  10.577   7.420
  723POPC   NC311795  37.377  27.860   9.523
  723POPC   PO411796  37.711  27.198   9.772
  723POPC   GL111797  37.698  27.503   9.371
  723POPC   GL211798  37.450  27.492   9.183
  723POPC   C1A11799  37.845  27.606   8.889
  723POPC   D2A11800  37.909  27.560   8.413
  723POPC   C3A11801  37.765  27.726   8.003
  723POPC   C4A11802  37.816  27.497   7.635
  723POPC   C1B11803  37.346  27.376   8.769
  723POPC   C2B11804  37.405  27.563   8.373
  723POPC   C3B11805  37.384  27.375   7.986
  723POPC   C4B11806  37.177  27.414   7.635
  724POPC   NC311807  20.919  30.459   9.588
  724POPC   PO411808  20.387  30.890   9.750
  724POPC   GL111809  20.427  30.838   9.244
  724POPC   GL211810  20.587  30.526   9.193
  724POPC   C1A11811  20.388  30.840   8.770
  724POPC   D2A11812  20.193  30.794   8.345
  724POPC   C3A11813  20.324  30.490   8.038
  724POPC   C4A11814  20.561  30.742   7.776
  724POPC   C1B11815  20.802  30.558   8.801
  724POPC   C2B11816  20.675  30.429   8.421
  724POPC   C3B11817  20.857  30.416   8.039
  724POPC   C4B11818  21.092  30.771   7.858
  725POPC   NC311819  43.464  28.421   9.475
  725POPC   PO411820  44.123  28.429   9.511
  725POPC   GL111821  43.886  28.291   9.169
  725POPC   GL211822  43.697  28.032   9.252
  725POPC   C1A11823  43.990  28.279   8.743
  725POPC   D2A11824  44.056  28.472   8.347
  725POPC   C3A11825  43.990  28.175   8.026
  725POPC   C4A11826  43.943  28.252   7.600
  725POPC   C1B11827  43.494  28.130   8.845
  725POPC   C2B11828  43.571  28.316   8.446
  725POPC   C3B11829  43.452  28.335   8.044
  725POPC   C4B11830  43.548  28.032   7.793
  726POPC   NC311831  10.448   0.181   9.632
  726POPC   PO411832  10.764   0.780   9.524
  726POPC   GL111833  10.586   0.753   9.106
  726POPC   GL211834  10.448   0.441   9.187
  726POPC   C1A11835  10.619   0.770   8.650
  726POPC   D2A11836  10.711   0.543   8.266
  726POPC   C3A11837  10.583   0.754   7.888
  726POPC   C4A11838  10.704   0.706   7.424
  726POPC   C1B11839  10.655   0.279   8.813
  726POPC   C2B11840  10.529   0.079   8.423
  726POPC   C3B11841  10.358   0.211   8.065
  726POPC   C4B11842  10.527   0.296   7.694
  727POPC   NC311843  19.407  17.536   9.381
  727POPC   PO411844  18.758  17.582   9.569
  727POPC   GL111845  18.893  17.741   9.204
  727POPC   GL211846  18.965  17.418   9.108
  727POPC   C1A11847  18.843  17.769   8.767
  727POPC   D2A11848  19.078  17.761   8.396
  727POPC   C3A11849  18.890  17.661   8.037
  727POPC   C4A11850  19.128  17.705   7.655
  727POPC   C1B11851  19.128  17.314   8.702
  727POPC   C2B11852  19.122  17.243   8.251
  727POPC   C3B11853  18.969  17.224   7.799
  727POPC   C4B11854  18.997  17.214   7.343
  728POPC   NC311855  40.991  19.642   9.495
  728POPC   PO411856  40.608  20.182   9.646
  728POPC   GL111857  40.642  19.942   9.251
  728POPC   GL211858  40.890  20.117   9.154
  728POPC   C1A11859  40.819  19.650   8.873
  728POPC   D2A11860  40.730  19.514   8.443
  728POPC   C3A11861  40.655  19.802   8.129
  728POPC   C4A11862  40.732  19.635   7.752
  728POPC   C1B11863  40.700  20.116   8.751
  728POPC   C2B11864  40.988  20.106   8.403
  728POPC   C3B11865  40.995  20.207   7.977
  728POPC   C4B11866  40.776  20.101   7.609
  729POPC   NC311867  44.285  29.664   9.389
  729POPC   PO411868  43.643  29.744   9.333
  729POPC   GL111869  43.926  29.930   9.059
  729POPC   GL211870  44.164  30.153   9.242
  729POPC   C1A11871  43.793  30.036   8.643
  729POPC   D2A11872  43.829  30.170   8.236
  729POPC   C3A11873  43.889  29.840   7.952
  729POPC   C4A11874  43.677  29.579   7.680
  729POPC   C1B11875  44.172  30.322   8.821
  729POPC   C2B11876  44.316  30.216   8.413
  729POPC   C3B11877  44.248  30.371   8.005
  729POPC   C4B11878  44.255  30.084   7.678
  730POPC   NC311879  31.459  42.664   9.366
  730POPC   PO411880  31.173  41.963   9.401
  730POPC   GL111881  31.164  42.338   9.116
  730POPC   GL211882  31.511  42.354   8.973
  730POPC   C1A11883  31.134  42.506   8.682
  730POPC   D2A11884  31.487  42.368   8.450
  730POPC   C3A11885  31.385  42.268   8.070
  730POPC   C4A11886  31.391  42.578   7.789
  730POPC   C1B11887  31.764  42.054   8.753
  730POPC   C2B11888  31.942  42.108   8.296
  730POPC   C3B11889  31.826  42.141   7.811
  730POPC   C4B11890  31.860  41.993   7.325
  731POPC   NC311891  38.336  36.502   9.343
  731POPC   PO411892  38.065  37.010   9.565
  731POPC   GL111893  38.448  36.997   9.219
  731POPC   GL211894  38.743  36.724   9.151
  731POPC   C1A11895  38.417  36.912   8.766
  731POPC   D2A11896  38.266  36.738   8.360
  731POPC   C3A11897  38.467  36.900   7.999
  731POPC   C4A11898  38.400  36.982   7.580
  731POPC   C1B11899  38.634  36.443   8.761
  731POPC   C2B11900  38.792  36.298   8.334
  731POPC   C3B11901  38.646  36.441   7.949
  731POPC   C4B11902  38.706  36.562   7.533
  732POPC   NC311903  22.420  19.206   9.677
  732POPC   PO411904  21.966  18.750   9.549
  732POPC   GL111905  22.289  18.805   9.239
  732POPC   GL211906  22.243  19.155   9.202
  732POPC   C1A11907  22.171  18.676   8.817
  732POPC   D2A11908  22.179  18.897   8.423
  732POPC   C3A11909  22.308  18.774   8.020
  732POPC   C4A11910  22.011  18.794   7.675
  732POPC   C1B11911  22.440  19.111   8.816
  732POPC   C2B11912  22.566  19.221   8.409
  732POPC   C3B11913  22.279  19.291   8.063
  732POPC   C4B11914  22.401  19.272   7.662
  733POPC   NC311915   4.731   9.237   9.508
  733POPC   PO411916   5.303   9.333   9.815
  733POPC   GL111917   5.314   9.272   9.280
  733POPC   GL211918   5.003   9.154   9.107
  733POPC   C1A11919   5.379   9.079   8.806
  733POPC   D2A11920   5.204   9.193   8.377
  733POPC   C3A11921   5.467   9.117   8.020
  733POPC   C4A11922   5.776   9.285   7.722
  733POPC   C1B11923   4.854   8.997   8.727
  733POPC   C2B11924   4.837   8.819   8.302
  733POPC   C3B11925   4.923   8.888   7.845
  733POPC   C4B11926   4.862   8.620   7.460
  734POPC   NC311927  12.719  44.241   9.473
  734POPC   PO411928  12.997  43.622   9.299
  734POPC   GL111929  12.993  44.014   9.095
  734POPC   GL211930  12.626  44.070   9.003
  734POPC   C1A11931  13.265  44.089   8.755
  734POPC   D2A11932  13.237  43.885   8.361
  734POPC   C3A11933  12.839  43.773   8.217
  734POPC   C4A11934  12.949  43.667   7.837
  734POPC   C1B11935  12.780  44.158   8.603
  734POPC   C2B11936  13.046  44.356   8.313
  734POPC   C3B11937  13.009  44.182   7.915
  734POPC   C4B11938  12.624  44.089   7.759
  735POPC   NC311939   5.938  14.713   9.236
  735POPC   PO411940   5.684  14.195   9.603
  735POPC   GL111941   5.803  14.107   9.182
  735POPC   GL211942   6.106  14.242   9.158
  735POPC   C1A11943   5.738  14.271   8.748
  735POPC   D2A11944   5.840  14.655   8.470
  735POPC   C3A11945   5.780  14.568   8.029
  735POPC   C4A11946   5.631  14.143   7.856
  735POPC   C1B11947   6.232  14.429   8.771
  735POPC   C2B11948   6.173  14.241   8.429
  735POPC   C3B11949   6.118  14.176   8.052
  735POPC   C4B11950   6.172  14.426   7.696
  736POPC   NC311951  25.134   1.002   9.520
  736POPC   PO411952  25.312   1.591   9.316
  736POPC   GL111953  25.419   1.243   9.095
  736POPC   GL211954  25.071   1.188   9.069
  736POPC   C1A11955  25.336   1.168   8.664
  736POPC   D2A11956  25.055   1.299   8.351
  736POPC   C3A11957  25.205   1.129   7.944
  736POPC   C4A11958  25.411   1.283   7.555
  736POPC   C1B11959  24.810   1.016   8.806
  736POPC   C2B11960  24.753   0.855   8.433
  736POPC   C3B11961  24.706   1.052   8.062
  736POPC   C4B11962  24.794   0.902   7.680
  737POPC   NC311963  17.450  41.832   9.435
  737POPC   PO411964  17.466  42.479   9.665
  737POPC   GL111965  17.393  42.338   9.261
  737POPC   GL211966  17.567  42.616   9.119
  737POPC   C1A11967  17.330  42.269   8.815
  737POPC   D2A11968  17.456  42.470   8.432
  737POPC   C3A11969  17.247  42.387   8.063
  737POPC   C4A11970  17.364  42.485   7.665
  737POPC   C1B11971  17.839  42.627   8.754
  737POPC   C2B11972  17.962  42.412   8.355
  737POPC   C3B11973  17.766  42.353   7.987
  737POPC   C4B11974  17.859  42.512   7.574
  738POPC   NC311975  28.672  31.846   9.817
  738POPC   PO411976  28.976  32.348   9.448
  738POPC   GL111977  29.068  32.423   9.053
  738POPC   GL211978  29.111  32.067   8.957
  738POPC   C1A11979  29.258  32.425   8.648
  738POPC   D2A11980  29.120  32.180   8.325
  738POPC   C3A11981  29.257  32.335   7.959
  738POPC   C4A11982  29.254  31.991   7.728
  738POPC   C1B11983  28.757  32.132   8.698
  738POPC   C2B11984  28.567  32.134   8.316
  738POPC   C3B11985  28.765  32.148   7.903
  738POPC   C4B11986  28.834  32.083   7.447
  739POPC   NC311987   9.833   5.627   9.471
  739POPC   PO411988   9.565   6.164   9.703
  739POPC   GL111989   9.789   6.080   9.213
  739POPC   GL211990  10.131   6.090   9.062
  739POPC   C1A11991   9.729   5.942   8.751
  739POPC   D2A11992   9.907   6.094   8.339
  739POPC   C3A11993   9.586   6.095   8.012
  739POPC   C4A11994   9.445   5.806   7.681
  739POPC   C1B11995  10.214   5.801   8.694
  739POPC   C2B11996   9.889   5.591   8.399
  739POPC   C3B11997   9.846   5.671   7.995
  739POPC   C4B11998   9.965   5.963   7.703
  740POPC   NC311999   4.055  31.918   9.764
  740POPC   PO412000   4.298  32.440   9.377
  740POPC   GL112001   4.330  32.045   9.192
  740POPC   GL212002   4.698  31.986   9.173
  740POPC   C1A12003   4.377  31.980   8.753
  740POPC   D2A12004   4.209  32.197   8.406
  740POPC   C3A12005   4.250  32.513   8.107
  740POPC   C4A12006   4.038  32.499   7.715
  740POPC   C1B12007   4.888  31.878   8.748
  740POPC   C2B12008   4.657  31.789   8.352
  740POPC   C3B12009   4.543  32.072   8.008
  740POPC   C4B12010   4.619  32.108   7.565
  741POPC   NC312011   1.508  44.849   9.444
  741POPC   PO412012   2.182  44.795   9.568
  741POPC   GL112013   1.976  44.563   9.217
  741POPC   GL212014   1.624  44.468   9.119
  741POPC   C1A12015   2.157  44.449   8.813
  741POPC   D2A12016   2.269  44.729   8.480
  741POPC   C3A12017   2.292  44.519   8.115
  741POPC   C4A12018   2.153  44.529   7.713
  741POPC   C1B12019   1.764  44.791   8.796
  741POPC   C2B12020   1.820  44.987   8.364
  741POPC   C3B12021   1.777  44.766   7.953
  741POPC   C4B12022   1.705  44.685   7.500
  742POPC   NC312023  38.844  16.136   9.533
  742POPC   PO412024  39.491  15.909   9.599
  742POPC   GL112025  39.190  15.860   9.272
  742POPC   GL212026  39.231  16.195   9.162
  742POPC   C1A12027  39.220  15.767   8.836
  742POPC   D2A12028  39.317  15.573   8.449
  742POPC   C3A12029  39.142  15.791   8.119
  742POPC   C4A12030  39.033  15.683   7.704
  742POPC   C1B12031  39.445  16.248   8.786
  742POPC   C2B12032  39.511  16.318   8.351
  742POPC   C3B12033  39.482  16.224   7.934
  742POPC   C4B12034  39.093  16.196   7.815
  743POPC   NC312035  41.725  36.297   9.413
  743POPC   PO412036  41.092  36.053   9.430
  743POPC   GL112037  41.296  36.231   9.087
  743POPC   GL212038  41.545  35.978   9.028
  743POPC   C1A12039  41.340  36.174   8.631
  743POPC   D2A12040  41.279  35.939   8.286
  743POPC   C3A12041  41.412  36.173   7.944
  743POPC   C4A12042  41.283  36.609   7.839
  743POPC   C1B12043  41.676  35.781   8.646
  743POPC   C2B12044  41.793  35.874   8.219
  743POPC   C3B12045  41.670  35.665   7.838
  743POPC   C4B12046  41.855  35.646   7.415
  744POPC   NC312047  20.818  18.677   9.500
  744POPC   PO412048  20.455  19.376   9.473
  744POPC   GL112049  20.592  19.283   9.033
  744POPC   GL212050  20.714  18.925   9.055
  744POPC   C1A12051  20.396  18.979   8.668
  744POPC   D2A12052  20.154  18.860   8.309
  744POPC   C3A12053  20.389  18.936   7.983
  744POPC   C4A12054  20.249  19.202   7.740
  744POPC   C1B12055  20.892  19.046   8.693
  744POPC   C2B12056  20.799  18.969   8.282
  744POPC   C3B12057  20.850  19.214   7.924
  744POPC   C4B12058  21.028  19.507   7.623
  745POPC   NC312059  44.400  41.713   9.645
  745POPC   PO412060  44.920  41.356   9.673
  745POPC   GL112061  44.773  41.538   9.262
  745POPC   GL212062  44.820  41.862   9.094
  745POPC   C1A12063  44.644  41.416   8.826
  745POPC   D2A12064  44.782  41.320   8.380
  745POPC   C3A12065  44.629  41.488   7.957
  745POPC   C4A12066  44.261  41.711   7.790
  745POPC   C1B12067  44.884  41.813   8.623
  745POPC   C2B12068  44.851  42.060   8.248
  745POPC   C3B12069  44.715  41.974   7.813
  745POPC   C4B12070  44.789  41.691   7.448
  746POPC   NC312071  20.820  43.224   9.543
  746POPC   PO412072  20.283  43.515   9.381
  746POPC   GL112073  20.507  43.250   9.088
  746POPC   GL212074  20.623  42.910   9.169
  746POPC   C1A12075  20.620  43.161   8.666
  746POPC   D2A12076  20.677  43.414   8.321
  746POPC   C3A12077  20.740  43.361   7.877
  746POPC   C4A12078  20.520  43.363   7.501
  746POPC   C1B12079  20.800  42.722   8.809
  746POPC   C2B12080  20.647  42.686   8.436
  746POPC   C3B12081  20.570  42.942   8.127
  746POPC   C4B12082  20.689  42.883   7.730
  747POPC   NC312083  38.952  26.749   9.637
  747POPC   PO412084  39.336  27.318   9.683
  747POPC   GL112085  39.363  26.965   9.323
  747POPC   GL212086  39.080  26.839   9.118
  747POPC   C1A12087  39.454  27.064   8.854
  747POPC   D2A12088  39.383  27.176   8.428
  747POPC   C3A12089  39.497  26.800   8.189
  747POPC   C4A12090  39.510  26.657   7.751
  747POPC   C1B12091  39.064  26.788   8.636
  747POPC   C2B12092  38.992  26.873   8.217
  747POPC   C3B12093  38.973  26.777   7.794
  747POPC   C4B12094  38.840  26.579   7.428
  748POPC   NC312095   1.216  10.134   9.533
  748POPC   PO412096   1.182  10.728   9.521
  748POPC   GL112097   1.099  10.478   9.163
  748POPC   GL212098   0.848  10.224   9.194
  748POPC   C1A12099   1.233  10.565   8.759
  748POPC   D2A12100   1.413  10.533   8.371
  748POPC   C3A12101   1.370  10.699   7.971
  748POPC   C4A12102   1.460  10.439   7.623
  748POPC   C1B12103   1.005  10.103   8.809
  748POPC   C2B12104   0.965  10.265   8.412
  748POPC   C3B12105   1.148  10.226   8.029
  748POPC   C4B12106   1.046  10.146   7.644
  749POPC   NC312107  17.176  10.841   9.275
  749POPC   PO412108  17.540  10.535   9.801
  749POPC   GL112109  17.628  10.362   9.309
  749POPC   GL212110  17.384  10.449   9.016
  749POPC   C1A12111  17.801  10.234   8.879
  749POPC   D2A12112  17.616  10.410   8.533
  749POPC   C3A12113  17.786  10.546   8.152
  749POPC   C4A12114  17.542  10.387   7.832
  749POPC   C1B12115  17.211  10.688   8.666
  749POPC   C2B12116  17.512  10.888   8.426
  749POPC   C3B12117  17.449  11.034   8.058
  749POPC   C4B12118  17.250  10.848   7.747
  750POPC   NC312119   5.454  14.613   9.706
  750POPC   PO412120   4.860  14.615   9.522
  750POPC   GL112121   5.067  14.440   9.105
  750POPC   GL212122   5.440  14.476   9.172
  750POPC   C1A12123   4.988  14.379   8.612
  750POPC   D2A12124   4.724  14.304   8.202
  750POPC   C3A12125   4.909  14.456   7.805
  750POPC   C4A12126   5.262  14.348   7.493
  750POPC   C1B12127   5.398  14.696   8.750
  750POPC   C2B12128   5.301  14.724   8.283
  750POPC   C3B12129   5.339  14.739   7.808
  750POPC   C4B12130   5.371  14.843   7.323
  751POPC   NC312131  20.521  28.851   9.531
  751POPC   PO412132  20.546  29.431   9.225
  751POPC   GL112133  20.491  29.061   9.049
  751POPC   GL212134  20.801  28.967   9.103
  751POPC   C1A12135  20.544  29.140   8.638
  751POPC   D2A12136  20.590  28.987   8.266
  751POPC   C3A12137  20.462  29.259   7.904
  751POPC   C4A12138  20.457  28.999   7.548
  751POPC   C1B12139  21.022  29.022   8.745
  751POPC   C2B12140  21.078  29.088   8.331
  751POPC   C3B12141  20.948  29.123   7.923
  751POPC   C4B12142  21.067  28.920   7.583
  752POPC   NC312143  30.479   1.645   9.478
  752POPC   PO412144  30.955   2.190   9.492
  752POPC   GL112145  30.624   2.132   9.226
  752POPC   GL212146  30.787   1.843   9.045
  752POPC   C1A12147  30.344   2.044   8.867
  752POPC   D2A12148  30.586   2.017   8.475
  752POPC   C3A12149  30.466   2.175   8.051
  752POPC   C4A12150  30.377   1.971   7.660
  752POPC   C1B12151  31.042   1.526   8.784
  752POPC   C2B12152  31.194   1.636   8.366
  752POPC   C3B12153  30.982   1.976   8.148
  752POPC   C4B12154  30.863   2.011   7.740
  753POPC   NC312155  35.199  28.860   9.358
  753POPC   PO412156  35.677  29.200   9.587
  753POPC   GL112157  35.304  29.374   9.301
  753POPC   GL212158  35.403  29.647   9.123
  753POPC   C1A12159  35.072  29.300   8.872
  753POPC   D2A12160  35.208  29.015   8.541
  753POPC   C3A12161  35.161  29.119   8.093
  753POPC   C4A12162  34.970  29.062   7.706
  753POPC   C1B12163  35.526  29.423   8.759
  753POPC   C2B12164  35.377  29.489   8.371
  753POPC   C3B12165  35.584  29.409   7.987
  753POPC   C4B12166  35.366  29.383   7.615
  754POPC   NC312167  41.824  20.055   9.862
  754POPC   PO412168  41.527  19.461   9.559
  754POPC   GL112169  41.556  19.751   9.242
  754POPC   GL212170  41.378  20.059   9.301
  754POPC   C1A12171  41.683  19.626   8.851
  754POPC   D2A12172  41.911  19.498   8.478
  754POPC   C3A12173  41.647  19.531   8.175
  754POPC   C4A12174  41.483  19.427   7.831
  754POPC   C1B12175  41.273  19.987   8.842
  754POPC   C2B12176  41.238  19.646   8.518
  754POPC   C3B12177  41.107  19.603   8.094
  754POPC   C4B12178  41.192  19.803   7.676
  755POPC   NC312179  23.778  30.209   9.475
  755POPC   PO412180  23.673  29.568   9.497
  755POPC   GL112181  23.639  29.816   9.153
  755POPC   GL212182  24.003  29.766   9.138
  755POPC   C1A12183  23.585  30.168   8.839
  755POPC   D2A12184  23.445  30.226   8.430
  755POPC   C3A12185  23.669  30.229   8.068
  755POPC   C4A12186  23.479  30.119   7.682
  755POPC   C1B12187  23.877  29.715   8.721
  755POPC   C2B12188  23.970  29.657   8.306
  755POPC   C3B12189  23.756  29.756   7.932
  755POPC   C4B12190  23.732  29.535   7.529
  756POPC   NC312191  10.694  37.436   9.575
  756POPC   PO412192  10.015  37.487   9.516
  756POPC   GL112193  10.325  37.522   9.196
  756POPC   GL212194  10.548  37.802   9.206
  756POPC   C1A12195  10.521  37.456   8.798
  756POPC   D2A12196  10.825  37.558   8.478
  756POPC   C3A12197  10.581  37.470   8.095
  756POPC   C4A12198  10.699  37.487   7.694
  756POPC   C1B12199  10.662  37.964   8.790
  756POPC   C2B12200  10.490  37.894   8.370
  756POPC   C3B12201  10.644  37.954   7.947
  756POPC   C4B12202  10.334  37.874   7.660
  757POPC   NC312203  18.956  22.859   9.395
  757POPC   PO412204  19.649  22.818   9.403
  757POPC   GL112205  19.328  22.828   9.052
  757POPC   GL212206  19.211  22.490   8.997
  757POPC   C1A12207  18.929  22.836   8.743
  757POPC   D2A12208  18.681  22.768   8.377
  757POPC   C3A12209  18.857  22.798   7.992
  757POPC   C4A12210  18.653  22.816   7.637
  757POPC   C1B12211  19.413  22.664   8.592
  757POPC   C2B12212  19.335  22.874   8.185
  757POPC   C3B12213  19.315  22.642   7.775
  757POPC   C4B12214  19.483  22.732   7.374
  758POPC   NC312215  38.283   7.074   9.575
  758POPC   PO412216  38.532   7.747   9.457
  758POPC   GL112217  38.576   7.402   9.208
  758POPC   GL212218  38.198   7.395   9.182
  758POPC   C1A12219  38.794   7.448   8.810
  758POPC   D2A12220  38.923   7.600   8.399
  758POPC   C3A12221  38.721   7.517   8.016
  758POPC   C4A12222  38.638   7.215   7.739
  758POPC   C1B12223  38.314   7.252   8.791
  758POPC   C2B12224  38.466   7.315   8.405
  758POPC   C3B12225  38.212   7.298   8.031
  758POPC   C4B12226  38.097   7.113   7.604
  759POPC   NC312227   2.338  44.304   9.478
  759POPC   PO412228   2.755  43.709   9.584
  759POPC   GL112229   2.685  44.001   9.202
  759POPC   GL212230   2.386  43.868   9.162
  759POPC   C1A12231   2.858  43.987   8.743
  759POPC   D2A12232   2.653  43.967   8.299
  759POPC   C3A12233   2.807  43.957   7.872
  759POPC   C4A12234   2.861  44.060   7.465
  759POPC   C1B12235   2.338  43.876   8.716
  759POPC   C2B12236   2.139  44.071   8.349
  759POPC   C3B12237   2.294  44.035   7.921
  759POPC   C4B12238   2.458  43.595   7.931
  760POPC   NC312239  17.786   3.804   9.526
  760POPC   PO412240  17.251   3.327   9.356
  760POPC   GL112241  17.609   3.412   9.118
  760POPC   GL212242  17.567   3.748   9.059
  760POPC   C1A12243  17.808   3.484   8.698
  760POPC   D2A12244  17.767   3.705   8.283
  760POPC   C3A12245  17.864   3.495   7.886
  760POPC   C4A12246  17.836   3.529   7.446
  760POPC   C1B12247  17.340   3.688   8.652
  760POPC   C2B12248  17.269   3.644   8.196
  760POPC   C3B12249  17.391   3.646   7.759
  760POPC   C4B12250  17.362   3.338   7.414
  761POPC   NC312251  36.370  43.430   9.608
  761POPC   PO412252  36.592  43.998   9.458
  761POPC   GL112253  36.239  43.915   9.182
  761POPC   GL212254  35.969  44.186   9.155
  761POPC   C1A12255  36.131  43.641   8.828
  761POPC   D2A12256  36.291  43.486   8.431
  761POPC   C3A12257  36.126  43.761   8.118
  761POPC   C4A12258  36.127  43.818   7.693
  761POPC   C1B12259  36.140  44.151   8.719
  761POPC   C2B12260  35.967  44.291   8.331
  761POPC   C3B12261  35.993  44.249   7.890
  761POPC   C4B12262  36.172  44.275   7.444
  762POPC   NC312263   1.307  12.018   9.907
  762POPC   PO412264   1.302  12.559   9.626
  762POPC   GL112265   1.349  12.248   9.266
  762POPC   GL212266   1.046  12.076   9.095
  762POPC   C1A12267   1.393  12.318   8.812
  762POPC   D2A12268   1.410  12.012   8.488
  762POPC   C3A12269   1.448  12.080   8.066
  762POPC   C4A12270   1.196  12.192   7.740
  762POPC   C1B12271   0.930  12.154   8.642
  762POPC   C2B12272   0.927  12.091   8.189
  762POPC   C3B12273   0.701  12.174   7.792
  762POPC   C4B12274   0.780  12.078   7.347
  763POPC   NC312275  24.760   9.857   9.574
  763POPC   PO412276  24.052   9.771   9.507
  763POPC   GL112277  24.350   9.602   9.178
  763POPC   GL212278  24.643   9.824   9.096
  763POPC   C1A12279  24.413   9.613   8.715
  763POPC   D2A12280  24.625   9.487   8.376
  763POPC   C3A12281  24.398   9.663   8.048
  763POPC   C4A12282  24.542   9.521   7.646
  763POPC   C1B12283  24.853   9.951   8.737
  763POPC   C2B12284  24.728   9.987   8.331
  763POPC   C3B12285  24.883   9.755   7.989
  763POPC   C4B12286  24.828   9.943   7.619
  764POPC   NC312287  40.937   8.588   9.298
  764POPC   PO412288  40.661   9.216   9.396
  764POPC   GL112289  40.823   9.063   9.084
  764POPC   GL212290  41.163   9.050   9.148
  764POPC   C1A12291  40.673   8.928   8.722
  764POPC   D2A12292  40.845   8.775   8.363
  764POPC   C3A12293  40.649   8.903   8.020
  764POPC   C4A12294  40.503   8.854   7.625
  764POPC   C1B12295  41.129   9.263   8.733
  764POPC   C2B12296  41.176   9.249   8.302
  764POPC   C3B12297  41.054   9.181   7.898
  764POPC   C4B12298  41.009   8.842   7.626
  765POPC   NC312299  36.001   9.166   9.409
  765POPC   PO412300  36.575   8.976   9.650
  765POPC   GL112301  36.418   8.955   9.102
  765POPC   GL212302  36.078   8.994   8.945
  765POPC   C1A12303  36.409   8.772   8.650
  765POPC   D2A12304  36.150   8.778   8.315
  765POPC   C3A12305  36.435   9.007   8.094
  765POPC   C4A12306  36.451   9.026   7.662
  765POPC   C1B12307  35.745   8.991   8.654
  765POPC   C2B12308  35.724   9.052   8.224
  765POPC   C3B12309  35.759   8.745   7.894
  765POPC   C4B12310  36.044   8.696   7.548
  766POPC   NC312311   5.395  13.892   9.412
  766POPC   PO412312   4.876  13.618   9.441
  766POPC   GL112313   5.172  13.574   9.059
  766POPC   GL212314   5.537  13.693   8.978
  766POPC   C1A12315   5.210  13.460   8.629
  766POPC   D2A12316   4.975  13.318   8.277
  766POPC   C3A12317   5.043  13.493   7.865
  766POPC   C4A12318   4.753  13.739   7.625
  766POPC   C1B12319   5.295  13.971   8.722
  766POPC   C2B12320   5.081  13.904   8.310
  766POPC   C3B12321   5.134  13.995   7.860
  766POPC   C4B12322   5.206  13.814   7.438
  767POPC   NC312323   3.359  37.515   9.391
  767POPC   PO412324   3.836  37.979   9.249
  767POPC   GL112325   3.598  37.705   8.981
  767POPC   GL212326   3.719  37.351   9.027
  767POPC   C1A12327   3.460  37.788   8.561
  767POPC   D2A12328   3.691  37.927   8.221
  767POPC   C3A12329   3.494  37.877   7.847
  767POPC   C4A12330   3.200  38.183   7.682
  767POPC   C1B12331   3.541  37.278   8.639
  767POPC   C2B12332   3.609  37.406   8.196
  767POPC   C3B12333   3.682  37.401   7.745
  767POPC   C4B12334   3.575  37.400   7.273
  768POPC   NC312335  23.257   3.651   9.433
  768POPC   PO412336  22.654   4.076   9.399
  768POPC   GL112337  22.919   3.881   9.125
  768POPC   GL212338  22.749   3.561   9.209
  768POPC   C1A12339  22.972   3.690   8.713
  768POPC   D2A12340  22.666   3.510   8.400
  768POPC   C3A12341  22.793   3.507   7.977
  768POPC   C4A12342  22.676   3.498   7.538
  768POPC   C1B12343  22.685   3.287   8.865
  768POPC   C2B12344  23.012   3.165   8.593
  768POPC   C3B12345  23.034   3.095   8.153
  768POPC   C4B12346  23.131   3.250   7.696
  769POPC   NC312347   7.681  38.698   9.556
  769POPC   PO412348   7.047  38.801   9.379
  769POPC   GL112349   7.394  38.638   9.115
  769POPC   GL212350   7.158  38.717   8.862
  769POPC   C1A12351   7.536  38.381   8.745
  769POPC   D2A12352   7.737  38.214   8.375
  769POPC   C3A12353   7.649  38.356   7.961
  769POPC   C4A12354   7.591  38.180   7.547
  769POPC   C1B12355   7.569  38.889   8.713
  769POPC   C2B12356   7.674  38.731   8.317
  769POPC   C3B12357   7.773  38.856   7.917
  769POPC   C4B12358   7.632  38.726   7.537
  770POPC   NC312359  36.916  12.415   9.475
  770POPC   PO412360  37.112  11.682   9.477
  770POPC   GL112361  36.934  11.928   9.112
  770POPC   GL212362  36.768  12.277   9.032
  770POPC   C1A12363  36.749  11.919   8.697
  770POPC   D2A12364  36.923  12.211   8.395
  770POPC   C3A12365  36.837  12.058   8.018
  770POPC   C4A12366  36.778  11.783   7.660
  770POPC   C1B12367  36.708  12.578   8.701
  770POPC   C2B12368  36.575  12.583   8.269
  770POPC   C3B12369  36.793  12.569   7.898
  770POPC   C4B12370  36.930  12.280   7.560
  771POPC   NC312371  16.456  25.803   9.553
  771POPC   PO412372  16.035  26.350   9.684
  771POPC   GL112373  16.024  26.149   9.243
  771POPC   GL212374  16.198  25.851   9.125
  771POPC   C1A12375  16.090  26.179   8.763
  771POPC   D2A12376  16.331  25.973   8.406
  771POPC   C3A12377  16.182  26.119   7.998
  771POPC   C4A12378  15.771  26.023   7.807
  771POPC   C1B12379  16.407  25.599   8.802
  771POPC   C2B12380  16.252  25.442   8.396
  771POPC   C3B12381  16.072  25.634   8.023
  771POPC   C4B12382  16.158  25.803   7.576
  772POPC   NC312383  35.262   3.144   9.631
  772POPC   PO412384  35.621   2.510   9.728
  772POPC   GL112385  35.484   2.588   9.301
  772POPC   GL212386  35.542   2.929   9.257
  772POPC   C1A12387  35.190   2.703   8.935
  772POPC   D2A12388  35.057   2.640   8.490
  772POPC   C3A12389  35.166   2.876   8.124
  772POPC   C4A12390  35.285   2.640   7.754
  772POPC   C1B12391  35.700   2.727   8.856
  772POPC   C2B12392  35.597   2.751   8.412
  772POPC   C3B12393  35.759   2.711   7.965
  772POPC   C4B12394  35.711   2.900   7.542
  773POPC   NC312395  35.099  23.153   9.500
  773POPC   PO412396  35.680  22.888   9.346
  773POPC   GL112397  35.507  23.198   9.150
  773POPC   GL212398  35.257  22.999   9.046
  773POPC   C1A12399  35.543  23.263   8.732
  773POPC   D2A12400  35.660  23.044   8.387
  773POPC   C3A12401  35.416  23.186   8.063
  773POPC   C4A12402  35.493  23.049   7.681
  773POPC   C1B12403  35.311  22.754   8.685
  773POPC   C2B12404  35.159  22.647   8.295
  773POPC   C3B12405  35.172  22.726   7.902
  773POPC   C4B12406  34.997  23.096   7.727
  774POPC   NC312407  23.272   1.758   9.502
  774POPC   PO412408  22.589   1.791   9.450
  774POPC   GL112409  22.859   1.835   9.122
  774POPC   GL212410  23.026   2.103   9.193
  774POPC   C1A12411  22.977   2.017   8.701
  774POPC   D2A12412  23.077   1.986   8.285
  774POPC   C3A12413  22.815   2.113   7.986
  774POPC   C4A12414  22.923   2.016   7.572
  774POPC   C1B12415  23.275   2.375   8.918
  774POPC   C2B12416  23.396   2.307   8.510
  774POPC   C3B12417  23.403   2.271   8.022
  774POPC   C4B12418  23.384   2.282   7.586
  775POPC   NC312419  11.766  31.091   9.419
  775POPC   PO412420  11.107  31.041   9.484
  775POPC   GL112421  11.102  30.875   9.106
  775POPC   GL212422  11.482  30.768   9.035
  775POPC   C1A12423  11.156  30.997   8.715
  775POPC   D2A12424  11.457  30.780   8.488
  775POPC   C3A12425  11.319  30.768   8.090
  775POPC   C4A12426  10.929  30.974   7.985
  775POPC   C1B12427  11.191  30.460   8.788
  775POPC   C2B12428  11.183  30.291   8.367
  775POPC   C3B12429  11.238  30.253   7.956
  775POPC   C4B12430  11.593  30.445   7.764
  776POPC   NC312431   8.685   8.631   9.509
  776POPC   PO412432   8.867   9.227   9.774
  776POPC   GL112433   8.842   9.103   9.296
  776POPC   GL212434   8.566   8.970   9.097
  776POPC   C1A12435   9.063   8.928   8.913
  776POPC   D2A12436   9.175   9.072   8.504
  776POPC   C3A12437   9.132   8.829   8.133
  776POPC   C4A12438   9.323   8.884   7.769
  776POPC   C1B12439   8.637   8.961   8.624
  776POPC   C2B12440   8.648   8.966   8.165
  776POPC   C3B12441   8.821   8.944   7.723
  776POPC   C4B12442   8.718   8.873   7.274
  777POPC   NC312443  17.714  15.677   9.408
  777POPC   PO412444  17.631  16.318   9.465
  777POPC   GL112445  17.479  16.077   9.142
  777POPC   GL212446  17.259  15.805   9.057
  777POPC   C1A12447  17.356  16.192   8.743
  777POPC   D2A12448  17.526  16.076   8.373
  777POPC   C3A12449  17.280  16.000   8.043
  777POPC   C4A12450  17.489  15.821   7.694
  777POPC   C1B12451  17.530  15.697   8.725
  777POPC   C2B12452  17.413  15.553   8.287
  777POPC   C3B12453  17.141  15.524   7.872
  777POPC   C4B12454  17.208  15.537   7.383
  778POPC   NC312455   4.658   4.711   9.450
  778POPC   PO412456   4.129   4.297   9.522
  778POPC   GL112457   4.172   4.288   9.113
  778POPC   GL212458   4.509   4.318   9.130
  778POPC   C1A12459   4.248   3.955   8.826
  778POPC   D2A12460   4.395   4.016   8.430
  778POPC   C3A12461   4.245   4.013   8.034
  778POPC   C4A12462   4.266   4.329   7.739
  778POPC   C1B12463   4.497   4.442   8.719
  778POPC   C2B12464   4.781   4.357   8.394
  778POPC   C3B12465   4.752   4.207   8.014
  778POPC   C4B12466   4.741   4.492   7.697
  779POPC   NC312467  32.745  19.762   9.334
  779POPC   PO412468  33.241  20.175   9.590
  779POPC   GL112469  33.212  20.258   9.154
  779POPC   GL212470  32.850  20.242   9.093
  779POPC   C1A12471  33.151  20.083   8.706
  779POPC   D2A12472  33.126  19.692   8.432
  779POPC   C3A12473  32.984  19.791   8.015
  779POPC   C4A12474  33.036  20.228   7.939
  779POPC   C1B12475  32.577  20.067   8.773
  779POPC   C2B12476  32.621  19.890   8.396
  779POPC   C3B12477  32.517  20.063   8.020
  779POPC   C4B12478  32.678  20.068   7.615
  780POPC   NC312479  12.536  27.914   9.490
  780POPC   PO412480  12.886  27.288   9.383
  780POPC   GL112481  12.752  27.606   9.121
  780POPC   GL212482  12.427  27.579   9.103
  780POPC   C1A12483  12.795  27.465   8.708
  780POPC   D2A12484  13.136  27.457   8.435
  780POPC   C3A12485  12.994  27.484   8.049
  780POPC   C4A12486  13.198  27.653   7.665
  780POPC   C1B12487  12.455  27.829   8.728
  780POPC   C2B12488  12.265  27.966   8.309
  780POPC   C3B12489  12.510  27.948   7.938
  780POPC   C4B12490  12.676  27.655   7.696
  781POPC   NC312491   6.568  40.647   9.341
  781POPC   PO412492   6.498  41.260   9.672
  781POPC   GL112493   6.514  41.162   9.190
  781POPC   GL212494   6.287  40.920   9.004
  781POPC   C1A12495   6.731  41.055   8.768
  781POPC   D2A12496   6.803  40.798   8.383
  781POPC   C3A12497   6.682  41.014   7.996
  781POPC   C4A12498   6.923  40.869   7.659
  781POPC   C1B12499   6.265  40.522   8.725
  781POPC   C2B12500   6.432  40.427   8.295
  781POPC   C3B12501   6.549  40.519   7.871
  781POPC   C4B12502   6.362  40.422   7.483
  782POPC   NC312503  28.186  32.670   9.523
  782POPC   PO412504  28.386  32.050   9.518
  782POPC   GL112505  28.449  32.191   9.106
  782POPC   GL212506  28.536  32.502   9.175
  782POPC   C1A12507  28.292  32.363   8.740
  782POPC   D2A12508  28.066  32.321   8.404
  782POPC   C3A12509  28.198  32.345   8.034
  782POPC   C4A12510  28.093  32.066   7.730
  782POPC   C1B12511  28.702  32.650   8.791
  782POPC   C2B12512  28.808  32.579   8.371
  782POPC   C3B12513  28.632  32.667   7.952
  782POPC   C4B12514  28.458  32.420   7.609
  783POPC   NC312515  14.181  15.000   9.521
  783POPC   PO412516  14.819  15.386   9.515
  783POPC   GL112517  14.606  15.251   9.160
  783POPC   GL212518  14.232  15.218   9.081
  783POPC   C1A12519  14.563  15.396   8.754
  783POPC   D2A12520  14.498  15.651   8.426
  783POPC   C3A12521  14.338  15.386   8.109
  783POPC   C4A12522  14.431  15.083   7.766
  783POPC   C1B12523  13.997  14.902   8.833
  783POPC   C2B12524  13.904  15.048   8.436
  783POPC   C3B12525  14.060  14.932   8.064
  783POPC   C4B12526  14.009  14.664   7.753
  784POPC   NC312527  34.235  27.117   9.667
  784POPC   PO412528  34.918  27.169   9.654
  784POPC   GL112529  34.681  27.168   9.269
  784POPC   GL212530  34.460  26.866   9.256
  784POPC   C1A12531  34.890  27.009   8.900
  784POPC   D2A12532  34.818  26.741   8.565
  784POPC   C3A12533  34.714  26.925   8.187
  784POPC   C4A12534  34.825  26.836   7.776
  784POPC   C1B12535  34.352  26.792   8.816
  784POPC   C2B12536  34.376  26.535   8.428
  784POPC   C3B12537  34.359  26.582   7.990
  784POPC   C4B12538  34.376  26.677   7.580
  785POPC   NC312539  17.568  20.005   9.512
  785POPC   PO412540  17.440  19.303   9.430
  785POPC   GL112541  17.456  19.629   9.138
  785POPC   GL212542  17.794  19.746   9.156
  785POPC   C1A12543  17.528  19.669   8.711
  785POPC   D2A12544  17.312  19.832   8.334
  785POPC   C3A12545  17.434  19.557   8.004
  785POPC   C4A12546  17.502  19.666   7.572
  785POPC   C1B12547  17.959  19.939   8.792
  785POPC   C2B12548  17.796  19.952   8.375
  785POPC   C3B12549  17.676  20.000   7.964
  785POPC   C4B12550  17.896  20.234   7.704
  786POPC   NC312551  10.273   4.412   9.416
  786POPC   PO412552  10.948   4.286   9.499
  786POPC   GL112553  10.708   4.327   9.124
  786POPC   GL212554  10.572   4.666   9.089
  786POPC   C1A12555  10.691   4.082   8.749
  786POPC   D2A12556  10.990   3.957   8.453
  786POPC   C3A12557  10.814   3.935   8.033
  786POPC   C4A12558  10.461   4.009   7.754
  786POPC   C1B12559  10.831   4.643   8.718
  786POPC   C2B12560  10.765   4.424   8.338
  786POPC   C3B12561  10.532   4.474   7.966
  786POPC   C4B12562  10.533   4.626   7.559
  787POPC   NC312563  32.241  35.552   9.300
  787POPC   PO412564  32.106  36.291   9.274
  787POPC   GL112565  32.157  35.969   9.025
  787POPC   GL212566  31.822  35.864   9.057
  787POPC   C1A12567  32.417  35.854   8.673
  787POPC   D2A12568  32.285  35.742   8.241
  787POPC   C3A12569  32.486  36.043   7.927
  787POPC   C4A12570  32.412  36.246   7.505
  787POPC   C1B12571  31.910  35.923   8.586
  787POPC   C2B12572  32.185  36.233   8.368
  787POPC   C3B12573  32.089  36.334   7.957
  787POPC   C4B12574  31.960  36.024   7.630
  788POPC   NC312575  26.985   4.675   9.476
  788POPC   PO412576  26.594   4.078   9.529
  788POPC   GL112577  26.822   4.231   9.228
  788POPC   GL212578  26.619   4.489   9.172
  788POPC   C1A12579  26.954   4.210   8.824
  788POPC   D2A12580  27.058   4.234   8.409
  788POPC   C3A12581  26.783   4.100   8.159
  788POPC   C4A12582  26.893   4.146   7.764
  788POPC   C1B12583  26.664   4.697   8.805
  788POPC   C2B12584  26.730   4.790   8.380
  788POPC   C3B12585  26.798   4.603   8.017
  788POPC   C4B12586  26.626   4.848   7.706
  789POPC   NC312587  19.839  33.049   9.725
  789POPC   PO412588  20.193  32.553   9.527
  789POPC   GL112589  20.055  32.730   9.105
  789POPC   GL212590  19.830  33.014   9.151
  789POPC   C1A12591  20.048  33.005   8.708
  789POPC   D2A12592  19.911  32.899   8.322
  789POPC   C3A12593  20.156  32.941   7.959
  789POPC   C4A12594  20.229  32.648   7.633
  789POPC   C1B12595  19.544  33.125   8.780
  789POPC   C2B12596  19.367  33.077   8.361
  789POPC   C3B12597  19.543  32.969   7.976
  789POPC   C4B12598  19.754  33.124   7.690
  790POPC   NC312599  31.684  36.198   9.486
  790POPC   PO412600  31.107  35.827   9.412
  790POPC   GL112601  31.317  36.017   9.106
  790POPC   GL212602  31.334  36.338   9.139
  790POPC   C1A12603  31.402  35.878   8.700
  790POPC   D2A12604  31.353  36.036   8.320
  790POPC   C3A12605  31.571  35.793   8.042
  790POPC   C4A12606  31.471  35.800   7.627
  790POPC   C1B12607  31.644  36.307   8.789
  790POPC   C2B12608  31.696  36.412   8.334
  790POPC   C3B12609  31.594  36.277   7.886
  790POPC   C4B12610  31.572  36.264   7.421
  791POPC   NC312611  25.877  35.345   9.347
  791POPC   PO412612  26.550  35.052   9.252
  791POPC   GL112613  26.182  35.145   8.973
  791POPC   GL212614  25.948  35.451   8.863
  791POPC   C1A12615  26.125  35.093   8.527
  791POPC   D2A12616  26.303  35.300   8.156
  791POPC   C3A12617  26.087  35.116   7.790
  791POPC   C4A12618  25.702  35.256   7.518
  791POPC   C1B12619  26.297  35.578   8.632
  791POPC   C2B12620  26.510  35.828   8.345
  791POPC   C3B12621  26.397  35.824   7.932
  791POPC   C4B12622  26.028  35.615   7.827
  792POPC   NC312623  35.281   9.104   9.486
  792POPC   PO412624  35.910   8.710   9.326
  792POPC   GL112625  35.566   8.867   9.124
  792POPC   GL212626  35.610   9.232   9.102
  792POPC   C1A12627  35.211   8.990   8.846
  792POPC   D2A12628  35.187   9.109   8.415
  792POPC   C3A12629  35.270   8.806   8.091
  792POPC   C4A12630  35.128   8.724   7.682
  792POPC   C1B12631  35.466   9.416   8.745
  792POPC   C2B12632  35.549   9.551   8.377
  792POPC   C3B12633  35.402   9.373   8.027
  792POPC   C4B12634  35.471   9.142   7.675
  793POPC   NC312635  32.657  34.927   9.511
  793POPC   PO412636  32.685  35.620   9.546
  793POPC   GL112637  32.926  35.534   9.194
  793POPC   GL212638  33.011  35.189   9.211
  793POPC   C1A12639  32.912  35.622   8.774
  793POPC   D2A12640  33.033  35.383   8.438
  793POPC   C3A12641  33.182  35.476   8.071
  793POPC   C4A12642  33.048  35.420   7.679
  793POPC   C1B12643  32.886  35.039   8.808
  793POPC   C2B12644  32.918  34.882   8.378
  793POPC   C3B12645  32.865  35.050   7.989
  793POPC   C4B12646  32.925  34.938   7.593
  794POPC   NC312647  32.061  33.716   9.192
  794POPC   PO412648  32.527  33.240   9.511
  794POPC   GL112649  32.321  32.991   9.167
  794POPC   GL212650  32.056  33.193   9.070
  794POPC   C1A12651  32.337  32.849   8.713
  794POPC   D2A12652  32.566  32.771   8.315
  794POPC   C3A12653  32.387  32.832   7.918
  794POPC   C4A12654  32.539  32.649   7.588
  794POPC   C1B12655  32.142  33.315   8.653
  794POPC   C2B12656  32.132  33.079   8.263
  794POPC   C3B12657  32.090  33.246   7.798
  794POPC   C4B12658  31.954  33.191   7.341
  795POPC   NC312659  36.607  28.086   9.490
  795POPC   PO412660  37.245  28.378   9.514
  795POPC   GL112661  36.920  28.388   9.175
  795POPC   GL212662  36.844  28.068   9.047
  795POPC   C1A12663  37.017  28.435   8.715
  795POPC   D2A12664  37.366  28.527   8.407
  795POPC   C3A12665  37.244  28.663   8.012
  795POPC   C4A12666  36.942  28.605   7.678
  795POPC   C1B12667  36.604  28.099   8.667
  795POPC   C2B12668  36.652  28.260   8.234
  795POPC   C3B12669  36.546  28.190   7.788
  795POPC   C4B12670  36.633  27.984   7.353
  796POPC   NC312671  33.350  43.729   9.603
  796POPC   PO412672  32.911  44.101   9.438
  796POPC   GL112673  33.024  43.966   9.071
  796POPC   GL212674  33.194  43.627   9.086
  796POPC   C1A12675  32.868  44.102   8.665
  796POPC   D2A12676  32.685  43.755   8.483
  796POPC   C3A12677  32.687  43.854   8.104
  796POPC   C4A12678  32.819  43.655   7.749
  796POPC   C1B12679  33.290  43.810   8.669
  796POPC   C2B12680  33.210  43.788   8.205
  796POPC   C3B12681  33.317  43.642   7.797
  796POPC   C4B12682  33.297  43.604   7.353
  797POPC   NC312683   4.119  34.949   9.462
  797POPC   PO412684   4.672  35.263   9.647
  797POPC   GL112685   4.437  35.325   9.240
  797POPC   GL212686   4.286  35.643   9.167
  797POPC   C1A12687   4.262  35.277   8.810
  797POPC   D2A12688   4.425  35.056   8.448
  797POPC   C3A12689   4.210  35.193   8.083
  797POPC   C4A12690   4.379  35.190   7.730
  797POPC   C1B12691   4.216  35.782   8.741
  797POPC   C2B12692   4.404  35.588   8.371
  797POPC   C3B12693   4.291  35.678   7.926
  797POPC   C4B12694   3.870  35.528   7.822
  798POPC   NC312695  10.906  35.509   9.364
  798POPC   PO412696  11.469  35.081   9.544
  798POPC   GL112697  11.395  35.270   9.170
  798POPC   GL212698  11.513  35.598   9.182
  798POPC   C1A12699  11.461  35.033   8.734
  798POPC   D2A12700  11.701  35.060   8.354
  798POPC   C3A12701  11.500  34.985   7.996
  798POPC   C4A12702  11.252  35.279   7.769
  798POPC   C1B12703  11.257  35.508   8.765
  798POPC   C2B12704  11.306  35.405   8.337
  798POPC   C3B12705  11.149  35.683   8.034
  798POPC   C4B12706  11.237  35.765   7.590
  799POPC   NC312707  38.482  22.287   9.704
  799POPC   PO412708  38.340  21.585   9.707
  799POPC   GL112709  38.459  21.941   9.330
  799POPC   GL212710  38.219  22.216   9.280
  799POPC   C1A12711  38.736  22.073   8.927
  799POPC   D2A12712  38.680  21.956   8.448
  799POPC   C3A12713  38.311  22.056   8.121
  799POPC   C4A12714  38.431  21.995   7.694
  799POPC   C1B12715  38.383  22.418   8.935
  799POPC   C2B12716  38.331  22.378   8.513
  799POPC   C3B12717  38.517  22.533   8.125
  799POPC   C4B12718  38.384  22.505   7.714
  800POPC   NC312719  35.635  25.987   9.624
  800POPC   PO412720  36.217  26.168   9.511
  800POPC   GL112721  35.951  25.944   9.222
  800POPC   GL212722  36.243  25.821   9.094
  800POPC   C1A12723  35.869  26.044   8.805
  800POPC   D2A12724  36.026  26.351   8.498
  800POPC   C3A12725  36.019  26.163   8.103
  800POPC   C4A12726  36.164  25.897   7.769
  800POPC   C1B12727  36.376  26.018   8.702
  800POPC   C2B12728  36.353  25.821   8.293
  800POPC   C3B12729  36.610  25.687   7.950
  800POPC   C4B12730  36.669  25.872   7.547
  801POPC   NC312731  32.875   9.586   9.486
  801POPC   PO412732  32.841  10.236   9.473
  801POPC   GL112733  32.781   9.980   9.162
  801POPC   GL212734  33.089   9.835   9.083
  801POPC   C1A12735  32.637   9.721   8.859
  801POPC   D2A12736  32.872   9.765   8.507
  801POPC   C3A12737  32.757   9.663   8.093
  801POPC   C4A12738  32.673   9.626   7.682
  801POPC   C1B12739  33.058   9.427   8.846
  801POPC   C2B12740  33.186   9.358   8.450
  801POPC   C3B12741  33.261   9.701   8.169
  801POPC   C4B12742  33.190   9.569   7.766
  802POPC   NC312743  20.083   5.415   9.551
  802POPC   PO412744  19.395   5.163   9.555
  802POPC   GL112745  19.620   5.205   9.127
  802POPC   GL212746  19.975   5.145   9.131
  802POPC   C1A12747  19.677   5.130   8.668
  802POPC   D2A12748  19.690   4.779   8.344
  802POPC   C3A12749  19.679   4.943   7.923
  802POPC   C4A12750  19.686   5.360   7.794
  802POPC   C1B12751  20.074   4.854   8.803
  802POPC   C2B12752  20.179   4.996   8.451
  802POPC   C3B12753  20.053   5.242   8.140
  802POPC   C4B12754  20.140   5.125   7.715
  803POPC   NC312755  10.005   7.882   9.440
  803POPC   PO412756  10.603   7.620   9.604
  803POPC   GL112757  10.529   7.615   9.170
  803POPC   GL212758  10.817   7.806   9.126
  803POPC   C1A12759  10.258   7.618   8.747
  803POPC   D2A12760  10.176   7.785   8.295
  803POPC   C3A12761  10.362   7.479   7.973
  803POPC   C4A12762  10.228   7.265   7.590
  803POPC   C1B12763  10.784   7.497   8.753
  803POPC   C2B12764  10.859   7.285   8.345
  803POPC   C3B12765  10.867   7.460   7.920
  803POPC   C4B12766  10.729   7.456   7.440
  804POPC   NC312767  14.187  42.956   9.407
  804POPC   PO412768  14.204  42.290   9.424
  804POPC   GL112769  14.358  42.439   9.087
  804POPC   GL212770  14.606  42.694   9.124
  804POPC   C1A12771  14.369  42.207   8.715
  804POPC   D2A12772  14.584  41.998   8.385
  804POPC   C3A12773  14.366  42.168   8.046
  804POPC   C4A12774  14.114  41.976   7.761
  804POPC   C1B12775  14.478  42.759   8.713
  804POPC   C2B12776  14.436  42.579   8.331
  804POPC   C3B12777  14.554  42.683   7.916
  804POPC   C4B12778  14.943  42.630   7.706
  805POPC   NC312779  44.202  36.529   9.523
  805POPC   PO412780  44.803  36.895   9.490
  805POPC   GL112781  44.625  36.999   9.130
  805POPC   GL212782  44.465  36.691   9.112
  805POPC   C1A12783  44.769  36.892   8.713
  805POPC   D2A12784  44.627  36.786   8.316
  805POPC   C3A12785  44.895  36.967   8.029
  805POPC   C4A12786  44.940  37.109   7.608
  805POPC   C1B12787  44.273  36.793   8.724
  805POPC   C2B12788  44.173  36.516   8.398
  805POPC   C3B12789  44.385  36.456   8.009
  805POPC   C4B12790  44.401  36.786   7.761
  806POPC   NC312791  14.977  11.626   9.396
  806POPC   PO412792  15.423  11.086   9.694
  806POPC   GL112793  15.324  11.239   9.282
  806POPC   GL212794  15.445  11.562   9.161
  806POPC   C1A12795  15.179  11.211   8.858
  806POPC   D2A12796  15.162  11.065   8.430
  806POPC   C3A12797  15.119  11.311   8.070
  806POPC   C4A12798  14.898  11.433   7.720
  806POPC   C1B12799  15.596  11.536   8.719
  806POPC   C2B12800  15.428  11.659   8.293
  806POPC   C3B12801  15.365  11.693   7.833
  806POPC   C4B12802  15.683  11.613   7.512
  807POPC   NC312803  18.784   8.834   9.548
  807POPC   PO412804  19.309   9.269   9.624
  807POPC   GL112805  19.042   9.112   9.225
  807POPC   GL212806  18.675   9.178   9.145
  807POPC   C1A12807  19.108   8.783   8.859
  807POPC   D2A12808  19.015   8.961   8.426
  807POPC   C3A12809  19.259   9.040   8.054
  807POPC   C4A12810  19.050   9.090   7.666
  807POPC   C1B12811  18.634   8.919   8.783
  807POPC   C2B12812  18.535   8.779   8.349
  807POPC   C3B12813  18.691   8.815   7.914
  807POPC   C4B12814  18.552   8.824   7.463
  808POPC   NC312815  20.077  18.107   9.157
  808POPC   PO412816  20.550  18.267   9.642
  808POPC   GL112817  20.595  18.292   9.220
  808POPC   GL212818  20.589  17.977   9.140
  808POPC   C1A12819  20.729  18.480   8.823
  808POPC   D2A12820  20.511  18.527   8.458
  808POPC   C3A12821  20.623  18.485   8.057
  808POPC   C4A12822  20.385  18.437   7.694
  808POPC   C1B12823  20.779  17.983   8.746
  808POPC   C2B12824  20.584  18.015   8.333
  808POPC   C3B12825  20.425  17.976   7.923
  808POPC   C4B12826  20.568  17.995   7.482
  809POPC   NC312827  31.224   1.047   9.625
  809POPC   PO412828  31.831   1.166   9.662
  809POPC   GL112829  31.573   1.163   9.266
  809POPC   GL212830  31.619   1.515   9.219
  809POPC   C1A12831  31.447   1.175   8.818
  809POPC   D2A12832  31.420   0.992   8.356
  809POPC   C3A12833  31.287   1.278   8.006
  809POPC   C4A12834  31.157   1.256   7.548
  809POPC   C1B12835  31.843   1.488   8.813
  809POPC   C2B12836  31.665   1.437   8.439
  809POPC   C3B12837  31.744   1.527   8.071
  809POPC   C4B12838  31.683   1.426   7.692
  810POPC   NC312839  19.908  39.813   9.491
  810POPC   PO412840  19.985  40.480   9.517
  810POPC   GL112841  19.845  40.226   9.164
  810POPC   GL212842  19.514  40.106   9.234
  810POPC   C1A12843  20.001  40.107   8.754
  810POPC   D2A12844  20.207  40.023   8.368
  810POPC   C3A12845  20.036  40.169   7.997
  810POPC   C4A12846  20.065  39.998   7.602
  810POPC   C1B12847  19.501  39.992   8.788
  810POPC   C2B12848  19.669  40.059   8.354
  810POPC   C3B12849  19.635  39.874   7.936
  810POPC   C4B12850  19.562  39.834   7.488
  811POPC   NC312851  27.009  30.051   9.481
  811POPC   PO412852  26.337  29.865   9.474
  811POPC   GL112853  26.563  30.013   9.116
  811POPC   GL212854  26.789  29.737   9.074
  811POPC   C1A12855  26.606  30.181   8.676
  811POPC   D2A12856  26.559  30.179   8.214
  811POPC   C3A12857  26.858  29.987   7.928
  811POPC   C4A12858  27.124  30.103   7.575
  811POPC   C1B12859  26.494  29.689   8.699
  811POPC   C2B12860  26.666  29.698   8.334
  811POPC   C3B12861  26.581  29.531   7.957
  811POPC   C4B12862  26.378  29.829   7.766
  812POPC   NC312863  16.742  17.729   9.557
  812POPC   PO412864  16.371  17.300   9.401
  812POPC   GL112865  16.504  17.669   9.105
  812POPC   GL212866  16.757  17.977   9.116
  812POPC   C1A12867  16.637  17.683   8.686
  812POPC   D2A12868  16.497  17.358   8.409
  812POPC   C3A12869  16.603  17.459   8.032
  812POPC   C4A12870  16.508  17.215   7.703
  812POPC   C1B12871  17.009  18.063   8.753
  812POPC   C2B12872  16.976  18.009   8.343
  812POPC   C3B12873  16.988  17.887   7.951
  812POPC   C4B12874  16.764  17.723   7.637
  813POPC   NC312875   1.548  27.357   9.460
  813POPC   PO412876   0.924  27.632   9.482
  813POPC   GL112877   1.145  27.516   9.122
  813POPC   GL212878   1.430  27.750   9.155
  813POPC   C1A12879   1.204  27.581   8.671
  813POPC   D2A12880   0.884  27.638   8.316
  813POPC   C3A12881   1.079  27.539   7.958
  813POPC   C4A12882   1.483  27.402   7.781
  813POPC   C1B12883   1.501  28.003   8.798
  813POPC   C2B12884   1.674  27.921   8.405
  813POPC   C3B12885   1.560  27.888   8.001
  813POPC   C4B12886   1.325  27.878   7.658
  814POPC   NC312887  28.013  18.894   9.777
  814POPC   PO412888  28.575  19.007   9.504
  814POPC   GL112889  28.451  19.259   9.183
  814POPC   GL212890  28.132  19.100   9.162
  814POPC   C1A12891  28.463  19.374   8.751
  814POPC   D2A12892  28.705  19.302   8.362
  814POPC   C3A12893  28.465  19.253   7.994
  814POPC   C4A12894  28.375  19.233   7.562
  814POPC   C1B12895  28.294  18.889   8.750
  814POPC   C2B12896  28.403  18.838   8.300
  814POPC   C3B12897  28.213  18.824   7.861
  814POPC   C4B12898  28.292  18.762   7.395
  815POPC   NC312899  34.922   4.224   9.565
  815POPC   PO412900  34.281   3.921   9.460
  815POPC   GL112901  34.216   4.074   9.083
  815POPC   GL212902  34.535   4.240   9.101
  815POPC   C1A12903  34.304   4.098   8.645
  815POPC   D2A12904  34.632   4.127   8.373
  815POPC   C3A12905  34.406   4.157   8.036
  815POPC   C4A12906  34.632   4.146   7.683
  815POPC   C1B12907  34.642   4.480   8.736
  815POPC   C2B12908  34.666   4.660   8.299
  815POPC   C3B12909  34.573   4.640   7.867
  815POPC   C4B12910  34.904   4.592   7.599
  816POPC   NC312911   9.312   3.925   9.467
  816POPC   PO412912   9.840   4.327   9.511
  816POPC   GL112913   9.704   4.420   9.096
  816POPC   GL212914  10.031   4.501   8.975
  816POPC   C1A12915   9.647   4.460   8.631
  816POPC   D2A12916   9.672   4.703   8.236
  816POPC   C3A12917   9.670   4.530   7.835
  816POPC   C4A12918   9.642   4.141   7.652
  816POPC   C1B12919  10.344   4.464   8.666
  816POPC   C2B12920  10.340   4.148   8.333
  816POPC   C3B12921  10.045   4.170   7.991
  816POPC   C4B12922  10.097   4.383   7.596
  817POPC   NC312923  17.020  19.089   9.496
  817POPC   PO412924  16.384  18.760   9.466
  817POPC   GL112925  16.509  18.966   9.076
  817POPC   GL212926  16.836  19.132   9.033
  817POPC   C1A12927  16.487  18.942   8.640
  817POPC   D2A12928  16.835  19.023   8.371
  817POPC   C3A12929  16.832  18.810   7.977
  817POPC   C4A12930  16.471  18.759   7.764
  817POPC   C1B12931  16.675  19.403   8.748
  817POPC   C2B12932  16.458  19.398   8.363
  817POPC   C3B12933  16.509  19.246   7.965
  817POPC   C4B12934  16.869  19.283   7.750
  818POPC   NC312935  42.790  35.373   9.500
  818POPC   PO412936  43.268  35.767   9.311
  818POPC   GL112937  43.159  35.353   9.117
  818POPC   GL212938  43.447  35.150   9.133
  818POPC   C1A12939  43.092  35.289   8.676
  818POPC   D2A12940  43.166  35.642   8.380
  818POPC   C3A12941  43.190  35.508   7.966
  818POPC   C4A12942  42.978  35.252   7.706
  818POPC   C1B12943  43.457  34.903   8.752
  818POPC   C2B12944  43.227  34.798   8.379
  818POPC   C3B12945  43.312  34.900   7.948
  818POPC   C4B12946  43.346  34.990   7.516
  819POPC   NC312947  30.587   0.778   9.356
  819POPC   PO412948  30.908   1.388   9.488
  819POPC   GL112949  30.799   1.193   9.121
  819POPC   GL212950  31.068   0.990   9.134
  819POPC   C1A12951  30.625   1.213   8.696
  819POPC   D2A12952  30.690   1.535   8.383
  819POPC   C3A12953  30.591   1.548   7.961
  819POPC   C4A12954  30.563   1.144   7.729
  819POPC   C1B12955  31.029   0.919   8.712
  819POPC   C2B12956  30.910   1.017   8.289
  819POPC   C3B12957  30.976   0.879   7.863
  819POPC   C4B12958  31.080   0.761   7.427
  820POPC   NC312959  16.253   3.872   9.774
  820POPC   PO412960  15.824   3.517   9.595
  820POPC   GL112961  16.204   3.475   9.257
  820POPC   GL212962  16.155   3.175   9.049
  820POPC   C1A12963  16.331   3.551   8.769
  820POPC   D2A12964  16.117   3.418   8.350
  820POPC   C3A12965  16.030   3.685   7.963
  820POPC   C4A12966  15.735   4.005   7.799
  820POPC   C1B12967  15.870   3.100   8.730
  820POPC   C2B12968  15.811   2.994   8.308
  820POPC   C3B12969  15.767   3.205   7.913
  820POPC   C4B12970  15.661   3.032   7.520
  821POPC   NC312971  34.279  25.288   9.463
  821POPC   PO412972  34.898  25.006   9.584
  821POPC   GL112973  34.704  25.167   9.171
  821POPC   GL212974  34.684  25.515   9.075
  821POPC   C1A12975  34.351  25.137   8.843
  821POPC   D2A12976  34.265  25.238   8.406
  821POPC   C3A12977  34.532  25.098   8.082
  821POPC   C4A12978  34.572  25.196   7.659
  821POPC   C1B12979  34.727  25.412   8.644
  821POPC   C2B12980  34.647  25.579   8.237
  821POPC   C3B12981  34.722  25.684   7.812
  821POPC   C4B12982  34.389  25.698   7.484
  822POPC   NC312983   6.332   9.282   9.496
  822POPC   PO412984   5.757   9.625   9.460
  822POPC   GL112985   5.969   9.569   9.107
  822POPC   GL212986   6.264   9.806   9.142
  822POPC   C1A12987   5.711   9.506   8.730
  822POPC   D2A12988   5.613   9.813   8.405
  822POPC   C3A12989   5.787   9.700   8.037
  822POPC   C4A12990   5.763   9.855   7.644
  822POPC   C1B12991   6.202   9.767   8.680
  822POPC   C2B12992   6.183   9.954   8.262
  822POPC   C3B12993   6.257   9.811   7.838
  822POPC   C4B12994   6.201  10.041   7.459
  823POPC   NC312995  25.128  20.352   9.496
  823POPC   PO412996  25.515  19.817   9.506
  823POPC   GL112997  25.382  19.748   9.144
  823POPC   GL212998  25.062  19.917   9.195
  823POPC   C1A12999  25.513  19.864   8.752
  823POPC   D2A13000  25.659  19.819   8.358
  823POPC   C3A13001  25.291  19.673   8.171
  823POPC   C4A13002  25.228  19.670   7.735
  823POPC   C1B13003  25.002  20.076   8.796
  823POPC   C2B13004  24.892  19.961   8.389
  823POPC   C3B13005  24.877  20.204   8.007
  823POPC   C4B13006  25.090  20.160   7.621
  824POPC   NC313007  27.338  19.483   9.596
  824POPC   PO413008  27.759  19.982   9.446
  824POPC   GL113009  27.560  19.734   9.144
  824POPC   GL213010  27.237  19.800   9.196
  824POPC   C1A13011  27.582  19.569   8.725
  824POPC   D2A13012  27.710  19.627   8.300
  824POPC   C3A13013  27.703  19.905   7.934
  824POPC   C4A13014  27.662  19.632   7.571
  824POPC   C1B13015  27.078  19.644   8.798
  824POPC   C2B13016  27.162  19.783   8.378
  824POPC   C3B13017  27.264  19.671   7.986
  824POPC   C4B13018  27.259  19.912   7.624
  825POPC   NC313019  28.179  16.745   9.705
  825POPC   PO413020  28.510  16.188   9.604
  825POPC   GL113021  28.600  16.511   9.205
  825POPC   GL213022  28.355  16.465   8.915
  825POPC   C1A13023  28.662  16.819   8.787
  825POPC   D2A13024  28.248  16.836   8.540
  825POPC   C3A13025  28.297  16.787   8.100
  825POPC   C4A13026  28.470  16.652   7.732
  825POPC   C1B13027  28.096  16.305   8.634
  825POPC   C2B13028  27.961  16.422   8.253
  825POPC   C3B13029  28.123  16.295   7.870
  825POPC   C4B13030  28.164  16.358   7.415
  826POPC   NC313031  41.793   5.750   9.491
  826POPC   PO413032  41.109   5.862   9.519
  826POPC   GL113033  41.396   5.874   9.186
  826POPC   GL213034  41.321   6.147   8.995
  826POPC   C1A13035  41.600   5.691   8.819
  826POPC   D2A13036  41.482   5.782   8.400
  826POPC   C3A13037  41.567   5.548   8.016
  826POPC   C4A13038  41.598   5.715   7.591
  826POPC   C1B13039  41.723   6.176   8.810
  826POPC   C2B13040  41.867   6.132   8.391
  826POPC   C3B13041  41.659   6.086   8.002
  826POPC   C4B13042  41.870   6.140   7.625
  827POPC   NC313043  21.740   6.935   9.750
  827POPC   PO413044  21.150   6.608   9.508
  827POPC   GL113045  21.190   6.816   9.140
  827POPC   GL213046  21.513   6.723   9.149
  827POPC   C1A13047  21.192   6.701   8.721
  827POPC   D2A13048  21.441   6.663   8.368
  827POPC   C3A13049  21.217   6.736   8.012
  827POPC   C4A13050  21.340   6.593   7.635
  827POPC   C1B13051  21.710   6.911   8.779
  827POPC   C2B13052  21.706   7.111   8.368
  827POPC   C3B13053  21.716   6.883   7.973
  827POPC   C4B13054  21.706   6.926   7.532
  828POPC   NC313055   2.718   9.543   9.533
  828POPC   PO413056   2.519  10.169   9.323
  828POPC   GL113057   2.740   9.907   9.015
  828POPC   GL213058   2.756   9.539   9.035
  828POPC   C1A13059   2.541   9.769   8.625
  828POPC   D2A13060   2.499   9.758   8.185
  828POPC   C3A13061   2.920   9.844   8.030
  828POPC   C4A13062   3.115  10.062   7.719
  828POPC   C1B13063   2.930   9.442   8.647
  828POPC   C2B13064   2.956   9.342   8.224
  828POPC   C3B13065   2.730   9.402   7.850
  828POPC   C4B13066   2.923   9.624   7.479
  829POPC   NC313067  13.736  11.686   9.487
  829POPC   PO413068  13.803  12.357   9.662
  829POPC   GL113069  13.744  12.102   9.216
  829POPC   GL213070  13.469  11.856   9.094
  829POPC   C1A13071  13.685  12.189   8.761
  829POPC   D2A13072  13.537  12.091   8.337
  829POPC   C3A13073  13.448  12.362   7.963
  829POPC   C4A13074  13.600  12.162   7.571
  829POPC   C1B13075  13.825  11.684   8.817
  829POPC   C2B13076  13.924  11.736   8.359
  829POPC   C3B13077  13.643  11.702   8.003
  829POPC   C4B13078  13.875  11.732   7.658
  830POPC   NC313079  35.953  32.096   9.581
  830POPC   PO413080  36.429  32.483   9.470
  830POPC   GL113081  36.261  32.362   9.111
  830POPC   GL213082  36.303  32.052   9.161
  830POPC   C1A13083  36.109  32.457   8.686
  830POPC   D2A13084  35.841  32.596   8.364
  830POPC   C3A13085  36.048  32.443   8.033
  830POPC   C4A13086  35.864  32.260   7.717
  830POPC   C1B13087  35.883  32.069   8.920
  830POPC   C2B13088  35.725  32.100   8.477
  830POPC   C3B13089  35.849  31.915   8.083
  830POPC   C4B13090  36.287  31.994   7.880
  831POPC   NC313091   6.281  10.051   9.641
  831POPC   PO413092   6.695   9.553   9.622
  831POPC   GL113093   6.725   9.504   9.189
  831POPC   GL213094   7.020   9.316   9.112
  831POPC   C1A13095   6.726   9.780   8.831
  831POPC   D2A13096   6.639   9.735   8.394
  831POPC   C3A13097   6.684  10.085   8.123
  831POPC   C4A13098   6.685  10.050   7.689
  831POPC   C1B13099   6.797   9.270   8.707
  831POPC   C2B13100   6.849   9.287   8.251
  831POPC   C3B13101   6.726   9.525   7.891
  831POPC   C4B13102   6.999   9.682   7.590
  832POPC   NC313103   2.933  30.411   9.601
  832POPC   PO413104   2.380  30.657   9.485
  832POPC   GL113105   2.723  30.713   9.171
  832POPC   GL213106   3.030  30.532   9.123
  832POPC   C1A13107   2.778  30.877   8.773
  832POPC   D2A13108   2.683  30.640   8.388
  832POPC   C3A13109   2.923  30.758   8.047
  832POPC   C4A13110   2.854  30.839   7.624
  832POPC   C1B13111   2.856  30.369   8.790
  832POPC   C2B13112   2.980  30.149   8.441
  832POPC   C3B13113   3.010  30.235   8.030
  832POPC   C4B13114   2.824  30.286   7.661
  833POPC   NC313115  28.066  33.315   9.371
  833POPC   PO413116  28.425  33.811   9.671
  833POPC   GL113117  28.464  33.855   9.224
  833POPC   GL213118  28.460  33.530   9.120
  833POPC   C1A13119  28.320  33.945   8.787
  833POPC   D2A13120  28.354  33.733   8.357
  833POPC   C3A13121  28.137  33.897   7.979
  833POPC   C4A13122  28.276  34.113   7.576
  833POPC   C1B13123  28.224  33.432   8.761
  833POPC   C2B13124  28.162  33.237   8.401
  833POPC   C3B13125  28.022  33.401   8.063
  833POPC   C4B13126  28.171  33.460   7.673
  834POPC   NC313127  28.112  44.425   9.198
  834POPC   PO413128  28.321  44.982   9.513
  834POPC   GL113129  28.480  44.824   9.123
  834POPC   GL213130  28.675  44.483   9.139
  834POPC   C1A13131  28.365   0.038   8.687
  834POPC   D2A13132  28.145  44.950   8.265
  834POPC   C3A13133  28.171  44.573   7.998
  834POPC   C4A13134  28.156  44.490   7.536
  834POPC   C1B13135  28.650  44.614   8.700
  834POPC   C2B13136  28.663  44.866   8.304
  834POPC   C3B13137  28.625  44.781   7.897
  834POPC   C4B13138  28.635  44.403   7.675
  835POPC   NC313139  36.980  16.583   9.509
  835POPC   PO413140  36.714  17.241   9.505
  835POPC   GL113141  36.654  16.949   9.136
  835POPC   GL213142  36.978  16.826   9.045
  835POPC   C1A13143  36.717  17.020   8.657
  835POPC   D2A13144  37.062  16.857   8.396
  835POPC   C3A13145  36.959  16.647   8.034
  835POPC   C4A13146  37.122  16.686   7.649
  835POPC   C1B13147  36.829  16.534   8.704
  835POPC   C2B13148  36.558  16.503   8.354
  835POPC   C3B13149  36.469  16.407   7.937
  835POPC   C4B13150  36.672  16.481   7.516
  836POPC   NC313151  27.417  32.742   9.725
  836POPC   PO413152  27.409  32.121   9.450
  836POPC   GL113153  27.676  32.217   9.175
  836POPC   GL213154  27.983  32.292   9.271
  836POPC   C1A13155  27.851  32.105   8.817
  836POPC   D2A13156  27.589  32.265   8.517
  836POPC   C3A13157  27.711  32.055   8.133
  836POPC   C4A13158  27.575  32.081   7.717
  836POPC   C1B13159  27.865  32.613   8.925
  836POPC   C2B13160  27.806  32.749   8.483
  836POPC   C3B13161  27.665  32.565   8.084
  836POPC   C4B13162  27.848  32.530   7.697
  837POPC   NC313163   3.147  39.350   9.439
  837POPC   PO413164   2.540  39.046   9.441
  837POPC   GL113165   2.735  39.219   9.138
  837POPC   GL213166   3.047  38.986   9.098
  837POPC   C1A13167   2.548  39.372   8.769
  837POPC   D2A13168   2.687  39.459   8.362
  837POPC   C3A13169   2.560  39.243   8.048
  837POPC   C4A13170   2.596  39.339   7.664
  837POPC   C1B13171   3.159  38.835   8.689
  837POPC   C2B13172   2.947  38.960   8.306
  837POPC   C3B13173   3.026  39.081   7.891
  837POPC   C4B13174   2.869  38.943   7.488
  838POPC   NC313175  19.503   0.303   9.104
  838POPC   PO413176  19.671   0.466   9.702
  838POPC   GL113177  19.790   0.670   9.252
  838POPC   GL213178  20.009   0.380   9.055
  838POPC   C1A13179  19.819   0.705   8.748
  838POPC   D2A13180  19.532   0.385   8.510
  838POPC   C3A13181  19.499   0.409   8.035
  838POPC   C4A13182  19.747   0.493   7.641
  838POPC   C1B13183  19.918   0.073   8.687
  838POPC   C2B13184  19.983  44.894   8.287
  838POPC   C3B13185  19.901   0.047   7.867
  838POPC   C4B13186  19.779   0.023   7.426
  839POPC   NC313187  30.517  37.170   9.380
  839POPC   PO413188  31.051  36.753   9.360
  839POPC   GL113189  30.688  36.760   9.138
  839POPC   GL213190  30.884  36.707   8.874
  839POPC   C1A13191  30.507  36.989   8.769
  839POPC   D2A13192  30.555  36.755   8.391
  839POPC   C3A13193  30.797  36.856   8.055
  839POPC   C4A13194  30.510  36.952   7.745
  839POPC   C1B13195  30.476  36.442   8.786
  839POPC   C2B13196  30.258  36.343   8.385
  839POPC   C3B13197  30.411  36.466   7.963
  839POPC   C4B13198  30.771  36.530   7.683
  840POPC   NC313199   8.628  29.689   9.441
  840POPC   PO413200   9.215  30.043   9.525
  840POPC   GL113201   9.089  29.785   9.167
  840POPC   GL213202   8.784  29.938   9.047
  840POPC   C1A13203   8.916  29.517   8.810
  840POPC   D2A13204   8.729  29.510   8.390
  840POPC   C3A13205   8.922  29.698   8.053
  840POPC   C4A13206   9.069  29.674   7.651
  840POPC   C1B13207   9.004  30.014   8.691
  840POPC   C2B13208   9.212  30.030   8.327
  840POPC   C3B13209   8.995  30.228   8.022
  840POPC   C4B13210   8.770  30.073   7.708
  841POPC   NC313211  37.263  19.765   9.453
  841POPC   PO413212  36.613  19.845   9.483
  841POPC   GL113213  36.850  19.740   9.095
  841POPC   GL213214  37.172  19.504   9.050
  841POPC   C1A13215  36.703  19.886   8.667
  841POPC   D2A13216  36.544  20.169   8.331
  841POPC   C3A13217  36.645  20.008   7.920
  841POPC   C4A13218  36.855  19.837   7.509
  841POPC   C1B13219  37.203  19.822   8.740
  841POPC   C2B13220  37.068  20.020   8.325
  841POPC   C3B13221  37.172  19.986   7.884
  841POPC   C4B13222  37.220  19.583   7.728
  842POPC   NC313223  44.080  16.204   9.551
  842POPC   PO413224  43.863  15.556   9.448
  842POPC   GL113225  44.113  15.824   9.222
  842POPC   GL213226  43.836  16.017   9.137
  842POPC   C1A13227  44.273  16.019   8.858
  842POPC   D2A13228  44.138  15.846   8.470
  842POPC   C3A13229  44.232  15.986   8.073
  842POPC   C4A13230  43.912  15.891   7.765
  842POPC   C1B13231  43.700  16.017   8.722
  842POPC   C2B13232  43.641  15.776   8.300
  842POPC   C3B13233  43.645  15.501   7.904
  842POPC   C4B13234  43.610  15.621   7.408
  843POPC   NC313235   0.100  28.684   9.876
  843POPC   PO413236   0.372  28.170   9.543
  843POPC   GL113237   0.389  28.365   9.167
  843POPC   GL213238   0.646  28.635   9.218
  843POPC   C1A13239   0.181  28.463   8.761
  843POPC   D2A13240   0.010  28.541   8.363
  843POPC   C3A13241   0.289  28.522   8.004
  843POPC   C4A13242   0.489  28.258   7.682
  843POPC   C1B13243   0.701  28.458   8.783
  843POPC   C2B13244   0.647  28.308   8.360
  843POPC   C3B13245   0.787  28.560   8.021
  843POPC   C4B13246   0.923  28.502   7.635
  844POPC   NC313247   7.807  11.962   9.417
  844POPC   PO413248   8.416  11.991   9.704
  844POPC   GL113249   8.294  11.888   9.260
  844POPC   GL213250   8.149  12.241   9.176
  844POPC   C1A13251   8.238  11.918   8.787
  844POPC   D2A13252   8.169  12.156   8.407
  844POPC   C3A13253   8.339  11.924   8.101
  844POPC   C4A13254   8.377  11.676   7.746
  844POPC   C1B13255   8.395  12.434   8.827
  844POPC   C2B13256   8.375  12.655   8.421
  844POPC   C3B13257   8.410  12.458   7.990
  844POPC   C4B13258   8.229  12.159   7.674
  845POPC   NC313259   6.251  41.576   9.404
  845POPC   PO413260   6.991  41.791   9.504
  845POPC   GL113261   6.706  41.659   9.161
  845POPC   GL213262   6.382  41.786   8.969
  845POPC   C1A13263   6.818  41.620   8.750
  845POPC   D2A13264   6.781  41.925   8.419
  845POPC   C3A13265   6.979  41.778   8.082
  845POPC   C4A13266   6.762  41.692   7.741
  845POPC   C1B13267   6.358  41.396   8.761
  845POPC   C2B13268   6.505  41.464   8.383
  845POPC   C3B13269   6.365  41.650   8.061
  845POPC   C4B13270   6.335  41.368   7.724
  846POPC   NC313271  24.732  26.240   9.406
  846POPC   PO413272  25.334  25.917   9.465
  846POPC   GL113273  25.305  26.099   9.080
  846POPC   GL213274  25.417  26.449   9.134
  846POPC   C1A13275  25.224  25.912   8.666
  846POPC   D2A13276  24.914  25.861   8.326
  846POPC   C3A13277  25.086  26.062   7.958
  846POPC   C4A13278  25.324  25.937   7.607
  846POPC   C1B13279  25.609  26.326   8.738
  846POPC   C2B13280  25.493  26.208   8.296
  846POPC   C3B13281  25.599  26.287   7.860
  846POPC   C4B13282  25.389  26.451   7.462
  847POPC   NC313283  14.424  41.868   9.408
  847POPC   PO413284  14.594  41.118   9.499
  847POPC   GL113285  14.472  41.385   9.167
  847POPC   GL213286  14.150  41.308   9.103
  847POPC   C1A13287  14.398  41.651   8.792
  847POPC   D2A13288  14.320  41.540   8.382
  847POPC   C3A13289  14.700  41.516   8.148
  847POPC   C4A13290  14.633  41.795   7.817
  847POPC   C1B13291  14.134  41.176   8.688
  847POPC   C2B13292  14.071  41.081   8.255
  847POPC   C3B13293  14.268  41.322   7.922
  847POPC   C4B13294  14.546  41.317   7.634
  848POPC   NC313295  32.890  37.029   9.564
  848POPC   PO413296  33.408  37.482   9.520
  848POPC   GL113297  33.211  37.185   9.143
  848POPC   GL213298  32.917  36.940   9.082
  848POPC   C1A13299  33.274  36.947   8.707
  848POPC   D2A13300  33.390  36.943   8.280
  848POPC   C3A13301  33.125  36.798   7.974
  848POPC   C4A13302  33.006  36.958   7.569
  848POPC   C1B13303  32.859  36.662   8.759
  848POPC   C2B13304  32.623  36.543   8.424
  848POPC   C3B13305  32.841  36.361   8.121
  848POPC   C4B13306  32.863  36.446   7.708
  849POPC   NC313307  23.187  16.260   9.353
  849POPC   PO413308  22.836  15.696   9.421
  849POPC   GL113309  22.931  15.887   9.031
  849POPC   GL213310  23.287  16.007   8.940
  849POPC   C1A13311  23.030  15.747   8.608
  849POPC   D2A13312  22.957  16.026   8.285
  849POPC   C3A13313  23.145  15.904   7.948
  849POPC   C4A13314  22.929  15.758   7.627
  849POPC   C1B13315  23.039  16.324   8.711
  849POPC   C2B13316  23.115  16.543   8.331
  849POPC   C3B13317  23.127  16.450   7.917
  849POPC   C4B13318  22.748  16.225   7.816
  850POPC   NC313319  33.458  30.673   9.433
  850POPC   PO413320  34.133  31.006   9.415
  850POPC   GL113321  33.809  30.900   9.115
  850POPC   GL213322  33.472  31.056   9.059
  850POPC   C1A13323  33.897  30.772   8.712
  850POPC   D2A13324  34.111  30.870   8.360
  850POPC   C3A13325  34.087  30.601   8.006
  850POPC   C4A13326  34.080  30.817   7.620
  850POPC   C1B13327  33.409  30.671   8.792
  850POPC   C2B13328  33.587  30.430   8.458
  850POPC   C3B13329  33.503  30.568   8.058
  850POPC   C4B13330  33.644  30.528   7.650
  851POPC   NC313331  30.212  37.566   9.852
  851POPC   PO413332  30.087  37.008   9.435
  851POPC   GL113333  30.061  36.674   9.115
  851POPC   GL213334  29.714  36.581   9.160
  851POPC   C1A13335  30.064  36.769   8.677
  851POPC   D2A13336  30.167  37.126   8.420
  851POPC   C3A13337  30.126  36.923   8.063
  851POPC   C4A13338  30.025  37.118   7.689
  851POPC   C1B13339  29.540  36.705   8.762
  851POPC   C2B13340  29.679  36.937   8.361
  851POPC   C3B13341  29.636  36.835   7.906
  851POPC   C4B13342  29.547  36.489   7.600
  852POPC   NC313343  22.820  35.066   9.639
  852POPC   PO413344  23.182  35.645   9.496
  852POPC   GL113345  23.110  35.505   9.103
  852POPC   GL213346  22.854  35.244   9.162
  852POPC   C1A13347  22.852  35.524   8.739
  852POPC   D2A13348  22.753  35.385   8.332
  852POPC   C3A13349  23.007  35.351   7.945
  852POPC   C4A13350  22.870  35.380   7.497
  852POPC   C1B13351  23.142  35.038   8.847
  852POPC   C2B13352  23.014  34.935   8.406
  852POPC   C3B13353  22.621  34.947   8.128
  852POPC   C4B13354  22.601  34.975   7.695
  853POPC   NC313355   3.097  27.145   9.382
  853POPC   PO413356   2.983  27.782   9.427
  853POPC   GL113357   2.813  27.677   9.038
  853POPC   GL213358   2.740  27.340   9.015
  853POPC   C1A13359   2.621  27.725   8.666
  853POPC   D2A13360   2.672  27.926   8.302
  853POPC   C3A13361   2.671  27.684   7.906
  853POPC   C4A13362   2.673  27.773   7.475
  853POPC   C1B13363   2.997  27.358   8.696
  853POPC   C2B13364   2.903  27.470   8.307
  853POPC   C3B13365   2.963  27.252   7.949
  853POPC   C4B13366   2.941  27.275   7.551
  854POPC   NC313367  30.132  14.833   9.466
  854POPC   PO413368  29.604  15.188   9.519
  854POPC   GL113369  29.894  15.162   9.168
  854POPC   GL213370  29.915  14.804   8.997
  854POPC   C1A13371  29.879  15.255   8.764
  854POPC   D2A13372  29.714  14.983   8.442
  854POPC   C3A13373  29.718  15.154   8.031
  854POPC   C4A13374  29.738  15.000   7.640
  854POPC   C1B13375  30.221  14.909   8.650
  854POPC   C2B13376  30.174  15.206   8.317
  854POPC   C3B13377  30.231  15.119   7.920
  854POPC   C4B13378  30.123  15.359   7.595
  855POPC   NC313379  31.774   5.910   9.659
  855POPC   PO413380  31.566   6.521   9.565
  855POPC   GL113381  31.551   6.200   9.238
  855POPC   GL213382  31.698   5.861   9.120
  855POPC   C1A13383  31.498   6.180   8.801
  855POPC   D2A13384  31.710   6.153   8.418
  855POPC   C3A13385  31.400   5.992   8.146
  855POPC   C4A13386  31.360   6.137   7.738
  855POPC   C1B13387  31.575   5.704   8.651
  855POPC   C2B13388  31.539   5.400   8.326
  855POPC   C3B13389  31.303   5.507   7.947
  855POPC   C4B13390  31.413   5.647   7.545
  856POPC   NC313391  32.859  27.638   9.574
  856POPC   PO413392  33.336  27.213   9.653
  856POPC   GL113393  33.269  27.544   9.258
  856POPC   GL213394  32.995  27.786   9.129
  856POPC   C1A13395  33.352  27.687   8.773
  856POPC   D2A13396  33.444  27.586   8.321
  856POPC   C3A13397  33.255  27.673   7.940
  856POPC   C4A13398  33.153  27.927   7.600
  856POPC   C1B13399  32.854  27.646   8.765
  856POPC   C2B13400  32.958  27.814   8.355
  856POPC   C3B13401  32.759  27.763   7.939
  856POPC   C4B13402  32.507  27.662   7.587
  857POPC   NC313403   0.261  41.607   9.469
  857POPC   PO413404   0.867  41.714   9.477
  857POPC   GL113405   0.675  41.897   9.108
  857POPC   GL213406   0.316  41.868   9.015
  857POPC   C1A13407   0.668  41.624   8.739
  857POPC   D2A13408   0.784  41.355   8.409
  857POPC   C3A13409   0.577  41.465   8.020
  857POPC   C4A13410   0.629  41.455   7.588
  857POPC   C1B13411   0.184  41.468   8.847
  857POPC   C2B13412   0.268  41.461   8.437
  857POPC   C3B13413   0.090  41.631   8.094
  857POPC   C4B13414   0.125  41.430   7.720
  858POPC   NC313415  26.760  22.395   9.459
  858POPC   PO413416  26.801  21.813   9.606
  858POPC   GL113417  26.724  21.971   9.195
  858POPC   GL213418  27.083  22.005   9.112
  858POPC   C1A13419  26.751  22.205   8.804
  858POPC   D2A13420  26.705  22.456   8.484
  858POPC   C3A13421  26.786  22.371   8.099
  858POPC   C4A13422  26.823  22.421   7.673
  858POPC   C1B13423  27.268  22.124   8.733
  858POPC   C2B13424  27.031  22.034   8.374
  858POPC   C3B13425  27.140  22.070   7.919
  858POPC   C4B13426  27.058  21.795   7.574
  859POPC   NC313427  35.439  10.756   9.789
  859POPC   PO413428  35.129  10.320   9.444
  859POPC   GL113429  35.355  10.503   9.124
  859POPC   GL213430  35.098  10.707   9.002
  859POPC   C1A13431  35.398  10.484   8.667
  859POPC   D2A13432  35.311  10.633   8.262
  859POPC   C3A13433  35.646  10.537   7.971
  859POPC   C4A13434  35.711  10.144   7.757
  859POPC   C1B13435  34.899  10.455   8.713
  859POPC   C2B13436  35.016  10.138   8.442
  859POPC   C3B13437  34.983  10.250   8.042
  859POPC   C4B13438  35.229  10.344   7.718
  860POPC   NC313439  38.144  10.117   9.366
  860POPC   PO413440  38.734  10.372   9.666
  860POPC   GL113441  38.566  10.367   9.233
  860POPC   GL213442  38.549  10.047   9.083
  860POPC   C1A13443  38.362  10.546   8.856
  860POPC   D2A13444  38.409  10.669   8.417
  860POPC   C3A13445  38.367  10.494   8.005
  860POPC   C4A13446  38.399  10.607   7.587
  860POPC   C1B13447  38.749  10.231   8.737
  860POPC   C2B13448  38.628  10.172   8.332
  860POPC   C3B13449  38.824  10.280   7.945
  860POPC   C4B13450  38.654  10.185   7.519
  861POPC   NC313451   3.599  15.448   9.641
  861POPC   PO413452   3.036  15.115   9.658
  861POPC   GL113453   3.308  14.981   9.295
  861POPC   GL213454   3.652  15.150   9.203
  861POPC   C1A13455   3.374  14.919   8.842
  861POPC   D2A13456   3.515  15.293   8.553
  861POPC   C3A13457   3.598  15.211   8.090
  861POPC   C4A13458   3.275  15.166   7.754
  861POPC   C1B13459   3.874  14.937   8.844
  861POPC   C2B13460   3.766  14.844   8.447
  861POPC   C3B13461   3.851  14.681   8.063
  861POPC   C4B13462   3.674  14.829   7.673
  862POPC   NC313463   4.353  25.359   9.634
  862POPC   PO413464   5.123  25.413   9.661
  862POPC   GL113465   5.210  25.377   9.226
  862POPC   GL213466   4.887  25.364   9.164
  862POPC   C1A13467   5.202  25.534   8.789
  862POPC   D2A13468   5.361  25.541   8.377
  862POPC   C3A13469   5.235  25.298   7.998
  862POPC   C4A13470   5.312  25.499   7.607
  862POPC   C1B13471   4.789  25.221   8.724
  862POPC   C2B13472   4.835  25.386   8.297
  862POPC   C3B13473   4.711  25.336   7.863
  862POPC   C4B13474   4.551  24.966   7.668
  863POPC   NC313475   1.620  31.057   9.393
  863POPC   PO413476   1.672  30.383   9.528
  863POPC   GL113477   1.961  30.562   9.165
  863POPC   GL213478   2.202  30.880   9.084
  863POPC   C1A13479   1.830  30.731   8.760
  863POPC   D2A13480   1.694  31.016   8.451
  863POPC   C3A13481   1.864  30.866   8.071
  863POPC   C4A13482   1.854  30.592   7.729
  863POPC   C1B13483   2.324  30.599   8.766
  863POPC   C2B13484   2.149  30.504   8.358
  863POPC   C3B13485   2.345  30.607   7.982
  863POPC   C4B13486   2.385  30.516   7.559
  864POPC   NC313487  16.568  42.190   9.564
  864POPC   PO413488  17.012  41.629   9.398
  864POPC   GL113489  17.053  41.947   9.117
  864POPC   GL213490  16.886  42.259   9.164
  864POPC   C1A13491  16.877  42.021   8.723
  864POPC   D2A13492  16.910  42.363   8.475
  864POPC   C3A13493  16.803  42.117   8.146
  864POPC   C4A13494  16.873  42.156   7.737
  864POPC   C1B13495  16.535  42.388   8.885
  864POPC   C2B13496  16.387  42.355   8.451
  864POPC   C3B13497  16.492  42.493   8.017
  864POPC   C4B13498  16.311  42.270   7.685
  865POPC   NC313499  27.912  23.653   9.415
  865POPC   PO413500  27.304  23.554   9.484
  865POPC   GL113501  27.516  23.530   9.123
  865POPC   GL213502  27.719  23.269   9.132
  865POPC   C1A13503  27.647  23.741   8.755
  865POPC   D2A13504  27.340  23.982   8.486
  865POPC   C3A13505  27.375  23.811   8.088
  865POPC   C4A13506  27.722  23.891   7.830
  865POPC   C1B13507  27.576  23.206   8.735
  865POPC   C2B13508  27.522  23.415   8.372
  865POPC   C3B13509  27.620  23.325   7.963
  865POPC   C4B13510  27.907  23.431   7.672
  866POPC   NC313511  31.107  29.854   9.430
  866POPC   PO413512  31.695  30.197   9.548
  866POPC   GL113513  31.685  30.051   9.120
  866POPC   GL213514  31.527  29.758   9.099
  866POPC   C1A13515  31.837  30.090   8.709
  866POPC   D2A13516  31.665  30.260   8.331
  866POPC   C3A13517  31.375  29.998   8.123
  866POPC   C4A13518  31.194  30.071   7.745
  866POPC   C1B13519  31.335  29.917   8.700
  866POPC   C2B13520  31.043  29.722   8.388
  866POPC   C3B13521  31.039  29.610   7.925
  866POPC   C4B13522  31.329  29.629   7.557
  867POPC   NC313523  11.872  35.425   9.594
  867POPC   PO413524  12.281  34.909   9.636
  867POPC   GL113525  12.223  35.111   9.243
  867POPC   GL213526  11.879  35.141   9.154
  867POPC   C1A13527  12.294  35.326   8.830
  867POPC   D2A13528  12.490  35.598   8.497
  867POPC   C3A13529  12.374  35.505   8.091
  867POPC   C4A13530  12.155  35.463   7.720
  867POPC   C1B13531  11.793  35.407   8.795
  867POPC   C2B13532  11.947  35.501   8.392
  867POPC   C3B13533  11.722  35.448   7.998
  867POPC   C4B13534  11.733  35.235   7.577
  868POPC   NC313535  43.310  17.513   9.476
  868POPC   PO413536  43.943  17.421   9.427
  868POPC   GL113537  43.756  17.482   9.040
  868POPC   GL213538  43.523  17.241   9.118
  868POPC   C1A13539  43.818  17.399   8.593
  868POPC   D2A13540  44.148  17.281   8.279
  868POPC   C3A13541  44.070  17.526   7.919
  868POPC   C4A13542  43.669  17.744   7.869
  868POPC   C1B13543  43.399  17.085   8.768
  868POPC   C2B13544  43.400  17.113   8.375
  868POPC   C3B13545  43.654  17.287   8.105
  868POPC   C4B13546  43.691  17.276   7.663
  869POPC   NC313547  12.867  42.602   9.412
  869POPC   PO413548  13.152  41.892   9.431
  869POPC   GL113549  12.865  42.081   9.182
  869POPC   GL213550  13.091  42.324   9.036
  869POPC   C1A13551  12.556  42.191   8.883
  869POPC   D2A13552  12.418  42.315   8.476
  869POPC   C3A13553  12.678  42.451   8.165
  869POPC   C4A13554  12.711  42.248   7.774
  869POPC   C1B13555  13.092  42.020   8.717
  869POPC   C2B13556  13.002  42.068   8.301
  869POPC   C3B13557  13.176  42.324   7.977
  869POPC   C4B13558  13.190  42.141   7.607
  870POPC   NC313559  21.864  20.791   9.334
  870POPC   PO413560  22.326  20.350   9.519
  870POPC   GL113561  22.350  20.631   9.152
  870POPC   GL213562  22.341  20.994   9.231
  870POPC   C1A13563  22.296  20.538   8.716
  870POPC   D2A13564  22.429  20.276   8.389
  870POPC   C3A13565  22.127  20.384   8.063
  870POPC   C4A13566  22.237  20.446   7.647
  870POPC   C1B13567  22.296  21.057   8.797
  870POPC   C2B13568  22.411  20.964   8.378
  870POPC   C3B13569  22.206  20.934   7.962
  870POPC   C4B13570  22.095  20.904   7.514
  871POPC   NC313571  39.495   8.964   9.541
  871POPC   PO413572  38.956   9.220   9.363
  871POPC   GL113573  39.293   9.144   9.094
  871POPC   GL213574  39.314   8.785   9.059
  871POPC   C1A13575  39.570   9.065   8.724
  871POPC   D2A13576  39.658   8.887   8.354
  871POPC   C3A13577  39.329   8.920   8.044
  871POPC   C4A13578  39.296   8.691   7.643
  871POPC   C1B13579  39.084   8.961   8.661
  871POPC   C2B13580  38.860   8.951   8.252
  871POPC   C3B13581  38.866   8.890   7.791
  871POPC   C4B13582  38.873   8.733   7.357
  872POPC   NC313583  10.067  37.029   9.550
  872POPC   PO413584   9.465  36.939   9.687
  872POPC   GL113585   9.666  36.871   9.269
  872POPC   GL213586   9.723  37.208   9.151
  872POPC   C1A13587   9.775  36.804   8.825
  872POPC   D2A13588   9.861  36.560   8.463
  872POPC   C3A13589   9.766  36.823   8.123
  872POPC   C4A13590   9.683  36.810   7.704
  872POPC   C1B13591   9.386  37.139   8.839
  872POPC   C2B13592   9.480  37.196   8.406
  872POPC   C3B13593   9.334  37.119   7.991
  872POPC   C4B13594   9.465  37.287   7.632
  873POPC   NC313595  31.654  10.743   9.485
  873POPC   PO413596  31.000  10.518   9.436
  873POPC   GL113597  31.265  10.600   9.087
  873POPC   GL213598  31.578  10.447   9.099
  873POPC   C1A13599  31.318  10.432   8.673
  873POPC   D2A13600  31.232  10.129   8.373
  873POPC   C3A13601  31.387  10.232   7.972
  873POPC   C4A13602  31.271  10.480   7.634
  873POPC   C1B13603  31.687  10.768   8.793
  873POPC   C2B13604  31.723  10.571   8.369
  873POPC   C3B13605  31.647  10.656   7.934
  873POPC   C4B13606  31.759  10.362   7.575
  874POPC   NC313607  11.929  32.876   9.760
  874POPC   PO413608  12.129  32.338   9.490
  874POPC   GL113609  12.022  32.328   9.100
  874POPC   GL213610  12.335  32.360   9.027
  874POPC   C1A13611  11.976  32.199   8.683
  874POPC   D2A13612  11.934  32.412   8.309
  874POPC   C3A13613  11.842  32.102   8.023
  874POPC   C4A13614  11.900  32.149   7.612
  874POPC   C1B13615  12.540  32.507   8.756
  874POPC   C2B13616  12.448  32.380   8.398
  874POPC   C3B13617  12.359  32.197   8.037
  874POPC   C4B13618  12.428  32.328   7.629
  875POPC   NC313619  19.365  16.609   9.380
  875POPC   PO413620  20.026  16.855   9.481
  875POPC   GL113621  19.784  16.808   9.127
  875POPC   GL213622  20.091  16.662   8.986
  875POPC   C1A13623  19.550  16.659   8.740
  875POPC   D2A13624  19.755  16.549   8.300
  875POPC   C3A13625  19.537  16.447   7.873
  875POPC   C4A13626  19.581  16.572   7.421
  875POPC   C1B13627  19.939  16.976   8.667
  875POPC   C2B13628  19.787  17.173   8.291
  875POPC   C3B13629  19.699  16.922   7.924
  875POPC   C4B13630  20.019  16.748   7.634
  876POPC   NC313631  31.239  16.447   9.382
  876POPC   PO413632  31.681  16.755   9.744
  876POPC   GL113633  31.642  16.742   9.248
  876POPC   GL213634  31.345  16.780   9.014
  876POPC   C1A13635  31.730  16.498   8.840
  876POPC   D2A13636  31.824  16.568   8.382
  876POPC   C3A13637  31.581  16.540   7.970
  876POPC   C4A13638  31.806  16.419   7.556
  876POPC   C1B13639  31.468  16.874   8.591
  876POPC   C2B13640  31.225  16.926   8.229
  876POPC   C3B13641  31.162  16.883   7.785
  876POPC   C4B13642  31.326  16.861   7.377
  877POPC   NC313643   5.237  16.877   9.560
  877POPC   PO413644   4.835  16.440   9.368
  877POPC   GL113645   4.999  16.801   9.117
  877POPC   GL213646   5.394  16.876   9.075
  877POPC   C1A13647   5.100  16.780   8.684
  877POPC   D2A13648   5.085  16.957   8.295
  877POPC   C3A13649   5.076  16.585   8.050
  877POPC   C4A13650   5.116  16.328   7.698
  877POPC   C1B13651   5.484  17.118   8.685
  877POPC   C2B13652   5.557  17.138   8.244
  877POPC   C3B13653   5.443  16.914   7.912
  877POPC   C4B13654   5.388  16.943   7.508
  878POPC   NC313655  25.680  18.664   9.482
  878POPC   PO413656  26.198  18.225   9.642
  878POPC   GL113657  26.139  18.430   9.242
  878POPC   GL213658  25.821  18.345   9.105
  878POPC   C1A13659  26.239  18.265   8.810
  878POPC   D2A13660  26.029  18.058   8.466
  878POPC   C3A13661  25.908  18.375   8.197
  878POPC   C4A13662  25.946  18.461   7.764
  878POPC   C1B13663  25.626  18.265   8.724
  878POPC   C2B13664  25.484  18.090   8.310
  878POPC   C3B13665  25.713  17.974   7.920
  878POPC   C4B13666  25.824  18.071   7.452
  879POPC   NC313667  39.763  27.480   9.850
  879POPC   PO413668  39.515  27.928   9.443
  879POPC   GL113669  39.323  27.787   9.079
  879POPC   GL213670  39.261  27.432   9.150
  879POPC   C1A13671  39.263  27.635   8.678
  879POPC   D2A13672  39.112  27.822   8.333
  879POPC   C3A13673  39.303  27.767   7.932
  879POPC   C4A13674  38.999  27.704   7.670
  879POPC   C1B13675  38.989  27.250   8.822
  879POPC   C2B13676  38.869  27.339   8.435
  879POPC   C3B13677  39.046  27.360   8.060
  879POPC   C4B13678  39.278  27.189   7.740
  880POPC   NC313679  42.523   3.971   9.449
  880POPC   PO413680  42.149   4.582   9.452
  880POPC   GL113681  42.455   4.599   9.121
  880POPC   GL213682  42.420   4.237   8.998
  880POPC   C1A13683  42.488   4.627   8.662
  880POPC   D2A13684  42.496   4.265   8.379
  880POPC   C3A13685  42.421   4.397   7.948
  880POPC   C4A13686  42.666   4.656   7.686
  880POPC   C1B13687  42.624   3.868   8.765
  880POPC   C2B13688  42.799   3.835   8.344
  880POPC   C3B13689  42.626   3.930   7.932
  880POPC   C4B13690  42.178   3.964   7.742
  881POPC   NC313691  24.809  24.158   9.537
  881POPC   PO413692  24.318  24.605   9.509
  881POPC   GL113693  24.375  24.422   9.130
  881POPC   GL213694  24.743  24.430   9.111
  881POPC   C1A13695  24.195  24.560   8.737
  881POPC   D2A13696  24.058  24.543   8.299
  881POPC   C3A13697  24.355  24.360   7.992
  881POPC   C4A13698  24.368  24.311   7.536
  881POPC   C1B13699  24.655  24.320   8.690
  881POPC   C2B13700  24.562  24.646   8.390
  881POPC   C3B13701  24.623  24.807   7.994
  881POPC   C4B13702  24.729  24.678   7.554
  882POPC   NC313703  37.633  25.834   9.503
  882POPC   PO413704  37.647  26.448   9.763
  882POPC   GL113705  37.752  26.263   9.274
  882POPC   GL213706  37.948  26.006   9.139
  882POPC   C1A13707  37.621  26.194   8.813
  882POPC   D2A13708  37.816  26.110   8.405
  882POPC   C3A13709  37.570  26.098   8.007
  882POPC   C4A13710  37.573  25.885   7.656
  882POPC   C1B13711  37.860  25.721   8.782
  882POPC   C2B13712  38.092  25.642   8.401
  882POPC   C3B13713  38.005  25.813   8.013
  882POPC   C4B13714  38.051  25.613   7.642
  883POPC   NC313715  17.340  32.589   9.437
  883POPC   PO413716  17.625  32.049   9.444
  883POPC   GL113717  17.532  32.267   9.072
  883POPC   GL213718  17.694  32.598   9.036
  883POPC   C1A13719  17.550  32.245   8.632
  883POPC   D2A13720  17.442  32.074   8.229
  883POPC   C3A13721  17.221  32.350   7.953
  883POPC   C4A13722  17.322  32.257   7.490
  883POPC   C1B13723  17.524  32.761   8.629
  883POPC   C2B13724  17.675  32.552   8.219
  883POPC   C3B13725  17.691  32.456   7.781
  883POPC   C4B13726  17.600  32.646   7.355
  884POPC   NC313727  15.426  16.599   9.499
  884POPC   PO413728  16.076  16.421   9.460
  884POPC   GL113729  15.973  16.672   9.102
  884POPC   GL213730  15.653  16.655   9.063
  884POPC   C1A13731  15.996  16.911   8.731
  884POPC   D2A13732  16.256  16.897   8.374
  884POPC   C3A13733  16.101  16.688   8.032
  884POPC   C4A13734  16.169  16.834   7.619
  884POPC   C1B13735  15.493  16.820   8.722
  884POPC   C2B13736  15.685  16.865   8.297
  884POPC   C3B13737  15.750  17.028   7.871
  884POPC   C4B13738  15.707  16.909   7.420
  885POPC   NC313739  17.935   0.404   9.439
  885POPC   PO413740  18.541   0.542   9.697
  885POPC   GL113741  18.386   0.613   9.300
  885POPC   GL213742  18.346   0.281   9.183
  885POPC   C1A13743  18.403   0.649   8.850
  885POPC   D2A13744  18.502   0.545   8.432
  885POPC   C3A13745  18.156   0.600   8.200
  885POPC   C4A13746  18.035   0.588   7.767
  885POPC   C1B13747  18.106   0.231   8.777
  885POPC   C2B13748  18.263   0.067   8.379
  885POPC   C3B13749  18.341   0.198   7.961
  885POPC   C4B13750  18.129   0.135   7.542
  886POPC   NC313751  39.464  26.534   9.971
  886POPC   PO413752  40.046  26.801   9.588
  886POPC   GL113753  40.174  26.786   9.126
  886POPC   GL213754  39.865  26.849   9.013
  886POPC   C1A13755  40.161  26.608   8.672
  886POPC   D2A13756  40.035  26.803   8.270
  886POPC   C3A13757  40.009  26.618   7.862
  886POPC   C4A13758  40.082  26.904   7.492
  886POPC   C1B13759  39.944  27.156   8.672
  886POPC   C2B13760  39.864  27.293   8.233
  886POPC   C3B13761  39.762  27.069   7.855
  886POPC   C4B13762  39.601  27.032   7.372
  887POPC   NC313763  21.083  36.361   9.435
  887POPC   PO413764  21.618  35.824   9.410
  887POPC   GL113765  21.534  36.070   9.083
  887POPC   GL213766  21.196  36.052   9.056
  887POPC   C1A13767  21.493  36.285   8.698
  887POPC   D2A13768  21.647  36.301   8.288
  887POPC   C3A13769  21.370  36.198   7.954
  887POPC   C4A13770  21.589  35.883   7.762
  887POPC   C1B13771  21.063  35.906   8.681
  887POPC   C2B13772  21.195  35.838   8.287
  887POPC   C3B13773  21.065  35.754   7.890
  887POPC   C4B13774  21.129  35.932   7.493
  888POPC   NC313775  21.681   5.317   9.483
  888POPC   PO413776  22.143   4.900   9.643
  888POPC   GL113777  22.120   5.098   9.247
  888POPC   GL213778  22.380   5.297   9.132
  888POPC   C1A13779  21.926   5.170   8.875
  888POPC   D2A13780  21.853   5.013   8.492
  888POPC   C3A13781  22.036   5.227   8.158
  888POPC   C4A13782  21.866   5.194   7.762
  888POPC   C1B13783  22.441   5.148   8.756
  888POPC   C2B13784  22.512   5.379   8.391
  888POPC   C3B13785  22.516   5.293   7.998
  888POPC   C4B13786  22.390   5.216   7.582
  889POPC   NC313787   1.018  40.955   9.396
  889POPC   PO413788   1.458  40.436   9.502
  889POPC   GL113789   1.280  40.588   9.114
  889POPC   GL213790   0.938  40.578   9.066
  889POPC   C1A13791   1.362  40.603   8.685
  889POPC   D2A13792   1.567  40.445   8.335
  889POPC   C3A13793   1.314  40.603   8.028
  889POPC   C4A13794   1.290  40.865   7.650
  889POPC   C1B13795   0.958  40.916   8.732
  889POPC   C2B13796   1.122  40.970   8.319
  889POPC   C3B13797   0.966  41.151   7.938
  889POPC   C4B13798   1.143  41.377   7.621
  890POPC   NC313799  33.572  27.592   9.747
  890POPC   PO413800  33.991  27.278   9.319
  890POPC   GL113801  33.714  27.379   9.067
  890POPC   GL213802  33.739  27.713   9.101
  890POPC   C1A13803  33.797  27.460   8.667
  890POPC   D2A13804  34.076  27.392   8.375
  890POPC   C3A13805  33.865  27.472   8.049
  890POPC   C4A13806  34.021  27.438   7.695
  890POPC   C1B13807  34.004  27.926   8.805
  890POPC   C2B13808  33.844  27.884   8.402
  890POPC   C3B13809  33.695  27.963   8.025
  890POPC   C4B13810  33.659  27.780   7.661
  891POPC   NC313811  32.528  36.510   9.315
  891POPC   PO413812  32.474  37.199   9.473
  891POPC   GL113813  32.401  36.999   9.140
  891POPC   GL213814  32.069  36.902   9.207
  891POPC   C1A13815  32.464  37.006   8.727
  891POPC   D2A13816  32.304  37.149   8.345
  891POPC   C3A13817  32.237  36.798   8.119
  891POPC   C4A13818  32.414  36.706   7.735
  891POPC   C1B13819  31.914  37.088   8.815
  891POPC   C2B13820  31.678  37.020   8.433
  891POPC   C3B13821  31.793  37.246   8.070
  891POPC   C4B13822  32.040  37.070   7.735
  892POPC   NC313823  34.709  42.839   9.523
  892POPC   PO413824  34.426  43.387   9.502
  892POPC   GL113825  34.631  43.179   9.148
  892POPC   GL213826  34.348  42.976   9.167
  892POPC   C1A13827  34.724  42.897   8.777
  892POPC   D2A13828  34.827  43.039   8.338
  892POPC   C3A13829  34.806  42.724   8.028
  892POPC   C4A13830  34.532  42.646   7.700
  892POPC   C1B13831  34.303  43.224   8.760
  892POPC   C2B13832  34.388  43.399   8.360
  892POPC   C3B13833  34.472  43.242   7.942
  892POPC   C4B13834  34.437  43.485   7.523
  893POPC   NC313835   0.153  35.358   9.507
  893POPC   PO413836   0.426  34.813   9.288
  893POPC   GL113837   0.354  34.983   8.935
  893POPC   GL213838   0.320  35.276   9.033
  893POPC   C1A13839   0.596  35.231   8.610
  893POPC   D2A13840   0.581  35.644   8.499
  893POPC   C3A13841   0.648  35.617   8.096
  893POPC   C4A13842   0.469  35.377   7.780
  893POPC   C1B13843   0.133  35.456   8.656
  893POPC   C2B13844   0.174  35.354   8.234
  893POPC   C3B13845  44.993  35.210   7.845
  893POPC   C4B13846   0.074  35.549   7.511
  894POPC   NC313847  36.498  18.549   9.250
  894POPC   PO413848  35.967  18.343   9.490
  894POPC   GL113849  36.033  18.287   9.042
  894POPC   GL213850  35.689  18.339   8.990
  894POPC   C1A13851  36.286  18.399   8.618
  894POPC   D2A13852  36.440  18.350   8.180
  894POPC   C3A13853  36.281  18.570   7.815
  894POPC   C4A13854  36.151  18.372   7.388
  894POPC   C1B13855  35.820  18.182   8.577
  894POPC   C2B13856  35.923  17.919   8.261
  894POPC   C3B13857  36.010  18.142   7.909
  894POPC   C4B13858  35.717  18.451   7.744
  895POPC   NC313859  44.367  38.133   9.554
  895POPC   PO413860  44.966  38.259   9.464
  895POPC   GL113861  44.707  38.171   9.095
  895POPC   GL213862  44.355  38.080   9.059
  895POPC   C1A13863  44.719  38.163   8.656
  895POPC   D2A13864  44.596  38.527   8.436
  895POPC   C3A13865  44.555  38.544   7.998
  895POPC   C4A13866  44.640  38.857   7.669
  895POPC   C1B13867  44.202  38.116   8.641
  895POPC   C2B13868  44.357  38.114   8.235
  895POPC   C3B13869  44.145  38.105   7.847
  895POPC   C4B13870  43.948  38.338   7.502
  896POPC   NC313871  30.436  13.317   9.451
  896POPC   PO413872  30.693  13.984   9.368
  896POPC   GL113873  30.541  13.795   9.020
  896POPC   GL213874  30.726  13.515   9.047
  896POPC   C1A13875  30.673  13.790   8.594
  896POPC   D2A13876  30.952  13.550   8.321
  896POPC   C3A13877  30.796  13.641   7.903
  896POPC   C4A13878  30.566  14.027   7.767
  896POPC   C1B13879  30.392  13.396   8.734
  896POPC   C2B13880  30.436  13.406   8.299
  896POPC   C3B13881  30.445  13.146   7.940
  896POPC   C4B13882  30.701  13.235   7.582
  897POPC   NC313883  36.066  18.730   9.781
  897POPC   PO413884  36.046  19.133   9.270
  897POPC   GL113885  35.961  19.098   8.901
  897POPC   GL213886  36.134  18.770   8.934
  897POPC   C1A13887  35.932  19.141   8.468
  897POPC   D2A13888  36.263  18.927   8.255
  897POPC   C3A13889  36.336  19.091   7.864
  897POPC   C4A13890  36.067  19.341   7.602
  897POPC   C1B13891  35.846  18.672   8.638
  897POPC   C2B13892  35.903  18.558   8.222
  897POPC   C3B13893  35.879  18.894   7.920
  897POPC   C4B13894  36.016  18.849   7.487
  898POPC   NC313895  39.624  11.253   9.454
  898POPC   PO413896  40.230  10.984   9.365
  898POPC   GL113897  40.244  11.383   9.148
  898POPC   GL213898  39.896  11.505   9.105
  898POPC   C1A13899  40.262  11.455   8.697
  898POPC   D2A13900  40.264  11.205   8.284
  898POPC   C3A13901  40.117  11.359   7.844
  898POPC   C4A13902  39.935  11.117   7.451
  898POPC   C1B13903  39.818  11.191   8.772
  898POPC   C2B13904  39.750  11.287   8.320
  898POPC   C3B13905  39.595  11.259   7.882
  898POPC   C4B13906  39.708  11.564   7.571
  899POPC   NC313907   6.927  13.585   9.511
  899POPC   PO413908   6.350  13.979   9.507
  899POPC   GL113909   6.585  13.814   9.169
  899POPC   GL213910   6.951  13.960   9.171
  899POPC   C1A13911   6.489  13.532   8.818
  899POPC   D2A13912   6.704  13.390   8.433
  899POPC   C3A13913   6.506  13.443   8.034
  899POPC   C4A13914   6.451  13.645   7.651
  899POPC   C1B13915   6.955  13.754   8.761
  899POPC   C2B13916   7.096  13.710   8.326
  899POPC   C3B13917   6.914  13.771   7.917
  899POPC   C4B13918   6.858  13.866   7.446
  900POPC   NC313919  38.784  30.618   9.581
  900POPC   PO413920  38.108  30.412   9.438
  900POPC   GL113921  38.449  30.633   9.187
  900POPC   GL213922  38.772  30.437   9.131
  900POPC   C1A13923  38.671  30.825   8.838
  900POPC   D2A13924  38.635  30.957   8.430
  900POPC   C3A13925  38.458  30.766   8.062
  900POPC   C4A13926  38.646  30.721   7.686
  900POPC   C1B13927  38.764  30.287   8.766
  900POPC   C2B13928  38.703  30.454   8.383
  900POPC   C3B13929  38.757  30.282   7.987
  900POPC   C4B13930  38.756  30.239   7.546
  901POPC   NC313931  38.128  27.273   9.424
  901POPC   PO413932  38.486  26.667   9.628
  901POPC   GL113933  38.620  26.649   9.243
  901POPC   GL213934  38.443  26.919   9.133
  901POPC   C1A13935  38.617  26.579   8.808
  901POPC   D2A13936  38.546  26.881   8.509
  901POPC   C3A13937  38.539  26.659   8.160
  901POPC   C4A13938  38.454  26.705   7.766
  901POPC   C1B13939  38.120  26.953   8.819
  901POPC   C2B13940  37.925  27.028   8.447
  901POPC   C3B13941  38.126  26.944   8.099
  901POPC   C4B13942  38.166  27.134   7.717
  902POPC   NC313943   6.227  39.668   9.545
  902POPC   PO413944   6.525  40.198   9.293
  902POPC   GL113945   6.641  39.949   8.993
  902POPC   GL213946   6.477  39.688   9.105
  902POPC   C1A13947   6.550  39.999   8.589
  902POPC   D2A13948   6.355  39.928   8.226
  902POPC   C3A13949   6.654  39.994   7.907
  902POPC   C4A13950   7.087  39.903   7.829
  902POPC   C1B13951   6.449  39.493   8.724
  902POPC   C2B13952   6.282  39.405   8.331
  902POPC   C3B13953   6.426  39.515   7.954
  902POPC   C4B13954   6.541  39.621   7.545
  903POPC   NC313955  16.515  10.480   9.462
  903POPC   PO413956  17.128  10.414   9.460
  903POPC   GL113957  16.895  10.449   9.104
  903POPC   GL213958  16.700  10.719   9.049
  903POPC   C1A13959  16.905  10.250   8.724
  903POPC   D2A13960  16.558  10.191   8.427
  903POPC   C3A13961  16.666  10.180   7.992
  903POPC   C4A13962  17.033  10.343   7.763
  903POPC   C1B13963  16.681  10.691   8.630
  903POPC   C2B13964  16.875  10.596   8.258
  903POPC   C3B13965  16.666  10.673   7.888
  903POPC   C4B13966  16.840  10.754   7.490
  904POPC   NC313967   3.111  29.693   9.454
  904POPC   PO413968   2.614  30.082   9.675
  904POPC   GL113969   2.757  30.092   9.237
  904POPC   GL213970   2.476  30.284   9.125
  904POPC   C1A13971   2.895  29.861   8.858
  904POPC   D2A13972   2.705  29.722   8.488
  904POPC   C3A13973   2.796  29.768   8.074
  904POPC   C4A13974   2.785  29.756   7.646
  904POPC   C1B13975   2.441  30.109   8.688
  904POPC   C2B13976   2.511  30.164   8.223
  904POPC   C3B13977   2.390  30.053   7.785
  904POPC   C4B13978   2.450  30.089   7.294
  905POPC   NC313979   6.902   5.030   9.484
  905POPC   PO413980   7.611   5.086   9.549
  905POPC   GL113981   7.573   5.221   9.120
  905POPC   GL213982   7.239   5.138   9.054
  905POPC   C1A13983   7.663   5.231   8.700
  905POPC   D2A13984   7.631   5.013   8.307
  905POPC   C3A13985   7.654   5.177   7.882
  905POPC   C4A13986   7.708   4.969   7.455
  905POPC   C1B13987   7.152   5.261   8.601
  905POPC   C2B13988   7.120   4.993   8.197
  905POPC   C3B13989   7.210   4.988   7.719
  905POPC   C4B13990   6.905   5.041   7.339
  906POPC   NC313991  39.995  13.898   9.487
  906POPC   PO413992  39.843  14.696   9.498
  906POPC   GL113993  40.083  14.617   9.118
  906POPC   GL213994  40.040  14.273   9.070
  906POPC   C1A13995  40.075  14.612   8.677
  906POPC   D2A13996  39.976  14.391   8.318
  906POPC   C3A13997  40.101  14.520   7.923
  906POPC   C4A13998  40.249  14.917   7.771
  906POPC   C1B13999  39.751  14.165   8.749
  906POPC   C2B14000  39.734  13.963   8.372
  906POPC   C3B14001  39.639  14.175   8.000
  906POPC   C4B14002  39.502  13.993   7.648
  907POPC   NC314003  41.896  32.473   9.466
  907POPC   PO414004  41.321  32.135   9.463
  907POPC   GL114005  41.608  32.132   9.157
  907POPC   GL214006  41.877  31.874   9.226
  907POPC   C1A14007  41.570  32.391   8.806
  907POPC   D2A14008  41.342  32.378   8.431
  907POPC   C3A14009  41.512  32.390   8.062
  907POPC   C4A14010  41.528  32.227   7.672
  907POPC   C1B14011  42.017  32.121   8.865
  907POPC   C2B14012  41.807  32.108   8.445
  907POPC   C3B14013  41.771  31.945   8.048
  907POPC   C4B14014  41.994  31.998   7.676
  908POPC   NC314015  20.323  33.908   9.558
  908POPC   PO414016  20.881  33.539   9.591
  908POPC   GL114017  20.842  33.771   9.204
  908POPC   GL214018  20.502  33.678   9.149
  908POPC   C1A14019  20.751  33.853   8.740
  908POPC   D2A14020  20.468  33.844   8.369
  908POPC   C3A14021  20.667  33.847   7.956
  908POPC   C4A14022  20.851  34.060   7.588
  908POPC   C1B14023  20.412  33.454   8.760
  908POPC   C2B14024  20.315  33.294   8.360
  908POPC   C3B14025  20.393  33.411   7.943
  908POPC   C4B14026  20.137  33.420   7.577
  909POPC   NC314027  37.076   5.717   9.544
  909POPC   PO414028  36.400   5.722   9.349
  909POPC   GL114029  36.741   5.868   9.043
  909POPC   GL214030  37.078   5.980   9.115
  909POPC   C1A14031  36.858   6.155   8.682
  909POPC   D2A14032  36.887   6.388   8.281
  909POPC   C3A14033  37.055   6.069   7.998
  909POPC   C4A14034  36.836   5.785   7.754
  909POPC   C1B14035  37.207   5.747   8.795
  909POPC   C2B14036  37.003   5.688   8.424
  909POPC   C3B14037  37.193   5.528   8.088
  909POPC   C4B14038  37.039   5.318   7.754
  910POPC   NC314039   4.121  11.598   9.449
  910POPC   PO414040   4.577  11.071   9.395
  910POPC   GL114041   4.250  11.207   9.078
  910POPC   GL214042   4.004  11.508   8.970
  910POPC   C1A14043   4.299  11.198   8.656
  910POPC   D2A14044   4.063  11.298   8.323
  910POPC   C3A14045   4.188  11.076   7.975
  910POPC   C4A14046   4.588  11.257   7.909
  910POPC   C1B14047   4.221  11.715   8.626
  910POPC   C2B14048   4.577  11.897   8.428
  910POPC   C3B14049   4.560  11.745   8.038
  910POPC   C4B14050   4.147  11.565   7.876
  911POPC   NC314051  11.830  40.256   9.524
  911POPC   PO414052  12.397  39.916   9.497
  911POPC   GL114053  12.045  39.924   9.170
  911POPC   GL214054  11.953  40.240   9.041
  911POPC   C1A14055  12.057  39.816   8.741
  911POPC   D2A14056  12.290  40.062   8.429
  911POPC   C3A14057  12.225  39.921   7.998
  911POPC   C4A14058  11.957  39.796   7.656
  911POPC   C1B14059  11.667  40.180   8.745
  911POPC   C2B14060  11.787  40.048   8.363
  911POPC   C3B14061  11.731  40.216   7.990
  911POPC   C4B14062  11.603  40.210   7.575
  912POPC   NC314063  17.196  42.797   9.494
  912POPC   PO414064  17.066  43.430   9.465
  912POPC   GL114065  17.220  43.323   9.104
  912POPC   GL214066  17.489  43.126   9.191
  912POPC   C1A14067  17.154  43.137   8.721
  912POPC   D2A14068  17.164  42.891   8.344
  912POPC   C3A14069  17.225  43.144   7.977
  912POPC   C4A14070  17.301  42.969   7.566
  912POPC   C1B14071  17.663  43.172   8.778
  912POPC   C2B14072  17.720  42.940   8.368
  912POPC   C3B14073  17.624  42.836   7.943
  912POPC   C4B14074  17.820  43.006   7.545
  913POPC   NC314075  43.336   9.213   9.464
  913POPC   PO414076  43.028   8.608   9.386
  913POPC   GL114077  42.846   8.725   9.014
  913POPC   GL214078  42.894   9.042   9.103
  913POPC   C1A14079  43.008   8.770   8.592
  913POPC   D2A14080  43.308   8.522   8.344
  913POPC   C3A14081  43.237   8.654   7.908
  913POPC   C4A14082  43.160   9.100   7.906
  913POPC   C1B14083  43.132   9.212   8.776
  913POPC   C2B14084  43.337   9.315   8.365
  913POPC   C3B14085  43.596   9.371   7.960
  913POPC   C4B14086  43.499   9.336   7.492
  914POPC   NC314087  15.557  27.003   9.384
  914POPC   PO414088  15.120  26.505   9.522
  914POPC   GL114089  15.091  26.802   9.205
  914POPC   GL214090  14.764  26.976   9.164
  914POPC   C1A14091  15.189  26.757   8.791
  914POPC   D2A14092  15.008  26.772   8.414
  914POPC   C3A14093  15.319  26.775   8.090
  914POPC   C4A14094  15.241  26.911   7.674
  914POPC   C1B14095  15.015  27.232   8.857
  914POPC   C2B14096  14.874  27.308   8.413
  914POPC   C3B14097  14.909  27.086   8.027
  914POPC   C4B14098  14.731  27.106   7.631
  915POPC   NC314099  43.770  27.217   9.670
  915POPC   PO414100  44.226  26.803   9.468
  915POPC   GL114101  43.875  26.881   9.155
  915POPC   GL214102  43.661  27.182   9.173
  915POPC   C1A14103  43.959  26.844   8.705
  915POPC   D2A14104  44.200  26.870   8.315
  915POPC   C3A14105  43.932  26.817   7.959
  915POPC   C4A14106  44.008  26.659   7.535
  915POPC   C1B14107  43.765  27.312   8.756
  915POPC   C2B14108  43.728  27.131   8.328
  915POPC   C3B14109  43.635  27.261   7.883
  915POPC   C4B14110  43.686  27.277   7.419
  916POPC   NC314111  43.704  35.879   9.450
  916POPC   PO414112  44.033  35.260   9.498
  916POPC   GL114113  43.924  35.347   9.100
  916POPC   GL214114  44.278  35.334   9.032
  916POPC   C1A14115  43.629  35.406   8.730
  916POPC   D2A14116  43.484  35.238   8.324
  916POPC   C3A14117  43.658  35.285   7.899
  916POPC   C4A14118  43.816  35.202   7.451
  916POPC   C1B14119  44.120  35.537   8.663
  916POPC   C2B14120  43.878  35.641   8.315
  916POPC   C3B14121  43.624  35.795   8.004
  916POPC   C4B14122  43.912  35.667   7.682
  917POPC   NC314123  16.734  27.327   9.403
  917POPC   PO414124  16.601  27.928   9.450
  917POPC   GL114125  16.516  27.706   9.097
  917POPC   GL214126  16.859  27.674   9.008
  917POPC   C1A14127  16.437  27.625   8.659
  917POPC   D2A14128  16.694  27.522   8.300
  917POPC   C3A14129  16.509  27.460   7.897
  917POPC   C4A14130  16.559  27.307   7.466
  917POPC   C1B14131  16.855  27.287   8.753
  917POPC   C2B14132  16.987  27.089   8.379
  917POPC   C3B14133  16.959  27.237   7.955
  917POPC   C4B14134  17.083  27.056   7.601
  918POPC   NC314135  12.287  30.907   9.553
  918POPC   PO414136  11.714  30.556   9.470
  918POPC   GL114137  11.986  30.561   9.149
  918POPC   GL214138  12.116  30.879   9.079
  918POPC   C1A14139  11.895  30.575   8.719
  918POPC   D2A14140  12.080  30.778   8.360
  918POPC   C3A14141  12.061  30.597   7.945
  918POPC   C4A14142  12.005  30.605   7.494
  918POPC   C1B14143  12.320  31.112   8.764
  918POPC   C2B14144  12.196  31.286   8.362
  918POPC   C3B14145  12.173  31.118   7.961
  918POPC   C4B14146  12.387  30.910   7.634
  919POPC   NC314147  32.895  14.631   9.275
  919POPC   PO414148  33.362  14.411   9.746
  919POPC   GL114149  33.308  14.265   9.289
  919POPC   GL214150  32.987  14.086   9.267
  919POPC   C1A14151  33.193  14.322   8.829
  919POPC   D2A14152  32.915  14.407   8.496
  919POPC   C3A14153  33.156  14.527   8.142
  919POPC   C4A14154  32.894  14.649   7.791
  919POPC   C1B14155  32.806  13.971   8.864
  919POPC   C2B14156  32.719  13.904   8.433
  919POPC   C3B14157  32.832  14.122   8.062
  919POPC   C4B14158  33.169  14.227   7.743
  920POPC   NC314159  34.082  35.540   9.527
  920POPC   PO414160  33.928  34.970   9.188
  920POPC   GL114161  33.807  35.380   9.114
  920POPC   GL214162  33.455  35.452   9.227
  920POPC   C1A14163  33.830  35.517   8.699
  920POPC   D2A14164  33.671  35.507   8.269
  920POPC   C3A14165  33.970  35.439   7.911
  920POPC   C4A14166  34.020  35.550   7.474
  920POPC   C1B14167  33.371  35.267   8.810
  920POPC   C2B14168  33.429  35.041   8.397
  920POPC   C3B14169  33.367  34.985   7.949
  920POPC   C4B14170  33.428  34.970   7.509
  921POPC   NC314171  20.377  43.890   9.618
  921POPC   PO414172  19.678  44.015   9.492
  921POPC   GL114173  19.772  43.952   9.106
  921POPC   GL214174  20.127  43.931   9.141
  921POPC   C1A14175  19.630  43.767   8.744
  921POPC   D2A14176  19.629  43.958   8.347
  921POPC   C3A14177  19.604  43.627   8.069
  921POPC   C4A14178  19.603  43.773   7.680
  921POPC   C1B14179  20.090  43.998   8.712
  921POPC   C2B14180  20.063  43.722   8.363
  921POPC   C3B14181  20.091  43.871   7.956
  921POPC   C4B14182  20.077  43.613   7.605
  922POPC   NC314183  26.041  27.924   9.896
  922POPC   PO414184  25.925  27.489   9.432
  922POPC   GL114185  26.118  27.559   9.088
  922POPC   GL214186  26.167  27.240   8.993
  922POPC   C1A14187  25.980  27.627   8.695
  922POPC   D2A14188  25.993  27.886   8.382
  922POPC   C3A14189  25.887  27.726   7.971
  922POPC   C4A14190  25.676  27.371   7.808
  922POPC   C1B14191  26.442  27.397   8.677
  922POPC   C2B14192  26.327  27.460   8.274
  922POPC   C3B14193  26.496  27.340   7.910
  922POPC   C4B14194  26.219  27.430   7.694
  923POPC   NC314195  38.643  38.269   9.590
  923POPC   PO414196  38.489  38.902   9.564
  923POPC   GL114197  38.540  38.607   9.227
  923POPC   GL214198  38.894  38.626   9.271
  923POPC   C1A14199  38.405  38.366   8.850
  923POPC   D2A14200  38.379  38.128   8.463
  923POPC   C3A14201  38.270  38.379   8.090
  923POPC   C4A14202  38.422  38.403   7.677
  923POPC   C1B14203  38.908  38.381   8.882
  923POPC   C2B14204  38.783  38.429   8.450
  923POPC   C3B14205  38.749  38.219   8.070
  923POPC   C4B14206  38.942  38.290   7.684
  924POPC   NC314207  30.769  42.613   9.381
  924POPC   PO414208  30.915  43.258   9.655
  924POPC   GL114209  30.655  43.200   9.233
  924POPC   GL214210  30.363  42.947   9.268
  924POPC   C1A14211  30.802  43.285   8.752
  924POPC   D2A14212  30.896  43.394   8.298
  924POPC   C3A14213  30.886  43.051   8.014
  924POPC   C4A14214  31.019  42.869   7.629
  924POPC   C1B14215  30.329  43.140   8.844
  924POPC   C2B14216  30.501  43.090   8.404
  924POPC   C3B14217  30.363  43.157   7.981
  924POPC   C4B14218  30.551  43.030   7.588
  925POPC   NC314219  20.057  22.597   9.434
  925POPC   PO414220  19.776  21.917   9.415
  925POPC   GL114221  19.616  22.059   9.027
  925POPC   GL214222  19.706  22.411   9.057
  925POPC   C1A14223  19.524  22.162   8.602
  925POPC   D2A14224  19.688  22.195   8.232
  925POPC   C3A14225  19.447  22.120   7.892
  925POPC   C4A14226  19.670  22.281   7.557
  925POPC   C1B14227  19.956  22.419   8.671
  925POPC   C2B14228  20.149  22.422   8.257
  925POPC   C3B14229  20.130  22.355   7.815
  925POPC   C4B14230  19.971  22.689   7.534
  926POPC   NC314231  28.668   2.267   9.529
  926POPC   PO414232  28.326   1.746   9.423
  926POPC   GL114233  28.198   1.921   9.078
  926POPC   GL214234  28.489   2.094   8.995
  926POPC   C1A14235  28.178   1.740   8.679
  926POPC   D2A14236  28.476   1.729   8.378
  926POPC   C3A14237  28.242   1.637   8.054
  926POPC   C4A14238  28.477   1.917   7.817
  926POPC   C1B14239  28.120   2.236   8.683
  926POPC   C2B14240  28.086   2.152   8.209
  926POPC   C3B14241  28.153   2.349   7.790
  926POPC   C4B14242  28.451   2.247   7.433
  927POPC   NC314243  27.337  12.602   9.830
  927POPC   PO414244  26.800  12.882   9.469
  927POPC   GL114245  26.961  13.019   9.110
  927POPC   GL214246  26.615  13.106   9.028
  927POPC   C1A14247  27.061  12.893   8.725
  927POPC   D2A14248  26.843  12.980   8.350
  927POPC   C3A14249  26.853  12.701   8.029
  927POPC   C4A14250  27.108  12.619   7.662
  927POPC   C1B14251  26.585  12.705   8.775
  927POPC   C2B14252  26.367  12.647   8.377
  927POPC   C3B14253  26.393  12.443   7.987
  927POPC   C4B14254  26.584  12.559   7.607
  928POPC   NC314255  27.349  30.947   9.499
  928POPC   PO414256  28.046  30.754   9.580
  928POPC   GL114257  27.704  30.617   9.249
  928POPC   GL214258  27.566  30.908   9.047
  928POPC   C1A14259  27.469  30.444   8.858
  928POPC   D2A14260  27.396  30.689   8.464
  928POPC   C3A14261  27.528  30.550   8.036
  928POPC   C4A14262  27.818  30.471   7.676
  928POPC   C1B14263  27.177  31.018   8.805
  928POPC   C2B14264  27.176  31.139   8.337
  928POPC   C3B14265  27.518  31.106   8.036
  928POPC   C4B14266  27.511  30.873   7.649
  929POPC   NC314267  23.164  15.193   9.475
  929POPC   PO414268  22.492  15.212   9.491
  929POPC   GL114269  22.813  15.278   9.098
  929POPC   GL214270  23.178  15.434   9.042
  929POPC   C1A14271  22.933  15.227   8.649
  929POPC   D2A14272  23.113  14.989   8.296
  929POPC   C3A14273  22.875  14.928   7.888
  929POPC   C4A14274  22.565  15.286   7.785
  929POPC   C1B14275  23.439  15.296   8.680
  929POPC   C2B14276  23.308  15.459   8.280
  929POPC   C3B14277  23.032  15.391   7.951
  929POPC   C4B14278  22.967  15.286   7.467
  930POPC   NC314279  16.779  41.236   9.316
  930POPC   PO414280  16.612  41.720   9.744
  930POPC   GL114281  16.525  41.813   9.243
  930POPC   GL214282  16.686  41.618   9.000
  930POPC   C1A14283  16.341  41.911   8.799
  930POPC   D2A14284  16.515  41.686   8.438
  930POPC   C3A14285  16.544  41.697   7.980
  930POPC   C4A14286  16.681  41.381   7.670
  930POPC   C1B14287  16.942  41.510   8.690
  930POPC   C2B14288  17.068  41.711   8.322
  930POPC   C3B14289  17.052  41.663   7.874
  930POPC   C4B14290  16.896  41.750   7.416
  931POPC   NC314291   4.737  44.373   9.709
  931POPC   PO414292   5.316  44.067   9.508
  931POPC   GL114293   5.184  44.144   9.123
  931POPC   GL214294   5.291  43.785   9.033
  931POPC   C1A14295   5.095  44.122   8.702
  931POPC   D2A14296   5.284  43.851   8.402
  931POPC   C3A14297   5.210  43.896   7.964
  931POPC   C4A14298   5.382  43.910   7.551
  931POPC   C1B14299   4.965  43.609   8.755
  931POPC   C2B14300   4.791  43.626   8.356
  931POPC   C3B14301   4.803  43.576   7.952
  931POPC   C4B14302   4.942  43.664   7.550
  932POPC   NC314303   2.970  42.257   9.542
  932POPC   PO414304   2.407  42.018   9.503
  932POPC   GL114305   2.609  42.301   9.104
  932POPC   GL214306   2.998  42.401   9.050
  932POPC   C1A14307   2.700  42.500   8.650
  932POPC   D2A14308   3.035  42.543   8.302
  932POPC   C3A14309   2.897  42.525   7.882
  932POPC   C4A14310   2.597  42.243   7.743
  932POPC   C1B14311   3.066  42.114   8.686
  932POPC   C2B14312   3.216  42.055   8.237
  932POPC   C3B14313   3.175  42.093   7.771
  932POPC   C4B14314   3.121  42.129   7.321
  933POPC   NC314315  26.171  25.273   9.494
  933POPC   PO414316  25.549  25.083   9.489
  933POPC   GL114317  25.882  24.983   9.173
  933POPC   GL214318  26.246  24.897   9.155
  933POPC   C1A14319  25.976  25.249   8.820
  933POPC   D2A14320  25.871  25.497   8.463
  933POPC   C3A14321  25.848  25.332   8.087
  933POPC   C4A14322  25.968  25.422   7.709
  933POPC   C1B14323  26.415  24.983   8.778
  933POPC   C2B14324  26.206  25.067   8.396
  933POPC   C3B14325  26.341  25.212   8.016
  933POPC   C4B14326  26.275  25.033   7.624
  934POPC   NC314327  10.092  27.412   9.499
  934POPC   PO414328   9.649  27.865   9.520
  934POPC   GL114329   9.484  27.836   9.150
  934POPC   GL214330   9.583  27.485   9.105
  934POPC   C1A14331   9.649  27.934   8.755
  934POPC   D2A14332   9.789  27.669   8.413
  934POPC   C3A14333   9.854  27.800   7.979
  934POPC   C4A14334   9.756  27.740   7.544
  934POPC   C1B14335   9.371  27.499   8.697
  934POPC   C2B14336   9.436  27.300   8.269
  934POPC   C3B14337   9.607  27.304   7.826
  934POPC   C4B14338   9.538  27.343   7.317
  935POPC   NC314339  34.857  17.496   9.384
  935POPC   PO414340  34.412  17.009   9.452
  935POPC   GL114341  34.451  17.310   9.090
  935POPC   GL214342  34.171  17.578   8.972
  935POPC   C1A14343  34.722  17.385   8.761
  935POPC   D2A14344  34.855  17.228   8.344
  935POPC   C3A14345  34.697  17.406   7.974
  935POPC   C4A14346  34.470  17.302   7.609
  935POPC   C1B14347  34.460  17.818   8.739
  935POPC   C2B14348  34.658  17.747   8.381
  935POPC   C3B14349  34.461  17.873   8.079
  935POPC   C4B14350  34.524  17.941   7.709
  936POPC   NC314351  26.345  29.507   9.785
  936POPC   PO414352  26.417  28.883   9.569
  936POPC   GL114353  26.136  29.010   9.239
  936POPC   GL214354  26.052  28.726   9.082
  936POPC   C1A14355  26.020  29.186   8.810
  936POPC   D2A14356  26.237  29.279   8.414
  936POPC   C3A14357  26.099  29.334   7.975
  936POPC   C4A14358  26.271  29.340   7.550
  936POPC   C1B14359  25.970  28.703   8.680
  936POPC   C2B14360  26.024  28.777   8.264
  936POPC   C3B14361  26.043  28.700   7.854
  936POPC   C4B14362  25.987  28.899   7.538
  937POPC   NC314363   1.060  34.995   9.721
  937POPC   PO414364   1.282  34.462   9.391
  937POPC   GL114365   1.386  34.447   9.071
  937POPC   GL214366   1.670  34.611   9.033
  937POPC   C1A14367   1.216  34.645   8.724
  937POPC   D2A14368   1.317  34.581   8.318
  937POPC   C3A14369   0.935  34.582   8.075
  937POPC   C4A14370   0.944  34.588   7.655
  937POPC   C1B14371   1.622  34.295   8.666
  937POPC   C2B14372   1.374  34.071   8.347
  937POPC   C3B14373   1.332  34.194   7.903
  937POPC   C4B14374   1.553  34.087   7.511
  938POPC   NC314375  16.214  37.317   9.720
  938POPC   PO414376  15.746  36.788   9.496
  938POPC   GL114377  16.062  36.626   9.220
  938POPC   GL214378  16.084  36.927   9.068
  938POPC   C1A14379  16.068  36.489   8.786
  938POPC   D2A14380  16.125  36.640   8.378
  938POPC   C3A14381  15.895  36.507   8.040
  938POPC   C4A14382  16.060  36.594   7.641
  938POPC   C1B14383  15.843  36.967   8.709
  938POPC   C2B14384  15.652  36.881   8.307
  938POPC   C3B14385  15.899  37.005   7.937
  938POPC   C4B14386  15.808  36.989   7.494
  939POPC   NC314387  20.823  17.875   9.582
  939POPC   PO414388  20.144  17.761   9.494
  939POPC   GL114389  20.372  17.525   9.216
  939POPC   GL214390  20.740  17.475   9.239
  939POPC   C1A14391  20.467  17.592   8.797
  939POPC   D2A14392  20.753  17.539   8.465
  939POPC   C3A14393  20.619  17.501   8.051
  939POPC   C4A14394  20.895  17.693   7.764
  939POPC   C1B14395  20.829  17.230   8.876
  939POPC   C2B14396  20.906  17.022   8.532
  939POPC   C3B14397  21.035  17.212   8.180
  939POPC   C4B14398  20.927  17.190   7.784
  940POPC   NC314399  27.582  25.611   9.459
  940POPC   PO414400  27.851  25.002   9.443
  940POPC   GL114401  27.605  25.227   9.147
  940POPC   GL214402  27.224  25.339   9.201
  940POPC   C1A14403  27.616  25.390   8.756
  940POPC   D2A14404  27.895  25.399   8.408
  940POPC   C3A14405  27.682  25.317   8.022
  940POPC   C4A14406  27.839  25.379   7.607
  940POPC   C1B14407  27.258  24.974   8.896
  940POPC   C2B14408  27.245  25.085   8.456
  940POPC   C3B14409  27.292  24.925   8.036
  940POPC   C4B14410  27.308  25.203   7.686
  941POPC   NC314411  27.598  34.183   9.540
  941POPC   PO414412  27.700  33.472   9.619
  941POPC   GL114413  27.704  33.727   9.270
  941POPC   GL214414  27.947  33.984   9.191
  941POPC   C1A14415  27.752  33.629   8.858
  941POPC   D2A14416  27.878  33.827   8.507
  941POPC   C3A14417  27.644  33.734   8.163
  941POPC   C4A14418  27.701  33.721   7.734
  941POPC   C1B14419  27.580  34.098   8.881
  941POPC   C2B14420  27.563  34.250   8.450
  941POPC   C3B14421  27.484  34.195   8.009
  941POPC   C4B14422  27.834  34.277   7.764
  942POPC   NC314423   2.426   5.449   9.360
  942POPC   PO414424   1.839   5.610   9.516
  942POPC   GL114425   1.940   5.959   9.220
  942POPC   GL214426   2.240   5.890   9.157
  942POPC   C1A14427   1.793   6.007   8.788
  942POPC   D2A14428   1.941   5.932   8.325
  942POPC   C3A14429   1.775   5.723   7.906
  942POPC   C4A14430   1.752   5.759   7.403
  942POPC   C1B14431   2.126   5.636   8.801
  942POPC   C2B14432   2.301   5.513   8.428
  942POPC   C3B14433   2.364   5.674   8.052
  942POPC   C4B14434   2.228   5.858   7.705
  943POPC   NC314435  23.778  36.177   9.872
  943POPC   PO414436  23.888  35.679   9.413
  943POPC   GL114437  23.680  35.947   9.159
  943POPC   GL214438  23.579  36.257   9.343
  943POPC   C1A14439  23.845  36.092   8.773
  943POPC   D2A14440  24.021  36.298   8.451
  943POPC   C3A14441  23.830  36.195   8.048
  943POPC   C4A14442  23.701  36.031   7.643
  943POPC   C1B14443  23.447  36.364   8.907
  943POPC   C2B14444  23.529  36.413   8.471
  943POPC   C3B14445  23.432  36.522   8.037
  943POPC   C4B14446  23.290  36.239   7.807
  944POPC   NC314447  11.359   6.688   9.573
  944POPC   PO414448  10.884   7.050   9.342
  944POPC   GL114449  11.079   6.621   9.137
  944POPC   GL214450  11.465   6.472   9.138
  944POPC   C1A14451  11.262   6.652   8.700
  944POPC   D2A14452  11.350   6.956   8.363
  944POPC   C3A14453  11.095   6.923   7.999
  944POPC   C4A14454  11.146   6.700   7.621
  944POPC   C1B14455  11.672   6.369   8.762
  944POPC   C2B14456  11.718   6.522   8.317
  944POPC   C3B14457  11.539   6.576   7.897
  944POPC   C4B14458  11.528   6.392   7.431
  945POPC   NC314459   0.724  29.534   9.540
  945POPC   PO414460   0.271  30.003   9.755
  945POPC   GL114461   0.329  29.769   9.291
  945POPC   GL214462   0.409  30.019   9.055
  945POPC   C1A14463   0.524  29.596   8.831
  945POPC   D2A14464   0.614  29.698   8.372
  945POPC   C3A14465   0.400  29.576   8.006
  945POPC   C4A14466   0.121  29.905   7.847
  945POPC   C1B14467   0.680  30.103   8.753
  945POPC   C2B14468   0.571  30.223   8.361
  945POPC   C3B14469   0.601  30.215   7.930
  945POPC   C4B14470   0.555  30.449   7.528
  946POPC   NC314471   5.343  29.854   9.701
  946POPC   PO414472   6.040  30.022   9.584
  946POPC   GL114473   6.069  29.940   9.110
  946POPC   GL214474   5.763  30.101   8.906
  946POPC   C1A14475   6.121  29.894   8.634
  946POPC   D2A14476   5.920  29.653   8.312
  946POPC   C3A14477   5.991  29.775   7.936
  946POPC   C4A14478   5.787  29.755   7.603
  946POPC   C1B14479   5.705  30.469   8.657
  946POPC   C2B14480   5.663  30.479   8.200
  946POPC   C3B14481   5.764  30.212   7.833
  946POPC   C4B14482   5.800  30.273   7.385
  947POPC   NC314483  41.592  37.183   9.539
  947POPC   PO414484  41.930  36.606   9.702
  947POPC   GL114485  41.554  36.740   9.284
  947POPC   GL214486  41.607  37.028   9.046
  947POPC   C1A14487  41.496  36.617   8.798
  947POPC   D2A14488  41.549  36.550   8.316
  947POPC   C3A14489  41.695  36.865   7.970
  947POPC   C4A14490  41.619  36.855   7.505
  947POPC   C1B14491  41.301  37.062   8.648
  947POPC   C2B14492  41.262  37.002   8.199
  947POPC   C3B14493  41.270  37.150   7.735
  947POPC   C4B14494  41.431  37.254   7.265
  948POPC   NC314495  26.098  28.537   9.543
  948POPC   PO414496  25.647  28.094   9.760
  948POPC   GL114497  25.917  28.043   9.325
  948POPC   GL214498  26.242  28.162   9.221
  948POPC   C1A14499  25.931  28.151   8.831
  948POPC   D2A14500  25.748  28.335   8.427
  948POPC   C3A14501  25.942  28.255   8.046
  948POPC   C4A14502  25.942  28.156   7.629
  948POPC   C1B14503  26.383  28.398   8.860
  948POPC   C2B14504  26.259  28.341   8.456
  948POPC   C3B14505  26.427  28.436   8.087
  948POPC   C4B14506  26.399  28.315   7.708
  949POPC   NC314507   5.397  38.809   9.509
  949POPC   PO414508   5.962  39.255   9.530
  949POPC   GL114509   5.969  39.380   9.150
  949POPC   GL214510   5.696  39.126   9.107
  949POPC   C1A14511   5.920  39.375   8.731
  949POPC   D2A14512   5.870  39.108   8.389
  949POPC   C3A14513   5.762  39.298   8.024
  949POPC   C4A14514   6.051  39.360   7.668
  949POPC   C1B14515   5.628  38.867   8.766
  949POPC   C2B14516   5.440  38.855   8.354
  949POPC   C3B14517   5.587  38.777   7.950
  949POPC   C4B14518   5.667  39.036   7.608
  950POPC   NC314519  23.932   4.095   9.485
  950POPC   PO414520  23.671   3.436   9.505
  950POPC   GL114521  23.698   3.748   9.149
  950POPC   GL214522  23.853   3.448   9.020
  950POPC   C1A14523  23.664   3.770   8.666
  950POPC   D2A14524  23.941   3.468   8.444
  950POPC   C3A14525  23.854   3.420   8.034
  950POPC   C4A14526  23.956   3.646   7.660
  950POPC   C1B14527  23.473   3.343   8.837
  950POPC   C2B14528  23.457   3.308   8.401
  950POPC   C3B14529  23.342   3.556   8.051
  950POPC   C4B14530  23.445   3.655   7.630
  951POPC   NC314531   7.089  38.312   9.354
  951POPC   PO414532   6.401  38.447   9.434
  951POPC   GL114533   6.385  38.310   9.036
  951POPC   GL214534   6.709  38.172   9.037
  951POPC   C1A14535   6.569  38.558   8.722
  951POPC   D2A14536   6.883  38.691   8.426
  951POPC   C3A14537   6.753  38.533   8.046
  951POPC   C4A14538   6.444  38.601   7.726
  951POPC   C1B14539   7.011  38.232   8.689
  951POPC   C2B14540   7.225  38.262   8.280
  951POPC   C3B14541   7.156  38.292   7.826
  951POPC   C4B14542   6.807  38.320   7.543
  952POPC   NC314543  39.175   9.625   9.357
  952POPC   PO414544  38.507   9.431   9.604
  952POPC   GL114545  38.745   9.557   9.089
  952POPC   GL214546  38.989   9.799   8.899
  952POPC   C1A14547  38.890   9.429   8.599
  952POPC   D2A14548  39.076   9.783   8.360
  952POPC   C3A14549  39.046   9.775   7.917
  952POPC   C4A14550  39.112   9.981   7.503
  952POPC   C1B14551  39.373   9.554   8.750
  952POPC   C2B14552  39.462   9.398   8.354
  952POPC   C3B14553  39.548   9.693   8.059
  952POPC   C4B14554  39.511   9.710   7.665
  953POPC   NC314555  25.815  37.166   9.610
  953POPC   PO414556  26.182  36.565   9.618
  953POPC   GL114557  26.003  36.832   9.274
  953POPC   GL214558  26.260  36.811   9.077
  953POPC   C1A14559  25.824  36.933   8.830
  953POPC   D2A14560  25.737  36.751   8.391
  953POPC   C3A14561  25.812  37.011   8.021
  953POPC   C4A14562  25.999  37.110   7.618
  953POPC   C1B14563  26.154  36.569   8.686
  953POPC   C2B14564  26.225  36.717   8.274
  953POPC   C3B14565  26.174  36.676   7.849
  953POPC   C4B14566  25.813  36.617   7.662
  954POPC   NC314567   8.622  33.959   9.514
  954POPC   PO414568   9.084  33.485   9.469
  954POPC   GL114569   9.126  33.849   9.186
  954POPC   GL214570   8.871  34.108   9.112
  954POPC   C1A14571   9.144  33.897   8.745
  954POPC   D2A14572   9.344  33.784   8.374
  954POPC   C3A14573   9.121  33.911   8.040
  954POPC   C4A14574   8.953  33.772   7.663
  954POPC   C1B14575   8.646  33.895   8.773
  954POPC   C2B14576   8.676  33.945   8.333
  954POPC   C3B14577   8.533  33.835   7.914
  954POPC   C4B14578   8.532  33.839   7.390
  955POPC   NC314579  39.228   6.746   9.576
  955POPC   PO414580  39.916   6.879   9.528
  955POPC   GL114581  39.560   6.877   9.169
  955POPC   GL214582  39.142   6.808   9.063
  955POPC   C1A14583  39.522   6.643   8.783
  955POPC   D2A14584  39.164   6.647   8.484
  955POPC   C3A14585  39.267   6.755   8.084
  955POPC   C4A14586  39.395   6.623   7.705
  955POPC   C1B14587  38.826   6.967   8.678
  955POPC   C2B14588  38.838   7.004   8.181
  955POPC   C3B14589  38.862   6.771   7.746
  955POPC   C4B14590  38.926   6.971   7.325
  956POPC   NC314591   4.856  21.694   9.577
  956POPC   PO414592   5.322  21.163   9.661
  956POPC   GL114593   5.308  21.415   9.284
  956POPC   GL214594   4.984  21.406   9.162
  956POPC   C1A14595   5.373  21.357   8.813
  956POPC   D2A14596   5.306  21.592   8.414
  956POPC   C3A14597   5.381  21.355   8.039
  956POPC   C4A14598   5.296  21.113   7.689
  956POPC   C1B14599   5.160  21.796   8.928
  956POPC   C2B14600   5.012  21.991   8.553
  956POPC   C3B14601   4.984  21.934   8.099
  956POPC   C4B14602   4.987  21.573   7.768
  957POPC   NC314603   5.392   8.924   9.632
  957POPC   PO414604   5.964   8.631   9.540
  957POPC   GL114605   5.927   8.950   9.220
  957POPC   GL214606   5.601   8.827   9.180
  957POPC   C1A14607   5.885   8.974   8.748
  957POPC   D2A14608   6.004   8.695   8.388
  957POPC   C3A14609   5.969   8.832   7.945
  957POPC   C4A14610   6.040   8.823   7.494
  957POPC   C1B14611   5.556   8.567   8.827
  957POPC   C2B14612   5.466   8.733   8.427
  957POPC   C3B14613   5.500   8.614   8.019
  957POPC   C4B14614   5.533   8.813   7.609
  958POPC   NC314615  25.616  33.564   9.367
  958POPC   PO414616  26.313  33.757   9.472
  958POPC   GL114617  26.104  33.882   9.121
  958POPC   GL214618  26.052  33.559   8.969
  958POPC   C1A14619  26.206  33.925   8.667
  958POPC   D2A14620  26.074  33.695   8.333
  958POPC   C3A14621  26.134  33.933   7.989
  958POPC   C4A14622  25.947  33.779   7.660
  958POPC   C1B14623  25.708  33.376   8.747
  958POPC   C2B14624  25.587  33.528   8.369
  958POPC   C3B14625  25.695  33.444   7.963
  958POPC   C4B14626  25.950  33.241   7.720
  959POPC   NC314627  10.126  28.774   9.435
  959POPC   PO414628   9.682  29.278   9.542
  959POPC   GL114629   9.758  29.134   9.162
  959POPC   GL214630   9.592  28.857   9.048
  959POPC   C1A14631   9.803  29.314   8.753
  959POPC   D2A14632   9.661  29.088   8.396
  959POPC   C3A14633   9.739  29.274   8.024
  959POPC   C4A14634   9.816  29.125   7.618
  959POPC   C1B14635   9.957  28.819   8.728
  959POPC   C2B14636  10.039  28.751   8.257
  959POPC   C3B14637  10.231  28.910   7.848
  959POPC   C4B14638  10.244  28.994   7.369
  960POPC   NC314639  34.432  22.964   9.448
  960POPC   PO414640  35.016  22.682   9.466
  960POPC   GL114641  34.845  22.722   9.104
  960POPC   GL214642  34.745  23.055   9.049
  960POPC   C1A14643  34.729  22.625   8.699
  960POPC   D2A14644  34.446  22.721   8.370
  960POPC   C3A14645  34.637  22.840   7.989
  960POPC   C4A14646  34.761  22.690   7.570
  960POPC   C1B14647  34.400  23.093   8.768
  960POPC   C2B14648  34.415  23.274   8.371
  960POPC   C3B14649  34.237  23.194   7.990
  960POPC   C4B14650  34.277  22.988   7.603
  961POPC   NC314651  39.338  37.725   9.563
  961POPC   PO414652  39.656  37.126   9.423
  961POPC   GL114653  39.439  37.488   9.132
  961POPC   GL214654  39.557  37.864   9.134
  961POPC   C1A14655  39.156  37.452   8.751
  961POPC   D2A14656  39.051  37.239   8.337
  961POPC   C3A14657  39.174  37.434   7.968
  961POPC   C4A14658  39.007  37.817   7.861
  961POPC   C1B14659  39.568  37.758   8.723
  961POPC   C2B14660  39.488  37.545   8.362
  961POPC   C3B14661  39.503  37.820   8.031
  961POPC   C4B14662  39.426  38.098   7.685
  962POPC   NC314663  11.138  35.954  10.019
  962POPC   PO414664  11.027  36.161   9.364
  962POPC   GL114665  11.148  35.965   9.028
  962POPC   GL214666  11.464  36.098   9.082
  962POPC   C1A14667  11.316  35.982   8.606
  962POPC   D2A14668  11.579  35.848   8.309
  962POPC   C3A14669  11.457  36.070   7.949
  962POPC   C4A14670  11.006  36.135   7.858
  962POPC   C1B14671  11.615  36.382   8.771
  962POPC   C2B14672  11.761  36.322   8.369
  962POPC   C3B14673  11.709  36.510   7.995
  962POPC   C4B14674  11.804  36.252   7.624
  963POPC   NC314675  22.538  25.142   9.533
  963POPC   PO414676  23.111  25.458   9.633
  963POPC   GL114677  22.849  25.486   9.276
  963POPC   GL214678  22.938  25.137   9.217
  963POPC   C1A14679  22.785  25.388   8.815
  963POPC   D2A14680  22.972  25.467   8.418
  963POPC   C3A14681  22.752  25.360   8.039
  963POPC   C4A14682  22.934  25.415   7.649
  963POPC   C1B14683  23.196  25.048   8.844
  963POPC   C2B14684  23.141  24.975   8.392
  963POPC   C3B14685  23.194  25.100   7.937
  963POPC   C4B14686  23.201  24.977   7.448
  964POPC   NC314687  14.695  39.867   9.452
  964POPC   PO414688  14.061  39.698   9.444
  964POPC   GL114689  14.278  39.841   9.098
  964POPC   GL214690  14.637  39.823   8.951
  964POPC   C1A14691  14.218  39.701   8.692
  964POPC   D2A14692  14.361  39.954   8.406
  964POPC   C3A14693  14.394  39.845   8.022
  964POPC   C4A14694  14.320  40.203   7.799
  964POPC   C1B14695  14.654  40.251   8.706
  964POPC   C2B14696  14.679  40.361   8.238
  964POPC   C3B14697  14.810  40.107   7.862
  964POPC   C4B14698  14.869  40.188   7.432
  965POPC   NC314699   7.877  33.948   9.330
  965POPC   PO414700   8.351  33.540   9.485
  965POPC   GL114701   8.292  33.761   9.108
  965POPC   GL214702   8.332  34.141   9.135
  965POPC   C1A14703   8.223  33.603   8.697
  965POPC   D2A14704   8.379  33.510   8.312
  965POPC   C3A14705   8.088  33.540   7.989
  965POPC   C4A14706   8.121  33.778   7.650
  965POPC   C1B14707   8.186  34.143   8.711
  965POPC   C2B14708   8.108  33.956   8.316
  965POPC   C3B14709   7.917  34.117   7.952
  965POPC   C4B14710   7.639  34.248   7.629
  966POPC   NC314711   3.700   3.553   9.706
  966POPC   PO414712   3.428   3.141   9.297
  966POPC   GL114713   3.587   3.387   9.042
  966POPC   GL214714   3.727   3.669   9.199
  966POPC   C1A14715   3.680   3.220   8.661
  966POPC   D2A14716   3.789   3.434   8.327
  966POPC   C3A14717   3.404   3.601   8.174
  966POPC   C4A14718   3.458   3.438   7.756
  966POPC   C1B14719   3.764   3.775   8.765
  966POPC   C2B14720   3.808   3.927   8.353
  966POPC   C3B14721   3.808   3.780   7.942
  966POPC   C4B14722   3.809   4.099   7.740
  967POPC   NC314723   5.082  26.754   9.751
  967POPC   PO414724   4.487  27.053   9.531
  967POPC   GL114725   4.730  26.897   9.159
  967POPC   GL214726   5.107  26.920   9.182
  967POPC   C1A14727   4.882  26.769   8.731
  967POPC   D2A14728   5.105  26.972   8.377
  967POPC   C3A14729   5.074  26.804   7.951
  967POPC   C4A14730   4.797  26.541   7.730
  967POPC   C1B14731   5.325  27.191   8.798
  967POPC   C2B14732   5.400  27.405   8.380
  967POPC   C3B14733   5.259  27.272   7.968
  967POPC   C4B14734   5.428  27.112   7.578
  968POPC   NC314735  25.521  12.501   9.516
  968POPC   PO414736  25.107  11.943   9.350
  968POPC   GL114737  25.394  12.195   9.137
  968POPC   GL214738  25.646  11.950   9.208
  968POPC   C1A14739  25.363  12.392   8.722
  968POPC   D2A14740  25.060  12.433   8.340
  968POPC   C3A14741  25.307  12.369   7.940
  968POPC   C4A14742  25.414  12.258   7.528
  968POPC   C1B14743  25.495  11.893   8.758
  968POPC   C2B14744  25.383  12.034   8.336
  968POPC   C3B14745  25.435  11.847   7.928
  968POPC   C4B14746  25.273  11.782   7.485
  969POPC   NC314747  31.064  40.869   9.645
  969POPC   PO414748  31.531  40.491   9.365
  969POPC   GL114749  31.431  40.813   9.078
  969POPC   GL214750  31.710  41.081   9.022
  969POPC   C1A14751  31.442  40.695   8.661
  969POPC   D2A14752  31.187  40.770   8.329
  969POPC   C3A14753  31.155  40.526   7.977
  969POPC   C4A14754  31.445  40.514   7.633
  969POPC   C1B14755  31.451  41.211   8.687
  969POPC   C2B14756  31.399  41.257   8.250
  969POPC   C3B14757  31.434  40.965   7.908
  969POPC   C4B14758  31.814  40.852   7.729
  970POPC   NC314759  33.987  28.855  10.144
  970POPC   PO414760  33.889  29.297   9.603
  970POPC   GL114761  33.907  29.179   9.184
  970POPC   GL214762  33.753  28.861   9.034
  970POPC   C1A14763  33.733  29.312   8.820
  970POPC   D2A14764  33.895  29.197   8.445
  970POPC   C3A14765  34.007  29.509   8.151
  970POPC   C4A14766  33.794  29.344   7.814
  970POPC   C1B14767  34.160  28.917   8.828
  970POPC   C2B14768  34.276  28.796   8.407
  970POPC   C3B14769  34.100  28.980   8.022
  970POPC   C4B14770  33.783  28.842   7.736
  971POPC   NC314771   5.378   9.892   9.383
  971POPC   PO414772   5.353  10.537   9.528
  971POPC   GL114773   5.156  10.349   9.213
  971POPC   GL214774   5.480  10.355   9.066
  971POPC   C1A14775   5.015  10.479   8.813
  971POPC   D2A14776   4.781  10.458   8.441
  971POPC   C3A14777   4.981  10.504   8.051
  971POPC   C4A14778   4.852  10.199   7.745
  971POPC   C1B14779   5.533  10.645   8.713
  971POPC   C2B14780   5.522  10.678   8.243
  971POPC   C3B14781   5.411  10.659   7.796
  971POPC   C4B14782   5.477  10.579   7.347
  972POPC   NC314783  42.101   6.661   9.533
  972POPC   PO414784  42.743   6.385   9.454
  972POPC   GL114785  42.368   6.389   9.171
  972POPC   GL214786  42.001   6.467   9.096
  972POPC   C1A14787  42.231   6.223   8.741
  972POPC   D2A14788  42.354   6.383   8.373
  972POPC   C3A14789  42.197   6.278   7.992
  972POPC   C4A14790  42.373   6.395   7.578
  972POPC   C1B14791  42.222   6.723   8.803
  972POPC   C2B14792  42.241   6.873   8.361
  972POPC   C3B14793  42.322   6.777   7.944
  972POPC   C4B14794  41.995   6.739   7.622
  973POPC   NC314795  29.416   3.930   9.408
  973POPC   PO414796  29.466   3.244   9.413
  973POPC   GL114797  29.146   3.440   9.180
  973POPC   GL214798  28.857   3.264   9.003
  973POPC   C1A14799  29.068   3.742   8.859
  973POPC   D2A14800  29.052   3.857   8.449
  973POPC   C3A14801  29.179   3.807   8.066
  973POPC   C4A14802  29.252   3.689   7.646
  973POPC   C1B14803  29.220   3.269   8.707
  973POPC   C2B14804  29.367   3.378   8.324
  973POPC   C3B14805  29.168   3.302   7.963
  973POPC   C4B14806  29.110   3.185   7.569
  974POPC   NC314807  16.759  33.287   9.939
  974POPC   PO414808  16.979  32.872   9.485
  974POPC   GL114809  16.710  33.187   9.257
  974POPC   GL214810  16.798  32.976   8.996
  974POPC   C1A14811  16.426  33.271   8.857
  974POPC   D2A14812  16.582  33.081   8.467
  974POPC   C3A14813  16.378  33.160   8.087
  974POPC   C4A14814  16.534  33.170   7.689
  974POPC   C1B14815  17.002  32.674   8.743
  974POPC   C2B14816  16.847  32.600   8.340
  974POPC   C3B14817  16.828  32.881   7.997
  974POPC   C4B14818  17.085  32.748   7.628
  975POPC   NC314819  17.111  16.045   9.593
  975POPC   PO414820  16.547  15.684   9.689
  975POPC   GL114821  16.749  15.861   9.252
  975POPC   GL214822  16.951  16.190   9.142
  975POPC   C1A14823  16.839  15.897   8.763
  975POPC   D2A14824  16.927  15.765   8.323
  975POPC   C3A14825  16.727  15.953   7.991
  975POPC   C4A14826  16.450  16.300   7.952
  975POPC   C1B14827  16.911  16.445   8.771
  975POPC   C2B14828  16.831  16.329   8.335
  975POPC   C3B14829  16.976  16.418   7.905
  975POPC   C4B14830  17.329  16.294   7.648
  976POPC   NC314831  22.993  10.266   9.817
  976POPC   PO414832  22.787   9.602   9.598
  976POPC   GL114833  22.914   9.602   9.190
  976POPC   GL214834  22.593   9.488   9.126
  976POPC   C1A14835  23.124   9.747   8.812
  976POPC   D2A14836  23.004   9.960   8.430
  976POPC   C3A14837  23.133   9.831   8.003
  976POPC   C4A14838  23.175  10.065   7.609
  976POPC   C1B14839  22.594   9.818   8.815
  976POPC   C2B14840  22.561   9.708   8.400
  976POPC   C3B14841  22.679   9.578   8.013
  976POPC   C4B14842  22.710   9.861   7.689
  977POPC   NC314843  40.424  39.872   9.510
  977POPC   PO414844  39.894  40.314   9.730
  977POPC   GL114845  40.001  40.149   9.313
  977POPC   GL214846  40.126  40.400   9.091
  977POPC   C1A14847  40.037  39.908   8.904
  977POPC   D2A14848  40.039  40.000   8.456
  977POPC   C3A14849  39.862  39.793   8.093
  977POPC   C4A14850  40.009  39.944   7.742
  977POPC   C1B14851  39.718  40.322   8.861
  977POPC   C2B14852  39.584  40.214   8.455
  977POPC   C3B14853  39.781  40.288   8.069
  977POPC   C4B14854  39.618  40.261   7.716
  978POPC   NC314855  38.682  26.232   9.657
  978POPC   PO414856  38.178  25.722   9.512
  978POPC   GL114857  38.421  25.835   9.129
  978POPC   GL214858  38.472  26.174   9.157
  978POPC   C1A14859  38.256  26.012   8.698
  978POPC   D2A14860  38.462  25.986   8.284
  978POPC   C3A14861  38.246  26.267   7.986
  978POPC   C4A14862  37.987  26.171   7.619
  978POPC   C1B14863  38.728  26.079   8.773
  978POPC   C2B14864  38.847  26.309   8.376
  978POPC   C3B14865  38.753  26.290   7.884
  978POPC   C4B14866  38.810  26.057   7.435
  979POPC   NC314867  17.313  16.636   9.315
  979POPC   PO414868  17.735  17.103   9.479
  979POPC   GL114869  17.689  16.946   9.090
  979POPC   GL214870  17.437  17.197   9.045
  979POPC   C1A14871  17.680  16.624   8.765
  979POPC   D2A14872  17.821  16.488   8.375
  979POPC   C3A14873  17.546  16.499   8.055
  979POPC   C4A14874  17.730  16.586   7.687
  979POPC   C1B14875  17.230  16.939   8.727
  979POPC   C2B14876  17.382  16.904   8.308
  979POPC   C3B14877  17.445  17.005   7.859
  979POPC   C4B14878  17.218  16.770   7.584
  980POPC   NC314879  11.255  43.512   9.707
  980POPC   PO414880  11.517  44.118   9.510
  980POPC   GL114881  11.328  44.006   9.140
  980POPC   GL214882  11.610  44.157   8.973
  980POPC   C1A14883  11.153  44.074   8.722
  980POPC   D2A14884  11.423  44.219   8.368
  980POPC   C3A14885  11.308  44.060   7.955
  980POPC   C4A14886  11.032  43.761   7.803
  980POPC   C1B14887  11.588  43.806   8.695
  980POPC   C2B14888  11.305  43.683   8.365
  980POPC   C3B14889  11.491  43.562   8.008
  980POPC   C4B14890  11.549  43.204   7.793
  981POPC   NC314891  12.474  27.074   9.320
  981POPC   PO414892  12.096  27.644   9.494
  981POPC   GL114893  11.924  27.623   9.100
  981POPC   GL214894  11.697  27.436   9.160
  981POPC   C1A14895  11.975  27.723   8.676
  981POPC   D2A14896  11.826  27.586   8.295
  981POPC   C3A14897  12.064  27.638   7.934
  981POPC   C4A14898  12.075  28.010   7.702
  981POPC   C1B14899  11.687  27.309   8.743
  981POPC   C2B14900  11.470  27.217   8.344
  981POPC   C3B14901  11.645  27.264   7.918
  981POPC   C4B14902  12.027  27.145   7.709
  982POPC   NC314903  28.327  25.820   9.657
  982POPC   PO414904  28.875  26.190   9.452
  982POPC   GL114905  28.591  26.065   9.124
  982POPC   GL214906  28.254  26.006   9.189
  982POPC   C1A14907  28.383  26.172   8.730
  982POPC   D2A14908  28.336  26.464   8.402
  982POPC   C3A14909  28.296  26.201   8.047
  982POPC   C4A14910  28.629  26.092   7.752
  982POPC   C1B14911  28.114  25.750   8.832
  982POPC   C2B14912  28.186  25.818   8.396
  982POPC   C3B14913  28.136  25.654   7.974
  982POPC   C4B14914  28.174  25.932   7.624
  983POPC   NC314915  42.623   8.846   9.489
  983POPC   PO414916  42.066   9.221   9.613
  983POPC   GL114917  42.098   8.994   9.204
  983POPC   GL214918  42.378   8.904   9.058
  983POPC   C1A14919  41.988   8.914   8.731
  983POPC   D2A14920  42.239   8.993   8.330
  983POPC   C3A14921  42.110   8.913   7.894
  983POPC   C4A14922  42.238   9.026   7.484
  983POPC   C1B14923  42.581   9.105   8.725
  983POPC   C2B14924  42.769   9.235   8.353
  983POPC   C3B14925  42.618   9.058   7.979
  983POPC   C4B14926  42.612   8.703   7.723
  984POPC   NC314927  24.419  39.655   9.628
  984POPC   PO414928  25.010  39.474   9.627
  984POPC   GL114929  24.753  39.300   9.293
  984POPC   GL214930  24.998  39.167   9.088
  984POPC   C1A14931  24.582  39.296   8.813
  984POPC   D2A14932  24.534  39.495   8.360
  984POPC   C3A14933  24.455  39.244   7.965
  984POPC   C4A14934  24.081  39.062   7.785
  984POPC   C1B14935  24.939  39.640   8.933
  984POPC   C2B14936  24.996  39.703   8.445
  984POPC   C3B14937  24.925  39.467   8.012
  984POPC   C4B14938  24.769  39.429   7.582
  985POPC   NC314939  10.151  39.883   9.480
  985POPC   PO414940   9.773  40.362   9.804
  985POPC   GL114941   9.711  40.159   9.321
  985POPC   GL214942   9.773  39.805   9.173
  985POPC   C1A14943   9.637  40.131   8.816
  985POPC   D2A14944   9.853  40.128   8.385
  985POPC   C3A14945   9.636  40.017   7.983
  985POPC   C4A14946   9.776  40.069   7.547
  985POPC   C1B14947  10.051  39.855   8.812
  985POPC   C2B14948  10.192  39.726   8.446
  985POPC   C3B14949  10.057  39.726   8.057
  985POPC   C4B14950  10.196  39.806   7.638
  986POPC   NC314951  35.191   1.952   9.483
  986POPC   PO414952  35.781   2.154   9.293
  986POPC   GL114953  35.649   1.999   8.951
  986POPC   GL214954  35.432   1.768   9.085
  986POPC   C1A14955  35.382   2.212   8.674
  986POPC   D2A14956  35.076   2.137   8.365
  986POPC   C3A14957  35.299   2.156   7.974
  986POPC   C4A14958  35.217   2.105   7.545
  986POPC   C1B14959  35.252   1.665   8.712
  986POPC   C2B14960  35.413   1.740   8.322
  986POPC   C3B14961  35.292   1.627   7.929
  986POPC   C4B14962  35.594   1.786   7.677
  987POPC   NC314963  31.491  15.695   9.648
  987POPC   PO414964  30.937  16.124   9.505
  987POPC   GL114965  31.238  15.920   9.233
  987POPC   GL214966  31.628  15.814   9.180
  987POPC   C1A14967  31.369  16.087   8.830
  987POPC   D2A14968  31.641  16.083   8.495
  987POPC   C3A14969  31.379  16.118   8.153
  987POPC   C4A14970  31.541  16.028   7.758
  987POPC   C1B14971  31.365  15.573   8.883
  987POPC   C2B14972  31.249  15.704   8.460
  987POPC   C3B14973  31.373  15.624   8.042
  987POPC   C4B14974  31.222  15.423   7.678
  988POPC   NC314975  26.480   6.018   9.515
  988POPC   PO414976  27.035   5.735   9.668
  988POPC   GL114977  26.838   5.705   9.254
  988POPC   GL214978  27.150   5.482   9.209
  988POPC   C1A14979  26.543   5.774   8.860
  988POPC   D2A14980  26.430   5.684   8.394
  988POPC   C3A14981  26.610   5.864   7.999
  988POPC   C4A14982  26.662   6.162   7.630
  988POPC   C1B14983  26.974   5.533   8.799
  988POPC   C2B14984  27.023   5.678   8.394
  988POPC   C3B14985  27.069   5.578   7.976
  988POPC   C4B14986  26.936   5.713   7.596
  989POPC   NC314987  13.773  40.065   9.461
  989POPC   PO414988  13.247  39.536   9.459
  989POPC   GL114989  13.549  39.739   9.150
  989POPC   GL214990  13.425  40.095   9.070
  989POPC   C1A14991  13.827  39.993   8.820
  989POPC   D2A14992  13.671  40.174   8.464
  989POPC   C3A14993  13.878  39.994   8.149
  989POPC   C4A14994  13.833  40.247   7.834
  989POPC   C1B14995  13.323  39.843   8.712
  989POPC   C2B14996  13.426  39.735   8.312
  989POPC   C3B14997  13.393  39.955   7.933
  989POPC   C4B14998  13.274  39.696   7.629
  990POPC   NC314999  35.682  23.965   9.538
  990POPC   PO415000  35.062  24.292   9.460
  990POPC   GL115001  35.238  24.440   9.088
  990POPC   GL215002  35.590  24.334   9.170
  990POPC   C1A15003  35.221  24.650   8.662
  990POPC   D2A15004  35.395  24.898   8.312
  990POPC   C3A15005  35.338  24.732   7.930
  990POPC   C4A15006  35.141  24.310   7.922
  990POPC   C1B15007  35.554  24.227   8.736
  990POPC   C2B15008  35.575  24.390   8.321
  990POPC   C3B15009  35.755  24.229   7.968
  990POPC   C4B15010  35.943  24.367   7.637
  991POPC   NC315011  38.992   3.493   9.541
  991POPC   PO415012  39.651   3.648   9.401
  991POPC   GL115013  39.289   3.476   9.118
  991POPC   GL215014  38.953   3.707   9.077
  991POPC   C1A15015  39.236   3.529   8.675
  991POPC   D2A15016  39.409   3.709   8.322
  991POPC   C3A15017  39.147   3.718   7.991
  991POPC   C4A15018  39.425   3.732   7.614
  991POPC   C1B15019  38.837   3.292   8.900
  991POPC   C2B15020  38.898   3.193   8.461
  991POPC   C3B15021  38.817   3.286   8.022
  991POPC   C4B15022  39.065   3.356   7.641
  992POPC   NC315023  35.381   3.806   9.881
  992POPC   PO415024  35.689   3.334   9.600
  992POPC   GL115025  35.474   3.590   9.260
  992POPC   GL215026  35.208   3.382   9.191
  992POPC   C1A15027  35.223   3.777   8.861
  992POPC   D2A15028  35.019   3.665   8.438
  992POPC   C3A15029  35.150   3.844   8.041
  992POPC   C4A15030  35.307   3.677   7.641
  992POPC   C1B15031  35.408   3.195   8.840
  992POPC   C2B15032  35.488   3.289   8.427
  992POPC   C3B15033  35.353   3.380   8.072
  992POPC   C4B15034  35.325   3.164   7.727
  993POPC   NC315035  43.682  37.817   9.360
  993POPC   PO415036  43.410  37.195   9.318
  993POPC   GL115037  43.758  37.393   9.058
  993POPC   GL215038  44.003  37.695   8.990
  993POPC   C1A15039  43.833  37.422   8.604
  993POPC   D2A15040  44.102  37.661   8.359
  993POPC   C3A15041  43.922  37.645   7.943
  993POPC   C4A15042  43.843  37.783   7.536
  993POPC   C1B15043  43.732  37.912   8.685
  993POPC   C2B15044  43.596  37.874   8.265
  993POPC   C3B15045  43.626  38.107   7.871
  993POPC   C4B15046  43.458  38.110   7.455
  994POPC   NC315047   6.779  20.160   9.558
  994POPC   PO415048   6.552  19.478   9.554
  994POPC   GL115049   6.497  19.694   9.171
  994POPC   GL215050   6.308  19.987   9.226
  994POPC   C1A15051   6.736  19.740   8.804
  994POPC   D2A15052   6.527  19.946   8.471
  994POPC   C3A15053   6.697  19.911   8.068
  994POPC   C4A15054   6.788  19.792   7.645
  994POPC   C1B15055   6.187  20.220   8.875
  994POPC   C2B15056   6.352  20.437   8.526
  994POPC   C3B15057   6.218  20.381   8.112
  994POPC   C4B15058   6.296  20.078   7.780
  995POPC   NC315059  11.232  13.913   9.663
  995POPC   PO415060  11.272  13.282   9.508
  995POPC   GL115061  11.069  13.391   9.153
  995POPC   GL215062  11.120  13.742   9.196
  995POPC   C1A15063  11.202  13.416   8.732
  995POPC   D2A15064  11.328  13.215   8.338
  995POPC   C3A15065  11.390  13.438   7.973
  995POPC   C4A15066  11.100  13.621   7.703
  995POPC   C1B15067  10.927  13.967   8.887
  995POPC   C2B15068  11.000  13.828   8.476
  995POPC   C3B15069  11.183  13.966   8.093
  995POPC   C4B15070  10.974  14.108   7.740
  996POPC   NC315071  32.495   4.591   9.812
  996POPC   PO415072  31.985   4.246   9.513
  996POPC   GL115073  32.168   4.467   9.180
  996POPC   GL215074  32.491   4.314   9.154
  996POPC   C1A15075  32.014   4.414   8.749
  996POPC   D2A15076  32.140   4.553   8.336
  996POPC   C3A15077  31.971   4.322   7.986
  996POPC   C4A15078  31.985   4.366   7.541
  996POPC   C1B15079  32.503   4.513   8.733
  996POPC   C2B15080  32.652   4.409   8.330
  996POPC   C3B15081  32.481   4.402   7.906
  996POPC   C4B15082  32.516   4.361   7.439
  997POPC   NC315083  11.825  25.440   9.306
  997POPC   PO415084  11.223  25.154   9.488
  997POPC   GL115085  11.325  25.393   9.172
  997POPC   GL215086  11.520  25.128   9.038
  997POPC   C1A15087  11.259  25.550   8.772
  997POPC   D2A15088  11.113  25.345   8.419
  997POPC   C3A15089  11.211  25.536   8.074
  997POPC   C4A15090  11.243  25.499   7.665
  997POPC   C1B15091  11.430  24.929   8.664
  997POPC   C2B15092  11.260  24.883   8.261
  997POPC   C3B15093  11.338  25.037   7.871
  997POPC   C4B15094  11.708  25.248   7.713
  998POPC   NC315095  38.695  19.471   9.534
  998POPC   PO415096  38.255  18.925   9.644
  998POPC   GL115097  38.415  18.832   9.209
  998POPC   GL215098  38.737  18.941   9.145
  998POPC   C1A15099  38.397  19.065   8.751
  998POPC   D2A15100  38.276  19.198   8.302
  998POPC   C3A15101  38.461  19.218   7.857
  998POPC   C4A15102  38.772  19.200   7.504
  998POPC   C1B15103  38.615  18.613   8.810
  998POPC   C2B15104  38.383  18.683   8.424
  998POPC   C3B15105  38.428  18.737   8.008
  998POPC   C4B15106  38.628  18.571   7.685
  999POPC   NC315107  36.623  25.949   9.470
  999POPC   PO415108  37.266  26.096   9.361
  999POPC   GL115109  37.118  25.816   9.070
  999POPC   GL215110  36.762  25.865   9.005
  999POPC   C1A15111  37.327  25.758   8.671
  999POPC   D2A15112  37.259  26.085   8.392
  999POPC   C3A15113  37.003  26.049   8.006
  999POPC   C4A15114  37.135  26.140   7.579
  999POPC   C1B15115  36.881  26.195   8.738
  999POPC   C2B15116  36.656  26.297   8.349
  999POPC   C3B15117  36.522  26.224   7.935
  999POPC   C4B15118  36.679  26.380   7.549
 1000POPC   NC315119  23.053   6.881   9.767
 1000POPC   PO415120  22.575   6.427   9.584
 1000POPC   GL115121  22.884   6.550   9.249
 1000POPC   GL215122  23.150   6.316   9.182
 1000POPC   C1A15123  22.824   6.498   8.772
 1000POPC   D2A15124  22.573   6.576   8.357
 1000POPC   C3A15125  22.783   6.670   7.931
 1000POPC   C4A15126  23.127   6.873   7.687
 1000POPC   C1B15127  23.326   6.368   8.781
 1000POPC   C2B15128  23.200   6.605   8.404
 1000POPC   C3B15129  23.298   6.477   7.990
 1000POPC   C4B15130  23.186   6.387   7.570
 1001POPC   NC315131  11.815  34.763   9.491
 1001POPC   PO415132  12.132  34.194   9.441
 1001POPC   GL115133  11.921  34.357   9.152
 1001POPC   GL215134  12.054  34.652   9.072
 1001POPC   C1A15135  11.779  34.390   8.747
 1001POPC   D2A15136  11.706  34.559   8.365
 1001POPC   C3A15137  12.045  34.508   8.093
 1001POPC   C4A15138  12.019  34.259   7.733
 1001POPC   C1B15139  12.012  34.898   8.717
 1001POPC   C2B15140  12.229  35.059   8.347
 1001POPC   C3B15141  12.057  35.005   7.926
 1001POPC   C4B15142  11.889  34.752   7.565
 1002POPC   NC315143  10.935  20.815   9.660
 1002POPC   PO415144  11.543  20.504   9.656
 1002POPC   GL115145  11.318  20.545   9.262
 1002POPC   GL215146  11.628  20.646   9.136
 1002POPC   C1A15147  11.161  20.839   8.898
 1002POPC   D2A15148  11.064  20.772   8.417
 1002POPC   C3A15149  11.252  20.736   7.979
 1002POPC   C4A15150  11.153  20.386   7.675
 1002POPC   C1B15151  11.476  20.514   8.718
 1002POPC   C2B15152  11.616  20.581   8.286
 1002POPC   C3B15153  11.645  20.426   7.841
 1002POPC   C4B15154  11.577  20.436   7.360
 1003POPC   NC315155  35.674  11.401   9.440
 1003POPC   PO415156  36.323  11.404   9.511
 1003POPC   GL115157  36.316  11.131   9.175
 1003POPC   GL215158  36.082  11.423   9.046
 1003POPC   C1A15159  36.050  10.929   8.861
 1003POPC   D2A15160  35.983  11.253   8.561
 1003POPC   C3A15161  35.951  11.224   8.118
 1003POPC   C4A15162  36.174  11.155   7.739
 1003POPC   C1B15163  35.756  11.653   8.814
 1003POPC   C2B15164  35.658  11.638   8.393
 1003POPC   C3B15165  35.827  11.732   8.004
 1003POPC   C4B15166  35.777  11.471   7.677
 1004POPC   NC315167   5.499  22.238   9.311
 1004POPC   PO415168   5.967  22.585   9.612
 1004POPC   GL115169   6.058  22.371   9.157
 1004POPC   GL215170   5.771  22.175   8.915
 1004POPC   C1A15171   6.198  22.300   8.736
 1004POPC   D2A15172   5.952  22.245   8.362
 1004POPC   C3A15173   6.148  22.154   7.984
 1004POPC   C4A15174   6.158  22.314   7.538
 1004POPC   C1B15175   5.691  21.774   8.751
 1004POPC   C2B15176   5.879  21.716   8.373
 1004POPC   C3B15177   5.728  21.736   7.980
 1004POPC   C4B15178   5.807  21.974   7.644
 1005POPC   NC315179  24.803   4.071   9.746
 1005POPC   PO415180  24.247   4.478   9.470
 1005POPC   GL115181  24.301   4.483   9.047
 1005POPC   GL215182  24.286   4.157   9.045
 1005POPC   C1A15183  24.583   4.551   8.700
 1005POPC   D2A15184  24.227   4.466   8.498
 1005POPC   C3A15185  24.232   4.528   8.117
 1005POPC   C4A15186  24.499   4.405   7.810
 1005POPC   C1B15187  24.557   4.045   8.705
 1005POPC   C2B15188  24.561   4.116   8.262
 1005POPC   C3B15189  24.684   3.939   7.873
 1005POPC   C4B15190  24.707   4.085   7.475
 1006POPC   NC315191  33.803  27.968   9.510
 1006POPC   PO415192  33.949  28.638   9.701
 1006POPC   GL115193  33.986  28.460   9.271
 1006POPC   GL215194  33.657  28.397   9.248
 1006POPC   C1A15195  33.961  28.445   8.805
 1006POPC   D2A15196  34.078  28.323   8.380
 1006POPC   C3A15197  33.830  28.451   8.059
 1006POPC   C4A15198  33.958  28.325   7.641
 1006POPC   C1B15199  33.550  28.147   8.885
 1006POPC   C2B15200  33.449  28.204   8.453
 1006POPC   C3B15201  33.242  28.171   8.069
 1006POPC   C4B15202  33.466  28.313   7.707
 1007POPC   NC315203  39.522  42.518   9.311
 1007POPC   PO415204  39.034  42.004   9.480
 1007POPC   GL115205  39.281  42.058   9.131
 1007POPC   GL215206  38.981  42.215   9.008
 1007POPC   C1A15207  39.394  42.221   8.718
 1007POPC   D2A15208  39.238  42.195   8.341
 1007POPC   C3A15209  39.552  42.291   8.085
 1007POPC   C4A15210  39.385  42.387   7.728
 1007POPC   C1B15211  38.955  42.492   8.653
 1007POPC   C2B15212  38.905  42.645   8.218
 1007POPC   C3B15213  38.986  42.705   7.774
 1007POPC   C4B15214  39.259  42.765   7.386
 1008POPC   NC315215   0.081  40.957   9.819
 1008POPC   PO415216   0.592  40.747   9.460
 1008POPC   GL115217   0.550  40.924   9.074
 1008POPC   GL215218   0.396  40.614   8.983
 1008POPC   C1A15219   0.457  41.017   8.638
 1008POPC   D2A15220   0.624  40.882   8.233
 1008POPC   C3A15221   0.451  41.006   7.804
 1008POPC   C4A15222   0.320  41.121   7.361
 1008POPC   C1B15223   0.654  40.492   8.659
 1008POPC   C2B15224   0.588  40.272   8.316
 1008POPC   C3B15225   0.481  40.473   7.954
 1008POPC   C4B15226   0.853  40.676   7.804
 1009POPC   NC315227  12.566  13.153   9.346
 1009POPC   PO415228  12.246  12.553   9.626
 1009POPC   GL115229  12.019  12.700   9.274
 1009POPC   GL215230  12.324  12.749   9.155
 1009POPC   C1A15231  11.979  12.891   8.824
 1009POPC   D2A15232  12.033  12.771   8.391
 1009POPC   C3A15233  11.903  13.030   8.069
 1009POPC   C4A15234  11.800  13.217   7.703
 1009POPC   C1B15235  12.195  12.390   8.883
 1009POPC   C2B15236  12.081  12.273   8.462
 1009POPC   C3B15237  12.065  12.382   8.031
 1009POPC   C4B15238  12.031  12.683   7.725
 1010POPC   NC315239  43.391  31.816   9.507
 1010POPC   PO415240  43.063  32.496   9.644
 1010POPC   GL115241  42.904  32.411   9.259
 1010POPC   GL215242  43.046  32.104   9.220
 1010POPC   C1A15243  42.969  32.462   8.814
 1010POPC   D2A15244  42.785  32.352   8.420
 1010POPC   C3A15245  42.879  32.551   8.054
 1010POPC   C4A15246  43.115  32.443   7.745
 1010POPC   C1B15247  43.127  31.969   8.812
 1010POPC   C2B15248  43.262  32.161   8.404
 1010POPC   C3B15249  43.335  32.027   7.983
 1010POPC   C4B15250  42.983  31.817   7.762
 1011POPC   NC315251  19.499  36.069   9.483
 1011POPC   PO415252  20.171  36.043   9.389
 1011POPC   GL115253  19.850  36.215   9.109
 1011POPC   GL215254  19.477  36.259   9.017
 1011POPC   C1A15255  19.943  36.171   8.695
 1011POPC   D2A15256  20.230  36.199   8.377
 1011POPC   C3A15257  20.040  36.098   8.033
 1011POPC   C4A15258  19.901  36.372   7.752
 1011POPC   C1B15259  19.535  35.860   8.795
 1011POPC   C2B15260  19.655  35.903   8.364
 1011POPC   C3B15261  19.551  36.266   8.143
 1011POPC   C4B15262  19.435  36.161   7.745
 1012POPC   NC315263  39.108  29.597   9.896
 1012POPC   PO415264  39.566  29.627   9.460
 1012POPC   GL115265  39.359  29.925   9.200
 1012POPC   GL215266  39.328  29.610   8.973
 1012POPC   C1A15267  39.228  30.074   8.795
 1012POPC   D2A15268  39.104  30.138   8.390
 1012POPC   C3A15269  39.347  29.914   8.114
 1012POPC   C4A15270  39.451  30.105   7.740
 1012POPC   C1B15271  39.001  29.588   8.625
 1012POPC   C2B15272  38.919  29.555   8.171
 1012POPC   C3B15273  38.955  29.830   7.796
 1012POPC   C4B15274  38.867  29.783   7.356
 1013POPC   NC315275  20.148  19.979   9.484
 1013POPC   PO415276  19.655  19.542   9.451
 1013POPC   GL115277  19.777  19.826   9.155
 1013POPC   GL215278  20.130  19.691   9.071
 1013POPC   C1A15279  19.856  19.998   8.765
 1013POPC   D2A15280  20.098  19.858   8.435
 1013POPC   C3A15281  19.919  20.065   8.070
 1013POPC   C4A15282  19.721  20.074   7.684
 1013POPC   C1B15283  20.174  19.418   8.724
 1013POPC   C2B15284  20.320  19.369   8.300
 1013POPC   C3B15285  20.089  19.584   8.002
 1013POPC   C4B15286  20.161  19.829   7.673
 1014POPC   NC315287  32.572  18.819   9.412
 1014POPC   PO415288  31.923  19.076   9.424
 1014POPC   GL115289  32.033  18.835   9.065
 1014POPC   GL215290  32.340  19.047   8.995
 1014POPC   C1A15291  32.082  18.848   8.588
 1014POPC   D2A15292  32.314  19.104   8.282
 1014POPC   C3A15293  32.499  18.930   7.955
 1014POPC   C4A15294  32.185  18.835   7.699
 1014POPC   C1B15295  32.658  19.070   8.653
 1014POPC   C2B15296  32.765  19.347   8.306
 1014POPC   C3B15297  32.599  19.450   7.912
 1014POPC   C4B15298  32.446  19.265   7.484
 1015POPC   NC315299  44.629  26.065   9.630
 1015POPC   PO415300   0.103  26.357   9.287
 1015POPC   GL115301  44.762  26.158   9.133
 1015POPC   GL215302  44.483  25.945   9.158
 1015POPC   C1A15303  44.563  26.299   8.782
 1015POPC   D2A15304  44.820  26.176   8.448
 1015POPC   C3A15305  44.650  26.192   8.062
 1015POPC   C4A15306  44.896  26.267   7.709
 1015POPC   C1B15307  44.619  25.809   8.755
 1015POPC   C2B15308  44.408  25.869   8.393
 1015POPC   C3B15309  44.242  25.808   8.012
 1015POPC   C4B15310  44.501  25.899   7.680
 1016POPC   NC315311   5.521   9.738   9.863
 1016POPC   PO415312   4.924   9.818   9.519
 1016POPC   GL115313   4.992   9.653   9.167
 1016POPC   GL215314   4.927   9.934   9.002
 1016POPC   C1A15315   5.166   9.533   8.770
 1016POPC   D2A15316   5.103   9.740   8.378
 1016POPC   C3A15317   5.286   9.592   7.989
 1016POPC   C4A15318   5.113   9.331   7.690
 1016POPC   C1B15319   5.273  10.031   8.760
 1016POPC   C2B15320   5.322  10.248   8.420
 1016POPC   C3B15321   5.286  10.094   8.034
 1016POPC   C4B15322   5.369  10.176   7.646
 1017POPC   NC315323  22.575  11.619   9.446
 1017POPC   PO415324  22.973  12.151   9.704
 1017POPC   GL115325  22.895  12.033   9.301
 1017POPC   GL215326  23.210  11.965   9.197
 1017POPC   C1A15327  22.858  11.971   8.835
 1017POPC   D2A15328  22.891  12.227   8.435
 1017POPC   C3A15329  22.786  11.990   8.067
 1017POPC   C4A15330  22.716  12.092   7.631
 1017POPC   C1B15331  23.319  12.225   8.858
 1017POPC   C2B15332  23.390  12.093   8.432
 1017POPC   C3B15333  23.227  12.264   8.020
 1017POPC   C4B15334  23.191  11.952   7.683
 1018POPC   NC315335  27.673  24.570   9.432
 1018POPC   PO415336  28.165  24.054   9.390
 1018POPC   GL115337  27.746  24.082   9.135
 1018POPC   GL215338  27.344  24.021   9.046
 1018POPC   C1A15339  27.706  24.252   8.719
 1018POPC   D2A15340  27.899  24.440   8.367
 1018POPC   C3A15341  27.779  24.746   8.086
 1018POPC   C4A15342  27.884  24.459   7.805
 1018POPC   C1B15343  27.242  24.437   8.808
 1018POPC   C2B15344  27.431  24.611   8.448
 1018POPC   C3B15345  27.455  24.341   8.067
 1018POPC   C4B15346  27.253  24.122   7.716
 1019POPC   NC315347  38.016  18.520   9.699
 1019POPC   PO415348  38.435  18.083   9.560
 1019POPC   GL115349  38.382  18.295   9.171
 1019POPC   GL215350  38.748  18.211   9.117
 1019POPC   C1A15351  38.176  18.340   8.747
 1019POPC   D2A15352  38.024  18.327   8.337
 1019POPC   C3A15353  38.273  18.256   7.952
 1019POPC   C4A15354  38.174  18.413   7.514
 1019POPC   C1B15355  38.621  18.089   8.764
 1019POPC   C2B15356  38.603  18.236   8.386
 1019POPC   C3B15357  38.846  18.316   8.070
 1019POPC   C4B15358  38.749  18.041   7.752
 1020POPC   NC315359   9.020  41.310   9.475
 1020POPC   PO415360   8.971  42.020   9.525
 1020POPC   GL115361   8.762  41.763   9.216
 1020POPC   GL215362   9.069  41.642   9.059
 1020POPC   C1A15363   8.632  41.723   8.777
 1020POPC   D2A15364   8.871  41.611   8.427
 1020POPC   C3A15365   8.680  41.707   8.051
 1020POPC   C4A15366   8.963  41.704   7.735
 1020POPC   C1B15367   9.256  41.292   8.838
 1020POPC   C2B15368   9.368  41.142   8.433
 1020POPC   C3B15369   9.542  41.059   8.036
 1020POPC   C4B15370   9.301  41.190   7.708
 1021POPC   NC315371  36.113  42.144   9.371
 1021POPC   PO415372  35.996  42.789   9.357
 1021POPC   GL115373  35.999  42.503   9.012
 1021POPC   GL215374  35.834  42.152   8.955
 1021POPC   C1A15375  35.914  42.529   8.586
 1021POPC   D2A15376  35.668  42.656   8.244
 1021POPC   C3A15377  35.881  42.411   7.957
 1021POPC   C4A15378  36.292  42.548   7.800
 1021POPC   C1B15379  36.242  42.149   8.723
 1021POPC   C2B15380  36.189  42.066   8.285
 1021POPC   C3B15381  36.259  42.027   7.853
 1021POPC   C4B15382  36.115  41.996   7.420
 1022POPC   NC315383  24.995  21.611   9.422
 1022POPC   PO415384  25.373  20.984   9.395
 1022POPC   GL115385  25.205  21.240   9.073
 1022POPC   GL215386  25.316  21.593   9.043
 1022POPC   C1A15387  25.474  21.291   8.691
 1022POPC   D2A15388  25.662  21.425   8.332
 1022POPC   C3A15389  25.437  21.201   8.036
 1022POPC   C4A15390  25.333  21.087   7.640
 1022POPC   C1B15391  25.021  21.526   8.680
 1022POPC   C2B15392  24.925  21.573   8.223
 1022POPC   C3B15393  25.146  21.593   7.805
 1022POPC   C4B15394  25.026  21.774   7.409
 1023POPC   NC315395  22.377  23.763   9.891
 1023POPC   PO415396  22.080  23.265   9.623
 1023POPC   GL115397  22.231  23.404   9.184
 1023POPC   GL215398  22.558  23.321   9.074
 1023POPC   C1A15399  22.313  23.668   8.758
 1023POPC   D2A15400  22.423  23.873   8.340
 1023POPC   C3A15401  22.183  23.750   7.951
 1023POPC   C4A15402  22.091  23.929   7.537
 1023POPC   C1B15403  22.326  23.166   8.734
 1023POPC   C2B15404  22.137  23.302   8.363
 1023POPC   C3B15405  22.213  23.240   7.941
 1023POPC   C4B15406  22.282  23.442   7.504
 1024POPC   NC315407  10.880  43.612   9.220
 1024POPC   PO415408  10.545  43.960   9.666
 1024POPC   GL115409  10.268  43.941   9.305
 1024POPC   GL215410  10.198  43.612   9.172
 1024POPC   C1A15411  10.295  44.050   8.885
 1024POPC   D2A15412  10.651  44.039   8.568
 1024POPC   C3A15413  10.620  43.814   8.171
 1024POPC   C4A15414  10.584  43.985   7.782
 1024POPC   C1B15415  10.372  43.548   8.726
 1024POPC   C2B15416  10.237  43.434   8.290
 1024POPC   C3B15417  10.274  43.567   7.844
 1024POPC   C4B15418  10.591  43.570   7.509
 1025POPC   NC315419  35.553  17.238   9.234
 1025POPC   PO415420  35.862  16.721   9.580
 1025POPC   GL115421  35.520  16.721   9.269
 1025POPC   GL215422  35.224  16.525   9.167
 1025POPC   C1A15423  35.585  16.658   8.822
 1025POPC   D2A15424  35.536  16.321   8.500
 1025POPC   C3A15425  35.408  16.487   8.095
 1025POPC   C4A15426  35.503  16.778   7.757
 1025POPC   C1B15427  35.090  16.601   8.707
 1025POPC   C2B15428  34.927  16.711   8.294
 1025POPC   C3B15429  34.839  16.453   7.946
 1025POPC   C4B15430  35.164  16.406   7.655
 1026POPC   NC315431  44.350   8.399   9.560
 1026POPC   PO415432  44.850   8.025   9.449
 1026POPC   GL115433  44.703   8.320   9.185
 1026POPC   GL215434  44.391   8.100   9.135
 1026POPC   C1A15435  44.862   8.458   8.785
 1026POPC   D2A15436  44.891   8.607   8.351
 1026POPC   C3A15437  44.828   8.373   7.966
 1026POPC   C4A15438  44.475   8.107   7.843
 1026POPC   C1B15439  44.154   8.194   8.748
 1026POPC   C2B15440  44.312   8.444   8.386
 1026POPC   C3B15441  44.321   8.596   7.964
 1026POPC   C4B15442  44.565   8.578   7.551
 1027POPC   NC315443  14.911  25.022   9.556
 1027POPC   PO415444  14.410  24.541   9.484
 1027POPC   GL115445  14.577  24.509   9.099
 1027POPC   GL215446  14.290  24.310   9.008
 1027POPC   C1A15447  14.496  24.663   8.675
 1027POPC   D2A15448  14.166  24.537   8.352
 1027POPC   C3A15449  14.253  24.736   7.952
 1027POPC   C4A15450  14.664  24.657   7.769
 1027POPC   C1B15451  14.300  24.114   8.607
 1027POPC   C2B15452  14.254  24.020   8.184
 1027POPC   C3B15453  14.160  24.176   7.805
 1027POPC   C4B15454  13.870  24.112   7.448
 1028POPC   NC315455  29.997   3.314   9.688
 1028POPC   PO415456  29.702   2.716   9.530
 1028POPC   GL115457  29.847   2.516   9.180
 1028POPC   GL215458  30.224   2.594   9.157
 1028POPC   C1A15459  29.913   2.341   8.789
 1028POPC   D2A15460  30.225   2.374   8.486
 1028POPC   C3A15461  30.039   2.485   8.134
 1028POPC   C4A15462  30.095   2.414   7.724
 1028POPC   C1B15463  30.309   2.813   8.754
 1028POPC   C2B15464  30.464   2.944   8.342
 1028POPC   C3B15465  30.412   2.786   7.937
 1028POPC   C4B15466  30.038   2.923   7.779
 1029POPC   NC315467  31.937   9.921   9.575
 1029POPC   PO415468  32.422   9.476   9.494
 1029POPC   GL115469  32.230   9.731   9.180
 1029POPC   GL215470  32.288  10.096   9.189
 1029POPC   C1A15471  32.138   9.844   8.753
 1029POPC   D2A15472  32.367   9.726   8.420
 1029POPC   C3A15473  32.221   9.653   8.051
 1029POPC   C4A15474  32.142   9.591   7.622
 1029POPC   C1B15475  32.500  10.211   8.767
 1029POPC   C2B15476  32.558  10.173   8.300
 1029POPC   C3B15477  32.472  10.048   7.876
 1029POPC   C4B15478  32.685  10.104   7.463
 1030POPC   NC315479   8.861  23.409   9.567
 1030POPC   PO415480   9.003  24.049   9.390
 1030POPC   GL115481   8.981  23.642   9.113
 1030POPC   GL215482   8.637  23.514   9.130
 1030POPC   C1A15483   9.017  23.570   8.646
 1030POPC   D2A15484   9.196  23.929   8.395
 1030POPC   C3A15485   9.265  23.889   7.958
 1030POPC   C4A15486   8.966  23.776   7.632
 1030POPC   C1B15487   8.485  23.640   8.729
 1030POPC   C2B15488   8.643  23.852   8.378
 1030POPC   C3B15489   8.865  23.601   8.109
 1030POPC   C4B15490   8.544  23.481   7.855
 1031POPC   NC315491  34.831  31.839   9.816
 1031POPC   PO415492  34.608  32.422   9.638
 1031POPC   GL115493  34.553  32.178   9.225
 1031POPC   GL215494  34.578  32.508   9.100
 1031POPC   C1A15495  34.419  32.094   8.763
 1031POPC   D2A15496  34.372  31.920   8.325
 1031POPC   C3A15497  34.535  32.123   7.944
 1031POPC   C4A15498  34.552  32.249   7.504
 1031POPC   C1B15499  34.839  32.530   8.751
 1031POPC   C2B15500  34.864  32.686   8.343
 1031POPC   C3B15501  34.957  32.460   7.977
 1031POPC   C4B15502  34.943  32.584   7.554
 1032POPC   NC315503  29.839  24.697   9.523
 1032POPC   PO415504  29.948  25.358   9.619
 1032POPC   GL115505  29.801  25.171   9.236
 1032POPC   GL215506  30.057  24.932   9.140
 1032POPC   C1A15507  29.662  25.348   8.825
 1032POPC   D2A15508  29.872  25.357   8.408
 1032POPC   C3A15509  29.736  25.273   7.979
 1032POPC   C4A15510  29.819  25.554   7.596
 1032POPC   C1B15511  30.159  25.171   8.815
 1032POPC   C2B15512  30.338  25.144   8.443
 1032POPC   C3B15513  30.255  25.295   8.057
 1032POPC   C4B15514  30.151  25.133   7.677
 1033POPC   NC315515  25.067   5.515   9.513
 1033POPC   PO415516  25.428   5.998   9.476
 1033POPC   GL115517  25.278   6.078   9.064
 1033POPC   GL215518  25.241   5.739   9.060
 1033POPC   C1A15519  25.269   5.948   8.582
 1033POPC   D2A15520  25.448   5.739   8.181
 1033POPC   C3A15521  25.327   5.889   7.814
 1033POPC   C4A15522  25.267   6.315   7.798
 1033POPC   C1B15523  25.050   5.493   8.744
 1033POPC   C2B15524  24.973   5.611   8.313
 1033POPC   C3B15525  25.128   5.400   7.939
 1033POPC   C4B15526  25.169   5.496   7.499
 1034POPC   NC315527  39.298  17.027   9.514
 1034POPC   PO415528  38.990  16.562   9.416
 1034POPC   GL115529  39.169  16.737   9.063
 1034POPC   GL215530  39.019  17.053   9.108
 1034POPC   C1A15531  39.071  16.681   8.606
 1034POPC   D2A15532  39.328  16.805   8.232
 1034POPC   C3A15533  39.293  16.692   7.795
 1034POPC   C4A15534  39.521  16.815   7.394
 1034POPC   C1B15535  39.280  17.148   8.762
 1034POPC   C2B15536  39.173  17.321   8.385
 1034POPC   C3B15537  39.045  17.160   7.988
 1034POPC   C4B15538  39.267  17.174   7.627
 1035POPC   NC315539   8.700  22.023   9.301
 1035POPC   PO415540   9.039  22.464   9.585
 1035POPC   GL115541   9.140  22.240   9.141
 1035POPC   GL215542   9.021  21.896   8.950
 1035POPC   C1A15543   9.257  22.219   8.681
 1035POPC   D2A15544   8.961  22.194   8.337
 1035POPC   C3A15545   9.087  22.072   7.926
 1035POPC   C4A15546   9.063  22.395   7.563
 1035POPC   C1B15547   8.629  22.003   8.689
 1035POPC   C2B15548   8.419  21.795   8.366
 1035POPC   C3B15549   8.634  21.820   7.986
 1035POPC   C4B15550   8.702  22.043   7.603
 1036POPC   NC315551  36.097   3.508   9.464
 1036POPC   PO415552  36.730   3.704   9.453
 1036POPC   GL115553  36.355   3.755   9.121
 1036POPC   GL215554  35.955   3.803   9.084
 1036POPC   C1A15555  36.213   3.556   8.724
 1036POPC   D2A15556  35.994   3.606   8.318
 1036POPC   C3A15557  36.202   3.626   7.883
 1036POPC   C4A15558  36.508   3.388   7.627
 1036POPC   C1B15559  35.703   3.653   8.757
 1036POPC   C2B15560  35.524   3.806   8.388
 1036POPC   C3B15561  35.675   3.768   7.968
 1036POPC   C4B15562  35.822   3.729   7.541
 1037POPC   NC315563   4.902  20.956   9.591
 1037POPC   PO415564   4.885  20.318   9.499
 1037POPC   GL115565   5.138  20.569   9.185
 1037POPC   GL215566   5.287  20.898   9.214
 1037POPC   C1A15567   5.249  20.545   8.744
 1037POPC   D2A15568   5.124  20.379   8.363
 1037POPC   C3A15569   5.172  20.656   8.020
 1037POPC   C4A15570   5.312  20.450   7.643
 1037POPC   C1B15571   5.017  20.987   8.858
 1037POPC   C2B15572   5.065  21.117   8.421
 1037POPC   C3B15573   4.890  21.107   7.992
 1037POPC   C4B15574   4.881  20.819   7.631
 1038POPC   NC315575  31.907  41.069   9.519
 1038POPC   PO415576  32.121  41.707   9.505
 1038POPC   GL115577  32.271  41.810   9.111
 1038POPC   GL215578  32.257  41.470   8.996
 1038POPC   C1A15579  32.245  41.908   8.695
 1038POPC   D2A15580  32.322  41.617   8.386
 1038POPC   C3A15581  32.145  41.725   8.007
 1038POPC   C4A15582  32.270  41.951   7.653
 1038POPC   C1B15583  32.179  41.118   8.749
 1038POPC   C2B15584  32.385  41.026   8.379
 1038POPC   C3B15585  32.381  41.251   8.012
 1038POPC   C4B15586  32.604  41.529   7.749
 1039POPC   NC315587  28.845  29.592   9.462
 1039POPC   PO415588  29.291  29.111   9.603
 1039POPC   GL115589  29.224  29.306   9.213
 1039POPC   GL215590  29.015  29.008   9.134
 1039POPC   C1A15591  29.090  29.405   8.784
 1039POPC   D2A15592  29.154  29.193   8.384
 1039POPC   C3A15593  29.007  29.354   8.034
 1039POPC   C4A15594  29.041  29.277   7.630
 1039POPC   C1B15595  28.914  28.875   8.711
 1039POPC   C2B15596  29.047  28.639   8.355
 1039POPC   C3B15597  28.993  28.824   7.962
 1039POPC   C4B15598  28.628  28.952   7.749
 1040POPC   NC315599   4.863   0.982   9.532
 1040POPC   PO415600   4.341   1.433   9.459
 1040POPC   GL115601   4.259   1.163   9.160
 1040POPC   GL215602   4.607   1.115   9.099
 1040POPC   C1A15603   4.095   1.082   8.761
 1040POPC   D2A15604   4.185   0.849   8.392
 1040POPC   C3A15605   4.226   1.053   8.025
 1040POPC   C4A15606   4.409   1.176   7.664
 1040POPC   C1B15607   4.594   0.932   8.710
 1040POPC   C2B15608   4.691   1.084   8.316
 1040POPC   C3B15609   4.661   1.480   8.101
 1040POPC   C4B15610   4.731   1.583   7.676
 1041POPC   NC315611   5.373  27.363   9.437
 1041POPC   PO415612   4.861  27.795   9.426
 1041POPC   GL115613   5.137  27.696   9.113
 1041POPC   GL215614   4.956  27.394   9.073
 1041POPC   C1A15615   5.423  27.809   8.758
 1041POPC   D2A15616   5.391  28.012   8.342
 1041POPC   C3A15617   5.179  27.761   8.040
 1041POPC   C4A15618   5.369  27.652   7.643
 1041POPC   C1B15619   4.978  27.562   8.655
 1041POPC   C2B15620   4.832  27.431   8.295
 1041POPC   C3B15621   4.676  27.627   7.986
 1041POPC   C4B15622   4.889  27.500   7.655
 1042POPC   NC315623  36.320  14.536   9.588
 1042POPC   PO415624  35.870  14.124   9.405
 1042POPC   GL115625  36.180  14.314   9.159
 1042POPC   GL215626  36.472  14.105   9.126
 1042POPC   C1A15627  36.143  14.535   8.772
 1042POPC   D2A15628  35.984  14.668   8.373
 1042POPC   C3A15629  36.243  14.513   8.059
 1042POPC   C4A15630  36.072  14.489   7.662
 1042POPC   C1B15631  36.210  14.006   8.770
 1042POPC   C2B15632  36.338  14.099   8.347
 1042POPC   C3B15633  36.213  13.980   7.921
 1042POPC   C4B15634  36.231  14.055   7.465
 1043POPC   NC315635   1.815  40.938   9.462
 1043POPC   PO415636   2.188  40.395   9.354
 1043POPC   GL115637   2.126  40.691   9.064
 1043POPC   GL215638   2.250  41.020   9.145
 1043POPC   C1A15639   1.840  40.785   8.735
 1043POPC   D2A15640   1.630  40.990   8.413
 1043POPC   C3A15641   1.764  40.839   8.030
 1043POPC   C4A15642   1.767  40.998   7.613
 1043POPC   C1B15643   2.323  40.962   8.691
 1043POPC   C2B15644   2.176  41.031   8.282
 1043POPC   C3B15645   2.218  40.963   7.835
 1043POPC   C4B15646   2.394  41.051   7.445
 1044POPC   NC315647  15.885   3.077   9.462
 1044POPC   PO415648  16.136   2.503   9.698
 1044POPC   GL115649  16.009   2.397   9.167
 1044POPC   GL215650  15.873   2.711   9.081
 1044POPC   C1A15651  16.120   2.409   8.692
 1044POPC   D2A15652  16.019   2.510   8.217
 1044POPC   C3A15653  16.106   2.836   7.875
 1044POPC   C4A15654  16.139   2.789   7.426
 1044POPC   C1B15655  15.650   2.625   8.705
 1044POPC   C2B15656  15.493   2.573   8.324
 1044POPC   C3B15657  15.617   2.696   7.928
 1044POPC   C4B15658  15.697   2.539   7.539
 1045POPC   NC315659  21.903   0.517   9.556
 1045POPC   PO415660  22.415   0.707   9.169
 1045POPC   GL115661  22.016   0.627   9.067
 1045POPC   GL215662  22.004   0.307   9.100
 1045POPC   C1A15663  21.931   0.670   8.659
 1045POPC   D2A15664  21.981   0.580   8.214
 1045POPC   C3A15665  22.346   0.473   7.976
 1045POPC   C4A15666  22.240   0.431   7.573
 1045POPC   C1B15667  21.776   0.186   8.748
 1045POPC   C2B15668  21.921   0.038   8.348
 1045POPC   C3B15669  21.966   0.131   7.923
 1045POPC   C4B15670  21.892   0.086   7.505
 1046POPC   NC315671  37.604  30.331   9.395
 1046POPC   PO415672  37.844  29.672   9.484
 1046POPC   GL115673  37.861  29.937   9.143
 1046POPC   GL215674  37.510  30.008   9.022
 1046POPC   C1A15675  38.014  29.894   8.728
 1046POPC   D2A15676  37.834  29.986   8.339
 1046POPC   C3A15677  37.974  29.959   7.917
 1046POPC   C4A15678  37.618  30.011   7.669
 1046POPC   C1B15679  37.597  29.616   8.835
 1046POPC   C2B15680  37.620  29.474   8.417
 1046POPC   C3B15681  37.616  29.604   7.998
 1046POPC   C4B15682  37.723  29.390   7.605
 1047POPC   NC315683  17.215   2.115   9.577
 1047POPC   PO415684  17.658   1.661   9.545
 1047POPC   GL115685  17.589   1.969   9.221
 1047POPC   GL215686  17.254   2.013   9.089
 1047POPC   C1A15687  17.753   2.113   8.826
 1047POPC   D2A15688  17.533   2.084   8.445
 1047POPC   C3A15689  17.689   1.825   8.082
 1047POPC   C4A15690  17.785   2.047   7.697
 1047POPC   C1B15691  17.035   2.266   8.815
 1047POPC   C2B15692  17.082   2.340   8.379
 1047POPC   C3B15693  17.213   2.055   8.060
 1047POPC   C4B15694  17.134   1.947   7.669
 1048POPC   NC315695  35.927  23.344   9.448
 1048POPC   PO415696  36.004  23.995   9.211
 1048POPC   GL115697  36.075  23.630   9.057
 1048POPC   GL215698  36.366  23.432   9.186
 1048POPC   C1A15699  35.912  23.605   8.670
 1048POPC   D2A15700  35.788  23.881   8.354
 1048POPC   C3A15701  35.942  23.706   8.018
 1048POPC   C4A15702  36.098  23.890   7.682
 1048POPC   C1B15703  36.446  23.498   8.748
 1048POPC   C2B15704  36.316  23.733   8.374
 1048POPC   C3B15705  36.458  23.698   7.980
 1048POPC   C4B15706  36.298  23.408   7.683
 1049POPC   NC315707  43.648  25.650   9.532
 1049POPC   PO415708  42.994  25.486   9.540
 1049POPC   GL115709  43.156  25.395   9.169
 1049POPC   GL215710  42.927  25.631   9.034
 1049POPC   C1A15711  43.246  25.270   8.731
 1049POPC   D2A15712  43.117  25.322   8.275
 1049POPC   C3A15713  42.928  25.038   7.941
 1049POPC   C4A15714  43.037  24.877   7.515
 1049POPC   C1B15715  43.057  25.730   8.640
 1049POPC   C2B15716  42.893  25.786   8.260
 1049POPC   C3B15717  42.802  25.534   7.924
 1049POPC   C4B15718  43.022  25.389   7.557
 1050POPC   NC315719  32.948  11.351   9.562
 1050POPC   PO415720  32.823  11.904   9.451
 1050POPC   GL115721  32.860  11.556   9.114
 1050POPC   GL215722  33.208  11.406   9.136
 1050POPC   C1A15723  32.872  11.421   8.675
 1050POPC   D2A15724  33.056  11.131   8.356
 1050POPC   C3A15725  33.085  11.291   7.966
 1050POPC   C4A15726  32.930  11.217   7.555
 1050POPC   C1B15727  33.358  11.288   8.768
 1050POPC   C2B15728  33.401  11.512   8.383
 1050POPC   C3B15729  33.593  11.425   8.016
 1050POPC   C4B15730  33.486  11.319   7.635
 1051POPC   NC315731  21.493   1.428   9.578
 1051POPC   PO415732  21.153   0.919   9.527
 1051POPC   GL115733  21.299   1.145   9.199
 1051POPC   GL215734  21.613   0.970   9.224
 1051POPC   C1A15735  21.220   1.323   8.810
 1051POPC   D2A15736  21.434   1.387   8.443
 1051POPC   C3A15737  21.223   1.248   8.077
 1051POPC   C4A15738  21.269   1.237   7.658
 1051POPC   C1B15739  21.721   1.140   8.791
 1051POPC   C2B15740  21.792   1.046   8.347
 1051POPC   C3B15741  21.625   0.983   7.947
 1051POPC   C4B15742  21.754   1.184   7.523
 1052POPC   NC315743  10.681  41.259   9.380
 1052POPC   PO415744  11.066  41.688   9.510
 1052POPC   GL115745  10.795  41.861   9.161
 1052POPC   GL215746  10.469  41.754   9.256
 1052POPC   C1A15747  10.646  41.610   8.782
 1052POPC   D2A15748  10.609  41.254   8.495
 1052POPC   C3A15749  10.572  41.474   8.106
 1052POPC   C4A15750  10.386  41.357   7.755
 1052POPC   C1B15751  10.231  41.874   8.892
 1052POPC   C2B15752  10.339  42.049   8.509
 1052POPC   C3B15753  10.204  42.077   8.104
 1052POPC   C4B15754  10.293  41.857   7.756
 1053POPC   NC315755  27.292  44.931   9.464
 1053POPC   PO415756  27.576  44.320   9.435
 1053POPC   GL115757  27.703  44.738   9.190
 1053POPC   GL215758  27.443  44.864   8.992
 1053POPC   C1A15759  27.882  44.867   8.758
 1053POPC   D2A15760  27.866  44.538   8.440
 1053POPC   C3A15761  27.610  44.651   8.114
 1053POPC   C4A15762  27.796  44.775   7.732
 1053POPC   C1B15763  27.387  44.613   8.636
 1053POPC   C2B15764  27.132  44.719   8.302
 1053POPC   C3B15765  27.215  44.980   7.949
 1053POPC   C4B15766  27.376  44.928   7.523
 1054POPC   NC315767   1.619  24.234   9.460
 1054POPC   PO415768   2.171  24.667   9.446
 1054POPC   GL115769   1.985  24.495   9.137
 1054POPC   GL215770   2.061  24.146   9.189
 1054POPC   C1A15771   1.870  24.675   8.750
 1054POPC   D2A15772   1.909  24.817   8.338
 1054POPC   C3A15773   2.236  24.675   8.035
 1054POPC   C4A15774   1.950  24.735   7.702
 1054POPC   C1B15775   1.897  24.153   8.779
 1054POPC   C2B15776   2.099  24.328   8.396
 1054POPC   C3B15777   1.955  24.257   7.962
 1054POPC   C4B15778   1.855  24.255   7.499
 1055POPC   NC315779   9.393   7.265   9.449
 1055POPC   PO415780  10.092   7.431   9.365
 1055POPC   GL115781   9.782   7.214   9.139
 1055POPC   GL215782   9.661   7.558   9.061
 1055POPC   C1A15783   9.594   7.168   8.723
 1055POPC   D2A15784   9.868   7.404   8.421
 1055POPC   C3A15785   9.857   7.460   7.956
 1055POPC   C4A15786   9.631   7.113   7.745
 1055POPC   C1B15787   9.454   7.665   8.656
 1055POPC   C2B15788   9.437   7.605   8.204
 1055POPC   C3B15789   9.421   7.588   7.745
 1055POPC   C4B15790   9.385   7.748   7.325
 1056POPC   NC315791   6.844   3.231   9.280
 1056POPC   PO415792   6.404   3.656   9.539
 1056POPC   GL115793   6.441   3.687   9.098
 1056POPC   GL215794   6.090   3.591   9.082
 1056POPC   C1A15795   6.761   3.607   8.683
 1056POPC   D2A15796   6.690   3.362   8.328
 1056POPC   C3A15797   6.639   3.475   7.885
 1056POPC   C4A15798   6.821   3.388   7.466
 1056POPC   C1B15799   6.267   3.537   8.649
 1056POPC   C2B15800   6.299   3.713   8.241
 1056POPC   C3B15801   6.227   3.770   7.819
 1056POPC   C4B15802   6.181   3.784   7.365
 1057POPC   NC315803  35.609  18.031   9.406
 1057POPC   PO415804  35.353  18.631   9.418
 1057POPC   GL115805  35.189  18.446   9.070
 1057POPC   GL215806  35.199  18.093   9.124
 1057POPC   C1A15807  35.311  18.505   8.668
 1057POPC   D2A15808  35.056  18.567   8.341
 1057POPC   C3A15809  35.224  18.550   7.928
 1057POPC   C4A15810  35.255  18.209   7.646
 1057POPC   C1B15811  35.388  18.007   8.737
 1057POPC   C2B15812  35.387  18.132   8.278
 1057POPC   C3B15813  35.543  17.908   7.907
 1057POPC   C4B15814  35.392  17.724   7.504
 1058POPC   NC315815  38.670   9.860   9.612
 1058POPC   PO415816  38.061   9.671   9.429
 1058POPC   GL115817  38.260   9.626   9.089
 1058POPC   GL215818  38.027   9.746   8.915
 1058POPC   C1A15819  38.492   9.741   8.681
 1058POPC   D2A15820  38.311   9.727   8.277
 1058POPC   C3A15821  38.557   9.857   7.916
 1058POPC   C4A15822  38.706   9.675   7.509
 1058POPC   C1B15823  38.149  10.107   8.697
 1058POPC   C2B15824  38.074  10.212   8.297
 1058POPC   C3B15825  38.084  10.020   7.918
 1058POPC   C4B15826  38.180   9.614   7.700
 1059POPC   NC315827   2.778  14.873   9.351
 1059POPC   PO415828   2.685  14.234   9.772
 1059POPC   GL115829   2.730  14.268   9.240
 1059POPC   GL215830   2.432  14.295   9.045
 1059POPC   C1A15831   2.924  14.481   8.841
 1059POPC   D2A15832   2.806  14.600   8.425
 1059POPC   C3A15833   2.900  14.246   8.216
 1059POPC   C4A15834   2.904  14.124   7.821
 1059POPC   C1B15835   2.561  14.165   8.620
 1059POPC   C2B15836   2.405  14.287   8.207
 1059POPC   C3B15837   2.442  14.370   7.764
 1059POPC   C4B15838   2.279  14.431   7.319
 1060POPC   NC315839  26.632  20.186   9.519
 1060POPC   PO415840  26.876  19.514   9.470
 1060POPC   GL115841  26.640  19.761   9.169
 1060POPC   GL215842  26.790  19.992   9.080
 1060POPC   C1A15843  26.539  19.690   8.736
 1060POPC   D2A15844  26.760  19.464   8.405
 1060POPC   C3A15845  26.637  19.562   8.000
 1060POPC   C4A15846  26.876  19.567   7.651
 1060POPC   C1B15847  26.892  20.110   8.695
 1060POPC   C2B15848  26.693  19.977   8.336
 1060POPC   C3B15849  26.868  20.006   7.951
 1060POPC   C4B15850  26.771  20.100   7.545
 1061POPC   NC315851  28.445  20.384   9.688
 1061POPC   PO415852  27.922  20.806   9.556
 1061POPC   GL115853  28.342  20.828   9.309
 1061POPC   GL215854  28.485  20.492   9.186
 1061POPC   C1A15855  28.347  20.886   8.851
 1061POPC   D2A15856  28.122  20.668   8.498
 1061POPC   C3A15857  28.221  20.729   8.058
 1061POPC   C4A15858  28.207  20.525   7.641
 1061POPC   C1B15859  28.542  20.402   8.749
 1061POPC   C2B15860  28.649  20.577   8.357
 1061POPC   C3B15861  28.645  20.470   7.939
 1061POPC   C4B15862  28.684  20.704   7.571
 1062POPC   NC315863  24.698  16.391   9.607
 1062POPC   PO415864  24.229  15.921   9.728
 1062POPC   GL115865  24.337  16.120   9.250
 1062POPC   GL215866  24.731  16.108   9.111
 1062POPC   C1A15867  24.306  15.954   8.774
 1062POPC   D2A15868  24.580  15.949   8.354
 1062POPC   C3A15869  24.440  15.657   8.028
 1062POPC   C4A15870  24.257  15.915   7.725
 1062POPC   C1B15871  24.774  15.752   8.769
 1062POPC   C2B15872  24.870  15.491   8.420
 1062POPC   C3B15873  24.953  15.659   8.008
 1062POPC   C4B15874  24.752  16.052   7.840
 1063POPC   NC315875  31.272   7.539   9.525
 1063POPC   PO415876  31.843   7.286   9.832
 1063POPC   GL115877  31.734   7.456   9.350
 1063POPC   GL215878  31.479   7.184   9.211
 1063POPC   C1A15879  31.785   7.464   8.834
 1063POPC   D2A15880  31.653   7.233   8.433
 1063POPC   C3A15881  31.838   7.295   8.030
 1063POPC   C4A15882  31.575   7.357   7.668
 1063POPC   C1B15883  31.286   7.438   8.885
 1063POPC   C2B15884  31.212   7.467   8.451
 1063POPC   C3B15885  31.284   7.555   8.026
 1063POPC   C4B15886  31.266   7.771   7.630
 1064POPC   NC315887  16.245  26.734   9.829
 1064POPC   PO415888  15.771  26.604   9.249
 1064POPC   GL115889  15.926  26.906   8.984
 1064POPC   GL215890  15.605  27.043   8.890
 1064POPC   C1A15891  16.164  26.888   8.588
 1064POPC   D2A15892  16.209  26.512   8.328
 1064POPC   C3A15893  16.174  26.646   7.906
 1064POPC   C4A15894  16.186  27.087   7.792
 1064POPC   C1B15895  15.661  26.782   8.540
 1064POPC   C2B15896  15.826  26.973   8.183
 1064POPC   C3B15897  15.731  26.891   7.790
 1064POPC   C4B15898  15.703  26.509   7.653
 1065POPC   NC315899   6.426  14.445   9.541
 1065POPC   PO415900   7.077  14.316   9.557
 1065POPC   GL115901   6.846  14.563   9.241
 1065POPC   GL215902   6.607  14.324   9.090
 1065POPC   C1A15903   6.682  14.754   8.849
 1065POPC   D2A15904   6.655  14.487   8.487
 1065POPC   C3A15905   6.790  14.522   8.098
 1065POPC   C4A15906   6.637  14.652   7.735
 1065POPC   C1B15907   6.564  14.050   8.716
 1065POPC   C2B15908   6.623  14.008   8.265
 1065POPC   C3B15909   6.568  14.127   7.828
 1065POPC   C4B15910   6.549  14.261   7.401
 1066POPC   NC315911  18.819  35.728   9.562
 1066POPC   PO415912  19.121  36.357   9.543
 1066POPC   GL115913  18.911  36.167   9.239
 1066POPC   GL215914  19.119  35.900   9.161
 1066POPC   C1A15915  19.001  36.249   8.801
 1066POPC   D2A15916  19.137  36.034   8.458
 1066POPC   C3A15917  19.021  36.216   8.058
 1066POPC   C4A15918  18.934  36.053   7.654
 1066POPC   C1B15919  18.737  35.809   8.916
 1066POPC   C2B15920  18.736  35.660   8.513
 1066POPC   C3B15921  18.691  35.837   8.136
 1066POPC   C4B15922  18.539  35.760   7.772
 1067POPC   NC315923   8.000  13.461   9.162
 1067POPC   PO415924   7.447  13.608   9.579
 1067POPC   GL115925   7.364  13.635   9.184
 1067POPC   GL215926   7.637  13.857   9.153
 1067POPC   C1A15927   7.360  13.453   8.764
 1067POPC   D2A15928   7.558  13.456   8.367
 1067POPC   C3A15929   7.337  13.431   7.957
 1067POPC   C4A15930   7.641  13.501   7.634
 1067POPC   C1B15931   7.405  13.967   8.800
 1067POPC   C2B15932   7.529  13.990   8.401
 1067POPC   C3B15933   7.593  13.862   8.008
 1067POPC   C4B15934   7.323  13.902   7.649
 1068POPC   NC315935  39.438   2.373   9.515
 1068POPC   PO415936  39.188   3.064   9.503
 1068POPC   GL115937  39.295   2.816   9.166
 1068POPC   GL215938  39.080   2.517   9.190
 1068POPC   C1A15939  39.273   3.009   8.780
 1068POPC   D2A15940  39.216   2.803   8.386
 1068POPC   C3A15941  39.208   2.963   7.995
 1068POPC   C4A15942  39.425   2.975   7.607
 1068POPC   C1B15943  39.236   2.459   8.764
 1068POPC   C2B15944  39.363   2.334   8.340
 1068POPC   C3B15945  39.454   2.497   7.967
 1068POPC   C4B15946  39.174   2.558   7.673
 1069POPC   NC315947  12.754  41.639   9.462
 1069POPC   PO415948  13.198  41.131   9.522
 1069POPC   GL115949  13.090  41.408   9.140
 1069POPC   GL215950  12.752  41.548   8.964
 1069POPC   C1A15951  13.187  41.524   8.735
 1069POPC   D2A15952  12.894  41.562   8.403
 1069POPC   C3A15953  12.998  41.643   7.994
 1069POPC   C4A15954  12.879  41.321   7.762
 1069POPC   C1B15955  12.473  41.760   8.614
 1069POPC   C2B15956  12.535  41.902   8.162
 1069POPC   C3B15957  12.590  41.769   7.722
 1069POPC   C4B15958  12.776  41.951   7.339
 1070POPC   NC315959  33.563  21.233   9.542
 1070POPC   PO415960  34.138  21.174   9.233
 1070POPC   GL115961  33.970  21.389   8.942
 1070POPC   GL215962  33.649  21.443   9.074
 1070POPC   C1A15963  34.008  21.325   8.524
 1070POPC   D2A15964  33.875  21.304   8.121
 1070POPC   C3A15965  34.094  21.062   7.824
 1070POPC   C4A15966  33.903  21.353   7.558
 1070POPC   C1B15967  33.617  21.633   8.664
 1070POPC   C2B15968  33.655  21.778   8.252
 1070POPC   C3B15969  33.618  21.695   7.818
 1070POPC   C4B15970  33.561  21.740   7.374
 1071POPC   NC315971  12.992  17.889   9.536
 1071POPC   PO415972  12.699  17.298   9.615
 1071POPC   GL115973  12.837  17.446   9.229
 1071POPC   GL215974  12.539  17.283   9.098
 1071POPC   C1A15975  12.943  17.422   8.790
 1071POPC   D2A15976  12.769  17.594   8.397
 1071POPC   C3A15977  12.891  17.631   7.952
 1071POPC   C4A15978  12.989  17.481   7.477
 1071POPC   C1B15979  12.433  17.603   8.807
 1071POPC   C2B15980  12.254  17.638   8.386
 1071POPC   C3B15981  12.426  17.388   8.056
 1071POPC   C4B15982  12.505  17.502   7.646
 1072POPC   NC315983  26.374  39.427   9.507
 1072POPC   PO415984  26.298  38.776   9.363
 1072POPC   GL115985  25.992  38.911   9.082
 1072POPC   GL215986  26.017  39.291   9.138
 1072POPC   C1A15987  25.940  39.048   8.667
 1072POPC   D2A15988  26.272  39.087   8.368
 1072POPC   C3A15989  26.192  38.842   8.008
 1072POPC   C4A15990  25.892  38.989   7.728
 1072POPC   C1B15991  26.215  39.454   8.771
 1072POPC   C2B15992  26.062  39.642   8.396
 1072POPC   C3B15993  26.012  39.502   7.966
 1072POPC   C4B15994  26.196  39.671   7.593
 1073POPC   NC315995  41.893  29.137   9.453
 1073POPC   PO415996  42.609  29.108   9.341
 1073POPC   GL115997  42.255  29.178   9.082
 1073POPC   GL215998  41.998  28.897   9.038
 1073POPC   C1A15999  42.357  29.063   8.675
 1073POPC   D2A16000  42.598  29.149   8.320
 1073POPC   C3A16001  42.405  29.362   7.982
 1073POPC   C4A16002  42.536  29.457   7.572
 1073POPC   C1B16003  41.862  29.155   8.717
 1073POPC   C2B16004  42.025  29.285   8.334
 1073POPC   C3B16005  41.989  29.071   7.951
 1073POPC   C4B16006  42.327  28.976   7.665
 1074POPC   NC316007  37.331  43.222   9.332
 1074POPC   PO416008  36.816  43.047   9.673
 1074POPC   GL116009  36.714  43.208   9.272
 1074POPC   GL216010  36.933  43.014   9.079
 1074POPC   C1A16011  36.585  43.318   8.840
 1074POPC   D2A16012  36.799  43.461   8.478
 1074POPC   C3A16013  36.698  43.406   8.088
 1074POPC   C4A16014  36.938  43.486   7.739
 1074POPC   C1B16015  37.203  43.094   8.692
 1074POPC   C2B16016  37.223  43.259   8.276
 1074POPC   C3B16017  37.318  43.175   7.869
 1074POPC   C4B16018  37.027  42.982   7.660
 1075POPC   NC316019  11.319  31.742  10.032
 1075POPC   PO416020  11.612  31.550   9.461
 1075POPC   GL116021  11.484  31.616   9.078
 1075POPC   GL216022  11.419  31.278   9.052
 1075POPC   C1A16023  11.144  31.720   8.787
 1075POPC   D2A16024  11.259  31.901   8.380
 1075POPC   C3A16025  11.109  31.760   7.979
 1075POPC   C4A16026  10.946  31.511   7.641
 1075POPC   C1B16027  11.458  31.388   8.620
 1075POPC   C2B16028  11.202  31.337   8.299
 1075POPC   C3B16029  11.331  31.289   7.903
 1075POPC   C4B16030  11.275  31.125   7.506
 1076POPC   NC316031  31.368  14.944   9.729
 1076POPC   PO416032  31.057  15.528   9.604
 1076POPC   GL116033  31.207  15.223   9.305
 1076POPC   GL216034  31.566  15.270   9.319
 1076POPC   C1A16035  31.274  15.069   8.877
 1076POPC   D2A16036  31.134  15.198   8.449
 1076POPC   C3A16037  31.383  15.109   8.079
 1076POPC   C4A16038  31.693  14.959   7.808
 1076POPC   C1B16039  31.767  15.219   8.907
 1076POPC   C2B16040  31.632  15.350   8.482
 1076POPC   C3B16041  31.835  15.389   8.073
 1076POPC   C4B16042  31.727  15.495   7.657
 1077POPC   NC316043  26.716  10.215   9.384
 1077POPC   PO416044  27.344  10.402   9.372
 1077POPC   GL116045  27.029  10.557   9.086
 1077POPC   GL216046  26.688  10.708   9.150
 1077POPC   C1A16047  27.042  10.782   8.702
 1077POPC   D2A16048  26.955  10.780   8.274
 1077POPC   C3A16049  26.724  10.392   8.089
 1077POPC   C4A16050  26.705  10.324   7.613
 1077POPC   C1B16051  26.510  10.701   8.711
 1077POPC   C2B16052  26.450  10.816   8.257
 1077POPC   C3B16053  26.715  10.814   7.830
 1077POPC   C4B16054  26.625  10.805   7.398
 1078POPC   NC316055  14.226  24.972   9.571
 1078POPC   PO416056  14.675  25.380   9.778
 1078POPC   GL116057  14.538  25.333   9.331
 1078POPC   GL216058  14.217  25.448   9.319
 1078POPC   C1A16059  14.634  25.322   8.865
 1078POPC   D2A16060  14.483  25.186   8.466
 1078POPC   C3A16061  14.605  25.420   8.102
 1078POPC   C4A16062  14.534  25.312   7.682
 1078POPC   C1B16063  14.165  25.530   8.866
 1078POPC   C2B16064  14.081  25.517   8.425
 1078POPC   C3B16065  14.109  25.361   7.999
 1078POPC   C4B16066  14.115  25.604   7.655
 1079POPC   NC316067  12.843   4.110   9.416
 1079POPC   PO416068  12.548   4.510   9.856
 1079POPC   GL116069  12.796   4.653   9.311
 1079POPC   GL216070  12.986   4.445   9.066
 1079POPC   C1A16071  12.625   4.645   8.808
 1079POPC   D2A16072  12.686   4.376   8.438
 1079POPC   C3A16073  12.804   4.548   8.029
 1079POPC   C4A16074  12.636   4.386   7.636
 1079POPC   C1B16075  12.975   4.081   8.759
 1079POPC   C2B16076  13.084   4.071   8.310
 1079POPC   C3B16077  13.181   4.033   7.880
 1079POPC   C4B16078  13.142   4.393   7.643
 1080POPC   NC316079   6.437   0.866   9.355
 1080POPC   PO416080   6.927   0.599   9.653
 1080POPC   GL116081   6.798   0.489   9.220
 1080POPC   GL216082   6.904   0.805   9.103
 1080POPC   C1A16083   6.489   0.427   8.812
 1080POPC   D2A16084   6.193   0.335   8.444
 1080POPC   C3A16085   6.419   0.204   8.070
 1080POPC   C4A16086   6.503   0.196   7.644
 1080POPC   C1B16087   7.005   0.528   8.760
 1080POPC   C2B16088   7.142   0.582   8.363
 1080POPC   C3B16089   7.061   0.757   7.979
 1080POPC   C4B16090   6.893   0.490   7.653
 1081POPC   NC316091  40.120  17.319   9.740
 1081POPC   PO416092  39.875  17.946   9.660
 1081POPC   GL116093  40.187  17.712   9.333
 1081POPC   GL216094  39.997  17.406   9.187
 1081POPC   C1A16095  40.385  17.569   8.899
 1081POPC   D2A16096  40.163  17.396   8.493
 1081POPC   C3A16097  40.239  17.471   8.073
 1081POPC   C4A16098  39.946  17.631   7.810
 1081POPC   C1B16099  39.785  17.250   8.797
 1081POPC   C2B16100  39.699  17.139   8.358
 1081POPC   C3B16101  39.776  17.120   7.897
 1081POPC   C4B16102  39.748  17.270   7.469
 1082POPC   NC316103  13.252  40.739   9.759
 1082POPC   PO416104  12.742  40.969   9.342
 1082POPC   GL116105  12.725  40.726   8.974
 1082POPC   GL216106  12.898  41.028   8.854
 1082POPC   C1A16107  12.746  40.690   8.526
 1082POPC   D2A16108  12.808  41.034   8.233
 1082POPC   C3A16109  12.659  40.845   7.870
 1082POPC   C4A16110  12.587  40.431   7.639
 1082POPC   C1B16111  13.239  41.054   8.591
 1082POPC   C2B16112  13.291  41.199   8.177
 1082POPC   C3B16113  13.185  40.927   7.800
 1082POPC   C4B16114  13.086  41.126   7.341
 1083POPC   NC316115   1.327  33.406   9.257
 1083POPC   PO416116   0.766  33.096   9.500
 1083POPC   GL116117   0.985  32.976   9.111
 1083POPC   GL216118   1.315  33.022   8.925
 1083POPC   C1A16119   0.931  32.686   8.750
 1083POPC   D2A16120   1.189  32.673   8.416
 1083POPC   C3A16121   1.019  32.712   8.020
 1083POPC   C4A16122   1.252  32.783   7.670
 1083POPC   C1B16123   1.019  33.172   8.628
 1083POPC   C2B16124   0.983  33.203   8.218
 1083POPC   C3B16125   1.351  33.211   7.936
 1083POPC   C4B16126   1.341  33.262   7.482
 1084POPC   NC316127   3.837  28.099   9.717
 1084POPC   PO416128   3.791  28.678   9.372
 1084POPC   GL116129   3.594  28.397   9.152
 1084POPC   GL216130   3.875  28.189   9.169
 1084POPC   C1A16131   3.502  28.243   8.743
 1084POPC   D2A16132   3.214  28.286   8.404
 1084POPC   C3A16133   3.477  28.276   8.077
 1084POPC   C4A16134   3.361  28.177   7.701
 1084POPC   C1B16135   3.958  28.491   8.790
 1084POPC   C2B16136   3.947  28.296   8.400
 1084POPC   C3B16137   4.036  28.465   8.024
 1084POPC   C4B16138   3.842  28.324   7.697
 1085POPC   NC316139  37.143  14.153   9.545
 1085POPC   PO416140  36.655  14.487   9.907
 1085POPC   GL116141  36.758  14.457   9.368
 1085POPC   GL216142  37.078  14.496   9.183
 1085POPC   C1A16143  36.685  14.501   8.877
 1085POPC   D2A16144  36.919  14.391   8.464
 1085POPC   C3A16145  36.775  14.565   8.044
 1085POPC   C4A16146  36.578  14.319   7.718
 1085POPC   C1B16147  37.301  14.434   8.806
 1085POPC   C2B16148  37.410  14.609   8.430
 1085POPC   C3B16149  37.286  14.469   8.052
 1085POPC   C4B16150  37.462  14.389   7.647
 1086POPC   NC316151  43.879  42.360   9.643
 1086POPC   PO416152  43.969  41.640   9.551
 1086POPC   GL116153  44.006  42.066   9.245
 1086POPC   GL216154  43.737  42.388   9.160
 1086POPC   C1A16155  44.075  42.271   8.798
 1086POPC   D2A16156  43.851  42.424   8.387
 1086POPC   C3A16157  43.931  42.274   7.944
 1086POPC   C4A16158  43.972  42.258   7.463
 1086POPC   C1B16159  43.804  42.727   8.817
 1086POPC   C2B16160  43.658  42.900   8.411
 1086POPC   C3B16161  43.577  42.695   8.003
 1086POPC   C4B16162  43.480  42.775   7.562
 1087POPC   NC316163  40.599  33.220   9.420
 1087POPC   PO416164  41.122  32.849   9.520
 1087POPC   GL116165  40.966  32.999   9.134
 1087POPC   GL216166  41.178  33.226   8.988
 1087POPC   C1A16167  40.724  32.773   8.820
 1087POPC   D2A16168  40.850  32.617   8.428
 1087POPC   C3A16169  40.827  32.896   8.062
 1087POPC   C4A16170  40.781  32.863   7.612
 1087POPC   C1B16171  40.929  33.208   8.633
 1087POPC   C2B16172  40.929  33.429   8.262
 1087POPC   C3B16173  41.142  33.304   7.929
 1087POPC   C4B16174  40.852  33.357   7.666
 1088POPC   NC316175   1.067  36.636   9.446
 1088POPC   PO416176   1.220  37.284   9.528
 1088POPC   GL116177   1.128  37.045   9.177
 1088POPC   GL216178   0.762  37.098   9.226
 1088POPC   C1A16179   1.304  36.806   8.823
 1088POPC   D2A16180   1.539  36.986   8.477
 1088POPC   C3A16181   1.532  36.827   8.068
 1088POPC   C4A16182   1.237  36.841   7.726
 1088POPC   C1B16183   0.787  36.960   8.808
 1088POPC   C2B16184   0.912  36.687   8.507
 1088POPC   C3B16185   0.886  36.717   8.082
 1088POPC   C4B16186   0.824  37.136   7.873
 1089POPC   NC316187  12.542  43.569   9.353
 1089POPC   PO416188  11.923  43.237   9.482
 1089POPC   GL116189  12.101  43.294   9.093
 1089POPC   GL216190  12.337  43.009   9.145
 1089POPC   C1A16191  11.974  43.139   8.648
 1089POPC   D2A16192  11.749  43.135   8.270
 1089POPC   C3A16193  11.972  42.891   7.992
 1089POPC   C4A16194  11.866  42.892   7.576
 1089POPC   C1B16195  12.459  43.246   8.742
 1089POPC   C2B16196  12.402  43.411   8.318
 1089POPC   C3B16197  12.508  43.425   7.886
 1089POPC   C4B16198  12.316  43.137   7.621
 1090POPC   NC316199   4.033  25.478   9.234
 1090POPC   PO416200   4.620  25.026   9.484
 1090POPC   GL116201   4.423  25.158   9.118
 1090POPC   GL216202   4.451  25.517   8.964
 1090POPC   C1A16203   4.289  25.042   8.711
 1090POPC   D2A16204   4.373  25.153   8.263
 1090POPC   C3A16205   4.144  24.914   7.954
 1090POPC   C4A16206   4.035  25.059   7.520
 1090POPC   C1B16207   4.246  25.779   8.646
 1090POPC   C2B16208   4.382  25.738   8.222
 1090POPC   C3B16209   4.224  25.568   7.834
 1090POPC   C4B16210   4.405  25.427   7.448
 1091POPC   NC316211  27.483  29.535   9.380
 1091POPC   PO416212  27.916  29.965   9.440
 1091POPC   GL116213  27.691  29.869   9.057
 1091POPC   GL216214  27.335  29.945   9.103
 1091POPC   C1A16215  27.584  29.972   8.635
 1091POPC   D2A16216  27.777  30.316   8.408
 1091POPC   C3A16217  27.910  30.120   8.031
 1091POPC   C4A16218  27.806  29.662   7.916
 1091POPC   C1B16219  27.076  29.980   8.745
 1091POPC   C2B16220  27.169  29.824   8.325
 1091POPC   C3B16221  27.397  30.049   8.019
 1091POPC   C4B16222  27.618  30.021   7.611
 1092POPC   NC316223   0.480   1.117   9.343
 1092POPC   PO416224   0.503   0.363   9.500
 1092POPC   GL116225   0.526   0.361   9.076
 1092POPC   GL216226   0.790   0.611   9.045
 1092POPC   C1A16227   0.249   0.318   8.707
 1092POPC   D2A16228  44.943   0.502   8.416
 1092POPC   C3A16229   0.141   0.486   8.025
 1092POPC   C4A16230   0.543   0.389   7.814
 1092POPC   C1B16231   0.793   0.361   8.660
 1092POPC   C2B16232   0.584   0.445   8.313
 1092POPC   C3B16233   0.773   0.763   8.086
 1092POPC   C4B16234   0.905   0.737   7.711
 1093POPC   NC316235  18.751   7.141   9.623
 1093POPC   PO416236  19.416   6.960   9.463
 1093POPC   GL116237  19.107   7.257   9.214
 1093POPC   GL216238  19.379   7.297   8.966
 1093POPC   C1A16239  18.927   7.482   8.851
 1093POPC   D2A16240  18.812   7.352   8.444
 1093POPC   C3A16241  18.948   7.559   8.121
 1093POPC   C4A16242  18.997   7.607   7.740
 1093POPC   C1B16243  19.203   7.073   8.629
 1093POPC   C2B16244  19.209   7.111   8.207
 1093POPC   C3B16245  18.908   7.098   7.926
 1093POPC   C4B16246  19.147   7.026   7.604
 1094POPC   NC316247  22.243  42.510   9.513
 1094POPC   PO416248  22.376  43.232   9.474
 1094POPC   GL116249  22.138  43.219   9.112
 1094POPC   GL216250  22.178  42.847   9.099
 1094POPC   C1A16251  22.099  43.246   8.658
 1094POPC   D2A16252  22.117  42.885   8.345
 1094POPC   C3A16253  22.030  43.025   7.917
 1094POPC   C4A16254  22.018  43.474   7.818
 1094POPC   C1B16255  22.504  42.985   8.815
 1094POPC   C2B16256  22.579  43.195   8.448
 1094POPC   C3B16257  22.578  43.174   8.023
 1094POPC   C4B16258  22.481  42.796   7.790
 1095POPC   NC316259  20.286  34.803   9.492
 1095POPC   PO416260  19.546  34.817   9.572
 1095POPC   GL116261  19.852  34.639   9.264
 1095POPC   GL216262  19.981  34.944   9.105
 1095POPC   C1A16263  19.849  34.332   8.913
 1095POPC   D2A16264  19.620  34.385   8.524
 1095POPC   C3A16265  19.871  34.332   8.156
 1095POPC   C4A16266  19.836  34.469   7.758
 1095POPC   C1B16267  19.995  34.778   8.717
 1095POPC   C2B16268  20.154  34.763   8.336
 1095POPC   C3B16269  20.278  34.642   7.984
 1095POPC   C4B16270  20.210  34.733   7.538
 1096POPC   NC316271  11.016   7.497   9.462
 1096POPC   PO416272  11.695   7.446   9.704
 1096POPC   GL116273  11.464   7.365   9.249
 1096POPC   GL216274  11.344   7.685   9.123
 1096POPC   C1A16275  11.272   7.316   8.777
 1096POPC   D2A16276  11.278   7.563   8.367
 1096POPC   C3A16277  11.387   7.356   8.012
 1096POPC   C4A16278  11.664   7.081   7.793
 1096POPC   C1B16279  11.126   7.856   8.745
 1096POPC   C2B16280  11.129   8.055   8.372
 1096POPC   C3B16281  11.037   7.958   7.974
 1096POPC   C4B16282  11.229   7.703   7.660
 1097POPC   NC316283  23.647  30.417  10.176
 1097POPC   PO416284  23.633  30.647   9.513
 1097POPC   GL116285  23.445  30.609   9.139
 1097POPC   GL216286  23.796  30.668   9.005
 1097POPC   C1A16287  23.392  30.651   8.714
 1097POPC   D2A16288  23.733  30.697   8.442
 1097POPC   C3A16289  23.513  30.709   8.062
 1097POPC   C4A16290  23.709  30.572   7.693
 1097POPC   C1B16291  24.050  31.008   8.785
 1097POPC   C2B16292  23.898  31.211   8.414
 1097POPC   C3B16293  23.938  30.998   8.022
 1097POPC   C4B16294  24.031  30.945   7.595
 1098POPC   NC316295   6.491  28.798   9.414
 1098POPC   PO416296   6.821  29.400   9.528
 1098POPC   GL116297   6.619  29.229   9.193
 1098POPC   GL216298   6.837  28.987   9.084
 1098POPC   C1A16299   6.370  29.057   8.831
 1098POPC   D2A16300   6.200  29.019   8.420
 1098POPC   C3A16301   6.468  28.928   8.073
 1098POPC   C4A16302   6.632  29.132   7.773
 1098POPC   C1B16303   6.813  29.282   8.709
 1098POPC   C2B16304   6.818  29.288   8.265
 1098POPC   C3B16305   6.782  29.575   7.951
 1098POPC   C4B16306   6.893  29.512   7.557
 1099POPC   NC316307  10.025  17.251   9.537
 1099POPC   PO416308   9.417  17.513   9.504
 1099POPC   GL116309   9.624  17.527   9.165
 1099POPC   GL216310   9.655  17.163   9.184
 1099POPC   C1A16311   9.525  17.570   8.739
 1099POPC   D2A16312   9.702  17.727   8.367
 1099POPC   C3A16313   9.630  17.488   8.015
 1099POPC   C4A16314   9.639  17.578   7.615
 1099POPC   C1B16315   9.914  17.229   8.823
 1099POPC   C2B16316   9.776  17.212   8.420
 1099POPC   C3B16317  10.044  17.160   8.061
 1099POPC   C4B16318   9.861  17.152   7.672
 1100POPC   NC316319  25.026  11.351   9.497
 1100POPC   PO416320  25.635  11.385   9.744
 1100POPC   GL116321  25.461  11.459   9.269
 1100POPC   GL216322  25.362  11.111   9.163
 1100POPC   C1A16323  25.161  11.530   8.866
 1100POPC   D2A16324  25.313  11.525   8.437
 1100POPC   C3A16325  25.122  11.448   8.046
 1100POPC   C4A16326  25.178  11.340   7.666
 1100POPC   C1B16327  25.190  11.064   8.714
 1100POPC   C2B16328  25.114  11.017   8.295
 1100POPC   C3B16329  24.995  10.953   7.913
 1100POPC   C4B16330  25.092  10.857   7.478
 1101POPC   NC316331  44.061   4.189   9.496
 1101POPC   PO416332  43.682   4.744   9.553
 1101POPC   GL116333  43.660   4.415   9.213
 1101POPC   GL216334  43.448   4.076   9.256
 1101POPC   C1A16335  43.866   4.431   8.801
 1101POPC   D2A16336  44.175   4.315   8.486
 1101POPC   C3A16337  43.973   4.309   8.082
 1101POPC   C4A16338  43.830   4.590   7.760
 1101POPC   C1B16339  43.716   3.956   8.875
 1101POPC   C2B16340  43.696   4.054   8.452
 1101POPC   C3B16341  43.696   3.855   8.050
 1101POPC   C4B16342  43.576   4.133   7.740
 1102POPC   NC316343  37.808  35.092   9.545
 1102POPC   PO416344  38.424  35.424   9.576
 1102POPC   GL116345  38.369  35.170   9.229
 1102POPC   GL216346  38.686  35.226   9.088
 1102POPC   C1A16347  38.325  34.960   8.824
 1102POPC   D2A16348  38.409  35.125   8.431
 1102POPC   C3A16349  38.400  34.920   8.039
 1102POPC   C4A16350  38.320  35.091   7.637
 1102POPC   C1B16351  38.654  35.455   8.741
 1102POPC   C2B16352  38.849  35.408   8.356
 1102POPC   C3B16353  38.566  35.420   8.034
 1102POPC   C4B16354  38.542  35.589   7.650
 1103POPC   NC316355  38.442  37.291   9.655
 1103POPC   PO416356  38.414  37.925   9.768
 1103POPC   GL116357  38.631  37.826   9.329
 1103POPC   GL216358  38.704  37.488   9.230
 1103POPC   C1A16359  38.773  37.882   8.862
 1103POPC   D2A16360  38.838  37.717   8.417
 1103POPC   C3A16361  38.501  37.762   8.124
 1103POPC   C4A16362  38.510  37.880   7.715
 1103POPC   C1B16363  38.645  37.374   8.789
 1103POPC   C2B16364  38.536  37.273   8.348
 1103POPC   C3B16365  38.682  37.347   7.898
 1103POPC   C4B16366  38.594  37.443   7.469
 1104POPC   NC316367   7.754  15.240   9.392
 1104POPC   PO416368   8.463  15.132   9.517
 1104POPC   GL116369   8.227  15.188   9.166
 1104POPC   GL216370   8.120  14.893   9.105
 1104POPC   C1A16371   7.984  15.246   8.775
 1104POPC   D2A16372   7.873  15.424   8.376
 1104POPC   C3A16373   8.262  15.519   8.186
 1104POPC   C4A16374   8.153  15.359   7.813
 1104POPC   C1B16375   8.411  14.870   8.777
 1104POPC   C2B16376   8.228  15.029   8.370
 1104POPC   C3B16377   8.374  14.928   7.947
 1104POPC   C4B16378   8.443  15.052   7.506
 1105POPC   NC316379  23.420  20.040   9.543
 1105POPC   PO416380  24.020  19.867   9.566
 1105POPC   GL116381  23.745  19.805   9.217
 1105POPC   GL216382  23.596  19.508   9.117
 1105POPC   C1A16383  23.589  20.011   8.867
 1105POPC   D2A16384  23.417  20.185   8.496
 1105POPC   C3A16385  23.581  20.036   8.099
 1105POPC   C4A16386  23.453  20.008   7.684
 1105POPC   C1B16387  23.921  19.327   8.887
 1105POPC   C2B16388  23.845  19.427   8.493
 1105POPC   C3B16389  23.978  19.499   8.110
 1105POPC   C4B16390  23.805  19.669   7.765
 1106POPC   NC316391  15.321  24.215   9.380
 1106POPC   PO416392  15.400  24.847   9.556
 1106POPC   GL116393  15.169  24.807   9.175
 1106POPC   GL216394  15.105  24.486   9.021
 1106POPC   C1A16395  14.988  24.926   8.801
 1106POPC   D2A16396  15.041  24.613   8.511
 1106POPC   C3A16397  15.050  24.660   8.094
 1106POPC   C4A16398  15.185  24.662   7.663
 1106POPC   C1B16399  15.302  24.198   8.724
 1106POPC   C2B16400  15.147  24.117   8.332
 1106POPC   C3B16401  15.210  24.198   7.924
 1106POPC   C4B16402  15.556  24.287   7.725
 1107POPC   NC316403  18.083  32.555   9.486
 1107POPC   PO416404  18.487  32.013   9.502
 1107POPC   GL116405  18.413  32.321   9.166
 1107POPC   GL216406  18.067  32.208   9.092
 1107POPC   C1A16407  18.552  32.267   8.756
 1107POPC   D2A16408  18.431  31.997   8.427
 1107POPC   C3A16409  18.444  32.165   8.026
 1107POPC   C4A16410  18.051  32.090   7.835
 1107POPC   C1B16411  18.047  32.461   8.700
 1107POPC   C2B16412  18.279  32.556   8.324
 1107POPC   C3B16413  18.176  32.622   7.884
 1107POPC   C4B16414  18.099  32.707   7.432
 1108POPC   NC316415  40.576  27.830   9.487
 1108POPC   PO416416  40.255  27.269   9.293
 1108POPC   GL116417  40.579  27.527   9.061
 1108POPC   GL216418  40.898  27.503   9.197
 1108POPC   C1A16419  40.853  27.772   8.740
 1108POPC   D2A16420  40.949  27.996   8.326
 1108POPC   C3A16421  40.839  27.715   7.971
 1108POPC   C4A16422  40.590  27.554   7.592
 1108POPC   C1B16423  41.114  27.344   8.813
 1108POPC   C2B16424  41.185  27.516   8.390
 1108POPC   C3B16425  41.177  27.332   8.004
 1108POPC   C4B16426  40.821  27.131   7.796
 1109POPC   NC316427  30.492  43.491   9.656
 1109POPC   PO416428  30.942  43.905   9.426
 1109POPC   GL116429  30.762  43.849   9.058
 1109POPC   GL216430  30.472  44.041   9.208
 1109POPC   C1A16431  31.010  43.752   8.691
 1109POPC   D2A16432  31.157  43.824   8.304
 1109POPC   C3A16433  30.839  43.851   8.011
 1109POPC   C4A16434  30.729  43.480   7.768
 1109POPC   C1B16435  30.435  44.128   8.779
 1109POPC   C2B16436  30.787  44.165   8.483
 1109POPC   C3B16437  30.818  44.406   8.107
 1109POPC   C4B16438  30.858  44.284   7.679
 1110POPC   NC316439  35.498  16.252   9.524
 1110POPC   PO416440  35.892  15.741   9.733
 1110POPC   GL116441  35.468  15.739   9.350
 1110POPC   GL216442  35.296  15.995   9.153
 1110POPC   C1A16443  35.447  15.672   8.821
 1110POPC   D2A16444  35.262  15.751   8.368
 1110POPC   C3A16445  35.501  15.775   7.947
 1110POPC   C4A16446  35.649  15.770   7.496
 1110POPC   C1B16447  35.098  16.084   8.758
 1110POPC   C2B16448  35.036  16.196   8.330
 1110POPC   C3B16449  34.980  15.952   7.925
 1110POPC   C4B16450  34.846  16.057   7.486
 1111POPC   NC316451   6.442  35.008   9.400
 1111POPC   PO416452   6.989  34.585   9.475
 1111POPC   GL116453   6.826  34.799   9.108
 1111POPC   GL216454   6.582  34.572   9.043
 1111POPC   C1A16455   6.587  34.999   8.747
 1111POPC   D2A16456   6.452  34.825   8.341
 1111POPC   C3A16457   6.826  34.751   8.124
 1111POPC   C4A16458   7.082  34.962   7.841
 1111POPC   C1B16459   6.270  34.554   8.732
 1111POPC   C2B16460   6.126  34.325   8.407
 1111POPC   C3B16461   6.101  34.511   8.018
 1111POPC   C4B16462   6.481  34.562   7.820
 1112POPC   NC316463   5.510  39.495   9.448
 1112POPC   PO416464   5.959  40.048   9.551
 1112POPC   GL116465   6.049  40.014   9.128
 1112POPC   GL216466   5.742  39.835   9.117
 1112POPC   C1A16467   6.073  39.866   8.699
 1112POPC   D2A16468   5.833  39.690   8.349
 1112POPC   C3A16469   5.953  39.774   7.959
 1112POPC   C4A16470   6.211  39.990   7.689
 1112POPC   C1B16471   5.546  39.800   8.748
 1112POPC   C2B16472   5.430  40.042   8.381
 1112POPC   C3B16473   5.535  40.252   7.999
 1112POPC   C4B16474   5.693  40.037   7.623
 1113POPC   NC316475  39.127  32.857   9.632
 1113POPC   PO416476  39.684  33.178   9.529
 1113POPC   GL116477  39.463  33.089   9.147
 1113POPC   GL216478  39.151  33.209   9.259
 1113POPC   C1A16479  39.433  33.253   8.683
 1113POPC   D2A16480  39.315  32.995   8.320
 1113POPC   C3A16481  39.423  33.064   7.890
 1113POPC   C4A16482  39.286  32.835   7.515
 1113POPC   C1B16483  39.000  33.062   8.867
 1113POPC   C2B16484  38.804  33.121   8.458
 1113POPC   C3B16485  38.898  33.144   8.015
 1113POPC   C4B16486  38.865  33.114   7.568
 1114POPC   NC316487  17.000  38.974   9.323
 1114POPC   PO416488  16.603  39.460   9.532
 1114POPC   GL116489  16.760  39.407   9.139
 1114POPC   GL216490  16.554  39.086   9.110
 1114POPC   C1A16491  16.730  39.307   8.708
 1114POPC   D2A16492  16.837  39.071   8.396
 1114POPC   C3A16493  16.782  39.303   8.077
 1114POPC   C4A16494  16.661  39.368   7.716
 1114POPC   C1B16495  16.526  38.808   8.756
 1114POPC   C2B16496  16.567  38.643   8.338
 1114POPC   C3B16497  16.525  38.878   7.935
 1114POPC   C4B16498  16.536  38.951   7.464
 1115POPC   NC316499   9.132  25.153   9.523
 1115POPC   PO416500   8.547  24.847   9.614
 1115POPC   GL116501   8.702  25.057   9.223
 1115POPC   GL216502   8.835  25.410   9.178
 1115POPC   C1A16503   8.775  25.080   8.777
 1115POPC   D2A16504   8.905  25.307   8.423
 1115POPC   C3A16505   9.058  25.080   8.088
 1115POPC   C4A16506   8.919  24.946   7.669
 1115POPC   C1B16507   9.216  25.328   8.887
 1115POPC   C2B16508   9.373  25.518   8.520
 1115POPC   C3B16509   9.395  25.467   8.053
 1115POPC   C4B16510   9.138  25.421   7.675
 1116POPC   NC316511  35.885  28.156   9.522
 1116POPC   PO416512  36.430  28.550   9.483
 1116POPC   GL116513  36.116  28.452   9.168
 1116POPC   GL216514  36.245  28.146   9.116
 1116POPC   C1A16515  36.029  28.467   8.709
 1116POPC   D2A16516  36.257  28.627   8.321
 1116POPC   C3A16517  36.102  28.611   7.878
 1116POPC   C4A16518  35.893  28.622   7.463
 1116POPC   C1B16519  36.106  27.955   8.735
 1116POPC   C2B16520  36.169  28.079   8.311
 1116POPC   C3B16521  36.016  28.119   7.882
 1116POPC   C4B16522  36.173  28.198   7.443
 1117POPC   NC316523  31.814  17.171   9.575
 1117POPC   PO416524  31.278  17.646   9.532
 1117POPC   GL116525  31.566  17.546   9.242
 1117POPC   GL216526  31.433  17.228   9.236
 1117POPC   C1A16527  31.557  17.707   8.834
 1117POPC   D2A16528  31.846  17.835   8.530
 1117POPC   C3A16529  31.749  17.704   8.115
 1117POPC   C4A16530  31.641  17.669   7.687
 1117POPC   C1B16531  31.261  17.262   8.835
 1117POPC   C2B16532  31.455  17.388   8.415
 1117POPC   C3B16533  31.512  17.257   7.963
 1117POPC   C4B16534  31.283  17.337   7.559
 1118POPC   NC316535   5.282   6.644   9.452
 1118POPC   PO416536   4.936   6.130   9.380
 1118POPC   GL116537   5.103   6.341   9.061
 1118POPC   GL216538   5.471   6.334   9.048
 1118POPC   C1A16539   4.919   6.427   8.672
 1118POPC   D2A16540   4.895   6.742   8.380
 1118POPC   C3A16541   5.052   6.540   8.034
 1118POPC   C4A16542   4.965   6.695   7.659
 1118POPC   C1B16543   5.396   6.629   8.680
 1118POPC   C2B16544   5.465   6.760   8.242
 1118POPC   C3B16545   5.312   6.971   7.887
 1118POPC   C4B16546   5.475   7.101   7.460
 1119POPC   NC316547  36.974   2.192   9.492
 1119POPC   PO416548  36.979   1.478   9.291
 1119POPC   GL116549  37.072   1.891   9.082
 1119POPC   GL216550  36.796   2.172   9.036
 1119POPC   C1A16551  37.058   2.000   8.650
 1119POPC   D2A16552  36.939   1.752   8.312
 1119POPC   C3A16553  37.086   1.878   7.949
 1119POPC   C4A16554  36.942   2.222   7.763
 1119POPC   C1B16555  36.612   1.811   8.798
 1119POPC   C2B16556  36.412   1.819   8.371
 1119POPC   C3B16557  36.552   1.919   7.950
 1119POPC   C4B16558  36.543   1.888   7.519
 1120POPC   NC316559  39.633  35.204   9.520
 1120POPC   PO416560  40.222  35.577   9.427
 1120POPC   GL116561  40.067  35.485   9.058
 1120POPC   GL216562  39.867  35.240   9.089
 1120POPC   C1A16563  40.049  35.532   8.644
 1120POPC   D2A16564  39.959  35.681   8.293
 1120POPC   C3A16565  39.855  35.409   7.950
 1120POPC   C4A16566  39.600  35.434   7.568
 1120POPC   C1B16567  39.987  35.038   8.767
 1120POPC   C2B16568  39.982  35.080   8.376
 1120POPC   C3B16569  39.643  34.986   8.163
 1120POPC   C4B16570  39.726  34.958   7.758
 1121POPC   NC316571  15.393  37.426   9.646
 1121POPC   PO416572  14.822  37.762   9.452
 1121POPC   GL116573  15.069  37.806   9.106
 1121POPC   GL216574  15.422  37.769   9.233
 1121POPC   C1A16575  15.037  37.931   8.678
 1121POPC   D2A16576  15.251  37.750   8.326
 1121POPC   C3A16577  15.109  37.550   7.954
 1121POPC   C4A16578  14.882  37.778   7.685
 1121POPC   C1B16579  15.561  37.884   8.791
 1121POPC   C2B16580  15.733  37.868   8.328
 1121POPC   C3B16581  15.565  37.779   7.864
 1121POPC   C4B16582  15.567  37.944   7.424
 1122POPC   NC316583  26.483  14.893   9.395
 1122POPC   PO416584  26.835  15.389   9.443
 1122POPC   GL116585  26.806  15.157   9.074
 1122POPC   GL216586  26.984  14.864   9.226
 1122POPC   C1A16587  26.629  15.309   8.693
 1122POPC   D2A16588  26.512  15.322   8.272
 1122POPC   C3A16589  26.461  15.552   7.932
 1122POPC   C4A16590  26.732  15.438   7.617
 1122POPC   C1B16591  26.912  14.724   8.806
 1122POPC   C2B16592  26.871  14.925   8.398
 1122POPC   C3B16593  26.930  15.117   7.982
 1122POPC   C4B16594  26.902  14.896   7.572
 1123POPC   NC316595   9.560  35.530   9.375
 1123POPC   PO416596   9.830  34.875   9.523
 1123POPC   GL116597   9.870  35.196   9.161
 1123POPC   GL216598   9.899  35.558   8.989
 1123POPC   C1A16599   9.662  35.196   8.762
 1123POPC   D2A16600   9.804  35.390   8.413
 1123POPC   C3A16601   9.676  35.144   8.092
 1123POPC   C4A16602   9.781  35.169   7.671
 1123POPC   C1B16603   9.513  35.701   8.729
 1123POPC   C2B16604   9.383  35.680   8.274
 1123POPC   C3B16605   9.616  35.601   7.876
 1123POPC   C4B16606   9.495  35.615   7.395
 1124POPC   NC316607  11.675  12.118   9.487
 1124POPC   PO416608  12.290  11.744   9.490
 1124POPC   GL116609  12.079  11.949   9.170
 1124POPC   GL216610  11.766  11.769   9.100
 1124POPC   C1A16611  12.181  11.845   8.743
 1124POPC   D2A16612  11.930  11.797   8.370
 1124POPC   C3A16613  12.178  11.885   8.045
 1124POPC   C4A16614  12.275  11.967   7.648
 1124POPC   C1B16615  11.722  12.088   8.784
 1124POPC   C2B16616  11.578  12.211   8.353
 1124POPC   C3B16617  11.629  12.133   7.909
 1124POPC   C4B16618  11.854  12.236   7.532
 1125POPC   NC316619   3.877   1.498   9.451
 1125POPC   PO416620   3.669   0.833   9.487
 1125POPC   GL116621   3.582   1.164   9.209
 1125POPC   GL216622   3.265   1.257   9.275
 1125POPC   C1A16623   3.657   1.345   8.814
 1125POPC   D2A16624   3.749   1.351   8.389
 1125POPC   C3A16625   3.698   1.061   8.088
 1125POPC   C4A16626   3.844   1.048   7.683
 1125POPC   C1B16627   3.200   1.523   8.884
 1125POPC   C2B16628   3.238   1.546   8.450
 1125POPC   C3B16629   3.176   1.258   8.113
 1125POPC   C4B16630   3.349   1.209   7.709
 1126POPC   NC316631   9.960  31.831   9.420
 1126POPC   PO416632  10.190  32.417   9.621
 1126POPC   GL116633  10.047  32.312   9.176
 1126POPC   GL216634   9.715  32.443   8.989
 1126POPC   C1A16635  10.096  32.171   8.750
 1126POPC   D2A16636   9.744  32.185   8.496
 1126POPC   C3A16637   9.794  32.090   8.100
 1126POPC   C4A16638   9.753  32.398   7.816
 1126POPC   C1B16639   9.384  32.094   8.840
 1126POPC   C2B16640   9.338  31.882   8.403
 1126POPC   C3B16641   9.298  32.038   7.958
 1126POPC   C4B16642   9.503  32.055   7.548
 1127POPC   NC316643  30.000  41.373   9.434
 1127POPC   PO416644  30.267  41.939   9.215
 1127POPC   GL116645  30.025  41.657   9.008
 1127POPC   GL216646  29.694  41.666   9.165
 1127POPC   C1A16647  30.025  41.565   8.587
 1127POPC   D2A16648  29.882  41.765   8.274
 1127POPC   C3A16649  30.178  41.795   7.994
 1127POPC   C4A16650  30.218  41.566   7.649
 1127POPC   C1B16651  29.559  41.620   8.749
 1127POPC   C2B16652  29.398  41.639   8.328
 1127POPC   C3B16653  29.557  41.519   7.893
 1127POPC   C4B16654  29.737  41.632   7.472
 1128POPC   NC316655  31.061  40.427   9.326
 1128POPC   PO416656  30.720  41.072   9.423
 1128POPC   GL116657  30.928  40.903   9.155
 1128POPC   GL216658  30.665  40.688   9.088
 1128POPC   C1A16659  30.987  40.958   8.757
 1128POPC   D2A16660  30.701  41.019   8.414
 1128POPC   C3A16661  30.931  41.098   8.046
 1128POPC   C4A16662  30.943  40.964   7.632
 1128POPC   C1B16663  30.724  40.506   8.698
 1128POPC   C2B16664  30.544  40.509   8.304
 1128POPC   C3B16665  30.627  40.691   7.923
 1128POPC   C4B16666  30.513  40.627   7.499
 1129POPC   NC316667  16.550  31.714   9.869
 1129POPC   PO416668  16.980  31.296   9.575
 1129POPC   GL116669  16.804  31.563   9.273
 1129POPC   GL216670  16.729  31.243   9.096
 1129POPC   C1A16671  16.758  31.688   8.832
 1129POPC   D2A16672  16.578  31.741   8.429
 1129POPC   C3A16673  16.780  31.639   8.047
 1129POPC   C4A16674  16.690  31.665   7.629
 1129POPC   C1B16675  17.066  31.275   8.763
 1129POPC   C2B16676  16.914  31.194   8.334
 1129POPC   C3B16677  16.477  31.258   8.189
 1129POPC   C4B16678  16.346  31.286   7.763
 1130POPC   NC316679  18.499  20.359   9.509
 1130POPC   PO416680  18.383  21.032   9.364
 1130POPC   GL116681  18.408  20.683   9.124
 1130POPC   GL216682  18.119  20.507   9.196
 1130POPC   C1A16683  18.377  20.454   8.745
 1130POPC   D2A16684  18.269  20.686   8.353
 1130POPC   C3A16685  18.470  20.696   7.932
 1130POPC   C4A16686  18.428  20.647   7.480
 1130POPC   C1B16687  17.855  20.692   8.876
 1130POPC   C2B16688  17.768  20.796   8.442
 1130POPC   C3B16689  17.957  20.977   8.058
 1130POPC   C4B16690  17.979  20.728   7.702
 1131POPC   NC316691  29.947   0.603   9.498
 1131POPC   PO416692  29.835  44.975   9.656
 1131POPC   GL116693  29.922   0.162   9.193
 1131POPC   GL216694  29.674   0.417   9.106
 1131POPC   C1A16695  30.076   0.395   8.803
 1131POPC   D2A16696  30.034   0.575   8.406
 1131POPC   C3A16697  30.005   0.332   8.073
 1131POPC   C4A16698  30.007   0.461   7.667
 1131POPC   C1B16699  29.636   0.681   8.741
 1131POPC   C2B16700  29.516   0.588   8.343
 1131POPC   C3B16701  29.618   0.654   7.960
 1131POPC   C4B16702  29.511   0.842   7.570
 1132POPC   NC316703  11.610   5.277   9.415
 1132POPC   PO416704  11.048   5.318   9.665
 1132POPC   GL116705  11.150   5.202   9.214
 1132POPC   GL216706  10.839   5.106   9.133
 1132POPC   C1A16707  11.451   5.175   8.810
 1132POPC   D2A16708  11.503   4.806   8.557
 1132POPC   C3A16709  11.398   4.813   8.119
 1132POPC   C4A16710  11.578   5.117   7.841
 1132POPC   C1B16711  10.964   5.156   8.700
 1132POPC   C2B16712  11.139   5.214   8.291
 1132POPC   C3B16713  11.078   5.202   7.818
 1132POPC   C4B16714  10.855   5.064   7.437
 1133POPC   NC316715  15.494  39.846   9.447
 1133POPC   PO416716  14.969  40.200   9.628
 1133POPC   GL116717  15.136  40.170   9.229
 1133POPC   GL216718  15.487  40.359   9.312
 1133POPC   C1A16719  15.097  39.982   8.772
 1133POPC   D2A16720  14.899  39.906   8.355
 1133POPC   C3A16721  15.176  39.772   8.018
 1133POPC   C4A16722  15.311  40.049   7.671
 1133POPC   C1B16723  15.419  40.365   8.876
 1133POPC   C2B16724  15.160  40.439   8.501
 1133POPC   C3B16725  15.203  40.340   8.071
 1133POPC   C4B16726  15.162  40.545   7.643
 1134POPC   NC316727  36.800  11.295   9.449
 1134POPC   PO416728  37.294  10.771   9.540
 1134POPC   GL116729  37.119  11.039   9.099
 1134POPC   GL216730  37.025  11.426   9.008
 1134POPC   C1A16731  36.982  11.094   8.637
 1134POPC   D2A16732  36.868  11.491   8.428
 1134POPC   C3A16733  37.020  11.582   8.053
 1134POPC   C4A16734  36.970  11.316   7.710
 1134POPC   C1B16735  36.560  11.435   8.819
 1134POPC   C2B16736  36.362  11.557   8.381
 1134POPC   C3B16737  36.526  11.437   7.955
 1134POPC   C4B16738  36.546  11.355   7.458
 1135POPC   NC316739  22.574   8.493   9.857
 1135POPC   PO416740  22.838   8.340   9.298
 1135POPC   GL116741  23.039   8.080   9.025
 1135POPC   GL216742  22.759   7.836   9.006
 1135POPC   C1A16743  23.011   7.996   8.601
 1135POPC   D2A16744  22.783   7.972   8.246
 1135POPC   C3A16745  22.962   8.121   7.907
 1135POPC   C4A16746  23.178   8.405   7.669
 1135POPC   C1B16747  22.557   8.133   8.727
 1135POPC   C2B16748  22.762   8.441   8.476
 1135POPC   C3B16749  22.705   8.525   8.057
 1135POPC   C4B16750  22.663   8.631   7.627
 1136POPC   NC316751  23.488  34.428   9.534
 1136POPC   PO416752  22.889  34.608   9.695
 1136POPC   GL116753  22.908  34.723   9.253
 1136POPC   GL216754  23.208  34.596   9.135
 1136POPC   C1A16755  22.797  34.636   8.813
 1136POPC   D2A16756  22.737  34.469   8.395
 1136POPC   C3A16757  22.959  34.597   8.007
 1136POPC   C4A16758  22.827  34.525   7.607
 1136POPC   C1B16759  23.198  34.299   8.781
 1136POPC   C2B16760  23.262  34.465   8.396
 1136POPC   C3B16761  23.423  34.356   8.016
 1136POPC   C4B16762  23.498  34.615   7.671
 1137POPC   NC316763  30.203  33.261   9.529
 1137POPC   PO416764  30.782  33.019   9.637
 1137POPC   GL116765  30.666  33.230   9.258
 1137POPC   GL216766  30.945  33.337   9.048
 1137POPC   C1A16767  30.428  33.343   8.890
 1137POPC   D2A16768  30.411  33.119   8.502
 1137POPC   C3A16769  30.496  33.218   8.085
 1137POPC   C4A16770  30.304  32.832   7.860
 1137POPC   C1B16771  30.855  32.937   8.781
 1137POPC   C2B16772  30.801  32.775   8.324
 1137POPC   C3B16773  30.810  32.896   7.871
 1137POPC   C4B16774  31.051  33.262   7.709
 1138POPC   NC316775  33.430   5.544   9.487
 1138POPC   PO416776  33.932   5.877   9.582
 1138POPC   GL116777  33.905   5.976   9.189
 1138POPC   GL216778  33.564   5.902   9.112
 1138POPC   C1A16779  33.973   5.825   8.775
 1138POPC   D2A16780  34.021   5.700   8.365
 1138POPC   C3A16781  34.177   5.872   8.015
 1138POPC   C4A16782  33.902   5.816   7.664
 1138POPC   C1B16783  33.411   6.003   8.711
 1138POPC   C2B16784  33.519   5.884   8.299
 1138POPC   C3B16785  33.439   5.908   7.860
 1138POPC   C4B16786  33.280   6.035   7.444
 1139POPC   NC316787  29.487  25.456   9.648
 1139POPC   PO416788  29.418  24.890   9.496
 1139POPC   GL116789  29.271  25.216   9.212
 1139POPC   GL216790  29.044  24.946   9.107
 1139POPC   C1A16791  29.112  25.340   8.784
 1139POPC   D2A16792  28.903  25.142   8.432
 1139POPC   C3A16793  29.001  25.400   8.070
 1139POPC   C4A16794  29.305  25.379   7.713
 1139POPC   C1B16795  29.411  24.914   8.811
 1139POPC   C2B16796  29.422  25.117   8.394
 1139POPC   C3B16797  29.217  24.952   8.018
 1139POPC   C4B16798  29.283  24.830   7.606
 1140POPC   NC316799   6.876  18.393   9.509
 1140POPC   PO416800   6.288  18.334   9.659
 1140POPC   GL116801   6.530  18.240   9.185
 1140POPC   GL216802   6.737  18.485   9.036
 1140POPC   C1A16803   6.841  18.082   8.797
 1140POPC   D2A16804   6.923  18.364   8.405
 1140POPC   C3A16805   6.788  18.391   7.949
 1140POPC   C4A16806   6.906  18.383   7.498
 1140POPC   C1B16807   6.476  18.421   8.704
 1140POPC   C2B16808   6.386  18.396   8.287
 1140POPC   C3B16809   6.369  18.659   7.947
 1140POPC   C4B16810   6.398  18.384   7.587
 1141POPC   NC316811  32.669  12.159   9.790
 1141POPC   PO416812  31.996  11.944   9.508
 1141POPC   GL116813  32.371  12.127   9.338
 1141POPC   GL216814  32.409  11.823   9.181
 1141POPC   C1A16815  32.441  12.283   8.925
 1141POPC   D2A16816  32.152  12.175   8.592
 1141POPC   C3A16817  32.218  12.273   8.158
 1141POPC   C4A16818  32.408  12.269   7.752
 1141POPC   C1B16819  32.532  11.794   8.779
 1141POPC   C2B16820  32.491  11.851   8.376
 1141POPC   C3B16821  32.354  11.804   7.977
 1141POPC   C4B16822  32.545  11.565   7.674
 1142POPC   NC316823  18.531  18.011   9.468
 1142POPC   PO416824  18.169  18.655   9.487
 1142POPC   GL116825  18.397  18.440   9.132
 1142POPC   GL216826  18.669  18.678   9.021
 1142POPC   C1A16827  18.386  18.030   8.834
 1142POPC   D2A16828  18.497  17.845   8.399
 1142POPC   C3A16829  18.553  18.108   8.075
 1142POPC   C4A16830  18.281  18.218   7.747
 1142POPC   C1B16831  18.552  18.469   8.633
 1142POPC   C2B16832  18.485  18.582   8.204
 1142POPC   C3B16833  18.569  18.643   7.779
 1142POPC   C4B16834  18.645  18.637   7.320
 1143POPC   NC316835   8.650  28.690   9.410
 1143POPC   PO416836   8.059  28.359   9.475
 1143POPC   GL116837   8.345  28.403   9.127
 1143POPC   GL216838   8.426  28.102   9.005
 1143POPC   C1A16839   8.563  28.581   8.760
 1143POPC   D2A16840   8.318  28.601   8.405
 1143POPC   C3A16841   8.459  28.566   7.999
 1143POPC   C4A16842   8.170  28.535   7.646
 1143POPC   C1B16843   8.446  28.122   8.589
 1143POPC   C2B16844   8.137  28.113   8.286
 1143POPC   C3B16845   8.193  28.099   7.868
 1143POPC   C4B16846   8.432  27.818   7.693
 1144POPC   NC316847  28.856  20.140   9.276
 1144POPC   PO416848  29.296  19.681   9.455
 1144POPC   GL116849  29.015  19.660   9.127
 1144POPC   GL216850  29.150  19.912   8.909
 1144POPC   C1A16851  28.977  19.474   8.753
 1144POPC   D2A16852  29.037  19.753   8.400
 1144POPC   C3A16853  29.142  19.591   7.978
 1144POPC   C4A16854  28.887  19.381   7.708
 1144POPC   C1B16855  29.512  20.116   8.705
 1144POPC   C2B16856  29.598  20.265   8.291
 1144POPC   C3B16857  29.468  20.198   7.870
 1144POPC   C4B16858  29.447  19.970   7.472
 1145POPC   NC316859  21.120  10.866   9.560
 1145POPC   PO416860  21.331  11.575   9.534
 1145POPC   GL116861  21.383  11.223   9.222
 1145POPC   GL216862  21.039  11.151   9.158
 1145POPC   C1A16863  21.615  11.176   8.772
 1145POPC   D2A16864  21.658  11.439   8.383
 1145POPC   C3A16865  21.648  11.213   7.996
 1145POPC   C4A16866  21.411  10.966   7.716
 1145POPC   C1B16867  21.126  11.234   8.748
 1145POPC   C2B16868  21.257  11.110   8.333
 1145POPC   C3B16869  21.123  11.322   7.967
 1145POPC   C4B16870  21.099  11.354   7.523
 1146POPC   NC316871   7.641  30.951   9.523
 1146POPC   PO416872   7.236  30.473   9.268
 1146POPC   GL116873   7.341  30.870   9.113
 1146POPC   GL216874   7.017  30.942   9.021
 1146POPC   C1A16875   7.668  30.893   8.791
 1146POPC   D2A16876   7.670  30.904   8.341
 1146POPC   C3A16877   7.574  30.633   7.994
 1146POPC   C4A16878   7.808  30.792   7.653
 1146POPC   C1B16879   7.135  30.825   8.627
 1146POPC   C2B16880   7.178  30.915   8.214
 1146POPC   C3B16881   6.959  30.959   7.872
 1146POPC   C4B16882   7.277  30.820   7.577
 1147POPC   NC316883  30.794   3.705   9.698
 1147POPC   PO416884  30.500   4.356   9.519
 1147POPC   GL116885  30.506   4.500   9.117
 1147POPC   GL216886  30.774   4.265   9.092
 1147POPC   C1A16887  30.370   4.312   8.783
 1147POPC   D2A16888  30.433   4.065   8.443
 1147POPC   C3A16889  30.504   4.213   8.050
 1147POPC   C4A16890  30.439   4.440   7.710
 1147POPC   C1B16891  30.879   4.252   8.695
 1147POPC   C2B16892  31.208   4.215   8.455
 1147POPC   C3B16893  30.995   4.100   8.143
 1147POPC   C4B16894  30.967   4.224   7.749
 1148POPC   NC316895  44.523   1.039   9.620
 1148POPC   PO416896  44.956   1.534   9.801
 1148POPC   GL116897  44.599   1.460   9.372
 1148POPC   GL216898  44.518   1.687   9.084
 1148POPC   C1A16899  44.549   1.203   8.939
 1148POPC   D2A16900  44.476   1.358   8.495
 1148POPC   C3A16901  44.446   1.260   8.051
 1148POPC   C4A16902  44.623   1.170   7.638
 1148POPC   C1B16903  44.870   1.553   8.739
 1148POPC   C2B16904   0.104   1.471   8.342
 1148POPC   C3B16905  44.924   1.480   7.910
 1148POPC   C4B16906  44.514   1.685   7.731
 1149POPC   NC316907  24.277   4.912   9.620
 1149POPC   PO416908  24.901   4.690   9.346
 1149POPC   GL116909  24.526   4.933   9.166
 1149POPC   GL216910  24.280   5.244   9.224
 1149POPC   C1A16911  24.254   4.910   8.811
 1149POPC   D2A16912  24.280   4.973   8.388
 1149POPC   C3A16913  24.647   4.817   8.164
 1149POPC   C4A16914  24.449   4.909   7.770
 1149POPC   C1B16915  24.391   5.392   8.817
 1149POPC   C2B16916  24.651   5.273   8.504
 1149POPC   C3B16917  24.636   5.317   8.056
 1149POPC   C4B16918  24.371   5.505   7.768
 1150POPC   NC316919  36.208  13.814   9.445
 1150POPC   PO416920  36.532  13.220   9.595
 1150POPC   GL116921  36.232  13.265   9.232
 1150POPC   GL216922  35.867  13.328   9.346
 1150POPC   C1A16923  36.259  13.486   8.818
 1150POPC   D2A16924  36.087  13.643   8.421
 1150POPC   C3A16925  36.275  13.456   8.042
 1150POPC   C4A16926  36.221  13.553   7.603
 1150POPC   C1B16927  35.798  13.284   8.895
 1150POPC   C2B16928  35.586  13.359   8.478
 1150POPC   C3B16929  35.778  13.409   8.072
 1150POPC   C4B16930  35.693  13.569   7.662
 1151POPC   NC316931  24.344  15.461   9.705
 1151POPC   PO416932  23.642  15.317   9.498
 1151POPC   GL116933  23.662  15.140   9.114
 1151POPC   GL216934  24.004  15.175   9.153
 1151POPC   C1A16935  23.860  14.937   8.737
 1151POPC   D2A16936  23.831  14.801   8.310
 1151POPC   C3A16937  23.557  15.068   8.052
 1151POPC   C4A16938  23.362  15.053   7.664
 1151POPC   C1B16939  23.988  15.436   8.762
 1151POPC   C2B16940  23.866  15.345   8.348
 1151POPC   C3B16941  23.968  15.405   7.894
 1151POPC   C4B16942  23.816  15.257   7.500
 1152POPC   NC316943  41.155  25.904   9.451
 1152POPC   PO416944  41.628  26.286   9.570
 1152POPC   GL116945  41.625  26.060   9.200
 1152POPC   GL216946  41.312  26.178   9.055
 1152POPC   C1A16947  41.784  26.064   8.780
 1152POPC   D2A16948  41.584  26.063   8.369
 1152POPC   C3A16949  41.649  26.292   8.003
 1152POPC   C4A16950  41.597  25.982   7.661
 1152POPC   C1B16951  41.256  25.907   8.724
 1152POPC   C2B16952  41.049  25.986   8.315
 1152POPC   C3B16953  41.171  26.107   7.889
 1152POPC   C4B16954  41.175  26.078   7.380
 1153POPC   NC316955  43.513   8.423   9.469
 1153POPC   PO416956  44.084   7.962   9.538
 1153POPC   GL116957  43.849   8.080   9.221
 1153POPC   GL216958  43.960   8.416   9.200
 1153POPC   C1A16959  43.761   7.861   8.857
 1153POPC   D2A16960  43.952   7.737   8.474
 1153POPC   C3A16961  43.719   7.794   8.108
 1153POPC   C4A16962  43.990   7.906   7.765
 1153POPC   C1B16963  43.681   8.401   8.837
 1153POPC   C2B16964  43.677   8.187   8.459
 1153POPC   C3B16965  43.910   8.270   8.113
 1153POPC   C4B16966  43.817   8.378   7.714
 1154POPC   NC316967  19.717  28.932   9.775
 1154POPC   PO416968  19.553  28.333   9.478
 1154POPC   GL116969  19.761  28.551   9.145
 1154POPC   GL216970  20.108  28.699   9.171
 1154POPC   C1A16971  19.763  28.577   8.703
 1154POPC   D2A16972  19.978  28.546   8.320
 1154POPC   C3A16973  19.759  28.597   7.903
 1154POPC   C4A16974  19.602  28.405   7.533
 1154POPC   C1B16975  20.213  28.370   8.819
 1154POPC   C2B16976  20.208  28.097   8.430
 1154POPC   C3B16977  20.179  28.205   7.965
 1154POPC   C4B16978  20.228  28.535   7.643
 1155POPC   NC316979   3.758  33.424   9.583
 1155POPC   PO416980   3.897  34.090   9.594
 1155POPC   GL116981   3.670  33.796   9.226
 1155POPC   GL216982   3.768  33.528   9.080
 1155POPC   C1A16983   3.422  33.816   8.807
 1155POPC   D2A16984   3.496  34.076   8.416
 1155POPC   C3A16985   3.437  34.025   7.963
 1155POPC   C4A16986   3.416  33.607   7.782
 1155POPC   C1B16987   3.842  33.468   8.650
 1155POPC   C2B16988   3.919  33.304   8.243
 1155POPC   C3B16989   3.900  33.378   7.828
 1155POPC   C4B16990   3.884  33.787   7.646
 1156POPC   NC316991  22.909  10.092   9.354
 1156POPC   PO416992  23.151  10.659   9.605
 1156POPC   GL116993  22.945  10.618   9.177
 1156POPC   GL216994  22.622  10.724   9.128
 1156POPC   C1A16995  22.777  10.339   8.774
 1156POPC   D2A16996  22.564  10.224   8.369
 1156POPC   C3A16997  22.847  10.271   8.022
 1156POPC   C4A16998  23.010  10.539   7.699
 1156POPC   C1B16999  22.779  10.849   8.746
 1156POPC   C2B17000  22.783  10.703   8.367
 1156POPC   C3B17001  22.687  10.851   8.013
 1156POPC   C4B17002  22.828  11.097   7.681
 1157POPC   NC317003  15.679  40.815   9.610
 1157POPC   PO417004  16.365  41.093   9.536
 1157POPC   GL117005  16.031  40.966   9.275
 1157POPC   GL217006  16.047  40.675   9.174
 1157POPC   C1A17007  15.968  41.021   8.815
 1157POPC   D2A17008  16.015  40.763   8.436
 1157POPC   C3A17009  15.961  40.892   8.026
 1157POPC   C4A17010  16.026  40.732   7.649
 1157POPC   C1B17011  15.919  40.471   8.847
 1157POPC   C2B17012  15.752  40.324   8.474
 1157POPC   C3B17013  15.905  40.389   8.081
 1157POPC   C4B17014  15.641  40.425   7.782
 1158POPC   NC317015  32.614  34.386   9.436
 1158POPC   PO417016  32.240  34.903   9.782
 1158POPC   GL117017  32.175  34.625   9.340
 1158POPC   GL217018  32.454  34.653   9.054
 1158POPC   C1A17019  31.958  34.630   8.915
 1158POPC   D2A17020  31.922  34.552   8.475
 1158POPC   C3A17021  32.186  34.305   8.220
 1158POPC   C4A17022  32.018  34.386   7.832
 1158POPC   C1B17023  32.446  34.816   8.641
 1158POPC   C2B17024  32.429  34.793   8.207
 1158POPC   C3B17025  32.424  34.676   7.802
 1158POPC   C4B17026  32.469  34.864   7.366
 1159POPC   NC317027   6.233   1.612   9.556
 1159POPC   PO417028   6.905   1.484   9.488
 1159POPC   GL117029   6.932   1.326   9.087
 1159POPC   GL217030   6.587   1.198   8.976
 1159POPC   C1A17031   6.877   1.510   8.684
 1159POPC   D2A17032   6.580   1.345   8.426
 1159POPC   C3A17033   6.676   1.121   8.096
 1159POPC   C4A17034   6.570   1.208   7.698
 1159POPC   C1B17035   6.607   0.888   8.659
 1159POPC   C2B17036   6.631   0.637   8.280
 1159POPC   C3B17037   6.482   0.713   7.837
 1159POPC   C4B17038   6.238   0.889   7.463
 1160POPC   NC317039  15.309  20.733   9.512
 1160POPC   PO417040  14.631  20.625   9.623
 1160POPC   GL117041  14.895  20.640   9.209
 1160POPC   GL217042  15.191  20.842   9.032
 1160POPC   C1A17043  14.817  20.635   8.766
 1160POPC   D2A17044  14.979  20.464   8.388
 1160POPC   C3A17045  14.909  20.671   7.988
 1160POPC   C4A17046  15.146  21.001   7.767
 1160POPC   C1B17047  15.341  20.513   8.842
 1160POPC   C2B17048  15.498  20.491   8.464
 1160POPC   C3B17049  15.427  20.291   8.109
 1160POPC   C4B17050  15.316  20.491   7.711
 1161POPC   NC317051   6.363  12.214  10.145
 1161POPC   PO417052   6.708  12.302   9.546
 1161POPC   GL117053   6.830  12.131   9.168
 1161POPC   GL217054   6.501  12.139   9.051
 1161POPC   C1A17055   6.863  12.034   8.735
 1161POPC   D2A17056   6.743  11.909   8.384
 1161POPC   C3A17057   6.847  12.134   8.048
 1161POPC   C4A17058   6.704  12.063   7.664
 1161POPC   C1B17059   6.308  11.971   8.676
 1161POPC   C2B17060   6.258  11.896   8.219
 1161POPC   C3B17061   6.200  11.984   7.772
 1161POPC   C4B17062   6.334  12.142   7.335
 1162POPC   NC317063   0.469  14.573   9.588
 1162POPC   PO417064   0.326  14.021   9.534
 1162POPC   GL117065   0.279  14.344   9.179
 1162POPC   GL217066   0.021  14.602   9.199
 1162POPC   C1A17067   0.512  14.541   8.845
 1162POPC   D2A17068   0.696  14.397   8.466
 1162POPC   C3A17069   0.534  14.304   8.078
 1162POPC   C4A17070   0.580  14.563   7.747
 1162POPC   C1B17071  44.997  14.587   8.725
 1162POPC   C2B17072   0.075  14.462   8.278
 1162POPC   C3B17073   0.097  14.373   7.811
 1162POPC   C4B17074   0.352  14.152   7.486
 1163POPC   NC317075  11.699  33.979   9.443
 1163POPC   PO417076  12.346  33.918   9.801
 1163POPC   GL117077  12.248  33.732   9.312
 1163POPC   GL217078  11.904  33.541   9.279
 1163POPC   C1A17079  12.382  33.958   8.878
 1163POPC   D2A17080  12.138  34.113   8.507
 1163POPC   C3A17081  12.295  34.022   8.108
 1163POPC   C4A17082  12.196  33.783   7.739
 1163POPC   C1B17083  11.972  33.657   8.839
 1163POPC   C2B17084  12.318  33.611   8.508
 1163POPC   C3B17085  12.197  33.493   8.133
 1163POPC   C4B17086  11.765  33.558   7.948
 1164POPC   NC317087  42.871  34.379   9.425
 1164POPC   PO417088  43.248  34.858   9.589
 1164POPC   GL117089  43.089  34.797   9.189
 1164POPC   GL217090  43.397  34.602   9.165
 1164POPC   C1A17091  42.999  34.604   8.799
 1164POPC   D2A17092  42.874  34.411   8.428
 1164POPC   C3A17093  43.043  34.464   8.031
 1164POPC   C4A17094  42.932  34.647   7.661
 1164POPC   C1B17095  43.478  34.377   8.799
 1164POPC   C2B17096  43.358  34.253   8.408
 1164POPC   C3B17097  43.529  34.246   8.008
 1164POPC   C4B17098  43.418  34.459   7.665
 1165POPC   NC317099  39.859  40.833   9.606
 1165POPC   PO417100  40.494  40.755   9.565
 1165POPC   GL117101  40.131  40.913   9.193
 1165POPC   GL217102  39.726  41.037   9.158
 1165POPC   C1A17103  39.953  40.795   8.784
 1165POPC   D2A17104  40.012  40.529   8.436
 1165POPC   C3A17105  40.201  40.590   7.991
 1165POPC   C4A17106  40.085  40.412   7.585
 1165POPC   C1B17107  39.613  41.192   8.739
 1165POPC   C2B17108  39.835  41.064   8.361
 1165POPC   C3B17109  39.735  40.809   8.036
 1165POPC   C4B17110  39.706  40.927   7.652
 1166POPC   NC317111  38.707  18.471   9.541
 1166POPC   PO417112  39.319  18.202   9.666
 1166POPC   GL117113  39.249  18.076   9.190
 1166POPC   GL217114  39.486  18.262   8.962
 1166POPC   C1A17115  39.119  18.040   8.721
 1166POPC   D2A17116  39.278  17.966   8.292
 1166POPC   C3A17117  39.249  18.070   7.839
 1166POPC   C4A17118  39.066  18.372   7.524
 1166POPC   C1B17119  39.518  18.568   8.710
 1166POPC   C2B17120  39.516  18.430   8.312
 1166POPC   C3B17121  39.299  18.556   7.967
 1166POPC   C4B17122  39.531  18.502   7.597
 1167POPC   NC317123   0.513  44.921   9.340
 1167POPC   PO417124   0.237  44.337   9.547
 1167POPC   GL117125   0.238  44.541   9.123
 1167POPC   GL217126   0.097  44.904   9.049
 1167POPC   C1A17127   0.420  44.685   8.732
 1167POPC   D2A17128   0.527  44.942   8.406
 1167POPC   C3A17129   0.453  44.703   8.043
 1167POPC   C4A17130   0.338  44.551   7.627
 1167POPC   C1B17131  44.959  44.872   8.627
 1167POPC   C2B17132   0.060   0.029   8.223
 1167POPC   C3B17133   0.193   0.040   7.774
 1167POPC   C4B17134   0.295  44.977   7.350
 1168POPC   NC317135  13.164   0.370   9.298
 1168POPC   PO417136  12.524   0.509   9.413
 1168POPC   GL117137  12.720   0.391   9.056
 1168POPC   GL217138  12.723   0.041   9.178
 1168POPC   C1A17139  12.930   0.604   8.709
 1168POPC   D2A17140  12.844   0.780   8.317
 1168POPC   C3A17141  12.707   0.511   8.010
 1168POPC   C4A17142  12.810   0.685   7.653
 1168POPC   C1B17143  12.499   0.014   8.799
 1168POPC   C2B17144  12.520   0.257   8.425
 1168POPC   C3B17145  12.455   0.055   8.025
 1168POPC   C4B17146  12.597   0.120   7.614
 1169POPC   NC317147  27.460   5.451   9.655
 1169POPC   PO417148  27.316   4.886   9.222
 1169POPC   GL117149  27.679   4.989   9.041
 1169POPC   GL217150  27.659   5.314   9.157
 1169POPC   C1A17151  27.722   4.868   8.617
 1169POPC   D2A17152  27.819   4.842   8.193
 1169POPC   C3A17153  27.511   4.903   7.919
 1169POPC   C4A17154  27.485   4.968   7.511
 1169POPC   C1B17155  27.459   5.324   8.699
 1169POPC   C2B17156  27.477   5.369   8.218
 1169POPC   C3B17157  27.499   5.421   7.748
 1169POPC   C4B17158  27.393   5.631   7.352
 1170POPC   NC317159  41.554  44.554   9.720
 1170POPC   PO417160  41.638  43.898   9.548
 1170POPC   GL117161  41.707  43.843   9.101
 1170POPC   GL217162  41.966  44.098   9.004
 1170POPC   C1A17163  41.514  43.727   8.721
 1170POPC   D2A17164  41.116  43.664   8.446
 1170POPC   C3A17165  41.287  43.595   8.041
 1170POPC   C4A17166  41.717  43.709   7.995
 1170POPC   C1B17167  41.706  44.242   8.714
 1170POPC   C2B17168  41.552  44.100   8.337
 1170POPC   C3B17169  41.730  44.215   7.972
 1170POPC   C4B17170  41.757  44.457   7.646
 1171POPC   NC317171  25.988  11.618   9.558
 1171POPC   PO417172  26.012  12.335   9.520
 1171POPC   GL117173  26.051  12.275   9.080
 1171POPC   GL217174  26.124  11.993   9.058
 1171POPC   C1A17175  26.235  12.233   8.643
 1171POPC   D2A17176  25.975  12.224   8.278
 1171POPC   C3A17177  25.870  12.264   7.852
 1171POPC   C4A17178  26.238  12.150   7.606
 1171POPC   C1B17179  25.977  11.723   8.769
 1171POPC   C2B17180  25.792  11.741   8.363
 1171POPC   C3B17181  25.930  11.773   7.965
 1171POPC   C4B17182  25.783  11.851   7.556
 1172POPC   NC317183  29.559  10.461   9.466
 1172POPC   PO417184  30.097  10.947   9.468
 1172POPC   GL117185  29.965  10.855   9.080
 1172POPC   GL217186  29.876  10.494   9.079
 1172POPC   C1A17187  30.000  10.757   8.677
 1172POPC   D2A17188  30.018  10.437   8.424
 1172POPC   C3A17189  30.085  10.687   8.127
 1172POPC   C4A17190  29.928  10.761   7.784
 1172POPC   C1B17191  29.681  10.246   8.761
 1172POPC   C2B17192  29.714  10.053   8.331
 1172POPC   C3B17193  29.815  10.275   7.958
 1172POPC   C4B17194  29.518  10.459   7.655
 1173POPC   NC317195   8.392  17.608   9.558
 1173POPC   PO417196   8.590  16.952   9.475
 1173POPC   GL117197   8.379  17.245   9.145
 1173POPC   GL217198   8.532  17.585   9.083
 1173POPC   C1A17199   8.190  17.349   8.737
 1173POPC   D2A17200   8.275  17.549   8.322
 1173POPC   C3A17201   7.949  17.504   8.011
 1173POPC   C4A17202   7.936  17.324   7.571
 1173POPC   C1B17203   8.518  17.792   8.704
 1173POPC   C2B17204   8.732  17.874   8.297
 1173POPC   C3B17205   8.528  17.796   7.918
 1173POPC   C4B17206   8.394  17.368   7.830
 1174POPC   NC317207  39.069  35.945   9.440
 1174POPC   PO417208  39.631  36.374   9.557
 1174POPC   GL117209  39.463  36.087   9.179
 1174POPC   GL217210  39.122  36.286   9.068
 1174POPC   C1A17211  39.380  35.981   8.719
 1174POPC   D2A17212  39.116  35.848   8.353
 1174POPC   C3A17213  39.281  35.978   7.953
 1174POPC   C4A17214  39.123  36.355   7.819
 1174POPC   C1B17215  39.120  36.482   8.656
 1174POPC   C2B17216  39.318  36.345   8.322
 1174POPC   C3B17217  39.572  36.522   8.054
 1174POPC   C4B17218  39.481  36.673   7.686
 1175POPC   NC317219  36.741  32.099   9.434
 1175POPC   PO417220  37.366  32.354   9.395
 1175POPC   GL117221  37.085  32.256   9.088
 1175POPC   GL217222  36.783  32.479   9.104
 1175POPC   C1A17223  37.046  32.005   8.748
 1175POPC   D2A17224  36.735  31.910   8.448
 1175POPC   C3A17225  36.833  31.981   8.024
 1175POPC   C4A17226  37.179  32.072   7.742
 1175POPC   C1B17227  36.596  32.296   8.734
 1175POPC   C2B17228  36.578  32.377   8.272
 1175POPC   C3B17229  36.542  32.429   7.817
 1175POPC   C4B17230  36.642  32.497   7.363
 1176POPC   NC317231  42.170   7.630   9.768
 1176POPC   PO417232  42.327   8.275   9.416
 1176POPC   GL117233  42.360   8.324   9.027
 1176POPC   GL217234  42.064   8.506   9.002
 1176POPC   C1A17235  42.167   8.160   8.649
 1176POPC   D2A17236  42.021   8.128   8.245
 1176POPC   C3A17237  42.425   7.971   8.114
 1176POPC   C4A17238  42.561   7.889   7.709
 1176POPC   C1B17239  42.392   8.614   8.630
 1176POPC   C2B17240  42.333   8.521   8.183
 1176POPC   C3B17241  42.269   8.336   7.803
 1176POPC   C4B17242  42.099   8.539   7.459
 1177POPC   NC317243  18.511  16.277   9.479
 1177POPC   PO417244  18.551  15.656   9.589
 1177POPC   GL117245  18.367  15.858   9.226
 1177POPC   GL217246  18.050  16.045   9.260
 1177POPC   C1A17247  18.448  16.053   8.843
 1177POPC   D2A17248  18.588  15.997   8.439
 1177POPC   C3A17249  18.454  16.147   8.063
 1177POPC   C4A17250  18.312  15.957   7.713
 1177POPC   C1B17251  17.919  16.127   8.811
 1177POPC   C2B17252  18.044  16.007   8.373
 1177POPC   C3B17253  17.871  16.111   7.943
 1177POPC   C4B17254  17.829  16.117   7.471
 1178POPC   NC317255  25.010   0.010   9.481
 1178POPC   PO417256  25.367   0.603   9.460
 1178POPC   GL117257  25.111   0.657   9.109
 1178POPC   GL217258  25.166   0.295   9.080
 1178POPC   C1A17259  25.181   0.634   8.657
 1178POPC   D2A17260  25.327   0.391   8.285
 1178POPC   C3A17261  25.161   0.614   7.955
 1178POPC   C4A17262  25.268   0.793   7.551
 1178POPC   C1B17263  25.224   0.095   8.700
 1178POPC   C2B17264  25.104  44.909   8.309
 1178POPC   C3B17265  25.069   0.075   7.924
 1178POPC   C4B17266  25.249   0.296   7.573
 1179POPC   NC317267  32.672  32.755   9.533
 1179POPC   PO417268  33.275  33.129   9.384
 1179POPC   GL117269  33.146  33.227   9.015
 1179POPC   GL217270  32.825  33.089   9.111
 1179POPC   C1A17271  33.342  33.053   8.653
 1179POPC   D2A17272  33.446  32.795   8.294
 1179POPC   C3A17273  33.349  32.981   7.904
 1179POPC   C4A17274  33.076  32.710   7.678
 1179POPC   C1B17275  32.849  32.943   8.700
 1179POPC   C2B17276  33.001  33.107   8.298
 1179POPC   C3B17277  32.826  33.085   7.924
 1179POPC   C4B17278  32.596  33.173   7.587
 1180POPC   NC317279  33.969   7.698   9.588
 1180POPC   PO417280  33.499   8.124   9.376
 1180POPC   GL117281  33.906   7.967   9.170
 1180POPC   GL217282  33.841   8.239   8.992
 1180POPC   C1A17283  34.180   7.957   8.777
 1180POPC   D2A17284  33.932   8.226   8.480
 1180POPC   C3A17285  33.760   8.187   8.054
 1180POPC   C4A17286  33.935   8.113   7.661
 1180POPC   C1B17287  33.538   8.437   8.765
 1180POPC   C2B17288  33.454   8.474   8.372
 1180POPC   C3B17289  33.491   8.665   7.993
 1180POPC   C4B17290  33.464   8.388   7.637
 1181POPC   NC317291  44.276  15.408   9.581
 1181POPC   PO417292  44.857  14.957   9.526
 1181POPC   GL117293  44.768  15.074   9.144
 1181POPC   GL217294  44.428  15.073   9.192
 1181POPC   C1A17295  44.798  15.165   8.715
 1181POPC   D2A17296  44.880  14.979   8.316
 1181POPC   C3A17297  44.881  15.230   7.932
 1181POPC   C4A17298  44.871  15.368   7.496
 1181POPC   C1B17299  44.296  15.029   8.771
 1181POPC   C2B17300  44.395  15.185   8.371
 1181POPC   C3B17301  44.404  15.001   7.988
 1181POPC   C4B17302  44.446  15.151   7.609
 1182POPC   NC317303  39.475   4.878   9.682
 1182POPC   PO417304  39.418   5.463   9.296
 1182POPC   GL117305  39.533   5.197   9.016
 1182POPC   GL217306  39.408   4.899   9.164
 1182POPC   C1A17307  39.315   5.212   8.671
 1182POPC   D2A17308  39.162   5.421   8.353
 1182POPC   C3A17309  39.238   5.248   7.986
 1182POPC   C4A17310  39.005   5.148   7.639
 1182POPC   C1B17311  39.258   4.711   8.777
 1182POPC   C2B17312  39.265   4.821   8.321
 1182POPC   C3B17313  39.459   4.784   7.929
 1182POPC   C4B17314  39.472   4.440   7.634
 1183POPC   NC317315  43.540   5.956   9.512
 1183POPC   PO417316  42.898   5.681   9.485
 1183POPC   GL117317  42.979   5.990   9.186
 1183POPC   GL217318  43.239   5.815   9.114
 1183POPC   C1A17319  43.057   6.101   8.736
 1183POPC   D2A17320  43.016   5.898   8.343
 1183POPC   C3A17321  43.175   6.125   8.028
 1183POPC   C4A17322  43.210   5.944   7.642
 1183POPC   C1B17323  43.112   5.581   8.781
 1183POPC   C2B17324  43.279   5.453   8.384
 1183POPC   C3B17325  43.131   5.496   7.987
 1183POPC   C4B17326  43.348   5.463   7.614
 1184POPC   NC317327  18.528  17.186   9.530
 1184POPC   PO417328  18.093  17.768   9.451
 1184POPC   GL117329  18.362  17.545   9.195
 1184POPC   GL217330  18.156  17.228   9.182
 1184POPC   C1A17331  18.410  17.493   8.771
 1184POPC   D2A17332  18.682  17.376   8.454
 1184POPC   C3A17333  18.497  17.353   8.064
 1184POPC   C4A17334  18.439  17.719   7.782
 1184POPC   C1B17335  17.929  17.350   8.807
 1184POPC   C2B17336  18.055  17.447   8.353
 1184POPC   C3B17337  18.032  17.429   7.892
 1184POPC   C4B17338  17.770  17.410   7.559
 1185POPC   NC317339  26.260  43.756   9.623
 1185POPC   PO417340  25.567  43.912   9.600
 1185POPC   GL117341  25.981  43.801   9.223
 1185POPC   GL217342  26.342  43.581   9.164
 1185POPC   C1A17343  26.249  43.987   8.876
 1185POPC   D2A17344  26.318  44.127   8.436
 1185POPC   C3A17345  26.039  44.128   8.117
 1185POPC   C4A17346  25.962  43.963   7.741
 1185POPC   C1B17347  26.305  43.489   8.722
 1185POPC   C2B17348  26.065  43.652   8.342
 1185POPC   C3B17349  26.250  43.595   7.924
 1185POPC   C4B17350  26.491  43.907   7.685
 1186POPC   NC317351  15.759   1.565   9.482
 1186POPC   PO417352  16.163   0.990   9.474
 1186POPC   GL117353  16.057   1.289   9.175
 1186POPC   GL217354  15.708   1.166   9.174
 1186POPC   C1A17355  15.999   1.264   8.754
 1186POPC   D2A17356  15.906   1.384   8.359
 1186POPC   C3A17357  16.080   1.165   8.040
 1186POPC   C4A17358  16.251   1.476   7.785
 1186POPC   C1B17359  15.500   1.102   8.811
 1186POPC   C2B17360  15.420   1.225   8.415
 1186POPC   C3B17361  15.539   1.249   7.972
 1186POPC   C4B17362  15.757   0.986   7.684
 1187POPC   NC317363  32.298  42.137   9.501
 1187POPC   PO417364  31.890  42.649   9.528
 1187POPC   GL117365  31.997  42.363   9.142
 1187POPC   GL217366  32.353  42.326   9.024
 1187POPC   C1A17367  31.986  42.507   8.693
 1187POPC   D2A17368  31.899  42.638   8.254
 1187POPC   C3A17369  32.216  42.449   7.955
 1187POPC   C4A17370  32.169  42.426   7.509
 1187POPC   C1B17371  32.654  42.209   8.691
 1187POPC   C2B17372  32.498  42.107   8.257
 1187POPC   C3B17373  32.725  42.058   7.866
 1187POPC   C4B17374  32.722  41.906   7.424
 1188POPC   NC317375  14.782  15.839   9.581
 1188POPC   PO417376  14.219  16.179   9.619
 1188POPC   GL117377  14.399  15.985   9.248
 1188POPC   GL217378  14.684  16.212   9.150
 1188POPC   C1A17379  14.178  15.716   8.886
 1188POPC   D2A17380  13.985  15.651   8.445
 1188POPC   C3A17381  14.121  15.866   8.062
 1188POPC   C4A17382  14.304  16.136   7.755
 1188POPC   C1B17383  14.531  16.046   8.753
 1188POPC   C2B17384  14.596  16.150   8.318
 1188POPC   C3B17385  14.660  15.863   7.997
 1188POPC   C4B17386  14.654  15.546   7.730
 1189POPC   NC317387   8.026  21.875   9.534
 1189POPC   PO417388   8.405  22.377   9.390
 1189POPC   GL117389   8.214  22.153   9.098
 1189POPC   GL217390   7.876  22.204   9.175
 1189POPC   C1A17391   8.197  22.348   8.703
 1189POPC   D2A17392   8.442  22.320   8.332
 1189POPC   C3A17393   8.308  22.218   7.928
 1189POPC   C4A17394   8.302  22.332   7.502
 1189POPC   C1B17395   7.764  22.070   8.762
 1189POPC   C2B17396   7.966  22.026   8.383
 1189POPC   C3B17397   7.932  21.879   7.995
 1189POPC   C4B17398   7.636  21.900   7.683
 1190POPC   NC317399  28.308  36.136   9.582
 1190POPC   PO417400  28.881  35.870   9.401
 1190POPC   GL117401  28.549  36.107   9.129
 1190POPC   GL217402  28.198  35.965   9.123
 1190POPC   C1A17403  28.419  36.011   8.696
 1190POPC   D2A17404  28.568  35.935   8.297
 1190POPC   C3A17405  28.315  36.014   7.958
 1190POPC   C4A17406  28.331  35.903   7.535
 1190POPC   C1B17407  27.920  35.949   8.775
 1190POPC   C2B17408  28.041  35.824   8.365
 1190POPC   C3B17409  27.797  35.595   8.067
 1190POPC   C4B17410  27.865  35.870   7.746
 1191POPC   NC317411  33.706   2.491   9.468
 1191POPC   PO417412  34.168   2.962   9.457
 1191POPC   GL117413  33.831   2.874   9.155
 1191POPC   GL217414  33.497   3.011   9.228
 1191POPC   C1A17415  33.677   2.605   8.837
 1191POPC   D2A17416  33.689   2.706   8.432
 1191POPC   C3A17417  33.839   2.463   8.115
 1191POPC   C4A17418  33.700   2.518   7.702
 1191POPC   C1B17419  33.486   3.104   8.768
 1191POPC   C2B17420  33.313   3.017   8.323
 1191POPC   C3B17421  33.623   2.949   7.983
 1191POPC   C4B17422  33.572   3.019   7.536
 1192POPC   NC317423  40.899  21.864   9.645
 1192POPC   PO417424  40.478  22.316   9.646
 1192POPC   GL117425  40.543  22.291   9.235
 1192POPC   GL217426  40.579  21.954   9.210
 1192POPC   C1A17427  40.463  22.350   8.798
 1192POPC   D2A17428  40.683  22.393   8.391
 1192POPC   C3A17429  40.493  22.377   7.968
 1192POPC   C4A17430  40.690  22.194   7.537
 1192POPC   C1B17431  40.793  21.972   8.800
 1192POPC   C2B17432  41.031  21.822   8.438
 1192POPC   C3B17433  41.006  21.628   8.041
 1192POPC   C4B17434  40.962  21.743   7.613
 1193POPC   NC317435  16.389   9.804   9.510
 1193POPC   PO417436  17.001   9.722   9.583
 1193POPC   GL117437  16.818   9.781   9.163
 1193POPC   GL217438  16.578  10.060   9.108
 1193POPC   C1A17439  16.935   9.738   8.728
 1193POPC   D2A17440  17.006   9.951   8.311
 1193POPC   C3A17441  16.941   9.717   7.928
 1193POPC   C4A17442  16.782   9.934   7.565
 1193POPC   C1B17443  16.390   9.837   8.759
 1193POPC   C2B17444  16.196   9.823   8.329
 1193POPC   C3B17445  16.372   9.768   7.939
 1193POPC   C4B17446  16.268   9.955   7.589
 1194POPC   NC317447  37.051  44.159   9.543
 1194POPC   PO417448  37.394  43.560   9.656
 1194POPC   GL117449  37.023  43.645   9.320
 1194POPC   GL217450  36.929  43.976   9.090
 1194POPC   C1A17451  37.086  43.579   8.861
 1194POPC   D2A17452  37.066  43.920   8.559
 1194POPC   C3A17453  37.024  43.822   8.138
 1194POPC   C4A17454  37.050  44.028   7.738
 1194POPC   C1B17455  36.609  43.838   8.793
 1194POPC   C2B17456  36.559  43.921   8.349
 1194POPC   C3B17457  36.587  43.868   7.883
 1194POPC   C4B17458  36.618  44.048   7.438
 1195POPC   NC317459  10.707   8.077   9.549
 1195POPC   PO417460  10.110   8.379   9.562
 1195POPC   GL117461  10.443   8.436   9.233
 1195POPC   GL217462  10.364   8.108   9.118
 1195POPC   C1A17463  10.629   8.539   8.797
 1195POPC   D2A17464  10.516   8.342   8.390
 1195POPC   C3A17465  10.557   8.541   8.045
 1195POPC   C4A17466  10.801   8.406   7.727
 1195POPC   C1B17467  10.599   7.997   8.737
 1195POPC   C2B17468  10.680   7.801   8.329
 1195POPC   C3B17469  10.533   7.967   7.911
 1195POPC   C4B17470  10.784   7.941   7.531
 1196POPC   NC317471   6.865  39.937   9.448
 1196POPC   PO417472   7.456  40.179   9.658
 1196POPC   GL117473   7.314  40.079   9.239
 1196POPC   GL217474   7.036  40.321   9.161
 1196POPC   C1A17475   7.425  39.895   8.837
 1196POPC   D2A17476   7.709  40.005   8.520
 1196POPC   C3A17477   7.495  39.977   8.144
 1196POPC   C4A17478   7.570  39.785   7.731
 1196POPC   C1B17479   7.015  40.203   8.729
 1196POPC   C2B17480   6.907  40.225   8.289
 1196POPC   C3B17481   7.062  40.428   7.939
 1196POPC   C4B17482   7.465  40.316   7.789
 1197POPC   NC317483  23.388  11.037   9.453
 1197POPC   PO417484  23.726  11.544   9.669
 1197POPC   GL117485  23.749  11.378   9.259
 1197POPC   GL217486  23.435  11.485   9.192
 1197POPC   C1A17487  23.655  11.234   8.817
 1197POPC   D2A17488  23.754  11.140   8.410
 1197POPC   C3A17489  23.646  11.318   8.053
 1197POPC   C4A17490  23.761  11.139   7.661
 1197POPC   C1B17491  23.448  11.706   8.822
 1197POPC   C2B17492  23.347  11.494   8.458
 1197POPC   C3B17493  23.190  11.605   8.076
 1197POPC   C4B17494  23.289  11.439   7.688
 1198POPC   NC317495   4.713   8.253   9.335
 1198POPC   PO417496   4.946   8.818   9.499
 1198POPC   GL117497   5.105   8.645   9.123
 1198POPC   GL217498   5.208   8.280   9.138
 1198POPC   C1A17499   5.030   8.515   8.706
 1198POPC   D2A17500   5.182   8.303   8.362
 1198POPC   C3A17501   5.030   8.417   7.989
 1198POPC   C4A17502   5.269   8.360   7.615
 1198POPC   C1B17503   5.167   7.990   8.776
 1198POPC   C2B17504   5.342   7.819   8.391
 1198POPC   C3B17505   5.154   7.908   7.974
 1198POPC   C4B17506   5.384   7.870   7.575
 1199POPC   NC317507  16.655  34.893   9.606
 1199POPC   PO417508  16.923  34.329   9.673
 1199POPC   GL117509  16.946  34.529   9.244
 1199POPC   GL217510  16.634  34.599   9.197
 1199POPC   C1A17511  16.887  34.864   8.850
 1199POPC   D2A17512  16.941  34.769   8.402
 1199POPC   C3A17513  17.179  34.947   8.039
 1199POPC   C4A17514  16.920  34.768   7.730
 1199POPC   C1B17515  16.453  34.575   8.814
 1199POPC   C2B17516  16.419  34.727   8.412
 1199POPC   C3B17517  16.490  34.594   7.999
 1199POPC   C4B17518  16.366  34.462   7.584
 1200POPC   NC317519  24.083   6.874   9.445
 1200POPC   PO417520  23.380   6.619   9.531
 1200POPC   GL117521  23.598   6.587   9.139
 1200POPC   GL217522  23.838   6.402   9.021
 1200POPC   C1A17523  23.628   6.739   8.679
 1200POPC   D2A17524  23.733   6.476   8.326
 1200POPC   C3A17525  23.978   6.761   8.090
 1200POPC   C4A17526  23.706   6.950   7.802
 1200POPC   C1B17527  24.108   6.585   8.697
 1200POPC   C2B17528  24.237   6.352   8.341
 1200POPC   C3B17529  24.062   6.307   7.887
 1200POPC   C4B17530  23.700   6.454   7.662
 1201POPC   NC317531  39.196  22.494   9.513
 1201POPC   PO417532  39.109  23.174   9.541
 1201POPC   GL117533  39.249  22.906   9.177
 1201POPC   GL217534  39.588  22.719   9.228
 1201POPC   C1A17535  39.166  22.826   8.719
 1201POPC   D2A17536  39.142  23.046   8.302
 1201POPC   C3A17537  39.068  22.973   7.862
 1201POPC   C4A17538  38.986  22.558   7.746
 1201POPC   C1B17539  39.659  22.968   8.852
 1201POPC   C2B17540  39.631  22.930   8.404
 1201POPC   C3B17541  39.524  23.204   8.004
 1201POPC   C4B17542  39.446  23.245   7.551
 1202POPC   NC317543  32.522  29.073   9.476
 1202POPC   PO417544  31.863  29.329   9.459
 1202POPC   GL117545  32.154  29.207   9.160
 1202POPC   GL217546  32.093  28.838   9.244
 1202POPC   C1A17547  32.421  29.397   8.814
 1202POPC   D2A17548  32.497  29.571   8.389
 1202POPC   C3A17549  32.174  29.457   8.085
 1202POPC   C4A17550  32.288  29.302   7.692
 1202POPC   C1B17551  32.243  28.851   8.822
 1202POPC   C2B17552  32.210  29.082   8.450
 1202POPC   C3B17553  32.377  28.974   8.065
 1202POPC   C4B17554  32.256  28.804   7.656
 1203POPC   NC317555  22.569  29.609   9.365
 1203POPC   PO417556  22.376  30.302   9.408
 1203POPC   GL117557  22.237  29.919   9.150
 1203POPC   GL217558  21.888  29.755   9.110
 1203POPC   C1A17559  22.250  29.650   8.758
 1203POPC   D2A17560  22.001  29.740   8.423
 1203POPC   C3A17561  22.221  29.883   8.065
 1203POPC   C4A17562  22.182  29.872   7.633
 1203POPC   C1B17563  21.953  30.137   8.794
 1203POPC   C2B17564  21.980  30.256   8.339
 1203POPC   C3B17565  21.844  30.206   7.916
 1203POPC   C4B17566  21.905  30.315   7.506
 1204POPC   NC317567  17.028  18.310   9.622
 1204POPC   PO417568  16.368  17.998   9.490
 1204POPC   GL117569  16.428  18.353   9.158
 1204POPC   GL217570  16.786  18.541   9.201
 1204POPC   C1A17571  16.585  18.425   8.741
 1204POPC   D2A17572  16.543  18.543   8.318
 1204POPC   C3A17573  16.543  18.197   8.069
 1204POPC   C4A17574  16.711  18.251   7.704
 1204POPC   C1B17575  16.997  18.717   8.813
 1204POPC   C2B17576  17.078  18.512   8.436
 1204POPC   C3B17577  17.134  18.396   8.019
 1204POPC   C4B17578  17.317  18.664   7.717
 1205POPC   NC317579  36.448  42.786   9.501
 1205POPC   PO417580  35.951  43.245   9.606
 1205POPC   GL117581  36.182  43.219   9.167
 1205POPC   GL217582  36.358  42.908   9.030
 1205POPC   C1A17583  36.015  43.147   8.732
 1205POPC   D2A17584  35.786  43.413   8.420
 1205POPC   C3A17585  35.979  43.264   8.062
 1205POPC   C4A17586  35.935  42.906   7.827
 1205POPC   C1B17587  36.477  42.617   8.751
 1205POPC   C2B17588  36.658  42.861   8.429
 1205POPC   C3B17589  36.408  42.979   8.088
 1205POPC   C4B17590  36.524  43.120   7.701
 1206POPC   NC317591  13.227  27.610   9.319
 1206POPC   PO417592  13.857  27.440   9.520
 1206POPC   GL117593  13.768  27.532   9.129
 1206POPC   GL217594  13.704  27.845   9.165
 1206POPC   C1A17595  13.540  27.557   8.744
 1206POPC   D2A17596  13.669  27.574   8.322
 1206POPC   C3A17597  13.493  27.343   7.971
 1206POPC   C4A17598  13.545  27.337   7.508
 1206POPC   C1B17599  13.939  27.889   8.754
 1206POPC   C2B17600  14.113  27.849   8.313
 1206POPC   C3B17601  13.993  27.640   7.936
 1206POPC   C4B17602  13.767  27.780   7.581
 1207POPC   NC317603  36.531  35.411   9.473
 1207POPC   PO417604  37.194  35.535   9.245
 1207POPC   GL117605  37.079  35.235   8.979
 1207POPC   GL217606  36.737  35.194   9.054
 1207POPC   C1A17607  37.118  35.432   8.595
 1207POPC   D2A17608  36.990  35.747   8.328
 1207POPC   C3A17609  37.104  35.618   7.902
 1207POPC   C4A17610  37.097  35.269   7.633
 1207POPC   C1B17611  36.623  35.307   8.636
 1207POPC   C2B17612  36.793  35.298   8.225
 1207POPC   C3B17613  36.637  35.362   7.840
 1207POPC   C4B17614  36.447  35.023   7.650
 1208POPC   NC317615   7.259  20.510   9.409
 1208POPC   PO417616   6.904  21.080   9.353
 1208POPC   GL117617   7.213  20.894   9.053
 1208POPC   GL217618   7.591  20.776   9.082
 1208POPC   C1A17619   7.283  20.565   8.749
 1208POPC   D2A17620   7.503  20.505   8.387
 1208POPC   C3A17621   7.291  20.454   8.044
 1208POPC   C4A17622   7.336  20.597   7.661
 1208POPC   C1B17623   7.874  20.543   8.742
 1208POPC   C2B17624   7.996  20.473   8.284
 1208POPC   C3B17625   7.860  20.656   7.892
 1208POPC   C4B17626   7.796  20.587   7.401
 1209POPC   NC317627  17.309   1.325   9.493
 1209POPC   PO417628  17.957   1.057   9.363
 1209POPC   GL117629  17.610   1.121   9.143
 1209POPC   GL217630  17.633   1.456   9.091
 1209POPC   C1A17631  17.563   1.118   8.721
 1209POPC   D2A17632  17.703   1.408   8.400
 1209POPC   C3A17633  17.694   1.270   7.985
 1209POPC   C4A17634  17.800   1.028   7.584
 1209POPC   C1B17635  17.462   1.675   8.768
 1209POPC   C2B17636  17.226   1.666   8.408
 1209POPC   C3B17637  17.238   1.541   7.996
 1209POPC   C4B17638  17.353   1.376   7.631
 1210POPC   NC317639  36.015  25.437   9.408
 1210POPC   PO417640  35.794  24.795   9.310
 1210POPC   GL117641  36.102  25.032   9.051
 1210POPC   GL217642  35.989  25.386   8.903
 1210POPC   C1A17643  36.296  25.019   8.640
 1210POPC   D2A17644  36.075  25.331   8.384
 1210POPC   C3A17645  35.856  25.199   8.038
 1210POPC   C4A17646  35.880  25.461   7.728
 1210POPC   C1B17647  36.404  25.510   8.730
 1210POPC   C2B17648  36.594  25.347   8.348
 1210POPC   C3B17649  36.368  25.086   8.034
 1210POPC   C4B17650  36.225  25.080   7.622
 1211POPC   NC317651  23.411   5.322   9.363
 1211POPC   PO417652  23.816   4.902   9.779
 1211POPC   GL117653  23.838   4.972   9.279
 1211POPC   GL217654  23.542   4.878   9.081
 1211POPC   C1A17655  23.848   5.187   8.822
 1211POPC   D2A17656  23.944   5.525   8.588
 1211POPC   C3A17657  23.922   5.312   8.210
 1211POPC   C4A17658  23.903   5.288   7.772
 1211POPC   C1B17659  23.776   4.701   8.726
 1211POPC   C2B17660  23.818   4.793   8.307
 1211POPC   C3B17661  23.658   4.823   7.890
 1211POPC   C4B17662  23.488   4.567   7.548
 1212POPC   NC317663  26.460  33.325   9.314
 1212POPC   PO417664  27.020  32.836   9.503
 1212POPC   GL117665  26.796  32.931   9.196
 1212POPC   GL217666  26.945  33.229   9.165
 1212POPC   C1A17667  26.776  32.772   8.782
 1212POPC   D2A17668  26.808  32.964   8.382
 1212POPC   C3A17669  26.604  32.957   7.971
 1212POPC   C4A17670  26.724  32.898   7.525
 1212POPC   C1B17671  26.891  33.306   8.768
 1212POPC   C2B17672  27.140  33.361   8.416
 1212POPC   C3B17673  26.879  33.392   8.097
 1212POPC   C4B17674  26.833  33.390   7.710
 1213POPC   NC317675   3.039   6.821   9.458
 1213POPC   PO417676   2.356   6.891   9.416
 1213POPC   GL117677   2.665   6.564   9.182
 1213POPC   GL217678   2.465   6.310   8.980
 1213POPC   C1A17679   3.034   6.622   8.867
 1213POPC   D2A17680   3.057   6.528   8.444
 1213POPC   C3A17681   2.932   6.767   8.136
 1213POPC   C4A17682   2.869   6.494   7.854
 1213POPC   C1B17683   2.574   6.592   8.665
 1213POPC   C2B17684   2.469   6.849   8.321
 1213POPC   C3B17685   2.478   6.826   7.888
 1213POPC   C4B17686   2.407   7.060   7.542
 1214POPC   NC317687   8.765  10.613   9.514
 1214POPC   PO417688   9.461  10.601   9.241
 1214POPC   GL117689   9.099  10.575   9.094
 1214POPC   GL217690   9.241  10.860   8.879
 1214POPC   C1A17691   8.929  10.261   8.838
 1214POPC   D2A17692   8.806  10.337   8.435
 1214POPC   C3A17693   9.055  10.404   8.079
 1214POPC   C4A17694   8.869  10.415   7.667
 1214POPC   C1B17695   9.273  10.546   8.596
 1214POPC   C2B17696   9.119  10.815   8.358
 1214POPC   C3B17697   9.386  10.840   8.071
 1214POPC   C4B17698   9.203  10.773   7.730
 1215POPC   NC317699   9.525  13.789   9.659
 1215POPC   PO417700   9.970  13.286   9.690
 1215POPC   GL117701   9.959  13.429   9.279
 1215POPC   GL217702   9.796  13.777   9.216
 1215POPC   C1A17703  10.177  13.479   8.886
 1215POPC   D2A17704  10.158  13.342   8.452
 1215POPC   C3A17705  10.230  13.609   8.107
 1215POPC   C4A17706  10.087  13.657   7.690
 1215POPC   C1B17707   9.661  13.508   8.868
 1215POPC   C2B17708   9.632  13.331   8.457
 1215POPC   C3B17709   9.764  13.389   8.052
 1215POPC   C4B17710   9.577  13.522   7.696
 1216POPC   NC317711  30.919  18.008   9.422
 1216POPC   PO417712  30.415  18.552   9.542
 1216POPC   GL117713  30.642  18.391   9.214
 1216POPC   GL217714  30.507  18.075   9.112
 1216POPC   C1A17715  30.767  18.432   8.798
 1216POPC   D2A17716  30.519  18.556   8.452
 1216POPC   C3A17717  30.619  18.404   8.063
 1216POPC   C4A17718  30.617  18.538   7.663
 1216POPC   C1B17719  30.647  17.939   8.758
 1216POPC   C2B17720  30.824  18.040   8.362
 1216POPC   C3B17721  30.762  17.942   7.911
 1216POPC   C4B17722  30.755  18.092   7.449
 1217POPC   NC317723  13.497  23.441   9.415
 1217POPC   PO417724  13.863  24.106   9.398
 1217POPC   GL117725  13.514  24.088   9.077
 1217POPC   GL217726  13.510  23.725   8.998
 1217POPC   C1A17727  13.305  24.048   8.687
 1217POPC   D2A17728  13.349  23.650   8.495
 1217POPC   C3A17729  13.432  23.648   8.087
 1217POPC   C4A17730  13.768  23.737   7.847
 1217POPC   C1B17731  13.751  23.392   8.803
 1217POPC   C2B17732  13.837  23.108   8.472
 1217POPC   C3B17733  13.800  23.263   8.073
 1217POPC   C4B17734  13.874  23.265   7.630
 1218POPC   NC317735  32.077  33.596   9.678
 1218POPC   PO417736  32.335  34.096   9.199
 1218POPC   GL117737  32.423  33.790   8.871
 1218POPC   GL217738  32.521  33.501   9.066
 1218POPC   C1A17739  32.285  33.782   8.480
 1218POPC   D2A17740  32.069  33.574   8.196
 1218POPC   C3A17741  32.113  33.870   7.862
 1218POPC   C4A17742  32.511  34.135   7.834
 1218POPC   C1B17743  32.762  33.452   8.690
 1218POPC   C2B17744  32.560  33.350   8.301
 1218POPC   C3B17745  32.491  33.548   7.910
 1218POPC   C4B17746  32.301  33.564   7.464
 1219POPC   NC317747  10.085  26.728   9.362
 1219POPC   PO417748  10.738  26.850   9.458
 1219POPC   GL117749  10.515  26.795   9.115
 1219POPC   GL217750  10.299  27.109   9.100
 1219POPC   C1A17751  10.464  26.676   8.716
 1219POPC   D2A17752  10.448  26.902   8.362
 1219POPC   C3A17753  10.583  26.659   8.049
 1219POPC   C4A17754  10.758  26.862   7.684
 1219POPC   C1B17755  10.120  27.208   8.696
 1219POPC   C2B17756  10.086  27.276   8.246
 1219POPC   C3B17757  10.312  27.091   7.885
 1219POPC   C4B17758  10.238  26.690   7.694
 1220POPC   NC317759  24.031  44.558   9.537
 1220POPC   PO417760  24.553   0.028   9.543
 1220POPC   GL117761  24.691  44.760   9.159
 1220POPC   GL217762  24.527  44.413   9.119
 1220POPC   C1A17763  24.751  44.858   8.716
 1220POPC   D2A17764  24.537  44.921   8.324
 1220POPC   C3A17765  24.432  44.589   8.033
 1220POPC   C4A17766  24.471  44.782   7.635
 1220POPC   C1B17767  24.717  44.317   8.713
 1220POPC   C2B17768  24.867  44.434   8.308
 1220POPC   C3B17769  24.932  44.120   7.992
 1220POPC   C4B17770  24.642  44.191   7.660
 1221POPC   NC317771  30.241  34.029   9.507
 1221POPC   PO417772  30.874  33.928   9.408
 1221POPC   GL117773  30.575  33.775   9.144
 1221POPC   GL217774  30.501  34.103   9.048
 1221POPC   C1A17775  30.690  33.751   8.709
 1221POPC   D2A17776  30.880  33.992   8.347
 1221POPC   C3A17777  30.824  33.651   8.041
 1221POPC   C4A17778  30.618  33.539   7.674
 1221POPC   C1B17779  30.496  34.205   8.614
 1221POPC   C2B17780  30.390  33.887   8.308
 1221POPC   C3B17781  30.248  33.709   7.968
 1221POPC   C4B17782  30.174  33.795   7.519
 1222POPC   NC317783  19.609   8.027   9.758
 1222POPC   PO417784  19.896   8.532   9.518
 1222POPC   GL117785  19.851   8.203   9.196
 1222POPC   GL217786  19.507   8.047   9.240
 1222POPC   C1A17787  19.932   8.039   8.747
 1222POPC   D2A17788  20.088   8.192   8.352
 1222POPC   C3A17789  19.843   8.193   7.989
 1222POPC   C4A17790  19.869   7.790   7.856
 1222POPC   C1B17791  19.479   8.307   8.871
 1222POPC   C2B17792  19.554   8.270   8.434
 1222POPC   C3B17793  19.406   8.510   8.083
 1222POPC   C4B17794  19.443   8.511   7.656
 1223POPC   NC317795   4.242  27.365   9.788
 1223POPC   PO417796   4.067  26.603   9.576
 1223POPC   GL117797   4.217  26.773   9.131
 1223POPC   GL217798   4.234  27.158   9.086
 1223POPC   C1A17799   4.356  26.674   8.703
 1223POPC   D2A17800   4.093  26.715   8.307
 1223POPC   C3A17801   4.344  26.704   7.933
 1223POPC   C4A17802   4.434  26.766   7.469
 1223POPC   C1B17803   4.060  27.062   8.716
 1223POPC   C2B17804   3.828  27.144   8.416
 1223POPC   C3B17805   3.917  27.177   8.010
 1223POPC   C4B17806   4.149  27.125   7.662
 1224POPC   NC317807  11.881  31.943   9.402
 1224POPC   PO417808  12.288  31.359   9.494
 1224POPC   GL117809  12.236  31.513   9.083
 1224POPC   GL217810  11.932  31.369   9.027
 1224POPC   C1A17811  12.100  31.687   8.668
 1224POPC   D2A17812  11.774  31.660   8.331
 1224POPC   C3A17813  11.913  31.572   7.912
 1224POPC   C4A17814  12.245  31.806   7.732
 1224POPC   C1B17815  11.825  31.079   8.693
 1224POPC   C2B17816  11.714  31.129   8.223
 1224POPC   C3B17817  11.714  30.970   7.773
 1224POPC   C4B17818  11.751  31.192   7.353
 1225POPC   NC317819  23.609  17.578   9.591
 1225POPC   PO417820  24.326  17.672   9.454
 1225POPC   GL117821  23.935  17.619   9.204
 1225POPC   GL217822  23.620  17.412   9.117
 1225POPC   C1A17823  23.869  17.678   8.793
 1225POPC   D2A17824  23.729  17.427   8.428
 1225POPC   C3A17825  23.605  17.641   8.038
 1225POPC   C4A17826  23.537  17.459   7.654
 1225POPC   C1B17827  23.366  17.615   8.744
 1225POPC   C2B17828  23.214  17.463   8.322
 1225POPC   C3B17829  23.102  17.567   7.896
 1225POPC   C4B17830  23.261  17.899   7.583
 1226POPC   NC317831  44.550  34.572   9.557
 1226POPC   PO417832  44.719  35.212   9.606
 1226POPC   GL117833  44.574  34.958   9.236
 1226POPC   GL217834  44.909  34.799   9.216
 1226POPC   C1A17835  44.439  34.748   8.831
 1226POPC   D2A17836  44.330  34.736   8.371
 1226POPC   C3A17837  44.525  34.436   8.031
 1226POPC   C4A17838  44.918  34.144   7.973
 1226POPC   C1B17839   0.002  34.551   8.825
 1226POPC   C2B17840  44.932  34.483   8.378
 1226POPC   C3B17841  44.980  34.668   7.967
 1226POPC   C4B17842  44.769  34.786   7.577
 1227POPC   NC317843   8.847  26.060   9.535
 1227POPC   PO417844   9.522  26.295   9.467
 1227POPC   GL117845   9.188  26.165   9.147
 1227POPC   GL217846   8.819  26.286   9.068
 1227POPC   C1A17847   9.014  25.816   8.874
 1227POPC   D2A17848   8.910  25.817   8.413
 1227POPC   C3A17849   9.065  25.850   7.981
 1227POPC   C4A17850   8.867  25.830   7.585
 1227POPC   C1B17851   9.031  26.299   8.664
 1227POPC   C2B17852   9.008  26.307   8.222
 1227POPC   C3B17853   8.737  26.238   7.851
 1227POPC   C4B17854   8.583  26.243   7.383
 1228POPC   NC317855  13.673  38.301   9.393
 1228POPC   PO417856  13.961  38.878   9.220
 1228POPC   GL117857  13.614  38.707   9.001
 1228POPC   GL217858  13.307  38.644   9.184
 1228POPC   C1A17859  13.506  38.708   8.581
 1228POPC   D2A17860  13.765  38.466   8.359
 1228POPC   C3A17861  13.881  38.591   7.977
 1228POPC   C4A17862  13.868  38.285   7.664
 1228POPC   C1B17863  13.348  38.294   8.838
 1228POPC   C2B17864  13.218  38.324   8.382
 1228POPC   C3B17865  13.435  38.364   7.974
 1228POPC   C4B17866  13.497  38.649   7.618
 1229POPC   NC317867  19.497  36.998   9.549
 1229POPC   PO417868  20.037  36.755   9.485
 1229POPC   GL117869  19.875  37.009   9.162
 1229POPC   GL217870  19.644  36.746   9.096
 1229POPC   C1A17871  19.935  36.950   8.723
 1229POPC   D2A17872  19.872  36.609   8.424
 1229POPC   C3A17873  20.046  36.736   8.053
 1229POPC   C4A17874  19.991  36.861   7.603
 1229POPC   C1B17875  19.426  36.731   8.688
 1229POPC   C2B17876  19.423  36.900   8.244
 1229POPC   C3B17877  19.589  37.067   7.839
 1229POPC   C4B17878  19.561  37.093   7.337
 1230POPC   NC317879  41.324  24.154   9.454
 1230POPC   PO417880  41.587  24.759   9.662
 1230POPC   GL117881  41.640  24.552   9.231
 1230POPC   GL217882  41.415  24.356   9.006
 1230POPC   C1A17883  41.801  24.614   8.791
 1230POPC   D2A17884  41.664  24.651   8.353
 1230POPC   C3A17885  41.705  24.324   8.067
 1230POPC   C4A17886  41.734  24.667   7.782
 1230POPC   C1B17887  41.269  24.580   8.669
 1230POPC   C2B17888  41.087  24.603   8.265
 1230POPC   C3B17889  41.258  24.521   7.866
 1230POPC   C4B17890  41.264  24.576   7.399
 1231POPC   NC317891  42.434   3.028   9.771
 1231POPC   PO417892  42.673   3.531   9.411
 1231POPC   GL117893  42.296   3.525   9.187
 1231POPC   GL217894  42.223   3.180   9.109
 1231POPC   C1A17895  42.018   3.538   8.812
 1231POPC   D2A17896  41.921   3.440   8.376
 1231POPC   C3A17897  42.268   3.612   8.121
 1231POPC   C4A17898  42.446   3.508   7.718
 1231POPC   C1B17899  42.484   3.296   8.769
 1231POPC   C2B17900  42.584   3.355   8.397
 1231POPC   C3B17901  42.518   3.125   8.044
 1231POPC   C4B17902  42.599   3.044   7.616
 1232POPC   NC317903  28.502  24.071   9.742
 1232POPC   PO417904  28.319  23.479   9.527
 1232POPC   GL117905  28.220  23.345   9.138
 1232POPC   GL217906  28.328  23.661   9.034
 1232POPC   C1A17907  28.040  23.403   8.731
 1232POPC   D2A17908  28.324  23.543   8.443
 1232POPC   C3A17909  28.221  23.583   8.046
 1232POPC   C4A17910  28.493  23.748   7.771
 1232POPC   C1B17911  28.132  23.936   8.740
 1232POPC   C2B17912  27.926  23.916   8.350
 1232POPC   C3B17913  28.151  24.096   8.027
 1232POPC   C4B17914  28.139  24.071   7.575
 1233POPC   NC317915  12.851  15.853   9.609
 1233POPC   PO417916  12.250  15.847   9.502
 1233POPC   GL117917  12.633  16.018   9.194
 1233POPC   GL217918  13.004  16.185   9.259
 1233POPC   C1A17919  12.620  15.920   8.777
 1233POPC   D2A17920  12.634  16.097   8.397
 1233POPC   C3A17921  12.509  15.828   8.050
 1233POPC   C4A17922  12.754  15.684   7.685
 1233POPC   C1B17923  13.109  15.897   8.942
 1233POPC   C2B17924  13.147  15.955   8.508
 1233POPC   C3B17925  13.011  15.971   8.085
 1233POPC   C4B17926  12.987  16.153   7.698
 1234POPC   NC317927  11.715  43.692   9.357
 1234POPC   PO417928  12.300  44.019   9.405
 1234POPC   GL117929  12.117  44.181   9.031
 1234POPC   GL217930  12.034  43.850   9.009
 1234POPC   C1A17931  12.027  44.132   8.593
 1234POPC   D2A17932  12.371  43.932   8.400
 1234POPC   C3A17933  12.259  43.856   8.025
 1234POPC   C4A17934  11.824  43.907   7.868
 1234POPC   C1B17935  12.089  43.623   8.691
 1234POPC   C2B17936  11.908  43.620   8.306
 1234POPC   C3B17937  11.995  43.423   7.899
 1234POPC   C4B17938  11.915  43.389   7.438
 1235POPC   NC317939  31.839  30.512   9.246
 1235POPC   PO417940  31.434  30.935   9.520
 1235POPC   GL117941  31.341  30.671   9.147
 1235POPC   GL217942  31.218  30.949   9.016
 1235POPC   C1A17943  31.503  30.619   8.689
 1235POPC   D2A17944  31.772  30.840   8.361
 1235POPC   C3A17945  31.909  30.579   8.004
 1235POPC   C4A17946  31.579  30.391   7.805
 1235POPC   C1B17947  31.042  30.839   8.621
 1235POPC   C2B17948  30.991  30.915   8.193
 1235POPC   C3B17949  31.384  30.823   7.985
 1235POPC   C4B17950  31.755  31.043   7.863
 1236POPC   NC317951   1.489  13.994   9.519
 1236POPC   PO417952   2.122  13.672   9.670
 1236POPC   GL117953   1.906  13.577   9.185
 1236POPC   GL217954   1.559  13.647   9.117
 1236POPC   C1A17955   2.141  13.415   8.762
 1236POPC   D2A17956   2.172  13.690   8.401
 1236POPC   C3A17957   2.045  13.507   8.010
 1236POPC   C4A17958   2.147  13.490   7.608
 1236POPC   C1B17959   1.731  13.714   8.713
 1236POPC   C2B17960   1.645  13.793   8.301
 1236POPC   C3B17961   1.520  14.045   7.968
 1236POPC   C4B17962   1.622  13.727   7.705
 1237POPC   NC317963   1.741  12.538   9.466
 1237POPC   PO417964   2.065  11.896   9.467
 1237POPC   GL117965   2.144  11.928   9.018
 1237POPC   GL217966   1.792  12.061   9.059
 1237POPC   C1A17967   2.242  11.919   8.553
 1237POPC   D2A17968   1.917  11.945   8.255
 1237POPC   C3A17969   2.045  11.871   7.858
 1237POPC   C4A17970   2.185  11.953   7.460
 1237POPC   C1B17971   1.898  12.259   8.695
 1237POPC   C2B17972   1.715  12.424   8.361
 1237POPC   C3B17973   1.860  12.378   7.951
 1237POPC   C4B17974   1.809  12.623   7.571
 1238POPC   NC317975  37.525  11.877   9.426
 1238POPC   PO417976  38.078  12.224   9.408
 1238POPC   GL117977  37.838  11.995   9.039
 1238POPC   GL217978  37.482  11.790   8.953
 1238POPC   C1A17979  37.693  12.102   8.614
 1238POPC   D2A17980  37.803  12.328   8.244
 1238POPC   C3A17981  37.820  12.092   7.889
 1238POPC   C4A17982  37.602  11.735   7.813
 1238POPC   C1B17983  37.240  11.834   8.623
 1238POPC   C2B17984  37.359  11.955   8.216
 1238POPC   C3B17985  37.326  12.218   7.863
 1238POPC   C4B17986  37.510  12.368   7.482
 1239POPC   NC317987  10.334   0.973   9.498
 1239POPC   PO417988  10.664   1.584   9.432
 1239POPC   GL117989  10.585   1.285   9.105
 1239POPC   GL217990  10.243   1.277   9.071
 1239POPC   C1A17991  10.648   1.295   8.642
 1239POPC   D2A17992  10.813   1.067   8.262
 1239POPC   C3A17993  10.662   1.276   7.868
 1239POPC   C4A17994  10.745   1.207   7.417
 1239POPC   C1B17995  10.192   1.068   8.680
 1239POPC   C2B17996  10.307   1.160   8.245
 1239POPC   C3B17997  10.190   1.076   7.810
 1239POPC   C4B17998  10.255   0.986   7.350
 1240POPC   NC317999  43.153  27.473   9.424
 1240POPC   PO418000  42.780  28.089   9.428
 1240POPC   GL118001  43.132  27.919   9.144
 1240POPC   GL218002  43.437  27.651   9.052
 1240POPC   C1A18003  43.059  27.815   8.723
 1240POPC   D2A18004  42.866  27.682   8.346
 1240POPC   C3A18005  43.107  27.798   7.990
 1240POPC   C4A18006  42.930  27.656   7.607
 1240POPC   C1B18007  43.280  27.372   8.750
 1240POPC   C2B18008  43.307  27.418   8.325
 1240POPC   C3B18009  43.121  27.278   7.968
 1240POPC   C4B18010  43.212  27.201   7.558
 1241POPC   NC318011  27.032   2.961   9.492
 1241POPC   PO418012  26.413   2.821   9.371
 1241POPC   GL118013  26.672   2.514   9.199
 1241POPC   GL218014  27.045   2.555   9.098
 1241POPC   C1A18015  26.646   2.559   8.776
 1241POPC   D2A18016  26.744   2.833   8.473
 1241POPC   C3A18017  26.905   2.705   8.122
 1241POPC   C4A18018  26.781   2.726   7.666
 1241POPC   C1B18019  27.222   2.774   8.705
 1241POPC   C2B18020  27.215   3.061   8.316
 1241POPC   C3B18021  27.221   2.975   7.848
 1241POPC   C4B18022  27.229   2.671   7.465
 1242POPC   NC318023  36.395   8.608   9.445
 1242POPC   PO418024  37.091   8.437   9.457
 1242POPC   GL118025  36.940   8.359   9.083
 1242POPC   GL218026  36.624   8.191   9.146
 1242POPC   C1A18027  37.176   8.289   8.689
 1242POPC   D2A18028  37.292   8.081   8.307
 1242POPC   C3A18029  37.222   8.293   7.948
 1242POPC   C4A18030  36.848   8.295   7.760
 1242POPC   C1B18031  36.663   8.303   8.684
 1242POPC   C2B18032  36.465   8.356   8.292
 1242POPC   C3B18033  36.399   8.554   7.885
 1242POPC   C4B18034  36.542   8.540   7.448
 1243POPC   NC318035  11.203  22.502   9.372
 1243POPC   PO418036  11.143  21.834   9.347
 1243POPC   GL118037  11.493  21.990   9.116
 1243POPC   GL218038  11.583  22.330   9.116
 1243POPC   C1A18039  11.388  22.105   8.704
 1243POPC   D2A18040  11.491  21.889   8.342
 1243POPC   C3A18041  11.215  21.966   8.011
 1243POPC   C4A18042  11.238  22.217   7.678
 1243POPC   C1B18043  11.686  22.536   8.751
 1243POPC   C2B18044  11.702  22.359   8.347
 1243POPC   C3B18045  11.587  22.503   7.950
 1243POPC   C4B18046  11.695  22.394   7.549
 1244POPC   NC318047   2.919  10.674   9.639
 1244POPC   PO418048   2.335  10.329   9.813
 1244POPC   GL118049   2.519  10.671   9.340
 1244POPC   GL218050   2.842  10.830   9.164
 1244POPC   C1A18051   2.555  10.608   8.848
 1244POPC   D2A18052   2.407  10.443   8.499
 1244POPC   C3A18053   2.702  10.315   8.194
 1244POPC   C4A18054   2.710  10.391   7.762
 1244POPC   C1B18055   3.079  10.629   8.799
 1244POPC   C2B18056   3.167  10.486   8.373
 1244POPC   C3B18057   3.072  10.664   7.967
 1244POPC   C4B18058   3.193  10.537   7.541
 1245POPC   NC318059  38.957  29.667   9.325
 1245POPC   PO418060  39.180  29.168   9.718
 1245POPC   GL118061  39.174  29.145   9.231
 1245POPC   GL218062  38.923  28.880   9.139
 1245POPC   C1A18063  39.419  29.113   8.813
 1245POPC   D2A18064  39.277  29.182   8.369
 1245POPC   C3A18065  39.465  29.008   7.977
 1245POPC   C4A18066  39.352  29.265   7.657
 1245POPC   C1B18067  38.916  29.067   8.734
 1245POPC   C2B18068  38.848  28.892   8.317
 1245POPC   C3B18069  38.964  29.073   7.920
 1245POPC   C4B18070  38.923  29.082   7.452
 1246POPC   NC318071  11.812  30.091   9.473
 1246POPC   PO418072  12.397  29.848   9.287
 1246POPC   GL118073  12.125  30.064   9.068
 1246POPC   GL218074  11.850  29.832   9.033
 1246POPC   C1A18075  12.305  30.263   8.743
 1246POPC   D2A18076  12.157  30.268   8.369
 1246POPC   C3A18077  12.339  30.177   8.021
 1246POPC   C4A18078  12.082  30.123   7.676
 1246POPC   C1B18079  12.045  29.793   8.635
 1246POPC   C2B18080  12.335  29.760   8.305
 1246POPC   C3B18081  12.106  29.690   7.934
 1246POPC   C4B18082  12.027  29.315   7.751
 1247POPC   NC318083  18.213   9.523   9.308
 1247POPC   PO418084  17.884   9.916   9.702
 1247POPC   GL118085  17.844   9.838   9.181
 1247POPC   GL218086  18.205   9.833   8.941
 1247POPC   C1A18087  17.807   9.730   8.693
 1247POPC   D2A18088  18.183   9.678   8.414
 1247POPC   C3A18089  17.997   9.729   8.022
 1247POPC   C4A18090  17.942   9.458   7.681
 1247POPC   C1B18091  18.613   9.875   8.713
 1247POPC   C2B18092  18.798   9.758   8.349
 1247POPC   C3B18093  18.688   9.844   7.952
 1247POPC   C4B18094  18.384   9.794   7.697
 1248POPC   NC318095  18.014   9.432   9.773
 1248POPC   PO418096  17.520   8.870   9.644
 1248POPC   GL118097  17.656   8.905   9.197
 1248POPC   GL218098  17.442   9.101   9.121
 1248POPC   C1A18099  17.720   8.969   8.705
 1248POPC   D2A18100  17.502   9.028   8.313
 1248POPC   C3A18101  17.720   9.049   7.897
 1248POPC   C4A18102  17.600   9.039   7.447
 1248POPC   C1B18103  17.227   8.966   8.782
 1248POPC   C2B18104  17.004   9.203   8.514
 1248POPC   C3B18105  17.079   9.228   8.101
 1248POPC   C4B18106  17.230   8.897   7.820
 1249POPC   NC318107  20.337  31.267   9.493
 1249POPC   PO418108  20.904  30.898   9.404
 1249POPC   GL118109  20.815  31.199   9.111
 1249POPC   GL218110  20.697  31.542   9.162
 1249POPC   C1A18111  20.749  31.200   8.701
 1249POPC   D2A18112  20.712  30.927   8.336
 1249POPC   C3A18113  20.805  31.163   7.986
 1249POPC   C4A18114  20.700  31.519   7.744
 1249POPC   C1B18115  20.587  31.769   8.763
 1249POPC   C2B18116  20.244  31.825   8.451
 1249POPC   C3B18117  20.319  31.775   8.013
 1249POPC   C4B18118  20.684  32.026   7.810
 1250POPC   NC318119   7.372  25.690   9.404
 1250POPC   PO418120   7.670  26.222   9.696
 1250POPC   GL118121   7.681  26.106   9.251
 1250POPC   GL218122   7.317  26.147   9.114
 1250POPC   C1A18123   7.737  26.225   8.820
 1250POPC   D2A18124   7.399  26.295   8.543
 1250POPC   C3A18125   7.413  26.324   8.090
 1250POPC   C4A18126   7.427  26.129   7.693
 1250POPC   C1B18127   7.116  25.883   8.787
 1250POPC   C2B18128   7.002  25.733   8.392
 1250POPC   C3B18129   7.119  25.847   8.003
 1250POPC   C4B18130   7.244  25.661   7.636
 1251POPC   NC318131  37.438  17.409   9.839
 1251POPC   PO418132  37.516  17.824   9.392
 1251POPC   GL118133  37.634  17.493   9.144
 1251POPC   GL218134  37.394  17.630   8.918
 1251POPC   C1A18135  37.835  17.339   8.769
 1251POPC   D2A18136  37.614  17.167   8.384
 1251POPC   C3A18137  37.730  17.256   7.953
 1251POPC   C4A18138  37.887  17.088   7.557
 1251POPC   C1B18139  37.741  17.865   8.702
 1251POPC   C2B18140  37.780  17.884   8.258
 1251POPC   C3B18141  37.464  17.682   8.062
 1251POPC   C4B18142  37.456  17.589   7.673
 1252POPC   NC318143   6.524  37.531   9.619
 1252POPC   PO418144   7.052  37.803   9.445
 1252POPC   GL118145   6.787  37.670   9.108
 1252POPC   GL218146   6.404  37.738   9.140
 1252POPC   C1A18147   6.633  37.808   8.680
 1252POPC   D2A18148   6.529  38.163   8.386
 1252POPC   C3A18149   6.702  38.034   7.995
 1252POPC   C4A18150   7.070  37.780   7.896
 1252POPC   C1B18151   6.470  37.329   8.909
 1252POPC   C2B18152   6.662  37.298   8.491
 1252POPC   C3B18153   6.676  37.503   8.078
 1252POPC   C4B18154   6.460  37.410   7.687
 1253POPC   NC318155  18.468  29.940   9.457
 1253POPC   PO418156  17.828  29.779   9.400
 1253POPC   GL118157  18.099  29.959   9.109
 1253POPC   GL218158  18.294  29.653   9.054
 1253POPC   C1A18159  18.412  30.045   8.774
 1253POPC   D2A18160  18.411  29.855   8.378
 1253POPC   C3A18161  18.277  30.060   8.004
 1253POPC   C4A18162  18.457  29.794   7.698
 1253POPC   C1B18163  18.023  29.658   8.690
 1253POPC   C2B18164  17.889  29.768   8.262
 1253POPC   C3B18165  17.998  29.641   7.854
 1253POPC   C4B18166  17.937  29.775   7.422
 1254POPC   NC318167  28.659  40.182   9.784
 1254POPC   PO418168  29.235  39.873   9.533
 1254POPC   GL118169  29.238  40.044   9.150
 1254POPC   GL218170  29.387  40.372   9.243
 1254POPC   C1A18171  29.078  39.918   8.717
 1254POPC   D2A18172  29.175  39.669   8.351
 1254POPC   C3A18173  28.914  39.710   8.002
 1254POPC   C4A18174  29.145  40.025   7.795
 1254POPC   C1B18175  29.258  40.399   8.797
 1254POPC   C2B18176  29.405  40.233   8.403
 1254POPC   C3B18177  29.352  40.449   8.016
 1254POPC   C4B18178  29.384  40.403   7.584
 1255POPC   NC318179  29.839  30.955   9.475
 1255POPC   PO418180  29.919  30.360   9.831
 1255POPC   GL118181  29.961  30.456   9.345
 1255POPC   GL218182  29.604  30.524   9.232
 1255POPC   C1A18183  29.933  30.600   8.865
 1255POPC   D2A18184  30.113  30.582   8.434
 1255POPC   C3A18185  29.917  30.725   8.044
 1255POPC   C4A18186  30.146  30.859   7.682
 1255POPC   C1B18187  29.509  30.300   8.791
 1255POPC   C2B18188  29.647  30.303   8.335
 1255POPC   C3B18189  29.469  30.487   7.926
 1255POPC   C4B18190  29.418  30.517   7.432
 1256POPC   NC318191  42.545  17.571   9.468
 1256POPC   PO418192  43.120  17.958   9.456
 1256POPC   GL118193  43.056  17.684   9.089
 1256POPC   GL218194  42.751  17.562   9.005
 1256POPC   C1A18195  43.330  17.595   8.761
 1256POPC   D2A18196  43.485  17.740   8.379
 1256POPC   C3A18197  43.216  17.572   8.083
 1256POPC   C4A18198  43.206  17.628   7.649
 1256POPC   C1B18199  42.914  17.245   8.722
 1256POPC   C2B18200  42.906  17.144   8.246
 1256POPC   C3B18201  42.821  17.364   7.828
 1256POPC   C4B18202  42.799  17.383   7.358
 1257POPC   NC318203  36.281  16.966   9.501
 1257POPC   PO418204  36.604  16.446   9.271
 1257POPC   GL118205  36.182  16.589   9.131
 1257POPC   GL218206  35.962  16.914   9.115
 1257POPC   C1A18207  36.064  16.577   8.683
 1257POPC   D2A18208  36.021  16.399   8.279
 1257POPC   C3A18209  35.965  16.565   7.903
 1257POPC   C4A18210  36.178  16.338   7.536
 1257POPC   C1B18211  36.251  17.008   8.834
 1257POPC   C2B18212  36.285  16.946   8.394
 1257POPC   C3B18213  36.515  16.931   8.011
 1257POPC   C4B18214  36.290  16.824   7.634
 1258POPC   NC318215  35.567  42.914   9.539
 1258POPC   PO418216  35.309  42.265   9.576
 1258POPC   GL118217  35.355  42.226   9.150
 1258POPC   GL218218  35.138  41.960   9.035
 1258POPC   C1A18219  35.449  42.537   8.823
 1258POPC   D2A18220  35.191  42.690   8.450
 1258POPC   C3A18221  35.242  42.415   8.086
 1258POPC   C4A18222  35.415  42.310   7.692
 1258POPC   C1B18223  35.416  42.015   8.672
 1258POPC   C2B18224  35.641  42.072   8.253
 1258POPC   C3B18225  35.708  41.933   7.792
 1258POPC   C4B18226  35.614  41.970   7.326
 1259POPC   NC318227  41.462   0.851   9.490
 1259POPC   PO418228  41.964   0.436   9.296
 1259POPC   GL118229  41.586   0.433   9.122
 1259POPC   GL218230  41.281   0.586   9.049
 1259POPC   C1A18231  41.631   0.368   8.694
 1259POPC   D2A18232  41.435   0.181   8.340
 1259POPC   C3A18233  41.570   0.336   7.929
 1259POPC   C4A18234  41.698   0.275   7.507
 1259POPC   C1B18235  41.148   0.499   8.609
 1259POPC   C2B18236  41.146   0.558   8.151
 1259POPC   C3B18237  41.215   0.658   7.711
 1259POPC   C4B18238  41.342   0.589   7.277
 1260POPC   NC318239  34.605  32.865   9.472
 1260POPC   PO418240  34.209  33.480   9.446
 1260POPC   GL118241  34.477  33.232   9.156
 1260POPC   GL218242  34.774  33.316   9.287
 1260POPC   C1A18243  34.547  32.973   8.777
 1260POPC   D2A18244  34.417  32.945   8.333
 1260POPC   C3A18245  34.567  32.803   7.939
 1260POPC   C4A18246  34.322  33.084   7.717
 1260POPC   C1B18247  34.822  33.429   8.830
 1260POPC   C2B18248  34.807  33.242   8.420
 1260POPC   C3B18249  34.702  33.298   8.005
 1260POPC   C4B18250  34.856  33.087   7.613
 1261POPC   NC318251  44.733  44.343   9.577
 1261POPC   PO418252  44.793  44.984   9.435
 1261POPC   GL118253  44.571  44.806   9.123
 1261POPC   GL218254  44.727  44.522   9.111
 1261POPC   C1A18255  44.465  44.742   8.701
 1261POPC   D2A18256  44.554  44.952   8.295
 1261POPC   C3A18257  44.445  44.707   7.911
 1261POPC   C4A18258  44.379  44.951   7.506
 1261POPC   C1B18259  44.859  44.364   8.740
 1261POPC   C2B18260  44.735  44.482   8.339
 1261POPC   C3B18261  44.944  44.611   7.968
 1261POPC   C4B18262  44.844  44.757   7.543
 1262POPC   NC318263  35.691  34.599  10.120
 1262POPC   PO418264  35.314  34.748   9.621
 1262POPC   GL118265  35.115  34.678   9.205
 1262POPC   GL218266  35.248  34.928   9.029
 1262POPC   C1A18267  34.993  34.533   8.775
 1262POPC   D2A18268  34.899  34.631   8.371
 1262POPC   C3A18269  35.250  34.566   8.155
 1262POPC   C4A18270  35.311  34.448   7.770
 1262POPC   C1B18271  35.329  34.865   8.602
 1262POPC   C2B18272  35.313  35.072   8.237
 1262POPC   C3B18273  35.420  34.969   7.857
 1262POPC   C4B18274  35.648  34.781   7.571
 1263POPC   NC318275  41.125  28.501   9.380
 1263POPC   PO418276  40.448  28.283   9.386
 1263POPC   GL118277  40.656  28.113   9.046
 1263POPC   GL218278  41.021  28.206   8.974
 1263POPC   C1A18279  40.654  28.309   8.639
 1263POPC   D2A18280  40.402  28.342   8.287
 1263POPC   C3A18281  40.598  28.169   7.902
 1263POPC   C4A18282  40.532  28.084   7.465
 1263POPC   C1B18283  41.109  28.600   8.741
 1263POPC   C2B18284  41.104  28.706   8.322
 1263POPC   C3B18285  41.058  28.412   7.974
 1263POPC   C4B18286  40.890  28.540   7.577
 1264POPC   NC318287  28.629  43.523   9.408
 1264POPC   PO418288  28.368  44.199   9.514
 1264POPC   GL118289  28.294  43.883   9.223
 1264POPC   GL218290  28.619  43.952   9.082
 1264POPC   C1A18291  28.183  43.779   8.816
 1264POPC   D2A18292  28.210  43.843   8.373
 1264POPC   C3A18293  28.316  43.490   8.143
 1264POPC   C4A18294  28.132  43.411   7.791
 1264POPC   C1B18295  28.561  44.114   8.657
 1264POPC   C2B18296  28.509  44.257   8.213
 1264POPC   C3B18297  28.290  44.051   7.829
 1264POPC   C4B18298  28.580  43.956   7.463
 1265POPC   NC318299   8.956  38.016   9.619
 1265POPC   PO418300   8.958  37.378   9.585
 1265POPC   GL118301   9.050  37.531   9.168
 1265POPC   GL218302   8.965  37.901   9.123
 1265POPC   C1A18303   8.996  37.523   8.713
 1265POPC   D2A18304   8.977  37.336   8.294
 1265POPC   C3A18305   9.083  37.663   7.979
 1265POPC   C4A18306   8.903  37.738   7.553
 1265POPC   C1B18307   9.205  38.013   8.775
 1265POPC   C2B18308   9.363  37.991   8.364
 1265POPC   C3B18309   9.414  38.063   7.922
 1265POPC   C4B18310   9.430  37.803   7.527
 1266POPC   NC318311   6.711  21.035   9.777
 1266POPC   PO418312   6.280  21.429   9.559
 1266POPC   GL118313   6.464  21.553   9.154
 1266POPC   GL218314   6.793  21.605   9.032
 1266POPC   C1A18315   6.492  21.410   8.692
 1266POPC   D2A18316   6.780  21.220   8.425
 1266POPC   C3A18317   6.660  21.263   8.006
 1266POPC   C4A18318   6.316  21.336   7.754
 1266POPC   C1B18319   6.791  21.833   8.672
 1266POPC   C2B18320   6.897  21.707   8.276
 1266POPC   C3B18321   6.818  21.729   7.844
 1266POPC   C4B18322   6.830  21.471   7.557
 1267POPC   NC318323  43.524  19.781   9.539
 1267POPC   PO418324  43.958  20.316   9.556
 1267POPC   GL118325  43.875  19.970   9.187
 1267POPC   GL218326  43.693  19.615   9.096
 1267POPC   C1A18327  44.069  19.961   8.746
 1267POPC   D2A18328  44.323  20.092   8.336
 1267POPC   C3A18329  44.279  20.065   7.873
 1267POPC   C4A18330  44.150  20.135   7.442
 1267POPC   C1B18331  43.758  19.547   8.679
 1267POPC   C2B18332  43.902  19.754   8.322
 1267POPC   C3B18333  43.805  19.909   7.956
 1267POPC   C4B18334  43.834  19.708   7.604
 1268POPC   NC318335  27.464  26.339   9.454
 1268POPC   PO418336  27.898  25.938   9.554
 1268POPC   GL118337  27.744  26.009   9.125
 1268POPC   GL218338  27.430  25.822   9.011
 1268POPC   C1A18339  27.894  26.316   8.785
 1268POPC   D2A18340  27.861  26.278   8.320
 1268POPC   C3A18341  27.425  26.235   8.189
 1268POPC   C4A18342  27.264  26.176   7.782
 1268POPC   C1B18343  27.666  25.883   8.613
 1268POPC   C2B18344  27.697  25.810   8.178
 1268POPC   C3B18345  27.685  25.830   7.745
 1268POPC   C4B18346  27.875  25.744   7.265
 1269POPC   NC318347   5.723  20.450   9.855
 1269POPC   PO418348   6.027  20.943   9.482
 1269POPC   GL118349   5.800  20.658   9.226
 1269POPC   GL218350   6.064  20.730   8.978
 1269POPC   C1A18351   5.701  20.373   8.876
 1269POPC   D2A18352   5.849  20.232   8.475
 1269POPC   C3A18353   5.608  20.382   8.128
 1269POPC   C4A18354   5.839  20.386   7.762
 1269POPC   C1B18355   6.297  20.932   8.643
 1269POPC   C2B18356   6.372  20.885   8.204
 1269POPC   C3B18357   6.127  20.851   7.830
 1269POPC   C4B18358   6.144  20.601   7.428
 1270POPC   NC318359  18.751  33.972   9.399
 1270POPC   PO418360  19.179  33.513   9.454
 1270POPC   GL118361  18.854  33.523   9.151
 1270POPC   GL218362  19.141  33.496   8.915
 1270POPC   C1A18363  18.636  33.646   8.785
 1270POPC   D2A18364  18.765  33.941   8.486
 1270POPC   C3A18365  19.026  33.799   8.157
 1270POPC   C4A18366  19.117  33.752   7.737
 1270POPC   C1B18367  19.267  33.862   8.654
 1270POPC   C2B18368  19.524  33.924   8.280
 1270POPC   C3B18369  19.480  34.106   7.877
 1270POPC   C4B18370  19.611  34.124   7.429
 1271POPC   NC318371  19.270  38.507   9.354
 1271POPC   PO418372  18.750  38.741   9.692
 1271POPC   GL118373  18.787  38.505   9.183
 1271POPC   GL218374  18.573  38.425   8.903
 1271POPC   C1A18375  19.027  38.238   8.808
 1271POPC   D2A18376  18.836  38.112   8.436
 1271POPC   C3A18377  18.899  38.374   8.089
 1271POPC   C4A18378  19.083  38.274   7.712
 1271POPC   C1B18379  18.842  38.718   8.680
 1271POPC   C2B18380  18.888  38.886   8.280
 1271POPC   C3B18381  18.697  38.903   7.861
 1271POPC   C4B18382  18.923  38.736   7.489
 1272POPC   NC318383   4.873  36.309   9.208
 1272POPC   PO418384   5.439  35.961   9.488
 1272POPC   GL118385   5.293  36.023   9.114
 1272POPC   GL218386   5.345  36.390   9.020
 1272POPC   C1A18387   5.225  35.759   8.756
 1272POPC   D2A18388   4.888  35.814   8.464
 1272POPC   C3A18389   5.136  35.792   8.101
 1272POPC   C4A18390   5.349  35.835   7.719
 1272POPC   C1B18391   5.229  36.253   8.601
 1272POPC   C2B18392   4.950  36.277   8.227
 1272POPC   C3B18393   5.055  36.293   7.779
 1272POPC   C4B18394   4.787  36.485   7.445
 1273POPC   NC318395   1.254  14.771   9.560
 1273POPC   PO418396   1.023  14.141   9.509
 1273POPC   GL118397   1.258  14.309   9.158
 1273POPC   GL218398   1.482  14.603   9.108
 1273POPC   C1A18399   1.111  14.472   8.752
 1273POPC   D2A18400   1.062  14.735   8.383
 1273POPC   C3A18401   1.004  14.510   8.039
 1273POPC   C4A18402   1.093  14.672   7.658
 1273POPC   C1B18403   1.593  14.311   8.774
 1273POPC   C2B18404   1.452  14.374   8.357
 1273POPC   C3B18405   1.479  14.675   8.024
 1273POPC   C4B18406   1.580  14.522   7.627
 1274POPC   NC318407   4.859  37.121   9.383
 1274POPC   PO418408   4.937  37.844   9.403
 1274POPC   GL118409   5.072  37.739   9.053
 1274POPC   GL218410   5.338  37.971   9.024
 1274POPC   C1A18411   5.035  37.888   8.625
 1274POPC   D2A18412   5.264  37.902   8.266
 1274POPC   C3A18413   5.003  37.744   7.939
 1274POPC   C4A18414   4.943  37.705   7.507
 1274POPC   C1B18415   5.458  37.605   8.764
 1274POPC   C2B18416   5.702  37.616   8.420
 1274POPC   C3B18417   5.549  37.551   8.040
 1274POPC   C4B18418   5.437  37.709   7.649
 1275POPC   NC318419   2.107  42.770   9.510
 1275POPC   PO418420   1.644  42.342   9.430
 1275POPC   GL118421   1.721  42.113   9.118
 1275POPC   GL218422   2.078  42.202   9.117
 1275POPC   C1A18423   1.738  42.307   8.725
 1275POPC   D2A18424   1.976  42.591   8.460
 1275POPC   C3A18425   1.999  42.426   8.054
 1275POPC   C4A18426   1.958  42.309   7.609
 1275POPC   C1B18427   2.247  42.204   8.713
 1275POPC   C2B18428   2.423  42.209   8.319
 1275POPC   C3B18429   2.479  42.606   8.140
 1275POPC   C4B18430   2.290  42.672   7.732
 1276POPC   NC318431  19.200   6.437   9.372
 1276POPC   PO418432  18.651   6.688   9.667
 1276POPC   GL118433  18.869   6.796   9.217
 1276POPC   GL218434  19.248   6.794   9.036
 1276POPC   C1A18435  18.858   6.643   8.774
 1276POPC   D2A18436  18.811   6.845   8.390
 1276POPC   C3A18437  18.688   6.640   8.036
 1276POPC   C4A18438  19.000   6.493   7.747
 1276POPC   C1B18439  19.424   6.584   8.696
 1276POPC   C2B18440  19.273   6.615   8.310
 1276POPC   C3B18441  19.460   6.536   7.972
 1276POPC   C4B18442  19.455   6.622   7.569
 1277POPC   NC318443   3.126   3.477   9.327
 1277POPC   PO418444   2.523   3.260   9.413
 1277POPC   GL118445   2.670   3.598   9.145
 1277POPC   GL218446   2.852   3.345   8.929
 1277POPC   C1A18447   2.540   3.710   8.764
 1277POPC   D2A18448   2.526   3.358   8.518
 1277POPC   C3A18449   2.678   3.392   8.100
 1277POPC   C4A18450   2.551   3.619   7.752
 1277POPC   C1B18451   3.025   3.579   8.590
 1277POPC   C2B18452   2.955   3.849   8.233
 1277POPC   C3B18453   3.049   3.768   7.793
 1277POPC   C4B18454   2.960   3.342   7.643
 1278POPC   NC318455  17.231  31.811   9.561
 1278POPC   PO418456  17.752  31.383   9.589
 1278POPC   GL118457  17.775  31.436   9.146
 1278POPC   GL218458  17.511  31.671   9.119
 1278POPC   C1A18459  17.670  31.204   8.769
 1278POPC   D2A18460  17.443  31.161   8.407
 1278POPC   C3A18461  17.625  31.364   8.057
 1278POPC   C4A18462  17.555  31.291   7.629
 1278POPC   C1B18463  17.247  31.829   8.779
 1278POPC   C2B18464  17.185  31.636   8.363
 1278POPC   C3B18465  17.255  31.700   7.893
 1278POPC   C4B18466  17.161  31.764   7.443
 1279POPC   NC318467  42.552  29.595   9.358
 1279POPC   PO418468  41.836  29.588   9.501
 1279POPC   GL118469  42.020  29.720   9.123
 1279POPC   GL218470  42.302  29.962   9.078
 1279POPC   C1A18471  42.219  29.572   8.737
 1279POPC   D2A18472  42.489  29.685   8.367
 1279POPC   C3A18473  42.392  29.868   7.930
 1279POPC   C4A18474  42.645  30.080   7.617
 1279POPC   C1B18475  42.353  30.207   8.702
 1279POPC   C2B18476  42.341  30.258   8.265
 1279POPC   C3B18477  42.266  30.381   7.794
 1279POPC   C4B18478  42.112  30.306   7.331
 1280POPC   NC318479  41.626  13.715   9.546
 1280POPC   PO418480  41.580  13.053   9.741
 1280POPC   GL118481  41.511  13.008   9.243
 1280POPC   GL218482  41.595  13.349   9.117
 1280POPC   C1A18483  41.338  12.738   8.848
 1280POPC   D2A18484  41.029  12.653   8.591
 1280POPC   C3A18485  41.249  12.432   8.336
 1280POPC   C4A18486  41.619  12.629   8.308
 1280POPC   C1B18487  41.704  13.060   8.769
 1280POPC   C2B18488  41.369  13.027   8.428
 1280POPC   C3B18489  41.302  13.406   8.146
 1280POPC   C4B18490  41.320  13.592   7.713
 1281POPC   NC318491   1.300  42.670   9.489
 1281POPC   PO418492   1.276  42.065   9.737
 1281POPC   GL118493   1.207  42.175   9.242
 1281POPC   GL218494   1.371  42.505   9.029
 1281POPC   C1A18495   0.984  42.256   8.852
 1281POPC   D2A18496   0.792  42.264   8.433
 1281POPC   C3A18497   1.044  42.307   8.035
 1281POPC   C4A18498   1.078  42.578   7.662
 1281POPC   C1B18499   1.425  42.714   8.612
 1281POPC   C2B18500   1.522  42.457   8.269
 1281POPC   C3B18501   1.523  42.436   7.849
 1281POPC   C4B18502   1.396  42.079   7.708
 1282POPC   NC318503  10.888  27.312   9.485
 1282POPC   PO418504  10.407  27.755   9.560
 1282POPC   GL118505  10.398  27.674   9.140
 1282POPC   GL218506  10.743  27.698   9.088
 1282POPC   C1A18507  10.173  27.733   8.764
 1282POPC   D2A18508  10.282  27.829   8.335
 1282POPC   C3A18509  10.343  27.617   7.956
 1282POPC   C4A18510  10.182  27.476   7.572
 1282POPC   C1B18511  10.678  27.587   8.651
 1282POPC   C2B18512  10.818  27.818   8.272
 1282POPC   C3B18513  10.812  27.744   7.820
 1282POPC   C4B18514  10.695  27.366   7.611
 1283POPC   NC318515  28.328  39.323   9.685
 1283POPC   PO418516  27.714  39.467   9.578
 1283POPC   GL118517  28.069  39.379   9.254
 1283POPC   GL218518  28.265  39.025   9.260
 1283POPC   C1A18519  28.343  39.384   8.905
 1283POPC   D2A18520  28.319  39.246   8.483
 1283POPC   C3A18521  28.390  39.462   8.095
 1283POPC   C4A18522  28.164  39.320   7.748
 1283POPC   C1B18523  28.152  38.883   8.824
 1283POPC   C2B18524  28.380  38.755   8.432
 1283POPC   C3B18525  28.358  38.940   8.025
 1283POPC   C4B18526  28.401  38.910   7.552
 1284POPC   NC318527   7.110  21.499   9.393
 1284POPC   PO418528   7.779  21.503   9.459
 1284POPC   GL118529   7.539  21.372   9.111
 1284POPC   GL218530   7.434  21.733   9.063
 1284POPC   C1A18531   7.548  21.107   8.718
 1284POPC   D2A18532   7.746  20.958   8.349
 1284POPC   C3A18533   7.472  20.952   8.022
 1284POPC   C4A18534   7.598  21.034   7.629
 1284POPC   C1B18535   7.211  21.510   8.721
 1284POPC   C2B18536   7.292  21.329   8.334
 1284POPC   C3B18537   7.157  21.343   7.936
 1284POPC   C4B18538   7.345  21.494   7.583
 1285POPC   NC318539   0.473  17.119   9.487
 1285POPC   PO418540   0.203  16.494   9.519
 1285POPC   GL118541   0.280  16.751   9.174
 1285POPC   GL218542   0.615  16.723   9.197
 1285POPC   C1A18543   0.093  16.936   8.813
 1285POPC   D2A18544   0.289  16.810   8.438
 1285POPC   C3A18545   0.116  16.598   8.105
 1285POPC   C4A18546   0.248  16.797   7.760
 1285POPC   C1B18547   0.692  16.927   8.816
 1285POPC   C2B18548   0.807  16.748   8.424
 1285POPC   C3B18549   0.664  16.887   8.036
 1285POPC   C4B18550   0.709  17.006   7.584
 1286POPC   NC318551  35.044   5.222   9.457
 1286POPC   PO418552  35.569   4.858   9.478
 1286POPC   GL118553  35.416   5.125   9.119
 1286POPC   GL218554  35.625   5.431   9.081
 1286POPC   C1A18555  35.224   4.962   8.720
 1286POPC   D2A18556  35.356   4.708   8.340
 1286POPC   C3A18557  35.107   4.857   7.987
 1286POPC   C4A18558  35.160   5.017   7.548
 1286POPC   C1B18559  35.413   5.469   8.696
 1286POPC   C2B18560  35.358   5.263   8.305
 1286POPC   C3B18561  35.256   5.393   7.894
 1286POPC   C4B18562  35.600   5.509   7.622
 1287POPC   NC318563  42.853  25.931   9.464
 1287POPC   PO418564  43.511  26.105   9.483
 1287POPC   GL118565  43.286  25.972   9.164
 1287POPC   GL218566  43.496  25.743   9.049
 1287POPC   C1A18567  43.056  26.193   8.848
 1287POPC   D2A18568  43.237  26.382   8.487
 1287POPC   C3A18569  43.247  26.146   8.105
 1287POPC   C4A18570  42.902  26.041   7.816
 1287POPC   C1B18571  43.517  25.934   8.682
 1287POPC   C2B18572  43.475  25.688   8.321
 1287POPC   C3B18573  43.307  25.669   7.912
 1287POPC   C4B18574  43.385  25.919   7.574
 1288POPC   NC318575  17.205  33.301   9.439
 1288POPC   PO418576  17.747  32.879   9.450
 1288POPC   GL118577  17.606  33.139   9.131
 1288POPC   GL218578  17.315  32.948   9.081
 1288POPC   C1A18579  17.691  33.400   8.759
 1288POPC   D2A18580  17.556  33.271   8.372
 1288POPC   C3A18581  17.683  33.323   7.959
 1288POPC   C4A18582  17.751  32.950   7.750
 1288POPC   C1B18583  17.203  33.196   8.770
 1288POPC   C2B18584  17.098  33.058   8.399
 1288POPC   C3B18585  17.332  32.908   8.068
 1288POPC   C4B18586  17.173  33.227   7.822
 1289POPC   NC318587  22.422  17.692   9.857
 1289POPC   PO418588  22.960  17.424   9.511
 1289POPC   GL118589  22.865  17.274   9.139
 1289POPC   GL218590  22.563  17.155   9.172
 1289POPC   C1A18591  22.882  17.454   8.755
 1289POPC   D2A18592  22.854  17.779   8.479
 1289POPC   C3A18593  22.661  17.759   8.091
 1289POPC   C4A18594  22.692  17.748   7.654
 1289POPC   C1B18595  22.444  17.194   8.785
 1289POPC   C2B18596  22.621  17.224   8.396
 1289POPC   C3B18597  22.471  17.270   8.031
 1289POPC   C4B18598  22.689  17.245   7.677
 1290POPC   NC318599  16.614  22.364   9.560
 1290POPC   PO418600  16.514  21.728   9.517
 1290POPC   GL118601  16.698  22.034   9.173
 1290POPC   GL218602  16.444  22.296   9.062
 1290POPC   C1A18603  16.767  22.160   8.713
 1290POPC   D2A18604  16.667  22.302   8.306
 1290POPC   C3A18605  16.952  22.121   7.981
 1290POPC   C4A18606  17.052  22.105   7.522
 1290POPC   C1B18607  16.247  22.443   8.657
 1290POPC   C2B18608  16.178  22.439   8.200
 1290POPC   C3B18609  16.473  22.565   7.850
 1290POPC   C4B18610  16.602  22.350   7.448
 1291POPC   NC318611  11.438   0.232   9.501
 1291POPC   PO418612  11.459   0.868   9.285
 1291POPC   GL118613  11.382   0.566   9.078
 1291POPC   GL218614  11.036   0.447   9.177
 1291POPC   C1A18615  11.610   0.479   8.709
 1291POPC   D2A18616  11.545   0.239   8.343
 1291POPC   C3A18617  11.542   0.411   7.920
 1291POPC   C4A18618  11.539   0.840   7.772
 1291POPC   C1B18619  11.187   0.195   8.814
 1291POPC   C2B18620  11.030   0.171   8.429
 1291POPC   C3B18621  11.129   0.100   8.026
 1291POPC   C4B18622  11.015   0.412   7.745
 1292POPC   NC318623  33.307  14.939   9.729
 1292POPC   PO418624  32.699  15.322   9.502
 1292POPC   GL118625  32.853  15.242   9.089
 1292POPC   GL218626  33.160  15.146   9.146
 1292POPC   C1A18627  32.968  15.038   8.678
 1292POPC   D2A18628  32.870  14.920   8.267
 1292POPC   C3A18629  33.149  15.025   7.966
 1292POPC   C4A18630  33.052  15.042   7.487
 1292POPC   C1B18631  33.304  15.416   8.796
 1292POPC   C2B18632  33.407  15.204   8.429
 1292POPC   C3B18633  33.524  15.370   8.054
 1292POPC   C4B18634  33.505  15.225   7.669
 1293POPC   NC318635  35.086  11.668   9.580
 1293POPC   PO418636  35.437  11.210   9.777
 1293POPC   GL118637  35.334  11.048   9.317
 1293POPC   GL218638  35.258  11.389   9.158
 1293POPC   C1A18639  35.513  10.979   8.861
 1293POPC   D2A18640  35.517  11.136   8.401
 1293POPC   C3A18641  35.468  11.033   7.961
 1293POPC   C4A18642  35.256  11.119   7.560
 1293POPC   C1B18643  35.276  11.437   8.741
 1293POPC   C2B18644  35.142  11.563   8.344
 1293POPC   C3B18645  35.340  11.554   7.955
 1293POPC   C4B18646  35.325  11.642   7.511
 1294POPC   NC318647  42.091  18.572   9.443
 1294POPC   PO418648  42.390  17.978   9.644
 1294POPC   GL118649  42.411  18.171   9.188
 1294POPC   GL218650  42.708  18.072   9.088
 1294POPC   C1A18651  42.125  18.249   8.774
 1294POPC   D2A18652  42.301  18.188   8.359
 1294POPC   C3A18653  42.060  18.222   7.986
 1294POPC   C4A18654  42.110  18.365   7.603
 1294POPC   C1B18655  42.630  18.374   8.725
 1294POPC   C2B18656  42.664  18.518   8.261
 1294POPC   C3B18657  42.567  18.263   7.875
 1294POPC   C4B18658  42.549  18.277   7.409
 1295POPC   NC318659  15.396   0.101   9.574
 1295POPC   PO418660  14.967  44.610   9.549
 1295POPC   GL118661  14.932  44.789   9.164
 1295POPC   GL218662  15.255  44.939   9.111
 1295POPC   C1A18663  14.817  44.530   8.822
 1295POPC   D2A18664  14.735  44.634   8.410
 1295POPC   C3A18665  15.035  44.531   8.119
 1295POPC   C4A18666  14.955  44.412   7.708
 1295POPC   C1B18667  15.244  44.785   8.698
 1295POPC   C2B18668  15.463  44.905   8.359
 1295POPC   C3B18669  15.386  44.895   7.964
 1295POPC   C4B18670  15.464  44.530   7.757
 1296POPC   NC318671  11.579  24.755   9.451
 1296POPC   PO418672  11.458  24.130   9.309
 1296POPC   GL118673  11.163  24.355   9.073
 1296POPC   GL218674  11.156  24.731   9.121
 1296POPC   C1A18675  11.319  24.345   8.658
 1296POPC   D2A18676  11.595  24.505   8.354
 1296POPC   C3A18677  11.682  24.279   7.948
 1296POPC   C4A18678  11.464  24.242   7.536
 1296POPC   C1B18679  10.972  24.696   8.699
 1296POPC   C2B18680  10.973  24.455   8.283
 1296POPC   C3B18681  11.221  24.526   7.880
 1296POPC   C4B18682  11.159  24.631   7.406
 1297POPC   NC318683  40.720  35.725   9.443
 1297POPC   PO418684  40.382  36.299   9.375
 1297POPC   GL118685  40.734  36.144   9.062
 1297POPC   GL218686  40.969  35.819   8.999
 1297POPC   C1A18687  40.837  36.156   8.616
 1297POPC   D2A18688  41.047  36.416   8.282
 1297POPC   C3A18689  40.904  36.234   7.955
 1297POPC   C4A18690  40.522  36.186   7.751
 1297POPC   C1B18691  40.843  35.600   8.621
 1297POPC   C2B18692  40.873  35.649   8.185
 1297POPC   C3B18693  41.115  35.745   7.831
 1297POPC   C4B18694  40.935  35.985   7.516
 1298POPC   NC318695  37.920  43.800   9.438
 1298POPC   PO418696  37.535  44.330   9.472
 1298POPC   GL118697  37.415  44.123   9.087
 1298POPC   GL218698  37.483  43.765   9.140
 1298POPC   C1A18699  37.535  44.111   8.629
 1298POPC   D2A18700  37.873  44.001   8.362
 1298POPC   C3A18701  37.854  44.017   7.941
 1298POPC   C4A18702  37.927  43.697   7.682
 1298POPC   C1B18703  37.590  43.606   8.718
 1298POPC   C2B18704  37.489  43.686   8.290
 1298POPC   C3B18705  37.434  43.693   7.849
 1298POPC   C4B18706  37.465  43.744   7.409
 1299POPC   NC318707  34.377   5.219   9.463
 1299POPC   PO418708  34.612   4.571   9.497
 1299POPC   GL118709  34.443   4.793   9.122
 1299POPC   GL218710  34.176   5.035   9.040
 1299POPC   C1A18711  34.566   4.978   8.695
 1299POPC   D2A18712  34.851   5.145   8.352
 1299POPC   C3A18713  34.680   5.149   7.912
 1299POPC   C4A18714  34.639   5.029   7.473
 1299POPC   C1B18715  34.182   5.307   8.702
 1299POPC   C2B18716  34.192   5.061   8.332
 1299POPC   C3B18717  34.138   5.212   7.958
 1299POPC   C4B18718  34.315   5.497   7.704
 1300POPC   NC318719  18.645  18.816   9.501
 1300POPC   PO418720  18.192  19.199   9.672
 1300POPC   GL118721  18.268  19.101   9.236
 1300POPC   GL218722  18.566  19.209   9.164
 1300POPC   C1A18723  18.236  18.881   8.853
 1300POPC   D2A18724  18.002  18.890   8.489
 1300POPC   C3A18725  18.215  19.112   8.190
 1300POPC   C4A18726  18.258  19.058   7.767
 1300POPC   C1B18727  18.444  19.357   8.747
 1300POPC   C2B18728  18.650  19.441   8.367
 1300POPC   C3B18729  18.467  19.513   7.960
 1300POPC   C4B18730  18.540  19.422   7.522
 1301POPC   NC318731   7.836  35.485   9.279
 1301POPC   PO418732   8.428  35.290   9.482
 1301POPC   GL118733   8.193  35.157   9.095
 1301POPC   GL218734   8.227  35.528   8.949
 1301POPC   C1A18735   7.884  35.173   8.721
 1301POPC   D2A18736   7.949  35.524   8.423
 1301POPC   C3A18737   7.836  35.473   7.986
 1301POPC   C4A18738   7.935  35.096   7.764
 1301POPC   C1B18739   8.382  35.243   8.638
 1301POPC   C2B18740   8.540  35.056   8.298
 1301POPC   C3B18741   8.427  35.181   7.892
 1301POPC   C4B18742   8.320  35.566   7.654
 1302POPC   NC318743  18.901   1.631   9.549
 1302POPC   PO418744  19.199   2.180   9.571
 1302POPC   GL118745  19.262   1.907   9.205
 1302POPC   GL218746  18.954   1.909   9.114
 1302POPC   C1A18747  19.285   2.034   8.741
 1302POPC   D2A18748  19.018   2.064   8.349
 1302POPC   C3A18749  19.201   1.964   7.957
 1302POPC   C4A18750  19.258   1.942   7.499
 1302POPC   C1B18751  18.766   1.821   8.726
 1302POPC   C2B18752  18.684   1.547   8.378
 1302POPC   C3B18753  18.681   1.774   8.011
 1302POPC   C4B18754  18.897   1.657   7.676
 1303POPC   NC318755  41.793  28.275   9.580
 1303POPC   PO418756  41.195  28.017   9.418
 1303POPC   GL118757  41.526  28.181   9.135
 1303POPC   GL218758  41.509  28.494   9.042
 1303POPC   C1A18759  41.799  28.151   8.739
 1303POPC   D2A18760  42.063  28.216   8.370
 1303POPC   C3A18761  41.884  28.067   8.010
 1303POPC   C4A18762  41.638  28.336   7.816
 1303POPC   C1B18763  41.673  28.667   8.691
 1303POPC   C2B18764  41.619  28.553   8.270
 1303POPC   C3B18765  41.413  28.769   7.902
 1303POPC   C4B18766  41.432  28.739   7.441
 1304POPC   NC318767  37.802  19.075   9.749
 1304POPC   PO418768  37.938  18.640   9.260
 1304POPC   GL118769  37.725  18.869   8.961
 1304POPC   GL218770  37.464  19.066   9.105
 1304POPC   C1A18771  37.902  18.814   8.581
 1304POPC   D2A18772  37.950  18.817   8.167
 1304POPC   C3A18773  37.615  18.875   7.923
 1304POPC   C4A18774  37.891  18.847   7.592
 1304POPC   C1B18775  37.427  19.244   8.685
 1304POPC   C2B18776  37.767  19.274   8.369
 1304POPC   C3B18777  37.921  19.285   7.930
 1304POPC   C4B18778  37.625  19.294   7.597
 1305POPC   NC318779   3.764   6.190   9.637
 1305POPC   PO418780   4.328   5.828   9.450
 1305POPC   GL118781   4.210   5.853   9.082
 1305POPC   GL218782   4.518   5.674   8.999
 1305POPC   C1A18783   4.147   5.839   8.669
 1305POPC   D2A18784   3.927   5.808   8.299
 1305POPC   C3A18785   4.189   5.815   7.964
 1305POPC   C4A18786   4.162   6.076   7.610
 1305POPC   C1B18787   4.648   5.978   8.681
 1305POPC   C2B18788   4.560   6.109   8.258
 1305POPC   C3B18789   4.647   6.006   7.830
 1305POPC   C4B18790   4.502   5.712   7.513
 1306POPC   NC318791  40.269  41.883   9.493
 1306POPC   PO418792  39.730  41.399   9.540
 1306POPC   GL118793  40.034  41.434   9.234
 1306POPC   GL218794  39.944  41.713   9.088
 1306POPC   C1A18795  40.111  41.319   8.781
 1306POPC   D2A18796  39.959  41.558   8.405
 1306POPC   C3A18797  39.844  41.438   7.992
 1306POPC   C4A18798  40.127  41.136   7.849
 1306POPC   C1B18799  40.229  41.821   8.748
 1306POPC   C2B18800  40.393  41.826   8.336
 1306POPC   C3B18801  40.309  41.633   7.952
 1306POPC   C4B18802  40.116  41.754   7.574
 1307POPC   NC318803  11.403  25.826   9.764
 1307POPC   PO418804  11.035  26.297   9.587
 1307POPC   GL118805  11.224  26.116   9.207
 1307POPC   GL218806  11.509  25.885   9.250
 1307POPC   C1A18807  11.226  26.114   8.746
 1307POPC   D2A18808  11.020  25.911   8.411
 1307POPC   C3A18809  11.220  26.037   8.027
 1307POPC   C4A18810  11.098  25.975   7.626
 1307POPC   C1B18811  11.666  25.880   8.809
 1307POPC   C2B18812  11.538  25.796   8.378
 1307POPC   C3B18813  11.668  25.707   7.936
 1307POPC   C4B18814  11.586  25.894   7.529
 1308POPC   NC318815  19.900  15.681   9.485
 1308POPC   PO418816  19.409  16.158   9.482
 1308POPC   GL118817  19.778  16.290   9.219
 1308POPC   GL218818  19.753  15.972   9.109
 1308POPC   C1A18819  19.878  16.280   8.747
 1308POPC   D2A18820  19.510  16.141   8.531
 1308POPC   C3A18821  19.590  16.020   8.131
 1308POPC   C4A18822  19.996  16.019   7.989
 1308POPC   C1B18823  20.077  15.831   8.849
 1308POPC   C2B18824  19.952  15.776   8.442
 1308POPC   C3B18825  20.127  15.527   8.123
 1308POPC   C4B18826  20.032  15.419   7.699
 1309POPC   NC318827   8.040  41.511   9.460
 1309POPC   PO418828   8.591  41.215   9.342
 1309POPC   GL118829   8.348  41.426   9.067
 1309POPC   GL218830   8.020  41.242   9.043
 1309POPC   C1A18831   8.096  41.688   8.776
 1309POPC   D2A18832   7.913  41.591   8.371
 1309POPC   C3A18833   7.995  41.840   8.022
 1309POPC   C4A18834   8.327  41.811   7.685
 1309POPC   C1B18835   8.205  41.185   8.659
 1309POPC   C2B18836   8.391  41.411   8.374
 1309POPC   C3B18837   8.225  41.376   7.984
 1309POPC   C4B18838   8.387  41.286   7.621
 1310POPC   NC318839  31.196  33.141   9.490
 1310POPC   PO418840  31.745  33.444   9.400
 1310POPC   GL118841  31.534  33.213   9.071
 1310POPC   GL218842  31.301  32.936   9.045
 1310POPC   C1A18843  31.675  33.042   8.684
 1310POPC   D2A18844  31.646  33.185   8.273
 1310POPC   C3A18845  31.756  32.911   7.926
 1310POPC   C4A18846  31.560  33.155   7.688
 1310POPC   C1B18847  31.340  32.628   8.749
 1310POPC   C2B18848  31.327  32.713   8.378
 1310POPC   C3B18849  31.268  32.913   8.050
 1310POPC   C4B18850  31.249  32.739   7.664
 1311POPC   NC318851   4.117  12.473   9.611
 1311POPC   PO418852   4.624  12.955   9.442
 1311POPC   GL118853   4.450  12.883   9.038
 1311POPC   GL218854   4.122  12.981   9.130
 1311POPC   C1A18855   4.233  12.907   8.618
 1311POPC   D2A18856   3.923  12.693   8.353
 1311POPC   C3A18857   4.136  12.496   8.018
 1311POPC   C4A18858   4.275  12.714   7.660
 1311POPC   C1B18859   4.028  13.315   8.819
 1311POPC   C2B18860   3.903  13.214   8.373
 1311POPC   C3B18861   4.032  13.285   7.940
 1311POPC   C4B18862   4.153  13.190   7.508
 1312POPC   NC318863  19.303  21.940   9.434
 1312POPC   PO418864  18.844  22.408   9.393
 1312POPC   GL118865  18.777  22.235   9.021
 1312POPC   GL218866  18.834  21.905   9.130
 1312POPC   C1A18867  18.907  22.336   8.592
 1312POPC   D2A18868  19.160  22.402   8.230
 1312POPC   C3A18869  18.948  22.302   7.857
 1312POPC   C4A18870  18.985  21.897   7.753
 1312POPC   C1B18871  19.140  21.934   8.802
 1312POPC   C2B18872  19.152  21.868   8.329
 1312POPC   C3B18873  18.790  21.615   8.137
 1312POPC   C4B18874  18.499  21.696   7.768
 1313POPC   NC318875   3.115  44.115   9.434
 1313POPC   PO418876   3.686  43.735   9.321
 1313POPC   GL118877   3.343  43.818   9.040
 1313POPC   GL218878   3.353  44.165   8.978
 1313POPC   C1A18879   3.415  43.718   8.598
 1313POPC   D2A18880   3.463  43.433   8.250
 1313POPC   C3A18881   3.849  43.465   8.029
 1313POPC   C4A18882   3.960  43.791   7.785
 1313POPC   C1B18883   3.382  44.218   8.529
 1313POPC   C2B18884   3.207  43.993   8.186
 1313POPC   C3B18885   3.293  43.856   7.755
 1313POPC   C4B18886   3.334  44.083   7.319
 1314POPC   NC318887   2.358  11.507   9.536
 1314POPC   PO418888   2.863  11.143   9.573
 1314POPC   GL118889   2.693  11.316   9.178
 1314POPC   GL218890   2.596  11.663   9.098
 1314POPC   C1A18891   2.646  11.129   8.777
 1314POPC   D2A18892   2.788  10.855   8.445
 1314POPC   C3A18893   2.704  11.071   8.104
 1314POPC   C4A18894   2.728  11.078   7.699
 1314POPC   C1B18895   2.968  11.589   8.796
 1314POPC   C2B18896   3.019  11.425   8.344
 1314POPC   C3B18897   2.851  11.552   7.910
 1314POPC   C4B18898   2.436  11.539   7.678
 1315POPC   NC318899   0.132  25.154   9.601
 1315POPC   PO418900   0.700  25.288   9.338
 1315POPC   GL118901   0.340  25.309   9.125
 1315POPC   GL218902   0.256  24.948   9.153
 1315POPC   C1A18903   0.380  25.435   8.704
 1315POPC   D2A18904   0.509  25.672   8.353
 1315POPC   C3A18905   0.837  25.547   8.116
 1315POPC   C4A18906   0.757  25.345   7.770
 1315POPC   C1B18907   0.524  24.925   8.771
 1315POPC   C2B18908   0.570  25.132   8.345
 1315POPC   C3B18909   0.357  25.085   7.960
 1315POPC   C4B18910   0.164  25.453   7.883
 1316POPC   NC318911  37.501  20.623   9.284
 1316POPC   PO418912  38.051  20.790   9.658
 1316POPC   GL118913  37.995  20.794   9.211
 1316POPC   GL218914  38.015  20.449   9.237
 1316POPC   C1A18915  37.840  20.914   8.784
 1316POPC   D2A18916  37.574  20.996   8.423
 1316POPC   C3A18917  37.555  20.713   8.073
 1316POPC   C4A18918  37.326  20.499   7.726
 1316POPC   C1B18919  38.123  20.492   8.801
 1316POPC   C2B18920  37.896  20.458   8.422
 1316POPC   C3B18921  38.039  20.506   7.993
 1316POPC   C4B18922  37.840  20.694   7.632
 1317POPC   NC318923   3.477  34.182   9.451
 1317POPC   PO418924   3.520  34.884   9.380
 1317POPC   GL118925   3.398  34.565   9.074
 1317POPC   GL218926   3.578  34.275   8.977
 1317POPC   C1A18927   3.263  34.481   8.622
 1317POPC   D2A18928   3.153  34.471   8.168
 1317POPC   C3A18929   3.222  34.828   7.867
 1317POPC   C4A18930   3.444  34.867   7.476
 1317POPC   C1B18931   3.784  34.439   8.625
 1317POPC   C2B18932   3.655  34.517   8.201
 1317POPC   C3B18933   3.629  34.481   7.752
 1317POPC   C4B18934   3.544  34.134   7.441
 1318POPC   NC318935  14.357  20.252   9.642
 1318POPC   PO418936  14.094  20.777   9.347
 1318POPC   GL118937  14.395  20.666   9.093
 1318POPC   GL218938  14.480  20.317   9.113
 1318POPC   C1A18939  14.291  20.631   8.666
 1318POPC   D2A18940  14.069  20.802   8.321
 1318POPC   C3A18941  14.358  20.674   8.048
 1318POPC   C4A18942  14.506  20.772   7.682
 1318POPC   C1B18943  14.597  20.182   8.671
 1318POPC   C2B18944  14.571  20.188   8.205
 1318POPC   C3B18945  14.578  20.283   7.755
 1318POPC   C4B18946  14.876  20.536   7.437
 1319POPC   NC318947  20.834   6.244   9.449
 1319POPC   PO418948  20.406   5.766   9.468
 1319POPC   GL118949  20.531   5.991   9.122
 1319POPC   GL218950  20.827   5.851   9.095
 1319POPC   C1A18951  20.479   5.993   8.698
 1319POPC   D2A18952  20.750   5.859   8.379
 1319POPC   C3A18953  20.629   6.004   7.991
 1319POPC   C4A18954  20.233   6.066   7.788
 1319POPC   C1B18955  21.066   5.670   8.765
 1319POPC   C2B18956  21.085   5.474   8.360
 1319POPC   C3B18957  21.044   5.701   7.970
 1319POPC   C4B18958  20.839   5.729   7.600
 1320POPC   NC318959  29.983   4.754   9.420
 1320POPC   PO418960  29.589   5.387   9.337
 1320POPC   GL118961  29.885   5.187   9.063
 1320POPC   GL218962  29.870   4.815   8.948
 1320POPC   C1A18963  29.941   5.207   8.623
 1320POPC   D2A18964  30.147   5.048   8.297
 1320POPC   C3A18965  29.873   5.122   7.987
 1320POPC   C4A18966  29.886   5.418   7.662
 1320POPC   C1B18967  30.242   4.804   8.749
 1320POPC   C2B18968  30.286   4.570   8.364
 1320POPC   C3B18969  30.049   4.607   7.974
 1320POPC   C4B18970  29.985   4.847   7.583
 1321POPC   NC318971  25.139  36.476   9.351
 1321POPC   PO418972  25.415  37.129   9.354
 1321POPC   GL118973  25.382  36.848   9.091
 1321POPC   GL218974  25.043  36.896   9.057
 1321POPC   C1A18975  25.343  36.701   8.698
 1321POPC   D2A18976  25.207  36.814   8.293
 1321POPC   C3A18977  25.365  36.719   7.895
 1321POPC   C4A18978  25.493  37.002   7.542
 1321POPC   C1B18979  24.836  36.864   8.677
 1321POPC   C2B18980  24.804  36.507   8.378
 1321POPC   C3B18981  24.822  36.693   7.973
 1321POPC   C4B18982  24.689  37.106   7.813
 1322POPC   NC318983   4.776  39.274   9.773
 1322POPC   PO418984   5.208  39.173   9.287
 1322POPC   GL118985   5.294  39.403   8.962
 1322POPC   GL218986   4.975  39.359   8.810
 1322POPC   C1A18987   5.424  39.337   8.557
 1322POPC   D2A18988   5.114  39.231   8.273
 1322POPC   C3A18989   5.253  39.325   7.858
 1322POPC   C4A18990   5.137  39.360   7.416
 1322POPC   C1B18991   5.080  38.937   8.701
 1322POPC   C2B18992   4.941  38.708   8.350
 1322POPC   C3B18993   5.000  38.844   7.973
 1322POPC   C4B18994   5.207  38.886   7.609
 1323POPC   NC318995  18.586  31.465   9.486
 1323POPC   PO418996  19.233  31.343   9.412
 1323POPC   GL118997  19.081  31.438   9.022
 1323POPC   GL218998  18.743  31.361   9.020
 1323POPC   C1A18999  19.035  31.372   8.566
 1323POPC   D2A19000  19.245  31.218   8.180
 1323POPC   C3A19001  19.149  31.310   7.735
 1323POPC   C4A19002  19.268  31.165   7.293
 1323POPC   C1B19003  18.646  31.040   8.750
 1323POPC   C2B19004  18.567  30.891   8.340
 1323POPC   C3B19005  18.764  31.011   7.959
 1323POPC   C4B19006  18.642  31.386   7.760
 1324POPC   NC319007  28.379  14.725   9.288
 1324POPC   PO419008  28.367  15.314   9.632
 1324POPC   GL119009  28.201  15.302   9.208
 1324POPC   GL219010  28.515  15.149   9.066
 1324POPC   C1A19011  28.127  15.260   8.736
 1324POPC   D2A19012  28.475  15.084   8.438
 1324POPC   C3A19013  28.342  15.008   8.008
 1324POPC   C4A19014  28.077  15.337   7.799
 1324POPC   C1B19015  28.591  15.468   8.800
 1324POPC   C2B19016  28.740  15.531   8.366
 1324POPC   C3B19017  28.728  15.345   7.938
 1324POPC   C4B19018  28.502  15.172   7.546
 1325POPC   NC319019  38.501  13.768  10.012
 1325POPC   PO419020  38.555  13.287   9.644
 1325POPC   GL119021  38.597  13.471   9.245
 1325POPC   GL219022  38.345  13.717   9.183
 1325POPC   C1A19023  38.537  13.417   8.798
 1325POPC   D2A19024  38.325  13.530   8.412
 1325POPC   C3A19025  38.642  13.637   8.107
 1325POPC   C4A19026  38.765  13.559   7.706
 1325POPC   C1B19027  38.307  13.910   8.799
 1325POPC   C2B19028  38.042  13.972   8.458
 1325POPC   C3B19029  38.210  13.923   8.074
 1325POPC   C4B19030  38.256  13.705   7.697
 1326POPC   NC319031  12.074  18.522   9.517
 1326POPC   PO419032  12.569  18.089   9.462
 1326POPC   GL119033  12.262  18.242   9.111
 1326POPC   GL219034  11.898  18.344   9.069
 1326POPC   C1A19035  12.278  18.083   8.681
 1326POPC   D2A19036  12.560  18.055   8.337
 1326POPC   C3A19037  12.430  17.918   7.948
 1326POPC   C4A19038  12.066  18.120   7.818
 1326POPC   C1B19039  12.026  18.516   8.689
 1326POPC   C2B19040  11.997  18.369   8.281
 1326POPC   C3B19041  11.802  18.539   7.931
 1326POPC   C4B19042  12.109  18.698   7.691
 1327POPC   NC319043  30.861   8.301   9.513
 1327POPC   PO419044  30.487   7.733   9.499
 1327POPC   GL119045  30.687   7.896   9.117
 1327POPC   GL219046  31.025   7.845   9.103
 1327POPC   C1A19047  30.773   8.129   8.695
 1327POPC   D2A19048  30.872   8.388   8.280
 1327POPC   C3A19049  30.763   8.163   7.882
 1327POPC   C4A19050  30.629   8.187   7.436
 1327POPC   C1B19051  31.236   7.925   8.729
 1327POPC   C2B19052  31.112   7.943   8.315
 1327POPC   C3B19053  31.271   8.159   7.980
 1327POPC   C4B19054  31.151   8.255   7.560
 1328POPC   NC319055  10.815   2.975   9.290
 1328POPC   PO419056  10.574   3.653   9.423
 1328POPC   GL119057  10.576   3.384   9.108
 1328POPC   GL219058  10.849   3.546   8.946
 1328POPC   C1A19059  10.372   3.482   8.744
 1328POPC   D2A19060  10.573   3.656   8.417
 1328POPC   C3A19061  10.294   3.680   8.110
 1328POPC   C4A19062  10.377   3.485   7.764
 1328POPC   C1B19063  10.763   3.178   8.655
 1328POPC   C2B19064  10.646   3.165   8.197
 1328POPC   C3B19065  10.853   3.435   7.874
 1328POPC   C4B19066  10.823   3.691   7.484
 1329POPC   NC319067   8.825  42.863   9.489
 1329POPC   PO419068   9.346  43.299   9.548
 1329POPC   GL119069   9.254  43.224   9.140
 1329POPC   GL219070   9.257  42.874   9.094
 1329POPC   C1A19071   9.211  43.197   8.691
 1329POPC   D2A19072   9.205  43.016   8.286
 1329POPC   C3A19073   8.838  42.986   8.097
 1329POPC   C4A19074   8.690  43.161   7.743
 1329POPC   C1B19075   9.131  42.649   8.728
 1329POPC   C2B19076   8.993  42.520   8.322
 1329POPC   C3B19077   9.115  42.580   7.908
 1329POPC   C4B19078   9.251  42.957   7.764
 1330POPC   NC319079  34.246  40.477   9.266
 1330POPC   PO419080  34.610  40.975   9.480
 1330POPC   GL119081  34.534  40.835   9.084
 1330POPC   GL219082  34.860  40.771   9.041
 1330POPC   C1A19083  34.508  40.777   8.631
 1330POPC   D2A19084  34.750  41.057   8.365
 1330POPC   C3A19085  34.718  40.933   7.920
 1330POPC   C4A19086  34.558  40.626   7.649
 1330POPC   C1B19087  35.007  40.662   8.644
 1330POPC   C2B19088  34.803  40.541   8.251
 1330POPC   C3B19089  35.005  40.503   7.850
 1330POPC   C4B19090  34.985  40.594   7.388
 1331POPC   NC319091  44.903  42.500   9.514
 1331POPC   PO419092  44.332  42.167   9.683
 1331POPC   GL119093  44.522  42.252   9.243
 1331POPC   GL219094  44.577  42.605   9.121
 1331POPC   C1A19095  44.600  42.254   8.769
 1331POPC   D2A19096  44.385  42.522   8.449
 1331POPC   C3A19097  44.434  42.357   8.042
 1331POPC   C4A19098  44.462  42.459   7.612
 1331POPC   C1B19099  44.844  42.724   8.730
 1331POPC   C2B19100  44.870  42.587   8.302
 1331POPC   C3B19101  44.943  42.428   7.899
 1331POPC   C4B19102   0.217  42.502   7.593
 1332POPC   NC319103   7.902  35.749   9.764
 1332POPC   PO419104   8.443  35.963   9.437
 1332POPC   GL119105   8.098  36.011   9.168
 1332POPC   GL219106   8.293  36.275   9.034
 1332POPC   C1A19107   7.962  35.944   8.736
 1332POPC   D2A19108   8.165  36.025   8.323
 1332POPC   C3A19109   8.061  36.238   7.931
 1332POPC   C4A19110   7.908  35.927   7.666
 1332POPC   C1B19111   8.507  36.448   8.695
 1332POPC   C2B19112   8.341  36.516   8.304
 1332POPC   C3B19113   8.420  36.645   7.887
 1332POPC   C4B19114   8.376  36.424   7.517
 1333POPC   NC319115  29.329  43.153   9.330
 1333POPC   PO419116  28.751  42.789   9.439
 1333POPC   GL119117  28.852  43.088   9.129
 1333POPC   GL219118  29.091  42.842   8.959
 1333POPC   C1A19119  29.051  43.341   8.767
 1333POPC   D2A19120  29.093  43.131   8.374
 1333POPC   C3A19121  29.042  43.424   8.086
 1333POPC   C4A19122  29.069  43.334   7.673
 1333POPC   C1B19123  29.459  43.055   8.724
 1333POPC   C2B19124  29.633  43.109   8.341
 1333POPC   C3B19125  29.482  43.193   7.939
 1333POPC   C4B19126  29.452  42.959   7.573
 1334POPC   NC319127   2.661  40.430   9.420
 1334POPC   PO419128   2.725  41.079   9.376
 1334POPC   GL119129   2.741  40.770   9.033
 1334POPC   GL219130   3.060  40.584   9.056
 1334POPC   C1A19131   2.790  40.799   8.574
 1334POPC   D2A19132   2.574  40.668   8.187
 1334POPC   C3A19133   2.715  40.972   7.878
 1334POPC   C4A19134   3.072  41.189   7.797
 1334POPC   C1B19135   2.994  40.354   8.681
 1334POPC   C2B19136   3.135  40.510   8.291
 1334POPC   C3B19137   2.996  40.537   7.890
 1334POPC   C4B19138   3.022  40.296   7.546
 1335POPC   NC319139  39.083  27.733   9.520
 1335POPC   PO419140  38.436  27.635   9.383
 1335POPC   GL119141  38.767  27.597   9.144
 1335POPC   GL219142  38.788  27.256   9.266
 1335POPC   C1A19143  38.772  27.747   8.747
 1335POPC   D2A19144  38.621  27.955   8.401
 1335POPC   C3A19145  38.640  27.707   8.048
 1335POPC   C4A19146  38.272  27.611   7.847
 1335POPC   C1B19147  38.491  27.311   8.822
 1335POPC   C2B19148  38.366  27.347   8.376
 1335POPC   C3B19149  38.575  27.164   8.036
 1335POPC   C4B19150  38.733  27.247   7.657
 1336POPC   NC319151   6.527  44.256   9.563
 1336POPC   PO419152   6.237  43.680   9.474
 1336POPC   GL119153   6.339  43.990   9.162
 1336POPC   GL219154   6.714  43.936   9.125
 1336POPC   C1A19155   6.410  44.070   8.726
 1336POPC   D2A19156   6.485  43.763   8.407
 1336POPC   C3A19157   6.366  43.923   8.016
 1336POPC   C4A19158   6.421  43.819   7.584
 1336POPC   C1B19159   6.926  44.148   8.757
 1336POPC   C2B19160   6.790  44.159   8.299
 1336POPC   C3B19161   6.894  43.934   7.909
 1336POPC   C4B19162   6.892  43.966   7.443
 1337POPC   NC319163  34.179   4.407   9.486
 1337POPC   PO419164  33.535   4.089   9.552
 1337POPC   GL119165  33.592   4.096   9.117
 1337POPC   GL219166  33.792   4.389   9.139
 1337POPC   C1A19167  33.786   4.096   8.724
 1337POPC   D2A19168  33.752   4.306   8.340
 1337POPC   C3A19169  33.850   4.078   7.966
 1337POPC   C4A19170  33.690   4.039   7.523
 1337POPC   C1B19171  34.118   4.515   8.850
 1337POPC   C2B19172  34.191   4.554   8.422
 1337POPC   C3B19173  34.078   4.556   7.993
 1337POPC   C4B19174  34.138   4.310   7.617
 1338POPC   NC319175  34.341  41.350   9.474
 1338POPC   PO419176  34.906  41.726   9.436
 1338POPC   GL119177  34.703  41.619   9.080
 1338POPC   GL219178  34.803  41.280   9.097
 1338POPC   C1A19179  34.570  41.711   8.641
 1338POPC   D2A19180  34.409  41.846   8.236
 1338POPC   C3A19181  34.701  41.743   7.926
 1338POPC   C4A19182  34.927  41.401   7.823
 1338POPC   C1B19183  34.440  41.246   8.820
 1338POPC   C2B19184  34.249  41.212   8.429
 1338POPC   C3B19185  34.423  41.317   8.059
 1338POPC   C4B19186  34.295  41.103   7.689
 1339POPC   NC319187  18.189  35.628   9.478
 1339POPC   PO419188  18.728  35.203   9.552
 1339POPC   GL119189  18.594  35.308   9.156
 1339POPC   GL219190  18.267  35.150   9.200
 1339POPC   C1A19191  18.320  35.501   8.822
 1339POPC   D2A19192  18.055  35.491   8.447
 1339POPC   C3A19193  18.357  35.409   8.122
 1339POPC   C4A19194  18.540  35.247   7.745
 1339POPC   C1B19195  17.969  35.090   8.824
 1339POPC   C2B19196  17.894  34.998   8.382
 1339POPC   C3B19197  18.097  34.986   7.947
 1339POPC   C4B19198  18.106  35.055   7.491
 1340POPC   NC319199  12.969  20.902   9.485
 1340POPC   PO419200  12.770  21.544   9.434
 1340POPC   GL119201  13.037  21.473   9.143
 1340POPC   GL219202  12.973  21.146   9.036
 1340POPC   C1A19203  13.211  21.619   8.792
 1340POPC   D2A19204  13.117  21.711   8.367
 1340POPC   C3A19205  13.257  21.397   8.082
 1340POPC   C4A19206  13.216  21.614   7.714
 1340POPC   C1B19207  12.745  21.393   8.723
 1340POPC   C2B19208  12.784  21.307   8.299
 1340POPC   C3B19209  12.743  21.561   7.922
 1340POPC   C4B19210  12.434  21.567   7.582
 1341POPC   NC319211   5.808  16.060   9.631
 1341POPC   PO419212   6.357  15.722   9.468
 1341POPC   GL119213   6.080  15.994   9.201
 1341POPC   GL219214   5.715  15.953   9.078
 1341POPC   C1A19215   6.080  16.237   8.831
 1341POPC   D2A19216   6.199  16.092   8.417
 1341POPC   C3A19217   5.875  16.028   8.119
 1341POPC   C4A19218   5.867  16.036   7.672
 1341POPC   C1B19219   5.774  15.807   8.629
 1341POPC   C2B19220   5.624  15.583   8.227
 1341POPC   C3B19221   5.778  15.514   7.774
 1341POPC   C4B19222   5.914  15.663   7.336
 1342POPC   NC319223  35.559  10.063   9.416
 1342POPC   PO419224  35.108   9.559   9.449
 1342POPC   GL119225  35.368   9.716   9.125
 1342POPC   GL219226  35.149  10.019   9.034
 1342POPC   C1A19227  35.576   9.935   8.746
 1342POPC   D2A19228  35.579  10.128   8.321
 1342POPC   C3A19229  35.347   9.890   8.032
 1342POPC   C4A19230  35.502   9.690   7.662
 1342POPC   C1B19231  35.028   9.678   8.767
 1342POPC   C2B19232  35.008   9.610   8.367
 1342POPC   C3B19233  34.902   9.372   8.051
 1342POPC   C4B19234  35.059   9.421   7.634
 1343POPC   NC319235  18.890  29.186   9.503
 1343POPC   PO419236  19.514  29.476   9.388
 1343POPC   GL119237  19.200  29.341   9.098
 1343POPC   GL219238  19.113  29.020   9.060
 1343POPC   C1A19239  19.076  29.329   8.662
 1343POPC   D2A19240  19.258  29.286   8.267
 1343POPC   C3A19241  19.082  29.342   7.855
 1343POPC   C4A19242  19.249  29.351   7.422
 1343POPC   C1B19243  18.854  28.806   8.751
 1343POPC   C2B19244  18.910  28.628   8.326
 1343POPC   C3B19245  19.138  28.842   7.981
 1343POPC   C4B19246  18.952  28.942   7.544
 1344POPC   NC319247  12.268  26.323   9.463
 1344POPC   PO419248  11.876  25.758   9.632
 1344POPC   GL119249  12.018  25.889   9.186
 1344POPC   GL219250  12.041  26.205   9.022
 1344POPC   C1A19251  12.148  25.735   8.772
 1344POPC   D2A19252  12.044  25.733   8.354
 1344POPC   C3A19253  12.001  26.068   8.057
 1344POPC   C4A19254  12.076  25.942   7.656
 1344POPC   C1B19255  12.038  26.229   8.554
 1344POPC   C2B19256  12.389  26.342   8.224
 1344POPC   C3B19257  12.436  26.325   7.756
 1344POPC   C4B19258  12.161  26.358   7.396
 1345POPC   NC319259  23.958  10.016   9.900
 1345POPC   PO419260  23.286   9.941   9.614
 1345POPC   GL119261  23.477   9.810   9.221
 1345POPC   GL219262  23.650   9.480   9.131
 1345POPC   C1A19263  23.608   9.892   8.800
 1345POPC   D2A19264  23.507   9.786   8.376
 1345POPC   C3A19265  23.841   9.919   8.098
 1345POPC   C4A19266  23.711  10.018   7.685
 1345POPC   C1B19267  23.503   9.365   8.706
 1345POPC   C2B19268  23.549   9.283   8.260
 1345POPC   C3B19269  23.574   9.549   7.892
 1345POPC   C4B19270  23.293   9.572   7.563
 1346POPC   NC319271  26.791  13.352   9.457
 1346POPC   PO419272  27.130  13.800   9.816
 1346POPC   GL119273  26.926  13.850   9.350
 1346POPC   GL219274  27.122  13.635   9.116
 1346POPC   C1A19275  26.701  13.847   8.902
 1346POPC   D2A19276  26.547  13.933   8.448
 1346POPC   C3A19277  26.859  13.918   8.126
 1346POPC   C4A19278  26.953  13.845   7.713
 1346POPC   C1B19279  26.929  13.408   8.765
 1346POPC   C2B19280  26.754  13.481   8.372
 1346POPC   C3B19281  26.681  13.399   7.941
 1346POPC   C4B19282  26.829  13.078   7.660
 1347POPC   NC319283  33.302  42.919   9.483
 1347POPC   PO419284  32.750  43.141   9.666
 1347POPC   GL119285  32.849  42.982   9.244
 1347POPC   GL219286  32.686  42.679   9.184
 1347POPC   C1A19287  33.012  43.158   8.854
 1347POPC   D2A19288  33.054  43.387   8.483
 1347POPC   C3A19289  33.206  43.228   8.099
 1347POPC   C4A19290  33.078  43.205   7.689
 1347POPC   C1B19291  32.878  42.677   8.757
 1347POPC   C2B19292  32.899  42.872   8.319
 1347POPC   C3B19293  32.823  42.772   7.845
 1347POPC   C4B19294  32.821  42.887   7.365
 1348POPC   NC319295  40.268  16.941   9.289
 1348POPC   PO419296  39.691  17.258   9.574
 1348POPC   GL119297  39.735  16.920   9.175
 1348POPC   GL219298  39.640  16.560   9.145
 1348POPC   C1A19299  40.024  16.670   8.801
 1348POPC   D2A19300  40.266  16.918   8.535
 1348POPC   C3A19301  40.237  16.958   8.091
 1348POPC   C4A19302  40.302  16.609   7.845
 1348POPC   C1B19303  39.565  16.737   8.685
 1348POPC   C2B19304  39.852  16.675   8.285
 1348POPC   C3B19305  39.794  16.606   7.833
 1348POPC   C4B19306  39.782  16.383   7.414
 1349POPC   NC319307  23.341  44.979   9.325
 1349POPC   PO419308  22.647  44.748   9.333
 1349POPC   GL119309  22.882  44.499   9.105
 1349POPC   GL219310  23.043  44.777   8.983
 1349POPC   C1A19311  22.786  44.474   8.685
 1349POPC   D2A19312  22.977  44.567   8.318
 1349POPC   C3A19313  22.780  44.707   7.957
 1349POPC   C4A19314  22.932  44.462   7.656
 1349POPC   C1B19315  23.325  44.713   8.684
 1349POPC   C2B19316  23.368  44.917   8.306
 1349POPC   C3B19317  23.441  44.807   7.893
 1349POPC   C4B19318  23.330  44.738   7.484
 1350POPC   NC319319  24.417   0.480   9.526
 1350POPC   PO419320  23.806   0.716   9.606
 1350POPC   GL119321  24.179   0.853   9.225
 1350POPC   GL219322  24.555   0.698   9.105
 1350POPC   C1A19323  24.289   0.870   8.738
 1350POPC   D2A19324  24.335   0.550   8.429
 1350POPC   C3A19325  24.158   0.563   8.003
 1350POPC   C4A19326  24.196   0.205   7.691
 1350POPC   C1B19327  24.736   0.409   8.816
 1350POPC   C2B19328  24.830   0.343   8.397
 1350POPC   C3B19329  24.669   0.519   8.032
 1350POPC   C4B19330  24.760   0.373   7.658
 1351POPC   NC319331  26.502  26.121   9.335
 1351POPC   PO419332  27.152  25.832   9.449
 1351POPC   GL119333  26.868  25.759   9.094
 1351POPC   GL219334  26.891  26.112   8.989
 1351POPC   C1A19335  26.788  25.753   8.652
 1351POPC   D2A19336  26.986  25.957   8.315
 1351POPC   C3A19337  27.208  25.712   8.011
 1351POPC   C4A19338  26.995  25.753   7.635
 1351POPC   C1B19339  26.525  26.191   8.701
 1351POPC   C2B19340  26.479  26.316   8.302
 1351POPC   C3B19341  26.659  26.150   7.966
 1351POPC   C4B19342  26.636  26.130   7.572
 1352POPC   NC319343  22.254  26.132   9.567
 1352POPC   PO419344  22.240  25.492   9.428
 1352POPC   GL119345  22.285  25.798   9.019
 1352POPC   GL219346  22.340  26.140   9.063
 1352POPC   C1A19347  22.192  26.084   8.585
 1352POPC   D2A19348  22.017  26.323   8.189
 1352POPC   C3A19349  21.995  26.104   7.758
 1352POPC   C4A19350  22.022  25.970   7.295
 1352POPC   C1B19351  22.590  26.359   8.751
 1352POPC   C2B19352  22.511  26.383   8.295
 1352POPC   C3B19353  22.468  26.105   7.958
 1352POPC   C4B19354  22.441  26.187   7.504
 1353POPC   NC319355  30.686  29.168   9.463
 1353POPC   PO419356  31.150  28.668   9.240
 1353POPC   GL119357  30.880  28.995   9.007
 1353POPC   GL219358  30.564  29.246   8.994
 1353POPC   C1A19359  30.901  29.234   8.616
 1353POPC   D2A19360  31.136  29.230   8.269
 1353POPC   C3A19361  30.975  29.092   7.877
 1353POPC   C4A19362  31.177  29.163   7.467
 1353POPC   C1B19363  30.462  28.948   8.679
 1353POPC   C2B19364  30.610  28.989   8.258
 1353POPC   C3B19365  30.486  29.269   7.915
 1353POPC   C4B19366  30.604  29.123   7.522
 1354POPC   NC319367  35.722   0.998   9.959
 1354POPC   PO419368  35.374   1.368   9.457
 1354POPC   GL119369  35.508   1.272   9.043
 1354POPC   GL219370  35.826   1.438   9.137
 1354POPC   C1A19371  35.452   1.109   8.646
 1354POPC   D2A19372  35.196   1.283   8.333
 1354POPC   C3A19373  35.153   1.072   7.942
 1354POPC   C4A19374  35.282   1.253   7.575
 1354POPC   C1B19375  35.759   1.535   8.695
 1354POPC   C2B19376  35.847   1.386   8.288
 1354POPC   C3B19377  35.741   1.340   7.841
 1354POPC   C4B19378  35.734   1.370   7.362
 1355POPC   NC319379  13.549  18.611   9.395
 1355POPC   PO419380  14.075  19.037   9.598
 1355POPC   GL119381  13.877  18.945   9.189
 1355POPC   GL219382  13.527  19.087   9.163
 1355POPC   C1A19383  13.776  18.912   8.759
 1355POPC   D2A19384  13.635  19.049   8.385
 1355POPC   C3A19385  13.758  18.880   8.018
 1355POPC   C4A19386  13.787  19.119   7.656
 1355POPC   C1B19387  13.413  19.324   8.788
 1355POPC   C2B19388  13.269  19.387   8.371
 1355POPC   C3B19389  13.490  19.415   7.991
 1355POPC   C4B19390  13.386  19.390   7.541
 1356POPC   NC319391  34.216  30.567   9.289
 1356POPC   PO419392  34.866  30.652   9.492
 1356POPC   GL119393  34.651  30.763   9.143
 1356POPC   GL219394  34.673  30.422   9.086
 1356POPC   C1A19395  34.484  30.732   8.715
 1356POPC   D2A19396  34.616  30.990   8.394
 1356POPC   C3A19397  34.431  31.002   7.972
 1356POPC   C4A19398  34.579  30.842   7.546
 1356POPC   C1B19399  34.827  30.287   8.729
 1356POPC   C2B19400  34.581  30.356   8.357
 1356POPC   C3B19401  34.630  30.531   7.967
 1356POPC   C4B19402  34.568  30.349   7.570
 1357POPC   NC319403   3.282  40.024   9.730
 1357POPC   PO419404   2.800  39.642   9.549
 1357POPC   GL119405   2.666  39.766   9.115
 1357POPC   GL219406   2.765  40.119   9.061
 1357POPC   C1A19407   2.720  39.865   8.648
 1357POPC   D2A19408   2.909  40.017   8.294
 1357POPC   C3A19409   2.831  39.749   7.952
 1357POPC   C4A19410   2.677  39.861   7.552
 1357POPC   C1B19411   2.456  40.293   8.733
 1357POPC   C2B19412   2.378  40.101   8.307
 1357POPC   C3B19413   2.576  40.212   7.918
 1357POPC   C4B19414   2.523  40.560   7.640
 1358POPC   NC319415  24.208  37.773   9.819
 1358POPC   PO419416  24.440  37.247   9.540
 1358POPC   GL119417  24.643  37.310   9.112
 1358POPC   GL219418  24.400  37.534   9.011
 1358POPC   C1A19419  24.777  37.414   8.673
 1358POPC   D2A19420  24.815  37.730   8.348
 1358POPC   C3A19421  24.683  37.599   7.953
 1358POPC   C4A19422  24.372  37.689   7.652
 1358POPC   C1B19423  24.328  37.650   8.563
 1358POPC   C2B19424  24.189  37.723   8.136
 1358POPC   C3B19425  23.886  37.696   7.778
 1358POPC   C4B19426  23.965  37.782   7.327
 1359POPC   NC319427  37.723  40.521   9.871
 1359POPC   PO419428  37.560  41.019   9.385
 1359POPC   GL119429  37.690  40.849   8.965
 1359POPC   GL219430  37.566  40.476   8.933
 1359POPC   C1A19431  37.791  40.723   8.549
 1359POPC   D2A19432  37.947  40.727   8.151
 1359POPC   C3A19433  37.683  40.972   7.921
 1359POPC   C4A19434  38.002  41.061   7.659
 1359POPC   C1B19435  37.419  40.352   8.574
 1359POPC   C2B19436  37.408  40.605   8.218
 1359POPC   C3B19437  37.534  40.479   7.831
 1359POPC   C4B19438  37.341  40.327   7.444
 1360POPC   NC319439  28.607  28.777   9.460
 1360POPC   PO419440  28.047  28.385   9.500
 1360POPC   GL119441  28.294  28.362   9.164
 1360POPC   GL219442  28.500  28.122   9.121
 1360POPC   C1A19443  28.361  28.530   8.775
 1360POPC   D2A19444  28.318  28.647   8.376
 1360POPC   C3A19445  28.585  28.552   8.101
 1360POPC   C4A19446  28.339  28.514   7.758
 1360POPC   C1B19447  28.326  28.011   8.739
 1360POPC   C2B19448  28.382  28.138   8.320
 1360POPC   C3B19449  28.057  28.160   8.012
 1360POPC   C4B19450  27.745  28.026   7.725
 1361POPC   NC319451  17.061  20.860   9.293
 1361POPC   PO419452  17.149  20.233   9.530
 1361POPC   GL119453  17.367  20.434   9.161
 1361POPC   GL219454  17.684  20.254   9.090
 1361POPC   C1A19455  17.328  20.665   8.733
 1361POPC   D2A19456  17.267  20.913   8.357
 1361POPC   C3A19457  17.466  20.807   7.980
 1361POPC   C4A19458  17.265  20.699   7.609
 1361POPC   C1B19459  17.458  20.173   8.717
 1361POPC   C2B19460  17.479  20.375   8.307
 1361POPC   C3B19461  17.241  20.296   7.943
 1361POPC   C4B19462  17.377  20.180   7.549
 1362POPC   NC319463  22.488   0.283   9.338
 1362POPC   PO419464  23.100   0.601   9.572
 1362POPC   GL119465  22.937   0.661   9.143
 1362POPC   GL219466  22.977   0.295   9.115
 1362POPC   C1A19467  22.821   0.546   8.689
 1362POPC   D2A19468  22.613   0.749   8.319
 1362POPC   C3A19469  22.878   0.621   7.956
 1362POPC   C4A19470  22.734   0.354   7.619
 1362POPC   C1B19471  23.234   0.237   8.732
 1362POPC   C2B19472  23.159   0.400   8.327
 1362POPC   C3B19473  23.082   0.160   7.948
 1362POPC   C4B19474  23.255   0.255   7.564
 1363POPC   NC319475  16.616  12.393   9.703
 1363POPC   PO419476  16.739  11.844   9.813
 1363POPC   GL119477  16.690  11.991   9.339
 1363POPC   GL219478  16.807  11.696   9.157
 1363POPC   C1A19479  16.591  12.031   8.831
 1363POPC   D2A19480  16.588  12.179   8.365
 1363POPC   C3A19481  16.544  12.097   7.901
 1363POPC   C4A19482  16.840  12.032   7.547
 1363POPC   C1B19483  17.037  11.707   8.756
 1363POPC   C2B19484  17.076  11.987   8.404
 1363POPC   C3B19485  17.022  11.872   7.995
 1363POPC   C4B19486  16.980  11.541   7.737
 1364POPC   NC319487  28.676  30.316   9.660
 1364POPC   PO419488  29.206  29.903   9.497
 1364POPC   GL119489  29.215  29.878   9.076
 1364POPC   GL219490  29.106  30.205   9.098
 1364POPC   C1A19491  29.062  29.927   8.638
 1364POPC   D2A19492  28.765  29.705   8.356
 1364POPC   C3A19493  28.794  29.818   7.921
 1364POPC   C4A19494  29.221  29.758   7.782
 1364POPC   C1B19495  28.977  30.473   8.798
 1364POPC   C2B19496  29.149  30.398   8.441
 1364POPC   C3B19497  29.151  30.133   8.130
 1364POPC   C4B19498  29.044  30.245   7.722
 1365POPC   NC319499   7.718  24.161   9.493
 1365POPC   PO419500   7.208  24.576   9.361
 1365POPC   GL119501   7.568  24.517   9.108
 1365POPC   GL219502   7.452  24.176   9.056
 1365POPC   C1A19503   7.597  24.801   8.738
 1365POPC   D2A19504   7.208  24.871   8.498
 1365POPC   C3A19505   7.246  24.761   8.057
 1365POPC   C4A19506   7.695  24.755   7.961
 1365POPC   C1B19507   7.285  24.376   8.685
 1365POPC   C2B19508   7.553  24.449   8.347
 1365POPC   C3B19509   7.580  24.258   7.950
 1365POPC   C4B19510   7.165  24.220   7.836
 1366POPC   NC319511  15.885  22.023   9.681
 1366POPC   PO419512  16.158  22.609   9.536
 1366POPC   GL119513  15.955  22.286   9.220
 1366POPC   GL219514  16.137  21.922   9.214
 1366POPC   C1A19515  15.923  22.077   8.788
 1366POPC   D2A19516  15.778  22.109   8.359
 1366POPC   C3A19517  15.932  22.022   7.936
 1366POPC   C4A19518  16.010  22.403   7.708
 1366POPC   C1B19519  16.372  21.825   8.803
 1366POPC   C2B19520  16.283  21.972   8.372
 1366POPC   C3B19521  16.434  22.056   7.915
 1366POPC   C4B19522  16.234  22.009   7.484
 1367POPC   NC319523  34.880  10.793   9.429
 1367POPC   PO419524  34.480  10.336   9.492
 1367POPC   GL119525  34.624  10.416   9.118
 1367POPC   GL219526  34.569  10.776   9.027
 1367POPC   C1A19527  34.365  10.415   8.716
 1367POPC   D2A19528  34.271  10.564   8.303
 1367POPC   C3A19529  34.405  10.308   7.985
 1367POPC   C4A19530  34.655  10.453   7.688
 1367POPC   C1B19531  34.573  10.882   8.583
 1367POPC   C2B19532  34.784  10.652   8.254
 1367POPC   C3B19533  34.997  10.767   7.861
 1367POPC   C4B19534  34.754  10.953   7.564
 1368POPC   NC319535  37.272  27.124   9.583
 1368POPC   PO419536  36.912  27.704   9.464
 1368POPC   GL119537  36.971  27.577   9.085
 1368POPC   GL219538  36.992  27.278   9.161
 1368POPC   C1A19539  36.976  27.725   8.684
 1368POPC   D2A19540  37.091  28.018   8.391
 1368POPC   C3A19541  37.077  27.777   8.036
 1368POPC   C4A19542  36.768  27.700   7.755
 1368POPC   C1B19543  36.806  27.204   8.770
 1368POPC   C2B19544  36.974  27.303   8.368
 1368POPC   C3B19545  36.833  27.236   7.970
 1368POPC   C4B19546  36.455  27.280   7.756
 1369POPC   NC319547  11.841  42.869   9.213
 1369POPC   PO419548  12.355  42.494   9.480
 1369POPC   GL119549  12.170  42.492   9.067
 1369POPC   GL219550  11.823  42.395   9.040
 1369POPC   C1A19551  12.027  42.599   8.644
 1369POPC   D2A19552  11.940  42.366   8.286
 1369POPC   C3A19553  12.233  42.277   7.965
 1369POPC   C4A19554  12.317  42.610   7.661
 1369POPC   C1B19555  11.574  42.325   8.679
 1369POPC   C2B19556  11.480  42.036   8.378
 1369POPC   C3B19557  11.661  42.060   8.000
 1369POPC   C4B19558  11.802  42.446   7.784
 1370POPC   NC319559  16.289  37.366   9.207
 1370POPC   PO419560  15.809  37.741   9.613
 1370POPC   GL119561  15.941  37.759   9.163
 1370POPC   GL219562  15.789  37.435   9.042
 1370POPC   C1A19563  16.076  37.729   8.701
 1370POPC   D2A19564  16.256  37.992   8.348
 1370POPC   C3A19565  16.054  37.923   7.925
 1370POPC   C4A19566  15.984  37.486   7.763
 1370POPC   C1B19567  15.593  37.412   8.617
 1370POPC   C2B19568  15.558  37.365   8.174
 1370POPC   C3B19569  15.496  37.276   7.746
 1370POPC   C4B19570  15.721  37.445   7.327
 1371POPC   NC319571  42.456   9.524   9.730
 1371POPC   PO419572  42.514  10.076   9.353
 1371POPC   GL119573  42.368   9.755   9.076
 1371POPC   GL219574  42.464   9.408   9.190
 1371POPC   C1A19575  42.533   9.618   8.647
 1371POPC   D2A19576  42.533   9.867   8.272
 1371POPC   C3A19577  42.365   9.938   7.859
 1371POPC   C4A19578  42.626   9.634   7.700
 1371POPC   C1B19579  42.153   9.362   8.854
 1371POPC   C2B19580  42.079   9.433   8.450
 1371POPC   C3B19581  42.281   9.450   8.040
 1371POPC   C4B19582  42.158   9.513   7.594
 1372POPC   NC319583  30.754  22.569   9.410
 1372POPC   PO419584  30.925  21.884   9.418
 1372POPC   GL119585  30.664  22.062   9.136
 1372POPC   GL219586  30.968  22.263   9.053
 1372POPC   C1A19587  30.548  22.242   8.749
 1372POPC   D2A19588  30.688  22.227   8.342
 1372POPC   C3A19589  30.369  22.214   8.056
 1372POPC   C4A19590  30.625  22.211   7.716
 1372POPC   C1B19591  31.051  22.416   8.657
 1372POPC   C2B19592  30.974  22.680   8.322
 1372POPC   C3B19593  30.972  22.555   7.897
 1372POPC   C4B19594  31.020  22.734   7.513
 1373POPC   NC319595   0.730  16.336   9.592
 1373POPC   PO419596   0.410  15.695   9.495
 1373POPC   GL119597   0.645  15.932   9.206
 1373POPC   GL219598   0.455  16.228   9.159
 1373POPC   C1A19599   0.643  15.945   8.760
 1373POPC   D2A19600   0.238  15.936   8.530
 1373POPC   C3A19601   0.305  15.839   8.116
 1373POPC   C4A19602   0.091  15.737   7.755
 1373POPC   C1B19603   0.506  16.442   8.756
 1373POPC   C2B19604   0.521  16.323   8.303
 1373POPC   C3B19605   0.454  16.257   7.845
 1373POPC   C4B19606   0.717  16.086   7.492
 1374POPC   NC319607  31.784  12.336   9.360
 1374POPC   PO419608  31.138  12.106   9.411
 1374POPC   GL119609  31.375  12.133   9.086
 1374POPC   GL219610  31.631  11.862   9.140
 1374POPC   C1A19611  31.324  12.326   8.684
 1374POPC   D2A19612  31.173  12.142   8.329
 1374POPC   C3A19613  31.359  12.148   7.921
 1374POPC   C4A19614  31.140  12.148   7.534
 1374POPC   C1B19615  31.534  11.854   8.688
 1374POPC   C2B19616  31.688  12.126   8.350
 1374POPC   C3B19617  31.848  11.971   7.986
 1374POPC   C4B19618  31.717  11.644   7.810
 1375POPC   NC319619  16.979  29.854   9.590
 1375POPC   PO419620  16.296  29.779   9.497
 1375POPC   GL119621  16.615  29.930   9.197
 1375POPC   GL219622  16.953  29.854   9.093
 1375POPC   C1A19623  16.595  29.869   8.744
 1375POPC   D2A19624  16.671  30.104   8.382
 1375POPC   C3A19625  16.668  29.889   8.018
 1375POPC   C4A19626  16.652  30.034   7.596
 1375POPC   C1B19627  16.941  29.498   8.839
 1375POPC   C2B19628  16.748  29.495   8.414
 1375POPC   C3B19629  16.955  29.449   8.013
 1375POPC   C4B19630  17.081  29.777   7.712
 1376POPC   NC319631  24.865  35.971   9.560
 1376POPC   PO419632  25.475  36.135   9.442
 1376POPC   GL119633  25.170  36.039   9.098
 1376POPC   GL219634  24.828  35.922   9.013
 1376POPC   C1A19635  25.150  36.230   8.691
 1376POPC   D2A19636  25.423  36.340   8.350
 1376POPC   C3A19637  25.156  36.209   8.114
 1376POPC   C4A19638  25.070  36.317   7.733
 1376POPC   C1B19639  25.109  35.713   8.715
 1376POPC   C2B19640  25.205  35.693   8.273
 1376POPC   C3B19641  25.134  35.762   7.845
 1376POPC   C4B19642  24.842  35.862   7.554
 1377POPC   NC319643   6.305  22.034   9.490
 1377POPC   PO419644   6.657  22.670   9.475
 1377POPC   GL119645   6.578  22.416   9.107
 1377POPC   GL219646   6.528  22.060   9.056
 1377POPC   C1A19647   6.758  22.348   8.709
 1377POPC   D2A19648   6.962  22.236   8.334
 1377POPC   C3A19649   6.673  22.142   8.074
 1377POPC   C4A19650   6.639  22.205   7.684
 1377POPC   C1B19651   6.222  21.821   8.814
 1377POPC   C2B19652   6.353  21.914   8.421
 1377POPC   C3B19653   6.362  21.705   8.076
 1377POPC   C4B19654   6.317  21.824   7.629
 1378POPC   NC319655  37.286  31.268   9.541
 1378POPC   PO419656  37.894  31.570   9.492
 1378POPC   GL119657  37.835  31.254   9.164
 1378POPC   GL219658  37.497  31.206   9.102
 1378POPC   C1A19659  37.812  31.246   8.712
 1378POPC   D2A19660  37.990  31.515   8.433
 1378POPC   C3A19661  37.927  31.622   8.041
 1378POPC   C4A19662  37.882  31.291   7.712
 1378POPC   C1B19663  37.464  31.605   8.899
 1378POPC   C2B19664  37.474  31.615   8.462
 1378POPC   C3B19665  37.528  31.332   8.119
 1378POPC   C4B19666  37.481  31.621   7.770
 1379POPC   NC319667   8.054  19.429  10.011
 1379POPC   PO419668   8.607  19.436   9.546
 1379POPC   GL119669   8.566  19.201   9.155
 1379POPC   GL219670   8.475  18.845   9.126
 1379POPC   C1A19671   8.271  19.208   8.781
 1379POPC   D2A19672   8.174  19.476   8.417
 1379POPC   C3A19673   8.398  19.437   8.017
 1379POPC   C4A19674   8.284  19.326   7.596
 1379POPC   C1B19675   8.202  18.721   8.756
 1379POPC   C2B19676   8.071  18.929   8.327
 1379POPC   C3B19677   7.988  18.981   7.834
 1379POPC   C4B19678   7.900  18.840   7.365
 1380POPC   NC319679  24.727  14.963   9.449
 1380POPC   PO419680  24.541  15.677   9.352
 1380POPC   GL119681  24.491  15.320   9.184
 1380POPC   GL219682  24.810  15.327   9.057
 1380POPC   C1A19683  24.385  15.116   8.808
 1380POPC   D2A19684  24.382  15.311   8.424
 1380POPC   C3A19685  24.249  15.034   8.115
 1380POPC   C4A19686  24.332  15.097   7.693
 1380POPC   C1B19687  24.875  15.042   8.717
 1380POPC   C2B19688  24.708  14.907   8.350
 1380POPC   C3B19689  24.724  15.192   8.011
 1380POPC   C4B19690  24.716  15.431   7.622
 1381POPC   NC319691   6.470  12.700   9.599
 1381POPC   PO419692   6.961  13.118   9.535
 1381POPC   GL119693   6.690  12.986   9.191
 1381POPC   GL219694   6.784  12.645   9.161
 1381POPC   C1A19695   6.544  12.992   8.737
 1381POPC   D2A19696   6.737  12.823   8.327
 1381POPC   C3A19697   6.679  12.969   7.893
 1381POPC   C4A19698   6.413  13.139   7.551
 1381POPC   C1B19699   6.691  12.504   8.746
 1381POPC   C2B19700   6.497  12.357   8.367
 1381POPC   C3B19701   6.519  12.490   7.917
 1381POPC   C4B19702   6.898  12.520   7.660
 1382POPC   NC319703  44.766  39.854   9.626
 1382POPC   PO419704  44.240  39.957   9.474
 1382POPC   GL119705  44.598  39.968   9.134
 1382POPC   GL219706  44.860  39.706   9.142
 1382POPC   C1A19707  44.640  40.209   8.713
 1382POPC   D2A19708  44.683  40.306   8.250
 1382POPC   C3A19709  44.516  40.024   7.923
 1382POPC   C4A19710  44.205  39.979   7.594
 1382POPC   C1B19711  44.954  39.820   8.712
 1382POPC   C2B19712  44.749  39.775   8.311
 1382POPC   C3B19713  44.930  39.741   7.891
 1382POPC   C4B19714   0.131  39.784   7.493
 1383POPC   NC319715  22.200   6.171   9.510
 1383POPC   PO419716  22.098   5.552   9.510
 1383POPC   GL119717  22.191   5.775   9.148
 1383POPC   GL219718  21.851   5.916   9.152
 1383POPC   C1A19719  22.178   5.600   8.726
 1383POPC   D2A19720  21.883   5.697   8.387
 1383POPC   C3A19721  22.069   5.710   7.977
 1383POPC   C4A19722  22.469   5.725   7.750
 1383POPC   C1B19723  22.013   6.068   8.756
 1383POPC   C2B19724  22.203   6.122   8.382
 1383POPC   C3B19725  22.146   6.222   8.003
 1383POPC   C4B19726  22.181   6.100   7.598
 1384POPC   NC319727  34.995  25.818   9.410
 1384POPC   PO419728  35.335  26.336   9.569
 1384POPC   GL119729  35.424  26.185   9.117
 1384POPC   GL219730  35.076  26.163   9.026
 1384POPC   C1A19731  35.410  26.124   8.618
 1384POPC   D2A19732  35.653  25.860   8.304
 1384POPC   C3A19733  35.635  25.913   7.837
 1384POPC   C4A19734  35.778  26.106   7.463
 1384POPC   C1B19735  35.038  25.790   8.763
 1384POPC   C2B19736  35.136  25.756   8.330
 1384POPC   C3B19737  35.154  26.046   7.968
 1384POPC   C4B19738  35.269  26.203   7.532
 1385POPC   NC319739  34.101  21.621   9.385
 1385POPC   PO419740  34.466  21.921   9.810
 1385POPC   GL119741  34.631  21.741   9.316
 1385POPC   GL219742  34.613  21.379   9.288
 1385POPC   C1A19743  34.499  21.600   8.847
 1385POPC   D2A19744  34.531  21.278   8.511
 1385POPC   C3A19745  34.417  21.357   8.070
 1385POPC   C4A19746  34.333  21.601   7.684
 1385POPC   C1B19747  34.880  21.238   8.922
 1385POPC   C2B19748  35.045  21.301   8.524
 1385POPC   C3B19749  34.911  21.415   8.123
 1385POPC   C4B19750  35.058  21.231   7.764
 1386POPC   NC319751  34.736  27.610   9.563
 1386POPC   PO419752  34.041  27.643   9.737
 1386POPC   GL119753  34.255  27.731   9.263
 1386POPC   GL219754  34.630  27.772   9.097
 1386POPC   C1A19755  34.302  27.518   8.824
 1386POPC   D2A19756  34.577  27.278   8.570
 1386POPC   C3A19757  34.545  27.410   8.138
 1386POPC   C4A19758  34.439  27.163   7.764
 1386POPC   C1B19759  34.677  27.820   8.645
 1386POPC   C2B19760  34.342  27.862   8.383
 1386POPC   C3B19761  34.188  27.865   7.971
 1386POPC   C4B19762  34.479  27.675   7.718
 1387POPC   NC319763  15.770  32.114   9.616
 1387POPC   PO419764  15.109  32.167   9.465
 1387POPC   GL119765  15.077  32.388   9.107
 1387POPC   GL219766  15.369  32.241   8.935
 1387POPC   C1A19767  14.894  32.546   8.761
 1387POPC   D2A19768  15.109  32.346   8.464
 1387POPC   C3A19769  15.056  32.447   8.061
 1387POPC   C4A19770  15.436  32.513   7.840
 1387POPC   C1B19771  15.216  31.880   8.673
 1387POPC   C2B19772  15.115  31.886   8.229
 1387POPC   C3B19773  15.259  32.019   7.843
 1387POPC   C4B19774  15.150  31.911   7.427
 1388POPC   NC319775  32.786   6.303   9.383
 1388POPC   PO419776  33.352   6.689   9.518
 1388POPC   GL119777  33.225   6.456   9.172
 1388POPC   GL219778  32.937   6.690   9.085
 1388POPC   C1A19779  33.305   6.518   8.738
 1388POPC   D2A19780  33.489   6.816   8.455
 1388POPC   C3A19781  33.391   6.678   8.030
 1388POPC   C4A19782  33.130   6.928   7.739
 1388POPC   C1B19783  32.797   6.525   8.690
 1388POPC   C2B19784  32.944   6.709   8.311
 1388POPC   C3B19785  32.711   6.726   7.943
 1388POPC   C4B19786  32.502   6.434   7.744
 1389POPC   NC319787   2.385  43.553   9.824
 1389POPC   PO419788   1.930  43.944   9.484
 1389POPC   GL119789   1.920  44.057   9.081
 1389POPC   GL219790   1.621  43.912   9.076
 1389POPC   C1A19791   1.713  44.202   8.682
 1389POPC   D2A19792   1.827  44.473   8.377
 1389POPC   C3A19793   1.779  44.251   7.994
 1389POPC   C4A19794   1.859  44.134   7.573
 1389POPC   C1B19795   1.862  43.689   8.743
 1389POPC   C2B19796   2.036  43.532   8.354
 1389POPC   C3B19797   1.891  43.740   7.982
 1389POPC   C4B19798   1.633  43.690   7.621
 1390POPC   NC319799  36.108  41.147   9.447
 1390POPC   PO419800  35.823  41.794   9.368
 1390POPC   GL119801  36.078  41.683   9.090
 1390POPC   GL219802  36.405  41.659   9.252
 1390POPC   C1A19803  36.034  41.704   8.666
 1390POPC   D2A19804  36.054  41.416   8.398
 1390POPC   C3A19805  35.922  41.598   8.088
 1390POPC   C4A19806  36.063  41.584   7.692
 1390POPC   C1B19807  36.462  41.478   8.829
 1390POPC   C2B19808  36.526  41.696   8.443
 1390POPC   C3B19809  36.440  41.542   8.041
 1390POPC   C4B19810  36.486  41.331   7.618
 1391POPC   NC319811  11.036  34.908   9.659
 1391POPC   PO419812  11.519  34.409   9.525
 1391POPC   GL119813  11.487  34.630   9.118
 1391POPC   GL219814  11.210  34.822   9.109
 1391POPC   C1A19815  11.287  34.511   8.712
 1391POPC   D2A19816  11.213  34.721   8.339
 1391POPC   C3A19817  11.255  34.508   7.999
 1391POPC   C4A19818  11.601  34.489   7.863
 1391POPC   C1B19819  10.950  34.921   8.715
 1391POPC   C2B19820  10.894  35.107   8.329
 1391POPC   C3B19821  10.945  34.922   7.937
 1391POPC   C4B19822  10.918  34.611   7.624
 1392POPC   NC319823  27.466  11.881   9.600
 1392POPC   PO419824  27.659  12.532   9.488
 1392POPC   GL119825  27.524  12.183   9.186
 1392POPC   GL219826  27.726  11.858   9.176
 1392POPC   C1A19827  27.330  11.989   8.795
 1392POPC   D2A19828  27.176  12.008   8.335
 1392POPC   C3A19829  27.355  12.319   8.026
 1392POPC   C4A19830  27.556  12.280   7.611
 1392POPC   C1B19831  27.832  11.969   8.783
 1392POPC   C2B19832  27.659  11.773   8.420
 1392POPC   C3B19833  27.869  11.692   8.063
 1392POPC   C4B19834  27.901  11.923   7.709
 1393POPC   NC319835  40.334  28.780   9.442
 1393POPC   PO419836  41.024  29.009   9.432
 1393POPC   GL119837  40.707  28.973   9.126
 1393POPC   GL219838  40.672  28.627   9.066
 1393POPC   C1A19839  40.758  28.979   8.678
 1393POPC   D2A19840  40.992  29.215   8.384
 1393POPC   C3A19841  40.777  29.351   8.066
 1393POPC   C4A19842  40.927  28.997   7.870
 1393POPC   C1B19843  40.318  28.711   8.767
 1393POPC   C2B19844  40.354  28.865   8.337
 1393POPC   C3B19845  40.558  28.684   7.965
 1393POPC   C4B19846  40.377  28.569   7.590
 1394POPC   NC319847   6.068  15.347   9.469
 1394POPC   PO419848   5.484  15.741   9.490
 1394POPC   GL119849   5.678  15.444   9.149
 1394POPC   GL219850   6.034  15.517   8.993
 1394POPC   C1A19851   5.726  15.162   8.774
 1394POPC   D2A19852   5.918  15.164   8.368
 1394POPC   C3A19853   5.631  15.083   8.056
 1394POPC   C4A19854   5.735  15.008   7.644
 1394POPC   C1B19855   6.226  15.135   8.789
 1394POPC   C2B19856   6.319  14.856   8.498
 1394POPC   C3B19857   6.291  14.664   8.138
 1394POPC   C4B19858   6.204  14.929   7.809
 1395POPC   NC319859  35.667  40.583   9.562
 1395POPC   PO419860  36.274  40.716   9.549
 1395POPC   GL119861  36.153  40.738   9.137
 1395POPC   GL219862  35.828  40.847   9.109
 1395POPC   C1A19863  36.170  40.570   8.732
 1395POPC   D2A19864  36.523  40.565   8.471
 1395POPC   C3A19865  36.456  40.548   8.053
 1395POPC   C4A19866  36.058  40.631   7.848
 1395POPC   C1B19867  35.983  41.040   8.736
 1395POPC   C2B19868  36.090  40.880   8.311
 1395POPC   C3B19869  36.104  41.136   7.945
 1395POPC   C4B19870  36.011  41.113   7.507
 1396POPC   NC319871  11.414   5.556   9.861
 1396POPC   PO419872  11.364   6.211   9.574
 1396POPC   GL119873  11.265   5.996   9.241
 1396POPC   GL219874  11.289   5.678   9.356
 1396POPC   C1A19875  11.192   6.139   8.849
 1396POPC   D2A19876  11.055   6.068   8.458
 1396POPC   C3A19877  11.418   6.111   8.231
 1396POPC   C4A19878  11.442   6.062   7.815
 1396POPC   C1B19879  11.146   5.619   8.905
 1396POPC   C2B19880  11.347   5.638   8.509
 1396POPC   C3B19881  11.322   5.623   8.056
 1396POPC   C4B19882  11.036   5.739   7.738
 1397POPC   NC319883  42.536  44.586   9.536
 1397POPC   PO419884  41.864  44.449   9.380
 1397POPC   GL119885  42.106  44.613   9.046
 1397POPC   GL219886  42.478  44.600   9.032
 1397POPC   C1A19887  42.149  44.531   8.638
 1397POPC   D2A19888  42.414  44.402   8.333
 1397POPC   C3A19889  42.175  44.488   7.980
 1397POPC   C4A19890  42.247  44.568   7.565
 1397POPC   C1B19891  42.567  44.826   8.650
 1397POPC   C2B19892  42.309  44.904   8.269
 1397POPC   C3B19893  42.474  44.913   7.866
 1397POPC   C4B19894  42.804   0.098   7.657
 1398POPC   NC319895  35.856   4.506   9.349
 1398POPC   PO419896  35.399   4.265   9.821
 1398POPC   GL119897  35.354   4.372   9.318
 1398POPC   GL219898  35.486   4.612   9.028
 1398POPC   C1A19899  35.100   4.292   8.910
 1398POPC   D2A19900  35.164   4.179   8.466
 1398POPC   C3A19901  34.990   4.338   8.057
 1398POPC   C4A19902  35.155   4.173   7.661
 1398POPC   C1B19903  35.626   4.219   8.812
 1398POPC   C2B19904  35.730   4.278   8.406
 1398POPC   C3B19905  35.495   4.245   8.055
 1398POPC   C4B19906  35.671   4.175   7.669
 1399POPC   NC319907   4.944  41.029   9.467
 1399POPC   PO419908   5.282  40.427   9.472
 1399POPC   GL119909   5.123  40.647   9.127
 1399POPC   GL219910   5.271  40.979   9.074
 1399POPC   C1A19911   4.879  40.799   8.788
 1399POPC   D2A19912   5.032  40.931   8.394
 1399POPC   C3A19913   5.106  40.616   8.084
 1399POPC   C4A19914   4.967  40.610   7.666
 1399POPC   C1B19915   5.429  40.804   8.696
 1399POPC   C2B19916   5.536  40.879   8.254
 1399POPC   C3B19917   5.555  40.750   7.819
 1399POPC   C4B19918   5.379  40.716   7.383
 1400POPC   NC319919  23.522  43.577   9.454
 1400POPC   PO419920  23.913  44.116   9.655
 1400POPC   GL119921  23.840  43.943   9.261
 1400POPC   GL219922  24.047  44.174   9.113
 1400POPC   C1A19923  23.728  43.817   8.834
 1400POPC   D2A19924  23.420  43.842   8.517
 1400POPC   C3A19925  23.578  43.911   8.132
 1400POPC   C4A19926  23.473  43.826   7.722
 1400POPC   C1B19927  24.103  44.179   8.676
 1400POPC   C2B19928  23.976  44.275   8.265
 1400POPC   C3B19929  24.112  44.191   7.863
 1400POPC   C4B19930  23.882  44.067   7.510
 1401POPC   NC319931   5.067  17.631   9.591
 1401POPC   PO419932   5.570  17.195   9.478
 1401POPC   GL119933   5.203  17.304   9.236
 1401POPC   GL219934   5.334  17.592   9.119
 1401POPC   C1A19935   5.011  17.276   8.834
 1401POPC   D2A19936   5.109  17.465   8.459
 1401POPC   C3A19937   4.851  17.508   8.106
 1401POPC   C4A19938   5.058  17.238   7.815
 1401POPC   C1B19939   5.326  17.841   8.753
 1401POPC   C2B19940   5.213  17.999   8.341
 1401POPC   C3B19941   5.194  17.884   7.927
 1401POPC   C4B19942   5.473  17.960   7.538
 1402POPC   NC319943  40.627  13.662   9.559
 1402POPC   PO419944  40.329  14.189   9.467
 1402POPC   GL119945  40.469  13.938   9.151
 1402POPC   GL219946  40.381  13.604   9.113
 1402POPC   C1A19947  40.712  13.900   8.759
 1402POPC   D2A19948  40.847  14.219   8.444
 1402POPC   C3A19949  40.759  14.091   8.024
 1402POPC   C4A19950  40.965  13.949   7.641
 1402POPC   C1B19951  40.545  13.407   8.726
 1402POPC   C2B19952  40.580  13.561   8.311
 1402POPC   C3B19953  40.609  13.621   7.880
 1402POPC   C4B19954  40.764  13.513   7.466
 1403POPC   NC319955  15.417  17.325   9.414
 1403POPC   PO419956  14.820  17.706   9.449
 1403POPC   GL119957  15.003  17.451   9.141
 1403POPC   GL219958  15.219  17.721   9.095
 1403POPC   C1A19959  15.141  17.213   8.794
 1403POPC   D2A19960  15.499  17.282   8.517
 1403POPC   C3A19961  15.375  17.304   8.072
 1403POPC   C4A19962  14.942  17.194   7.971
 1403POPC   C1B19963  15.300  17.694   8.714
 1403POPC   C2B19964  15.066  17.566   8.369
 1403POPC   C3B19965  15.017  17.717   7.950
 1403POPC   C4B19966  15.192  17.810   7.551
 1404POPC   NC319967  33.217  38.826   9.539
 1404POPC   PO419968  32.892  38.250   9.382
 1404POPC   GL119969  32.663  38.352   9.042
 1404POPC   GL219970  32.868  38.657   9.026
 1404POPC   C1A19971  32.597  38.297   8.626
 1404POPC   D2A19972  32.903  38.139   8.314
 1404POPC   C3A19973  32.841  38.221   7.876
 1404POPC   C4A19974  33.015  38.410   7.501
 1404POPC   C1B19975  32.838  38.764   8.557
 1404POPC   C2B19976  33.016  38.937   8.154
 1404POPC   C3B19977  32.994  38.893   7.677
 1404POPC   C4B19978  33.182  38.795   7.217
 1405POPC   NC319979  17.702   2.973   9.414
 1405POPC   PO419980  17.125   2.579   9.546
 1405POPC   GL119981  17.403   2.561   9.170
 1405POPC   GL219982  17.386   2.920   9.033
 1405POPC   C1A19983  17.468   2.530   8.708
 1405POPC   D2A19984  17.377   2.752   8.326
 1405POPC   C3A19985  17.538   2.635   7.913
 1405POPC   C4A19986  17.500   2.853   7.486
 1405POPC   C1B19987  17.708   2.986   8.698
 1405POPC   C2B19988  17.760   3.145   8.263
 1405POPC   C3B19989  17.925   3.000   7.839
 1405POPC   C4B19990  17.965   3.049   7.365
 1406POPC   NC319991  31.162  24.984   9.586
 1406POPC   PO419992  31.870  25.030   9.656
 1406POPC   GL119993  31.591  25.165   9.309
 1406POPC   GL219994  31.377  25.468   9.288
 1406POPC   C1A19995  31.625  25.254   8.841
 1406POPC   D2A19996  31.584  25.048   8.415
 1406POPC   C3A19997  31.661  25.282   8.004
 1406POPC   C4A19998  31.618  25.186   7.563
 1406POPC   C1B19999  31.107  25.359   8.910
 1406POPC   C2B20000  31.059  25.125   8.516
 1406POPC   C3B20001  31.195  25.069   8.066
 1406POPC   C4B20002  31.140  25.250   7.690
 1407POPC   NC320003  38.184  32.639   9.879
 1407POPC   PO420004  37.974  33.141   9.461
 1407POPC   GL120005  37.744  33.044   9.131
 1407POPC   GL220006  37.416  33.224   9.151
 1407POPC   C1A20007  37.955  33.012   8.774
 1407POPC   D2A20008  37.823  32.845   8.421
 1407POPC   C3A20009  37.941  33.080   8.085
 1407POPC   C4A20010  37.885  32.812   7.775
 1407POPC   C1B20011  37.443  33.098   8.702
 1407POPC   C2B20012  37.420  33.116   8.245
 1407POPC   C3B20013  37.388  32.911   7.875
 1407POPC   C4B20014  37.223  33.109   7.523
 1408POPC   NC320015  41.676  25.060   9.324
 1408POPC   PO420016  41.168  25.445   9.401
 1408POPC   GL120017  41.291  25.295   9.039
 1408POPC   GL220018  41.288  24.920   9.051
 1408POPC   C1A20019  41.594  25.518   8.763
 1408POPC   D2A20020  41.634  25.548   8.324
 1408POPC   C3A20021  41.748  25.261   7.993
 1408POPC   C4A20022  41.706  25.400   7.557
 1408POPC   C1B20023  41.463  25.042   8.638
 1408POPC   C2B20024  41.325  25.056   8.225
 1408POPC   C3B20025  41.297  25.101   7.803
 1408POPC   C4B20026  41.059  25.047   7.486
 1409POPC   NC320027  42.595  28.635   9.297
 1409POPC   PO420028  42.252  28.182   9.654
 1409POPC   GL120029  42.297  28.229   9.199
 1409POPC   GL220030  42.014  28.394   9.129
 1409POPC   C1A20031  42.332  28.061   8.779
 1409POPC   D2A20032  42.573  28.099   8.392
 1409POPC   C3A20033  42.431  28.187   7.976
 1409POPC   C4A20034  42.501  28.458   7.622
 1409POPC   C1B20035  42.190  28.552   8.745
 1409POPC   C2B20036  42.094  28.757   8.371
 1409POPC   C3B20037  42.106  28.573   7.996
 1409POPC   C4B20038  41.993  28.614   7.617
 1410POPC   NC320039  14.599  44.944   9.560
 1410POPC   PO420040  14.119  44.525   9.404
 1410POPC   GL120041  14.417  44.658   9.144
 1410POPC   GL220042  14.253  44.962   9.150
 1410POPC   C1A20043  14.343  44.697   8.716
 1410POPC   D2A20044  14.209  44.508   8.338
 1410POPC   C3A20045  14.537  44.262   8.153
 1410POPC   C4A20046  14.527  44.602   7.888
 1410POPC   C1B20047  14.046   0.113   8.783
 1410POPC   C2B20048  14.297   0.096   8.389
 1410POPC   C3B20049  14.218   0.023   7.961
 1410POPC   C4B20050  14.458   0.181   7.618
 1411POPC   NC320051   4.501  26.469   9.428
 1411POPC   PO420052   4.391  25.765   9.410
 1411POPC   GL120053   4.369  26.058   9.108
 1411POPC   GL220054   4.083  26.260   9.203
 1411POPC   C1A20055   4.538  26.204   8.719
 1411POPC   D2A20056   4.408  26.305   8.307
 1411POPC   C3A20057   4.615  26.128   7.964
 1411POPC   C4A20058   4.527  25.897   7.590
 1411POPC   C1B20059   4.032  26.264   8.780
 1411POPC   C2B20060   3.899  26.216   8.377
 1411POPC   C3B20061   4.038  26.062   8.001
 1411POPC   C4B20062   4.214  26.286   7.688
 1412POPC   NC320063  20.896  44.169   9.270
 1412POPC   PO420064  20.788  43.685   9.657
 1412POPC   GL120065  20.641  43.764   9.158
 1412POPC   GL220066  20.562  44.092   8.919
 1412POPC   C1A20067  20.482  43.650   8.735
 1412POPC   D2A20068  20.495  43.956   8.405
 1412POPC   C3A20069  20.729  43.847   8.094
 1412POPC   C4A20070  20.554  43.823   7.720
 1412POPC   C1B20071  20.930  43.984   8.643
 1412POPC   C2B20072  21.170  44.056   8.226
 1412POPC   C3B20073  20.978  44.195   7.810
 1412POPC   C4B20074  20.793  44.105   7.379
 1413POPC   NC320075  15.650  19.795   9.454
 1413POPC   PO420076  16.265  20.038   9.389
 1413POPC   GL120077  15.915  20.091   9.101
 1413POPC   GL220078  15.945  19.755   9.047
 1413POPC   C1A20079  15.802  20.035   8.651
 1413POPC   D2A20080  15.681  19.834   8.269
 1413POPC   C3A20081  15.911  19.977   7.911
 1413POPC   C4A20082  16.251  20.030   7.605
 1413POPC   C1B20083  16.159  19.476   8.783
 1413POPC   C2B20084  15.957  19.284   8.446
 1413POPC   C3B20085  16.054  19.509   8.082
 1413POPC   C4B20086  16.180  19.531   7.676
 1414POPC   NC320087  21.472  15.155   9.467
 1414POPC   PO420088  20.858  15.147   9.394
 1414POPC   GL120089  21.098  15.448   9.155
 1414POPC   GL220090  21.468  15.429   9.049
 1414POPC   C1A20091  21.047  15.474   8.727
 1414POPC   D2A20092  21.099  15.233   8.350
 1414POPC   C3A20093  21.114  15.360   7.931
 1414POPC   C4A20094  21.297  15.049   7.646
 1414POPC   C1B20095  21.514  15.248   8.652
 1414POPC   C2B20096  21.560  15.428   8.222
 1414POPC   C3B20097  21.703  15.273   7.826
 1414POPC   C4B20098  21.755  15.443   7.385
 1415POPC   NC320099  33.522  34.760   9.248
 1415POPC   PO420100  33.764  34.308   9.693
 1415POPC   GL120101  33.898  34.377   9.249
 1415POPC   GL220102  34.150  34.537   9.054
 1415POPC   C1A20103  33.770  34.359   8.797
 1415POPC   D2A20104  33.742  34.274   8.365
 1415POPC   C3A20105  33.777  34.667   8.150
 1415POPC   C4A20106  33.877  34.895   7.780
 1415POPC   C1B20107  34.073  34.749   8.606
 1415POPC   C2B20108  34.379  34.816   8.266
 1415POPC   C3B20109  34.340  34.603   7.884
 1415POPC   C4B20110  34.218  34.598   7.460
 1416POPC   NC320111  10.371  42.770   9.396
 1416POPC   PO420112  10.924  43.249   9.518
 1416POPC   GL120113  10.774  42.976   9.171
 1416POPC   GL220114  10.484  43.192   9.118
 1416POPC   C1A20115  10.722  43.020   8.700
 1416POPC   D2A20116  10.744  43.351   8.369
 1416POPC   C3A20117  10.611  43.206   7.956
 1416POPC   C4A20118  10.870  42.854   7.825
 1416POPC   C1B20119  10.201  43.052   8.776
 1416POPC   C2B20120  10.073  42.936   8.373
 1416POPC   C3B20121  10.134  43.047   7.951
 1416POPC   C4B20122  10.379  42.813   7.710
 1417POPC   NC320123  14.616  36.933   9.494
 1417POPC   PO420124  14.196  36.507   9.588
 1417POPC   GL120125  14.242  36.783   9.154
 1417POPC   GL220126  14.540  36.966   9.005
 1417POPC   C1A20127  14.116  37.019   8.740
 1417POPC   D2A20128  14.191  36.855   8.304
 1417POPC   C3A20129  14.279  37.100   7.952
 1417POPC   C4A20130  14.444  37.035   7.508
 1417POPC   C1B20131  14.535  36.724   8.664
 1417POPC   C2B20132  14.703  36.734   8.281
 1417POPC   C3B20133  14.542  36.645   7.870
 1417POPC   C4B20134  14.664  36.566   7.458
 1418POPC   NC320135  40.874   1.510   9.555
 1418POPC   PO420136  40.793   2.177   9.524
 1418POPC   GL120137  40.758   2.158   9.085
 1418POPC   GL220138  40.672   1.825   9.099
 1418POPC   C1A20139  40.909   2.005   8.674
 1418POPC   D2A20140  40.712   1.889   8.298
 1418POPC   C3A20141  40.661   2.197   7.991
 1418POPC   C4A20142  40.858   2.117   7.644
 1418POPC   C1B20143  40.424   1.676   8.768
 1418POPC   C2B20144  40.281   1.489   8.378
 1418POPC   C3B20145  40.639   1.424   8.110
 1418POPC   C4B20146  40.669   1.685   7.780
 1419POPC   NC320147   8.751  36.287   9.295
 1419POPC   PO420148   9.358  35.983   9.411
 1419POPC   GL120149   9.081  35.946   9.039
 1419POPC   GL220150   8.729  35.848   9.041
 1419POPC   C1A20151   9.033  36.253   8.698
 1419POPC   D2A20152   9.247  36.200   8.321
 1419POPC   C3A20153   9.066  36.039   7.947
 1419POPC   C4A20154   9.119  36.002   7.479
 1419POPC   C1B20155   8.479  35.939   8.718
 1419POPC   C2B20156   8.688  36.077   8.366
 1419POPC   C3B20157   8.571  36.170   7.996
 1419POPC   C4B20158   8.624  36.010   7.636
 1420POPC   NC320159  10.761  33.698   9.647
 1420POPC   PO420160  11.490  33.444   9.593
 1420POPC   GL120161  11.372  33.667   9.196
 1420POPC   GL220162  11.468  33.451   8.919
 1420POPC   C1A20163  11.520  33.946   8.831
 1420POPC   D2A20164  11.585  33.740   8.443
 1420POPC   C3A20165  11.535  34.047   8.134
 1420POPC   C4A20166  11.558  33.987   7.716
 1420POPC   C1B20167  11.089  33.702   8.728
 1420POPC   C2B20168  11.063  33.833   8.291
 1420POPC   C3B20169  11.215  33.668   7.905
 1420POPC   C4B20170  11.054  33.737   7.489
 1421POPC   NC320171   4.793  22.484   9.450
 1421POPC   PO420172   4.174  22.398   9.531
 1421POPC   GL120173   4.245  22.211   9.165
 1421POPC   GL220174   4.394  22.499   9.049
 1421POPC   C1A20175   4.329  22.019   8.772
 1421POPC   D2A20176   4.542  21.984   8.389
 1421POPC   C3A20177   4.514  22.233   8.036
 1421POPC   C4A20178   4.266  22.098   7.672
 1421POPC   C1B20179   4.058  22.450   8.727
 1421POPC   C2B20180   4.092  22.417   8.264
 1421POPC   C3B20181   4.008  22.506   7.804
 1421POPC   C4B20182   4.237  22.607   7.394
 1422POPC   NC320183  13.382  12.601   9.519
 1422POPC   PO420184  13.994  13.002   9.365
 1422POPC   GL120185  13.652  12.907   9.164
 1422POPC   GL220186  13.725  12.591   9.132
 1422POPC   C1A20187  13.525  12.929   8.736
 1422POPC   D2A20188  13.384  13.067   8.311
 1422POPC   C3A20189  13.410  12.906   7.919
 1422POPC   C4A20190  13.714  13.052   7.616
 1422POPC   C1B20191  13.939  12.636   8.741
 1422POPC   C2B20192  13.716  12.648   8.345
 1422POPC   C3B20193  13.864  12.689   7.956
 1422POPC   C4B20194  13.871  12.588   7.522
 1423POPC   NC320195  25.892  20.822   9.742
 1423POPC   PO420196  26.273  21.144   9.292
 1423POPC   GL120197  26.138  20.813   8.987
 1423POPC   GL220198  25.941  20.549   9.149
 1423POPC   C1A20199  26.161  20.677   8.606
 1423POPC   D2A20200  26.016  20.794   8.230
 1423POPC   C3A20201  26.214  20.822   7.847
 1423POPC   C4A20202  25.819  20.851   7.596
 1423POPC   C1B20203  25.890  20.279   8.781
 1423POPC   C2B20204  25.823  20.316   8.327
 1423POPC   C3B20205  25.957  20.377   7.897
 1423POPC   C4B20206  26.327  20.388   7.620
 1424POPC   NC320207   7.239  23.289   9.399
 1424POPC   PO420208   7.558  22.626   9.440
 1424POPC   GL120209   7.331  22.830   9.097
 1424POPC   GL220210   7.035  22.638   9.012
 1424POPC   C1A20211   7.457  22.983   8.674
 1424POPC   D2A20212   7.769  23.054   8.323
 1424POPC   C3A20213   7.690  22.863   7.928
 1424POPC   C4A20214   7.469  22.735   7.574
 1424POPC   C1B20215   7.237  22.525   8.648
 1424POPC   C2B20216   7.318  22.689   8.254
 1424POPC   C3B20217   7.168  22.934   7.920
 1424POPC   C4B20218   6.975  22.892   7.498
 1425POPC   NC320219  25.559  29.681   9.519
 1425POPC   PO420220  25.553  30.344   9.449
 1425POPC   GL120221  25.282  30.047   9.173
 1425POPC   GL220222  25.098  29.750   9.207
 1425POPC   C1A20223  25.348  29.809   8.764
 1425POPC   D2A20224  25.382  29.633   8.339
 1425POPC   C3A20225  25.271  29.934   8.006
 1425POPC   C4A20226  25.519  30.044   7.660
 1425POPC   C1B20227  24.882  29.566   8.823
 1425POPC   C2B20228  24.824  29.689   8.379
 1425POPC   C3B20229  24.907  29.589   7.927
 1425POPC   C4B20230  25.020  29.792   7.528
 1426POPC   NC320231  32.149  35.365   9.818
 1426POPC   PO420232  32.317  35.095   9.254
 1426POPC   GL120233  32.099  35.125   8.919
 1426POPC   GL220234  32.059  35.471   8.826
 1426POPC   C1A20235  32.027  35.053   8.482
 1426POPC   D2A20236  31.941  34.911   8.073
 1426POPC   C3A20237  32.086  35.273   7.960
 1426POPC   C4A20238  32.422  35.163   7.759
 1426POPC   C1B20239  32.477  35.348   8.672
 1426POPC   C2B20240  32.555  35.291   8.288
 1426POPC   C3B20241  32.649  35.545   7.950
 1426POPC   C4B20242  32.287  35.645   7.690
 1427POPC   NC320243  30.434  16.379   9.436
 1427POPC   PO420244  30.990  16.835   9.391
 1427POPC   GL120245  30.827  16.719   9.060
 1427POPC   GL220246  30.547  16.957   9.004
 1427POPC   C1A20247  30.918  16.885   8.668
 1427POPC   D2A20248  30.596  17.027   8.425
 1427POPC   C3A20249  30.736  16.934   8.068
 1427POPC   C4A20250  30.735  16.534   7.889
 1427POPC   C1B20251  30.461  16.586   8.732
 1427POPC   C2B20252  30.509  16.375   8.343
 1427POPC   C3B20253  30.374  16.187   7.971
 1427POPC   C4B20254  30.238  16.492   7.666
 1428POPC   NC320255   2.317  16.351   9.381
 1428POPC   PO420256   1.805  16.453   9.818
 1428POPC   GL120257   1.950  16.663   9.280
 1428POPC   GL220258   1.867  16.416   9.071
 1428POPC   C1A20259   2.084  16.713   8.744
 1428POPC   D2A20260   2.156  16.877   8.261
 1428POPC   C3A20261   2.160  16.689   7.792
 1428POPC   C4A20262   2.027  16.876   7.357
 1428POPC   C1B20263   1.620  16.442   8.734
 1428POPC   C2B20264   1.679  16.664   8.371
 1428POPC   C3B20265   1.701  16.795   7.969
 1428POPC   C4B20266   1.725  16.538   7.603
 1429POPC   NC320267  31.304   9.150   9.504
 1429POPC   PO420268  31.842   8.771   9.309
 1429POPC   GL120269  31.577   9.069   9.062
 1429POPC   GL220270  31.364   9.411   9.064
 1429POPC   C1A20271  31.674   9.097   8.641
 1429POPC   D2A20272  31.470   9.168   8.276
 1429POPC   C3A20273  31.668   8.934   7.948
 1429POPC   C4A20274  31.469   8.637   7.730
 1429POPC   C1B20275  31.726   9.557   8.856
 1429POPC   C2B20276  31.873   9.531   8.414
 1429POPC   C3B20277  31.779   9.433   7.964
 1429POPC   C4B20278  31.675   9.317   7.540
 1430POPC   NC320279   9.850  24.974   9.483
 1430POPC   PO420280   9.463  25.482   9.499
 1430POPC   GL120281   9.704  25.372   9.149
 1430POPC   GL220282  10.004  25.517   9.126
 1430POPC   C1A20283   9.753  25.152   8.756
 1430POPC   D2A20284   9.579  25.087   8.343
 1430POPC   C3A20285   9.825  24.912   8.052
 1430POPC   C4A20286   9.954  24.982   7.646
 1430POPC   C1B20287   9.857  25.661   8.727
 1430POPC   C2B20288   9.826  25.637   8.298
 1430POPC   C3B20289   9.910  25.429   7.908
 1430POPC   C4B20290   9.644  25.430   7.569
 1431POPC   NC320291   0.109  17.788   9.515
 1431POPC   PO420292   0.720  17.521   9.381
 1431POPC   GL120293   0.527  17.661   9.054
 1431POPC   GL220294   0.315  17.374   8.999
 1431POPC   C1A20295   0.659  17.561   8.620
 1431POPC   D2A20296   0.481  17.267   8.341
 1431POPC   C3A20297   0.465  17.354   7.911
 1431POPC   C4A20298   0.589  17.738   7.838
 1431POPC   C1B20299   0.189  17.740   8.707
 1431POPC   C2B20300   0.325  17.851   8.269
 1431POPC   C3B20301   0.097  17.754   7.878
 1431POPC   C4B20302   0.170  17.734   7.401
 1432POPC   NC320303  11.841  15.634   9.410
 1432POPC   PO420304  12.065  14.989   9.455
 1432POPC   GL120305  12.236  15.212   9.128
 1432POPC   GL220306  11.899  15.314   9.020
 1432POPC   C1A20307  12.242  15.077   8.697
 1432POPC   D2A20308  11.904  15.068   8.408
 1432POPC   C3A20309  12.049  14.903   8.023
 1432POPC   C4A20310  11.863  15.027   7.628
 1432POPC   C1B20311  12.159  15.622   8.803
 1432POPC   C2B20312  12.307  15.502   8.400
 1432POPC   C3B20313  12.201  15.388   7.982
 1432POPC   C4B20314  12.414  15.308   7.605
 1433POPC   NC320315  44.331   9.127   9.406
 1433POPC   PO420316  43.715   8.855   9.500
 1433POPC   GL120317  43.734   8.869   9.106
 1433POPC   GL220318  43.373   8.831   9.072
 1433POPC   C1A20319  44.011   9.044   8.777
 1433POPC   D2A20320  43.856   9.216   8.389
 1433POPC   C3A20321  44.065   9.112   8.012
 1433POPC   C4A20322  44.024   9.266   7.573
 1433POPC   C1B20323  43.523   8.877   8.656
 1433POPC   C2B20324  43.846   8.690   8.436
 1433POPC   C3B20325  43.721   8.739   8.066
 1433POPC   C4B20326  43.641   8.908   7.709
 1434POPC   NC320327  26.771  28.616   9.694
 1434POPC   PO420328  26.395  28.132   9.696
 1434POPC   GL120329  26.740  28.136   9.326
 1434POPC   GL220330  26.731  28.491   9.214
 1434POPC   C1A20331  26.856  28.162   8.857
 1434POPC   D2A20332  26.790  28.350   8.464
 1434POPC   C3A20333  26.838  28.102   8.100
 1434POPC   C4A20334  26.898  28.246   7.712
 1434POPC   C1B20335  26.928  28.691   8.851
 1434POPC   C2B20336  27.026  28.806   8.429
 1434POPC   C3B20337  26.871  28.678   8.030
 1434POPC   C4B20338  27.024  28.749   7.634
 1435POPC   NC320339  18.173  42.857   9.488
 1435POPC   PO420340  17.856  43.375   9.453
 1435POPC   GL120341  18.123  43.202   9.076
 1435POPC   GL220342  18.471  43.397   8.939
 1435POPC   C1A20343  18.147  43.137   8.640
 1435POPC   D2A20344  18.070  43.400   8.294
 1435POPC   C3A20345  18.028  43.144   7.993
 1435POPC   C4A20346  18.125  42.744   7.943
 1435POPC   C1B20347  18.647  43.031   8.692
 1435POPC   C2B20348  18.486  43.026   8.251
 1435POPC   C3B20349  18.626  42.858   7.851
 1435POPC   C4B20350  18.821  43.088   7.537
 1436POPC   NC320351   3.537  17.142   9.462
 1436POPC   PO420352   3.432  16.530   9.471
 1436POPC   GL120353   3.478  16.688   9.089
 1436POPC   GL220354   3.721  16.436   9.005
 1436POPC   C1A20355   3.591  16.992   8.780
 1436POPC   D2A20356   3.479  17.152   8.401
 1436POPC   C3A20357   3.512  16.876   8.115
 1436POPC   C4A20358   3.224  16.852   7.844
 1436POPC   C1B20359   3.797  16.530   8.576
 1436POPC   C2B20360   3.826  16.440   8.123
 1436POPC   C3B20361   3.614  16.533   7.721
 1436POPC   C4B20362   3.763  16.446   7.252
 1437POPC   NC320363  29.433  13.793   9.474
 1437POPC   PO420364  30.074  13.599   9.370
 1437POPC   GL120365  30.032  13.585   9.016
 1437POPC   GL220366  29.715  13.410   9.037
 1437POPC   C1A20367  29.963  13.777   8.635
 1437POPC   D2A20368  29.849  13.941   8.245
 1437POPC   C3A20369  30.131  13.728   7.996
 1437POPC   C4A20370  30.303  13.551   7.645
 1437POPC   C1B20371  29.904  13.235   8.680
 1437POPC   C2B20372  30.048  13.078   8.305
 1437POPC   C3B20373  29.927  13.232   7.893
 1437POPC   C4B20374  29.726  13.221   7.470
 1438POPC   NC320375  11.110  29.459   9.357
 1438POPC   PO420376  11.430  28.819   9.427
 1438POPC   GL120377  11.500  29.079   9.070
 1438POPC   GL220378  11.593  29.420   9.183
 1438POPC   C1A20379  11.183  29.101   8.757
 1438POPC   D2A20380  11.030  29.212   8.356
 1438POPC   C3A20381  11.308  29.074   8.034
 1438POPC   C4A20382  11.204  28.996   7.606
 1438POPC   C1B20383  11.488  29.554   8.786
 1438POPC   C2B20384  11.540  29.325   8.427
 1438POPC   C3B20385  11.644  29.476   8.035
 1438POPC   C4B20386  11.517  29.403   7.620
 1439POPC   NC320387   0.971  17.884   9.208
 1439POPC   PO420388   0.584  18.358   9.501
 1439POPC   GL120389   0.480  18.187   9.088
 1439POPC   GL220390   0.124  18.054   9.103
 1439POPC   C1A20391   0.595  18.076   8.650
 1439POPC   D2A20392   0.875  17.926   8.290
 1439POPC   C3A20393   0.769  18.184   7.951
 1439POPC   C4A20394   0.312  18.238   7.858
 1439POPC   C1B20395   0.097  18.235   8.738
 1439POPC   C2B20396   0.239  18.367   8.370
 1439POPC   C3B20397   0.064  18.632   8.102
 1439POPC   C4B20398   0.227  18.839   7.727
 1440POPC   NC320399  25.836  42.824   9.470
 1440POPC   PO420400  26.339  43.276   9.621
 1440POPC   GL120401  26.198  43.095   9.245
 1440POPC   GL220402  25.892  43.283   9.202
 1440POPC   C1A20403  26.073  42.983   8.821
 1440POPC   D2A20404  26.039  43.149   8.410
 1440POPC   C3A20405  25.880  42.969   8.065
 1440POPC   C4A20406  26.144  42.965   7.717
 1440POPC   C1B20407  25.792  43.429   8.773
 1440POPC   C2B20408  25.594  43.443   8.347
 1440POPC   C3B20409  25.629  43.607   7.957
 1440POPC   C4B20410  25.847  43.398   7.668
 1441POPC   NC320411   3.129  38.487   9.357
 1441POPC   PO420412   2.475  38.230   9.527
 1441POPC   GL120413   2.677  38.252   9.173
 1441POPC   GL220414   2.672  38.629   9.153
 1441POPC   C1A20415   2.856  38.179   8.781
 1441POPC   D2A20416   2.844  38.466   8.442
 1441POPC   C3A20417   2.776  38.227   8.063
 1441POPC   C4A20418   2.697  38.328   7.647
 1441POPC   C1B20419   2.652  38.868   8.762
 1441POPC   C2B20420   2.453  38.835   8.361
 1441POPC   C3B20421   2.624  38.760   7.928
 1441POPC   C4B20422   2.390  38.759   7.514
 1442POPC   NC320423  33.205   7.768   9.496
 1442POPC   PO420424  33.155   8.365   9.754
 1442POPC   GL120425  33.115   8.393   9.214
 1442POPC   GL220426  33.022   8.045   9.107
 1442POPC   C1A20427  33.027   8.447   8.759
 1442POPC   D2A20428  33.001   8.198   8.389
 1442POPC   C3A20429  33.044   8.430   8.012
 1442POPC   C4A20430  32.883   8.448   7.597
 1442POPC   C1B20431  33.312   7.982   8.777
 1442POPC   C2B20432  33.456   7.930   8.380
 1442POPC   C3B20433  33.293   7.995   7.971
 1442POPC   C4B20434  33.481   7.887   7.620
 1443POPC   NC320435  33.271  17.330   9.460
 1443POPC   PO420436  32.623  17.643   9.437
 1443POPC   GL120437  32.713  17.502   9.037
 1443POPC   GL220438  33.008  17.326   9.011
 1443POPC   C1A20439  32.906  17.737   8.671
 1443POPC   D2A20440  33.195  17.779   8.327
 1443POPC   C3A20441  33.018  17.632   7.921
 1443POPC   C4A20442  33.228  17.703   7.530
 1443POPC   C1B20443  33.263  17.352   8.632
 1443POPC   C2B20444  33.234  17.259   8.193
 1443POPC   C3B20445  33.304  17.235   7.731
 1443POPC   C4B20446  33.493  17.283   7.299
 1444POPC   NC320447  12.273  38.992   9.589
 1444POPC   PO420448  12.183  38.308   9.361
 1444POPC   GL120449  12.096  38.402   8.967
 1444POPC   GL220450  12.288  38.704   9.069
 1444POPC   C1A20451  11.697  38.444   8.673
 1444POPC   D2A20452  11.467  38.345   8.301
 1444POPC   C3A20453  11.806  38.222   8.019
 1444POPC   C4A20454  12.198  38.254   7.853
 1444POPC   C1B20455  12.051  38.822   8.722
 1444POPC   C2B20456  12.095  38.568   8.351
 1444POPC   C3B20457  12.139  38.753   7.964
 1444POPC   C4B20458  11.751  38.898   7.861
 1445POPC   NC320459  13.750  36.433   9.635
 1445POPC   PO420460  13.353  37.012   9.436
 1445POPC   GL120461  13.502  37.005   8.984
 1445POPC   GL220462  13.727  36.745   9.086
 1445POPC   C1A20463  13.686  37.320   8.675
 1445POPC   D2A20464  13.906  37.278   8.323
 1445POPC   C3A20465  13.666  36.952   8.169
 1445POPC   C4A20466  13.379  36.965   7.799
 1445POPC   C1B20467  13.486  36.452   8.801
 1445POPC   C2B20468  13.365  36.378   8.349
 1445POPC   C3B20469  13.537  36.498   7.916
 1445POPC   C4B20470  13.872  36.832   7.740
 1446POPC   NC320471  24.133  11.697   9.552
 1446POPC   PO420472  24.629  11.231   9.727
 1446POPC   GL120473  24.468  11.351   9.308
 1446POPC   GL220474  24.308  11.086   9.137
 1446POPC   C1A20475  24.556  11.500   8.863
 1446POPC   D2A20476  24.774  11.368   8.466
 1446POPC   C3A20477  24.612  11.476   8.031
 1446POPC   C4A20478  24.656  11.228   7.657
 1446POPC   C1B20479  24.152  11.188   8.757
 1446POPC   C2B20480  24.249  11.317   8.356
 1446POPC   C3B20481  24.189  11.171   7.920
 1446POPC   C4B20482  24.219  11.087   7.452
 1447POPC   NC320483  39.472  17.689   9.638
 1447POPC   PO420484  38.910  17.296   9.559
 1447POPC   GL120485  39.094  17.547   9.249
 1447POPC   GL220486  39.421  17.420   9.170
 1447POPC   C1A20487  38.962  17.544   8.823
 1447POPC   D2A20488  38.784  17.718   8.469
 1447POPC   C3A20489  38.935  17.665   8.070
 1447POPC   C4A20490  39.039  17.616   7.660
 1447POPC   C1B20491  39.453  17.649   8.773
 1447POPC   C2B20492  39.637  17.626   8.367
 1447POPC   C3B20493  39.454  17.532   7.980
 1447POPC   C4B20494  39.514  17.720   7.587
 1448POPC   NC320495  26.019  40.124   9.413
 1448POPC   PO420496  26.540  39.834   9.646
 1448POPC   GL120497  26.313  39.763   9.150
 1448POPC   GL220498  26.087  39.976   8.952
 1448POPC   C1A20499  26.481  39.881   8.682
 1448POPC   D2A20500  26.595  40.092   8.322
 1448POPC   C3A20501  26.182  40.088   8.148
 1448POPC   C4A20502  26.032  40.159   7.762
 1448POPC   C1B20503  25.767  40.164   8.714
 1448POPC   C2B20504  25.756  40.310   8.325
 1448POPC   C3B20505  25.549  40.389   7.976
 1448POPC   C4B20506  25.591  40.300   7.586
 1449POPC   NC320507  17.839  39.517   9.334
 1449POPC   PO420508  17.443  39.032   9.404
 1449POPC   GL120509  17.501  39.218   9.077
 1449POPC   GL220510  17.306  39.470   9.164
 1449POPC   C1A20511  17.634  39.364   8.705
 1449POPC   D2A20512  17.528  39.560   8.351
 1449POPC   C3A20513  17.789  39.326   8.059
 1449POPC   C4A20514  17.854  39.094   7.661
 1449POPC   C1B20515  17.170  39.545   8.787
 1449POPC   C2B20516  17.019  39.625   8.388
 1449POPC   C3B20517  17.198  39.583   7.971
 1449POPC   C4B20518  17.361  39.272   7.723
 1450POPC   NC320519   8.633  40.706   9.482
 1450POPC   PO420520   7.986  40.430   9.474
 1450POPC   GL120521   7.988  40.721   9.121
 1450POPC   GL220522   8.327  40.838   9.085
 1450POPC   C1A20523   7.933  40.732   8.664
 1450POPC   D2A20524   7.694  40.500   8.320
 1450POPC   C3A20525   7.925  40.505   7.964
 1450POPC   C4A20526   8.113  40.879   7.808
 1450POPC   C1B20527   8.477  40.758   8.682
 1450POPC   C2B20528   8.346  40.859   8.283
 1450POPC   C3B20529   8.584  40.767   7.950
 1450POPC   C4B20530   8.550  40.784   7.537
 1451POPC   NC320531   1.102  17.259   9.496
 1451POPC   PO420532   1.271  17.890   9.553
 1451POPC   GL120533   1.403  17.634   9.194
 1451POPC   GL220534   1.701  17.719   9.086
 1451POPC   C1A20535   1.237  17.373   8.841
 1451POPC   D2A20536   1.163  17.512   8.424
 1451POPC   C3A20537   0.974  17.364   8.053
 1451POPC   C4A20538   1.083  17.731   7.814
 1451POPC   C1B20539   1.650  17.666   8.707
 1451POPC   C2B20540   1.556  17.827   8.354
 1451POPC   C3B20541   1.569  17.650   7.987
 1451POPC   C4B20542   1.466  17.243   7.866
 1452POPC   NC320543  14.993  34.681   9.277
 1452POPC   PO420544  15.440  34.220   9.237
 1452POPC   GL120545  15.345  34.472   8.954
 1452POPC   GL220546  15.588  34.725   9.002
 1452POPC   C1A20547  15.055  34.411   8.612
 1452POPC   D2A20548  15.227  34.167   8.293
 1452POPC   C3A20549  15.338  34.298   7.865
 1452POPC   C4A20550  15.501  34.036   7.504
 1452POPC   C1B20551  15.322  34.870   8.657
 1452POPC   C2B20552  15.281  34.706   8.247
 1452POPC   C3B20553  14.990  34.742   7.972
 1452POPC   C4B20554  14.760  35.118   7.859
 1453POPC   NC320555  29.776  15.620   9.417
 1453POPC   PO420556  30.275  15.994   9.644
 1453POPC   GL120557  30.069  16.001   9.172
 1453POPC   GL220558  29.682  16.004   9.105
 1453POPC   C1A20559  29.936  15.771   8.739
 1453POPC   D2A20560  29.776  15.538   8.364
 1453POPC   C3A20561  29.912  15.647   7.967
 1453POPC   C4A20562  29.918  16.050   7.811
 1453POPC   C1B20563  29.893  16.277   8.772
 1453POPC   C2B20564  30.004  16.236   8.343
 1453POPC   C3B20565  29.880  16.500   8.007
 1453POPC   C4B20566  29.705  16.450   7.561
 1454POPC   NC320567  10.918  12.244   9.501
 1454POPC   PO420568  11.455  11.701   9.505
 1454POPC   GL120569  11.274  11.988   9.180
 1454POPC   GL220570  10.959  11.820   9.173
 1454POPC   C1A20571  11.215  12.109   8.724
 1454POPC   D2A20572  11.017  12.381   8.390
 1454POPC   C3A20573  11.195  12.450   7.968
 1454POPC   C4A20574  11.349  12.358   7.521
 1454POPC   C1B20575  11.276  11.592   8.875
 1454POPC   C2B20576  11.459  11.709   8.516
 1454POPC   C3B20577  11.272  11.847   8.155
 1454POPC   C4B20578  11.123  11.984   7.792
 1455POPC   NC320579  41.118  30.980   9.470
 1455POPC   PO420580  41.646  30.569   9.469
 1455POPC   GL120581  41.652  30.728   9.069
 1455POPC   GL220582  41.295  30.722   9.057
 1455POPC   C1A20583  41.507  30.483   8.678
 1455POPC   D2A20584  41.313  30.582   8.320
 1455POPC   C3A20585  41.649  30.496   8.078
 1455POPC   C4A20586  41.769  30.432   7.699
 1455POPC   C1B20587  41.429  30.969   8.690
 1455POPC   C2B20588  41.678  30.966   8.341
 1455POPC   C3B20589  41.494  30.964   7.990
 1455POPC   C4B20590  41.533  31.141   7.653
 1456POPC   NC320591   1.484   5.864   9.402
 1456POPC   PO420592   0.955   6.092   9.658
 1456POPC   GL120593   1.051   6.103   9.229
 1456POPC   GL220594   0.986   5.729   9.254
 1456POPC   C1A20595   1.263   6.223   8.813
 1456POPC   D2A20596   1.405   5.987   8.458
 1456POPC   C3A20597   1.464   6.117   8.058
 1456POPC   C4A20598   1.359   5.972   7.657
 1456POPC   C1B20599   1.149   5.693   8.844
 1456POPC   C2B20600   1.030   5.636   8.429
 1456POPC   C3B20601   1.234   5.627   8.043
 1456POPC   C4B20602   0.966   5.553   7.691
 1457POPC   NC320603  18.554  40.461   9.323
 1457POPC   PO420604  18.271  41.032   9.546
 1457POPC   GL120605  18.248  40.864   9.172
 1457POPC   GL220606  18.600  40.941   9.126
 1457POPC   C1A20607  18.188  40.624   8.794
 1457POPC   D2A20608  18.349  40.620   8.414
 1457POPC   C3A20609  18.094  40.651   8.079
 1457POPC   C4A20610  18.240  40.612   7.681
 1457POPC   C1B20611  18.683  40.819   8.743
 1457POPC   C2B20612  18.625  41.045   8.355
 1457POPC   C3B20613  18.617  40.791   8.020
 1457POPC   C4B20614  18.673  40.904   7.682
 1458POPC   NC320615   0.887   0.626   9.545
 1458POPC   PO420616   1.368   0.209   9.717
 1458POPC   GL120617   1.276   0.309   9.278
 1458POPC   GL220618   0.975   0.123   9.187
 1458POPC   C1A20619   1.261   0.538   8.869
 1458POPC   D2A20620   1.118   0.731   8.453
 1458POPC   C3A20621   1.359   0.612   8.054
 1458POPC   C4A20622   1.618   0.242   7.872
 1458POPC   C1B20623   0.892  44.887   8.789
 1458POPC   C2B20624   1.040  44.962   8.364
 1458POPC   C3B20625   0.985   0.254   8.027
 1458POPC   C4B20626   1.165   0.315   7.617
 1459POPC   NC320627   9.676  16.442   9.610
 1459POPC   PO420628  10.125  16.825   9.311
 1459POPC   GL120629   9.955  16.490   9.158
 1459POPC   GL220630   9.630  16.637   9.156
 1459POPC   C1A20631   9.913  16.489   8.749
 1459POPC   D2A20632   9.936  16.730   8.415
 1459POPC   C3A20633  10.009  16.527   8.029
 1459POPC   C4A20634  10.095  16.712   7.680
 1459POPC   C1B20635   9.548  16.851   8.794
 1459POPC   C2B20636   9.429  16.759   8.399
 1459POPC   C3B20637   9.623  16.877   8.038
 1459POPC   C4B20638   9.590  16.739   7.652
 1460POPC   NC320639   2.568  35.978   9.322
 1460POPC   PO420640   3.061  36.362   9.545
 1460POPC   GL120641   2.868  36.359   9.143
 1460POPC   GL220642   2.990  36.046   9.059
 1460POPC   C1A20643   2.673  36.256   8.713
 1460POPC   D2A20644   2.736  35.974   8.343
 1460POPC   C3A20645   2.591  36.123   7.925
 1460POPC   C4A20646   2.525  36.130   7.438
 1460POPC   C1B20647   3.174  36.102   8.703
 1460POPC   C2B20648   3.269  35.875   8.363
 1460POPC   C3B20649   3.114  36.040   7.994
 1460POPC   C4B20650   2.939  35.888   7.616
 1461POPC   NC320651  26.697  37.530   9.469
 1461POPC   PO420652  27.332  37.773   9.648
 1461POPC   GL120653  27.056  37.823   9.210
 1461POPC   GL220654  27.026  37.508   9.030
 1461POPC   C1A20655  26.639  37.818   8.891
 1461POPC   D2A20656  26.508  37.694   8.469
 1461POPC   C3A20657  26.575  37.843   8.035
 1461POPC   C4A20658  26.696  37.477   7.788
 1461POPC   C1B20659  27.035  37.674   8.635
 1461POPC   C2B20660  26.969  37.616   8.240
 1461POPC   C3B20661  27.117  37.681   7.920
 1461POPC   C4B20662  26.978  37.988   7.702
 1462POPC   NC320663  38.645  34.320   9.499
 1462POPC   PO420664  38.064  34.710   9.476
 1462POPC   GL120665  38.314  34.566   9.186
 1462POPC   GL220666  38.639  34.721   9.169
 1462POPC   C1A20667  38.383  34.456   8.794
 1462POPC   D2A20668  38.173  34.591   8.417
 1462POPC   C3A20669  38.272  34.430   8.006
 1462POPC   C4A20670  38.120  34.605   7.631
 1462POPC   C1B20671  38.819  34.830   8.781
 1462POPC   C2B20672  38.693  34.663   8.414
 1462POPC   C3B20673  38.778  34.462   8.050
 1462POPC   C4B20674  38.627  34.632   7.668
 1463POPC   NC320675  26.311  12.898   9.524
 1463POPC   PO420676  25.644  12.981   9.509
 1463POPC   GL120677  25.792  12.706   9.140
 1463POPC   GL220678  26.161  12.775   9.073
 1463POPC   C1A20679  25.911  12.627   8.678
 1463POPC   D2A20680  25.898  12.976   8.358
 1463POPC   C3A20681  25.977  12.729   8.027
 1463POPC   C4A20682  26.073  12.669   7.607
 1463POPC   C1B20683  26.220  13.053   8.724
 1463POPC   C2B20684  26.364  13.156   8.296
 1463POPC   C3B20685  26.393  12.971   7.882
 1463POPC   C4B20686  26.374  13.055   7.407
 1464POPC   NC320687  29.289  37.842   9.585
 1464POPC   PO420688  28.712  38.237   9.623
 1464POPC   GL120689  28.807  37.874   9.359
 1464POPC   GL220690  29.064  38.025   9.173
 1464POPC   C1A20691  28.771  37.726   8.904
 1464POPC   D2A20692  29.022  37.607   8.540
 1464POPC   C3A20693  28.895  37.576   8.105
 1464POPC   C4A20694  29.215  37.556   7.786
 1464POPC   C1B20695  29.181  38.073   8.739
 1464POPC   C2B20696  29.148  38.208   8.297
 1464POPC   C3B20697  29.285  38.102   7.871
 1464POPC   C4B20698  29.269  37.927   7.438
 1465POPC   NC320699  37.767  42.235   9.533
 1465POPC   PO420700  37.368  42.779   9.539
 1465POPC   GL120701  37.433  42.416   9.200
 1465POPC   GL220702  37.765  42.402   9.055
 1465POPC   C1A20703  37.358  42.293   8.776
 1465POPC   D2A20704  37.625  42.294   8.447
 1465POPC   C3A20705  37.533  42.106   8.099
 1465POPC   C4A20706  37.475  42.407   7.791
 1465POPC   C1B20707  38.096  42.280   8.808
 1465POPC   C2B20708  38.115  42.186   8.396
 1465POPC   C3B20709  37.942  42.404   8.063
 1465POPC   C4B20710  38.035  42.410   7.688
 1466POPC   NC320711  13.925  16.537   9.552
 1466POPC   PO420712  13.507  16.917   9.165
 1466POPC   GL120713  13.859  16.695   9.071
 1466POPC   GL220714  13.677  16.424   9.113
 1466POPC   C1A20715  13.858  16.589   8.644
 1466POPC   D2A20716  13.587  16.835   8.417
 1466POPC   C3A20717  13.646  16.793   8.004
 1466POPC   C4A20718  13.296  17.011   7.832
 1466POPC   C1B20719  13.396  16.323   8.816
 1466POPC   C2B20720  13.269  16.441   8.427
 1466POPC   C3B20721  13.381  16.329   8.029
 1466POPC   C4B20722  13.346  16.533   7.673
 1467POPC   NC320723   6.109  26.753   9.731
 1467POPC   PO420724   5.476  26.903   9.539
 1467POPC   GL120725   5.633  26.929   9.104
 1467POPC   GL220726   5.416  26.692   8.849
 1467POPC   C1A20727   5.853  26.916   8.702
 1467POPC   D2A20728   5.617  26.881   8.335
 1467POPC   C3A20729   5.758  27.152   8.013
 1467POPC   C4A20730   5.953  27.027   7.602
 1467POPC   C1B20731   5.728  26.392   8.701
 1467POPC   C2B20732   5.996  26.435   8.371
 1467POPC   C3B20733   6.012  26.694   8.028
 1467POPC   C4B20734   5.609  26.700   7.831
 1468POPC   NC320735   5.451  23.162   9.303
 1468POPC   PO420736   6.047  23.269   9.626
 1468POPC   GL120737   6.030  22.988   9.255
 1468POPC   GL220738   5.736  22.758   9.172
 1468POPC   C1A20739   5.968  23.106   8.813
 1468POPC   D2A20740   5.658  23.145   8.460
 1468POPC   C3A20741   5.772  23.083   8.015
 1468POPC   C4A20742   5.719  22.962   7.567
 1468POPC   C1B20743   5.787  22.642   8.727
 1468POPC   C2B20744   6.000  22.748   8.325
 1468POPC   C3B20745   5.871  22.571   7.903
 1468POPC   C4B20746   5.655  22.452   7.496
 1469POPC   NC320747  11.457  17.784   9.482
 1469POPC   PO420748  11.622  18.424   9.504
 1469POPC   GL120749  11.391  18.496   9.106
 1469POPC   GL220750  11.043  18.370   9.124
 1469POPC   C1A20751  11.476  18.400   8.667
 1469POPC   D2A20752  11.475  18.288   8.242
 1469POPC   C3A20753  11.269  18.398   7.860
 1469POPC   C4A20754  11.564  18.186   7.640
 1469POPC   C1B20755  10.950  18.340   8.696
 1469POPC   C2B20756  10.991  18.128   8.291
 1469POPC   C3B20757  11.194  17.910   7.943
 1469POPC   C4B20758  10.974  18.050   7.616
 1470POPC   NC320759  11.666  13.039   9.444
 1470POPC   PO420760  11.344  12.451   9.412
 1470POPC   GL120761  11.256  12.820   9.163
 1470POPC   GL220762  11.150  12.589   8.898
 1470POPC   C1A20763  11.467  12.963   8.767
 1470POPC   D2A20764  11.466  12.722   8.353
 1470POPC   C3A20765  11.417  12.913   7.926
 1470POPC   C4A20766  11.585  12.805   7.525
 1470POPC   C1B20767  11.000  12.878   8.579
 1470POPC   C2B20768  10.946  12.878   8.157
 1470POPC   C3B20769  10.951  13.173   7.853
 1470POPC   C4B20770  10.857  13.252   7.384
 1471POPC   NC320771  43.963   9.974   9.631
 1471POPC   PO420772  43.350   9.699   9.497
 1471POPC   GL120773  43.689   9.869   9.198
 1471POPC   GL220774  44.052   9.734   9.184
 1471POPC   C1A20775  43.681   9.990   8.783
 1471POPC   D2A20776  43.628   9.749   8.402
 1471POPC   C3A20777  43.701   9.971   8.012
 1471POPC   C4A20778  43.630   9.791   7.654
 1471POPC   C1B20779  43.967   9.565   8.780
 1471POPC   C2B20780  44.124   9.650   8.370
 1471POPC   C3B20781  44.062   9.627   7.936
 1471POPC   C4B20782  44.157   9.763   7.516
 1472POPC   NC320783  36.326   0.272   9.551
 1472POPC   PO420784  35.821   0.591   9.557
 1472POPC   GL120785  36.124   0.613   9.168
 1472POPC   GL220786  36.427   0.386   9.087
 1472POPC   C1A20787  36.282   0.680   8.715
 1472POPC   D2A20788  36.400   0.608   8.294
 1472POPC   C3A20789  36.026   0.676   7.986
 1472POPC   C4A20790  35.983   0.612   7.500
 1472POPC   C1B20791  36.116   0.192   8.825
 1472POPC   C2B20792  36.033   0.289   8.402
 1472POPC   C3B20793  36.244   0.222   7.999
 1472POPC   C4B20794  36.028   0.134   7.644
 1473POPC   NC320795  24.229  43.577   9.511
 1473POPC   PO420796  24.882  43.645   9.431
 1473POPC   GL120797  24.526  43.785   9.098
 1473POPC   GL220798  24.209  43.646   9.016
 1473POPC   C1A20799  24.472  43.850   8.629
 1473POPC   D2A20800  24.468  44.097   8.263
 1473POPC   C3A20801  24.465  43.807   7.933
 1473POPC   C4A20802  24.318  43.752   7.488
 1473POPC   C1B20803  24.074  43.485   8.638
 1473POPC   C2B20804  24.047  43.759   8.293
 1473POPC   C3B20805  23.966  43.697   7.866
 1473POPC   C4B20806  24.021  43.343   7.626
 1474POPC   NC320807  32.097   1.533   9.586
 1474POPC   PO420808  32.477   0.923   9.515
 1474POPC   GL120809  32.384   1.294   9.236
 1474POPC   GL220810  32.072   1.225   9.181
 1474POPC   C1A20811  32.355   1.464   8.802
 1474POPC   D2A20812  32.143   1.294   8.406
 1474POPC   C3A20813  32.229   1.436   7.984
 1474POPC   C4A20814  32.396   1.347   7.610
 1474POPC   C1B20815  32.124   0.994   8.801
 1474POPC   C2B20816  31.912   0.823   8.456
 1474POPC   C3B20817  31.855   1.034   8.073
 1474POPC   C4B20818  32.000   1.036   7.672
 1475POPC   NC320819   2.665  33.672   9.622
 1475POPC   PO420820   2.984  34.225   9.496
 1475POPC   GL120821   2.629  33.989   9.192
 1475POPC   GL220822   2.418  33.658   9.175
 1475POPC   C1A20823   2.658  33.911   8.736
 1475POPC   D2A20824   2.972  34.060   8.417
 1475POPC   C3A20825   2.911  34.069   7.942
 1475POPC   C4A20826   3.063  33.885   7.559
 1475POPC   C1B20827   2.449  33.405   8.834
 1475POPC   C2B20828   2.373  33.575   8.462
 1475POPC   C3B20829   2.621  33.741   8.181
 1475POPC   C4B20830   2.515  33.802   7.726
 1476POPC   NC320831  21.007  34.657   9.355
 1476POPC   PO420832  20.435  34.359   9.596
 1476POPC   GL120833  20.634  34.292   9.200
 1476POPC   GL220834  20.434  34.587   9.042
 1476POPC   C1A20835  20.831  34.366   8.782
 1476POPC   D2A20836  20.596  34.476   8.413
 1476POPC   C3A20837  20.743  34.377   8.008
 1476POPC   C4A20838  20.414  34.236   7.760
 1476POPC   C1B20839  20.490  34.915   8.708
 1476POPC   C2B20840  20.733  34.963   8.340
 1476POPC   C3B20841  20.965  34.869   7.996
 1476POPC   C4B20842  20.676  34.808   7.704
 1477POPC   NC320843  11.682  27.860   9.505
 1477POPC   PO420844  11.355  27.229   9.501
 1477POPC   GL120845  11.204  27.430   9.118
 1477POPC   GL220846  11.254  27.775   9.214
 1477POPC   C1A20847  11.185  27.502   8.701
 1477POPC   D2A20848  11.339  27.747   8.388
 1477POPC   C3A20849  11.263  27.599   8.027
 1477POPC   C4A20850  11.190  27.377   7.680
 1477POPC   C1B20851  11.523  27.849   8.855
 1477POPC   C2B20852  11.669  28.119   8.500
 1477POPC   C3B20853  11.664  28.022   8.037
 1477POPC   C4B20854  11.627  27.731   7.649
 1478POPC   NC320855  29.588  44.618   9.818
 1478POPC   PO420856  28.989  44.783   9.438
 1478POPC   GL120857  29.009  44.908   9.027
 1478POPC   GL220858  29.268  44.671   9.010
 1478POPC   C1A20859  29.090  44.829   8.575
 1478POPC   D2A20860  29.014  44.408   8.395
 1478POPC   C3A20861  29.041  44.496   7.971
 1478POPC   C4A20862  29.107  44.926   7.779
 1478POPC   C1B20863  29.562  44.681   8.694
 1478POPC   C2B20864  29.459  44.656   8.237
 1478POPC   C3B20865  29.511  44.586   7.770
 1478POPC   C4B20866  29.502  44.201   7.525
 1479POPC   NC320867  43.022   2.164   9.458
 1479POPC   PO420868  43.398   1.599   9.341
 1479POPC   GL120869  43.238   1.935   9.066
 1479POPC   GL220870  43.320   2.323   9.087
 1479POPC   C1A20871  43.021   1.885   8.681
 1479POPC   D2A20872  42.787   1.989   8.319
 1479POPC   C3A20873  43.013   1.787   7.991
 1479POPC   C4A20874  43.133   1.720   7.587
 1479POPC   C1B20875  43.045   2.383   8.745
 1479POPC   C2B20876  43.183   2.316   8.343
 1479POPC   C3B20877  42.986   2.307   7.956
 1479POPC   C4B20878  43.132   2.219   7.546
 1480POPC   NC320879  19.512  18.348   9.398
 1480POPC   PO420880  18.815  18.391   9.436
 1480POPC   GL120881  19.099  18.343   9.103
 1480POPC   GL220882  19.333  18.641   9.032
 1480POPC   C1A20883  19.166  18.149   8.725
 1480POPC   D2A20884  18.964  18.285   8.355
 1480POPC   C3A20885  19.058  18.117   7.976
 1480POPC   C4A20886  18.838  18.234   7.641
 1480POPC   C1B20887  19.050  18.658   8.705
 1480POPC   C2B20888  19.084  18.808   8.322
 1480POPC   C3B20889  19.080  18.622   7.934
 1480POPC   C4B20890  19.425  18.370   7.745
 1481POPC   NC320891   8.021  43.449   9.430
 1481POPC   PO420892   8.333  42.788   9.485
 1481POPC   GL120893   8.217  42.885   9.088
 1481POPC   GL220894   7.902  43.035   9.126
 1481POPC   C1A20895   8.188  43.084   8.693
 1481POPC   D2A20896   8.387  43.120   8.301
 1481POPC   C3A20897   8.347  43.426   8.013
 1481POPC   C4A20898   8.202  43.214   7.604
 1481POPC   C1B20899   7.746  43.347   8.801
 1481POPC   C2B20900   7.842  43.308   8.384
 1481POPC   C3B20901   7.865  43.238   7.996
 1481POPC   C4B20902   7.699  43.137   7.646
 1482POPC   NC320903   0.659  24.132   9.446
 1482POPC   PO420904   0.464  24.768   9.629
 1482POPC   GL120905   0.661  24.605   9.216
 1482POPC   GL220906   0.409  24.437   9.094
 1482POPC   C1A20907   0.848  24.474   8.790
 1482POPC   D2A20908   0.733  24.664   8.372
 1482POPC   C3A20909   0.539  24.599   7.950
 1482POPC   C4A20910   0.678  24.286   7.652
 1482POPC   C1B20911   0.363  24.394   8.655
 1482POPC   C2B20912   0.443  24.201   8.244
 1482POPC   C3B20913   0.220  24.155   7.820
 1482POPC   C4B20914   0.134  24.100   7.366
 1483POPC   NC320915  20.071  30.621   9.538
 1483POPC   PO420916  19.417  30.447   9.607
 1483POPC   GL120917  19.621  30.600   9.187
 1483POPC   GL220918  19.971  30.686   9.055
 1483POPC   C1A20919  19.554  30.693   8.784
 1483POPC   D2A20920  19.876  30.501   8.576
 1483POPC   C3A20921  19.817  30.474   8.138
 1483POPC   C4A20922  19.769  30.378   7.710
 1483POPC   C1B20923  19.925  31.029   8.736
 1483POPC   C2B20924  19.677  30.999   8.375
 1483POPC   C3B20925  19.706  30.933   7.954
 1483POPC   C4B20926  20.038  30.811   7.704
 1484POPC   NC320927  42.914  36.072   9.442
 1484POPC   PO420928  43.460  36.015   9.817
 1484POPC   GL120929  43.400  36.265   9.297
 1484POPC   GL220930  43.130  36.129   8.999
 1484POPC   C1A20931  43.461  36.398   8.782
 1484POPC   D2A20932  43.173  36.166   8.437
 1484POPC   C3A20933  43.106  36.302   7.969
 1484POPC   C4A20934  43.268  36.509   7.561
 1484POPC   C1B20935  42.852  35.839   8.763
 1484POPC   C2B20936  42.717  35.910   8.341
 1484POPC   C3B20937  42.817  35.871   7.903
 1484POPC   C4B20938  42.980  35.717   7.510
 1485POPC   NC320939   4.491   0.054   9.493
 1485POPC   PO420940   4.373  44.393   9.439
 1485POPC   GL120941   4.304  44.569   9.087
 1485POPC   GL220942   4.093  44.815   9.230
 1485POPC   C1A20943   4.242  44.436   8.668
 1485POPC   D2A20944   4.358  44.336   8.255
 1485POPC   C3A20945   4.257  44.659   7.957
 1485POPC   C4A20946   4.488   0.039   7.926
 1485POPC   C1B20947   4.097  44.935   8.785
 1485POPC   C2B20948   4.076  44.882   8.371
 1485POPC   C3B20949   3.958   0.064   7.981
 1485POPC   C4B20950   3.681  44.772   7.800
 1486POPC   NC320951  18.660  38.285   9.611
 1486POPC   PO420952  18.013  38.611   9.486
 1486POPC   GL120953  18.113  38.482   9.110
 1486POPC   GL220954  18.274  38.158   9.221
 1486POPC   C1A20955  18.122  38.494   8.649
 1486POPC   D2A20956  18.470  38.481   8.392
 1486POPC   C3A20957  18.368  38.353   8.009
 1486POPC   C4A20958  18.581  38.426   7.672
 1486POPC   C1B20959  17.999  38.038   8.863
 1486POPC   C2B20960  17.817  38.122   8.445
 1486POPC   C3B20961  17.935  38.055   8.010
 1486POPC   C4B20962  18.187  38.078   7.599
 1487POPC   NC320963  37.046  10.368   9.732
 1487POPC   PO420964  36.762  10.834   9.367
 1487POPC   GL120965  36.734  10.430   9.163
 1487POPC   GL220966  36.900  10.626   8.918
 1487POPC   C1A20967  36.802  10.197   8.728
 1487POPC   D2A20968  36.803  10.550   8.413
 1487POPC   C3A20969  36.643  10.446   8.007
 1487POPC   C4A20970  36.999  10.505   7.764
 1487POPC   C1B20971  36.541  10.851   8.762
 1487POPC   C2B20972  36.515  11.072   8.407
 1487POPC   C3B20973  36.844  11.034   8.120
 1487POPC   C4B20974  36.649  10.913   7.743
 1488POPC   NC320975  25.688   9.636   9.275
 1488POPC   PO420976  25.131  10.115   9.476
 1488POPC   GL120977  25.200   9.849   9.130
 1488POPC   GL220978  25.040   9.515   9.180
 1488POPC   C1A20979  25.372   9.757   8.731
 1488POPC   D2A20980  25.209   9.805   8.378
 1488POPC   C3A20981  25.190  10.151   8.204
 1488POPC   C4A20982  25.295  10.017   7.832
 1488POPC   C1B20983  24.985   9.444   8.731
 1488POPC   C2B20984  25.324   9.323   8.405
 1488POPC   C3B20985  25.324   9.480   7.936
 1488POPC   C4B20986  25.048   9.442   7.589
 1489POPC   NC320987  23.839  19.417   9.564
 1489POPC   PO420988  23.550  18.751   9.553
 1489POPC   GL120989  23.662  18.992   9.203
 1489POPC   GL220990  23.998  18.873   9.152
 1489POPC   C1A20991  23.452  19.120   8.812
 1489POPC   D2A20992  23.530  18.994   8.399
 1489POPC   C3A20993  23.496  19.296   8.075
 1489POPC   C4A20994  23.556  19.246   7.634
 1489POPC   C1B20995  24.148  18.851   8.708
 1489POPC   C2B20996  24.020  18.997   8.272
 1489POPC   C3B20997  24.014  19.077   7.811
 1489POPC   C4B20998  24.330  19.066   7.433
 1490POPC   NC320999  37.103  13.368   9.412
 1490POPC   PO421000  36.700  13.964   9.564
 1490POPC   GL121001  36.937  13.804   9.184
 1490POPC   GL221002  36.652  13.590   9.152
 1490POPC   C1A21003  37.023  13.466   8.790
 1490POPC   D2A21004  37.018  13.347   8.363
 1490POPC   C3A21005  37.288  13.477   8.036
 1490POPC   C4A21006  37.211  13.609   7.599
 1490POPC   C1B21007  36.679  13.826   8.738
 1490POPC   C2B21008  36.632  13.681   8.325
 1490POPC   C3B21009  36.789  13.540   7.917
 1490POPC   C4B21010  36.721  13.613   7.473
 1491POPC   NC321011  16.381   7.874   9.544
 1491POPC   PO421012  17.001   8.039   9.442
 1491POPC   GL121013  16.690   8.186   9.168
 1491POPC   GL221014  16.520   8.506   9.183
 1491POPC   C1A21015  16.723   8.220   8.731
 1491POPC   D2A21016  16.923   8.127   8.330
 1491POPC   C3A21017  16.745   8.118   7.910
 1491POPC   C4A21018  16.802   8.154   7.462
 1491POPC   C1B21019  16.322   8.557   8.779
 1491POPC   C2B21020  16.487   8.486   8.337
 1491POPC   C3B21021  16.353   8.478   7.887
 1491POPC   C4B21022  16.399   8.458   7.408
 1492POPC   NC321023   9.436  38.500   9.550
 1492POPC   PO421024   8.782  38.432   9.512
 1492POPC   GL121025   8.861  38.467   9.093
 1492POPC   GL221026   9.198  38.394   9.104
 1492POPC   C1A21027   8.902  38.403   8.639
 1492POPC   D2A21028   8.862  38.076   8.316
 1492POPC   C3A21029   8.956  38.280   7.939
 1492POPC   C4A21030   8.784  38.676   7.788
 1492POPC   C1B21031   9.443  38.477   8.701
 1492POPC   C2B21032   9.355  38.546   8.253
 1492POPC   C3B21033   9.339  38.607   7.786
 1492POPC   C4B21034   9.360  38.316   7.448
 1493POPC   NC321035  29.575  16.889   9.468
 1493POPC   PO421036  30.213  16.800   9.367
 1493POPC   GL121037  30.048  16.781   8.971
 1493POPC   GL221038  29.816  17.060   9.040
 1493POPC   C1A21039  30.037  16.739   8.485
 1493POPC   D2A21040  29.728  16.947   8.205
 1493POPC   C3A21041  29.742  16.931   7.748
 1493POPC   C4A21042  30.043  16.895   7.402
 1493POPC   C1B21043  30.066  17.232   8.692
 1493POPC   C2B21044  30.148  17.200   8.272
 1493POPC   C3B21045  30.242  16.872   8.000
 1493POPC   C4B21046  30.507  16.934   7.611
 1494POPC   NC321047  43.481  15.281   9.403
 1494POPC   PO421048  44.114  14.958   9.609
 1494POPC   GL121049  43.907  15.078   9.204
 1494POPC   GL221050  44.041  15.363   9.036
 1494POPC   C1A21051  43.763  15.013   8.754
 1494POPC   D2A21052  43.976  14.875   8.372
 1494POPC   C3A21053  43.880  15.036   7.972
 1494POPC   C4A21054  44.012  14.848   7.609
 1494POPC   C1B21055  43.767  15.520   8.751
 1494POPC   C2B21056  43.918  15.376   8.369
 1494POPC   C3B21057  44.148  15.469   8.002
 1494POPC   C4B21058  44.013  15.377   7.566
 1495POPC   NC321059  23.751  31.801   9.561
 1495POPC   PO421060  23.207  31.469   9.561
 1495POPC   GL121061  23.600  31.460   9.220
 1495POPC   GL221062  23.854  31.188   9.209
 1495POPC   C1A21063  23.855  31.557   8.834
 1495POPC   D2A21064  23.658  31.686   8.440
 1495POPC   C3A21065  23.844  31.619   8.061
 1495POPC   C4A21066  23.554  31.561   7.722
 1495POPC   C1B21067  23.568  31.111   8.833
 1495POPC   C2B21068  23.385  31.099   8.449
 1495POPC   C3B21069  23.462  31.227   8.076
 1495POPC   C4B21070  23.531  31.056   7.671
 1496POPC   NC321071  22.805  22.408   9.516
 1496POPC   PO421072  23.145  21.830   9.438
 1496POPC   GL121073  22.968  22.110   9.110
 1496POPC   GL221074  22.668  21.997   9.086
 1496POPC   C1A21075  22.795  22.285   8.683
 1496POPC   D2A21076  22.912  22.584   8.373
 1496POPC   C3A21077  22.758  22.461   7.982
 1496POPC   C4A21078  22.815  22.307   7.587
 1496POPC   C1B21079  22.812  21.770   8.739
 1496POPC   C2B21080  22.878  21.616   8.367
 1496POPC   C3B21081  22.993  21.914   8.084
 1496POPC   C4B21082  22.874  21.831   7.693
 1497POPC   NC321083  27.746   3.802   9.459
 1497POPC   PO421084  27.286   3.357   9.491
 1497POPC   GL121085  27.569   3.382   9.187
 1497POPC   GL221086  27.432   3.709   9.061
 1497POPC   C1A21087  27.456   3.257   8.781
 1497POPC   D2A21088  27.589   3.443   8.400
 1497POPC   C3A21089  27.376   3.460   8.021
 1497POPC   C4A21090  27.441   3.538   7.598
 1497POPC   C1B21091  27.836   3.642   8.822
 1497POPC   C2B21092  28.042   3.683   8.428
 1497POPC   C3B21093  27.855   3.725   8.040
 1497POPC   C4B21094  28.032   3.771   7.662
 1498POPC   NC321095   0.627  40.272   9.337
 1498POPC   PO421096   0.211  39.767   9.546
 1498POPC   GL121097   0.342  39.890   9.117
 1498POPC   GL221098   0.126  40.165   9.071
 1498POPC   C1A21099   0.472  39.882   8.672
 1498POPC   D2A21100   0.695  39.760   8.286
 1498POPC   C3A21101   0.464  39.847   7.906
 1498POPC   C4A21102   0.546  40.132   7.592
 1498POPC   C1B21103   0.159  40.287   8.629
 1498POPC   C2B21104   0.140  40.083   8.221
 1498POPC   C3B21105   0.060  40.222   7.784
 1498POPC   C4B21106   0.140  40.279   7.328
 1499POPC   NC321107  44.241  27.962   9.555
 1499POPC   PO421108  43.593  27.624   9.548
 1499POPC   GL121109  43.960  27.588   9.285
 1499POPC   GL221110  44.142  27.296   9.345
 1499POPC   C1A21111  43.960  27.771   8.884
 1499POPC   D2A21112  44.051  27.854   8.451
 1499POPC   C3A21113  43.767  27.703   8.142
 1499POPC   C4A21114  43.914  27.666   7.718
 1499POPC   C1B21115  44.230  27.237   8.929
 1499POPC   C2B21116  44.203  27.355   8.501
 1499POPC   C3B21117  44.127  27.332   8.070
 1499POPC   C4B21118  44.102  27.171   7.658
 1500POPC   NC321119  17.107  20.860   9.805
 1500POPC   PO421120  16.428  20.733   9.556
 1500POPC   GL121121  16.605  20.662   9.166
 1500POPC   GL221122  16.834  20.421   9.177
 1500POPC   C1A21123  16.782  20.754   8.743
 1500POPC   D2A21124  16.676  20.599   8.381
 1500POPC   C3A21125  16.917  20.703   8.037
 1500POPC   C4A21126  16.744  20.762   7.657
 1500POPC   C1B21127  16.823  20.235   8.804
 1500POPC   C2B21128  17.014  20.239   8.428
 1500POPC   C3B21129  16.756  20.191   8.079
 1500POPC   C4B21130  16.741  20.188   7.654
 1501POPC   NC321131  13.865   8.956   9.540
 1501POPC   PO421132  13.234   8.927   9.240
 1501POPC   GL121133  13.617   9.050   9.078
 1501POPC   GL221134  13.853   8.779   9.062
 1501POPC   C1A21135  13.717   9.135   8.655
 1501POPC   D2A21136  13.531   8.959   8.301
 1501POPC   C3A21137  13.699   9.167   7.967
 1501POPC   C4A21138  13.538   9.055   7.574
 1501POPC   C1B21139  13.593   8.627   8.713
 1501POPC   C2B21140  13.719   8.486   8.267
 1501POPC   C3B21141  13.804   8.675   7.854
 1501POPC   C4B21142  13.956   8.750   7.435
 1502POPC   NC321143  29.205  24.497   9.617
 1502POPC   PO421144  29.104  23.993   9.179
 1502POPC   GL121145  29.117  24.431   9.116
 1502POPC   GL221146  29.478  24.511   9.173
 1502POPC   C1A21147  29.011  24.634   8.692
 1502POPC   D2A21148  28.834  24.551   8.303
 1502POPC   C3A21149  29.087  24.457   7.977
 1502POPC   C4A21150  28.835  24.644   7.688
 1502POPC   C1B21151  29.451  24.388   8.762
 1502POPC   C2B21152  29.444  24.611   8.348
 1502POPC   C3B21153  29.641  24.637   7.920
 1502POPC   C4B21154  29.515  24.387   7.520
 1503POPC   NC321155   9.577   0.669   9.573
 1503POPC   PO421156   9.927   1.299   9.467
 1503POPC   GL121157   9.702   1.183   9.075
 1503POPC   GL221158   9.532   0.876   9.070
 1503POPC   C1A21159   9.682   1.084   8.640
 1503POPC   D2A21160   9.842   0.957   8.269
 1503POPC   C3A21161   9.696   1.029   7.875
 1503POPC   C4A21162   9.783   1.215   7.446
 1503POPC   C1B21163   9.203   0.958   8.710
 1503POPC   C2B21164   9.292   1.012   8.248
 1503POPC   C3B21165   9.218   0.990   7.804
 1503POPC   C4B21166   9.460   0.769   7.465
 1504POPC   NC321167  33.918  22.334   9.458
 1504POPC   PO421168  33.464  22.029   9.850
 1504POPC   GL121169  33.527  22.086   9.274
 1504POPC   GL221170  33.799  21.934   9.069
 1504POPC   C1A21171  33.499  22.244   8.798
 1504POPC   D2A21172  33.773  22.280   8.441
 1504POPC   C3A21173  33.595  22.266   8.041
 1504POPC   C4A21174  33.616  22.181   7.605
 1504POPC   C1B21175  34.076  21.863   8.685
 1504POPC   C2B21176  34.160  21.746   8.268
 1504POPC   C3B21177  34.047  21.989   7.897
 1504POPC   C4B21178  34.039  21.957   7.445
 1505POPC   NC321179  22.501  13.747   9.511
 1505POPC   PO421180  22.022  13.347   9.605
 1505POPC   GL121181  22.123  13.559   9.217
 1505POPC   GL221182  22.275  13.271   9.101
 1505POPC   C1A21183  22.212  13.770   8.798
 1505POPC   D2A21184  22.297  13.528   8.405
 1505POPC   C3A21185  22.060  13.689   8.065
 1505POPC   C4A21186  22.180  13.814   7.679
 1505POPC   C1B21187  21.987  13.326   8.758
 1505POPC   C2B21188  21.789  13.339   8.375
 1505POPC   C3B21189  21.921  13.208   7.975
 1505POPC   C4B21190  21.789  13.475   7.632
 1506POPC   NC321191  35.419  14.116   9.479
 1506POPC   PO421192  34.964  14.541   9.667
 1506POPC   GL121193  35.178  14.518   9.221
 1506POPC   GL221194  35.205  14.198   9.012
 1506POPC   C1A21195  35.270  14.666   8.782
 1506POPC   D2A21196  35.484  14.538   8.401
 1506POPC   C3A21197  35.549  14.707   7.984
 1506POPC   C4A21198  35.308  14.359   7.773
 1506POPC   C1B21199  35.634  14.299   8.830
 1506POPC   C2B21200  35.847  14.170   8.458
 1506POPC   C3B21201  35.796  14.267   8.040
 1506POPC   C4B21202  35.747  14.076   7.638
 1507POPC   NC321203  40.966  11.850   9.479
 1507POPC   PO421204  40.890  12.465   9.530
 1507POPC   GL121205  40.583  12.298   9.224
 1507POPC   GL221206  40.804  12.093   9.078
 1507POPC   C1A21207  40.421  12.139   8.778
 1507POPC   D2A21208  40.716  12.259   8.452
 1507POPC   C3A21209  40.675  12.025   8.132
 1507POPC   C4A21210  40.348  11.870   7.857
 1507POPC   C1B21211  41.082  12.184   8.785
 1507POPC   C2B21212  41.188  11.934   8.445
 1507POPC   C3B21213  41.279  11.951   8.048
 1507POPC   C4B21214  41.013  11.885   7.694
 1508POPC   NC321215  28.821  22.199   9.614
 1508POPC   PO421216  29.422  22.234   9.351
 1508POPC   GL121217  29.240  22.312   9.004
 1508POPC   GL221218  28.950  22.188   9.094
 1508POPC   C1A21219  29.032  22.383   8.606
 1508POPC   D2A21220  28.864  22.642   8.257
 1508POPC   C3A21221  29.117  22.534   7.875
 1508POPC   C4A21222  29.223  22.274   7.517
 1508POPC   C1B21223  29.104  21.874   8.763
 1508POPC   C2B21224  29.131  21.862   8.339
 1508POPC   C3B21225  29.312  21.845   7.973
 1508POPC   C4B21226  29.517  21.526   7.794
 1509POPC   NC321227  13.261   9.925   9.668
 1509POPC   PO421228  13.877   9.642   9.516
 1509POPC   GL121229  13.737   9.912   9.197
 1509POPC   GL221230  13.380   9.975   9.185
 1509POPC   C1A21231  13.865   9.966   8.781
 1509POPC   D2A21232  13.864   9.637   8.480
 1509POPC   C3A21233  13.747   9.756   8.050
 1509POPC   C4A21234  13.608   9.582   7.663
 1509POPC   C1B21235  13.306   9.851   8.785
 1509POPC   C2B21236  13.446   9.954   8.408
 1509POPC   C3B21237  13.270   9.895   8.005
 1509POPC   C4B21238  13.292  10.138   7.633
 1510POPC   NC321239  16.993  21.654   9.525
 1510POPC   PO421240  17.403  21.065   9.522
 1510POPC   GL121241  17.493  21.395   9.253
 1510POPC   GL221242  17.182  21.374   9.140
 1510POPC   C1A21243  17.633  21.394   8.821
 1510POPC   D2A21244  17.664  21.289   8.379
 1510POPC   C3A21245  17.575  21.587   8.057
 1510POPC   C4A21246  17.629  21.477   7.659
 1510POPC   C1B21247  17.139  21.218   8.745
 1510POPC   C2B21248  17.173  21.433   8.361
 1510POPC   C3B21249  17.169  21.284   7.939
 1510POPC   C4B21250  17.146  21.615   7.619
 1511POPC   NC321251  12.493  20.100   9.379
 1511POPC   PO421252  13.192  19.897   9.415
 1511POPC   GL121253  12.872  19.696   9.169
 1511POPC   GL221254  13.042  19.343   9.152
 1511POPC   C1A21255  12.632  19.835   8.781
 1511POPC   D2A21256  12.860  19.904   8.385
 1511POPC   C3A21257  12.664  19.748   7.998
 1511POPC   C4A21258  12.699  19.893   7.582
 1511POPC   C1B21259  12.864  19.386   8.721
 1511POPC   C2B21260  12.790  19.285   8.260
 1511POPC   C3B21261  12.912  19.340   7.796
 1511POPC   C4B21262  12.648  19.418   7.432
 1512POPC   NC321263  37.911  15.955   9.338
 1512POPC   PO421264  38.504  15.753   9.626
 1512POPC   GL121265  38.432  15.978   9.222
 1512POPC   GL221266  38.723  16.132   9.039
 1512POPC   C1A21267  38.276  15.961   8.787
 1512POPC   D2A21268  38.466  16.018   8.391
 1512POPC   C3A21269  38.256  15.983   7.990
 1512POPC   C4A21270  38.604  16.107   7.789
 1512POPC   C1B21271  38.699  15.675   8.909
 1512POPC   C2B21272  38.575  15.532   8.508
 1512POPC   C3B21273  38.656  15.642   8.070
 1512POPC   C4B21274  38.717  15.288   7.803
 1513POPC   NC321275  17.709  36.466   9.238
 1513POPC   PO421276  17.470  35.974   9.650
 1513POPC   GL121277  17.421  36.023   9.171
 1513POPC   GL221278  17.416  36.291   8.867
 1513POPC   C1A21279  17.564  35.796   8.785
 1513POPC   D2A21280  17.757  35.944   8.390
 1513POPC   C3A21281  17.662  35.785   7.977
 1513POPC   C4A21282  17.583  35.968   7.555
 1513POPC   C1B21283  17.845  36.386   8.638
 1513POPC   C2B21284  18.082  36.381   8.279
 1513POPC   C3B21285  17.858  36.270   7.929
 1513POPC   C4B21286  17.599  36.456   7.638
 1514POPC   NC321287  41.172  12.824   9.574
 1514POPC   PO421288  40.683  13.261   9.350
 1514POPC   GL121289  40.668  12.825   9.212
 1514POPC   GL221290  40.951  12.771   9.121
 1514POPC   C1A21291  40.573  12.616   8.824
 1514POPC   D2A21292  40.574  12.761   8.415
 1514POPC   C3A21293  40.587  12.565   8.064
 1514POPC   C4A21294  40.492  12.711   7.683
 1514POPC   C1B21295  41.007  13.129   8.810
 1514POPC   C2B21296  40.892  13.159   8.386
 1514POPC   C3B21297  41.012  12.820   8.098
 1514POPC   C4B21298  41.000  12.728   7.611
 1515POPC   NC321299  33.856   3.768   9.431
 1515POPC   PO421300  33.295   3.571   9.569
 1515POPC   GL121301  33.481   3.548   9.127
 1515POPC   GL221302  33.852   3.383   9.101
 1515POPC   C1A21303  33.636   3.580   8.688
 1515POPC   D2A21304  33.643   3.397   8.265
 1515POPC   C3A21305  33.680   3.574   7.845
 1515POPC   C4A21306  33.996   3.287   7.662
 1515POPC   C1B21307  34.109   3.657   8.813
 1515POPC   C2B21308  33.998   3.781   8.381
 1515POPC   C3B21309  34.151   3.661   8.019
 1515POPC   C4B21310  34.153   3.799   7.629
 1516POPC   NC321311  19.071  28.204   9.546
 1516POPC   PO421312  19.258  28.893   9.573
 1516POPC   GL121313  19.170  28.544   9.186
 1516POPC   GL221314  19.343  28.229   9.046
 1516POPC   C1A21315  18.846  28.273   8.901
 1516POPC   D2A21316  18.684  28.000   8.559
 1516POPC   C3A21317  18.817  28.077   8.108
 1516POPC   C4A21318  18.908  28.426   7.831
 1516POPC   C1B21319  19.266  28.478   8.688
 1516POPC   C2B21320  19.426  28.530   8.305
 1516POPC   C3B21321  19.379  28.269   7.985
 1516POPC   C4B21322  19.230  28.074   7.623
 1517POPC   NC321323  28.397  42.570   9.662
 1517POPC   PO421324  28.271  43.216   9.386
 1517POPC   GL121325  28.369  43.295   8.998
 1517POPC   GL221326  28.595  43.483   8.892
 1517POPC   C1A21327  28.165  43.290   8.611
 1517POPC   D2A21328  28.014  42.939   8.388
 1517POPC   C3A21329  28.113  42.959   8.004
 1517POPC   C4A21330  28.378  42.801   7.708
 1517POPC   C1B21331  28.645  43.059   8.655
 1517POPC   C2B21332  28.577  42.893   8.261
 1517POPC   C3B21333  28.642  43.159   7.920
 1517POPC   C4B21334  28.596  43.496   7.649
 1518POPC   NC321335  38.949   1.503   9.576
 1518POPC   PO421336  39.511   1.114   9.407
 1518POPC   GL121337  39.166   1.152   9.182
 1518POPC   GL221338  39.117   1.484   9.102
 1518POPC   C1A21339  39.078   1.044   8.761
 1518POPC   D2A21340  39.332   1.032   8.405
 1518POPC   C3A21341  39.199   1.160   8.031
 1518POPC   C4A21342  39.251   1.237   7.621
 1518POPC   C1B21343  39.399   1.433   8.727
 1518POPC   C2B21344  39.590   1.553   8.344
 1518POPC   C3B21345  39.470   1.584   7.923
 1518POPC   C4B21346  39.654   1.507   7.491
 1519POPC   NC321347  33.464  23.085   9.231
 1519POPC   PO421348  34.008  22.805   9.579
 1519POPC   GL121349  33.889  22.812   9.182
 1519POPC   GL221350  34.042  23.141   9.157
 1519POPC   C1A21351  33.804  22.751   8.741
 1519POPC   D2A21352  33.994  22.952   8.384
 1519POPC   C3A21353  33.952  22.745   7.986
 1519POPC   C4A21354  33.605  22.682   7.703
 1519POPC   C1B21355  33.885  23.261   8.776
 1519POPC   C2B21356  33.542  23.239   8.499
 1519POPC   C3B21357  33.646  23.181   8.090
 1519POPC   C4B21358  33.805  23.191   7.718
 1520POPC   NC321359  34.331  29.349   9.449
 1520POPC   PO421360  34.753  28.828   9.504
 1520POPC   GL121361  34.716  29.111   9.168
 1520POPC   GL221362  34.772  29.478   9.238
 1520POPC   C1A21363  34.640  29.060   8.724
 1520POPC   D2A21364  34.406  29.280   8.403
 1520POPC   C3A21365  34.607  29.058   8.077
 1520POPC   C4A21366  34.480  28.943   7.670
 1520POPC   C1B21367  34.607  29.558   8.809
 1520POPC   C2B21368  34.860  29.474   8.409
 1520POPC   C3B21369  34.740  29.552   7.985
 1520POPC   C4B21370  34.902  29.567   7.574
 1521POPC   NC321371  11.684  17.098   9.877
 1521POPC   PO421372  11.213  17.391   9.496
 1521POPC   GL121373  11.257  17.515   9.086
 1521POPC   GL221374  10.887  17.517   9.046
 1521POPC   C1A21375  11.442  17.330   8.725
 1521POPC   D2A21376  11.340  17.156   8.336
 1521POPC   C3A21377  11.517  17.369   7.968
 1521POPC   C4A21378  11.589  17.400   7.532
 1521POPC   C1B21379  11.025  17.822   8.742
 1521POPC   C2B21380  11.220  17.660   8.382
 1521POPC   C3B21381  11.016  17.437   8.042
 1521POPC   C4B21382  10.987  17.547   7.604
 1522POPC   NC321383   4.346  29.307   9.675
 1522POPC   PO421384   4.490  29.968   9.465
 1522POPC   GL121385   4.447  29.776   9.113
 1522POPC   GL221386   4.113  29.732   9.091
 1522POPC   C1A21387   4.511  29.928   8.700
 1522POPC   D2A21388   4.424  30.274   8.448
 1522POPC   C3A21389   4.490  30.204   7.998
 1522POPC   C4A21390   4.166  30.011   7.749
 1522POPC   C1B21391   4.067  29.669   8.659
 1522POPC   C2B21392   4.276  29.781   8.255
 1522POPC   C3B21393   4.130  29.531   7.926
 1522POPC   C4B21394   3.966  29.496   7.555
 1523POPC   NC321395   2.512  36.796   9.492
 1523POPC   PO421396   2.934  37.346   9.442
 1523POPC   GL121397   2.836  37.087   9.096
 1523POPC   GL221398   2.615  36.799   9.009
 1523POPC   C1A21399   2.843  37.095   8.667
 1523POPC   D2A21400   2.815  36.949   8.297
 1523POPC   C3A21401   2.966  37.146   7.921
 1523POPC   C4A21402   2.822  36.903   7.601
 1523POPC   C1B21403   2.428  36.723   8.634
 1523POPC   C2B21404   2.431  36.452   8.295
 1523POPC   C3B21405   2.586  36.630   7.979
 1523POPC   C4B21406   2.443  37.034   7.940
 1524POPC   NC321407  35.315  30.554   9.412
 1524POPC   PO421408  35.804  30.998   9.488
 1524POPC   GL121409  35.488  30.922   9.122
 1524POPC   GL221410  35.121  30.981   9.178
 1524POPC   C1A21411  35.472  30.602   8.780
 1524POPC   D2A21412  35.509  30.796   8.409
 1524POPC   C3A21413  35.436  30.974   8.046
 1524POPC   C4A21414  35.300  31.008   7.653
 1524POPC   C1B21415  34.999  30.772   8.786
 1524POPC   C2B21416  35.023  30.615   8.388
 1524POPC   C3B21417  35.157  30.474   8.019
 1524POPC   C4B21418  35.034  30.571   7.594
 1525POPC   NC321419  16.255  21.404   9.320
 1525POPC   PO421420  16.859  21.189   9.564
 1525POPC   GL121421  16.687  21.183   9.160
 1525POPC   GL221422  16.701  21.524   9.106
 1525POPC   C1A21423  16.614  21.235   8.719
 1525POPC   D2A21424  16.788  21.113   8.348
 1525POPC   C3A21425  16.570  21.134   7.992
 1525POPC   C4A21426  16.767  21.254   7.605
 1525POPC   C1B21427  16.903  21.671   8.770
 1525POPC   C2B21428  16.739  21.739   8.372
 1525POPC   C3B21429  16.757  21.623   7.966
 1525POPC   C4B21430  16.662  21.760   7.558
 1526POPC   NC321431   9.029  32.044   9.554
 1526POPC   PO421432   8.505  31.898   9.291
 1526POPC   GL121433   8.796  32.136   9.064
 1526POPC   GL221434   8.663  32.476   8.978
 1526POPC   C1A21435   8.875  32.115   8.615
 1526POPC   D2A21436   8.710  32.399   8.323
 1526POPC   C3A21437   8.827  32.312   7.912
 1526POPC   C4A21438   8.552  32.312   7.586
 1526POPC   C1B21439   9.103  32.537   8.757
 1526POPC   C2B21440   9.234  32.391   8.340
 1526POPC   C3B21441   9.291  32.552   7.930
 1526POPC   C4B21442   9.081  32.712   7.605
 1527POPC   NC321443  37.031  34.312   9.535
 1527POPC   PO421444  36.717  34.954   9.508
 1527POPC   GL121445  36.985  34.727   9.206
 1527POPC   GL221446  36.692  34.676   9.019
 1527POPC   C1A21447  37.133  34.468   8.831
 1527POPC   D2A21448  37.207  34.275   8.433
 1527POPC   C3A21449  36.947  34.337   8.065
 1527POPC   C4A21450  37.126  34.510   7.719
 1527POPC   C1B21451  36.883  34.875   8.663
 1527POPC   C2B21452  36.741  34.787   8.261
 1527POPC   C3B21453  36.882  34.908   7.891
 1527POPC   C4B21454  36.876  34.835   7.419
 1528POPC   NC321455  18.649   0.077   9.599
 1528POPC   PO421456  19.117   0.434   9.324
 1528POPC   GL121457  18.825   0.443   9.075
 1528POPC   GL221458  18.795   0.061   9.105
 1528POPC   C1A21459  18.914   0.677   8.708
 1528POPC   D2A21460  19.088   0.572   8.324
 1528POPC   C3A21461  18.856   0.556   7.955
 1528POPC   C4A21462  18.825   0.892   7.677
 1528POPC   C1B21463  18.978   0.101   8.711
 1528POPC   C2B21464  18.798   0.137   8.325
 1528POPC   C3B21465  19.026   0.068   7.984
 1528POPC   C4B21466  18.793   0.100   7.629
 1529POPC   NC321467   0.675  39.466   9.475
 1529POPC   PO421468   0.627  38.827   9.301
 1529POPC   GL121469   0.530  39.178   9.057
 1529POPC   GL221470   0.265  39.382   9.176
 1529POPC   C1A21471   0.670  39.405   8.687
 1529POPC   D2A21472   0.618  39.224   8.311
 1529POPC   C3A21473   0.686  39.389   7.923
 1529POPC   C4A21474   0.571  38.993   7.827
 1529POPC   C1B21475   0.170  39.372   8.727
 1529POPC   C2B21476   0.218  39.551   8.300
 1529POPC   C3B21477   0.186  39.314   7.899
 1529POPC   C4B21478  44.946  39.304   7.525
 1530POPC   NC321479  29.509  20.190   9.490
 1530POPC   PO421480  28.877  20.511   9.543
 1530POPC   GL121481  29.053  20.619   9.152
 1530POPC   GL221482  29.269  20.375   9.071
 1530POPC   C1A21483  29.345  20.804   8.806
 1530POPC   D2A21484  29.389  20.719   8.369
 1530POPC   C3A21485  29.089  20.696   8.047
 1530POPC   C4A21486  29.176  20.844   7.691
 1530POPC   C1B21487  29.060  20.384   8.673
 1530POPC   C2B21488  29.088  20.247   8.283
 1530POPC   C3B21489  28.976  20.084   7.918
 1530POPC   C4B21490  29.042  20.325   7.584
 1531POPC   NC321491  12.805   6.490   9.611
 1531POPC   PO421492  12.610   7.098   9.501
 1531POPC   GL121493  12.595   6.736   9.200
 1531POPC   GL221494  12.908   6.583   9.116
 1531POPC   C1A21495  12.559   6.708   8.758
 1531POPC   D2A21496  12.743   6.901   8.408
 1531POPC   C3A21497  12.571   6.842   8.035
 1531POPC   C4A21498  12.827   6.703   7.733
 1531POPC   C1B21499  13.093   6.799   8.769
 1531POPC   C2B21500  13.212   6.658   8.372
 1531POPC   C3B21501  13.284   6.590   7.933
 1531POPC   C4B21502  13.628   6.508   7.611
 1532POPC   NC321503  17.804  36.282   9.741
 1532POPC   PO421504  18.462  36.089   9.585
 1532POPC   GL121505  18.340  36.050   9.193
 1532POPC   GL221506  18.218  36.381   9.132
 1532POPC   C1A21507  18.082  35.959   8.831
 1532POPC   D2A21508  18.299  35.935   8.459
 1532POPC   C3A21509  18.147  35.867   8.074
 1532POPC   C4A21510  18.073  35.914   7.647
 1532POPC   C1B21511  18.496  36.295   8.771
 1532POPC   C2B21512  18.594  36.329   8.338
 1532POPC   C3B21513  18.452  36.255   7.925
 1532POPC   C4B21514  18.592  36.507   7.635
 1533POPC   NC321515  23.203  25.895   9.538
 1533POPC   PO421516  22.691  26.358   9.643
 1533POPC   GL121517  22.746  26.034   9.345
 1533POPC   GL221518  22.993  26.258   9.213
 1533POPC   C1A21519  22.781  25.891   8.899
 1533POPC   D2A21520  22.634  25.860   8.449
 1533POPC   C3A21521  22.920  25.846   8.070
 1533POPC   C4A21522  22.826  25.895   7.638
 1533POPC   C1B21523  23.141  26.236   8.802
 1533POPC   C2B21524  22.972  26.236   8.404
 1533POPC   C3B21525  22.922  26.346   7.951
 1533POPC   C4B21526  23.097  26.298   7.546
 1534POPC   NC321527  31.518   6.951   9.737
 1534POPC   PO421528  31.972   7.039   9.268
 1534POPC   GL121529  31.706   6.721   9.069
 1534POPC   GL221530  31.335   6.645   9.065
 1534POPC   C1A21531  31.681   6.626   8.662
 1534POPC   D2A21532  31.329   6.492   8.407
 1534POPC   C3A21533  31.525   6.508   8.041
 1534POPC   C4A21534  31.633   6.860   7.790
 1534POPC   C1B21535  31.024   6.346   8.815
 1534POPC   C2B21536  30.968   6.123   8.394
 1534POPC   C3B21537  30.981   6.348   8.000
 1534POPC   C4B21538  31.124   6.760   7.838
 1535POPC   NC321539  42.589  25.283   9.514
 1535POPC   PO421540  42.083  24.863   9.358
 1535POPC   GL121541  42.383  25.075   9.048
 1535POPC   GL221542  42.453  25.442   9.053
 1535POPC   C1A21543  42.489  25.198   8.595
 1535POPC   D2A21544  42.391  25.483   8.236
 1535POPC   C3A21545  42.213  25.376   7.825
 1535POPC   C4A21546  42.042  25.016   7.599
 1535POPC   C1B21547  42.143  25.661   8.815
 1535POPC   C2B21548  42.078  25.841   8.415
 1535POPC   C3B21549  41.933  25.815   7.997
 1535POPC   C4B21550  42.051  25.768   7.557
 1536POPC   NC321551  10.438   7.144   9.464
 1536POPC   PO421552  10.476   6.483   9.592
 1536POPC   GL121553  10.542   6.411   9.136
 1536POPC   GL221554  10.537   6.760   9.089
 1536POPC   C1A21555  10.781   6.469   8.739
 1536POPC   D2A21556  10.925   6.555   8.318
 1536POPC   C3A21557  10.662   6.427   7.977
 1536POPC   C4A21558  10.667   6.570   7.563
 1536POPC   C1B21559  10.459   7.125   8.818
 1536POPC   C2B21560  10.351   7.207   8.415
 1536POPC   C3B21561  10.540   6.959   8.088
 1536POPC   C4B21562  10.676   7.039   7.707
 1537POPC   NC321563  10.685   2.648   9.803
 1537POPC   PO421564  10.329   2.968   9.366
 1537POPC   GL121565  10.416   2.882   8.986
 1537POPC   GL221566  10.563   2.569   9.082
 1537POPC   C1A21567  10.391   2.822   8.581
 1537POPC   D2A21568  10.163   2.702   8.248
 1537POPC   C3A21569  10.233   2.939   7.887
 1537POPC   C4A21570  10.569   3.038   7.680
 1537POPC   C1B21571  10.850   2.597   8.721
 1537POPC   C2B21572  10.732   2.575   8.286
 1537POPC   C3B21573  10.615   2.559   7.874
 1537POPC   C4B21574  10.849   2.649   7.494
 1538POPC   NC321575  42.771   1.279   9.581
 1538POPC   PO421576  42.138   0.989   9.634
 1538POPC   GL121577  42.250   0.950   9.186
 1538POPC   GL221578  42.614   1.000   9.143
 1538POPC   C1A21579  42.129   1.128   8.800
 1538POPC   D2A21580  42.039   1.439   8.457
 1538POPC   C3A21581  41.978   1.271   8.035
 1538POPC   C4A21582  42.097   1.571   7.714
 1538POPC   C1B21583  42.570   0.839   8.730
 1538POPC   C2B21584  42.376   1.046   8.363
 1538POPC   C3B21585  42.486   1.252   8.004
 1538POPC   C4B21586  42.702   1.162   7.679
 1539POPC   NC321587   1.044   7.347   9.651
 1539POPC   PO421588   1.567   7.706   9.409
 1539POPC   GL121589   1.348   7.416   9.149
 1539POPC   GL221590   0.990   7.362   9.155
 1539POPC   C1A21591   1.292   7.558   8.738
 1539POPC   D2A21592   1.123   7.632   8.353
 1539POPC   C3A21593   1.367   7.581   8.009
 1539POPC   C4A21594   1.456   7.460   7.554
 1539POPC   C1B21595   1.023   7.095   8.803
 1539POPC   C2B21596   1.233   7.110   8.445
 1539POPC   C3B21597   1.358   7.088   8.058
 1539POPC   C4B21598   1.257   6.927   7.690
 1540POPC   NC321599  33.215  23.660   9.468
 1540POPC   PO421600  32.621  23.956   9.281
 1540POPC   GL121601  32.989  23.857   9.050
 1540POPC   GL221602  32.919  23.491   9.090
 1540POPC   C1A21603  33.060  23.878   8.603
 1540POPC   D2A21604  32.727  24.059   8.359
 1540POPC   C3A21605  32.735  23.998   7.922
 1540POPC   C4A21606  33.101  23.819   7.773
 1540POPC   C1B21607  32.797  23.189   8.775
 1540POPC   C2B21608  32.979  23.250   8.400
 1540POPC   C3B21609  32.785  23.526   8.110
 1540POPC   C4B21610  32.769  23.395   7.656
 1541POPC   NC321611  28.939  19.360   9.528
 1541POPC   PO421612  29.499  18.952   9.501
 1541POPC   GL121613  29.301  19.169   9.192
 1541POPC   GL221614  29.012  18.956   9.217
 1541POPC   C1A21615  29.332  19.092   8.763
 1541POPC   D2A21616  29.266  19.289   8.375
 1541POPC   C3A21617  29.368  19.034   8.055
 1541POPC   C4A21618  29.251  19.025   7.632
 1541POPC   C1B21619  28.821  18.976   8.824
 1541POPC   C2B21620  28.992  18.862   8.421
 1541POPC   C3B21621  28.871  18.942   8.007
 1541POPC   C4B21622  28.756  18.916   7.576
 1542POPC   NC321623  16.318  39.835   9.549
 1542POPC   PO421624  15.948  40.399   9.579
 1542POPC   GL121625  16.089  40.159   9.229
 1542POPC   GL221626  15.969  39.811   9.154
 1542POPC   C1A21627  16.338  40.151   8.859
 1542POPC   D2A21628  16.292  40.317   8.438
 1542POPC   C3A21629  16.299  40.064   8.059
 1542POPC   C4A21630  16.157  40.224   7.646
 1542POPC   C1B21631  16.296  39.593   8.877
 1542POPC   C2B21632  16.451  39.612   8.397
 1542POPC   C3B21633  16.233  39.543   7.983
 1542POPC   C4B21634  15.872  39.728   7.719
 1543POPC   NC321635  35.831  20.405   9.396
 1543POPC   PO421636  36.399  20.695   9.647
 1543POPC   GL121637  36.297  20.616   9.187
 1543POPC   GL221638  36.156  20.315   9.008
 1543POPC   C1A21639  36.417  20.711   8.732
 1543POPC   D2A21640  36.607  20.743   8.287
 1543POPC   C3A21641  36.401  20.487   7.923
 1543POPC   C4A21642  36.382  20.503   7.451
 1543POPC   C1B21643  35.790  20.455   8.738
 1543POPC   C2B21644  35.530  20.369   8.372
 1543POPC   C3B21645  35.638  20.285   7.960
 1543POPC   C4B21646  35.950  20.356   7.655
 1544POPC   NC321647  25.823  13.454   9.476
 1544POPC   PO421648  25.138  13.575   9.491
 1544POPC   GL121649  25.407  13.510   9.131
 1544POPC   GL221650  25.690  13.744   9.041
 1544POPC   C1A21651  25.231  13.356   8.732
 1544POPC   D2A21652  24.952  13.455   8.373
 1544POPC   C3A21653  25.211  13.372   8.001
 1544POPC   C4A21654  25.300  13.607   7.601
 1544POPC   C1B21655  25.351  13.862   8.742
 1544POPC   C2B21656  25.130  13.952   8.355
 1544POPC   C3B21657  25.306  13.954   7.974
 1544POPC   C4B21658  25.349  14.157   7.576
 1545POPC   NC321659  24.596  13.350   9.471
 1545POPC   PO421660  24.355  13.939   9.262
 1545POPC   GL121661  24.501  13.588   9.035
 1545POPC   GL221662  24.869  13.554   9.052
 1545POPC   C1A21663  24.356  13.550   8.647
 1545POPC   D2A21664  24.384  13.353   8.289
 1545POPC   C3A21665  24.327  13.544   7.938
 1545POPC   C4A21666  24.445  13.862   7.706
 1545POPC   C1B21667  24.771  13.870   8.706
 1545POPC   C2B21668  24.614  13.862   8.265
 1545POPC   C3B21669  24.852  13.692   7.913
 1545POPC   C4B21670  24.811  13.464   7.509
 1546POPC   NC321671  10.095   2.503   9.404
 1546POPC   PO421672   9.494   2.691   9.460
 1546POPC   GL121673   9.691   2.504   9.100
 1546POPC   GL221674   9.454   2.389   8.940
 1546POPC   C1A21675   9.892   2.648   8.709
 1546POPC   D2A21676   9.720   2.958   8.375
 1546POPC   C3A21677   9.739   2.814   7.951
 1546POPC   C4A21678  10.013   2.460   7.821
 1546POPC   C1B21679   9.379   2.718   8.661
 1546POPC   C2B21680   9.231   2.725   8.254
 1546POPC   C3B21681   9.376   2.432   7.913
 1546POPC   C4B21682   9.493   2.442   7.466
 1547POPC   NC321683   4.161  36.011   9.478
 1547POPC   PO421684   4.785  35.859   9.203
 1547POPC   GL121685   4.439  36.130   9.031
 1547POPC   GL221686   4.162  36.356   9.117
 1547POPC   C1A21687   4.521  36.211   8.618
 1547POPC   D2A21688   4.449  36.067   8.228
 1547POPC   C3A21689   4.556  36.228   7.831
 1547POPC   C4A21690   4.299  36.371   7.469
 1547POPC   C1B21691   4.015  36.302   8.725
 1547POPC   C2B21692   4.038  36.446   8.321
 1547POPC   C3B21693   4.062  36.229   7.929
 1547POPC   C4B21694   3.984  35.968   7.600
 1548POPC   NC321695  32.341  15.193   9.812
 1548POPC   PO421696  31.812  14.925   9.623
 1548POPC   GL121697  32.042  14.885   9.242
 1548POPC   GL221698  32.393  15.016   9.192
 1548POPC   C1A21699  32.107  14.822   8.812
 1548POPC   D2A21700  32.070  15.099   8.438
 1548POPC   C3A21701  32.175  14.953   8.013
 1548POPC   C4A21702  32.124  14.981   7.543
 1548POPC   C1B21703  32.480  15.174   8.730
 1548POPC   C2B21704  32.514  15.278   8.249
 1548POPC   C3B21705  32.648  15.134   7.801
 1548POPC   C4B21706  32.511  15.255   7.326
 1549POPC   NC321707   6.915  42.300   9.565
 1549POPC   PO421708   6.327  42.027   9.419
 1549POPC   GL121709   6.678  42.191   9.129
 1549POPC   GL221710   6.912  42.523   9.116
 1549POPC   C1A21711   6.669  42.336   8.717
 1549POPC   D2A21712   6.562  42.536   8.356
 1549POPC   C3A21713   6.678  42.278   8.016
 1549POPC   C4A21714   6.430  42.067   7.745
 1549POPC   C1B21715   7.191  42.523   8.762
 1549POPC   C2B21716   7.072  42.437   8.354
 1549POPC   C3B21717   7.096  42.553   7.916
 1549POPC   C4B21718   6.870  42.509   7.543
 1550POPC   NC321719  38.634  28.784   9.560
 1550POPC   PO421720  38.538  29.510   9.492
 1550POPC   GL121721  38.446  29.212   9.194
 1550POPC   GL221722  38.190  29.503   9.089
 1550POPC   C1A21723  38.413  29.047   8.807
 1550POPC   D2A21724  38.540  29.329   8.476
 1550POPC   C3A21725  38.497  29.210   8.065
 1550POPC   C4A21726  38.656  29.429   7.706
 1550POPC   C1B21727  38.041  29.378   8.691
 1550POPC   C2B21728  38.098  29.530   8.262
 1550POPC   C3B21729  38.152  29.482   7.827
 1550POPC   C4B21730  38.268  29.151   7.524
 1551POPC   NC321731  42.452  10.507   9.549
 1551POPC   PO421732  42.169   9.909   9.725
 1551POPC   GL121733  42.058  10.282   9.295
 1551POPC   GL221734  42.192  10.660   9.156
 1551POPC   C1A21735  42.123  10.345   8.804
 1551POPC   D2A21736  42.275  10.287   8.395
 1551POPC   C3A21737  42.045  10.340   8.026
 1551POPC   C4A21738  42.166  10.358   7.595
 1551POPC   C1B21739  42.582  10.586   8.865
 1551POPC   C2B21740  42.603  10.670   8.388
 1551POPC   C3B21741  42.543  10.438   7.971
 1551POPC   C4B21742  42.589  10.716   7.593
 1552POPC   NC321743  20.783   2.385   9.397
 1552POPC   PO421744  20.503   3.053   9.525
 1552POPC   GL121745  20.508   2.920   9.121
 1552POPC   GL221746  20.837   2.806   9.111
 1552POPC   C1A21747  20.450   2.851   8.688
 1552POPC   D2A21748  20.341   2.940   8.276
 1552POPC   C3A21749  20.491   2.692   7.914
 1552POPC   C4A21750  20.513   2.444   7.502
 1552POPC   C1B21751  20.912   2.629   8.735
 1552POPC   C2B21752  20.876   2.907   8.372
 1552POPC   C3B21753  20.980   3.021   7.976
 1552POPC   C4B21754  20.888   2.759   7.595
 1553POPC   NC321755   3.223  13.112   9.484
 1553POPC   PO421756   3.677  12.623   9.586
 1553POPC   GL121757   3.621  12.846   9.201
 1553POPC   GL221758   3.296  12.857   9.053
 1553POPC   C1A21759   3.711  12.926   8.770
 1553POPC   D2A21760   3.437  12.892   8.426
 1553POPC   C3A21761   3.621  12.961   8.012
 1553POPC   C4A21762   3.775  12.704   7.699
 1553POPC   C1B21763   3.048  12.681   8.725
 1553POPC   C2B21764   2.873  12.800   8.356
 1553POPC   C3B21765   3.136  12.817   8.009
 1553POPC   C4B21766   3.279  12.845   7.595
 1554POPC   NC321767  21.954  10.315   9.551
 1554POPC   PO421768  22.648  10.447   9.549
 1554POPC   GL121769  22.341  10.317   9.208
 1554POPC   GL221770  22.089  10.624   9.174
 1554POPC   C1A21771  22.273  10.409   8.758
 1554POPC   D2A21772  22.225  10.637   8.367
 1554POPC   C3A21773  22.298  10.445   7.960
 1554POPC   C4A21774  22.548  10.338   7.603
 1554POPC   C1B21775  21.850  10.716   8.783
 1554POPC   C2B21776  21.763  10.878   8.357
 1554POPC   C3B21777  21.808  10.661   7.939
 1554POPC   C4B21778  21.783  10.211   7.797
 1555POPC   NC321779  12.534  14.915   9.468
 1555POPC   PO421780  13.031  15.425   9.578
 1555POPC   GL121781  12.750  15.355   9.247
 1555POPC   GL221782  12.921  15.084   9.101
 1555POPC   C1A21783  12.635  15.402   8.811
 1555POPC   D2A21784  12.808  15.583   8.426
 1555POPC   C3A21785  12.720  15.346   8.070
 1555POPC   C4A21786  13.021  15.174   7.783
 1555POPC   C1B21787  13.078  15.171   8.665
 1555POPC   C2B21788  13.019  14.962   8.264
 1555POPC   C3B21789  13.129  14.697   7.905
 1555POPC   C4B21790  13.159  14.715   7.436
 1556POPC   NC321791  32.707   5.551   9.632
 1556POPC   PO421792  33.199   5.961   9.465
 1556POPC   GL121793  33.042   5.706   9.157
 1556POPC   GL221794  32.698   5.796   9.097
 1556POPC   C1A21795  33.212   5.543   8.773
 1556POPC   D2A21796  33.261   5.449   8.360
 1556POPC   C3A21797  33.017   5.740   8.119
 1556POPC   C4A21798  33.035   5.657   7.694
 1556POPC   C1B21799  32.904   5.920   8.661
 1556POPC   C2B21800  33.091   6.211   8.332
 1556POPC   C3B21801  33.025   6.280   7.867
 1556POPC   C4B21802  32.777   6.081   7.522
 1557POPC   NC321803  28.479  17.900   9.468
 1557POPC   PO421804  28.254  17.182   9.498
 1557POPC   GL121805  28.357  17.434   9.143
 1557POPC   GL221806  28.130  17.684   9.133
 1557POPC   C1A21807  28.576  17.622   8.775
 1557POPC   D2A21808  28.769  17.504   8.354
 1557POPC   C3A21809  28.436  17.517   8.043
 1557POPC   C4A21810  28.410  17.191   7.714
 1557POPC   C1B21811  28.025  17.660   8.729
 1557POPC   C2B21812  28.065  17.836   8.313
 1557POPC   C3B21813  27.912  17.951   7.894
 1557POPC   C4B21814  28.066  17.612   7.690
 1558POPC   NC321815  36.003  30.541   9.575
 1558POPC   PO421816  36.540  30.923   9.432
 1558POPC   GL121817  36.317  30.746   9.086
 1558POPC   GL221818  35.967  30.732   9.102
 1558POPC   C1A21819  36.367  30.525   8.733
 1558POPC   D2A21820  36.591  30.417   8.393
 1558POPC   C3A21821  36.398  30.652   8.057
 1558POPC   C4A21822  36.301  30.797   7.657
 1558POPC   C1B21823  35.928  30.854   8.718
 1558POPC   C2B21824  35.990  30.622   8.387
 1558POPC   C3B21825  35.698  30.429   8.124
 1558POPC   C4B21826  35.576  30.541   7.734
 1559POPC   NC321827  42.033  30.898   9.411
 1559POPC   PO421828  42.252  30.227   9.507
 1559POPC   GL121829  42.068  30.433   9.147
 1559POPC   GL221830  42.388  30.543   9.093
 1559POPC   C1A21831  41.994  30.604   8.687
 1559POPC   D2A21832  42.108  30.697   8.217
 1559POPC   C3A21833  41.970  30.872   7.803
 1559POPC   C4A21834  42.166  30.813   7.381
 1559POPC   C1B21835  42.483  30.709   8.652
 1559POPC   C2B21836  42.576  30.905   8.267
 1559POPC   C3B21837  42.507  30.835   7.851
 1559POPC   C4B21838  42.680  30.960   7.466
 1560POPC   NC321839  15.577   9.227   9.604
 1560POPC   PO421840  15.130   8.675   9.553
 1560POPC   GL121841  15.281   8.824   9.192
 1560POPC   GL221842  15.239   9.176   9.165
 1560POPC   C1A21843  15.439   8.939   8.771
 1560POPC   D2A21844  15.230   8.925   8.379
 1560POPC   C3A21845  15.480   8.981   7.991
 1560POPC   C4A21846  15.290   8.921   7.565
 1560POPC   C1B21847  14.984   9.225   8.764
 1560POPC   C2B21848  14.792   9.172   8.338
 1560POPC   C3B21849  14.991   9.111   7.949
 1560POPC   C4B21850  15.249   9.400   7.689
 1561POPC   NC321851  38.885  44.060   9.431
 1561POPC   PO421852  38.371  43.658   9.468
 1561POPC   GL121853  38.434  43.669   9.066
 1561POPC   GL221854  38.479  44.025   9.106
 1561POPC   C1A21855  38.233  43.830   8.694
 1561POPC   D2A21856  38.375  44.106   8.346
 1561POPC   C3A21857  38.348  43.934   7.919
 1561POPC   C4A21858  38.393  43.700   7.511
 1561POPC   C1B21859  38.713  44.041   8.751
 1561POPC   C2B21860  38.875  43.994   8.360
 1561POPC   C3B21861  38.791  44.177   8.001
 1561POPC   C4B21862  38.739  44.049   7.609
 1562POPC   NC321863  37.566  31.947   9.489
 1562POPC   PO421864  37.827  32.561   9.613
 1562POPC   GL121865  37.770  32.495   9.133
 1562POPC   GL221866  37.633  32.135   9.020
 1562POPC   C1A21867  37.939  32.396   8.719
 1562POPC   D2A21868  37.790  32.059   8.436
 1562POPC   C3A21869  37.974  32.137   8.028
 1562POPC   C4A21870  37.835  32.000   7.657
 1562POPC   C1B21871  37.418  32.362   8.693
 1562POPC   C2B21872  37.300  32.268   8.264
 1562POPC   C3B21873  37.532  32.412   7.878
 1562POPC   C4B21874  37.539  32.334   7.427
 1563POPC   NC321875  18.474  22.100   9.477
 1563POPC   PO421876  17.851  21.718   9.483
 1563POPC   GL121877  18.028  22.050   9.187
 1563POPC   GL221878  18.335  22.002   9.009
 1563POPC   C1A21879  18.008  22.313   8.817
 1563POPC   D2A21880  17.918  22.162   8.403
 1563POPC   C3A21881  17.914  22.378   8.017
 1563POPC   C4A21882  17.939  22.273   7.581
 1563POPC   C1B21883  18.416  22.061   8.578
 1563POPC   C2B21884  18.334  22.023   8.136
 1563POPC   C3B21885  18.430  22.235   7.761
 1563POPC   C4B21886  18.710  22.191   7.407
 1564POPC   NC321887  12.548   1.770   9.586
 1564POPC   PO421888  12.823   2.332   9.373
 1564POPC   GL121889  12.619   2.098   9.103
 1564POPC   GL221890  12.699   1.738   9.068
 1564POPC   C1A21891  12.600   2.045   8.685
 1564POPC   D2A21892  12.873   2.168   8.406
 1564POPC   C3A21893  12.669   2.155   8.030
 1564POPC   C4A21894  12.546   2.007   7.657
 1564POPC   C1B21895  12.916   1.603   8.676
 1564POPC   C2B21896  12.875   1.678   8.257
 1564POPC   C3B21897  12.944   1.722   7.849
 1564POPC   C4B21898  12.831   1.679   7.417
 1565POPC   NC321899  17.159  28.704   9.434
 1565POPC   PO421900  17.534  28.130   9.506
 1565POPC   GL121901  17.331  28.266   9.162
 1565POPC   GL221902  17.508  28.563   9.068
 1565POPC   C1A21903  17.244  28.274   8.732
 1565POPC   D2A21904  17.540  28.465   8.422
 1565POPC   C3A21905  17.364  28.477   7.999
 1565POPC   C4A21906  17.232  28.184   7.640
 1565POPC   C1B21907  17.745  28.831   8.743
 1565POPC   C2B21908  17.895  28.873   8.307
 1565POPC   C3B21909  17.697  28.913   7.909
 1565POPC   C4B21910  17.673  28.597   7.613
 1566POPC   NC321911  34.471  15.851   9.503
 1566POPC   PO421912  35.023  16.223   9.538
 1566POPC   GL121913  34.798  16.059   9.183
 1566POPC   GL221914  34.836  15.696   9.203
 1566POPC   C1A21915  34.579  16.147   8.815
 1566POPC   D2A21916  34.576  16.385   8.473
 1566POPC   C3A21917  34.492  16.094   8.137
 1566POPC   C4A21918  34.440  15.924   7.742
 1566POPC   C1B21919  34.466  15.657   8.867
 1566POPC   C2B21920  34.254  15.658   8.452
 1566POPC   C3B21921  34.080  15.648   8.037
 1566POPC   C4B21922  34.189  15.499   7.612
 1567POPC   NC321923  38.527   0.003   9.666
 1567POPC   PO421924  38.890  44.512   9.447
 1567POPC   GL121925  38.574  44.532   9.164
 1567POPC   GL221926  38.433  44.861   9.070
 1567POPC   C1A21927  38.416  44.450   8.764
 1567POPC   D2A21928  38.493  44.666   8.400
 1567POPC   C3A21929  38.350  44.507   8.026
 1567POPC   C4A21930  38.592  44.539   7.664
 1567POPC   C1B21931  38.297   0.079   8.656
 1567POPC   C2B21932  38.099  44.981   8.231
 1567POPC   C3B21933  38.148  44.931   7.755
 1567POPC   C4B21934  38.040   0.001   7.279
 1568POPC   NC321935  22.791  30.275   9.619
 1568POPC   PO421936  22.938  29.678   9.627
 1568POPC   GL121937  23.083  29.714   9.222
 1568POPC   GL221938  22.855  30.010   9.164
 1568POPC   C1A21939  23.239  29.796   8.799
 1568POPC   D2A21940  23.455  29.683   8.408
 1568POPC   C3A21941  23.248  29.878   8.069
 1568POPC   C4A21942  23.114  29.764   7.658
 1568POPC   C1B21943  22.604  30.016   8.790
 1568POPC   C2B21944  22.631  29.803   8.388
 1568POPC   C3B21945  22.719  29.911   7.960
 1568POPC   C4B21946  22.683  30.003   7.532
 1569POPC   NC321947   7.352   5.481   9.496
 1569POPC   PO421948   7.683   6.097   9.451
 1569POPC   GL121949   7.454   5.997   9.071
 1569POPC   GL221950   7.282   5.668   9.035
 1569POPC   C1A21951   7.473   6.219   8.677
 1569POPC   D2A21952   7.329   6.107   8.283
 1569POPC   C3A21953   7.603   6.098   7.955
 1569POPC   C4A21954   7.599   5.692   7.775
 1569POPC   C1B21955   7.464   5.702   8.646
 1569POPC   C2B21956   7.495   5.533   8.262
 1569POPC   C3B21957   7.155   5.467   7.991
 1569POPC   C4B21958   7.001   5.463   7.598
 1570POPC   NC321959  20.987  29.452   9.374
 1570POPC   PO421960  20.614  30.004   9.596
 1570POPC   GL121961  20.574  29.997   9.145
 1570POPC   GL221962  20.845  29.811   9.026
 1570POPC   C1A21963  20.417  30.086   8.711
 1570POPC   D2A21964  20.566  29.960   8.263
 1570POPC   C3A21965  20.384  29.977   7.861
 1570POPC   C4A21966  20.699  30.112   7.609
 1570POPC   C1B21967  20.684  29.650   8.650
 1570POPC   C2B21968  20.736  29.475   8.278
 1570POPC   C3B21969  20.805  29.641   7.885
 1570POPC   C4B21970  20.694  29.611   7.475
 1571POPC   NC321971  43.761  37.339   9.584
 1571POPC   PO421972  43.887  36.747   9.789
 1571POPC   GL121973  43.847  36.876   9.307
 1571POPC   GL221974  44.127  37.086   9.264
 1571POPC   C1A21975  43.797  36.943   8.806
 1571POPC   D2A21976  44.009  37.019   8.351
 1571POPC   C3A21977  43.925  36.730   7.994
 1571POPC   C4A21978  43.686  36.828   7.610
 1571POPC   C1B21979  44.245  37.264   8.877
 1571POPC   C2B21980  44.461  37.249   8.489
 1571POPC   C3B21981  44.419  37.200   8.050
 1571POPC   C4B21982  44.045  37.176   7.777
 1572POPC   NC321983  21.195  10.202   9.381
 1572POPC   PO421984  21.601  10.853   9.581
 1572POPC   GL121985  21.464  10.737   9.154
 1572POPC   GL221986  21.129  10.623   9.119
 1572POPC   C1A21987  21.342  10.758   8.709
 1572POPC   D2A21988  21.453  10.469   8.458
 1572POPC   C3A21989  21.322  10.631   8.111
 1572POPC   C4A21990  21.307  10.413   7.776
 1572POPC   C1B21991  21.006  10.350   8.771
 1572POPC   C2B21992  20.986  10.269   8.338
 1572POPC   C3B21993  20.832  10.392   7.960
 1572POPC   C4B21994  20.832  10.290   7.556
 1573POPC   NC321995  35.763  29.667   9.530
 1573POPC   PO421996  35.291  30.119   9.507
 1573POPC   GL121997  35.402  30.164   9.086
 1573POPC   GL221998  35.712  30.052   9.189
 1573POPC   C1A21999  35.485  30.020   8.676
 1573POPC   D2A22000  35.468  29.991   8.248
 1573POPC   C3A22001  35.237  29.775   7.945
 1573POPC   C4A22002  35.264  30.121   7.658
 1573POPC   C1B22003  35.887  29.783   8.859
 1573POPC   C2B22004  35.847  29.640   8.443
 1573POPC   C3B22005  35.887  29.811   8.056
 1573POPC   C4B22006  35.679  29.835   7.686
 1574POPC   NC322007  29.065  41.711   9.549
 1574POPC   PO422008  29.569  41.253   9.458
 1574POPC   GL122009  29.218  41.320   9.219
 1574POPC   GL222010  29.195  41.606   9.087
 1574POPC   C1A22011  29.214  41.233   8.765
 1574POPC   D2A22012  28.945  41.272   8.452
 1574POPC   C3A22013  29.185  41.229   8.113
 1574POPC   C4A22014  28.976  41.282   7.759
 1574POPC   C1B22015  29.054  41.751   8.712
 1574POPC   C2B22016  28.898  41.788   8.310
 1574POPC   C3B22017  29.103  41.752   7.928
 1574POPC   C4B22018  29.183  41.772   7.477
 1575POPC   NC322019  20.148  41.691   9.445
 1575POPC   PO422020  19.501  41.351   9.446
 1575POPC   GL122021  19.776  41.494   9.136
 1575POPC   GL222022  19.743  41.888   9.175
 1575POPC   C1A22023  19.901  41.326   8.721
 1575POPC   D2A22024  19.687  41.142   8.340
 1575POPC   C3A22025  19.802  41.249   7.911
 1575POPC   C4A22026  19.662  41.391   7.508
 1575POPC   C1B22027  19.677  41.788   8.733
 1575POPC   C2B22028  19.883  41.687   8.326
 1575POPC   C3B22029  19.770  41.766   7.910
 1575POPC   C4B22030  19.512  41.867   7.543
 1576POPC   NC322031  28.267  15.764   9.573
 1576POPC   PO422032  28.090  16.426   9.351
 1576POPC   GL122033  28.314  16.036   9.138
 1576POPC   GL222034  28.670  15.982   9.158
 1576POPC   C1A22035  28.444  15.933   8.694
 1576POPC   D2A22036  28.261  15.642   8.407
 1576POPC   C3A22037  28.341  15.832   8.036
 1576POPC   C4A22038  28.465  15.677   7.672
 1576POPC   C1B22039  28.801  16.265   8.813
 1576POPC   C2B22040  28.565  16.415   8.456
 1576POPC   C3B22041  28.618  16.295   8.065
 1576POPC   C4B22042  28.582  16.157   7.659
 1577POPC   NC322043  40.189   9.237   9.435
 1577POPC   PO422044  39.851   8.643   9.525
 1577POPC   GL122045  39.807   8.679   9.104
 1577POPC   GL222046  39.819   9.030   9.143
 1577POPC   C1A22047  40.054   8.823   8.732
 1577POPC   D2A22048  40.321   8.742   8.385
 1577POPC   C3A22049  40.130   8.807   8.004
 1577POPC   C4A22050  39.754   8.728   7.834
 1577POPC   C1B22051  39.990   9.326   8.823
 1577POPC   C2B22052  40.029   9.255   8.398
 1577POPC   C3B22053  39.816   9.224   8.016
 1577POPC   C4B22054  39.567   9.180   7.674
 1578POPC   NC322055  28.575  11.833   9.558
 1578POPC   PO422056  27.926  11.809   9.659
 1578POPC   GL122057  28.188  12.066   9.296
 1578POPC   GL222058  28.391  12.383   9.361
 1578POPC   C1A22059  28.339  11.938   8.850
 1578POPC   D2A22060  28.194  11.912   8.398
 1578POPC   C3A22061  28.444  11.853   8.017
 1578POPC   C4A22062  28.379  11.895   7.577
 1578POPC   C1B22063  28.482  12.431   8.915
 1578POPC   C2B22064  28.561  12.255   8.482
 1578POPC   C3B22065  28.505  12.371   8.021
 1578POPC   C4B22066  28.690  12.271   7.600
 1579POPC   NC322067   5.956  37.102   9.540
 1579POPC   PO422068   5.310  36.953   9.513
 1579POPC   GL122069   5.649  36.833   9.196
 1579POPC   GL222070   5.964  37.008   9.051
 1579POPC   C1A22071   5.764  36.602   8.823
 1579POPC   D2A22072   5.955  36.737   8.444
 1579POPC   C3A22073   5.714  36.663   8.079
 1579POPC   C4A22074   5.835  36.726   7.668
 1579POPC   C1B22075   5.658  37.120   8.752
 1579POPC   C2B22076   5.616  37.121   8.340
 1579POPC   C3B22077   5.892  37.139   8.015
 1579POPC   C4B22078   5.614  37.177   7.714
 1580POPC   NC322079  22.350   1.413   9.417
 1580POPC   PO422080  22.151   0.909   9.623
 1580POPC   GL122081  22.091   1.116   9.139
 1580POPC   GL222082  21.862   1.436   9.183
 1580POPC   C1A22083  22.249   1.107   8.681
 1580POPC   D2A22084  22.556   1.278   8.373
 1580POPC   C3A22085  22.398   1.219   7.943
 1580POPC   C4A22086  22.098   0.910   7.816
 1580POPC   C1B22087  22.040   1.564   8.778
 1580POPC   C2B22088  22.081   1.499   8.347
 1580POPC   C3B22089  21.923   1.410   7.950
 1580POPC   C4B22090  22.071   1.609   7.565
 1581POPC   NC322091   2.823  15.538   9.669
 1581POPC   PO422092   2.604  16.192   9.735
 1581POPC   GL122093   2.708  15.997   9.325
 1581POPC   GL222094   2.442  15.748   9.338
 1581POPC   C1A22095   2.678  16.118   8.857
 1581POPC   D2A22096   2.919  16.125   8.457
 1581POPC   C3A22097   2.827  15.891   8.092
 1581POPC   C4A22098   2.999  15.913   7.672
 1581POPC   C1B22099   2.487  15.644   8.889
 1581POPC   C2B22100   2.553  15.396   8.498
 1581POPC   C3B22101   2.444  15.479   8.075
 1581POPC   C4B22102   2.432  15.850   7.794
 1582POPC   NC322103  34.421  11.769   9.400
 1582POPC   PO422104  34.873  11.255   9.448
 1582POPC   GL122105  34.643  11.366   9.117
 1582POPC   GL222106  34.857  11.186   8.913
 1582POPC   C1A22107  34.426  11.412   8.723
 1582POPC   D2A22108  34.609  11.382   8.306
 1582POPC   C3A22109  34.499  11.012   8.044
 1582POPC   C4A22110  34.279  10.824   7.690
 1582POPC   C1B22111  35.067  10.977   8.592
 1582POPC   C2B22112  35.034  11.099   8.215
 1582POPC   C3B22113  34.898  11.321   7.876
 1582POPC   C4B22114  34.492  11.440   7.735
 1583POPC   NC322115  13.396   1.277   9.395
 1583POPC   PO422116  13.883   0.840   9.510
 1583POPC   GL122117  13.805   1.068   9.156
 1583POPC   GL222118  13.855   1.429   9.196
 1583POPC   C1A22119  13.586   0.978   8.767
 1583POPC   D2A22120  13.699   1.125   8.409
 1583POPC   C3A22121  13.553   1.006   8.059
 1583POPC   C4A22122  13.646   1.054   7.679
 1583POPC   C1B22123  13.677   1.473   8.792
 1583POPC   C2B22124  13.765   1.628   8.404
 1583POPC   C3B22125  13.798   1.474   8.043
 1583POPC   C4B22126  13.828   1.554   7.670
 1584POPC   NC322127  22.044  28.288   9.779
 1584POPC   PO422128  22.169  27.649   9.596
 1584POPC   GL122129  22.243  27.475   9.181
 1584POPC   GL222130  22.069  27.678   8.952
 1584POPC   C1A22131  22.156  27.224   8.777
 1584POPC   D2A22132  22.008  27.477   8.436
 1584POPC   C3A22133  22.207  27.583   8.047
 1584POPC   C4A22134  22.247  27.317   7.681
 1584POPC   C1B22135  21.752  27.843   8.706
 1584POPC   C2B22136  21.851  27.974   8.307
 1584POPC   C3B22137  21.802  27.929   7.900
 1584POPC   C4B22138  22.199  28.023   7.720
 1585POPC   NC322139  12.955   4.695   9.786
 1585POPC   PO422140  12.591   5.178   9.590
 1585POPC   GL122141  12.600   5.334   9.169
 1585POPC   GL222142  12.483   5.012   9.100
 1585POPC   C1A22143  12.835   5.207   8.773
 1585POPC   D2A22144  12.819   4.906   8.416
 1585POPC   C3A22145  12.887   5.130   8.031
 1585POPC   C4A22146  13.136   4.892   7.779
 1585POPC   C1B22147  12.348   5.114   8.729
 1585POPC   C2B22148  12.457   5.242   8.357
 1585POPC   C3B22149  12.421   4.961   8.038
 1585POPC   C4B22150  12.577   4.882   7.672
 1586POPC   NC322151  12.391   5.581   9.651
 1586POPC   PO422152  12.511   6.158   9.533
 1586POPC   GL122153  12.626   5.890   9.177
 1586POPC   GL222154  12.618   6.179   8.975
 1586POPC   C1A22155  12.739   5.740   8.722
 1586POPC   D2A22156  12.900   5.907   8.290
 1586POPC   C3A22157  13.024   5.694   7.897
 1586POPC   C4A22158  13.008   5.890   7.480
 1586POPC   C1B22159  12.854   6.318   8.625
 1586POPC   C2B22160  12.811   6.414   8.197
 1586POPC   C3B22161  12.798   6.202   7.820
 1586POPC   C4B22162  12.509   6.044   7.519
 1587POPC   NC322163  39.788  32.718   9.437
 1587POPC   PO422164  40.162  33.385   9.435
 1587POPC   GL122165  40.234  33.294   9.040
 1587POPC   GL222166  40.058  32.983   9.083
 1587POPC   C1A22167  40.099  33.244   8.614
 1587POPC   D2A22168  39.812  33.179   8.267
 1587POPC   C3A22169  40.045  33.205   7.870
 1587POPC   C4A22170  39.938  33.379   7.457
 1587POPC   C1B22171  39.757  32.877   8.770
 1587POPC   C2B22172  39.733  32.670   8.389
 1587POPC   C3B22173  39.823  32.731   7.977
 1587POPC   C4B22174  39.784  32.900   7.560
 1588POPC   NC322175  41.821  19.147   9.842
 1588POPC   PO422176  42.390  18.963   9.471
 1588POPC   GL122177  42.165  19.157   9.152
 1588POPC   GL222178  42.066  18.833   9.031
 1588POPC   C1A22179  42.269  19.222   8.713
 1588POPC   D2A22180  42.473  18.992   8.347
 1588POPC   C3A22181  42.387  19.171   7.950
 1588POPC   C4A22182  42.614  19.231   7.570
 1588POPC   C1B22183  42.196  18.723   8.677
 1588POPC   C2B22184  42.033  18.639   8.321
 1588POPC   C3B22185  42.245  18.691   7.970
 1588POPC   C4B22186  42.162  18.890   7.581
 1589POPC   NC322187   0.967   4.558   9.874
 1589POPC   PO422188   1.210   5.130   9.561
 1589POPC   GL122189   1.069   5.202   9.144
 1589POPC   GL222190   0.812   4.970   9.074
 1589POPC   C1A22191   1.164   5.166   8.721
 1589POPC   D2A22192   1.357   5.202   8.325
 1589POPC   C3A22193   1.108   5.120   7.947
 1589POPC   C4A22194   1.268   4.972   7.555
 1589POPC   C1B22195   0.864   4.737   8.696
 1589POPC   C2B22196   0.932   4.655   8.256
 1589POPC   C3B22197   1.028   4.625   7.821
 1589POPC   C4B22198   0.806   4.798   7.437
 1590POPC   NC322199   4.306  34.035   9.824
 1590POPC   PO422200   4.445  34.589   9.482
 1590POPC   GL122201   4.314  34.520   9.124
 1590POPC   GL222202   3.948  34.577   9.147
 1590POPC   C1A22203   4.311  34.299   8.738
 1590POPC   D2A22204   4.228  34.469   8.349
 1590POPC   C3A22205   4.486  34.422   7.983
 1590POPC   C4A22206   4.731  34.792   7.837
 1590POPC   C1B22207   4.094  34.801   8.773
 1590POPC   C2B22208   3.936  34.895   8.378
 1590POPC   C3B22209   4.051  34.720   7.952
 1590POPC   C4B22210   4.268  34.719   7.606
 1591POPC   NC322211  36.260   6.156   9.428
 1591POPC   PO422212  35.676   5.848   9.443
 1591POPC   GL122213  35.955   5.862   9.088
 1591POPC   GL222214  36.261   6.045   8.948
 1591POPC   C1A22215  35.869   5.741   8.697
 1591POPC   D2A22216  36.051   5.735   8.321
 1591POPC   C3A22217  36.071   6.012   8.060
 1591POPC   C4A22218  36.270   5.837   7.735
 1591POPC   C1B22219  36.446   5.854   8.617
 1591POPC   C2B22220  36.576   5.918   8.207
 1591POPC   C3B22221  36.571   6.215   7.881
 1591POPC   C4B22222  36.571   6.137   7.429
 1592POPC   NC322223   8.264  14.696   9.543
 1592POPC   PO422224   7.989  14.050   9.537
 1592POPC   GL122225   8.090  14.388   9.205
 1592POPC   GL222226   8.406  14.422   9.097
 1592POPC   C1A22227   8.045  14.549   8.751
 1592POPC   D2A22228   8.334  14.545   8.363
 1592POPC   C3A22229   8.093  14.516   7.959
 1592POPC   C4A22230   8.107  14.676   7.532
 1592POPC   C1B22231   8.424  14.197   8.725
 1592POPC   C2B22232   8.533  14.044   8.335
 1592POPC   C3B22233   8.536  14.275   7.980
 1592POPC   C4B22234   8.410  14.236   7.592
 1593POPC   NC322235   1.497  39.979   9.563
 1593POPC   PO422236   0.840  39.861   9.291
 1593POPC   GL122237   1.272  39.799   9.102
 1593POPC   GL222238   1.347  40.096   9.086
 1593POPC   C1A22239   1.427  39.838   8.651
 1593POPC   D2A22240   1.421  39.652   8.260
 1593POPC   C3A22241   1.340  39.904   7.937
 1593POPC   C4A22242   0.956  39.772   7.703
 1593POPC   C1B22243   1.064  40.188   8.763
 1593POPC   C2B22244   1.084  40.121   8.341
 1593POPC   C3B22245   0.934  40.206   7.946
 1593POPC   C4B22246   1.236  40.313   7.638
 1594POPC   NC322247  24.904  37.127   9.505
 1594POPC   PO422248  25.375  37.591   9.622
 1594POPC   GL122249  25.161  37.671   9.207
 1594POPC   GL222250  25.145  37.388   9.033
 1594POPC   C1A22251  25.144  37.798   8.745
 1594POPC   D2A22252  25.343  37.681   8.358
 1594POPC   C3A22253  25.209  37.804   7.947
 1594POPC   C4A22254  25.382  37.722   7.527
 1594POPC   C1B22255  25.238  37.221   8.624
 1594POPC   C2B22256  25.022  37.279   8.197
 1594POPC   C3B22257  25.148  37.318   7.742
 1594POPC   C4B22258  25.207  37.330   7.246
 1595POPC   NC322259  28.139  31.198   9.502
 1595POPC   PO422260  28.585  30.680   9.402
 1595POPC   GL122261  28.352  30.712   9.076
 1595POPC   GL222262  28.085  30.930   9.088
 1595POPC   C1A22263  28.417  30.839   8.690
 1595POPC   D2A22264  28.333  30.660   8.282
 1595POPC   C3A22265  28.536  30.828   7.911
 1595POPC   C4A22266  28.706  30.603   7.541
 1595POPC   C1B22267  27.920  30.713   8.740
 1595POPC   C2B22268  27.861  30.849   8.333
 1595POPC   C3B22269  27.995  30.866   7.913
 1595POPC   C4B22270  28.216  30.737   7.490
 1596POPC   NC322271  25.231  39.077   9.549
 1596POPC   PO422272  25.721  39.584   9.481
 1596POPC   GL122273  25.406  39.469   9.185
 1596POPC   GL222274  25.521  39.140   9.139
 1596POPC   C1A22275  25.318  39.399   8.734
 1596POPC   D2A22276  25.251  39.244   8.343
 1596POPC   C3A22277  25.454  39.423   7.988
 1596POPC   C4A22278  25.270  39.374   7.614
 1596POPC   C1B22279  25.459  38.914   8.779
 1596POPC   C2B22280  25.577  38.854   8.349
 1596POPC   C3B22281  25.393  38.920   7.915
 1596POPC   C4B22282  24.991  38.964   7.725
 1597POPC   NC322283   0.806  30.519   9.614
 1597POPC   PO422284   1.181  30.934   9.264
 1597POPC   GL122285   1.292  30.545   9.115
 1597POPC   GL222286   0.995  30.333   9.107
 1597POPC   C1A22287   1.441  30.381   8.723
 1597POPC   D2A22288   1.606  30.417   8.304
 1597POPC   C3A22289   1.371  30.766   8.129
 1597POPC   C4A22290   1.429  31.040   7.793
 1597POPC   C1B22291   0.928  30.558   8.714
 1597POPC   C2B22292   0.924  30.566   8.264
 1597POPC   C3B22293   0.914  30.651   7.844
 1597POPC   C4B22294   0.961  31.042   7.610
 1598POPC   NC322295  29.908  32.365   9.428
 1598POPC   PO422296  29.932  31.733   9.608
 1598POPC   GL122297  29.889  31.887   9.189
 1598POPC   GL222298  29.535  31.925   9.237
 1598POPC   C1A22299  30.045  31.832   8.739
 1598POPC   D2A22300  30.151  31.902   8.271
 1598POPC   C3A22301  30.114  32.346   8.081
 1598POPC   C4A22302  30.003  32.466   7.652
 1598POPC   C1B22303  29.538  31.882   8.780
 1598POPC   C2B22304  29.630  32.070   8.359
 1598POPC   C3B22305  29.724  32.081   7.912
 1598POPC   C4B22306  29.724  32.100   7.458
 1599POPC   NC322307  22.747  10.920   9.620
 1599POPC   PO422308  23.041  11.554   9.485
 1599POPC   GL122309  22.916  11.529   9.093
 1599POPC   GL222310  22.842  11.178   9.185
 1599POPC   C1A22311  22.655  11.384   8.772
 1599POPC   D2A22312  22.872  11.250   8.416
 1599POPC   C3A22313  22.677  11.410   8.076
 1599POPC   C4A22314  22.808  11.604   7.712
 1599POPC   C1B22315  23.159  11.155   8.858
 1599POPC   C2B22316  23.269  10.940   8.501
 1599POPC   C3B22317  23.196  11.047   8.077
 1599POPC   C4B22318  23.319  10.930   7.687
 1600POPC   NC322319  14.379   3.668   9.408
 1600POPC   PO422320  14.562   3.078   9.329
 1600POPC   GL122321  14.187   3.304   9.057
 1600POPC   GL222322  14.094   3.664   8.985
 1600POPC   C1A22323  14.072   3.325   8.606
 1600POPC   D2A22324  14.373   3.522   8.315
 1600POPC   C3A22325  14.408   3.361   7.947
 1600POPC   C4A22326  14.008   3.316   7.762
 1600POPC   C1B22327  14.360   3.891   8.657
 1600POPC   C2B22328  14.313   4.023   8.215
 1600POPC   C3B22329  14.182   3.798   7.861
 1600POPC   C4B22330  14.402   3.669   7.499
 1601POPC   NC322331  11.394  41.374   9.414
 1601POPC   PO422332  11.559  42.038   9.287
 1601POPC   GL122333  11.303  41.737   9.038
 1601POPC   GL222334  11.046  41.435   9.071
 1601POPC   C1A22335  11.496  41.613   8.661
 1601POPC   D2A22336  11.472  41.319   8.330
 1601POPC   C3A22337  11.638  41.505   7.963
 1601POPC   C4A22338  11.387  41.751   7.697
 1601POPC   C1B22339  11.079  41.341   8.705
 1601POPC   C2B22340  11.021  41.570   8.361
 1601POPC   C3B22341  11.072  41.465   7.966
 1601POPC   C4B22342  10.852  41.477   7.597
 1602POPC   NC322343   5.351  41.943   9.452
 1602POPC   PO422344   4.893  41.429   9.670
 1602POPC   GL122345   5.044  41.434   9.181
 1602POPC   GL222346   5.322  41.641   9.065
 1602POPC   C1A22347   5.064  41.355   8.710
 1602POPC   D2A22348   4.767  41.373   8.344
 1602POPC   C3A22349   4.825  41.617   7.922
 1602POPC   C4A22350   4.739  41.659   7.444
 1602POPC   C1B22351   5.419  41.790   8.654
 1602POPC   C2B22352   5.168  41.679   8.290
 1602POPC   C3B22353   5.190  41.275   8.010
 1602POPC   C4B22354   4.956  41.158   7.608
 1603POPC   NC322355  24.607   6.675   9.776
 1603POPC   PO422356  24.074   6.378   9.464
 1603POPC   GL122357  24.350   6.523   9.157
 1603POPC   GL222358  24.607   6.773   9.236
 1603POPC   C1A22359  24.568   6.397   8.794
 1603POPC   D2A22360  24.671   6.611   8.397
 1603POPC   C3A22361  24.544   6.463   7.966
 1603POPC   C4A22362  24.792   6.357   7.640
 1603POPC   C1B22363  24.517   6.914   8.817
 1603POPC   C2B22364  24.345   6.986   8.405
 1603POPC   C3B22365  24.523   6.974   8.024
 1603POPC   C4B22366  24.287   6.880   7.686
 1604POPC   NC322367  37.841  12.585   9.250
 1604POPC   PO422368  37.312  12.271   9.263
 1604POPC   GL122369  37.393  12.626   9.016
 1604POPC   GL222370  37.460  12.953   9.197
 1604POPC   C1A22371  37.546  12.657   8.603
 1604POPC   D2A22372  37.390  12.612   8.179
 1604POPC   C3A22373  37.674  12.669   7.854
 1604POPC   C4A22374  37.763  12.813   7.429
 1604POPC   C1B22375  37.533  13.185   8.824
 1604POPC   C2B22376  37.471  13.115   8.387
 1604POPC   C3B22377  37.701  13.164   8.019
 1604POPC   C4B22378  37.476  13.159   7.663
 1605POPC   NC322379  18.770  39.524   9.513
 1605POPC   PO422380  19.036  38.927   9.286
 1605POPC   GL122381  18.738  39.167   9.137
 1605POPC   GL222382  19.023  39.394   9.074
 1605POPC   C1A22383  18.656  39.295   8.726
 1605POPC   D2A22384  18.943  39.406   8.454
 1605POPC   C3A22385  18.985  39.332   8.041
 1605POPC   C4A22386  19.220  38.971   7.873
 1605POPC   C1B22387  19.341  39.442   8.764
 1605POPC   C2B22388  19.396  39.619   8.370
 1605POPC   C3B22389  19.492  39.407   7.989
 1605POPC   C4B22390  19.289  39.420   7.614
 1606POPC   NC322391  22.126  14.818   9.455
 1606POPC   PO422392  22.471  14.217   9.398
 1606POPC   GL122393  22.589  14.459   9.052
 1606POPC   GL222394  22.526  14.825   9.105
 1606POPC   C1A22395  22.532  14.343   8.606
 1606POPC   D2A22396  22.292  14.067   8.342
 1606POPC   C3A22397  22.146  14.258   7.942
 1606POPC   C4A22398  21.740  14.140   7.747
 1606POPC   C1B22399  22.206  14.715   8.782
 1606POPC   C2B22400  22.139  14.628   8.327
 1606POPC   C3B22401  21.873  14.739   7.950
 1606POPC   C4B22402  22.000  14.582   7.544
 1607POPC   NC322403   4.911  28.878   9.738
 1607POPC   PO422404   5.271  29.398   9.721
 1607POPC   GL122405   5.202  29.353   9.250
 1607POPC   GL222406   5.088  29.001   9.198
 1607POPC   C1A22407   5.286  29.264   8.797
 1607POPC   D2A22408   5.183  29.021   8.415
 1607POPC   C3A22409   5.380  29.053   8.021
 1607POPC   C4A22410   5.321  28.844   7.640
 1607POPC   C1B22411   4.832  29.031   8.779
 1607POPC   C2B22412   4.648  28.916   8.388
 1607POPC   C3B22413   4.881  28.906   8.004
 1607POPC   C4B22414   4.945  29.282   7.736
 1608POPC   NC322415  22.770   9.299   9.947
 1608POPC   PO422416  22.211   8.971   9.574
 1608POPC   GL122417  22.266   9.070   9.144
 1608POPC   GL222418  21.934   9.025   9.090
 1608POPC   C1A22419  22.245   8.869   8.723
 1608POPC   D2A22420  22.476   8.858   8.367
 1608POPC   C3A22421  22.278   8.881   7.934
 1608POPC   C4A22422  22.416   9.062   7.502
 1608POPC   C1B22423  21.841   9.236   8.710
 1608POPC   C2B22424  21.852   9.034   8.343
 1608POPC   C3B22425  21.813   9.203   7.966
 1608POPC   C4B22426  21.927   9.024   7.588
 1609POPC   NC322427   6.331  36.637   9.812
 1609POPC   PO422428   6.757  36.150   9.612
 1609POPC   GL122429   6.758  36.091   9.185
 1609POPC   GL222430   7.030  36.352   9.197
 1609POPC   C1A22431   6.674  35.951   8.754
 1609POPC   D2A22432   6.638  35.780   8.338
 1609POPC   C3A22433   6.572  36.071   7.984
 1609POPC   C4A22434   6.498  35.964   7.547
 1609POPC   C1B22435   6.988  36.361   8.769
 1609POPC   C2B22436   6.806  36.299   8.398
 1609POPC   C3B22437   6.825  36.511   8.022
 1609POPC   C4B22438   6.640  36.448   7.636
 1610POPC   NC322439  12.478  12.171   9.508
 1610POPC   PO422440  13.071  11.940   9.461
 1610POPC   GL122441  12.945  11.844   9.067
 1610POPC   GL222442  12.587  11.888   9.095
 1610POPC   C1A22443  13.122  11.914   8.655
 1610POPC   D2A22444  13.040  12.171   8.296
 1610POPC   C3A22445  13.143  11.951   7.917
 1610POPC   C4A22446  13.105  12.160   7.493
 1610POPC   C1B22447  12.656  12.171   8.769
 1610POPC   C2B22448  12.538  12.093   8.366
 1610POPC   C3B22449  12.659  12.113   7.950
 1610POPC   C4B22450  12.494  12.423   7.742
 1611POPC   NC322451  26.327   0.835   9.531
 1611POPC   PO422452  26.037   1.344   9.560
 1611POPC   GL122453  25.959   1.385   9.125
 1611POPC   GL222454  26.276   1.533   9.031
 1611POPC   C1A22455  25.873   1.252   8.689
 1611POPC   D2A22456  25.983   0.994   8.328
 1611POPC   C3A22457  25.903   1.199   7.916
 1611POPC   C4A22458  26.175   1.144   7.550
 1611POPC   C1B22459  26.390   1.292   8.638
 1611POPC   C2B22460  26.237   1.425   8.237
 1611POPC   C3B22461  26.238   1.605   7.836
 1611POPC   C4B22462  26.343   1.590   7.355
 1612POPC   NC322463   0.322  30.329   9.439
 1612POPC   PO422464   0.601  30.942   9.652
 1612POPC   GL122465   0.673  30.798   9.202
 1612POPC   GL222466   0.520  30.536   9.029
 1612POPC   C1A22467   0.619  30.989   8.792
 1612POPC   D2A22468   0.480  30.748   8.452
 1612POPC   C3A22469   0.495  30.869   8.026
 1612POPC   C4A22470   0.260  30.909   7.652
 1612POPC   C1B22471   0.217  30.410   8.732
 1612POPC   C2B22472   0.105  30.435   8.282
 1612POPC   C3B22473   0.144  30.439   7.832
 1612POPC   C4B22474   0.045  30.550   7.391
 1613POPC   NC322475  27.066  32.401   9.277
 1613POPC   PO422476  26.573  31.948   9.400
 1613POPC   GL122477  26.426  32.099   9.033
 1613POPC   GL222478  26.744  32.229   8.912
 1613POPC   C1A22479  26.371  32.044   8.611
 1613POPC   D2A22480  26.715  32.160   8.397
 1613POPC   C3A22481  26.715  32.060   8.000
 1613POPC   C4A22482  26.646  32.454   7.784
 1613POPC   C1B22483  27.123  32.032   8.689
 1613POPC   C2B22484  27.211  32.088   8.242
 1613POPC   C3B22485  27.153  32.316   7.862
 1613POPC   C4B22486  26.939  32.060   7.541
 1614POPC   NC322487  24.315  35.808   9.505
 1614POPC   PO422488  24.699  36.311   9.305
 1614POPC   GL122489  24.350  36.175   9.062
 1614POPC   GL222490  24.224  35.848   9.005
 1614POPC   C1A22491  24.467  36.117   8.630
 1614POPC   D2A22492  24.753  35.926   8.361
 1614POPC   C3A22493  24.685  36.097   7.978
 1614POPC   C4A22494  24.580  36.367   7.659
 1614POPC   C1B22495  24.157  35.707   8.568
 1614POPC   C2B22496  24.234  35.896   8.179
 1614POPC   C3B22497  24.207  36.009   7.734
 1614POPC   C4B22498  24.002  35.990   7.254
 1615POPC   NC322499   9.949  38.102   9.537
 1615POPC   PO422500   9.753  38.813   9.638
 1615POPC   GL122501   9.821  38.600   9.248
 1615POPC   GL222502   9.682  38.267   9.149
 1615POPC   C1A22503   9.969  38.576   8.869
 1615POPC   D2A22504   9.863  38.734   8.507
 1615POPC   C3A22505  10.136  38.734   8.165
 1615POPC   C4A22506  10.080  38.792   7.708
 1615POPC   C1B22507   9.749  38.079   8.752
 1615POPC   C2B22508   9.801  38.256   8.350
 1615POPC   C3B22509   9.790  38.425   7.954
 1615POPC   C4B22510   9.848  38.123   7.662
 1616POPC   NC322511  21.431  31.093   9.408
 1616POPC   PO422512  21.406  30.432   9.615
 1616POPC   GL122513  21.521  30.552   9.211
 1616POPC   GL222514  21.188  30.595   9.123
 1616POPC   C1A22515  21.527  30.512   8.755
 1616POPC   D2A22516  21.202  30.564   8.437
 1616POPC   C3A22517  21.391  30.418   8.085
 1616POPC   C4A22518  21.563  30.612   7.729
 1616POPC   C1B22519  21.189  30.935   8.804
 1616POPC   C2B22520  21.196  31.127   8.398
 1616POPC   C3B22521  21.483  31.128   8.062
 1616POPC   C4B22522  21.425  31.106   7.631
 1617POPC   NC322523  32.958  29.440   9.728
 1617POPC   PO422524  33.155  29.972   9.535
 1617POPC   GL122525  33.061  30.015   9.100
 1617POPC   GL222526  33.324  30.264   9.075
 1617POPC   C1A22527  32.864  29.759   8.738
 1617POPC   D2A22528  33.037  29.566   8.331
 1617POPC   C3A22529  33.028  29.728   7.891
 1617POPC   C4A22530  32.865  30.085   7.650
 1617POPC   C1B22531  33.260  30.081   8.643
 1617POPC   C2B22532  33.195  30.085   8.226
 1617POPC   C3B22533  33.340  30.147   7.817
 1617POPC   C4B22534  33.339  30.193   7.387
 1618POPC   NC322535  38.441  24.426   9.607
 1618POPC   PO422536  39.007  24.535   9.273
 1618POPC   GL122537  38.623  24.283   9.143
 1618POPC   GL222538  38.246  24.317   9.142
 1618POPC   C1A22539  38.538  24.163   8.731
 1618POPC   D2A22540  38.784  24.144   8.353
 1618POPC   C3A22541  38.557  24.299   7.995
 1618POPC   C4A22542  38.453  24.654   7.681
 1618POPC   C1B22543  38.369  24.646   8.855
 1618POPC   C2B22544  38.388  24.631   8.391
 1618POPC   C3B22545  38.095  24.523   8.019
 1618POPC   C4B22546  38.106  24.292   7.569
 1619POPC   NC322547  42.301  16.133   9.646
 1619POPC   PO422548  42.373  15.509   9.694
 1619POPC   GL122549  42.490  15.761   9.318
 1619POPC   GL222550  42.203  15.943   9.195
 1619POPC   C1A22551  42.480  15.792   8.825
 1619POPC   D2A22552  42.209  15.893   8.427
 1619POPC   C3A22553  42.385  15.822   8.009
 1619POPC   C4A22554  42.313  15.678   7.584
 1619POPC   C1B22555  42.171  16.198   8.840
 1619POPC   C2B22556  42.439  16.349   8.516
 1619POPC   C3B22557  42.251  16.314   8.099
 1619POPC   C4B22558  42.200  16.177   7.691
 1620POPC   NC322559  32.040  27.123   9.324
 1620POPC   PO422560  32.383  27.634   9.614
 1620POPC   GL122561  32.489  27.455   9.202
 1620POPC   GL222562  32.803  27.290   9.166
 1620POPC   C1A22563  32.307  27.580   8.804
 1620POPC   D2A22564  32.205  27.775   8.432
 1620POPC   C3A22565  32.234  27.603   8.043
 1620POPC   C4A22566  31.992  27.683   7.673
 1620POPC   C1B22567  32.626  27.202   8.748
 1620POPC   C2B22568  32.619  27.426   8.359
 1620POPC   C3B22569  32.615  27.250   7.957
 1620POPC   C4B22570  32.261  27.226   7.698
 1621POPC   NC322571  40.623  44.344   9.701
 1621POPC   PO422572  41.148  44.713   9.858
 1621POPC   GL122573  40.832  44.606   9.342
 1621POPC   GL222574  40.532  44.447   9.215
 1621POPC   C1A22575  40.878  44.510   8.858
 1621POPC   D2A22576  40.636  44.662   8.499
 1621POPC   C3A22577  40.792  44.661   8.083
 1621POPC   C4A22578  40.790  44.317   7.834
 1621POPC   C1B22579  40.574  44.906   8.980
 1621POPC   C2B22580  40.359   0.084   8.611
 1621POPC   C3B22581  40.408   0.017   8.178
 1621POPC   C4B22582  40.574  44.995   7.763
 1622POPC   NC322583  11.058  32.507   9.433
 1622POPC   PO422584  11.023  31.868   9.699
 1622POPC   GL122585  11.242  32.017   9.276
 1622POPC   GL222586  11.507  32.271   9.214
 1622POPC   C1A22587  11.131  32.214   8.833
 1622POPC   D2A22588  10.901  32.286   8.427
 1622POPC   C3A22589  11.071  32.281   8.003
 1622POPC   C4A22590  11.393  32.123   7.742
 1622POPC   C1B22591  11.553  32.502   8.805
 1622POPC   C2B22592  11.417  32.396   8.374
 1622POPC   C3B22593  11.573  32.544   7.949
 1622POPC   C4B22594  11.594  32.548   7.484
 1623POPC   NC322595  34.004  39.647   9.481
 1623POPC   PO422596  33.597  39.086   9.646
 1623POPC   GL122597  33.632  39.360   9.223
 1623POPC   GL222598  33.406  39.650   9.124
 1623POPC   C1A22599  33.855  39.360   8.784
 1623POPC   D2A22600  34.178  39.215   8.455
 1623POPC   C3A22601  34.195  39.296   8.007
 1623POPC   C4A22602  33.803  39.215   7.777
 1623POPC   C1B22603  33.520  39.729   8.683
 1623POPC   C2B22604  33.690  39.527   8.280
 1623POPC   C3B22605  33.573  39.732   7.880
 1623POPC   C4B22606  33.305  39.683   7.527
 1624POPC   NC322607   5.705  23.699   9.651
 1624POPC   PO422608   5.259  23.538   9.112
 1624POPC   GL122609   5.731  23.561   9.153
 1624POPC   GL222610   5.838  23.912   9.197
 1624POPC   C1A22611   5.961  23.630   8.793
 1624POPC   D2A22612   5.650  23.695   8.480
 1624POPC   C3A22613   5.761  23.703   8.069
 1624POPC   C4A22614   5.695  23.492   7.696
 1624POPC   C1B22615   5.718  24.110   8.786
 1624POPC   C2B22616   5.867  24.151   8.355
 1624POPC   C3B22617   5.741  24.213   7.943
 1624POPC   C4B22618   5.893  23.957   7.622
 1625POPC   NC322619   9.916  19.570   9.435
 1625POPC   PO422620   9.931  19.040   9.954
 1625POPC   GL122621   9.802  19.068   9.424
 1625POPC   GL222622  10.087  18.974   9.163
 1625POPC   C1A22623   9.680  19.183   8.935
 1625POPC   D2A22624   9.732  19.035   8.459
 1625POPC   C3A22625   9.525  19.211   8.040
 1625POPC   C4A22626   9.663  19.256   7.540
 1625POPC   C1B22627  10.174  18.815   8.720
 1625POPC   C2B22628  10.157  18.790   8.249
 1625POPC   C3B22629   9.914  18.925   7.890
 1625POPC   C4B22630   9.925  18.794   7.458
 1626POPC   NC322631  15.956  43.741   9.491
 1626POPC   PO422632  15.632  44.370   9.442
 1626POPC   GL122633  15.849  44.086   9.145
 1626POPC   GL222634  16.193  44.176   9.245
 1626POPC   C1A22635  15.893  43.752   8.818
 1626POPC   D2A22636  15.700  43.623   8.426
 1626POPC   C3A22637  15.922  43.655   8.001
 1626POPC   C4A22638  15.848  43.986   7.682
 1626POPC   C1B22639  16.237  44.165   8.809
 1626POPC   C2B22640  16.094  44.041   8.422
 1626POPC   C3B22641  16.266  44.042   8.039
 1626POPC   C4B22642  16.328  43.837   7.671
 1627POPC   NC322643   1.875  14.916   9.539
 1627POPC   PO422644   2.419  14.603   9.457
 1627POPC   GL122645   2.194  14.954   9.158
 1627POPC   GL222646   1.790  15.030   9.053
 1627POPC   C1A22647   2.157  15.148   8.732
 1627POPC   D2A22648   1.960  15.191   8.326
 1627POPC   C3A22649   2.102  15.149   7.906
 1627POPC   C4A22650   2.303  15.396   7.570
 1627POPC   C1B22651   1.634  15.380   8.742
 1627POPC   C2B22652   1.628  15.571   8.291
 1627POPC   C3B22653   1.601  15.280   7.890
 1627POPC   C4B22654   1.764  15.057   7.518
 1628POPC   NC322655  31.078  23.322   9.481
 1628POPC   PO422656  30.427  22.974   9.453
 1628POPC   GL122657  30.751  23.072   9.141
 1628POPC   GL222658  30.909  22.786   8.983
 1628POPC   C1A22659  30.850  23.211   8.709
 1628POPC   D2A22660  30.645  23.088   8.335
 1628POPC   C3A22661  30.896  23.077   7.963
 1628POPC   C4A22662  30.707  23.119   7.585
 1628POPC   C1B22663  30.540  22.774   8.754
 1628POPC   C2B22664  30.381  22.630   8.380
 1628POPC   C3B22665  30.501  22.724   7.963
 1628POPC   C4B22666  30.500  22.660   7.524
 1629POPC   NC322667  37.792  14.971   9.470
 1629POPC   PO422668  37.711  15.628   9.631
 1629POPC   GL122669  37.478  15.452   9.274
 1629POPC   GL222670  37.346  15.079   9.198
 1629POPC   C1A22671  37.657  15.355   8.859
 1629POPC   D2A22672  37.893  15.092   8.570
 1629POPC   C3A22673  37.803  15.277   8.184
 1629POPC   C4A22674  37.795  15.229   7.736
 1629POPC   C1B22675  37.143  15.364   8.906
 1629POPC   C2B22676  37.273  15.633   8.576
 1629POPC   C3B22677  37.332  15.518   8.135
 1629POPC   C4B22678  37.289  15.330   7.717
 1630POPC   NC322679   2.888   2.654   9.538
 1630POPC   PO422680   2.223   2.562   9.674
 1630POPC   GL122681   2.489   2.685   9.189
 1630POPC   GL222682   2.817   2.521   9.056
 1630POPC   C1A22683   2.686   2.901   8.766
 1630POPC   D2A22684   2.945   3.069   8.402
 1630POPC   C3A22685   2.844   2.911   7.970
 1630POPC   C4A22686   2.835   2.880   7.475
 1630POPC   C1B22687   3.106   2.371   8.774
 1630POPC   C2B22688   3.024   2.553   8.376
 1630POPC   C3B22689   3.144   2.482   7.965
 1630POPC   C4B22690   3.038   2.406   7.517
 1631POPC   NC322691  29.658  40.133   9.596
 1631POPC   PO422692  30.200  39.695   9.657
 1631POPC   GL122693  30.069  39.996   9.292
 1631POPC   GL222694  30.026  40.363   9.269
 1631POPC   C1A22695  29.884  39.913   8.872
 1631POPC   D2A22696  29.670  39.705   8.526
 1631POPC   C3A22697  29.786  39.853   8.116
 1631POPC   C4A22698  29.709  39.997   7.712
 1631POPC   C1B22699  29.821  40.423   8.871
 1631POPC   C2B22700  29.936  40.248   8.461
 1631POPC   C3B22701  29.866  40.377   8.020
 1631POPC   C4B22702  30.126  40.317   7.640
 1632POPC   NC322703  11.579  20.069   9.488
 1632POPC   PO422704  12.233  19.621   9.360
 1632POPC   GL122705  11.917  19.809   9.061
 1632POPC   GL222706  11.769  20.165   9.013
 1632POPC   C1A22707  12.093  19.829   8.651
 1632POPC   D2A22708  12.214  19.834   8.233
 1632POPC   C3A22709  11.996  19.542   7.946
 1632POPC   C4A22710  12.225  19.645   7.587
 1632POPC   C1B22711  11.907  20.291   8.611
 1632POPC   C2B22712  11.757  20.084   8.245
 1632POPC   C3B22713  11.952  20.032   7.849
 1632POPC   C4B22714  12.388  20.192   7.829
 1633POPC   NC322715  24.030  42.775   9.590
 1633POPC   PO422716  23.891  43.356   9.283
 1633POPC   GL122717  23.805  43.017   9.091
 1633POPC   GL222718  23.451  43.049   9.135
 1633POPC   C1A22719  23.838  43.011   8.660
 1633POPC   D2A22720  24.048  42.779   8.374
 1633POPC   C3A22721  23.964  42.985   7.998
 1633POPC   C4A22722  23.656  42.916   7.695
 1633POPC   C1B22723  23.451  43.342   8.764
 1633POPC   C2B22724  23.634  43.405   8.358
 1633POPC   C3B22725  23.586  43.364   7.939
 1633POPC   C4B22726  23.363  43.330   7.568
 1634POPC   NC322727  13.954  24.556   9.349
 1634POPC   PO422728  13.366  24.807   9.590
 1634POPC   GL122729  13.486  24.650   9.152
 1634POPC   GL222730  13.800  24.741   8.910
 1634POPC   C1A22731  13.377  24.557   8.731
 1634POPC   D2A22732  13.651  24.609   8.380
 1634POPC   C3A22733  13.388  24.594   8.065
 1634POPC   C4A22734  13.070  24.285   7.924
 1634POPC   C1B22735  13.835  24.298   8.741
 1634POPC   C2B22736  13.739  24.044   8.371
 1634POPC   C3B22737  13.671  24.204   7.961
 1634POPC   C4B22738  13.820  24.552   7.723
 1635POPC   NC322739  41.346  18.236   9.585
 1635POPC   PO422740  41.956  18.147   9.361
 1635POPC   GL122741  41.631  18.137   9.168
 1635POPC   GL222742  41.623  18.497   9.168
 1635POPC   C1A22743  41.605  18.062   8.766
 1635POPC   D2A22744  41.781  18.182   8.400
 1635POPC   C3A22745  41.567  18.137   8.015
 1635POPC   C4A22746  41.649  18.146   7.601
 1635POPC   C1B22747  41.667  18.598   8.719
 1635POPC   C2B22748  41.494  18.595   8.277
 1635POPC   C3B22749  41.740  18.614   7.896
 1635POPC   C4B22750  41.715  18.636   7.468
 1636POPC   NC322751  30.727   2.611   9.553
 1636POPC   PO422752  30.377   3.121   9.370
 1636POPC   GL122753  30.677   2.874   9.097
 1636POPC   GL222754  30.923   2.591   9.100
 1636POPC   C1A22755  30.852   2.925   8.692
 1636POPC   D2A22756  30.912   3.203   8.337
 1636POPC   C3A22757  30.856   3.024   7.938
 1636POPC   C4A22758  30.722   2.982   7.522
 1636POPC   C1B22759  30.681   2.433   8.787
 1636POPC   C2B22760  30.725   2.505   8.361
 1636POPC   C3B22761  30.876   2.498   7.949
 1636POPC   C4B22762  30.621   2.437   7.611
 1637POPC   NC322763  15.012  25.487  10.065
 1637POPC   PO422764  15.034  25.412   9.367
 1637POPC   GL122765  15.303  25.306   9.041
 1637POPC   GL222766  15.604  25.065   9.117
 1637POPC   C1A22767  15.200  25.365   8.642
 1637POPC   D2A22768  15.003  25.148   8.327
 1637POPC   C3A22769  15.112  25.427   8.030
 1637POPC   C4A22770  15.008  25.556   7.659
 1637POPC   C1B22771  15.686  25.214   8.710
 1637POPC   C2B22772  15.518  25.079   8.344
 1637POPC   C3B22773  15.393  25.018   7.966
 1637POPC   C4B22774  15.398  25.156   7.582
 1638POPC   NC322775  35.737   4.604   9.832
 1638POPC   PO422776  36.076   4.111   9.471
 1638POPC   GL122777  36.205   4.251   9.076
 1638POPC   GL222778  36.353   4.561   9.066
 1638POPC   C1A22779  36.168   4.094   8.694
 1638POPC   D2A22780  36.247   4.322   8.340
 1638POPC   C3A22781  36.069   4.095   8.037
 1638POPC   C4A22782  36.214   4.175   7.642
 1638POPC   C1B22783  36.023   4.600   8.731
 1638POPC   C2B22784  35.938   4.768   8.320
 1638POPC   C3B22785  35.874   4.555   7.936
 1638POPC   C4B22786  35.901   4.573   7.473
 1639POPC   NC322787  17.247  23.378   9.752
 1639POPC   PO422788  16.705  23.711   9.418
 1639POPC   GL122789  16.682  23.558   9.063
 1639POPC   GL222790  16.431  23.310   9.090
 1639POPC   C1A22791  16.652  23.739   8.667
 1639POPC   D2A22792  16.408  23.679   8.307
 1639POPC   C3A22793  16.479  24.019   8.028
 1639POPC   C4A22794  16.894  23.974   7.842
 1639POPC   C1B22795  16.718  23.219   8.701
 1639POPC   C2B22796  17.027  23.438   8.426
 1639POPC   C3B22797  16.978  23.494   7.979
 1639POPC   C4B22798  16.557  23.543   7.811
 1640POPC   NC322799  20.867  41.329   9.488
 1640POPC   PO422800  20.540  41.877   9.296
 1640POPC   GL122801  20.432  41.499   9.043
 1640POPC   GL222802  20.772  41.428   9.004
 1640POPC   C1A22803  20.370  41.523   8.577
 1640POPC   D2A22804  20.594  41.830   8.272
 1640POPC   C3A22805  20.325  41.856   7.929
 1640POPC   C4A22806  20.290  41.459   7.852
 1640POPC   C1B22807  20.865  41.506   8.601
 1640POPC   C2B22808  20.750  41.337   8.205
 1640POPC   C3B22809  20.866  41.624   7.879
 1640POPC   C4B22810  21.103  41.997   7.823
 1641POPC   NC322811   5.038  13.202   9.390
 1641POPC   PO422812   5.253  12.595   9.494
 1641POPC   GL122813   5.097  12.790   9.086
 1641POPC   GL222814   4.900  13.115   8.938
 1641POPC   C1A22815   5.339  12.937   8.719
 1641POPC   D2A22816   5.553  13.171   8.375
 1641POPC   C3A22817   5.346  13.094   7.979
 1641POPC   C4A22818   5.158  12.879   7.630
 1641POPC   C1B22819   4.809  12.851   8.639
 1641POPC   C2B22820   4.980  12.811   8.249
 1641POPC   C3B22821   4.724  12.812   7.883
 1641POPC   C4B22822   4.673  12.944   7.422
 1642POPC   NC322823  17.741  37.055   9.623
 1642POPC   PO422824  17.336  36.496   9.530
 1642POPC   GL122825  17.416  36.866   9.205
 1642POPC   GL222826  17.232  37.166   9.323
 1642POPC   C1A22827  17.717  36.926   8.792
 1642POPC   D2A22828  17.826  36.828   8.365
 1642POPC   C3A22829  17.520  36.571   8.185
 1642POPC   C4A22830  17.197  36.650   7.885
 1642POPC   C1B22831  17.314  37.233   8.855
 1642POPC   C2B22832  17.528  37.286   8.444
 1642POPC   C3B22833  17.386  37.185   8.019
 1642POPC   C4B22834  17.667  36.914   7.826
 1643POPC   NC322835  28.708   3.530   9.433
 1643POPC   PO422836  28.019   3.338   9.530
 1643POPC   GL122837  28.155   3.414   9.164
 1643POPC   GL222838  28.253   3.758   9.218
 1643POPC   C1A22839  28.364   3.489   8.785
 1643POPC   D2A22840  28.759   3.455   8.547
 1643POPC   C3A22841  28.720   3.545   8.124
 1643POPC   C4A22842  28.315   3.474   7.967
 1643POPC   C1B22843  28.552   3.946   8.917
 1643POPC   C2B22844  28.513   3.921   8.489
 1643POPC   C3B22845  28.340   3.980   8.090
 1643POPC   C4B22846  28.534   3.860   7.730
 1644POPC   NC322847  27.353  40.923   9.568
 1644POPC   PO422848  27.924  41.268   9.486
 1644POPC   GL122849  27.670  41.040   9.135
 1644POPC   GL222850  27.345  41.142   9.092
 1644POPC   C1A22851  27.472  40.804   8.733
 1644POPC   D2A22852  27.332  40.676   8.300
 1644POPC   C3A22853  27.649  40.491   7.987
 1644POPC   C4A22854  27.865  40.192   7.694
 1644POPC   C1B22855  27.280  41.286   8.681
 1644POPC   C2B22856  27.539  41.183   8.349
 1644POPC   C3B22857  27.568  41.018   7.924
 1644POPC   C4B22858  27.536  41.113   7.488
 1645POPC   NC322859   3.668  38.232   9.586
 1645POPC   PO422860   3.429  38.873   9.438
 1645POPC   GL122861   3.507  38.646   9.046
 1645POPC   GL222862   3.818  38.497   9.155
 1645POPC   C1A22863   3.374  38.322   8.717
 1645POPC   D2A22864   3.256  38.204   8.273
 1645POPC   C3A22865   3.138  38.577   8.008
 1645POPC   C4A22866   3.348  38.757   7.653
 1645POPC   C1B22867   3.889  38.441   8.720
 1645POPC   C2B22868   3.697  38.507   8.326
 1645POPC   C3B22869   3.604  38.376   7.917
 1645POPC   C4B22870   3.795  38.181   7.579
 1646POPC   NC322871  14.920  42.457   9.469
 1646POPC   PO422872  15.489  42.706   9.081
 1646POPC   GL122873  15.079  42.459   8.981
 1646POPC   GL222874  14.800  42.181   9.037
 1646POPC   C1A22875  14.844  42.403   8.594
 1646POPC   D2A22876  14.879  42.357   8.155
 1646POPC   C3A22877  15.282  42.510   8.080
 1646POPC   C4A22878  15.466  42.613   7.712
 1646POPC   C1B22879  15.135  41.968   8.801
 1646POPC   C2B22880  15.328  42.036   8.395
 1646POPC   C3B22881  15.110  41.911   8.040
 1646POPC   C4B22882  15.121  42.159   7.680
 1647POPC   NC322883  11.734   3.313   9.490
 1647POPC   PO422884  12.260   3.043   9.796
 1647POPC   GL122885  12.244   3.338   9.347
 1647POPC   GL222886  11.976   3.298   9.061
 1647POPC   C1A22887  12.405   3.413   8.878
 1647POPC   D2A22888  12.206   3.467   8.488
 1647POPC   C3A22889  12.306   3.656   8.099
 1647POPC   C4A22890  12.338   3.515   7.714
 1647POPC   C1B22891  11.736   3.295   8.715
 1647POPC   C2B22892  11.720   3.510   8.325
 1647POPC   C3B22893  11.825   3.532   7.892
 1647POPC   C4B22894  11.779   3.658   7.465
 1648POPC   NC322895  37.950   1.478   9.545
 1648POPC   PO422896  38.588   1.157   9.580
 1648POPC   GL122897  38.343   1.219   9.202
 1648POPC   GL222898  38.668   1.209   9.069
 1648POPC   C1A22899  38.098   1.092   8.806
 1648POPC   D2A22900  38.218   1.231   8.402
 1648POPC   C3A22901  38.212   1.002   8.058
 1648POPC   C4A22902  38.276   1.201   7.655
 1648POPC   C1B22903  38.578   0.994   8.715
 1648POPC   C2B22904  38.750   1.048   8.324
 1648POPC   C3B22905  38.706   1.178   7.926
 1648POPC   C4B22906  38.786   1.113   7.488
 1649POPC   NC322907   8.704   1.461   9.393
 1649POPC   PO422908   9.244   0.984   9.468
 1649POPC   GL122909   9.112   1.213   9.150
 1649POPC   GL222910   8.800   1.074   9.057
 1649POPC   C1A22911   9.167   1.464   8.799
 1649POPC   D2A22912   8.962   1.350   8.425
 1649POPC   C3A22913   9.180   1.463   8.019
 1649POPC   C4A22914   8.958   1.512   7.678
 1649POPC   C1B22915   8.516   1.042   8.723
 1649POPC   C2B22916   8.591   0.958   8.312
 1649POPC   C3B22917   8.755   1.174   7.984
 1649POPC   C4B22918   8.794   1.047   7.539
 1650POPC   NC322919  19.348  20.611   9.504
 1650POPC   PO422920  19.965  20.400   9.532
 1650POPC   GL122921  19.741  20.381   9.162
 1650POPC   GL222922  19.696  20.742   9.146
 1650POPC   C1A22923  19.919  20.511   8.763
 1650POPC   D2A22924  20.093  20.797   8.504
 1650POPC   C3A22925  19.890  20.723   8.128
 1650POPC   C4A22926  19.978  20.519   7.759
 1650POPC   C1B22927  19.557  20.867   8.725
 1650POPC   C2B22928  19.345  20.822   8.334
 1650POPC   C3B22929  19.492  21.005   7.955
 1650POPC   C4B22930  19.592  20.832   7.530
 1651POPC   NC322931  25.784  24.369   9.610
 1651POPC   PO422932  26.463  24.095   9.492
 1651POPC   GL122933  26.352  24.371   9.153
 1651POPC   GL222934  25.992  24.457   9.160
 1651POPC   C1A22935  26.222  24.233   8.760
 1651POPC   D2A22936  26.020  24.089   8.430
 1651POPC   C3A22937  26.291  24.182   8.102
 1651POPC   C4A22938  26.162  24.340   7.765
 1651POPC   C1B22939  25.998  24.691   8.749
 1651POPC   C2B22940  26.016  24.584   8.320
 1651POPC   C3B22941  25.979  24.831   7.981
 1651POPC   C4B22942  25.719  24.986   7.667
 1652POPC   NC322943   5.721   0.486   9.415
 1652POPC   PO422944   6.353   0.385   9.468
 1652POPC   GL122945   6.104   0.284   9.104
 1652POPC   GL222946   5.748   0.230   8.990
 1652POPC   C1A22947   5.999   0.643   8.811
 1652POPC   D2A22948   5.676   0.656   8.504
 1652POPC   C3A22949   5.819   0.587   8.090
 1652POPC   C4A22950   6.068   0.437   7.751
 1652POPC   C1B22951   5.680   0.138   8.584
 1652POPC   C2B22952   5.486  44.851   8.321
 1652POPC   C3B22953   5.426  44.956   7.898
 1652POPC   C4B22954   5.706   0.115   7.571
 1653POPC   NC322955  15.946  44.740   9.454
 1653POPC   PO422956  16.537  44.523   9.439
 1653POPC   GL122957  16.316  44.646   9.032
 1653POPC   GL222958  15.927  44.560   8.993
 1653POPC   C1A22959  16.184  44.633   8.575
 1653POPC   D2A22960  15.770  44.479   8.481
 1653POPC   C3A22961  15.789  44.293   8.076
 1653POPC   C4A22962  16.075  44.443   7.730
 1653POPC   C1B22963  15.761  44.934   8.800
 1653POPC   C2B22964  15.947   0.057   8.428
 1653POPC   C3B22965  15.921  44.785   8.090
 1653POPC   C4B22966  15.806  44.889   7.681
 1654POPC   NC322967   0.139  27.765   9.483
 1654POPC   PO422968  44.509  27.566   9.584
 1654POPC   GL122969  44.563  27.522   9.173
 1654POPC   GL222970  44.869  27.531   9.112
 1654POPC   C1A22971  44.459  27.721   8.798
 1654POPC   D2A22972  44.565  27.704   8.375
 1654POPC   C3A22973  44.350  27.798   8.017
 1654POPC   C4A22974  44.465  27.509   7.720
 1654POPC   C1B22975   0.149  27.542   8.810
 1654POPC   C2B22976   0.030  27.524   8.405
 1654POPC   C3B22977  44.925  27.594   8.020
 1654POPC   C4B22978   0.129  27.516   7.669
 1655POPC   NC322979  14.062  34.381   9.488
 1655POPC   PO422980  14.547  34.796   9.263
 1655POPC   GL122981  14.350  34.591   8.914
 1655POPC   GL222982  14.098  34.346   8.985
 1655POPC   C1A22983  14.456  34.275   8.614
 1655POPC   D2A22984  14.635  34.349   8.221
 1655POPC   C3A22985  14.476  34.697   7.972
 1655POPC   C4A22986  14.666  34.536   7.626
 1655POPC   C1B22987  13.908  34.383   8.612
 1655POPC   C2B22988  14.103  34.504   8.263
 1655POPC   C3B22989  14.139  34.325   7.877
 1655POPC   C4B22990  13.795  34.188   7.640
 1656POPC   NC322991  25.332  43.639   9.270
 1656POPC   PO422992  25.362  42.947   9.469
 1656POPC   GL122993  25.394  43.154   9.117
 1656POPC   GL222994  25.054  43.255   9.111
 1656POPC   C1A22995  25.338  43.191   8.692
 1656POPC   D2A22996  25.360  42.952   8.316
 1656POPC   C3A22997  25.424  43.141   7.902
 1656POPC   C4A22998  25.639  42.963   7.530
 1656POPC   C1B22999  24.897  42.983   8.835
 1656POPC   C2B23000  24.905  43.161   8.399
 1656POPC   C3B23001  24.940  43.018   7.983
 1656POPC   C4B23002  24.948  43.179   7.553
 1657POPC   NC323003  29.848   9.504   9.372
 1657POPC   PO423004  29.828  10.093   9.499
 1657POPC   GL123005  30.137  10.048   9.152
 1657POPC   GL223006  30.252   9.731   9.145
 1657POPC   C1A23007  30.106   9.942   8.679
 1657POPC   D2A23008  29.866   9.588   8.493
 1657POPC   C3A23009  29.707   9.589   8.056
 1657POPC   C4A23010  29.607   9.876   7.701
 1657POPC   C1B23011  30.455   9.574   8.782
 1657POPC   C2B23012  30.375   9.511   8.369
 1657POPC   C3B23013  30.173   9.819   8.135
 1657POPC   C4B23014  30.133   9.943   7.728
 1658POPC   NC323015  13.702  44.402   9.565
 1658POPC   PO423016  13.407   0.050   9.517
 1658POPC   GL123017  13.671  44.748   9.200
 1658POPC   GL223018  13.503  44.404   9.099
 1658POPC   C1A23019  13.843  44.646   8.782
 1658POPC   D2A23020  13.838  44.866   8.350
 1658POPC   C3A23021  13.785  44.671   7.908
 1658POPC   C4A23022  13.535  44.826   7.510
 1658POPC   C1B23023  13.340  44.595   8.705
 1658POPC   C2B23024  13.316  44.803   8.314
 1658POPC   C3B23025  13.265  44.632   7.913
 1658POPC   C4B23026  13.327  44.346   7.542
 1659POPC   NC323027  17.161  23.349   9.236
 1659POPC   PO423028  17.628  23.638   9.742
 1659POPC   GL123029  17.567  23.677   9.261
 1659POPC   GL223030  17.613  23.398   8.972
 1659POPC   C1A23031  17.489  23.897   8.864
 1659POPC   D2A23032  17.197  23.924   8.500
 1659POPC   C3A23033  17.396  23.808   8.102
 1659POPC   C4A23034  17.471  23.466   7.820
 1659POPC   C1B23035  17.570  23.517   8.519
 1659POPC   C2B23036  17.853  23.487   8.157
 1659POPC   C3B23037  17.983  23.389   7.743
 1659POPC   C4B23038  17.937  23.257   7.303
 1660POPC   NC323039  42.842  33.657   9.530
 1660POPC   PO423040  43.277  34.128   9.391
 1660POPC   GL123041  43.146  33.798   9.155
 1660POPC   GL223042  42.844  33.954   9.126
 1660POPC   C1A23043  43.019  33.641   8.774
 1660POPC   D2A23044  42.977  33.879   8.454
 1660POPC   C3A23045  42.892  33.597   8.153
 1660POPC   C4A23046  43.051  33.740   7.753
 1660POPC   C1B23047  42.658  34.117   8.790
 1660POPC   C2B23048  42.510  34.086   8.379
 1660POPC   C3B23049  42.736  34.065   8.038
 1660POPC   C4B23050  42.775  34.142   7.640
 1661POPC   NC323051   2.549  17.289   9.428
 1661POPC   PO423052   3.215  17.496   9.480
 1661POPC   GL123053   2.913  17.531   9.142
 1661POPC   GL223054   2.635  17.785   9.125
 1661POPC   C1A23055   2.710  17.325   8.775
 1661POPC   D2A23056   2.863  17.155   8.371
 1661POPC   C3A23057   2.721  17.430   8.049
 1661POPC   C4A23058   2.479  17.576   7.694
 1661POPC   C1B23059   2.905  17.832   8.729
 1661POPC   C2B23060   2.763  17.863   8.299
 1661POPC   C3B23061   2.910  17.862   7.851
 1661POPC   C4B23062   2.946  17.673   7.432
 1662POPC   NC323063   7.903  13.629   9.726
 1662POPC   PO423064   8.435  13.577   9.291
 1662POPC   GL123065   8.399  13.778   8.982
 1662POPC   GL223066   8.138  13.928   9.064
 1662POPC   C1A23067   8.199  13.736   8.595
 1662POPC   D2A23068   8.281  13.590   8.263
 1662POPC   C3A23069   7.958  13.468   8.041
 1662POPC   C4A23070   8.137  13.357   7.702
 1662POPC   C1B23071   7.894  14.084   8.786
 1662POPC   C2B23072   7.992  14.183   8.381
 1662POPC   C3B23073   8.093  14.004   8.017
 1662POPC   C4B23074   8.057  13.849   7.624
 1663POPC   NC323075  37.905  22.992   9.770
 1663POPC   PO423076  38.482  22.765   9.575
 1663POPC   GL123077  38.356  22.846   9.169
 1663POPC   GL223078  38.724  22.849   9.029
 1663POPC   C1A23079  38.313  22.889   8.722
 1663POPC   D2A23080  38.127  22.811   8.314
 1663POPC   C3A23081  38.263  23.004   7.958
 1663POPC   C4A23082  38.341  23.003   7.516
 1663POPC   C1B23083  38.757  23.155   8.666
 1663POPC   C2B23084  38.671  23.232   8.232
 1663POPC   C3B23085  38.656  23.300   7.802
 1663POPC   C4B23086  38.810  23.181   7.417
 1664POPC   NC323087  28.582   4.454   9.481
 1664POPC   PO423088  28.107   4.889   9.570
 1664POPC   GL123089  28.149   4.645   9.172
 1664POPC   GL223090  28.147   4.277   9.210
 1664POPC   C1A23091  28.457   4.517   8.831
 1664POPC   D2A23092  28.728   4.695   8.492
 1664POPC   C3A23093  28.515   4.620   8.104
 1664POPC   C4A23094  28.531   4.361   7.775
 1664POPC   C1B23095  28.083   4.105   8.786
 1664POPC   C2B23096  27.958   4.209   8.361
 1664POPC   C3B23097  27.892   4.223   7.908
 1664POPC   C4B23098  28.082   4.239   7.476
 1665POPC   NC323099  39.285  10.525   9.653
 1665POPC   PO423100  38.986  10.037   9.328
 1665POPC   GL123101  39.058  10.474   9.198
 1665POPC   GL223102  39.411  10.525   9.149
 1665POPC   C1A23103  39.064  10.697   8.811
 1665POPC   D2A23104  38.940  10.594   8.385
 1665POPC   C3A23105  39.208  10.663   8.022
 1665POPC   C4A23106  39.080  10.541   7.604
 1665POPC   C1B23107  39.293  10.233   8.784
 1665POPC   C2B23108  39.396  10.204   8.355
 1665POPC   C3B23109  39.332  10.177   7.931
 1665POPC   C4B23110  39.537  10.274   7.588
 1666POPC   NC323111   4.705  28.180   9.676
 1666POPC   PO423112   4.449  28.827   9.668
 1666POPC   GL123113   4.353  28.507   9.316
 1666POPC   GL223114   4.385  28.174   9.283
 1666POPC   C1A23115   4.550  28.504   8.891
 1666POPC   D2A23116   4.443  28.399   8.470
 1666POPC   C3A23117   4.588  28.490   8.085
 1666POPC   C4A23118   4.441  28.697   7.767
 1666POPC   C1B23119   4.258  28.093   8.831
 1666POPC   C2B23120   4.343  27.893   8.442
 1666POPC   C3B23121   4.342  28.040   8.056
 1666POPC   C4B23122   4.335  28.214   7.683
 1667POPC   NC323123  12.788  14.124   9.433
 1667POPC   PO423124  12.966  14.730   9.472
 1667POPC   GL123125  12.838  14.539   9.120
 1667POPC   GL223126  13.115  14.660   8.892
 1667POPC   C1A23127  12.849  14.274   8.763
 1667POPC   D2A23128  13.032  14.446   8.380
 1667POPC   C3A23129  12.880  14.261   8.002
 1667POPC   C4A23130  12.776  14.448   7.636
 1667POPC   C1B23131  12.721  14.788   8.692
 1667POPC   C2B23132  12.521  14.831   8.308
 1667POPC   C3B23133  12.611  14.877   7.890
 1667POPC   C4B23134  12.322  14.807   7.591
 1668POPC   NC323135  26.341  22.885   9.548
 1668POPC   PO423136  25.841  23.312   9.505
 1668POPC   GL123137  26.137  23.181   9.186
 1668POPC   GL223138  26.094  22.812   9.124
 1668POPC   C1A23139  26.086  23.182   8.763
 1668POPC   D2A23140  26.311  23.219   8.418
 1668POPC   C3A23141  26.156  23.072   8.051
 1668POPC   C4A23142  25.906  23.053   7.691
 1668POPC   C1B23143  25.907  22.631   8.800
 1668POPC   C2B23144  26.037  22.678   8.409
 1668POPC   C3B23145  25.841  22.664   8.059
 1668POPC   C4B23146  26.037  22.577   7.732
 1669POPC   NC323147  41.384  31.695   9.367
 1669POPC   PO423148  41.957  31.363   9.394
 1669POPC   GL123149  41.688  31.412   9.078
 1669POPC   GL223150  41.377  31.243   9.100
 1669POPC   C1A23151  41.739  31.695   8.768
 1669POPC   D2A23152  41.857  31.544   8.409
 1669POPC   C3A23153  41.633  31.451   8.091
 1669POPC   C4A23154  41.871  31.512   7.740
 1669POPC   C1B23155  41.304  31.452   8.684
 1669POPC   C2B23156  41.355  31.831   8.454
 1669POPC   C3B23157  41.270  31.899   8.048
 1669POPC   C4B23158  41.377  31.675   7.689
 1670POPC   NC323159  21.702  44.667   9.290
 1670POPC   PO423160  21.165  44.345   9.594
 1670POPC   GL123161  21.219  44.539   9.162
 1670POPC   GL223162  21.208  44.884   9.254
 1670POPC   C1A23163  21.149  44.451   8.682
 1670POPC   D2A23164  21.456  44.480   8.313
 1670POPC   C3A23165  21.417  44.420   7.842
 1670POPC   C4A23166  21.202  44.397   7.401
 1670POPC   C1B23167  21.379  44.878   8.797
 1670POPC   C2B23168  21.413  44.989   8.368
 1670POPC   C3B23169  21.511  44.904   7.939
 1670POPC   C4B23170  21.400   0.182   7.600
 1671POPC   NC323171   4.278   8.850   9.561
 1671POPC   PO423172   4.337   9.482   9.603
 1671POPC   GL123173   4.355   9.230   9.170
 1671POPC   GL223174   4.556   8.884   9.139
 1671POPC   C1A23175   4.328   9.101   8.721
 1671POPC   D2A23176   4.194   9.236   8.308
 1671POPC   C3A23177   4.459   9.189   7.943
 1671POPC   C4A23178   4.217   9.366   7.575
 1671POPC   C1B23179   4.500   8.614   8.756
 1671POPC   C2B23180   4.320   8.679   8.340
 1671POPC   C3B23181   4.504   8.599   7.947
 1671POPC   C4B23182   4.373   8.670   7.539
 1672POPC   NC323183  26.138  41.924   9.482
 1672POPC   PO423184  26.248  42.612   9.464
 1672POPC   GL123185  26.029  42.415   9.151
 1672POPC   GL223186  26.287  42.155   9.060
 1672POPC   C1A23187  25.870  42.282   8.742
 1672POPC   D2A23188  25.786  42.032   8.375
 1672POPC   C3A23189  26.059  42.190   8.086
 1672POPC   C4A23190  25.934  42.507   7.844
 1672POPC   C1B23191  26.379  42.557   8.831
 1672POPC   C2B23192  26.155  42.618   8.459
 1672POPC   C3B23193  26.338  42.682   8.095
 1672POPC   C4B23194  26.413  42.525   7.697
 1673POPC   NC323195  33.755   6.943   9.537
 1673POPC   PO423196  34.294   7.360   9.484
 1673POPC   GL123197  33.950   7.424   9.168
 1673POPC   GL223198  34.005   7.087   9.108
 1673POPC   C1A23199  33.748   7.681   8.792
 1673POPC   D2A23200  33.943   7.734   8.372
 1673POPC   C3A23201  33.764   7.679   7.965
 1673POPC   C4A23202  33.895   7.617   7.511
 1673POPC   C1B23203  33.703   7.187   8.787
 1673POPC   C2B23204  33.882   7.178   8.394
 1673POPC   C3B23205  34.115   7.344   8.083
 1673POPC   C4B23206  33.927   7.192   7.776
 1674POPC   NC323207   1.711   8.978   9.406
 1674POPC   PO423208   2.292   9.400   9.670
 1674POPC   GL123209   2.391   9.219   9.169
 1674POPC   GL223210   2.327   8.844   9.106
 1674POPC   C1A23211   2.131   9.119   8.733
 1674POPC   D2A23212   1.857   9.136   8.349
 1674POPC   C3A23213   1.945   9.217   7.911
 1674POPC   C4A23214   2.292   9.242   7.609
 1674POPC   C1B23215   2.267   8.607   8.756
 1674POPC   C2B23216   2.056   8.667   8.383
 1674POPC   C3B23217   1.987   8.728   7.968
 1674POPC   C4B23218   1.598   8.775   7.738
 1675POPC   NC323219  14.610  16.470   9.573
 1675POPC   PO423220  15.075  16.978   9.432
 1675POPC   GL123221  14.985  16.642   9.149
 1675POPC   GL223222  15.197  16.381   9.095
 1675POPC   C1A23223  15.007  16.621   8.682
 1675POPC   D2A23224  15.159  16.926   8.360
 1675POPC   C3A23225  15.285  16.792   7.964
 1675POPC   C4A23226  14.904  16.682   7.815
 1675POPC   C1B23227  15.435  16.314   8.746
 1675POPC   C2B23228  15.376  16.432   8.315
 1675POPC   C3B23229  15.528  16.319   7.891
 1675POPC   C4B23230  15.570  16.399   7.442
 1676POPC   NC323231  10.129  34.498   9.567
 1676POPC   PO423232   9.456  34.207   9.454
 1676POPC   GL123233   9.753  34.465   9.195
 1676POPC   GL223234   9.582  34.769   9.052
 1676POPC   C1A23235   9.929  34.332   8.788
 1676POPC   D2A23236   9.655  34.281   8.413
 1676POPC   C3A23237   9.813  34.478   8.030
 1676POPC   C4A23238   9.562  34.736   7.791
 1676POPC   C1B23239   9.977  34.815   8.863
 1676POPC   C2B23240  10.028  34.873   8.407
 1676POPC   C3B23241  10.125  34.909   7.964
 1676POPC   C4B23242  10.065  34.751   7.530
 1677POPC   NC323243  39.769  33.501   9.215
 1677POPC   PO423244  39.235  33.688   9.537
 1677POPC   GL123245  39.026  33.707   9.143
 1677POPC   GL223246  38.945  34.047   9.148
 1677POPC   C1A23247  38.975  33.570   8.719
 1677POPC   D2A23248  38.692  33.625   8.362
 1677POPC   C3A23249  38.944  33.692   8.021
 1677POPC   C4A23250  39.164  33.497   7.748
 1677POPC   C1B23251  39.330  34.076   8.839
 1677POPC   C2B23252  39.516  34.080   8.399
 1677POPC   C3B23253  39.468  33.748   8.104
 1677POPC   C4B23254  39.624  33.690   7.692
 1678POPC   NC323255  24.516  23.383   9.301
 1678POPC   PO423256  24.209  22.858   9.660
 1678POPC   GL123257  24.255  22.921   9.179
 1678POPC   GL223258  24.193  23.185   8.966
 1678POPC   C1A23259  24.565  22.787   8.839
 1678POPC   D2A23260  24.504  22.579   8.441
 1678POPC   C3A23261  24.248  22.783   8.143
 1678POPC   C4A23262  24.530  22.910   7.860
 1678POPC   C1B23263  24.222  23.053   8.582
 1678POPC   C2B23264  24.574  23.127   8.352
 1678POPC   C3B23265  24.576  23.399   8.026
 1678POPC   C4B23266  24.709  23.500   7.633
 1679POPC   NC323267  26.437  12.104   9.494
 1679POPC   PO423268  27.115  12.228   9.601
 1679POPC   GL123269  26.953  12.142   9.152
 1679POPC   GL223270  26.589  12.236   9.038
 1679POPC   C1A23271  26.942  12.314   8.699
 1679POPC   D2A23272  26.676  12.211   8.343
 1679POPC   C3A23273  26.866  12.195   7.919
 1679POPC   C4A23274  27.067  12.134   7.503
 1679POPC   C1B23275  26.592  11.870   8.745
 1679POPC   C2B23276  26.335  11.773   8.392
 1679POPC   C3B23277  26.425  11.891   8.001
 1679POPC   C4B23278  26.650  11.832   7.639
 1680POPC   NC323279  17.247   9.292   9.549
 1680POPC   PO423280  16.771   8.755   9.553
 1680POPC   GL123281  16.941   8.905   9.193
 1680POPC   GL223282  16.956   9.277   9.106
 1680POPC   C1A23283  16.735   8.845   8.794
 1680POPC   D2A23284  16.551   9.002   8.414
 1680POPC   C3A23285  16.737   8.840   8.039
 1680POPC   C4A23286  16.819   8.611   7.686
 1680POPC   C1B23287  16.603   9.359   8.810
 1680POPC   C2B23288  16.625   9.535   8.375
 1680POPC   C3B23289  16.591   9.327   8.002
 1680POPC   C4B23290  16.840   9.252   7.659
 1681POPC   NC323291   7.621  24.926   9.414
 1681POPC   PO423292   7.074  25.328   9.389
 1681POPC   GL123293   7.191  25.084   9.062
 1681POPC   GL223294   7.518  25.237   9.009
 1681POPC   C1A23295   7.160  25.344   8.695
 1681POPC   D2A23296   7.414  25.336   8.370
 1681POPC   C3A23297   7.197  25.309   8.017
 1681POPC   C4A23298   7.424  25.125   7.722
 1681POPC   C1B23299   7.575  25.665   8.768
 1681POPC   C2B23300   7.516  25.835   8.351
 1681POPC   C3B23301   7.618  25.624   7.957
 1681POPC   C4B23302   7.725  25.457   7.508
 1682POPC   NC323303   8.333  25.252   9.580
 1682POPC   PO423304   7.746  25.416   9.427
 1682POPC   GL123305   8.017  25.205   9.168
 1682POPC   GL223306   8.321  25.407   9.094
 1682POPC   C1A23307   7.942  25.319   8.751
 1682POPC   D2A23308   7.911  25.472   8.359
 1682POPC   C3A23309   7.913  25.217   7.996
 1682POPC   C4A23310   8.156  25.461   7.785
 1682POPC   C1B23311   8.428  25.459   8.655
 1682POPC   C2B23312   8.411  25.298   8.229
 1682POPC   C3B23313   8.671  25.445   7.887
 1682POPC   C4B23314   8.657  25.372   7.424
 1683POPC   NC323315  13.454  19.521   9.472
 1683POPC   PO423316  13.907  20.022   9.562
 1683POPC   GL123317  13.647  19.948   9.196
 1683POPC   GL223318  13.500  20.240   9.055
 1683POPC   C1A23319  13.694  19.867   8.748
 1683POPC   D2A23320  13.474  19.852   8.342
 1683POPC   C3A23321  13.730  19.883   8.014
 1683POPC   C4A23322  13.814  19.671   7.675
 1683POPC   C1B23323  13.285  20.174   8.684
 1683POPC   C2B23324  13.323  20.338   8.256
 1683POPC   C3B23325  13.364  20.182   7.847
 1683POPC   C4B23326  13.179  19.798   7.772
 1684POPC   NC323327  19.621   2.222   9.389
 1684POPC   PO423328  20.189   2.119   9.692
 1684POPC   GL123329  20.100   1.966   9.251
 1684POPC   GL223330  19.880   1.663   9.263
 1684POPC   C1A23331  19.888   2.051   8.834
 1684POPC   D2A23332  19.896   2.282   8.448
 1684POPC   C3A23333  19.689   2.052   8.125
 1684POPC   C4A23334  19.706   2.028   7.698
 1684POPC   C1B23335  20.124   1.607   8.863
 1684POPC   C2B23336  20.013   1.759   8.430
 1684POPC   C3B23337  20.049   1.720   7.981
 1684POPC   C4B23338  19.985   1.402   7.713
 1685POPC   NC323339  15.576  26.335   9.570
 1685POPC   PO423340  15.266  25.716   9.764
 1685POPC   GL123341  15.315  25.832   9.302
 1685POPC   GL223342  15.061  26.078   9.224
 1685POPC   C1A23343  15.390  25.827   8.825
 1685POPC   D2A23344  15.436  26.082   8.419
 1685POPC   C3A23345  15.319  25.899   7.999
 1685POPC   C4A23346  15.363  25.885   7.538
 1685POPC   C1B23347  14.940  26.304   8.869
 1685POPC   C2B23348  14.837  26.277   8.437
 1685POPC   C3B23349  15.062  26.327   8.123
 1685POPC   C4B23350  15.243  26.362   7.756
 1686POPC   NC323351  10.613  26.388   9.466
 1686POPC   PO423352  10.909  25.824   9.834
 1686POPC   GL123353  10.757  25.904   9.357
 1686POPC   GL223354  10.393  25.814   9.344
 1686POPC   C1A23355  10.738  26.106   8.892
 1686POPC   D2A23356  10.494  26.198   8.490
 1686POPC   C3A23357  10.675  26.142   8.089
 1686POPC   C4A23358  10.507  26.249   7.716
 1686POPC   C1B23359  10.307  25.841   8.890
 1686POPC   C2B23360  10.309  25.732   8.441
 1686POPC   C3B23361  10.214  25.860   8.008
 1686POPC   C4B23362  10.341  25.771   7.584
 1687POPC   NC323363   1.754  35.084   9.421
 1687POPC   PO423364   2.178  35.683   9.395
 1687POPC   GL123365   1.837  35.518   9.200
 1687POPC   GL223366   2.052  35.279   9.048
 1687POPC   C1A23367   1.656  35.502   8.796
 1687POPC   D2A23368   1.879  35.610   8.425
 1687POPC   C3A23369   1.646  35.499   8.053
 1687POPC   C4A23370   1.727  35.552   7.587
 1687POPC   C1B23371   2.027  35.127   8.631
 1687POPC   C2B23372   2.054  35.174   8.199
 1687POPC   C3B23373   2.130  35.521   7.913
 1687POPC   C4B23374   2.496  35.671   7.734
 1688POPC   NC323375   3.141   4.238   9.506
 1688POPC   PO423376   2.453   4.116   9.473
 1688POPC   GL123377   2.756   4.115   9.150
 1688POPC   GL223378   2.527   4.329   9.010
 1688POPC   C1A23379   2.852   4.116   8.693
 1688POPC   D2A23380   2.989   4.350   8.326
 1688POPC   C3A23381   2.876   4.248   7.896
 1688POPC   C4A23382   2.920   4.519   7.541
 1688POPC   C1B23383   2.345   4.636   8.779
 1688POPC   C2B23384   2.210   4.527   8.435
 1688POPC   C3B23385   2.429   4.474   8.112
 1688POPC   C4B23386   2.430   4.448   7.708
 1689POPC   NC323387   4.493  43.259   9.582
 1689POPC   PO423388   3.964  42.858   9.414
 1689POPC   GL123389   4.269  43.050   9.148
 1689POPC   GL223390   4.235  43.420   9.116
 1689POPC   C1A23391   4.224  43.051   8.700
 1689POPC   D2A23392   4.335  42.846   8.327
 1689POPC   C3A23393   4.160  42.952   7.910
 1689POPC   C4A23394   4.387  42.984   7.530
 1689POPC   C1B23395   4.441  43.511   8.714
 1689POPC   C2B23396   4.322  43.373   8.270
 1689POPC   C3B23397   4.337  43.425   7.814
 1689POPC   C4B23398   4.464  43.773   7.581
 1690POPC   NC323399  26.663  34.082   9.626
 1690POPC   PO423400  26.803  33.357   9.645
 1690POPC   GL123401  26.836  33.700   9.326
 1690POPC   GL223402  27.185  33.783   9.301
 1690POPC   C1A23403  26.686  33.816   8.907
 1690POPC   D2A23404  26.726  33.705   8.473
 1690POPC   C3A23405  26.641  33.858   8.051
 1690POPC   C4A23406  26.476  33.775   7.626
 1690POPC   C1B23407  27.214  33.710   8.847
 1690POPC   C2B23408  27.205  33.884   8.413
 1690POPC   C3B23409  27.164  33.797   7.985
 1690POPC   C4B23410  26.978  33.892   7.625
 1691POPC   NC323411  20.970   8.998   9.498
 1691POPC   PO423412  20.315   9.066   9.495
 1691POPC   GL123413  20.595   9.110   9.140
 1691POPC   GL223414  20.955   9.297   9.103
 1691POPC   C1A23415  20.468   8.932   8.752
 1691POPC   D2A23416  20.396   9.146   8.354
 1691POPC   C3A23417  20.437   8.959   7.970
 1691POPC   C4A23418  20.409   9.300   7.723
 1691POPC   C1B23419  20.979   8.994   8.780
 1691POPC   C2B23420  20.823   8.878   8.377
 1691POPC   C3B23421  20.959   8.994   7.988
 1691POPC   C4B23422  21.075   8.695   7.711
 1692POPC   NC323423  17.102   7.596   9.478
 1692POPC   PO423424  17.630   7.248   9.543
 1692POPC   GL123425  17.561   7.426   9.148
 1692POPC   GL223426  17.247   7.331   9.061
 1692POPC   C1A23427  17.534   7.618   8.733
 1692POPC   D2A23428  17.519   7.500   8.302
 1692POPC   C3A23429  17.622   7.753   7.914
 1692POPC   C4A23430  17.864   7.672   7.528
 1692POPC   C1B23431  17.205   7.193   8.636
 1692POPC   C2B23432  17.116   7.179   8.200
 1692POPC   C3B23433  17.401   7.254   7.878
 1692POPC   C4B23434  17.352   7.481   7.530
 1693POPC   NC323435  25.624  17.766   9.729
 1693POPC   PO423436  24.919  17.713   9.683
 1693POPC   GL123437  25.204  17.537   9.279
 1693POPC   GL223438  25.109  17.680   8.953
 1693POPC   C1A23439  25.436  17.313   8.866
 1693POPC   D2A23440  25.495  17.259   8.425
 1693POPC   C3A23441  25.320  17.596   8.178
 1693POPC   C4A23442  25.209  17.646   7.742
 1693POPC   C1B23443  25.025  17.389   8.590
 1693POPC   C2B23444  25.052  17.030   8.318
 1693POPC   C3B23445  24.931  17.251   7.978
 1693POPC   C4B23446  24.906  17.238   7.579
 1694POPC   NC323447  36.821  13.295   9.945
 1694POPC   PO423448  37.075  12.909   9.535
 1694POPC   GL123449  36.940  12.815   9.149
 1694POPC   GL223450  36.591  12.756   9.153
 1694POPC   C1A23451  37.088  12.949   8.754
 1694POPC   D2A23452  36.990  12.840   8.368
 1694POPC   C3A23453  37.114  12.995   7.980
 1694POPC   C4A23454  37.202  12.726   7.634
 1694POPC   C1B23455  36.628  13.128   8.910
 1694POPC   C2B23456  36.549  13.193   8.499
 1694POPC   C3B23457  36.623  13.071   8.108
 1694POPC   C4B23458  36.534  13.129   7.729
 1695POPC   NC323459  40.590   7.114   9.572
 1695POPC   PO423460  40.740   6.427   9.497
 1695POPC   GL123461  40.637   6.756   9.187
 1695POPC   GL223462  40.989   6.759   9.141
 1695POPC   C1A23463  40.698   6.898   8.744
 1695POPC   D2A23464  40.947   6.680   8.432
 1695POPC   C3A23465  40.837   6.742   8.028
 1695POPC   C4A23466  40.680   6.489   7.747
 1695POPC   C1B23467  40.889   6.392   8.847
 1695POPC   C2B23468  41.104   6.166   8.492
 1695POPC   C3B23469  41.152   6.327   8.051
 1695POPC   C4B23470  41.097   6.260   7.580
 1696POPC   NC323471  32.958  12.334   9.375
 1696POPC   PO423472  33.300  11.691   9.575
 1696POPC   GL123473  33.207  11.928   9.136
 1696POPC   GL223474  32.912  12.051   8.969
 1696POPC   C1A23475  33.299  11.811   8.766
 1696POPC   D2A23476  33.012  11.870   8.445
 1696POPC   C3A23477  33.212  11.833   8.042
 1696POPC   C4A23478  33.057  11.697   7.644
 1696POPC   C1B23479  32.900  12.423   8.734
 1696POPC   C2B23480  32.636  12.340   8.430
 1696POPC   C3B23481  32.774  12.138   8.069
 1696POPC   C4B23482  33.045  12.219   7.753
 1697POPC   NC323483  39.322  36.743   9.385
 1697POPC   PO423484  38.852  37.115   9.554
 1697POPC   GL123485  39.065  37.128   9.141
 1697POPC   GL223486  39.400  37.018   8.969
 1697POPC   C1A23487  38.948  36.961   8.754
 1697POPC   D2A23488  38.771  36.801   8.411
 1697POPC   C3A23489  39.041  36.756   8.115
 1697POPC   C4A23490  39.003  36.950   7.731
 1697POPC   C1B23491  39.438  36.950   8.522
 1697POPC   C2B23492  39.468  37.036   8.077
 1697POPC   C3B23493  39.502  37.176   7.647
 1697POPC   C4B23494  39.607  37.221   7.164
 1698POPC   NC323495  32.339  15.542   9.282
 1698POPC   PO423496  31.908  15.920   9.631
 1698POPC   GL123497  32.109  16.102   9.260
 1698POPC   GL223498  32.486  16.173   9.196
 1698POPC   C1A23499  32.070  16.116   8.817
 1698POPC   D2A23500  32.204  16.210   8.401
 1698POPC   C3A23501  31.942  16.189   8.060
 1698POPC   C4A23502  32.030  15.862   7.827
 1698POPC   C1B23503  32.592  16.099   8.745
 1698POPC   C2B23504  32.667  15.936   8.326
 1698POPC   C3B23505  32.565  15.702   7.917
 1698POPC   C4B23506  32.242  15.417   7.754
 1699POPC   NC323507  29.432  23.676   9.276
 1699POPC   PO423508  29.000  24.008   9.713
 1699POPC   GL123509  28.894  23.568   9.251
 1699POPC   GL223510  29.179  23.491   8.902
 1699POPC   C1A23511  28.742  23.609   8.737
 1699POPC   D2A23512  29.034  23.655   8.366
 1699POPC   C3A23513  29.028  23.898   7.992
 1699POPC   C4A23514  28.997  23.651   7.674
 1699POPC   C1B23515  29.413  23.831   8.650
 1699POPC   C2B23516  29.274  24.132   8.368
 1699POPC   C3B23517  29.497  24.152   8.008
 1699POPC   C4B23518  29.459  23.876   7.696
 1700POPC   NC323519  21.388   9.761   9.644
 1700POPC   PO423520  21.623  10.256   9.246
 1700POPC   GL123521  21.537   9.881   9.111
 1700POPC   GL223522  21.211   9.740   9.132
 1700POPC   C1A23523  21.546   9.836   8.675
 1700POPC   D2A23524  21.630  10.014   8.265
 1700POPC   C3A23525  21.742   9.722   7.947
 1700POPC   C4A23526  21.476   9.769   7.604
 1700POPC   C1B23527  21.024   9.800   8.734
 1700POPC   C2B23528  21.144   9.802   8.290
 1700POPC   C3B23529  21.053   9.926   7.859
 1700POPC   C4B23530  20.911   9.818   7.425
 1701POPC   NC323531  43.361   2.690   9.603
 1701POPC   PO423532  42.729   2.539   9.440
 1701POPC   GL123533  42.966   2.716   9.119
 1701POPC   GL223534  43.254   2.869   9.148
 1701POPC   C1A23535  42.929   2.958   8.743
 1701POPC   D2A23536  42.980   2.770   8.364
 1701POPC   C3A23537  42.977   2.922   7.967
 1701POPC   C4A23538  42.911   2.660   7.604
 1701POPC   C1B23539  43.399   2.734   8.759
 1701POPC   C2B23540  43.487   2.785   8.337
 1701POPC   C3B23541  43.397   2.621   7.955
 1701POPC   C4B23542  43.356   2.913   7.619
 1702POPC   NC323543  16.182  41.596   9.571
 1702POPC   PO423544  15.583  41.247   9.432
 1702POPC   GL123545  15.888  41.443   9.151
 1702POPC   GL223546  16.261  41.379   9.120
 1702POPC   C1A23547  15.959  41.543   8.733
 1702POPC   D2A23548  15.729  41.680   8.408
 1702POPC   C3A23549  16.057  41.636   8.146
 1702POPC   C4A23550  16.013  41.836   7.795
 1702POPC   C1B23551  16.434  41.244   8.746
 1702POPC   C2B23552  16.238  41.217   8.388
 1702POPC   C3B23553  16.329  41.218   7.988
 1702POPC   C4B23554  16.161  41.350   7.616
 1703POPC   NC323555   9.324  17.961   9.469
 1703POPC   PO423556   9.065  18.591   9.621
 1703POPC   GL123557   9.062  18.324   9.224
 1703POPC   GL223558   8.770  18.123   9.063
 1703POPC   C1A23559   9.231  18.370   8.821
 1703POPC   D2A23560   9.177  18.147   8.434
 1703POPC   C3A23561   9.266  18.104   7.979
 1703POPC   C4A23562   8.936  18.042   7.649
 1703POPC   C1B23563   8.726  18.501   8.841
 1703POPC   C2B23564   8.851  18.575   8.443
 1703POPC   C3B23565   8.814  18.343   8.076
 1703POPC   C4B23566   8.689  18.499   7.701
 1704POPC   NC323567   7.878  16.379   9.390
 1704POPC   PO423568   7.884  15.681   9.493
 1704POPC   GL123569   8.121  15.679   9.109
 1704POPC   GL223570   8.205  16.005   9.076
 1704POPC   C1A23571   8.153  15.744   8.653
 1704POPC   D2A23572   7.919  15.965   8.322
 1704POPC   C3A23573   8.046  15.895   7.884
 1704POPC   C4A23574   7.831  15.693   7.565
 1704POPC   C1B23575   8.104  16.320   8.765
 1704POPC   C2B23576   7.870  16.533   8.444
 1704POPC   C3B23577   7.989  16.401   8.019
 1704POPC   C4B23578   8.312  16.311   7.679
 1705POPC   NC323579  37.838  34.303   9.508
 1705POPC   PO423580  37.377  34.751   9.605
 1705POPC   GL123581  37.590  34.744   9.224
 1705POPC   GL223582  37.480  34.419   9.179
 1705POPC   C1A23583  37.853  34.674   8.839
 1705POPC   D2A23584  37.615  34.619   8.449
 1705POPC   C3A23585  37.754  34.451   8.046
 1705POPC   C4A23586  37.610  34.581   7.631
 1705POPC   C1B23587  37.622  34.226   8.801
 1705POPC   C2B23588  37.646  34.015   8.394
 1705POPC   C3B23589  37.408  34.052   7.993
 1705POPC   C4B23590  37.374  34.117   7.523
 1706POPC   NC323591  26.127  14.534   9.765
 1706POPC   PO423592  25.848  13.951   9.484
 1706POPC   GL123593  25.992  14.269   9.206
 1706POPC   GL223594  26.092  14.598   9.237
 1706POPC   C1A23595  26.118  14.208   8.820
 1706POPC   D2A23596  25.914  13.940   8.556
 1706POPC   C3A23597  26.040  14.109   8.159
 1706POPC   C4A23598  26.113  14.223   7.728
 1706POPC   C1B23599  25.951  14.723   8.826
 1706POPC   C2B23600  25.938  14.595   8.366
 1706POPC   C3B23601  26.040  14.690   7.913
 1706POPC   C4B23602  26.100  14.859   7.479
 1707POPC   NC323603  27.322  43.960   9.597
 1707POPC   PO423604  26.705  43.832   9.492
 1707POPC   GL123605  26.750  43.921   9.062
 1707POPC   GL223606  27.072  44.035   9.169
 1707POPC   C1A23607  26.750  43.903   8.640
 1707POPC   D2A23608  26.572  43.684   8.320
 1707POPC   C3A23609  26.818  43.603   8.007
 1707POPC   C4A23610  26.956  43.714   7.639
 1707POPC   C1B23611  27.091  44.241   8.815
 1707POPC   C2B23612  27.228  44.105   8.443
 1707POPC   C3B23613  27.269  44.255   8.071
 1707POPC   C4B23614  26.966  44.234   7.766
 1708POPC   NC323615  42.372   0.572   9.504
 1708POPC   PO423616  42.226  44.937   9.629
 1708POPC   GL123617  42.337   0.094   9.162
 1708POPC   GL223618  42.391   0.459   9.022
 1708POPC   C1A23619  42.174   0.130   8.709
 1708POPC   D2A23620  41.935   0.251   8.298
 1708POPC   C3A23621  42.112   0.405   7.880
 1708POPC   C4A23622  42.232   0.178   7.499
 1708POPC   C1B23623  42.109   0.625   8.679
 1708POPC   C2B23624  42.352   0.545   8.322
 1708POPC   C3B23625  42.548   0.738   7.977
 1708POPC   C4B23626  42.569   0.539   7.616
 1709POPC   NC323627  30.006  26.060   9.632
 1709POPC   PO423628  30.387  26.275   9.161
 1709POPC   GL123629  30.063  26.003   9.124
 1709POPC   GL223630  29.791  26.236   9.194
 1709POPC   C1A23631  30.052  25.694   8.793
 1709POPC   D2A23632  30.264  25.678   8.395
 1709POPC   C3A23633  29.986  25.756   8.053
 1709POPC   C4A23634  30.020  26.044   7.717
 1709POPC   C1B23635  29.695  26.116   8.782
 1709POPC   C2B23636  29.609  25.782   8.503
 1709POPC   C3B23637  29.449  25.699   8.105
 1709POPC   C4B23638  29.503  25.937   7.739
 1710POPC   NC323639  24.009  35.389   9.757
 1710POPC   PO423640  24.703  35.508   9.548
 1710POPC   GL123641  24.572  35.507   9.154
 1710POPC   GL223642  24.488  35.209   9.068
 1710POPC   C1A23643  24.613  35.563   8.709
 1710POPC   D2A23644  24.523  35.378   8.309
 1710POPC   C3A23645  24.580  35.611   7.940
 1710POPC   C4A23646  24.396  35.609   7.515
 1710POPC   C1B23647  24.233  35.163   8.675
 1710POPC   C2B23648  23.985  35.197   8.311
 1710POPC   C3B23649  24.129  35.367   7.928
 1710POPC   C4B23650  24.191  35.152   7.526
 1711POPC   NC323651   9.029   7.973   9.489
 1711POPC   PO423652   9.163   8.696   9.518
 1711POPC   GL123653   9.279   8.374   9.238
 1711POPC   GL223654   8.936   8.346   9.137
 1711POPC   C1A23655   9.269   8.185   8.808
 1711POPC   D2A23656   8.961   8.269   8.454
 1711POPC   C3A23657   9.132   8.312   8.050
 1711POPC   C4A23658   9.278   8.059   7.734
 1711POPC   C1B23659   8.649   8.473   8.816
 1711POPC   C2B23660   8.502   8.512   8.365
 1711POPC   C3B23661   8.662   8.497   7.908
 1711POPC   C4B23662   8.621   8.384   7.413
 1712POPC   NC323663  16.467  38.208   9.408
 1712POPC   PO423664  17.015  38.550   9.482
 1712POPC   GL123665  16.740  38.524   9.122
 1712POPC   GL223666  16.914  38.199   9.035
 1712POPC   C1A23667  16.516  38.280   8.736
 1712POPC   D2A23668  16.777  38.075   8.387
 1712POPC   C3A23669  16.866  38.358   8.031
 1712POPC   C4A23670  16.676  38.481   7.656
 1712POPC   C1B23671  16.974  38.498   8.677
 1712POPC   C2B23672  17.128  38.660   8.324
 1712POPC   C3B23673  17.036  38.852   7.930
 1712POPC   C4B23674  17.224  38.555   7.688
 1713POPC   NC323675   5.530  22.631   9.717
 1713POPC   PO423676   5.087  22.122   9.504
 1713POPC   GL123677   5.057  22.296   9.068
 1713POPC   GL223678   4.759  22.132   9.025
 1713POPC   C1A23679   5.309  22.365   8.710
 1713POPC   D2A23680   5.482  22.088   8.400
 1713POPC   C3A23681   5.491  22.212   7.991
 1713POPC   C4A23682   5.300  21.992   7.711
 1713POPC   C1B23683   4.736  22.411   8.665
 1713POPC   C2B23684   4.997  22.457   8.293
 1713POPC   C3B23685   4.977  22.406   7.859
 1713POPC   C4B23686   4.774  22.100   7.611
 1714POPC   NC323687  27.260  33.280   9.593
 1714POPC   PO423688  27.882  32.971   9.684
 1714POPC   GL123689  27.651  33.017   9.269
 1714POPC   GL223690  27.444  33.307   9.125
 1714POPC   C1A23691  27.797  33.117   8.826
 1714POPC   D2A23692  27.650  33.317   8.471
 1714POPC   C3A23693  27.624  33.078   8.129
 1714POPC   C4A23694  27.779  33.107   7.727
 1714POPC   C1B23695  27.294  32.972   8.819
 1714POPC   C2B23696  27.281  32.764   8.393
 1714POPC   C3B23697  27.143  32.958   7.985
 1714POPC   C4B23698  27.332  33.347   7.807
 1715POPC   NC323699  37.495   5.233   9.779
 1715POPC   PO423700  37.842   4.721   9.544
 1715POPC   GL123701  37.730   4.970   9.153
 1715POPC   GL223702  37.474   5.256   9.265
 1715POPC   C1A23703  37.903   4.977   8.700
 1715POPC   D2A23704  37.868   5.016   8.237
 1715POPC   C3A23705  37.981   4.948   7.823
 1715POPC   C4A23706  37.704   4.787   7.503
 1715POPC   C1B23707  37.319   5.157   8.856
 1715POPC   C2B23708  37.429   5.223   8.443
 1715POPC   C3B23709  37.390   5.023   8.048
 1715POPC   C4B23710  37.549   5.228   7.720
 1716POPC   NC323711  10.992   9.156   9.453
 1716POPC   PO423712  11.289   9.732   9.305
 1716POPC   GL123713  11.296   9.754   8.899
 1716POPC   GL223714  10.956   9.917   8.930
 1716POPC   C1A23715  11.273   9.456   8.546
 1716POPC   D2A23716  11.364   9.427   8.106
 1716POPC   C3A23717  11.530   9.818   8.023
 1716POPC   C4A23718  11.407  10.000   7.678
 1716POPC   C1B23719  11.089  10.036   8.545
 1716POPC   C2B23720  11.098  10.090   8.110
 1716POPC   C3B23721  10.878   9.903   7.780
 1716POPC   C4B23722  11.107   9.553   7.589
 1717POPC   NC323723  17.842  16.686   9.642
 1717POPC   PO423724  18.525  16.722   9.658
 1717POPC   GL123725  18.407  16.740   9.255
 1717POPC   GL223726  18.083  16.560   9.187
 1717POPC   C1A23727  18.549  16.557   8.873
 1717POPC   D2A23728  18.291  16.434   8.537
 1717POPC   C3A23729  18.287  16.628   8.127
 1717POPC   C4A23730  18.216  16.460   7.721
 1717POPC   C1B23731  18.138  16.852   8.846
 1717POPC   C2B23732  18.020  16.953   8.471
 1717POPC   C3B23733  17.887  16.953   8.080
 1717POPC   C4B23734  18.089  16.955   7.697
 1718POPC   NC323735  33.652  36.397   9.427
 1718POPC   PO423736  33.596  35.780   9.605
 1718POPC   GL123737  33.880  35.954   9.255
 1718POPC   GL223738  33.657  35.869   9.034
 1718POPC   C1A23739  33.946  36.177   8.799
 1718POPC   D2A23740  33.771  36.014   8.389
 1718POPC   C3A23741  33.882  36.186   7.966
 1718POPC   C4A23742  34.131  36.032   7.604
 1718POPC   C1B23743  33.389  35.768   8.690
 1718POPC   C2B23744  33.285  35.935   8.310
 1718POPC   C3B23745  33.490  35.859   7.924
 1718POPC   C4B23746  33.664  35.889   7.537
 1719POPC   NC323747  39.622   3.177   9.387
 1719POPC   PO423748  40.150   3.584   9.680
 1719POPC   GL123749  40.155   3.654   9.231
 1719POPC   GL223750  40.057   3.325   9.163
 1719POPC   C1A23751  40.200   3.596   8.777
 1719POPC   D2A23752  39.904   3.655   8.462
 1719POPC   C3A23753  39.980   3.578   8.054
 1719POPC   C4A23754  40.020   3.720   7.637
 1719POPC   C1B23755  39.757   3.281   8.777
 1719POPC   C2B23756  39.543   3.213   8.381
 1719POPC   C3B23757  39.524   3.360   7.956
 1719POPC   C4B23758  39.828   3.268   7.657
 1720POPC   NC323759  40.979  32.406   9.589
 1720POPC   PO423760  40.347  32.413   9.577
 1720POPC   GL123761  40.668  32.394   9.173
 1720POPC   GL223762  41.061  32.487   9.100
 1720POPC   C1A23763  40.568  32.249   8.737
 1720POPC   D2A23764  40.415  32.032   8.351
 1720POPC   C3A23765  40.510  32.241   7.971
 1720POPC   C4A23766  40.597  32.408   7.545
 1720POPC   C1B23767  41.078  32.151   8.804
 1720POPC   C2B23768  40.918  32.111   8.380
 1720POPC   C3B23769  41.000  32.347   8.021
 1720POPC   C4B23770  40.999  32.127   7.676
 1721POPC   NC323771  27.313   0.895   9.375
 1721POPC   PO423772  27.721   1.522   9.500
 1721POPC   GL123773  27.478   1.379   9.164
 1721POPC   GL223774  27.754   1.183   9.109
 1721POPC   C1A23775  27.518   1.379   8.684
 1721POPC   D2A23776  27.788   1.298   8.307
 1721POPC   C3A23777  27.495   1.186   7.987
 1721POPC   C4A23778  27.125   1.371   7.828
 1721POPC   C1B23779  27.863   0.988   8.740
 1721POPC   C2B23780  28.068   0.835   8.384
 1721POPC   C3B23781  27.897   0.882   7.990
 1721POPC   C4B23782  27.969   1.273   7.786
 1722POPC   NC323783  21.651  12.275   9.570
 1722POPC   PO423784  21.612  12.885   9.527
 1722POPC   GL123785  21.457  12.755   9.152
 1722POPC   GL223786  21.741  12.594   9.118
 1722POPC   C1A23787  21.251  12.836   8.744
 1722POPC   D2A23788  21.059  12.776   8.335
 1722POPC   C3A23789  20.994  13.007   7.929
 1722POPC   C4A23790  21.146  12.781   7.550
 1722POPC   C1B23791  21.767  12.876   8.768
 1722POPC   C2B23792  21.597  12.839   8.363
 1722POPC   C3B23793  21.443  12.780   7.973
 1722POPC   C4B23794  21.637  12.965   7.625
 1723POPC   NC323795  22.370   2.188   9.534
 1723POPC   PO423796  21.765   1.795   9.556
 1723POPC   GL123797  21.854   1.981   9.195
 1723POPC   GL223798  22.183   1.855   9.163
 1723POPC   C1A23799  21.917   2.062   8.776
 1723POPC   D2A23800  22.156   2.038   8.376
 1723POPC   C3A23801  21.955   1.915   8.005
 1723POPC   C4A23802  21.860   2.069   7.629
 1723POPC   C1B23803  22.440   1.925   8.799
 1723POPC   C2B23804  22.607   1.784   8.413
 1723POPC   C3B23805  22.452   1.722   8.012
 1723POPC   C4B23806  22.380   2.001   7.691
 1724POPC   NC323807  29.339  35.819   9.295
 1724POPC   PO423808  29.085  35.290   9.623
 1724POPC   GL123809  28.968  35.223   9.185
 1724POPC   GL223810  29.085  35.494   9.023
 1724POPC   C1A23811  29.082  35.047   8.805
 1724POPC   D2A23812  29.140  35.331   8.480
 1724POPC   C3A23813  29.149  35.153   8.090
 1724POPC   C4A23814  29.061  35.175   7.675
 1724POPC   C1B23815  29.497  35.464   8.809
 1724POPC   C2B23816  29.648  35.663   8.466
 1724POPC   C3B23817  29.436  35.572   8.105
 1724POPC   C4B23818  29.516  35.444   7.710
 1725POPC   NC323819  19.990  44.375   9.358
 1725POPC   PO423820  19.759   0.002   9.350
 1725POPC   GL123821  19.787  44.708   9.036
 1725POPC   GL223822  19.538  44.426   9.145
 1725POPC   C1A23823  20.095  44.584   8.699
 1725POPC   D2A23824  20.171  44.360   8.325
 1725POPC   C3A23825  20.122  44.583   7.898
 1725POPC   C4A23826  19.888  44.536   7.504
 1725POPC   C1B23827  19.679  44.307   8.740
 1725POPC   C2B23828  19.679  44.468   8.314
 1725POPC   C3B23829  19.735  44.250   7.918
 1725POPC   C4B23830  19.480  44.254   7.552
 1726POPC   NC323831   1.707  11.542   9.555
 1726POPC   PO423832   2.120  11.083   9.499
 1726POPC   GL123833   2.169  11.330   9.102
 1726POPC   GL223834   1.872  11.507   9.076
 1726POPC   C1A23835   2.222  11.419   8.660
 1726POPC   D2A23836   2.273  11.489   8.194
 1726POPC   C3A23837   2.221  11.133   7.904
 1726POPC   C4A23838   1.872  10.896   7.693
 1726POPC   C1B23839   1.761  11.699   8.689
 1726POPC   C2B23840   1.556  11.552   8.298
 1726POPC   C3B23841   1.666  11.274   7.970
 1726POPC   C4B23842   1.928  11.419   7.620
 1727POPC   NC323843   2.533   0.091   9.793
 1727POPC   PO423844   2.714  44.557   9.385
 1727POPC   GL123845   3.102  44.599   9.179
 1727POPC   GL223846   3.125  44.953   9.164
 1727POPC   C1A23847   3.021  44.492   8.767
 1727POPC   D2A23848   2.678  44.431   8.521
 1727POPC   C3A23849   2.825  44.431   8.121
 1727POPC   C4A23850   2.647  44.426   7.728
 1727POPC   C1B23851   2.853  44.998   8.773
 1727POPC   C2B23852   2.813  44.914   8.354
 1727POPC   C3B23853   2.615  44.900   7.974
 1727POPC   C4B23854   2.535  44.875   7.529
 1728POPC   NC323855  16.412  33.711   9.625
 1728POPC   PO423856  15.860  34.060   9.602
 1728POPC   GL123857  15.881  33.930   9.179
 1728POPC   GL223858  16.223  33.805   9.149
 1728POPC   C1A23859  15.671  33.882   8.771
 1728POPC   D2A23860  15.872  33.840   8.421
 1728POPC   C3A23861  15.636  33.917   8.074
 1728POPC   C4A23862  15.869  33.818   7.761
 1728POPC   C1B23863  16.337  33.804   8.707
 1728POPC   C2B23864  16.329  33.628   8.297
 1728POPC   C3B23865  16.364  33.675   7.839
 1728POPC   C4B23866  16.402  33.551   7.392
 1729POPC   NC323867  18.490  19.557   9.578
 1729POPC   PO423868  18.037  20.103   9.497
 1729POPC   GL123869  18.330  19.996   9.166
 1729POPC   GL223870  18.278  19.633   9.121
 1729POPC   C1A23871  18.475  19.902   8.740
 1729POPC   D2A23872  18.224  19.691   8.413
 1729POPC   C3A23873  18.217  19.992   8.074
 1729POPC   C4A23874  18.425  20.202   7.722
 1729POPC   C1B23875  17.948  19.373   8.844
 1729POPC   C2B23876  17.791  19.367   8.388
 1729POPC   C3B23877  17.946  19.540   7.994
 1729POPC   C4B23878  18.130  19.772   7.632
 1730POPC   NC323879   8.543  30.593   9.357
 1730POPC   PO423880   8.102  31.042   9.599
 1730POPC   GL123881   8.139  30.923   9.200
 1730POPC   GL223882   8.439  31.075   9.122
 1730POPC   C1A23883   8.183  30.731   8.796
 1730POPC   D2A23884   7.963  30.507   8.468
 1730POPC   C3A23885   8.082  30.668   8.086
 1730POPC   C4A23886   8.288  30.532   7.736
 1730POPC   C1B23887   8.562  31.180   8.720
 1730POPC   C2B23888   8.468  30.927   8.376
 1730POPC   C3B23889   8.507  30.957   7.958
 1730POPC   C4B23890   8.541  30.980   7.538
 1731POPC   NC323891   2.177   2.964   9.473
 1731POPC   PO423892   1.652   2.613   9.309
 1731POPC   GL123893   1.688   2.850   9.009
 1731POPC   GL223894   2.025   2.816   9.006
 1731POPC   C1A23895   1.692   2.825   8.575
 1731POPC   D2A23896   1.915   2.991   8.245
 1731POPC   C3A23897   1.896   2.729   7.897
 1731POPC   C4A23898   1.776   2.988   7.622
 1731POPC   C1B23899   2.215   2.783   8.632
 1731POPC   C2B23900   2.420   2.938   8.276
 1731POPC   C3B23901   2.354   2.980   7.854
 1731POPC   C4B23902   2.540   2.569   7.713
 1732POPC   NC323903  39.862  26.449   9.351
 1732POPC   PO423904  40.101  25.818   9.446
 1732POPC   GL123905  39.845  25.977   9.122
 1732POPC   GL223906  39.513  26.128   9.104
 1732POPC   C1A23907  39.973  26.064   8.721
 1732POPC   D2A23908  40.092  25.841   8.365
 1732POPC   C3A23909  40.192  26.193   8.103
 1732POPC   C4A23910  40.331  26.244   7.701
 1732POPC   C1B23911  39.619  26.463   8.761
 1732POPC   C2B23912  39.765  26.377   8.359
 1732POPC   C3B23913  39.690  26.046   8.104
 1732POPC   C4B23914  39.698  26.144   7.707
 1733POPC   NC323915  31.309  27.278   9.651
 1733POPC   PO423916  30.947  27.751   9.584
 1733POPC   GL123917  31.218  27.596   9.253
 1733POPC   GL223918  31.024  27.334   9.156
 1733POPC   C1A23919  31.479  27.452   8.891
 1733POPC   D2A23920  31.787  27.470   8.535
 1733POPC   C3A23921  31.695  27.531   8.092
 1733POPC   C4A23922  31.508  27.500   7.683
 1733POPC   C1B23923  31.051  27.114   8.788
 1733POPC   C2B23924  31.332  27.182   8.451
 1733POPC   C3B23925  31.227  27.265   8.049
 1733POPC   C4B23926  30.996  27.066   7.747
 1734POPC   NC323927  34.204  44.351   9.471
 1734POPC   PO423928  33.741  43.911   9.778
 1734POPC   GL123929  33.799  44.019   9.338
 1734POPC   GL223930  33.687  43.729   9.195
 1734POPC   C1A23931  33.794  44.126   8.881
 1734POPC   D2A23932  33.744  43.951   8.463
 1734POPC   C3A23933  33.781  44.176   8.085
 1734POPC   C4A23934  33.447  44.133   7.823
 1734POPC   C1B23935  33.711  43.540   8.809
 1734POPC   C2B23936  33.558  43.467   8.402
 1734POPC   C3B23937  33.751  43.633   8.050
 1734POPC   C4B23938  34.017  43.423   7.806
 1735POPC   NC323939   2.813  14.675   9.787
 1735POPC   PO423940   2.486  15.222   9.518
 1735POPC   GL123941   2.781  15.362   9.200
 1735POPC   GL223942   2.623  15.156   8.958
 1735POPC   C1A23943   3.078  15.320   8.860
 1735POPC   D2A23944   3.073  15.050   8.458
 1735POPC   C3A23945   2.850  15.162   8.097
 1735POPC   C4A23946   2.821  15.435   7.747
 1735POPC   C1B23947   2.490  14.758   8.793
 1735POPC   C2B23948   2.290  14.726   8.442
 1735POPC   C3B23949   2.445  14.790   8.070
 1735POPC   C4B23950   2.538  14.955   7.709
 1736POPC   NC323951   8.023  11.016   9.278
 1736POPC   PO423952   8.069  10.392   9.528
 1736POPC   GL123953   8.319  10.607   9.199
 1736POPC   GL223954   8.101  10.700   8.896
 1736POPC   C1A23955   8.589  10.641   8.846
 1736POPC   D2A23956   8.391  10.625   8.445
 1736POPC   C3A23957   8.651  10.753   8.101
 1736POPC   C4A23958   8.439  10.657   7.740
 1736POPC   C1B23959   7.894  10.350   8.686
 1736POPC   C2B23960   8.089  10.212   8.346
 1736POPC   C3B23961   8.061  10.324   7.941
 1736POPC   C4B23962   7.951  10.075   7.608
 1737POPC   NC323963   4.900  42.563   9.503
 1737POPC   PO423964   4.906  41.903   9.300
 1737POPC   GL123965   5.056  42.267   9.136
 1737POPC   GL223966   5.336  42.170   8.980
 1737POPC   C1A23967   4.995  42.597   8.815
 1737POPC   D2A23968   5.148  42.799   8.430
 1737POPC   C3A23969   5.009  42.656   8.013
 1737POPC   C4A23970   5.190  42.418   7.652
 1737POPC   C1B23971   4.993  42.076   8.681
 1737POPC   C2B23972   4.927  42.314   8.373
 1737POPC   C3B23973   5.192  42.138   8.069
 1737POPC   C4B23974   5.103  41.940   7.676
 1738POPC   NC323975   3.451  30.632   9.389
 1738POPC   PO423976   4.132  30.568   9.418
 1738POPC   GL123977   3.860  30.652   9.086
 1738POPC   GL223978   3.712  30.321   9.065
 1738POPC   C1A23979   3.549  30.809   8.757
 1738POPC   D2A23980   3.269  30.970   8.408
 1738POPC   C3A23981   3.443  30.802   8.002
 1738POPC   C4A23982   3.272  30.557   7.699
 1738POPC   C1B23983   3.364  30.344   8.779
 1738POPC   C2B23984   3.374  30.462   8.376
 1738POPC   C3B23985   3.517  30.236   8.047
 1738POPC   C4B23986   3.723  30.301   7.680
 1739POPC   NC323987  44.297  25.089   9.444
 1739POPC   PO423988  44.814  25.515   9.743
 1739POPC   GL123989  44.567  25.499   9.370
 1739POPC   GL223990  44.826  25.512   9.161
 1739POPC   C1A23991  44.378  25.421   8.910
 1739POPC   D2A23992  44.567  25.380   8.459
 1739POPC   C3A23993  44.677  25.569   8.058
 1739POPC   C4A23994  44.390  25.403   7.733
 1739POPC   C1B23995  44.914  25.260   8.813
 1739POPC   C2B23996   0.034  25.206   8.365
 1739POPC   C3B23997  44.816  25.093   7.972
 1739POPC   C4B23998  44.991  25.020   7.566
 1740POPC   NC323999  31.904  40.639   9.146
 1740POPC   PO424000  32.377  41.022   9.410
 1740POPC   GL124001  32.532  40.796   9.043
 1740POPC   GL224002  32.409  40.471   9.064
 1740POPC   C1A24003  32.750  40.558   8.683
 1740POPC   D2A24004  32.588  40.225   8.376
 1740POPC   C3A24005  32.430  40.358   7.956
 1740POPC   C4A24006  32.220  40.749   7.986
 1740POPC   C1B24007  32.252  40.595   8.615
 1740POPC   C2B24008  31.888  40.780   8.411
 1740POPC   C3B24009  31.674  40.547   8.110
 1740POPC   C4B24010  31.921  40.372   7.757
 1741POPC   NC324011  39.963   5.452   9.332
 1741POPC   PO424012  40.136   6.089   9.500
 1741POPC   GL124013  39.988   5.949   9.119
 1741POPC   GL224014  39.704   5.758   8.989
 1741POPC   C1A24015  40.164   5.718   8.783
 1741POPC   D2A24016  39.956   5.601   8.428
 1741POPC   C3A24017  40.195   5.787   8.129
 1741POPC   C4A24018  40.176   5.751   7.710
 1741POPC   C1B24019  39.724   6.154   8.706
 1741POPC   C2B24020  39.566   6.360   8.314
 1741POPC   C3B24021  39.640   6.111   7.917
 1741POPC   C4B24022  39.727   5.658   7.942
 1742POPC   NC324023  41.435  44.235   9.305
 1742POPC   PO424024  40.877  43.966   9.567
 1742POPC   GL124025  40.925  44.086   9.163
 1742POPC   GL224026  41.167  43.823   9.083
 1742POPC   C1A24027  40.723  43.945   8.770
 1742POPC   D2A24028  40.568  43.733   8.400
 1742POPC   C3A24029  40.762  43.870   8.068
 1742POPC   C4A24030  40.620  43.835   7.665
 1742POPC   C1B24031  41.188  44.113   8.714
 1742POPC   C2B24032  41.055  44.241   8.303
 1742POPC   C3B24033  41.233  44.072   7.912
 1742POPC   C4B24034  41.118  43.853   7.547
 1743POPC   NC324035  27.254  21.778   9.516
 1743POPC   PO424036  27.985  21.753   9.389
 1743POPC   GL124037  27.706  21.439   9.184
 1743POPC   GL224038  27.368  21.530   9.079
 1743POPC   C1A24039  27.612  21.197   8.792
 1743POPC   D2A24040  27.648  21.336   8.383
 1743POPC   C3A24041  27.567  21.144   8.002
 1743POPC   C4A24042  27.810  21.374   7.650
 1743POPC   C1B24043  27.259  21.608   8.650
 1743POPC   C2B24044  27.475  21.819   8.303
 1743POPC   C3B24045  27.387  21.614   7.931
 1743POPC   C4B24046  27.095  21.324   7.795
 1744POPC   NC324047   6.775  10.867   9.340
 1744POPC   PO424048   6.312  10.457   9.432
 1744POPC   GL124049   6.521  10.274   9.073
 1744POPC   GL224050   6.869  10.429   9.068
 1744POPC   C1A24051   6.465  10.230   8.617
 1744POPC   D2A24052   6.298  10.485   8.275
 1744POPC   C3A24053   6.291  10.339   7.864
 1744POPC   C4A24054   6.524  10.450   7.457
 1744POPC   C1B24055   6.976  10.684   8.700
 1744POPC   C2B24056   6.856  10.564   8.280
 1744POPC   C3B24057   6.643  10.700   7.896
 1744POPC   C4B24058   6.958  10.899   7.626
 1745POPC   NC324059   9.340   2.251   9.418
 1745POPC   PO424060   8.667   2.697   9.428
 1745POPC   GL124061   8.965   2.514   9.160
 1745POPC   GL224062   9.155   2.785   9.096
 1745POPC   C1A24063   8.981   2.373   8.732
 1745POPC   D2A24064   8.781   2.365   8.337
 1745POPC   C3A24065   8.858   2.514   7.943
 1745POPC   C4A24066   8.996   2.533   7.544
 1745POPC   C1B24067   8.887   2.886   8.713
 1745POPC   C2B24068   8.704   3.136   8.370
 1745POPC   C3B24069   8.759   3.012   7.931
 1745POPC   C4B24070   8.878   3.027   7.464
 1746POPC   NC324071   2.537  24.971   9.438
 1746POPC   PO424072   3.074  25.225   9.695
 1746POPC   GL124073   2.945  25.135   9.207
 1746POPC   GL224074   2.661  25.272   9.026
 1746POPC   C1A24075   2.831  24.892   8.768
 1746POPC   D2A24076   2.885  24.967   8.308
 1746POPC   C3A24077   2.688  25.109   7.899
 1746POPC   C4A24078   2.907  24.942   7.526
 1746POPC   C1B24079   2.940  25.374   8.662
 1746POPC   C2B24080   2.916  25.462   8.223
 1746POPC   C3B24081   2.983  25.538   7.819
 1746POPC   C4B24082   2.580  25.605   7.741
 1747POPC   NC324083  40.311  35.125   9.347
 1747POPC   PO424084  40.981  35.319   9.417
 1747POPC   GL124085  40.786  35.148   9.085
 1747POPC   GL224086  40.584  35.448   9.043
 1747POPC   C1A24087  40.936  35.047   8.667
 1747POPC   D2A24088  41.011  35.152   8.262
 1747POPC   C3A24089  40.766  35.242   7.912
 1747POPC   C4A24090  40.647  35.591   7.652
 1747POPC   C1B24091  40.458  35.244   8.693
 1747POPC   C2B24092  40.408  35.381   8.283
 1747POPC   C3B24093  40.274  35.146   7.940
 1747POPC   C4B24094  40.405  35.171   7.519
 1748POPC   NC324095   5.344   4.028   9.340
 1748POPC   PO424096   5.097   4.599   9.492
 1748POPC   GL124097   5.005   4.405   9.135
 1748POPC   GL224098   4.865   4.686   8.967
 1748POPC   C1A24099   4.942   4.113   8.797
 1748POPC   D2A24100   5.267   4.040   8.517
 1748POPC   C3A24101   5.265   4.316   8.213
 1748POPC   C4A24102   5.210   4.268   7.804
 1748POPC   C1B24103   5.209   4.560   8.679
 1748POPC   C2B24104   5.479   4.770   8.367
 1748POPC   C3B24105   5.455   4.719   7.914
 1748POPC   C4B24106   5.192   4.677   7.514
 1749POPC   NC324107   1.029  37.727   9.532
 1749POPC   PO424108   1.624  37.733   9.167
 1749POPC   GL124109   1.223  37.828   9.059
 1749POPC   GL224110   1.087  37.534   9.079
 1749POPC   C1A24111   1.071  37.834   8.645
 1749POPC   D2A24112   1.046  37.731   8.223
 1749POPC   C3A24113   1.291  37.978   7.932
 1749POPC   C4A24114   1.464  37.899   7.537
 1749POPC   C1B24115   1.184  37.311   8.741
 1749POPC   C2B24116   1.015  37.183   8.381
 1749POPC   C3B24117   1.270  37.270   8.067
 1749POPC   C4B24118   1.152  37.519   7.747
 1750POPC   NC324119  38.629  23.186   9.404
 1750POPC   PO424120  38.584  23.904   9.573
 1750POPC   GL124121  38.664  23.759   9.179
 1750POPC   GL224122  38.331  23.809   9.056
 1750POPC   C1A24123  38.797  23.717   8.752
 1750POPC   D2A24124  38.501  23.717   8.446
 1750POPC   C3A24125  38.692  23.725   8.091
 1750POPC   C4A24126  38.546  23.840   7.757
 1750POPC   C1B24127  38.359  23.418   8.840
 1750POPC   C2B24128  38.209  23.299   8.424
 1750POPC   C3B24129  38.238  23.510   8.039
 1750POPC   C4B24130  38.082  23.937   7.923
 1751POPC   NC324131  44.374  17.583   9.450
 1751POPC   PO424132   0.008  17.280   9.476
 1751POPC   GL124133  44.861  17.558   9.131
 1751POPC   GL224134  44.582  17.735   9.021
 1751POPC   C1A24135  44.813  17.395   8.721
 1751POPC   D2A24136  44.979  17.474   8.338
 1751POPC   C3A24137   0.030  17.162   8.088
 1751POPC   C4A24138  44.996  17.303   7.681
 1751POPC   C1B24139  44.309  17.523   8.755
 1751POPC   C2B24140  44.468  17.657   8.379
 1751POPC   C3B24141  44.623  17.566   7.982
 1751POPC   C4B24142  44.461  17.266   7.705
 1752POPC   NC324143  37.929  24.881   9.556
 1752POPC   PO424144  37.373  25.110   9.489
 1752POPC   GL124145  37.697  25.231   9.223
 1752POPC   GL224146  37.534  25.518   9.099
 1752POPC   C1A24147  37.867  25.201   8.806
 1752POPC   D2A24148  37.678  25.351   8.416
 1752POPC   C3A24149  37.910  25.301   8.051
 1752POPC   C4A24150  37.878  25.012   7.754
 1752POPC   C1B24151  37.343  25.226   8.786
 1752POPC   C2B24152  37.233  25.113   8.325
 1752POPC   C3B24153  37.403  25.210   7.906
 1752POPC   C4B24154  37.583  25.402   7.531
 1753POPC   NC324155  42.325  42.925   9.546
 1753POPC   PO424156  41.946  43.453   9.382
 1753POPC   GL124157  42.208  43.202   9.121
 1753POPC   GL224158  42.569  43.132   9.146
 1753POPC   C1A24159  42.245  43.112   8.709
 1753POPC   D2A24160  41.965  43.025   8.363
 1753POPC   C3A24161  42.143  43.068   7.973
 1753POPC   C4A24162  42.067  42.712   7.726
 1753POPC   C1B24163  42.716  43.310   8.767
 1753POPC   C2B24164  42.694  43.160   8.349
 1753POPC   C3B24165  42.793  43.158   7.944
 1753POPC   C4B24166  42.528  43.104   7.605
 1754POPC   NC324167  37.393  26.584   9.406
 1754POPC   PO424168  36.821  26.965   9.536
 1754POPC   GL124169  36.819  26.789   9.135
 1754POPC   GL224170  37.167  26.832   9.054
 1754POPC   C1A24171  36.686  26.675   8.730
 1754POPC   D2A24172  36.690  26.880   8.341
 1754POPC   C3A24173  36.687  26.727   7.930
 1754POPC   C4A24174  36.727  26.921   7.511
 1754POPC   C1B24175  37.169  26.878   8.668
 1754POPC   C2B24176  37.095  26.560   8.414
 1754POPC   C3B24177  37.155  26.526   8.012
 1754POPC   C4B24178  37.163  26.888   7.763
 1755POPC   NC324179   0.935  32.003   9.627
 1755POPC   PO424180   0.452  31.593   9.362
 1755POPC   GL124181   0.358  31.700   8.979
 1755POPC   GL224182   0.138  31.513   8.794
 1755POPC   C1A24183   0.612  31.534   8.642
 1755POPC   D2A24184   0.619  31.392   8.233
 1755POPC   C3A24185   0.418  31.619   7.918
 1755POPC   C4A24186   0.541  31.315   7.665
 1755POPC   C1B24187   0.102  31.060   8.738
 1755POPC   C2B24188   0.021  30.955   8.322
 1755POPC   C3B24189   0.133  31.229   8.046
 1755POPC   C4B24190   0.015  31.371   7.675
 1756POPC   NC324191  26.849  11.484   9.729
 1756POPC   PO424192  26.379  11.685   9.325
 1756POPC   GL124193  26.770  11.561   9.218
 1756POPC   GL224194  26.846  11.200   9.303
 1756POPC   C1A24195  27.022  11.591   8.868
 1756POPC   D2A24196  27.076  11.504   8.433
 1756POPC   C3A24197  26.946  11.644   8.016
 1756POPC   C4A24198  27.068  11.238   7.781
 1756POPC   C1B24199  26.731  11.155   8.882
 1756POPC   C2B24200  26.586  11.318   8.504
 1756POPC   C3B24201  26.698  11.228   8.120
 1756POPC   C4B24202  26.591  11.289   7.677
 1757POPC   NC324203   7.065  23.521   9.898
 1757POPC   PO424204   7.616  23.673   9.492
 1757POPC   GL124205   7.394  23.661   9.095
 1757POPC   GL224206   7.602  23.371   8.999
 1757POPC   C1A24207   7.181  23.866   8.742
 1757POPC   D2A24208   7.385  23.959   8.344
 1757POPC   C3A24209   7.248  23.740   7.979
 1757POPC   C4A24210   7.258  23.686   7.555
 1757POPC   C1B24211   7.462  23.478   8.559
 1757POPC   C2B24212   7.682  23.543   8.153
 1757POPC   C3B24213   7.618  23.356   7.744
 1757POPC   C4B24214   7.824  23.079   7.415
 1758POPC   NC324215   3.022   1.666   9.463
 1758POPC   PO424216   2.623   2.265   9.435
 1758POPC   GL124217   2.820   2.009   9.136
 1758POPC   GL224218   2.619   1.729   9.111
 1758POPC   C1A24219   2.914   1.905   8.707
 1758POPC   D2A24220   3.128   2.054   8.321
 1758POPC   C3A24221   2.885   1.960   7.971
 1758POPC   C4A24222   3.036   1.617   7.749
 1758POPC   C1B24223   2.328   1.706   8.701
 1758POPC   C2B24224   2.205   1.841   8.255
 1758POPC   C3B24225   2.382   1.818   7.823
 1758POPC   C4B24226   2.636   2.078   7.532
 1759POPC   NC324227  25.659  16.239   9.375
 1759POPC   PO424228  26.300  15.965   9.531
 1759POPC   GL124229  26.238  15.765   9.147
 1759POPC   GL224230  25.967  15.994   9.019
 1759POPC   C1A24231  26.231  15.621   8.754
 1759POPC   D2A24232  26.057  15.863   8.465
 1759POPC   C3A24233  25.985  15.720   8.070
 1759POPC   C4A24234  26.103  15.890   7.712
 1759POPC   C1B24235  25.701  16.208   8.711
 1759POPC   C2B24236  25.630  16.064   8.283
 1759POPC   C3B24237  25.770  16.269   7.894
 1759POPC   C4B24238  25.789  16.203   7.407
 1760POPC   NC324239   7.015  33.450   9.422
 1760POPC   PO424240   7.438  33.944   9.441
 1760POPC   GL124241   7.371  33.689   9.115
 1760POPC   GL224242   7.683  33.511   9.125
 1760POPC   C1A24243   7.260  33.889   8.717
 1760POPC   D2A24244   7.558  34.087   8.429
 1760POPC   C3A24245   7.427  34.008   8.040
 1760POPC   C4A24246   7.200  33.956   7.698
 1760POPC   C1B24247   7.745  33.725   8.748
 1760POPC   C2B24248   7.744  33.585   8.360
 1760POPC   C3B24249   7.557  33.519   7.971
 1760POPC   C4B24250   7.642  33.743   7.635
 1761POPC   NC324251  12.331  36.265   9.496
 1761POPC   PO424252  11.830  35.880   9.636
 1761POPC   GL124253  11.943  35.999   9.217
 1761POPC   GL224254  11.899  36.368   9.202
 1761POPC   C1A24255  11.849  35.924   8.773
 1761POPC   D2A24256  12.128  35.975   8.445
 1761POPC   C3A24257  12.001  35.902   8.038
 1761POPC   C4A24258  12.257  35.954   7.719
 1761POPC   C1B24259  12.142  36.377   8.809
 1761POPC   C2B24260  12.299  36.457   8.396
 1761POPC   C3B24261  12.189  36.383   7.996
 1761POPC   C4B24262  12.185  36.564   7.571
 1762POPC   NC324263  24.403  17.289   9.761
 1762POPC   PO424264  24.817  17.174   9.209
 1762POPC   GL124265  24.640  17.451   8.901
 1762POPC   GL224266  24.360  17.655   8.943
 1762POPC   C1A24267  24.717  17.810   8.644
 1762POPC   D2A24268  24.932  17.860   8.353
 1762POPC   C3A24269  24.627  17.951   8.100
 1762POPC   C4A24270  24.667  17.690   7.758
 1762POPC   C1B24271  24.222  17.410   8.592
 1762POPC   C2B24272  24.132  17.638   8.194
 1762POPC   C3B24273  24.035  17.570   7.772
 1762POPC   C4B24274  23.963  17.353   7.362
 1763POPC   NC324275  24.468  30.386   9.736
 1763POPC   PO424276  24.662  29.891   9.449
 1763POPC   GL124277  24.488  29.999   9.105
 1763POPC   GL224278  24.251  30.184   9.305
 1763POPC   C1A24279  24.399  29.838   8.684
 1763POPC   D2A24280  24.505  30.164   8.395
 1763POPC   C3A24281  24.742  30.081   8.045
 1763POPC   C4A24282  24.557  29.954   7.702
 1763POPC   C1B24283  24.081  30.200   8.886
 1763POPC   C2B24284  23.988  30.156   8.457
 1763POPC   C3B24285  24.159  30.060   8.032
 1763POPC   C4B24286  23.984  30.080   7.614
 1764POPC   NC324287  33.085   8.760   9.557
 1764POPC   PO424288  33.267   9.333   9.518
 1764POPC   GL124289  33.185   9.075   9.159
 1764POPC   GL224290  32.941   8.862   9.085
 1764POPC   C1A24291  33.290   8.898   8.745
 1764POPC   D2A24292  33.094   8.825   8.350
 1764POPC   C3A24293  33.184   9.085   7.995
 1764POPC   C4A24294  32.903   9.153   7.675
 1764POPC   C1B24295  32.735   8.891   8.708
 1764POPC   C2B24296  32.610   8.605   8.405
 1764POPC   C3B24297  32.692   8.787   8.021
 1764POPC   C4B24298  32.508   8.787   7.661
 1765POPC   NC324299  26.751  38.666   9.387
 1765POPC   PO424300  26.844  39.325   9.475
 1765POPC   GL124301  26.930  39.113   9.099
 1765POPC   GL224302  26.539  39.124   9.059
 1765POPC   C1A24303  27.160  39.204   8.667
 1765POPC   D2A24304  27.067  39.538   8.296
 1765POPC   C3A24305  26.898  39.395   7.871
 1765POPC   C4A24306  26.448  39.241   7.813
 1765POPC   C1B24307  26.713  38.954   8.675
 1765POPC   C2B24308  26.782  39.071   8.237
 1765POPC   C3B24309  26.738  38.816   7.859
 1765POPC   C4B24310  26.412  38.783   7.533
 1766POPC   NC324311  33.077  37.828   9.449
 1766POPC   PO424312  32.480  37.788   9.683
 1766POPC   GL124313  32.615  37.779   9.207
 1766POPC   GL224314  32.748  37.452   9.130
 1766POPC   C1A24315  32.834  37.831   8.763
 1766POPC   D2A24316  32.903  37.604   8.308
 1766POPC   C3A24317  33.196  37.791   7.972
 1766POPC   C4A24318  33.423  37.643   7.561
 1766POPC   C1B24319  32.902  37.300   8.731
 1766POPC   C2B24320  32.852  37.015   8.378
 1766POPC   C3B24321  32.696  37.081   7.980
 1766POPC   C4B24322  32.884  37.438   7.772
 1767POPC   NC324323  24.223   1.447   9.518
 1767POPC   PO424324  24.664   0.894   9.551
 1767POPC   GL124325  24.586   1.202   9.246
 1767POPC   GL224326  24.740   1.528   9.258
 1767POPC   C1A24327  24.369   1.347   8.895
 1767POPC   D2A24328  24.471   1.283   8.492
 1767POPC   C3A24329  24.214   1.041   8.228
 1767POPC   C4A24330  24.284   1.064   7.778
 1767POPC   C1B24331  24.831   1.573   8.779
 1767POPC   C2B24332  24.684   1.709   8.341
 1767POPC   C3B24333  24.424   1.507   8.027
 1767POPC   C4B24334  24.649   1.423   7.641
 1768POPC   NC324335  27.499  37.487   9.323
 1768POPC   PO424336  27.820  36.906   9.550
 1768POPC   GL124337  27.681  36.847   9.144
 1768POPC   GL224338  27.730  37.150   9.028
 1768POPC   C1A24339  27.439  36.713   8.792
 1768POPC   D2A24340  27.311  36.854   8.381
 1768POPC   C3A24341  27.621  36.830   8.041
 1768POPC   C4A24342  27.585  36.973   7.596
 1768POPC   C1B24343  27.838  36.990   8.635
 1768POPC   C2B24344  27.952  37.221   8.295
 1768POPC   C3B24345  27.973  37.160   7.874
 1768POPC   C4B24346  28.036  37.147   7.410
 1769POPC   NC324347  21.137  14.228   9.583
 1769POPC   PO424348  21.626  14.720   9.579
 1769POPC   GL124349  21.344  14.592   9.215
 1769POPC   GL224350  21.415  14.222   9.157
 1769POPC   C1A24351  21.272  14.766   8.767
 1769POPC   D2A24352  21.468  14.822   8.337
 1769POPC   C3A24353  21.319  14.630   7.942
 1769POPC   C4A24354  21.457  14.501   7.524
 1769POPC   C1B24355  21.294  14.217   8.737
 1769POPC   C2B24356  21.227  14.276   8.308
 1769POPC   C3B24357  21.085  14.133   7.902
 1769POPC   C4B24358  21.084  14.155   7.441
 1770POPC   NC324359  13.247  43.139   9.354
 1770POPC   PO424360  13.943  43.349   9.457
 1770POPC   GL124361  13.780  43.216   9.106
 1770POPC   GL224362  13.557  43.481   9.118
 1770POPC   C1A24363  13.608  42.999   8.755
 1770POPC   D2A24364  13.590  42.760   8.359
 1770POPC   C3A24365  13.588  43.012   7.971
 1770POPC   C4A24366  13.738  43.013   7.541
 1770POPC   C1B24367  13.394  43.573   8.752
 1770POPC   C2B24368  13.380  43.316   8.411
 1770POPC   C3B24369  13.383  43.468   8.057
 1770POPC   C4B24370  13.357  43.396   7.659
 1771POPC   NC324371  27.673  43.234   9.470
 1771POPC   PO424372  28.002  42.694   9.455
 1771POPC   GL124373  27.897  42.999   9.087
 1771POPC   GL224374  27.887  43.400   9.050
 1771POPC   C1A24375  27.659  43.089   8.710
 1771POPC   D2A24376  27.485  43.128   8.303
 1771POPC   C3A24377  27.453  42.853   7.943
 1771POPC   C4A24378  27.826  42.790   7.628
 1771POPC   C1B24379  27.736  43.598   8.652
 1771POPC   C2B24380  27.801  43.518   8.218
 1771POPC   C3B24381  27.652  43.299   7.842
 1771POPC   C4B24382  27.777  43.366   7.421
 1772POPC   NC324383   9.351  15.769   9.798
 1772POPC   PO424384   9.713  15.185   9.536
 1772POPC   GL124385   9.772  15.075   9.062
 1772POPC   GL224386   9.456  15.086   8.875
 1772POPC   C1A24387   9.902  14.945   8.626
 1772POPC   D2A24388   9.567  14.831   8.327
 1772POPC   C3A24389   9.617  15.023   7.939
 1772POPC   C4A24390   9.980  15.263   7.755
 1772POPC   C1B24391   9.721  15.468   8.739
 1772POPC   C2B24392   9.672  15.736   8.383
 1772POPC   C3B24393   9.611  15.545   7.964
 1772POPC   C4B24394   9.598  15.481   7.505
 1773POPC   NC324395  33.977  42.798   9.575
 1773POPC   PO424396  33.578  43.325   9.496
 1773POPC   GL124397  33.846  43.156   9.149
 1773POPC   GL224398  33.862  42.781   9.098
 1773POPC   C1A24399  33.821  43.054   8.686
 1773POPC   D2A24400  33.942  43.174   8.288
 1773POPC   C3A24401  33.672  43.062   7.973
 1773POPC   C4A24402  33.580  43.239   7.584
 1773POPC   C1B24403  34.219  42.702   8.779
 1773POPC   C2B24404  34.346  42.883   8.359
 1773POPC   C3B24405  34.140  42.849   7.953
 1773POPC   C4B24406  34.186  43.008   7.549
 1774POPC   NC324407  11.956  42.196   9.483
 1774POPC   PO424408  12.298  41.566   9.543
 1774POPC   GL124409  12.281  41.675   9.118
 1774POPC   GL224410  12.091  41.948   9.080
 1774POPC   C1A24411  12.008  41.547   8.766
 1774POPC   D2A24412  11.988  41.346   8.376
 1774POPC   C3A24413  12.383  41.411   8.146
 1774POPC   C4A24414  12.379  41.299   7.718
 1774POPC   C1B24415  12.030  42.065   8.691
 1774POPC   C2B24416  12.039  41.853   8.305
 1774POPC   C3B24417  12.086  41.774   7.869
 1774POPC   C4B24418  11.872  42.007   7.548
 1775POPC   NC324419  44.420  18.581   9.473
 1775POPC   PO424420  44.676  17.939   9.477
 1775POPC   GL124421  44.610  18.242   9.123
 1775POPC   GL224422  44.860  18.512   9.096
 1775POPC   C1A24423  44.556  18.135   8.691
 1775POPC   D2A24424  44.844  17.989   8.375
 1775POPC   C3A24425  44.812  18.151   7.991
 1775POPC   C4A24426  44.803  18.041   7.551
 1775POPC   C1B24427  44.844  18.665   8.674
 1775POPC   C2B24428  44.620  18.499   8.341
 1775POPC   C3B24429  44.457  18.511   7.943
 1775POPC   C4B24430  44.822  18.538   7.665
 1776POPC   NC324431   7.518  37.590   9.527
 1776POPC   PO424432   7.610  38.258   9.396
 1776POPC   GL124433   7.413  37.963   9.099
 1776POPC   GL224434   7.333  37.573   9.075
 1776POPC   C1A24435   7.431  37.883   8.668
 1776POPC   D2A24436   7.649  37.666   8.366
 1776POPC   C3A24437   7.565  37.861   8.027
 1776POPC   C4A24438   7.571  37.666   7.692
 1776POPC   C1B24439   7.402  37.372   8.714
 1776POPC   C2B24440   7.156  37.475   8.397
 1776POPC   C3B24441   7.250  37.316   8.057
 1776POPC   C4B24442   7.070  37.299   7.713
 1777POPC   NC324443   6.306  29.624   9.560
 1777POPC   PO424444   6.763  30.046   9.750
 1777POPC   GL124445   6.569  30.039   9.332
 1777POPC   GL224446   6.663  29.739   9.215
 1777POPC   C1A24447   6.571  30.054   8.857
 1777POPC   D2A24448   6.521  30.194   8.454
 1777POPC   C3A24449   6.431  29.903   8.148
 1777POPC   C4A24450   6.547  29.977   7.711
 1777POPC   C1B24451   6.432  29.577   8.887
 1777POPC   C2B24452   6.399  29.491   8.469
 1777POPC   C3B24453   6.317  29.407   8.068
 1777POPC   C4B24454   6.332  29.535   7.649
 1778POPC   NC324455  26.997  23.908   9.443
 1778POPC   PO424456  26.602  23.311   9.479
 1778POPC   GL124457  26.669  23.602   9.172
 1778POPC   GL224458  26.983  23.509   9.102
 1778POPC   C1A24459  26.709  23.791   8.763
 1778POPC   D2A24460  26.694  24.008   8.374
 1778POPC   C3A24461  26.847  23.903   7.996
 1778POPC   C4A24462  26.458  23.785   7.786
 1778POPC   C1B24463  27.177  23.559   8.748
 1778POPC   C2B24464  27.000  23.585   8.372
 1778POPC   C3B24465  26.696  23.417   8.097
 1778POPC   C4B24466  26.856  23.486   7.679
 1779POPC   NC324467   9.683  20.399   9.833
 1779POPC   PO424468   9.680  20.841   9.392
 1779POPC   GL124469   9.827  20.561   9.149
 1779POPC   GL224470   9.511  20.384   9.123
 1779POPC   C1A24471   9.863  20.628   8.733
 1779POPC   D2A24472   9.734  20.905   8.442
 1779POPC   C3A24473   9.787  20.640   8.116
 1779POPC   C4A24474   9.661  20.707   7.727
 1779POPC   C1B24475   9.444  20.213   8.723
 1779POPC   C2B24476   9.677  20.180   8.330
 1779POPC   C3B24477   9.724  20.117   7.842
 1779POPC   C4B24478   9.518  20.287   7.461
 1780POPC   NC324479  34.837  43.581   9.391
 1780POPC   PO424480  35.532  43.823   9.329
 1780POPC   GL124481  35.200  43.879   9.055
 1780POPC   GL224482  35.271  44.209   8.890
 1780POPC   C1A24483  35.161  43.788   8.624
 1780POPC   D2A24484  35.129  43.994   8.242
 1780POPC   C3A24485  35.311  43.649   8.042
 1780POPC   C4A24486  35.695  43.592   7.818
 1780POPC   C1B24487  35.638  43.971   8.701
 1780POPC   C2B24488  35.661  43.904   8.277
 1780POPC   C3B24489  35.524  44.062   7.872
 1780POPC   C4B24490  35.723  44.034   7.468
 1781POPC   NC324491   0.046  32.747   9.597
 1781POPC   PO424492  44.822  33.408   9.614
 1781POPC   GL124493  44.739  33.289   9.198
 1781POPC   GL224494  44.669  32.910   9.170
 1781POPC   C1A24495  44.495  33.269   8.830
 1781POPC   D2A24496  44.451  32.959   8.518
 1781POPC   C3A24497  44.299  33.149   8.137
 1781POPC   C4A24498  44.545  33.289   7.815
 1781POPC   C1B24499  44.886  32.652   8.844
 1781POPC   C2B24500  44.802  32.566   8.429
 1781POPC   C3B24501  44.668  32.769   8.082
 1781POPC   C4B24502  44.772  32.685   7.664
 1782POPC   NC324503  36.020   2.511   9.474
 1782POPC   PO424504  36.336   3.121   9.390
 1782POPC   GL124505  36.048   2.981   9.145
 1782POPC   GL224506  35.860   3.282   9.078
 1782POPC   C1A24507  36.227   2.791   8.787
 1782POPC   D2A24508  36.103   2.595   8.427
 1782POPC   C3A24509  36.343   2.796   8.110
 1782POPC   C4A24510  36.200   2.905   7.712
 1782POPC   C1B24511  35.907   3.156   8.662
 1782POPC   C2B24512  35.943   3.103   8.231
 1782POPC   C3B24513  35.824   3.284   7.848
 1782POPC   C4B24514  36.035   3.301   7.440
 1783POPC   NC324515   5.511   1.461   9.343
 1783POPC   PO424516   6.077   1.146   9.513
 1783POPC   GL124517   6.094   1.371   9.108
 1783POPC   GL224518   5.804   1.515   8.941
 1783POPC   C1A24519   6.150   1.191   8.678
 1783POPC   D2A24520   6.173   0.867   8.350
 1783POPC   C3A24521   6.071   1.033   7.937
 1783POPC   C4A24522   6.122   1.449   7.767
 1783POPC   C1B24523   5.641   1.137   8.748
 1783POPC   C2B24524   5.719   1.131   8.320
 1783POPC   C3B24525   5.681   1.426   8.015
 1783POPC   C4B24526   5.675   1.699   7.670
 1784POPC   NC324527  15.460  33.824   9.464
 1784POPC   PO424528  14.784  33.944   9.533
 1784POPC   GL124529  15.033  33.819   9.171
 1784POPC   GL224530  15.131  33.470   9.188
 1784POPC   C1A24531  15.076  33.861   8.731
 1784POPC   D2A24532  14.799  33.869   8.369
 1784POPC   C3A24533  15.044  33.814   7.977
 1784POPC   C4A24534  15.045  33.828   7.532
 1784POPC   C1B24535  15.423  33.420   8.843
 1784POPC   C2B24536  15.402  33.595   8.428
 1784POPC   C3B24537  15.406  33.445   8.037
 1784POPC   C4B24538  15.472  33.521   7.638
 1785POPC   NC324539   1.285   2.340   9.375
 1785POPC   PO424540   1.579   1.824   9.453
 1785POPC   GL124541   1.314   1.885   9.118
 1785POPC   GL224542   0.963   1.893   9.209
 1785POPC   C1A24543   1.163   2.126   8.775
 1785POPC   D2A24544   1.022   2.021   8.394
 1785POPC   C3A24545   1.221   2.211   8.058
 1785POPC   C4A24546   1.392   2.132   7.668
 1785POPC   C1B24547   0.843   1.699   8.800
 1785POPC   C2B24548   0.613   1.742   8.414
 1785POPC   C3B24549   0.847   1.682   8.052
 1785POPC   C4B24550   0.754   1.754   7.676
 1786POPC   NC324551  33.079  26.724   9.681
 1786POPC   PO424552  32.437  26.956   9.505
 1786POPC   GL124553  32.814  26.785   9.243
 1786POPC   GL224554  33.169  26.924   9.232
 1786POPC   C1A24555  32.938  26.818   8.783
 1786POPC   D2A24556  32.753  26.908   8.339
 1786POPC   C3A24557  32.945  26.735   7.984
 1786POPC   C4A24558  33.162  26.882   7.601
 1786POPC   C1B24559  33.274  27.188   8.886
 1786POPC   C2B24560  33.092  27.266   8.498
 1786POPC   C3B24561  33.150  27.198   8.064
 1786POPC   C4B24562  33.509  27.255   7.750
 1787POPC   NC324563  44.782  24.236   9.633
 1787POPC   PO424564  44.711  24.943   9.548
 1787POPC   GL124565  44.596  24.677   9.232
 1787POPC   GL224566  44.907  24.519   9.151
 1787POPC   C1A24567  44.527  24.656   8.781
 1787POPC   D2A24568  44.672  24.822   8.375
 1787POPC   C3A24569  44.522  24.598   7.998
 1787POPC   C4A24570  44.317  24.430   7.600
 1787POPC   C1B24571   0.028  24.760   8.751
 1787POPC   C2B24572   0.202  24.735   8.321
 1787POPC   C3B24573   0.037  24.639   7.913
 1787POPC   C4B24574  44.818  24.508   7.542
 1788POPC   NC324575   8.837  18.998   9.563
 1788POPC   PO424576   9.388  19.397   9.641
 1788POPC   GL124577   9.272  19.080   9.242
 1788POPC   GL224578   8.994  18.828   9.129
 1788POPC   C1A24579   9.286  18.928   8.753
 1788POPC   D2A24580   9.122  18.991   8.342
 1788POPC   C3A24581   9.171  18.825   7.920
 1788POPC   C4A24582   9.172  19.174   7.631
 1788POPC   C1B24583   8.786  19.017   8.748
 1788POPC   C2B24584   8.574  19.104   8.380
 1788POPC   C3B24585   8.474  18.937   8.001
 1788POPC   C4B24586   8.710  19.065   7.770
 1789POPC   NC324587  21.748  34.697   9.476
 1789POPC   PO424588  21.253  34.262   9.376
 1789POPC   GL124589  21.447  34.471   9.101
 1789POPC   GL224590  21.426  34.822   9.072
 1789POPC   C1A24591  21.372  34.466   8.679
 1789POPC   D2A24592  21.326  34.616   8.288
 1789POPC   C3A24593  21.266  34.346   7.954
 1789POPC   C4A24594  21.091  34.531   7.612
 1789POPC   C1B24595  21.477  34.988   8.654
 1789POPC   C2B24596  21.665  35.000   8.246
 1789POPC   C3B24597  21.521  34.834   7.857
 1789POPC   C4B24598  21.366  34.998   7.461
 1790POPC   NC324599  32.218   0.912   9.914
 1790POPC   PO424600  32.176   0.339   9.416
 1790POPC   GL124601  32.241   0.633   9.127
 1790POPC   GL224602  31.875   0.739   9.139
 1790POPC   C1A24603  32.425   0.526   8.689
 1790POPC   D2A24604  32.513   0.138   8.372
 1790POPC   C3A24605  32.429   0.225   7.955
 1790POPC   C4A24606  32.671   0.500   7.696
 1790POPC   C1B24607  31.927   0.412   8.789
 1790POPC   C2B24608  32.026   0.302   8.377
 1790POPC   C3B24609  31.906   0.526   8.010
 1790POPC   C4B24610  32.143   0.547   7.658
 1791POPC   NC324611  34.676  31.164   9.475
 1791POPC   PO424612  34.401  31.786   9.631
 1791POPC   GL124613  34.444  31.591   9.218
 1791POPC   GL224614  34.782  31.582   9.110
 1791POPC   C1A24615  34.459  31.575   8.737
 1791POPC   D2A24616  34.804  31.616   8.436
 1791POPC   C3A24617  34.631  31.540   8.050
 1791POPC   C4A24618  34.616  31.713   7.652
 1791POPC   C1B24619  34.861  31.254   8.810
 1791POPC   C2B24620  35.105  31.147   8.421
 1791POPC   C3B24621  34.944  30.966   8.016
 1791POPC   C4B24622  34.828  31.221   7.711
 1792POPC   NC324623  40.924  30.145   9.407
 1792POPC   PO424624  40.673  30.802   9.488
 1792POPC   GL124625  40.786  30.752   9.080
 1792POPC   GL224626  40.629  30.427   9.076
 1792POPC   C1A24627  40.621  30.740   8.649
 1792POPC   D2A24628  40.586  30.833   8.191
 1792POPC   C3A24629  41.002  30.816   7.980
 1792POPC   C4A24630  41.293  30.597   7.695
 1792POPC   C1B24631  40.981  30.377   8.766
 1792POPC   C2B24632  41.007  30.174   8.353
 1792POPC   C3B24633  40.948  30.308   7.939
 1792POPC   C4B24634  40.532  30.392   7.791
 1793POPC   NC324635  41.961  20.618   9.469
 1793POPC   PO424636  42.594  20.807   9.621
 1793POPC   GL124637  42.380  20.728   9.204
 1793POPC   GL224638  42.377  20.401   9.118
 1793POPC   C1A24639  42.097  20.705   8.801
 1793POPC   D2A24640  42.328  20.655   8.422
 1793POPC   C3A24641  42.196  20.507   8.025
 1793POPC   C4A24642  42.326  20.696   7.626
 1793POPC   C1B24643  42.288  20.244   8.752
 1793POPC   C2B24644  41.973  20.317   8.453
 1793POPC   C3B24645  41.920  20.110   8.059
 1793POPC   C4B24646  42.279  20.065   7.757
 1794POPC   NC324647  34.037  10.199   9.422
 1794POPC   PO424648  33.584  10.767   9.388
 1794POPC   GL124649  33.701  10.428   9.109
 1794POPC   GL224650  33.436  10.209   8.999
 1794POPC   C1A24651  33.834  10.371   8.685
 1794POPC   D2A24652  33.778  10.601   8.309
 1794POPC   C3A24653  33.914  10.469   7.897
 1794POPC   C4A24654  34.150  10.376   7.513
 1794POPC   C1B24655  33.356  10.601   8.780
 1794POPC   C2B24656  33.275  10.648   8.383
 1794POPC   C3B24657  33.405  10.417   8.021
 1794POPC   C4B24658  33.314  10.553   7.653
 1795POPC   NC324659  34.055  40.416   9.776
 1795POPC   PO424660  33.629  39.931   9.499
 1795POPC   GL124661  33.648  40.099   9.081
 1795POPC   GL224662  33.951  40.123   9.109
 1795POPC   C1A24663  33.742  40.262   8.669
 1795POPC   D2A24664  33.719  40.030   8.287
 1795POPC   C3A24665  33.804  40.215   7.881
 1795POPC   C4A24666  33.757  40.116   7.439
 1795POPC   C1B24667  34.034  39.844   8.793
 1795POPC   C2B24668  34.161  39.741   8.387
 1795POPC   C3B24669  34.065  39.787   7.966
 1795POPC   C4B24670  34.259  39.789   7.571
 1796POPC   NC324671  40.755  29.429   9.413
 1796POPC   PO424672  40.478  30.036   9.495
 1796POPC   GL124673  40.549  29.915   9.108
 1796POPC   GL224674  40.884  29.798   9.022
 1796POPC   C1A24675  40.566  30.044   8.689
 1796POPC   D2A24676  40.675  29.728   8.418
 1796POPC   C3A24677  40.708  29.880   8.017
 1796POPC   C4A24678  40.740  29.967   7.569
 1796POPC   C1B24679  41.117  29.568   8.707
 1796POPC   C2B24680  41.151  29.692   8.238
 1796POPC   C3B24681  41.077  29.637   7.779
 1796POPC   C4B24682  41.100  29.661   7.307
 1797POPC   NC324683  30.325  30.090   9.600
 1797POPC   PO424684  30.820  29.598   9.692
 1797POPC   GL124685  30.621  29.737   9.257
 1797POPC   GL224686  30.402  30.044   9.096
 1797POPC   C1A24687  30.675  29.711   8.787
 1797POPC   D2A24688  30.549  29.550   8.368
 1797POPC   C3A24689  30.624  29.904   8.088
 1797POPC   C4A24690  30.706  29.961   7.671
 1797POPC   C1B24691  30.479  30.347   8.724
 1797POPC   C2B24692  30.601  30.422   8.266
 1797POPC   C3B24693  30.468  30.417   7.797
 1797POPC   C4B24694  30.254  30.119   7.500
 1798POPC   NC324695  31.379  43.337   9.704
 1798POPC   PO424696  31.097  42.934   9.240
 1798POPC   GL124697  31.502  43.024   9.035
 1798POPC   GL224698  31.543  43.351   9.105
 1798POPC   C1A24699  31.570  42.843   8.641
 1798POPC   D2A24700  31.325  42.868   8.251
 1798POPC   C3A24701  31.563  43.048   7.908
 1798POPC   C4A24702  31.867  42.771   7.745
 1798POPC   C1B24703  31.346  43.341   8.673
 1798POPC   C2B24704  31.416  43.399   8.252
 1798POPC   C3B24705  31.246  43.511   7.868
 1798POPC   C4B24706  31.118  43.332   7.458
 1799POPC   NC324707  41.427   7.316   9.392
 1799POPC   PO424708  41.847   7.862   9.552
 1799POPC   GL124709  41.857   7.501   9.156
 1799POPC   GL224710  42.004   7.173   9.209
 1799POPC   C1A24711  41.587   7.425   8.743
 1799POPC   D2A24712  41.435   7.744   8.492
 1799POPC   C3A24713  41.382   7.456   8.184
 1799POPC   C4A24714  41.600   7.494   7.825
 1799POPC   C1B24715  41.998   7.157   8.728
 1799POPC   C2B24716  41.800   7.141   8.322
 1799POPC   C3B24717  41.999   7.186   7.942
 1799POPC   C4B24718  41.872   7.221   7.519
 1800POPC   NC324719  28.977  11.120   9.462
 1800POPC   PO424720  29.477  11.608   9.435
 1800POPC   GL124721  29.225  11.746   9.091
 1800POPC   GL224722  28.903  11.579   9.202
 1800POPC   C1A24723  29.313  11.695   8.639
 1800POPC   D2A24724  29.332  11.319   8.396
 1800POPC   C3A24725  29.186  11.251   8.002
 1800POPC   C4A24726  29.339  11.451   7.685
 1800POPC   C1B24727  28.951  11.351   8.801
 1800POPC   C2B24728  28.808  11.345   8.370
 1800POPC   C3B24729  28.681  11.228   7.951
 1800POPC   C4B24730  28.668  11.433   7.587
 1801POPC   NC324731   7.082  44.542   9.401
 1801POPC   PO424732   7.602  44.915   9.557
 1801POPC   GL124733   7.461  44.798   9.171
 1801POPC   GL224734   7.149  44.971   9.092
 1801POPC   C1A24735   7.666  44.741   8.813
 1801POPC   D2A24736   7.554  44.626   8.426
 1801POPC   C3A24737   7.476  44.845   8.062
 1801POPC   C4A24738   7.770  44.660   7.743
 1801POPC   C1B24739   7.150  44.645   8.756
 1801POPC   C2B24740   7.034  44.592   8.330
 1801POPC   C3B24741   7.052  44.463   7.914
 1801POPC   C4B24742   7.294  44.701   7.604
 1802POPC   NC324743  12.747  11.600   9.485
 1802POPC   PO424744  12.913  10.962   9.518
 1802POPC   GL124745  12.657  11.073   9.190
 1802POPC   GL224746  12.704  11.380   9.025
 1802POPC   C1A24747  12.695  10.925   8.780
 1802POPC   D2A24748  12.778  11.195   8.436
 1802POPC   C3A24749  12.581  11.099   8.054
 1802POPC   C4A24750  12.665  11.095   7.618
 1802POPC   C1B24751  12.680  11.648   8.670
 1802POPC   C2B24752  12.793  11.677   8.242
 1802POPC   C3B24753  12.589  11.593   7.869
 1802POPC   C4B24754  12.816  11.754   7.546
 1803POPC   NC324755  20.234  38.021   9.718
 1803POPC   PO424756  19.714  38.395   9.474
 1803POPC   GL124757  19.820  38.340   9.088
 1803POPC   GL224758  19.884  38.679   9.048
 1803POPC   C1A24759  19.559  38.277   8.727
 1803POPC   D2A24760  19.311  38.486   8.408
 1803POPC   C3A24761  19.488  38.340   8.010
 1803POPC   C4A24762  19.537  38.607   7.703
 1803POPC   C1B24763  20.014  38.512   8.655
 1803POPC   C2B24764  19.864  38.568   8.267
 1803POPC   C3B24765  20.030  38.579   7.868
 1803POPC   C4B24766  20.188  38.737   7.511
 1804POPC   NC324767  37.649   2.419   9.702
 1804POPC   PO424768  38.018   2.894   9.384
 1804POPC   GL124769  37.859   2.869   9.035
 1804POPC   GL224770  37.558   2.685   9.131
 1804POPC   C1A24771  37.800   2.637   8.693
 1804POPC   D2A24772  37.597   2.649   8.351
 1804POPC   C3A24773  37.818   2.776   7.994
 1804POPC   C4A24774  37.772   2.970   7.579
 1804POPC   C1B24775  37.202   2.488   8.875
 1804POPC   C2B24776  37.117   2.449   8.422
 1804POPC   C3B24777  37.358   2.314   8.052
 1804POPC   C4B24778  37.517   2.516   7.669
 1805POPC   NC324779  38.745  21.326   9.663
 1805POPC   PO424780  38.043  21.277   9.362
 1805POPC   GL124781  38.393  21.462   9.211
 1805POPC   GL224782  38.636  21.265   9.070
 1805POPC   C1A24783  38.443  21.680   8.850
 1805POPC   D2A24784  38.235  21.693   8.487
 1805POPC   C3A24785  38.492  21.592   8.080
 1805POPC   C4A24786  38.320  21.503   7.697
 1805POPC   C1B24787  38.296  21.189   8.782
 1805POPC   C2B24788  38.492  21.248   8.433
 1805POPC   C3B24789  38.739  21.091   8.097
 1805POPC   C4B24790  38.756  21.242   7.693
 1806POPC   NC324791  10.340  32.819   9.869
 1806POPC   PO424792  10.656  33.283   9.438
 1806POPC   GL124793  10.598  33.068   9.109
 1806POPC   GL224794  10.783  32.798   9.092
 1806POPC   C1A24795  10.520  33.045   8.715
 1806POPC   D2A24796  10.641  33.281   8.387
 1806POPC   C3A24797  10.462  33.066   8.100
 1806POPC   C4A24798  10.553  32.975   7.686
 1806POPC   C1B24799  11.010  32.697   8.742
 1806POPC   C2B24800  11.082  32.803   8.345
 1806POPC   C3B24801  10.848  32.742   8.013
 1806POPC   C4B24802  10.756  32.471   7.636
 1807POPC   NC324803  11.796   0.957   9.586
 1807POPC   PO424804  12.208   1.476   9.545
 1807POPC   GL124805  11.990   1.296   9.217
 1807POPC   GL224806  12.316   1.281   9.030
 1807POPC   C1A24807  11.869   1.153   8.806
 1807POPC   D2A24808  12.085   1.255   8.434
 1807POPC   C3A24809  11.942   1.068   8.063
 1807POPC   C4A24810  12.072   1.261   7.717
 1807POPC   C1B24811  12.413   1.564   8.681
 1807POPC   C2B24812  12.374   1.725   8.254
 1807POPC   C3B24813  12.483   1.520   7.838
 1807POPC   C4B24814  12.367   1.446   7.353
 1808POPC   NC324815  40.778  15.448   9.418
 1808POPC   PO424816  40.765  14.862   9.587
 1808POPC   GL124817  40.741  14.942   9.138
 1808POPC   GL224818  40.694  15.273   8.957
 1808POPC   C1A24819  40.537  14.864   8.736
 1808POPC   D2A24820  40.625  15.181   8.434
 1808POPC   C3A24821  40.676  15.046   8.035
 1808POPC   C4A24822  40.684  15.146   7.604
 1808POPC   C1B24823  41.011  15.545   8.754
 1808POPC   C2B24824  41.024  15.758   8.370
 1808POPC   C3B24825  41.231  15.619   8.025
 1808POPC   C4B24826  41.124  15.379   7.690
 1809POPC   NC324827  26.180  38.353   9.459
 1809POPC   PO424828  25.712  37.970   9.288
 1809POPC   GL124829  25.858  38.324   9.060
 1809POPC   GL224830  26.219  38.383   8.972
 1809POPC   C1A24831  25.815  38.529   8.690
 1809POPC   D2A24832  26.021  38.444   8.306
 1809POPC   C3A24833  25.735  38.550   7.992
 1809POPC   C4A24834  25.586  38.563   7.589
 1809POPC   C1B24835  26.306  38.674   8.694
 1809POPC   C2B24836  26.538  38.632   8.327
 1809POPC   C3B24837  26.473  38.372   8.038
 1809POPC   C4B24838  26.610  38.334   7.660
 1810POPC   NC324839   6.892  28.146   9.419
 1810POPC   PO424840   6.340  28.426   9.196
 1810POPC   GL124841   6.612  28.171   8.995
 1810POPC   GL224842   6.819  28.464   8.997
 1810POPC   C1A24843   6.734  28.184   8.572
 1810POPC   D2A24844   6.561  28.517   8.335
 1810POPC   C3A24845   6.433  28.391   7.922
 1810POPC   C4A24846   6.686  28.094   7.718
 1810POPC   C1B24847   6.955  28.727   8.657
 1810POPC   C2B24848   7.020  28.818   8.223
 1810POPC   C3B24849   6.863  28.687   7.819
 1810POPC   C4B24850   6.515  28.715   7.488
 1811POPC   NC324851  32.213   7.549   9.862
 1811POPC   PO424852  32.778   7.508   9.507
 1811POPC   GL124853  32.628   7.683   9.113
 1811POPC   GL224854  32.718   7.322   9.023
 1811POPC   C1A24855  32.256   7.748   8.789
 1811POPC   D2A24856  32.097   7.531   8.421
 1811POPC   C3A24857  32.230   7.684   8.035
 1811POPC   C4A24858  32.230   7.543   7.623
 1811POPC   C1B24859  32.745   7.042   8.666
 1811POPC   C2B24860  32.466   6.932   8.345
 1811POPC   C3B24861  32.364   7.177   8.012
 1811POPC   C4B24862  32.582   7.101   7.612
 1812POPC   NC324863  23.096  24.227   9.350
 1812POPC   PO424864  22.758  23.710   9.606
 1812POPC   GL124865  23.013  23.543   9.232
 1812POPC   GL224866  23.105  23.797   8.973
 1812POPC   C1A24867  23.228  23.283   8.910
 1812POPC   D2A24868  23.300  23.484   8.511
 1812POPC   C3A24869  23.124  23.331   8.128
 1812POPC   C4A24870  23.115  23.594   7.762
 1812POPC   C1B24871  22.816  23.522   8.708
 1812POPC   C2B24872  22.647  23.423   8.304
 1812POPC   C3B24873  22.634  23.512   7.866
 1812POPC   C4B24874  22.591  23.863   7.579
 1813POPC   NC324875  40.443  23.412   9.577
 1813POPC   PO424876  40.972  23.845   9.467
 1813POPC   GL124877  40.916  24.042   9.047
 1813POPC   GL224878  40.533  24.212   8.989
 1813POPC   C1A24879  41.032  23.859   8.633
 1813POPC   D2A24880  40.987  23.596   8.275
 1813POPC   C3A24881  40.743  23.646   7.897
 1813POPC   C4A24882  40.770  23.769   7.455
 1813POPC   C1B24883  40.529  23.935   8.699
 1813POPC   C2B24884  40.475  23.759   8.349
 1813POPC   C3B24885  40.286  23.903   8.021
 1813POPC   C4B24886  40.473  24.066   7.715
 1814POPC   NC324887  10.029  30.354   9.544
 1814POPC   PO424888   9.547  30.872   9.556
 1814POPC   GL124889   9.648  30.964   9.143
 1814POPC   GL224890  10.000  30.849   9.141
 1814POPC   C1A24891   9.728  30.706   8.744
 1814POPC   D2A24892   9.818  30.620   8.324
 1814POPC   C3A24893   9.511  30.921   8.119
 1814POPC   C4A24894   9.478  31.130   7.703
 1814POPC   C1B24895  10.198  30.502   8.854
 1814POPC   C2B24896  10.197  30.269   8.441
 1814POPC   C3B24897  10.189  30.454   8.012
 1814POPC   C4B24898   9.829  30.702   7.792
 1815POPC   NC324899  16.539  43.303   9.484
 1815POPC   PO424900  16.763  42.639   9.482
 1815POPC   GL124901  16.858  42.888   9.112
 1815POPC   GL224902  16.696  43.214   9.013
 1815POPC   C1A24903  16.751  42.829   8.680
 1815POPC   D2A24904  16.721  43.191   8.406
 1815POPC   C3A24905  16.732  42.985   8.027
 1815POPC   C4A24906  16.819  43.124   7.652
 1815POPC   C1B24907  16.382  43.540   8.812
 1815POPC   C2B24908  16.209  43.530   8.424
 1815POPC   C3B24909  16.422  43.452   8.032
 1815POPC   C4B24910  16.358  43.332   7.607
 1816POPC   NC324911  23.900   7.825   9.264
 1816POPC   PO424912  23.349   8.087   9.537
 1816POPC   GL124913  23.545   8.208   9.147
 1816POPC   GL224914  23.847   8.424   9.215
 1816POPC   C1A24915  23.495   8.064   8.703
 1816POPC   D2A24916  23.308   8.253   8.281
 1816POPC   C3A24917  23.497   8.071   7.891
 1816POPC   C4A24918  23.612   8.170   7.420
 1816POPC   C1B24919  23.781   8.477   8.766
 1816POPC   C2B24920  23.812   8.283   8.359
 1816POPC   C3B24921  23.972   8.267   7.950
 1816POPC   C4B24922  23.931   8.557   7.596
 1817POPC   NC324923  34.913  14.954   9.476
 1817POPC   PO424924  34.458  15.400   9.478
 1817POPC   GL124925  34.626  15.204   9.111
 1817POPC   GL224926  34.975  15.209   9.042
 1817POPC   C1A24927  34.609  15.206   8.676
 1817POPC   D2A24928  34.427  15.189   8.300
 1817POPC   C3A24929  34.676  15.060   7.976
 1817POPC   C4A24930  34.395  15.013   7.647
 1817POPC   C1B24931  34.963  15.572   8.757
 1817POPC   C2B24932  34.753  15.779   8.444
 1817POPC   C3B24933  34.624  15.588   8.057
 1817POPC   C4B24934  34.703  15.451   7.630
 1818POPC   NC324935   5.414  36.495   9.505
 1818POPC   PO424936   4.948  36.748   9.111
 1818POPC   GL124937   5.235  36.895   8.895
 1818POPC   GL224938   5.249  37.210   9.060
 1818POPC   C1A24939   5.158  36.917   8.464
 1818POPC   D2A24940   4.790  37.047   8.228
 1818POPC   C3A24941   4.839  36.817   7.844
 1818POPC   C4A24942   5.295  36.757   7.732
 1818POPC   C1B24943   4.997  37.344   8.722
 1818POPC   C2B24944   5.146  37.413   8.322
 1818POPC   C3B24945   5.136  37.253   7.887
 1818POPC   C4B24946   5.222  37.289   7.440
 1819POPC   NC324947   3.737   2.474   9.510
 1819POPC   PO424948   3.488   1.764   9.429
 1819POPC   GL124949   3.434   2.073   9.147
 1819POPC   GL224950   3.807   2.124   9.105
 1819POPC   C1A24951   3.444   1.990   8.724
 1819POPC   D2A24952   3.586   2.305   8.451
 1819POPC   C3A24953   3.601   2.185   8.046
 1819POPC   C4A24954   3.335   2.047   7.747
 1819POPC   C1B24955   3.927   1.823   8.747
 1819POPC   C2B24956   3.860   1.828   8.298
 1819POPC   C3B24957   3.637   1.632   7.917
 1819POPC   C4B24958   3.523   1.685   7.459
 1820POPC   NC324959  28.951  16.290   9.516
 1820POPC   PO424960  29.327  15.732   9.465
 1820POPC   GL124961  29.130  15.734   9.132
 1820POPC   GL224962  29.172  16.094   9.110
 1820POPC   C1A24963  28.980  15.789   8.742
 1820POPC   D2A24964  28.966  16.014   8.381
 1820POPC   C3A24965  28.875  15.847   8.002
 1820POPC   C4A24966  29.007  15.695   7.652
 1820POPC   C1B24967  29.354  16.180   8.746
 1820POPC   C2B24968  29.550  15.997   8.414
 1820POPC   C3B24969  29.446  16.121   8.010
 1820POPC   C4B24970  29.072  16.261   7.783
 1821POPC   NC324971  13.942  22.548   9.349
 1821POPC   PO424972  13.495  22.198   9.633
 1821POPC   GL124973  13.333  22.274   9.182
 1821POPC   GL224974  13.617  22.260   9.075
 1821POPC   C1A24975  13.257  22.449   8.741
 1821POPC   D2A24976  13.265  22.227   8.345
 1821POPC   C3A24977  13.419  22.350   7.948
 1821POPC   C4A24978  13.626  22.057   7.707
 1821POPC   C1B24979  13.610  22.074   8.682
 1821POPC   C2B24980  13.799  22.248   8.283
 1821POPC   C3B24981  14.074  22.048   8.004
 1821POPC   C4B24982  14.147  21.959   7.604
 1822POPC   NC324983   7.575   7.283   9.548
 1822POPC   PO424984   7.672   7.966   9.582
 1822POPC   GL124985   7.536   7.663   9.195
 1822POPC   GL224986   7.698   7.342   9.047
 1822POPC   C1A24987   7.252   7.534   8.843
 1822POPC   D2A24988   7.084   7.302   8.498
 1822POPC   C3A24989   7.322   7.164   8.143
 1822POPC   C4A24990   7.163   7.390   7.788
 1822POPC   C1B24991   7.668   7.407   8.575
 1822POPC   C2B24992   7.553   7.618   8.183
 1822POPC   C3B24993   7.657   7.477   7.756
 1822POPC   C4B24994   7.742   7.060   7.720
 1823POPC   NC324995  24.529  12.401   9.593
 1823POPC   PO424996  24.316  13.024   9.632
 1823POPC   GL124997  24.410  13.026   9.138
 1823POPC   GL224998  24.799  13.001   9.157
 1823POPC   C1A24999  24.236  13.034   8.677
 1823POPC   D2A25000  24.118  12.873   8.246
 1823POPC   C3A25001  24.480  12.710   7.964
 1823POPC   C4A25002  24.795  12.400   7.886
 1823POPC   C1B25003  24.721  13.181   8.747
 1823POPC   C2B25004  24.686  12.971   8.353
 1823POPC   C3B25005  24.708  13.181   7.936
 1823POPC   C4B25006  24.689  12.971   7.537
 1824POPC   NC325007  16.795  15.313   9.558
 1824POPC   PO425008  17.123  14.674   9.551
 1824POPC   GL125009  16.970  14.991   9.177
 1824POPC   GL225010  16.897  15.395   9.086
 1824POPC   C1A25011  16.778  15.043   8.744
 1824POPC   D2A25012  16.678  14.862   8.342
 1824POPC   C3A25013  16.948  14.799   8.015
 1824POPC   C4A25014  16.621  14.846   7.780
 1824POPC   C1B25015  17.083  15.453   8.695
 1824POPC   C2B25016  16.978  15.264   8.299
 1824POPC   C3B25017  16.692  15.329   7.963
 1824POPC   C4B25018  16.649  15.564   7.578
 1825POPC   NC325019  21.965  44.538   9.751
 1825POPC   PO425020  22.190   0.153   9.662
 1825POPC   GL125021  22.158  44.871   9.299
 1825POPC   GL225022  22.194  44.508   9.286
 1825POPC   C1A25023  22.183  44.867   8.829
 1825POPC   D2A25024  22.431  44.731   8.452
 1825POPC   C3A25025  22.267  44.756   8.058
 1825POPC   C4A25026  22.387  44.952   7.666
 1825POPC   C1B25027  22.205  44.355   8.866
 1825POPC   C2B25028  21.974  44.504   8.481
 1825POPC   C3B25029  21.902  44.383   8.052
 1825POPC   C4B25030  22.015  44.567   7.646
 1826POPC   NC325031  36.448  34.559   9.469
 1826POPC   PO425032  35.814  34.362   9.747
 1826POPC   GL125033  35.921  34.504   9.325
 1826POPC   GL225034  35.627  34.605   9.177
 1826POPC   C1A25035  36.050  34.432   8.876
 1826POPC   D2A25036  36.021  34.310   8.414
 1826POPC   C3A25037  36.275  34.568   8.112
 1826POPC   C4A25038  36.565  34.534   7.762
 1826POPC   C1B25039  35.798  34.871   8.816
 1826POPC   C2B25040  35.800  34.868   8.347
 1826POPC   C3B25041  35.762  34.562   8.017
 1826POPC   C4B25042  36.042  34.456   7.663
 1827POPC   NC325043  34.895   8.433   9.552
 1827POPC   PO425044  34.286   8.076   9.523
 1827POPC   GL125045  34.324   8.334   9.169
 1827POPC   GL225046  34.655   8.180   9.120
 1827POPC   C1A25047  34.338   8.454   8.724
 1827POPC   D2A25048  34.530   8.153   8.430
 1827POPC   C3A25049  34.276   8.078   8.081
 1827POPC   C4A25050  34.382   8.376   7.750
 1827POPC   C1B25051  34.836   8.389   8.784
 1827POPC   C2B25052  35.061   8.257   8.413
 1827POPC   C3B25053  34.993   8.346   8.011
 1827POPC   C4B25054  34.918   8.232   7.610
 1828POPC   NC325055  27.627  20.436   9.503
 1828POPC   PO425056  26.969  20.510   9.493
 1828POPC   GL125057  27.192  20.327   9.117
 1828POPC   GL225058  27.551  20.248   9.054
 1828POPC   C1A25059  27.232  20.514   8.685
 1828POPC   D2A25060  27.556  20.773   8.472
 1828POPC   C3A25061  27.713  20.605   8.099
 1828POPC   C4A25062  27.797  20.798   7.710
 1828POPC   C1B25063  27.411  20.038   8.749
 1828POPC   C2B25064  27.526  20.139   8.373
 1828POPC   C3B25065  27.314  20.239   8.037
 1828POPC   C4B25066  27.544  20.340   7.673
 1829POPC   NC325067  40.330  21.182   9.502
 1829POPC   PO425068  39.798  21.474   9.623
 1829POPC   GL125069  39.881  21.364   9.215
 1829POPC   GL225070  40.163  21.575   9.189
 1829POPC   C1A25071  39.812  21.555   8.795
 1829POPC   D2A25072  40.110  21.546   8.432
 1829POPC   C3A25073  40.010  21.542   8.036
 1829POPC   C4A25074  39.671  21.464   7.783
 1829POPC   C1B25075  40.227  21.280   8.832
 1829POPC   C2B25076  40.382  21.092   8.452
 1829POPC   C3B25077  40.214  21.068   8.025
 1829POPC   C4B25078  40.210  21.323   7.604
 1830POPC   NC325079  32.241  31.853   9.493
 1830POPC   PO425080  32.100  31.109   9.490
 1830POPC   GL125081  32.132  31.434   9.140
 1830POPC   GL225082  32.435  31.572   9.112
 1830POPC   C1A25083  31.978  31.520   8.685
 1830POPC   D2A25084  31.988  31.307   8.266
 1830POPC   C3A25085  32.180  31.465   7.855
 1830POPC   C4A25086  32.166  31.703   7.448
 1830POPC   C1B25087  32.445  31.334   8.710
 1830POPC   C2B25088  32.507  31.434   8.256
 1830POPC   C3B25089  32.594  31.789   7.914
 1830POPC   C4B25090  32.631  31.865   7.458
 1831POPC   NC325091   8.426   3.028   9.715
 1831POPC   PO425092   8.094   3.613   9.478
 1831POPC   GL125093   8.373   3.563   9.162
 1831POPC   GL225094   8.094   3.543   8.983
 1831POPC   C1A25095   8.570   3.603   8.782
 1831POPC   D2A25096   8.372   3.582   8.376
 1831POPC   C3A25097   8.554   3.482   7.970
 1831POPC   C4A25098   8.610   3.440   7.498
 1831POPC   C1B25099   7.752   3.750   8.856
 1831POPC   C2B25100   7.835   3.633   8.450
 1831POPC   C3B25101   7.993   3.481   8.048
 1831POPC   C4B25102   8.142   3.523   7.645
 1832POPC   NC325103   1.156  33.024   9.738
 1832POPC   PO425104   1.268  32.352   9.567
 1832POPC   GL125105   1.129  32.229   9.164
 1832POPC   GL225106   1.263  32.542   9.100
 1832POPC   C1A25107   1.184  32.212   8.702
 1832POPC   D2A25108   1.439  31.952   8.396
 1832POPC   C3A25109   1.316  32.035   7.999
 1832POPC   C4A25110   1.087  32.288   7.732
 1832POPC   C1B25111   1.536  32.568   8.795
 1832POPC   C2B25112   1.673  32.428   8.414
 1832POPC   C3B25113   1.515  32.522   8.029
 1832POPC   C4B25114   1.596  32.390   7.635
 1833POPC   NC325115  10.925  38.249   9.377
 1833POPC   PO425116  10.246  38.462   9.493
 1833POPC   GL125117  10.435  38.324   9.113
 1833POPC   GL225118  10.173  38.110   9.040
 1833POPC   C1A25119  10.668  38.510   8.736
 1833POPC   D2A25120  10.565  38.865   8.418
 1833POPC   C3A25121  10.590  38.758   7.937
 1833POPC   C4A25122  10.521  38.725   7.468
 1833POPC   C1B25123  10.247  38.255   8.614
 1833POPC   C2B25124  10.505  38.373   8.247
 1833POPC   C3B25125  10.314  38.352   7.824
 1833POPC   C4B25126  10.273  38.291   7.367
 1834POPC   NC325127   2.206   6.423   9.396
 1834POPC   PO425128   1.572   6.315   9.384
 1834POPC   GL125129   1.796   6.466   9.047
 1834POPC   GL225130   1.903   6.833   9.136
 1834POPC   C1A25131   1.709   6.459   8.594
 1834POPC   D2A25132   1.715   6.871   8.392
 1834POPC   C3A25133   2.001   6.851   8.070
 1834POPC   C4A25134   2.018   6.693   7.654
 1834POPC   C1B25135   2.097   6.766   8.733
 1834POPC   C2B25136   2.161   6.442   8.393
 1834POPC   C3B25137   2.068   6.304   7.989
 1834POPC   C4B25138   2.394   6.364   7.715
 1835POPC   NC325139   4.439  19.371   9.434
 1835POPC   PO425140   4.608  18.703   9.489
 1835POPC   GL125141   4.304  18.766   9.158
 1835POPC   GL225142   4.530  18.989   9.062
 1835POPC   C1A25143   4.148  18.796   8.734
 1835POPC   D2A25144   4.322  18.924   8.330
 1835POPC   C3A25145   4.116  18.957   7.952
 1835POPC   C4A25146   4.343  18.898   7.587
 1835POPC   C1B25147   4.665  19.085   8.660
 1835POPC   C2B25148   4.630  19.360   8.294
 1835POPC   C3B25149   4.569  19.266   7.852
 1835POPC   C4B25150   4.536  19.318   7.382
 1836POPC   NC325151  10.732  17.152   9.603
 1836POPC   PO425152  10.301  17.648   9.604
 1836POPC   GL125153  10.417  17.429   9.262
 1836POPC   GL225154  10.132  17.581   9.138
 1836POPC   C1A25155  10.462  17.318   8.839
 1836POPC   D2A25156  10.723  17.463   8.506
 1836POPC   C3A25157  10.522  17.336   8.161
 1836POPC   C4A25158  10.607  17.272   7.764
 1836POPC   C1B25159   9.995  17.763   8.809
 1836POPC   C2B25160  10.170  17.563   8.475
 1836POPC   C3B25161  10.152  17.685   8.080
 1836POPC   C4B25162  10.170  17.552   7.706
 1837POPC   NC325163  31.734  32.304   9.589
 1837POPC   PO425164  31.218  32.669   9.474
 1837POPC   GL125165  31.519  32.490   9.187
 1837POPC   GL225166  31.784  32.738   9.196
 1837POPC   C1A25167  31.630  32.181   8.882
 1837POPC   D2A25168  31.546  32.230   8.447
 1837POPC   C3A25169  31.322  31.996   8.107
 1837POPC   C4A25170  31.575  32.006   7.755
 1837POPC   C1B25171  31.894  32.595   8.789
 1837POPC   C2B25172  31.827  32.645   8.346
 1837POPC   C3B25173  31.541  32.460   7.988
 1837POPC   C4B25174  31.632  32.435   7.525
 1838POPC   NC325175  42.119   2.246   9.574
 1838POPC   PO425176  42.415   1.618   9.524
 1838POPC   GL125177  42.119   1.837   9.219
 1838POPC   GL225178  42.182   2.212   9.071
 1838POPC   C1A25179  41.991   1.847   8.783
 1838POPC   D2A25180  42.257   2.015   8.437
 1838POPC   C3A25181  42.376   1.736   8.113
 1838POPC   C4A25182  42.601   1.675   7.714
 1838POPC   C1B25183  42.033   2.431   8.684
 1838POPC   C2B25184  42.054   2.455   8.246
 1838POPC   C3B25185  42.163   2.165   7.903
 1838POPC   C4B25186  42.054   2.229   7.469
 1839POPC   NC325187  37.947   2.387   9.273
 1839POPC   PO425188  37.434   2.014   9.551
 1839POPC   GL125189  37.506   2.171   9.133
 1839POPC   GL225190  37.605   1.870   8.992
 1839POPC   C1A25191  37.523   2.201   8.633
 1839POPC   D2A25192  37.469   1.830   8.388
 1839POPC   C3A25193  37.646   1.851   8.001
 1839POPC   C4A25194  37.480   1.985   7.636
 1839POPC   C1B25195  37.980   2.034   8.719
 1839POPC   C2B25196  38.085   1.901   8.300
 1839POPC   C3B25197  38.099   2.155   7.931
 1839POPC   C4B25198  37.932   2.206   7.531
 1840POPC   NC325199  27.346  39.193   9.469
 1840POPC   PO425200  27.382  39.842   9.266
 1840POPC   GL125201  27.600  39.455   9.075
 1840POPC   GL225202  27.634  39.049   9.077
 1840POPC   C1A25203  27.854  39.344   8.728
 1840POPC   D2A25204  27.557  39.468   8.429
 1840POPC   C3A25205  27.449  39.332   8.010
 1840POPC   C4A25206  27.571  39.287   7.601
 1840POPC   C1B25207  27.598  38.934   8.610
 1840POPC   C2B25208  27.869  39.082   8.255
 1840POPC   C3B25209  27.858  38.940   7.841
 1840POPC   C4B25210  27.572  38.765   7.513
 1841POPC   NC325211  43.851  44.960   9.656
 1841POPC   PO425212  44.308  44.594   9.567
 1841POPC   GL125213  44.057  44.743   9.211
 1841POPC   GL225214  43.708  44.885   9.159
 1841POPC   C1A25215  43.962  44.603   8.794
 1841POPC   D2A25216  44.166  44.415   8.441
 1841POPC   C3A25217  43.979  44.477   8.052
 1841POPC   C4A25218  44.027  44.228   7.690
 1841POPC   C1B25219  43.600   0.048   8.725
 1841POPC   C2B25220  43.556  44.910   8.296
 1841POPC   C3B25221  43.631  44.799   7.863
 1841POPC   C4B25222  43.445  44.668   7.447
 1842POPC   NC325223  26.241  23.622   9.457
 1842POPC   PO425224  25.666  23.969   9.437
 1842POPC   GL125225  25.966  23.916   9.117
 1842POPC   GL225226  25.805  23.582   9.061
 1842POPC   C1A25227  26.193  23.705   8.751
 1842POPC   D2A25228  26.310  23.699   8.297
 1842POPC   C3A25229  26.032  23.559   7.973
 1842POPC   C4A25230  26.026  23.642   7.527
 1842POPC   C1B25231  25.654  23.846   8.704
 1842POPC   C2B25232  25.644  23.792   8.225
 1842POPC   C3B25233  25.768  23.987   7.796
 1842POPC   C4B25234  25.810  24.198   7.345
 1843POPC   NC325235   5.381   5.014   9.499
 1843POPC   PO425236   4.651   5.172   9.398
 1843POPC   GL125237   5.055   5.159   9.132
 1843POPC   GL225238   5.419   5.319   9.114
 1843POPC   C1A25239   5.128   5.066   8.709
 1843POPC   D2A25240   4.797   4.869   8.470
 1843POPC   C3A25241   4.977   4.746   8.090
 1843POPC   C4A25242   5.114   5.083   7.811
 1843POPC   C1B25243   5.411   5.509   8.737
 1843POPC   C2B25244   5.464   5.318   8.342
 1843POPC   C3B25245   5.411   5.486   7.947
 1843POPC   C4B25246   5.324   5.483   7.483
 1844POPC   NC325247  11.856  11.387   9.460
 1844POPC   PO425248  12.103  10.768   9.607
 1844POPC   GL125249  12.140  11.043   9.149
 1844POPC   GL225250  12.192  11.442   9.092
 1844POPC   C1A25251  12.291  11.189   8.696
 1844POPC   D2A25252  12.324  11.476   8.364
 1844POPC   C3A25253  12.134  11.376   8.014
 1844POPC   C4A25254  12.178  11.184   7.660
 1844POPC   C1B25255  11.841  11.424   8.745
 1844POPC   C2B25256  11.708  11.319   8.303
 1844POPC   C3B25257  11.693  11.613   7.933
 1844POPC   C4B25258  11.930  11.622   7.559
 1845POPC   NC325259  25.121  44.022   9.589
 1845POPC   PO425260  25.553  43.983   9.068
 1845POPC   GL125261  25.191  44.142   8.937
 1845POPC   GL225262  24.940  44.070   9.111
 1845POPC   C1A25263  25.195  44.106   8.516
 1845POPC   D2A25264  25.598  43.982   8.374
 1845POPC   C3A25265  25.536  44.101   7.992
 1845POPC   C4A25266  25.293  43.916   7.680
 1845POPC   C1B25267  24.944  43.728   8.763
 1845POPC   C2B25268  25.111  43.634   8.345
 1845POPC   C3B25269  25.042  43.531   7.925
 1845POPC   C4B25270  24.827  43.696   7.564
 1846POPC   NC325271   9.432  42.102   9.483
 1846POPC   PO425272   9.985  42.531   9.566
 1846POPC   GL125273   9.840  42.324   9.237
 1846POPC   GL225274   9.931  41.961   9.295
 1846POPC   C1A25275   9.603  42.459   8.881
 1846POPC   D2A25276   9.421  42.249   8.507
 1846POPC   C3A25277   9.543  42.412   8.110
 1846POPC   C4A25278   9.610  42.563   7.693
 1846POPC   C1B25279   9.733  41.968   8.877
 1846POPC   C2B25280   9.845  41.934   8.469
 1846POPC   C3B25281   9.659  41.922   8.103
 1846POPC   C4B25282   9.792  42.081   7.726
 1847POPC   NC325283   6.927  41.304   9.475
 1847POPC   PO425284   7.618  41.359   9.520
 1847POPC   GL125285   7.605  41.544   9.115
 1847POPC   GL225286   7.239  41.569   9.108
 1847POPC   C1A25287   7.547  41.671   8.714
 1847POPC   D2A25288   7.423  41.496   8.297
 1847POPC   C3A25289   7.510  41.690   7.895
 1847POPC   C4A25290   7.854  41.621   7.601
 1847POPC   C1B25291   7.198  41.274   8.755
 1847POPC   C2B25292   6.970  41.296   8.344
 1847POPC   C3B25293   7.120  41.309   7.895
 1847POPC   C4B25294   7.193  41.577   7.503
 1848POPC   NC325295  17.957  10.388   9.705
 1848POPC   PO425296  18.455  10.689   9.426
 1848POPC   GL125297  18.104  10.580   9.137
 1848POPC   GL225298  18.155  10.243   9.238
 1848POPC   C1A25299  18.025  10.677   8.653
 1848POPC   D2A25300  18.302  10.582   8.280
 1848POPC   C3A25301  18.189  10.737   7.865
 1848POPC   C4A25302  18.346  11.116   7.657
 1848POPC   C1B25303  18.293  10.276   8.764
 1848POPC   C2B25304  18.050  10.161   8.392
 1848POPC   C3B25305  18.129  10.214   7.932
 1848POPC   C4B25306  18.269  10.259   7.494
 1849POPC   NC325307   8.174   6.100   9.483
 1849POPC   PO425308   8.476   5.493   9.368
 1849POPC   GL125309   8.106   5.708   9.165
 1849POPC   GL225310   8.135   5.505   8.888
 1849POPC   C1A25311   7.886   5.953   8.829
 1849POPC   D2A25312   7.823   5.987   8.392
 1849POPC   C3A25313   8.053   5.816   8.062
 1849POPC   C4A25314   8.075   5.458   7.818
 1849POPC   C1B25315   8.375   5.932   8.803
 1849POPC   C2B25316   8.321   6.142   8.424
 1849POPC   C3B25317   8.514   6.040   8.041
 1849POPC   C4B25318   8.531   5.733   7.669
 1850POPC   NC325319  23.882  10.192   9.365
 1850POPC   PO425320  23.853  10.898   9.385
 1850POPC   GL125321  23.611  10.650   9.134
 1850POPC   GL225322  23.388  10.348   9.252
 1850POPC   C1A25323  23.699  10.709   8.691
 1850POPC   D2A25324  23.632  10.669   8.242
 1850POPC   C3A25325  23.951  10.435   8.044
 1850POPC   C4A25326  24.059  10.676   7.715
 1850POPC   C1B25327  23.257  10.490   8.817
 1850POPC   C2B25328  23.205  10.418   8.395
 1850POPC   C3B25329  23.405  10.255   8.041
 1850POPC   C4B25330  23.567  10.496   7.707
 1851POPC   NC325331  14.667  26.550   9.447
 1851POPC   PO425332  14.416  27.215   9.497
 1851POPC   GL125333  14.227  27.047   9.123
 1851POPC   GL225334  14.276  26.711   9.172
 1851POPC   C1A25335  14.149  26.933   8.648
 1851POPC   D2A25336  14.500  26.903   8.319
 1851POPC   C3A25337  14.349  26.862   7.886
 1851POPC   C4A25338  14.127  26.565   7.664
 1851POPC   C1B25339  14.516  26.607   8.775
 1851POPC   C2B25340  14.333  26.402   8.366
 1851POPC   C3B25341  14.528  26.336   7.963
 1851POPC   C4B25342  14.814  26.628   7.795
 1852POPC   NC325343  14.078   7.425   9.538
 1852POPC   PO425344  13.501   7.533   9.631
 1852POPC   GL125345  13.524   7.685   9.208
 1852POPC   GL225346  13.420   7.359   9.133
 1852POPC   C1A25347  13.394   7.674   8.738
 1852POPC   D2A25348  13.605   7.502   8.393
 1852POPC   C3A25349  13.485   7.469   7.960
 1852POPC   C4A25350  13.832   7.378   7.647
 1852POPC   C1B25351  13.498   7.126   8.734
 1852POPC   C2B25352  13.548   7.013   8.269
 1852POPC   C3B25353  13.609   6.970   7.831
 1852POPC   C4B25354  13.608   7.002   7.350
 1853POPC   NC325355   5.896  35.936   9.602
 1853POPC   PO425356   5.900  36.617   9.608
 1853POPC   GL125357   5.852  36.289   9.239
 1853POPC   GL225358   6.210  36.101   9.234
 1853POPC   C1A25359   5.693  36.077   8.832
 1853POPC   D2A25360   5.763  36.231   8.434
 1853POPC   C3A25361   5.452  36.224   8.117
 1853POPC   C4A25362   5.598  36.276   7.696
 1853POPC   C1B25363   6.180  35.990   8.799
 1853POPC   C2B25364   6.285  36.160   8.406
 1853POPC   C3B25365   6.095  36.307   8.045
 1853POPC   C4B25366   6.129  36.297   7.628
 1854POPC   NC325367   7.617  28.192   9.475
 1854POPC   PO425368   7.060  28.612   9.453
 1854POPC   GL125369   7.277  28.325   9.138
 1854POPC   GL225370   7.122  28.016   8.976
 1854POPC   C1A25371   7.417  28.408   8.748
 1854POPC   D2A25372   7.212  28.348   8.384
 1854POPC   C3A25373   7.403  28.517   8.028
 1854POPC   C4A25374   7.167  28.287   7.754
 1854POPC   C1B25375   7.408  27.884   8.636
 1854POPC   C2B25376   7.618  28.013   8.229
 1854POPC   C3B25377   7.667  28.107   7.774
 1854POPC   C4B25378   7.893  28.111   7.354
 1855POPC   NC325379  14.398  36.097   9.528
 1855POPC   PO425380  14.818  36.598   9.250
 1855POPC   GL125381  14.525  36.342   9.070
 1855POPC   GL225382  14.548  35.974   9.070
 1855POPC   C1A25383  14.428  36.232   8.660
 1855POPC   D2A25384  14.351  36.354   8.264
 1855POPC   C3A25385  14.483  36.111   7.911
 1855POPC   C4A25386  14.373  36.176   7.503
 1855POPC   C1B25387  14.133  35.880   8.875
 1855POPC   C2B25388  13.948  36.015   8.510
 1855POPC   C3B25389  14.034  35.958   8.104
 1855POPC   C4B25390  14.066  35.798   7.695
 1856POPC   NC325391  27.366   1.305   9.694
 1856POPC   PO425392  26.819   0.903   9.488
 1856POPC   GL125393  26.704   1.007   9.102
 1856POPC   GL225394  26.544   0.673   9.085
 1856POPC   C1A25395  27.026   1.213   8.829
 1856POPC   D2A25396  27.064   1.372   8.395
 1856POPC   C3A25397  26.711   1.250   8.136
 1856POPC   C4A25398  26.622   1.298   7.708
 1856POPC   C1B25399  26.904   0.625   8.824
 1856POPC   C2B25400  26.909   0.866   8.473
 1856POPC   C3B25401  27.093   0.912   8.113
 1856POPC   C4B25402  26.902   0.879   7.745
 1857POPC   NC325403  28.185  16.840   9.184
 1857POPC   PO425404  27.696  16.708   9.632
 1857POPC   GL125405  27.602  16.613   9.162
 1857POPC   GL225406  27.745  16.308   8.989
 1857POPC   C1A25407  27.307  16.481   8.794
 1857POPC   D2A25408  27.462  16.288   8.419
 1857POPC   C3A25409  27.391  16.555   8.060
 1857POPC   C4A25410  27.390  16.997   7.901
 1857POPC   C1B25411  27.757  16.677   8.681
 1857POPC   C2B25412  27.734  16.883   8.291
 1857POPC   C3B25413  27.830  16.731   7.867
 1857POPC   C4B25414  28.057  16.835   7.525
 1858POPC   NC325415  20.348  20.649   9.495
 1858POPC   PO425416  21.003  20.899   9.511
 1858POPC   GL125417  20.783  20.605   9.166
 1858POPC   GL225418  20.449  20.620   9.004
 1858POPC   C1A25419  20.815  20.314   8.816
 1858POPC   D2A25420  20.748  20.538   8.430
 1858POPC   C3A25421  20.783  20.369   8.011
 1858POPC   C4A25422  20.850  20.496   7.576
 1858POPC   C1B25423  20.325  20.234   8.783
 1858POPC   C2B25424  20.255  20.340   8.349
 1858POPC   C3B25425  20.396  20.700   8.100
 1858POPC   C4B25426  20.432  20.767   7.699
 1859POPC   NC325427   0.269   7.849   9.442
 1859POPC   PO425428   0.593   7.352   9.505
 1859POPC   GL125429   0.432   7.436   9.113
 1859POPC   GL225430   0.629   7.750   9.102
 1859POPC   C1A25431   0.286   7.516   8.666
 1859POPC   D2A25432   0.425   7.689   8.261
 1859POPC   C3A25433   0.394   7.519   7.820
 1859POPC   C4A25434   0.249   7.584   7.350
 1859POPC   C1B25435   0.781   7.559   8.734
 1859POPC   C2B25436   0.742   7.289   8.407
 1859POPC   C3B25437   0.762   7.188   8.004
 1859POPC   C4B25438   0.995   7.378   7.717
 1860POPC   NC325439  20.278  29.701   9.470
 1860POPC   PO425440  19.883  30.210   9.372
 1860POPC   GL125441  19.717  30.078   9.014
 1860POPC   GL225442  19.881  29.762   9.105
 1860POPC   C1A25443  19.786  30.004   8.612
 1860POPC   D2A25444  20.072  30.063   8.313
 1860POPC   C3A25445  19.876  29.954   7.960
 1860POPC   C4A25446  19.953  29.934   7.528
 1860POPC   C1B25447  20.085  29.598   8.722
 1860POPC   C2B25448  19.831  29.565   8.339
 1860POPC   C3B25449  19.952  29.442   7.933
 1860POPC   C4B25450  19.726  29.477   7.553
 1861POPC   NC325451  10.455  10.579   9.617
 1861POPC   PO425452  10.356   9.906   9.465
 1861POPC   GL125453  10.550  10.280   9.171
 1861POPC   GL225454  10.670  10.667   9.161
 1861POPC   C1A25455  10.673  10.336   8.736
 1861POPC   D2A25456  10.626  10.129   8.349
 1861POPC   C3A25457  10.385  10.274   8.011
 1861POPC   C4A25458  10.625  10.350   7.640
 1861POPC   C1B25459  10.379  10.755   8.821
 1861POPC   C2B25460  10.294  10.623   8.387
 1861POPC   C3B25461  10.396  10.784   7.948
 1861POPC   C4B25462  10.264  10.707   7.514
 1862POPC   NC325463  24.864  18.175   9.711
 1862POPC   PO425464  25.545  18.166   9.502
 1862POPC   GL125465  25.202  18.138   9.212
 1862POPC   GL225466  25.308  18.469   9.151
 1862POPC   C1A25467  25.131  18.146   8.738
 1862POPC   D2A25468  25.023  18.347   8.315
 1862POPC   C3A25469  25.083  18.122   7.936
 1862POPC   C4A25470  25.349  18.132   7.603
 1862POPC   C1B25471  25.230  18.656   8.786
 1862POPC   C2B25472  25.443  18.621   8.405
 1862POPC   C3B25473  25.441  18.503   7.978
 1862POPC   C4B25474  25.550  18.729   7.615
 1863POPC   NC325475  17.634  34.904   9.404
 1863POPC   PO425476  17.491  34.285   9.592
 1863POPC   GL125477  17.459  34.388   9.139
 1863POPC   GL225478  17.354  34.736   9.015
 1863POPC   C1A25479  17.670  34.478   8.729
 1863POPC   D2A25480  17.455  34.673   8.397
 1863POPC   C3A25481  17.668  34.707   8.019
 1863POPC   C4A25482  17.630  34.935   7.673
 1863POPC   C1B25483  17.126  34.419   8.750
 1863POPC   C2B25484  17.161  34.208   8.341
 1863POPC   C3B25485  17.251  34.422   7.939
 1863POPC   C4B25486  17.610  34.301   7.662
 1864POPC   NC325487  25.393  23.200   9.413
 1864POPC   PO425488  24.872  22.722   9.509
 1864POPC   GL125489  25.149  22.865   9.127
 1864POPC   GL225490  25.550  22.775   9.187
 1864POPC   C1A25491  25.089  22.959   8.676
 1864POPC   D2A25492  25.005  22.865   8.238
 1864POPC   C3A25493  24.982  23.116   7.898
 1864POPC   C4A25494  25.159  23.261   7.554
 1864POPC   C1B25495  25.595  23.027   8.802
 1864POPC   C2B25496  25.722  23.115   8.365
 1864POPC   C3B25497  25.476  23.034   7.988
 1864POPC   C4B25498  25.454  22.849   7.557
 1865POPC   NC325499  25.909  33.911   9.642
 1865POPC   PO425500  26.234  34.400   9.941
 1865POPC   GL125501  26.267  34.320   9.419
 1865POPC   GL225502  26.204  34.637   9.216
 1865POPC   C1A25503  26.435  34.267   8.947
 1865POPC   D2A25504  26.294  34.532   8.587
 1865POPC   C3A25505  26.310  34.418   8.133
 1865POPC   C4A25506  26.259  34.625   7.719
 1865POPC   C1B25507  25.938  34.352   8.935
 1865POPC   C2B25508  25.861  34.269   8.472
 1865POPC   C3B25509  25.624  34.436   8.144
 1865POPC   C4B25510  25.856  34.333   7.790
 1866POPC   NC325511  13.033  35.901  10.108
 1866POPC   PO425512  12.797  36.185   9.512
 1866POPC   GL125513  12.901  36.249   9.136
 1866POPC   GL225514  12.600  36.362   9.041
 1866POPC   C1A25515  13.114  36.038   8.812
 1866POPC   D2A25516  13.045  35.972   8.392
 1866POPC   C3A25517  13.062  36.015   7.952
 1866POPC   C4A25518  13.088  36.231   7.563
 1866POPC   C1B25519  12.601  36.103   8.649
 1866POPC   C2B25520  12.566  36.013   8.172
 1866POPC   C3B25521  12.640  36.285   7.811
 1866POPC   C4B25522  12.618  36.406   7.375
 1867POPC   NC325523  22.594  17.668   9.342
 1867POPC   PO425524  22.324  17.093   9.621
 1867POPC   GL125525  22.073  17.038   9.198
 1867POPC   GL225526  22.122  17.425   9.131
 1867POPC   C1A25527  21.874  17.144   8.782
 1867POPC   D2A25528  21.944  17.423   8.422
 1867POPC   C3A25529  21.956  17.236   8.022
 1867POPC   C4A25530  22.176  17.398   7.635
 1867POPC   C1B25531  22.260  17.681   8.736
 1867POPC   C2B25532  22.200  17.872   8.305
 1867POPC   C3B25533  22.224  17.851   7.830
 1867POPC   C4B25534  22.323  17.986   7.367
 1868POPC   NC325535  23.225  42.627   9.366
 1868POPC   PO425536  23.850  42.304   9.505
 1868POPC   GL125537  23.704  42.513   9.146
 1868POPC   GL225538  23.392  42.372   8.953
 1868POPC   C1A25539  23.824  42.500   8.740
 1868POPC   D2A25540  23.594  42.388   8.388
 1868POPC   C3A25541  23.804  42.475   8.041
 1868POPC   C4A25542  23.711  42.388   7.659
 1868POPC   C1B25543  23.399  42.774   8.709
 1868POPC   C2B25544  23.517  42.890   8.268
 1868POPC   C3B25545  23.317  42.653   7.939
 1868POPC   C4B25546  23.320  42.213   7.952
 1869POPC   NC325547  36.068  33.835   9.673
 1869POPC   PO425548  36.742  33.989   9.734
 1869POPC   GL125549  36.420  33.781   9.322
 1869POPC   GL225550  36.179  34.064   9.210
 1869POPC   C1A25551  36.058  33.664   8.946
 1869POPC   D2A25552  35.931  33.630   8.485
 1869POPC   C3A25553  35.991  33.866   8.075
 1869POPC   C4A25554  36.132  33.643   7.728
 1869POPC   C1B25555  36.341  34.020   8.741
 1869POPC   C2B25556  36.422  33.903   8.319
 1869POPC   C3B25557  36.466  34.028   7.859
 1869POPC   C4B25558  36.356  33.991   7.393
 1870POPC   NC325559  10.589  20.095   9.630
 1870POPC   PO425560  10.357  19.456   9.399
 1870POPC   GL125561  10.388  19.739   9.119
 1870POPC   GL225562  10.707  19.929   9.162
 1870POPC   C1A25563  10.519  19.649   8.699
 1870POPC   D2A25564  10.538  19.907   8.370
 1870POPC   C3A25565  10.466  19.763   8.012
 1870POPC   C4A25566  10.239  19.925   7.698
 1870POPC   C1B25567  10.858  20.351   8.941
 1870POPC   C2B25568  10.748  20.371   8.481
 1870POPC   C3B25569  10.822  20.201   8.058
 1870POPC   C4B25570  10.651  20.245   7.666
 1871POPC   NC325571  44.095  28.759   9.186
 1871POPC   PO425572  44.747  28.573   9.565
 1871POPC   GL125573  44.840  28.356   9.201
 1871POPC   GL225574  44.701  28.016   9.262
 1871POPC   C1A25575  44.658  28.428   8.797
 1871POPC   D2A25576  44.457  28.175   8.516
 1871POPC   C3A25577  44.495  28.296   8.111
 1871POPC   C4A25578  44.438  28.374   7.691
 1871POPC   C1B25579  44.903  27.983   8.853
 1871POPC   C2B25580  44.971  28.039   8.431
 1871POPC   C3B25581  44.958  28.133   8.012
 1871POPC   C4B25582  44.748  27.949   7.709
 1872POPC   NC325583  31.251  26.636   9.616
 1872POPC   PO425584  31.734  27.092   9.692
 1872POPC   GL125585  31.517  27.028   9.252
 1872POPC   GL225586  31.273  26.774   9.118
 1872POPC   C1A25587  31.649  26.981   8.812
 1872POPC   D2A25588  31.841  26.688   8.497
 1872POPC   C3A25589  31.559  26.711   8.154
 1872POPC   C4A25590  31.523  26.976   7.747
 1872POPC   C1B25591  31.300  26.673   8.644
 1872POPC   C2B25592  31.056  26.772   8.251
 1872POPC   C3B25593  31.187  26.601   7.833
 1872POPC   C4B25594  31.166  26.710   7.382
 1873POPC   NC325595   4.525  27.477   9.342
 1873POPC   PO425596   4.229  27.853   9.727
 1873POPC   GL125597   4.170  27.747   9.161
 1873POPC   GL225598   4.542  27.693   8.910
 1873POPC   C1A25599   4.104  27.556   8.734
 1873POPC   D2A25600   4.282  27.391   8.312
 1873POPC   C3A25601   4.181  27.595   7.887
 1873POPC   C4A25602   4.451  27.747   7.532
 1873POPC   C1B25603   4.578  27.228   8.715
 1873POPC   C2B25604   4.587  26.967   8.310
 1873POPC   C3B25605   4.639  27.106   7.845
 1873POPC   C4B25606   4.530  27.265   7.372
 1874POPC   NC325607  29.994   5.324   9.560
 1874POPC   PO425608  29.894   5.955   9.627
 1874POPC   GL125609  29.959   5.717   9.219
 1874POPC   GL225610  30.263   5.831   9.152
 1874POPC   C1A25611  29.846   5.700   8.765
 1874POPC   D2A25612  29.950   5.890   8.341
 1874POPC   C3A25613  30.087   5.851   7.912
 1874POPC   C4A25614  30.151   6.256   7.705
 1874POPC   C1B25615  30.305   5.503   8.826
 1874POPC   C2B25616  30.338   5.540   8.376
 1874POPC   C3B25617  30.385   5.357   7.973
 1874POPC   C4B25618  30.467   5.584   7.653
 1875POPC   NC325619  31.262  37.101   9.573
 1875POPC   PO425620  31.393  36.479   9.722
 1875POPC   GL125621  31.570  36.736   9.314
 1875POPC   GL225622  31.573  37.093   9.191
 1875POPC   C1A25623  31.418  36.743   8.835
 1875POPC   D2A25624  31.131  36.886   8.486
 1875POPC   C3A25625  31.316  36.731   8.132
 1875POPC   C4A25626  31.721  36.755   7.948
 1875POPC   C1B25627  31.364  37.228   8.822
 1875POPC   C2B25628  31.312  37.375   8.426
 1875POPC   C3B25629  31.137  37.233   8.096
 1875POPC   C4B25630  31.373  37.114   7.782
 1876POPC   NC325631   8.136  11.624   9.804
 1876POPC   PO425632   8.452  11.067   9.434
 1876POPC   GL125633   8.439  11.240   9.040
 1876POPC   GL225634   8.153  11.440   8.968
 1876POPC   C1A25635   8.334  11.097   8.635
 1876POPC   D2A25636   8.087  11.033   8.284
 1876POPC   C3A25637   8.327  11.243   8.017
 1876POPC   C4A25638   8.599  11.217   7.695
 1876POPC   C1B25639   7.873  11.285   8.675
 1876POPC   C2B25640   8.012  11.555   8.340
 1876POPC   C3B25641   7.897  11.534   7.942
 1876POPC   C4B25642   7.954  11.220   7.646
 1877POPC   NC325643   8.913  21.653   9.631
 1877POPC   PO425644   9.156  21.041   9.619
 1877POPC   GL125645   8.894  21.289   9.261
 1877POPC   GL225646   9.126  21.404   9.058
 1877POPC   C1A25647   8.708  21.509   8.832
 1877POPC   D2A25648   8.930  21.658   8.432
 1877POPC   C3A25649   8.927  21.393   8.040
 1877POPC   C4A25650   8.677  21.121   7.760
 1877POPC   C1B25651   9.072  21.177   8.694
 1877POPC   C2B25652   9.256  21.065   8.316
 1877POPC   C3B25653   9.304  21.068   7.879
 1877POPC   C4B25654   9.265  21.468   7.646
 1878POPC   NC325655  17.390  31.213   9.371
 1878POPC   PO425656  17.467  30.674   9.663
 1878POPC   GL125657  17.520  30.654   9.236
 1878POPC   GL225658  17.776  30.904   9.170
 1878POPC   C1A25659  17.360  30.631   8.816
 1878POPC   D2A25660  17.534  30.638   8.404
 1878POPC   C3A25661  17.243  30.832   8.075
 1878POPC   C4A25662  17.143  30.741   7.654
 1878POPC   C1B25663  17.895  30.626   8.816
 1878POPC   C2B25664  18.060  30.674   8.360
 1878POPC   C3B25665  17.797  30.877   8.047
 1878POPC   C4B25666  17.649  30.766   7.671
 1879POPC   NC325667  12.761   0.900   9.353
 1879POPC   PO425668  12.973   1.488   9.437
 1879POPC   GL125669  12.889   1.277   9.060
 1879POPC   GL225670  13.153   1.152   8.939
 1879POPC   C1A25671  12.674   1.094   8.703
 1879POPC   D2A25672  12.591   1.243   8.300
 1879POPC   C3A25673  12.898   1.192   7.973
 1879POPC   C4A25674  12.757   1.185   7.540
 1879POPC   C1B25675  13.155   1.166   8.512
 1879POPC   C2B25676  13.316   1.443   8.237
 1879POPC   C3B25677  13.342   1.430   7.812
 1879POPC   C4B25678  13.241   1.199   7.422
 1880POPC   NC325679  38.067  29.254   9.519
 1880POPC   PO425680  37.407  29.011   9.454
 1880POPC   GL125681  37.661  29.221   9.163
 1880POPC   GL225682  37.951  29.029   9.091
 1880POPC   C1A25683  37.490  29.115   8.757
 1880POPC   D2A25684  37.218  29.100   8.389
 1880POPC   C3A25685  37.400  29.152   7.979
 1880POPC   C4A25686  37.536  28.903   7.622
 1880POPC   C1B25687  37.935  28.861   8.718
 1880POPC   C2B25688  37.766  28.987   8.325
 1880POPC   C3B25689  37.932  29.030   7.925
 1880POPC   C4B25690  38.045  28.700   7.633
 1881POPC   NC325691  17.383  10.010   9.617
 1881POPC   PO425692  17.699   9.407   9.442
 1881POPC   GL125693  17.377   9.615   9.181
 1881POPC   GL225694  17.300   9.960   9.122
 1881POPC   C1A25695  17.372   9.466   8.785
 1881POPC   D2A25696  17.322   9.575   8.393
 1881POPC   C3A25697  17.546   9.484   8.069
 1881POPC   C4A25698  17.345   9.388   7.693
 1881POPC   C1B25699  17.374   9.999   8.684
 1881POPC   C2B25700  17.568   9.994   8.242
 1881POPC   C3B25701  17.420   9.899   7.817
 1881POPC   C4B25702  17.277  10.041   7.431
 1882POPC   NC325703   7.182   6.215   9.427
 1882POPC   PO425704   7.377   6.862   9.511
 1882POPC   GL125705   7.246   6.874   9.118
 1882POPC   GL225706   7.374   6.537   9.078
 1882POPC   C1A25707   7.391   6.940   8.705
 1882POPC   D2A25708   7.365   6.647   8.371
 1882POPC   C3A25709   7.574   6.723   8.036
 1882POPC   C4A25710   7.721   6.532   7.705
 1882POPC   C1B25711   7.075   6.513   8.747
 1882POPC   C2B25712   6.906   6.366   8.323
 1882POPC   C3B25713   7.166   6.458   7.933
 1882POPC   C4B25714   7.247   6.439   7.466
 1883POPC   NC325715  30.255  10.201   9.663
 1883POPC   PO425716  30.553   9.631   9.548
 1883POPC   GL125717  30.755   9.767   9.205
 1883POPC   GL225718  30.802   9.465   9.133
 1883POPC   C1A25719  30.722  10.001   8.857
 1883POPC   D2A25720  30.576   9.972   8.456
 1883POPC   C3A25721  30.831   9.919   8.103
 1883POPC   C4A25722  30.635   9.892   7.713
 1883POPC   C1B25723  30.957   9.487   8.742
 1883POPC   C2B25724  30.888   9.390   8.319
 1883POPC   C3B25725  30.656   9.442   7.945
 1883POPC   C4B25726  30.806   9.406   7.545
 1884POPC   NC325727  37.794   0.680   9.727
 1884POPC   PO425728  37.373   0.231   9.497
 1884POPC   GL125729  37.696   0.404   9.209
 1884POPC   GL225730  37.880   0.650   9.185
 1884POPC   C1A25731  37.842   0.277   8.801
 1884POPC   D2A25732  37.634   0.062   8.471
 1884POPC   C3A25733  37.633   0.364   8.095
 1884POPC   C4A25734  37.771   0.259   7.651
 1884POPC   C1B25735  37.682   0.769   8.815
 1884POPC   C2B25736  37.768   0.912   8.408
 1884POPC   C3B25737  37.656   0.939   7.980
 1884POPC   C4B25738  37.881   0.879   7.604
 1885POPC   NC325739   4.981  18.407   9.511
 1885POPC   PO425740   5.422  17.935   9.535
 1885POPC   GL125741   5.310  18.158   9.170
 1885POPC   GL225742   5.020  17.997   9.204
 1885POPC   C1A25743   5.064  18.278   8.774
 1885POPC   D2A25744   5.249  18.507   8.416
 1885POPC   C3A25745   5.041  18.481   8.013
 1885POPC   C4A25746   5.104  18.315   7.623
 1885POPC   C1B25747   4.844  17.763   8.936
 1885POPC   C2B25748   4.775  17.845   8.535
 1885POPC   C3B25749   4.709  18.145   8.239
 1885POPC   C4B25750   4.716  18.058   7.818
 1886POPC   NC325751  39.496  30.327   9.591
 1886POPC   PO425752  39.176  30.897   9.642
 1886POPC   GL125753  39.191  30.749   9.231
 1886POPC   GL225754  39.299  30.445   9.124
 1886POPC   C1A25755  39.209  30.904   8.819
 1886POPC   D2A25756  39.142  30.702   8.440
 1886POPC   C3A25757  39.251  30.835   8.035
 1886POPC   C4A25758  39.143  30.540   7.710
 1886POPC   C1B25759  39.540  30.500   8.717
 1886POPC   C2B25760  39.543  30.382   8.256
 1886POPC   C3B25761  39.633  30.552   7.847
 1886POPC   C4B25762  39.621  30.457   7.364
 1887POPC   NC325763  28.344  41.042   9.504
 1887POPC   PO425764  28.374  40.375   9.453
 1887POPC   GL125765  28.463  40.714   9.112
 1887POPC   GL225766  28.231  41.040   9.021
 1887POPC   C1A25767  28.403  40.723   8.659
 1887POPC   D2A25768  28.398  40.428   8.323
 1887POPC   C3A25769  28.436  40.617   7.950
 1887POPC   C4A25770  28.119  40.621   7.716
 1887POPC   C1B25771  27.934  41.037   8.688
 1887POPC   C2B25772  27.935  40.855   8.282
 1887POPC   C3B25773  28.103  41.077   7.946
 1887POPC   C4B25774  28.500  41.075   7.714
 1888POPC   NC325775  22.072  12.925   9.434
 1888POPC   PO425776  22.514  12.455   9.481
 1888POPC   GL125777  22.481  12.777   9.159
 1888POPC   GL225778  22.230  12.566   9.069
 1888POPC   C1A25779  22.314  12.925   8.737
 1888POPC   D2A25780  22.100  12.915   8.366
 1888POPC   C3A25781  22.357  12.929   8.012
 1888POPC   C4A25782  22.660  12.976   7.730
 1888POPC   C1B25783  22.031  12.458   8.686
 1888POPC   C2B25784  21.922  12.425   8.269
 1888POPC   C3B25785  21.922  12.665   7.909
 1888POPC   C4B25786  21.969  12.593   7.448
 1889POPC   NC325787  30.389  23.433   9.436
 1889POPC   PO425788  30.920  23.850   9.459
 1889POPC   GL125789  30.887  23.847   9.053
 1889POPC   GL225790  30.684  23.568   9.048
 1889POPC   C1A25791  30.912  23.749   8.641
 1889POPC   D2A25792  30.637  23.747   8.334
 1889POPC   C3A25793  30.868  23.582   8.086
 1889POPC   C4A25794  30.900  23.581   7.664
 1889POPC   C1B25795  30.355  23.348   8.792
 1889POPC   C2B25796  30.249  23.409   8.365
 1889POPC   C3B25797  30.433  23.385   7.957
 1889POPC   C4B25798  30.404  23.523   7.521
 1890POPC   NC325799  10.852  14.954   9.594
 1890POPC   PO425800  11.232  14.363   9.569
 1890POPC   GL125801  11.123  14.409   9.161
 1890POPC   GL225802  11.097  14.755   9.115
 1890POPC   C1A25803  11.349  14.387   8.804
 1890POPC   D2A25804  11.426  14.371   8.382
 1890POPC   C3A25805  11.579  14.704   8.144
 1890POPC   C4A25806  11.374  14.470   7.824
 1890POPC   C1B25807  11.061  14.786   8.651
 1890POPC   C2B25808  11.076  14.726   8.188
 1890POPC   C3B25809  10.892  14.615   7.781
 1890POPC   C4B25810  10.917  14.782   7.374
 1891POPC   NC325811   6.389  38.925   9.455
 1891POPC   PO425812   6.723  39.505   9.544
 1891POPC   GL125813   6.835  39.326   9.136
 1891POPC   GL225814   7.074  39.601   9.098
 1891POPC   C1A25815   6.699  39.049   8.805
 1891POPC   D2A25816   6.761  39.198   8.392
 1891POPC   C3A25817   6.615  39.022   8.033
 1891POPC   C4A25818   6.498  39.114   7.636
 1891POPC   C1B25819   6.952  39.682   8.684
 1891POPC   C2B25820   6.829  39.679   8.260
 1891POPC   C3B25821   6.921  39.410   7.892
 1891POPC   C4B25822   7.245  39.420   7.608
 1892POPC   NC325823   9.712  12.952   9.518
 1892POPC   PO425824  10.423  12.943   9.400
 1892POPC   GL125825  10.055  12.927   9.123
 1892POPC   GL225826   9.729  12.711   9.071
 1892POPC   C1A25827   9.943  12.939   8.681
 1892POPC   D2A25828  10.051  12.609   8.414
 1892POPC   C3A25829  10.059  12.681   7.976
 1892POPC   C4A25830   9.733  12.870   7.734
 1892POPC   C1B25831   9.465  12.721   8.696
 1892POPC   C2B25832   9.599  12.870   8.257
 1892POPC   C3B25833   9.344  13.113   7.930
 1892POPC   C4B25834   9.373  13.135   7.439
 1893POPC   NC325835  10.230  38.942   9.566
 1893POPC   PO425836  10.878  39.360   9.640
 1893POPC   GL125837  10.552  39.311   9.300
 1893POPC   GL225838  10.288  39.536   9.148
 1893POPC   C1A25839  10.540  39.213   8.839
 1893POPC   D2A25840  10.574  39.399   8.435
 1893POPC   C3A25841  10.767  39.219   8.095
 1893POPC   C4A25842  10.582  39.203   7.703
 1893POPC   C1B25843  10.023  39.349   8.824
 1893POPC   C2B25844   9.995  39.230   8.397
 1893POPC   C3B25845  10.128  39.227   7.982
 1893POPC   C4B25846  10.121  39.309   7.555
 1894POPC   NC325847  38.075  15.861   9.830
 1894POPC   PO425848  37.532  16.150   9.499
 1894POPC   GL125849  37.535  16.154   9.067
 1894POPC   GL225850  37.835  16.386   9.036
 1894POPC   C1A25851  37.675  15.942   8.710
 1894POPC   D2A25852  37.532  15.992   8.300
 1894POPC   C3A25853  37.767  15.784   8.007
 1894POPC   C4A25854  37.525  15.760   7.669
 1894POPC   C1B25855  38.116  16.442   8.698
 1894POPC   C2B25856  37.992  16.198   8.393
 1894POPC   C3B25857  37.863  16.324   8.043
 1894POPC   C4B25858  37.834  16.176   7.682
 1895POPC   NC325859   0.657   2.436   9.721
 1895POPC   PO425860   0.253   2.905   9.442
 1895POPC   GL125861   0.400   2.576   9.198
 1895POPC   GL225862   0.076   2.383   9.246
 1895POPC   C1A25863   0.620   2.670   8.789
 1895POPC   D2A25864   0.658   2.883   8.376
 1895POPC   C3A25865   0.537   2.692   7.981
 1895POPC   C4A25866   0.768   2.913   7.656
 1895POPC   C1B25867   0.180   2.384   8.785
 1895POPC   C2B25868   0.202   2.676   8.439
 1895POPC   C3B25869   0.012   2.681   8.046
 1895POPC   C4B25870   0.025   2.472   7.660
 1896POPC   NC325871   0.112  29.573   9.756
 1896POPC   PO425872  44.599  29.964   9.531
 1896POPC   GL125873  44.632  29.963   9.129
 1896POPC   GL225874  44.928  30.167   9.140
 1896POPC   C1A25875  44.368  29.833   8.767
 1896POPC   D2A25876  44.133  29.721   8.406
 1896POPC   C3A25877  44.397  29.790   8.056
 1896POPC   C4A25878  44.583  29.668   7.642
 1896POPC   C1B25879  44.756  30.183   8.707
 1896POPC   C2B25880  44.790  30.025   8.306
 1896POPC   C3B25881  44.709  30.192   7.922
 1896POPC   C4B25882  44.797  30.118   7.493
 1897POPC   NC325883   0.174  43.960   9.808
 1897POPC   PO425884  44.511  43.887   9.564
 1897POPC   GL125885  44.602  44.022   9.188
 1897POPC   GL225886  44.979  44.045   9.205
 1897POPC   C1A25887  44.376  44.222   8.872
 1897POPC   D2A25888  44.515  44.041   8.494
 1897POPC   C3A25889  44.321  44.059   8.088
 1897POPC   C4A25890  44.433  43.925   7.657
 1897POPC   C1B25891  44.911  43.838   8.796
 1897POPC   C2B25892   0.010  43.881   8.365
 1897POPC   C3B25893  44.829  44.102   8.033
 1897POPC   C4B25894  44.857  44.234   7.636
 1898POPC   NC325895   9.937  31.176   9.556
 1898POPC   PO425896   9.507  31.704   9.462
 1898POPC   GL125897   9.647  31.524   9.111
 1898POPC   GL225898  10.008  31.418   9.121
 1898POPC   C1A25899   9.764  31.726   8.720
 1898POPC   D2A25900   9.784  31.581   8.294
 1898POPC   C3A25901   9.632  31.657   7.872
 1898POPC   C4A25902   9.228  31.612   7.654
 1898POPC   C1B25903   9.857  31.226   8.766
 1898POPC   C2B25904   9.942  31.089   8.402
 1898POPC   C3B25905   9.940  31.180   7.999
 1898POPC   C4B25906   9.954  31.339   7.634
 1899POPC   NC325907  20.789   6.929   9.444
 1899POPC   PO425908  20.394   6.477   9.378
 1899POPC   GL125909  20.529   6.681   9.055
 1899POPC   GL225910  20.342   6.988   9.114
 1899POPC   C1A25911  20.546   6.519   8.651
 1899POPC   D2A25912  20.340   6.310   8.298
 1899POPC   C3A25913  20.507   6.494   7.926
 1899POPC   C4A25914  20.835   6.613   7.676
 1899POPC   C1B25915  20.518   7.055   8.688
 1899POPC   C2B25916  20.443   6.884   8.262
 1899POPC   C3B25917  20.278   6.979   7.837
 1899POPC   C4B25918  20.337   7.022   7.377
 1900POPC   NC325919   4.772  32.524   9.420
 1900POPC   PO425920   5.216  32.058   9.482
 1900POPC   GL125921   5.148  32.187   9.070
 1900POPC   GL225922   5.155  32.485   9.072
 1900POPC   C1A25923   5.220  32.261   8.622
 1900POPC   D2A25924   5.112  31.997   8.283
 1900POPC   C3A25925   5.052  32.178   7.906
 1900POPC   C4A25926   5.321  32.431   7.660
 1900POPC   C1B25927   4.753  32.384   8.803
 1900POPC   C2B25928   4.735  32.321   8.390
 1900POPC   C3B25929   4.740  32.568   7.997
 1900POPC   C4B25930   4.529  32.606   7.604
 1901POPC   NC325931  19.651  19.120   9.613
 1901POPC   PO425932  18.954  19.273   9.519
 1901POPC   GL125933  19.046  19.042   9.180
 1901POPC   GL225934  19.356  19.182   9.166
 1901POPC   C1A25935  18.880  19.119   8.775
 1901POPC   D2A25936  18.619  18.955   8.491
 1901POPC   C3A25937  18.728  19.055   8.044
 1901POPC   C4A25938  18.907  19.007   7.633
 1901POPC   C1B25939  19.369  19.079   8.751
 1901POPC   C2B25940  19.238  19.306   8.386
 1901POPC   C3B25941  19.272  19.149   7.967
 1901POPC   C4B25942  19.455  18.860   7.686
 1902POPC   NC325943  15.490  14.334   9.574
 1902POPC   PO425944  14.834  14.484   9.688
 1902POPC   GL125945  15.044  14.495   9.228
 1902POPC   GL225946  15.351  14.335   9.092
 1902POPC   C1A25947  14.991  14.435   8.759
 1902POPC   D2A25948  14.765  14.440   8.359
 1902POPC   C3A25949  15.035  14.607   8.036
 1902POPC   C4A25950  15.226  14.330   7.745
 1902POPC   C1B25951  15.439  14.169   8.704
 1902POPC   C2B25952  15.330  14.217   8.257
 1902POPC   C3B25953  15.663  14.138   7.908
 1902POPC   C4B25954  15.621  14.095   7.432
 1903POPC   NC325955  34.701  14.171   9.641
 1903POPC   PO425956  34.134  14.510   9.481
 1903POPC   GL125957  34.430  14.284   9.220
 1903POPC   GL225958  34.672  14.516   9.245
 1903POPC   C1A25959  34.704  14.137   8.876
 1903POPC   D2A25960  34.946  14.297   8.510
 1903POPC   C3A25961  34.682  14.277   8.125
 1903POPC   C4A25962  34.361  14.563   7.930
 1903POPC   C1B25963  34.761  14.720   8.870
 1903POPC   C2B25964  34.894  14.834   8.471
 1903POPC   C3B25965  35.056  14.680   8.131
 1903POPC   C4B25966  34.856  14.626   7.780
 1904POPC   NC325967  40.433  22.775   9.691
 1904POPC   PO425968  40.874  23.230   9.569
 1904POPC   GL125969  40.648  23.166   9.180
 1904POPC   GL225970  40.551  22.813   9.179
 1904POPC   C1A25971  40.740  23.352   8.781
 1904POPC   D2A25972  40.586  23.270   8.366
 1904POPC   C3A25973  40.509  22.958   8.043
 1904POPC   C4A25974  40.597  23.184   7.636
 1904POPC   C1B25975  40.616  22.849   8.727
 1904POPC   C2B25976  40.916  22.870   8.393
 1904POPC   C3B25977  40.918  22.648   7.994
 1904POPC   C4B25978  40.698  22.691   7.620
 1905POPC   NC325979  10.209  12.545   9.549
 1905POPC   PO425980  10.486  11.945   9.457
 1905POPC   GL125981  10.540  12.167   9.127
 1905POPC   GL225982  10.294  12.422   9.061
 1905POPC   C1A25983  10.722  12.049   8.768
 1905POPC   D2A25984  10.835  11.879   8.405
 1905POPC   C3A25985  10.707  12.075   8.033
 1905POPC   C4A25986  10.619  11.933   7.621
 1905POPC   C1B25987  10.221  12.088   8.734
 1905POPC   C2B25988  10.050  12.114   8.317
 1905POPC   C3B25989  10.193  12.171   7.895
 1905POPC   C4B25990  10.334  12.417   7.576
 1906POPC   NC325991  35.267  34.297   9.521
 1906POPC   PO425992  35.193  33.606   9.540
 1906POPC   GL125993  35.263  33.869   9.208
 1906POPC   GL225994  35.613  34.061   9.199
 1906POPC   C1A25995  35.174  33.812   8.797
 1906POPC   D2A25996  35.515  33.897   8.511
 1906POPC   C3A25997  35.513  33.734   8.113
 1906POPC   C4A25998  35.620  33.591   7.748
 1906POPC   C1B25999  35.413  34.276   8.827
 1906POPC   C2B26000  35.096  34.166   8.439
 1906POPC   C3B26001  35.119  34.013   7.999
 1906POPC   C4B26002  35.325  33.971   7.571
 1907POPC   NC326003  23.626   6.164   9.467
 1907POPC   PO426004  23.836   5.559   9.298
 1907POPC   GL126005  23.789   5.886   9.036
 1907POPC   GL226006  23.466   5.951   9.041
 1907POPC   C1A26007  23.767   6.062   8.649
 1907POPC   D2A26008  23.923   5.965   8.296
 1907POPC   C3A26009  23.634   6.050   8.014
 1907POPC   C4A26010  23.917   5.799   7.788
 1907POPC   C1B26011  23.424   5.624   8.766
 1907POPC   C2B26012  23.508   5.660   8.369
 1907POPC   C3B26013  23.521   5.543   8.005
 1907POPC   C4B26014  23.353   5.540   7.671
 1908POPC   NC326015  39.626   5.793   9.564
 1908POPC   PO426016  39.142   6.247   9.538
 1908POPC   GL126017  39.278   5.961   9.216
 1908POPC   GL226018  39.514   6.214   9.157
 1908POPC   C1A26019  39.249   5.784   8.759
 1908POPC   D2A26020  39.477   5.842   8.362
 1908POPC   C3A26021  39.227   5.769   7.989
 1908POPC   C4A26022  39.124   5.800   7.572
 1908POPC   C1B26023  39.172   6.276   8.839
 1908POPC   C2B26024  39.046   6.146   8.413
 1908POPC   C3B26025  39.160   6.266   8.009
 1908POPC   C4B26026  39.003   6.302   7.618
 1909POPC   NC326027  38.669  12.669   9.513
 1909POPC   PO426028  38.041  12.991   9.292
 1909POPC   GL126029  38.431  12.959   9.062
 1909POPC   GL226030  38.504  12.594   9.022
 1909POPC   C1A26031  38.398  12.911   8.595
 1909POPC   D2A26032  38.195  12.647   8.261
 1909POPC   C3A26033  38.147  12.862   7.881
 1909POPC   C4A26034  38.386  13.243   7.868
 1909POPC   C1B26035  38.851  12.747   8.759
 1909POPC   C2B26036  38.858  12.874   8.341
 1909POPC   C3B26037  38.652  12.782   7.960
 1909POPC   C4B26038  38.545  12.496   7.642
 1910POPC   NC326039  18.128  41.434   9.708
 1910POPC   PO426040  17.863  41.763   9.209
 1910POPC   GL126041  18.140  41.594   8.945
 1910POPC   GL226042  18.335  41.380   9.145
 1910POPC   C1A26043  18.433  41.633   8.655
 1910POPC   D2A26044  18.342  41.501   8.244
 1910POPC   C3A26045  18.467  41.771   7.924
 1910POPC   C4A26046  18.344  41.821   7.527
 1910POPC   C1B26047  18.275  41.143   8.751
 1910POPC   C2B26048  18.083  41.068   8.363
 1910POPC   C3B26049  18.228  41.116   7.922
 1910POPC   C4B26050  18.102  41.422   7.663
 1911POPC   NC326051  40.193  18.294   9.645
 1911POPC   PO426052  40.869  18.236   9.572
 1911POPC   GL126053  40.573  18.133   9.239
 1911POPC   GL226054  40.888  18.106   9.050
 1911POPC   C1A26055  40.449  18.085   8.784
 1911POPC   D2A26056  40.735  18.184   8.436
 1911POPC   C3A26057  40.637  18.400   8.076
 1911POPC   C4A26058  40.781  18.396   7.643
 1911POPC   C1B26059  41.191  18.355   8.802
 1911POPC   C2B26060  41.243  18.166   8.399
 1911POPC   C3B26061  41.067  18.126   7.967
 1911POPC   C4B26062  41.170  18.078   7.471
 1912POPC   NC326063  26.151  17.109   9.422
 1912POPC   PO426064  25.667  16.700   9.286
 1912POPC   GL126065  25.999  16.571   9.014
 1912POPC   GL226066  26.337  16.690   9.151
 1912POPC   C1A26067  26.087  16.780   8.609
 1912POPC   D2A26068  25.918  17.030   8.271
 1912POPC   C3A26069  25.937  16.827   7.904
 1912POPC   C4A26070  26.106  16.522   7.616
 1912POPC   C1B26071  26.504  16.976   8.841
 1912POPC   C2B26072  26.665  16.962   8.443
 1912POPC   C3B26073  26.430  16.894   8.060
 1912POPC   C4B26074  26.410  16.915   7.607
 1913POPC   NC326075   8.408  32.354   9.434
 1913POPC   PO426076   7.634  32.222   9.566
 1913POPC   GL126077   7.993  32.164   9.197
 1913POPC   GL226078   8.090  32.519   9.096
 1913POPC   C1A26079   8.255  32.179   8.762
 1913POPC   D2A26080   8.152  32.180   8.322
 1913POPC   C3A26081   8.409  32.002   8.031
 1913POPC   C4A26082   8.240  31.909   7.655
 1913POPC   C1B26083   8.057  32.695   8.706
 1913POPC   C2B26084   8.273  32.681   8.332
 1913POPC   C3B26085   8.214  32.532   7.930
 1913POPC   C4B26086   8.088  32.820   7.630
 1914POPC   NC326087  13.688  17.831   9.470
 1914POPC   PO426088  13.456  17.296   9.767
 1914POPC   GL126089  13.367  17.436   9.270
 1914POPC   GL226090  13.294  17.770   9.152
 1914POPC   C1A26091  13.629  17.465   8.839
 1914POPC   D2A26092  13.925  17.560   8.492
 1914POPC   C3A26093  13.872  17.392   8.068
 1914POPC   C4A26094  13.786  17.615   7.693
 1914POPC   C1B26095  13.290  17.807   8.730
 1914POPC   C2B26096  13.289  17.468   8.407
 1914POPC   C3B26097  13.375  17.494   7.977
 1914POPC   C4B26098  13.308  17.841   7.712
 1915POPC   NC326099  31.918  26.224   9.515
 1915POPC   PO426100  31.300  26.191   9.707
 1915POPC   GL126101  31.468  26.295   9.277
 1915POPC   GL226102  31.602  25.952   9.212
 1915POPC   C1A26103  31.692  26.306   8.838
 1915POPC   D2A26104  31.537  26.103   8.453
 1915POPC   C3A26105  31.546  26.208   7.998
 1915POPC   C4A26106  31.449  25.892   7.675
 1915POPC   C1B26107  31.437  25.752   8.844
 1915POPC   C2B26108  31.160  25.701   8.490
 1915POPC   C3B26109  31.147  25.624   8.035
 1915POPC   C4B26110  30.965  25.732   7.606
 1916POPC   NC326111   4.518   9.898   9.723
 1916POPC   PO426112   4.034  10.238   9.287
 1916POPC   GL126113   4.221   9.885   9.041
 1916POPC   GL226114   4.487   9.738   9.194
 1916POPC   C1A26115   4.195   9.608   8.714
 1916POPC   D2A26116   4.413   9.771   8.386
 1916POPC   C3A26117   4.251   9.675   7.997
 1916POPC   C4A26118   4.378   9.960   7.686
 1916POPC   C1B26119   4.661   9.479   8.840
 1916POPC   C2B26120   4.711   9.361   8.399
 1916POPC   C3B26121   4.768   9.605   8.023
 1916POPC   C4B26122   4.664   9.554   7.632
 1917POPC   NC326123  19.466  30.002   9.444
 1917POPC   PO426124  18.829  30.203   9.334
 1917POPC   GL126125  18.807  29.819   9.093
 1917POPC   GL226126  19.146  29.836   9.102
 1917POPC   C1A26127  18.887  29.816   8.658
 1917POPC   D2A26128  18.974  30.111   8.367
 1917POPC   C3A26129  18.830  30.092   7.948
 1917POPC   C4A26130  18.736  30.232   7.531
 1917POPC   C1B26131  19.395  29.728   8.777
 1917POPC   C2B26132  19.369  29.784   8.359
 1917POPC   C3B26133  19.455  29.672   7.938
 1917POPC   C4B26134  19.440  29.887   7.530
 1918POPC   NC326135  17.102  14.242   9.701
 1918POPC   PO426136  16.594  14.109   9.362
 1918POPC   GL126137  16.903  14.385   9.156
 1918POPC   GL226138  17.232  14.236   9.190
 1918POPC   C1A26139  16.740  14.531   8.730
 1918POPC   D2A26140  16.385  14.457   8.394
 1918POPC   C3A26141  16.505  14.369   7.932
 1918POPC   C4A26142  16.586  14.134   7.520
 1918POPC   C1B26143  17.044  14.119   8.749
 1918POPC   C2B26144  16.880  14.259   8.306
 1918POPC   C3B26145  16.994  14.219   7.849
 1918POPC   C4B26146  17.083  14.034   7.423
 1919POPC   NC326147  27.484  15.179   9.559
 1919POPC   PO426148  27.935  14.798   9.196
 1919POPC   GL126149  27.700  15.209   9.096
 1919POPC   GL226150  27.316  15.273   9.106
 1919POPC   C1A26151  27.615  15.442   8.715
 1919POPC   D2A26152  27.797  15.424   8.313
 1919POPC   C3A26153  27.859  15.011   8.166
 1919POPC   C4A26154  27.763  14.909   7.753
 1919POPC   C1B26155  27.221  15.114   8.725
 1919POPC   C2B26156  27.369  15.075   8.309
 1919POPC   C3B26157  27.445  15.286   7.922
 1919POPC   C4B26158  27.372  15.102   7.499
 1920POPC   NC326159  29.616   2.250   9.580
 1920POPC   PO426160  30.040   1.786   9.467
 1920POPC   GL126161  29.821   1.928   9.091
 1920POPC   GL226162  29.499   2.092   9.118
 1920POPC   C1A26163  29.888   1.797   8.649
 1920POPC   D2A26164  30.129   1.840   8.249
 1920POPC   C3A26165  29.920   1.917   7.838
 1920POPC   C4A26166  29.806   1.750   7.401
 1920POPC   C1B26167  29.469   2.088   8.688
 1920POPC   C2B26168  29.594   2.010   8.257
 1920POPC   C3B26169  29.615   2.297   7.907
 1920POPC   C4B26170  29.417   2.539   7.629
 1921POPC   NC326171  14.917  22.389   9.419
 1921POPC   PO426172  15.429  22.012   9.603
 1921POPC   GL126173  15.336  22.161   9.187
 1921POPC   GL226174  15.441  22.492   9.110
 1921POPC   C1A26175  15.043  22.082   8.813
 1921POPC   D2A26176  14.858  22.049   8.385
 1921POPC   C3A26177  15.084  21.985   8.016
 1921POPC   C4A26178  15.046  22.315   7.741
 1921POPC   C1B26179  15.481  22.326   8.717
 1921POPC   C2B26180  15.301  22.338   8.326
 1921POPC   C3B26181  15.519  22.319   7.953
 1921POPC   C4B26182  15.550  22.217   7.541
 1922POPC   NC326183  36.995  30.596   9.433
 1922POPC   PO426184  36.957  31.093   9.798
 1922POPC   GL126185  36.972  31.056   9.223
 1922POPC   GL226186  36.814  30.756   8.994
 1922POPC   C1A26187  37.164  31.035   8.782
 1922POPC   D2A26188  37.137  31.069   8.341
 1922POPC   C3A26189  36.943  30.729   8.130
 1922POPC   C4A26190  36.795  30.723   7.740
 1922POPC   C1B26191  37.038  30.549   8.625
 1922POPC   C2B26192  37.181  30.271   8.257
 1922POPC   C3B26193  37.150  30.082   7.832
 1922POPC   C4B26194  36.947  30.336   7.473
 1923POPC   NC326195  31.070  44.307   9.678
 1923POPC   PO426196  31.472  44.927   9.478
 1923POPC   GL126197  31.479  44.572   9.275
 1923POPC   GL226198  31.255  44.702   9.013
 1923POPC   C1A26199  31.717  44.411   8.941
 1923POPC   D2A26200  31.620  44.539   8.564
 1923POPC   C3A26201  31.806  44.375   8.202
 1923POPC   C4A26202  31.695  44.388   7.784
 1923POPC   C1B26203  31.114  44.677   8.583
 1923POPC   C2B26204  31.172   0.033   8.339
 1923POPC   C3B26205  31.278   0.031   7.945
 1923POPC   C4B26206  31.243  44.595   7.843
 1924POPC   NC326207  42.890  26.765   9.458
 1924POPC   PO426208  43.530  26.842   9.571
 1924POPC   GL126209  43.327  26.704   9.188
 1924POPC   GL226210  43.183  27.039   9.128
 1924POPC   C1A26211  42.977  26.711   8.815
 1924POPC   D2A26212  42.738  26.542   8.485
 1924POPC   C3A26213  42.937  26.574   8.098
 1924POPC   C4A26214  42.933  26.835   7.738
 1924POPC   C1B26215  43.449  26.900   8.754
 1924POPC   C2B26216  43.257  26.897   8.377
 1924POPC   C3B26217  43.379  26.834   7.983
 1924POPC   C4B26218  43.532  26.811   7.572
 1925POPC   NC326219   6.109  19.598   9.500
 1925POPC   PO426220   5.693  20.098   9.527
 1925POPC   GL126221   5.782  19.930   9.127
 1925POPC   GL226222   5.815  19.592   9.081
 1925POPC   C1A26223   5.591  19.860   8.720
 1925POPC   D2A26224   5.450  19.921   8.312
 1925POPC   C3A26225   5.815  19.935   8.022
 1925POPC   C4A26226   5.586  19.971   7.623
 1925POPC   C1B26227   6.124  19.718   8.768
 1925POPC   C2B26228   6.166  19.626   8.317
 1925POPC   C3B26229   6.345  19.569   7.892
 1925POPC   C4B26230   6.003  19.646   7.618
 1926POPC   NC326231  11.367   8.503   9.434
 1926POPC   PO426232  11.663   9.113   9.535
 1926POPC   GL126233  11.518   9.252   9.119
 1926POPC   GL226234  11.193   9.282   9.021
 1926POPC   C1A26235  11.450   8.984   8.742
 1926POPC   D2A26236  11.264   8.973   8.328
 1926POPC   C3A26237  11.455   8.913   7.904
 1926POPC   C4A26238  11.410   9.133   7.506
 1926POPC   C1B26239  10.944   8.994   8.752
 1926POPC   C2B26240  10.747   8.959   8.338
 1926POPC   C3B26241  10.952   8.856   7.933
 1926POPC   C4B26242  11.151   8.705   7.521
 1927POPC   NC326243  25.566   6.421   9.491
 1927POPC   PO426244  24.998   6.745   9.569
 1927POPC   GL126245  25.135   6.566   9.186
 1927POPC   GL226246  25.469   6.694   9.070
 1927POPC   C1A26247  25.050   6.583   8.750
 1927POPC   D2A26248  25.125   6.844   8.398
 1927POPC   C3A26249  24.985   6.697   8.007
 1927POPC   C4A26250  25.143   6.767   7.612
 1927POPC   C1B26251  25.526   6.387   8.743
 1927POPC   C2B26252  25.355   6.383   8.322
 1927POPC   C3B26253  25.490   6.708   8.043
 1927POPC   C4B26254  25.638   6.662   7.660
 1928POPC   NC326255   0.322  36.143   9.320
 1928POPC   PO426256   0.657  35.504   9.421
 1928POPC   GL126257   0.534  35.742   9.028
 1928POPC   GL226258   0.170  35.756   9.053
 1928POPC   C1A26259   0.618  36.102   8.716
 1928POPC   D2A26260   0.834  36.227   8.328
 1928POPC   C3A26261   0.597  36.229   7.965
 1928POPC   C4A26262   0.599  35.895   7.679
 1928POPC   C1B26263   0.076  35.979   8.694
 1928POPC   C2B26264   0.252  36.011   8.314
 1928POPC   C3B26265   0.161  35.840   7.937
 1928POPC   C4B26266   0.176  36.194   7.667
 1929POPC   NC326267  42.003   9.626   9.402
 1929POPC   PO426268  41.352   9.918   9.559
 1929POPC   GL126269  41.525   9.765   9.163
 1929POPC   GL226270  41.838   9.906   9.031
 1929POPC   C1A26271  41.447   9.833   8.713
 1929POPC   D2A26272  41.589   9.628   8.359
 1929POPC   C3A26273  41.381   9.587   7.965
 1929POPC   C4A26274  41.245   9.944   7.805
 1929POPC   C1B26275  42.070   9.876   8.660
 1929POPC   C2B26276  42.015   9.870   8.218
 1929POPC   C3B26277  41.828   9.804   7.818
 1929POPC   C4B26278  41.854   9.975   7.364
 1930POPC   NC326279  20.119   2.742   9.430
 1930POPC   PO426280  19.405   2.629   9.351
 1930POPC   GL126281  19.706   2.814   9.104
 1930POPC   GL226282  19.887   2.523   9.024
 1930POPC   C1A26283  19.963   2.958   8.756
 1930POPC   D2A26284  19.829   3.020   8.309
 1930POPC   C3A26285  20.020   3.025   7.883
 1930POPC   C4A26286  20.238   2.868   7.495
 1930POPC   C1B26287  19.518   2.507   8.733
 1930POPC   C2B26288  19.400   2.416   8.320
 1930POPC   C3B26289  19.721   2.578   8.039
 1930POPC   C4B26290  19.797   2.645   7.601
 1931POPC   NC326291   9.322  34.671   9.464
 1931POPC   PO426292   8.607  34.428   9.495
 1931POPC   GL126293   8.903  34.605   9.200
 1931POPC   GL226294   8.824  34.930   9.263
 1931POPC   C1A26295   9.145  34.503   8.822
 1931POPC   D2A26296   9.107  34.281   8.429
 1931POPC   C3A26297   9.174  34.435   8.031
 1931POPC   C4A26298   8.828  34.268   7.802
 1931POPC   C1B26299   8.799  34.909   8.777
 1931POPC   C2B26300   8.989  34.808   8.362
 1931POPC   C3B26301   8.759  34.755   7.944
 1931POPC   C4B26302   8.608  34.677   7.519
 1932POPC   NC326303  20.092   0.351   9.549
 1932POPC   PO426304  20.728   0.197   9.686
 1932POPC   GL126305  20.758   0.228   9.260
 1932POPC   GL226306  20.431   0.097   9.143
 1932POPC   C1A26307  20.693   0.436   8.859
 1932POPC   D2A26308  20.843   0.575   8.474
 1932POPC   C3A26309  20.718   0.376   8.129
 1932POPC   C4A26310  20.938   0.302   7.782
 1932POPC   C1B26311  20.421   0.002   8.672
 1932POPC   C2B26312  20.486  44.805   8.234
 1932POPC   C3B26313  20.440   0.047   7.842
 1932POPC   C4B26314  20.204   0.278   7.510
 1933POPC   NC326315  38.939  43.298   9.541
 1933POPC   PO426316  39.470  42.899   9.552
 1933POPC   GL126317  39.209  43.003   9.213
 1933POPC   GL226318  39.025  42.734   9.089
 1933POPC   C1A26319  39.241  43.292   8.872
 1933POPC   D2A26320  39.383  43.251   8.450
 1933POPC   C3A26321  39.156  43.079   8.102
 1933POPC   C4A26322  39.158  43.303   7.742
 1933POPC   C1B26323  39.348  42.800   8.749
 1933POPC   C2B26324  39.399  42.707   8.335
 1933POPC   C3B26325  39.564  42.824   7.928
 1933POPC   C4B26326  39.756  42.679   7.551
 1934POPC   NC326327  27.144   2.177   9.481
 1934POPC   PO426328  26.530   2.042   9.405
 1934POPC   GL126329  26.860   2.034   9.085
 1934POPC   GL226330  27.024   1.697   9.119
 1934POPC   C1A26331  26.844   2.118   8.645
 1934POPC   D2A26332  26.522   2.288   8.355
 1934POPC   C3A26333  26.711   2.278   7.960
 1934POPC   C4A26334  27.137   2.349   7.849
 1934POPC   C1B26335  26.725   1.640   8.792
 1934POPC   C2B26336  26.639   1.725   8.369
 1934POPC   C3B26337  26.754   1.746   7.949
 1934POPC   C4B26338  26.555   1.952   7.626
 1935POPC   NC326339  32.265   7.393   9.326
 1935POPC   PO426340  32.536   6.704   9.407
 1935POPC   GL126341  32.399   6.638   9.021
 1935POPC   GL226342  32.351   6.963   8.957
 1935POPC   C1A26343  32.253   6.562   8.624
 1935POPC   D2A26344  32.438   6.389   8.266
 1935POPC   C3A26345  32.074   6.249   8.043
 1935POPC   C4A26346  31.832   6.368   7.667
 1935POPC   C1B26347  32.056   7.026   8.631
 1935POPC   C2B26348  31.951   6.784   8.253
 1935POPC   C3B26349  32.130   6.745   7.874
 1935POPC   C4B26350  32.069   7.076   7.620
 1936POPC   NC326351   7.327  14.687   9.476
 1936POPC   PO426352   7.272  15.318   9.466
 1936POPC   GL126353   7.390  15.217   9.041
 1936POPC   GL226354   7.512  14.900   9.039
 1936POPC   C1A26355   7.478  15.169   8.609
 1936POPC   D2A26356   7.283  15.205   8.238
 1936POPC   C3A26357   7.605  15.161   7.952
 1936POPC   C4A26358   7.747  15.195   7.536
 1936POPC   C1B26359   7.185  14.780   8.772
 1936POPC   C2B26360   7.213  14.676   8.335
 1936POPC   C3B26361   7.259  14.690   7.893
 1936POPC   C4B26362   7.622  14.722   7.668
 1937POPC   NC326363  29.215  27.992   9.343
 1937POPC   PO426364  28.650  28.332   9.577
 1937POPC   GL126365  28.996  28.475   9.293
 1937POPC   GL226366  28.780  28.544   9.049
 1937POPC   C1A26367  29.258  28.523   8.895
 1937POPC   D2A26368  29.339  28.242   8.555
 1937POPC   C3A26369  29.495  28.302   8.132
 1937POPC   C4A26370  29.342  28.505   7.755
 1937POPC   C1B26371  28.816  28.240   8.722
 1937POPC   C2B26372  28.869  27.977   8.367
 1937POPC   C3B26373  29.007  28.154   7.999
 1937POPC   C4B26374  28.822  28.386   7.685
 1938POPC   NC326375   1.818  36.082   9.400
 1938POPC   PO426376   2.368  36.410   9.268
 1938POPC   GL126377   2.100  36.244   8.972
 1938POPC   GL226378   2.053  35.890   8.935
 1938POPC   C1A26379   2.030  36.235   8.531
 1938POPC   D2A26380   1.846  36.380   8.158
 1938POPC   C3A26381   2.103  36.262   7.783
 1938POPC   C4A26382   2.029  36.322   7.336
 1938POPC   C1B26383   1.632  36.007   8.748
 1938POPC   C2B26384   1.520  35.976   8.309
 1938POPC   C3B26385   1.667  35.984   7.876
 1938POPC   C4B26386   1.612  36.036   7.436
 1939POPC   NC326387  17.172   8.484   9.521
 1939POPC   PO426388  17.821   8.228   9.491
 1939POPC   GL126389  17.773   7.943   9.148
 1939POPC   GL226390  17.418   7.916   9.159
 1939POPC   C1A26391  17.747   8.074   8.737
 1939POPC   D2A26392  17.757   8.405   8.475
 1939POPC   C3A26393  17.792   8.275   8.052
 1939POPC   C4A26394  17.639   8.574   7.787
 1939POPC   C1B26395  17.251   8.083   8.757
 1939POPC   C2B26396  17.421   8.013   8.337
 1939POPC   C3B26397  17.292   8.177   7.940
 1939POPC   C4B26398  17.260   7.966   7.582
 1940POPC   NC326399  32.687  32.093  10.082
 1940POPC   PO426400  32.181  32.312   9.663
 1940POPC   GL126401  32.079  32.278   9.213
 1940POPC   GL226402  32.065  31.949   9.025
 1940POPC   C1A26403  32.348  32.357   8.885
 1940POPC   D2A26404  32.243  32.367   8.462
 1940POPC   C3A26405  32.415  32.325   8.054
 1940POPC   C4A26406  32.033  32.474   7.887
 1940POPC   C1B26407  32.363  31.876   8.699
 1940POPC   C2B26408  32.249  31.869   8.282
 1940POPC   C3B26409  32.079  31.968   7.877
 1940POPC   C4B26410  32.251  32.212   7.514
 1941POPC   NC326411  15.768   0.724   9.462
 1941POPC   PO426412  15.117   0.468   9.552
 1941POPC   GL126413  15.004   0.385   9.135
 1941POPC   GL226414  14.691   0.252   9.145
 1941POPC   C1A26415  15.200   0.296   8.731
 1941POPC   D2A26416  15.574   0.383   8.519
 1941POPC   C3A26417  15.428   0.393   8.106
 1941POPC   C4A26418  15.187   0.338   7.757
 1941POPC   C1B26419  14.754   0.043   8.729
 1941POPC   C2B26420  14.979   0.055   8.286
 1941POPC   C3B26421  14.890  44.947   7.813
 1941POPC   C4B26422  14.893   0.165   7.369
 1942POPC   NC326423   7.962   1.442   9.513
 1942POPC   PO426424   8.455   0.999   9.433
 1942POPC   GL126425   8.268   1.242   9.138
 1942POPC   GL226426   7.962   1.072   9.151
 1942POPC   C1A26427   8.299   1.523   8.785
 1942POPC   D2A26428   8.464   1.432   8.402
 1942POPC   C3A26429   8.285   1.379   8.031
 1942POPC   C4A26430   8.444   1.421   7.636
 1942POPC   C1B26431   7.971   0.939   8.755
 1942POPC   C2B26432   8.085   1.034   8.357
 1942POPC   C3B26433   7.993   0.977   7.922
 1942POPC   C4B26434   8.403   0.853   7.813
 1943POPC   NC326435  38.185  43.239   9.396
 1943POPC   PO426436  38.710  42.879   9.457
 1943POPC   GL126437  38.548  43.035   9.090
 1943POPC   GL226438  38.772  43.242   9.058
 1943POPC   C1A26439  38.388  43.304   8.714
 1943POPC   D2A26440  38.469  43.574   8.323
 1943POPC   C3A26441  38.283  43.414   7.944
 1943POPC   C4A26442  38.264  43.211   7.547
 1943POPC   C1B26443  38.833  43.006   8.666
 1943POPC   C2B26444  38.560  43.022   8.315
 1943POPC   C3B26445  38.677  43.099   7.906
 1943POPC   C4B26446  38.775  43.086   7.477
 1944POPC   NC326447  33.881  29.778   9.542
 1944POPC   PO426448  33.801  30.396   9.286
 1944POPC   GL126449  33.995  30.028   9.082
 1944POPC   GL226450  34.103  29.649   9.084
 1944POPC   C1A26451  33.672  29.843   8.839
 1944POPC   D2A26452  33.546  29.629   8.467
 1944POPC   C3A26453  33.531  29.723   8.051
 1944POPC   C4A26454  33.479  29.679   7.609
 1944POPC   C1B26455  34.093  29.636   8.648
 1944POPC   C2B26456  33.937  29.999   8.408
 1944POPC   C3B26457  33.821  30.146   8.012
 1944POPC   C4B26458  33.959  29.825   7.740
 1945POPC   NC326459  33.269  19.003   9.423
 1945POPC   PO426460  32.613  19.301   9.379
 1945POPC   GL126461  32.893  19.146   9.100
 1945POPC   GL226462  32.896  18.809   9.002
 1945POPC   C1A26463  33.163  19.253   8.762
 1945POPC   D2A26464  33.272  19.200   8.340
 1945POPC   C3A26465  33.021  18.932   8.075
 1945POPC   C4A26466  32.888  19.101   7.672
 1945POPC   C1B26467  33.150  18.728   8.613
 1945POPC   C2B26468  33.510  18.753   8.310
 1945POPC   C3B26469  33.516  18.977   7.915
 1945POPC   C4B26470  33.344  19.013   7.487
 1946POPC   NC326471  17.859  29.325   9.323
 1946POPC   PO426472  18.518  29.454   9.472
 1946POPC   GL126473  18.408  29.161   9.136
 1946POPC   GL226474  18.693  29.309   9.013
 1946POPC   C1A26475  18.203  29.089   8.697
 1946POPC   D2A26476  18.202  29.347   8.288
 1946POPC   C3A26477  18.149  29.154   7.892
 1946POPC   C4A26478  18.157  28.746   7.772
 1946POPC   C1B26479  18.569  29.426   8.641
 1946POPC   C2B26480  18.710  29.116   8.338
 1946POPC   C3B26481  18.626  28.932   7.945
 1946POPC   C4B26482  18.607  29.305   7.703
 1947POPC   NC326483  37.036  33.705   9.499
 1947POPC   PO426484  36.659  34.221   9.251
 1947POPC   GL126485  36.843  33.918   9.061
 1947POPC   GL226486  37.146  34.038   9.109
 1947POPC   C1A26487  36.802  33.717   8.673
 1947POPC   D2A26488  36.931  33.861   8.277
 1947POPC   C3A26489  36.702  33.578   8.034
 1947POPC   C4A26490  36.500  33.318   7.758
 1947POPC   C1B26491  37.282  33.861   8.746
 1947POPC   C2B26492  37.326  33.577   8.424
 1947POPC   C3B26493  37.222  33.555   7.972
 1947POPC   C4B26494  36.968  33.904   7.752
 1948POPC   NC326495  15.387   8.395   9.853
 1948POPC   PO426496  15.978   8.147   9.511
 1948POPC   GL126497  16.177   8.111   9.128
 1948POPC   GL226498  15.846   8.130   9.008
 1948POPC   C1A26499  16.235   8.069   8.690
 1948POPC   D2A26500  16.024   8.298   8.406
 1948POPC   C3A26501  15.980   8.091   8.026
 1948POPC   C4A26502  16.169   8.072   7.632
 1948POPC   C1B26503  15.502   8.191   8.740
 1948POPC   C2B26504  15.564   8.088   8.365
 1948POPC   C3B26505  15.486   8.244   8.005
 1948POPC   C4B26506  15.648   8.095   7.631
 1949POPC   NC326507  12.319  21.643   9.393
 1949POPC   PO426508  11.888  21.178   9.459
 1949POPC   GL126509  12.072  21.323   9.095
 1949POPC   GL226510  12.455  21.213   9.128
 1949POPC   C1A26511  11.993  21.535   8.705
 1949POPC   D2A26512  11.773  21.454   8.309
 1949POPC   C3A26513  12.014  21.554   7.904
 1949POPC   C4A26514  12.015  21.281   7.514
 1949POPC   C1B26515  12.307  21.115   8.705
 1949POPC   C2B26516  12.276  21.328   8.311
 1949POPC   C3B26517  12.370  21.176   7.920
 1949POPC   C4B26518  12.491  21.041   7.505
 1950POPC   NC326519   8.144  19.265   9.457
 1950POPC   PO426520   7.496  19.116   9.550
 1950POPC   GL126521   7.391  18.952   9.172
 1950POPC   GL226522   7.072  18.833   9.193
 1950POPC   C1A26523   7.341  19.092   8.759
 1950POPC   D2A26524   7.069  19.204   8.424
 1950POPC   C3A26525   7.283  19.133   8.019
 1950POPC   C4A26526   7.579  19.339   7.741
 1950POPC   C1B26527   7.161  18.623   8.788
 1950POPC   C2B26528   7.270  18.733   8.373
 1950POPC   C3B26529   7.270  18.598   7.959
 1950POPC   C4B26530   7.527  18.807   7.697
 1951POPC   NC326531  25.332  39.813   9.567
 1951POPC   PO426532  24.842  40.224   9.461
 1951POPC   GL126533  25.237  40.134   9.174
 1951POPC   GL226534  25.594  39.968   9.157
 1951POPC   C1A26535  25.280  39.996   8.758
 1951POPC   D2A26536  25.268  40.159   8.347
 1951POPC   C3A26537  25.146  39.916   8.001
 1951POPC   C4A26538  24.893  39.993   7.621
 1951POPC   C1B26539  25.721  39.670   8.817
 1951POPC   C2B26540  25.557  39.733   8.391
 1951POPC   C3B26541  25.658  39.888   7.971
 1951POPC   C4B26542  25.415  39.841   7.578
 1952POPC   NC326543  21.588  37.142   9.491
 1952POPC   PO426544  21.546  36.479   9.421
 1952POPC   GL126545  21.316  36.619   9.061
 1952POPC   GL226546  21.148  36.917   9.154
 1952POPC   C1A26547  21.376  36.787   8.641
 1952POPC   D2A26548  21.258  36.636   8.236
 1952POPC   C3A26549  21.410  36.865   7.867
 1952POPC   C4A26550  21.515  36.758   7.452
 1952POPC   C1B26551  21.048  37.178   8.773
 1952POPC   C2B26552  21.271  37.237   8.366
 1952POPC   C3B26553  21.221  37.377   7.949
 1952POPC   C4B26554  21.090  37.488   7.541
 1953POPC   NC326555  10.880  13.039   9.490
 1953POPC   PO426556  10.637  12.541   9.726
 1953POPC   GL126557  10.754  12.624   9.216
 1953POPC   GL226558  10.776  12.970   9.020
 1953POPC   C1A26559  10.658  12.551   8.758
 1953POPC   D2A26560  10.499  12.352   8.399
 1953POPC   C3A26561  10.566  12.557   8.021
 1953POPC   C4A26562  10.576  12.858   7.715
 1953POPC   C1B26563  10.452  13.029   8.763
 1953POPC   C2B26564  10.478  12.898   8.395
 1953POPC   C3B26565  10.465  13.149   8.090
 1953POPC   C4B26566  10.160  13.171   7.801
 1954POPC   NC326567  23.176  28.392   9.388
 1954POPC   PO426568  22.428  28.253   9.489
 1954POPC   GL126569  22.700  28.376   9.172
 1954POPC   GL226570  22.868  28.072   9.105
 1954POPC   C1A26571  22.600  28.646   8.832
 1954POPC   D2A26572  22.855  28.779   8.496
 1954POPC   C3A26573  22.740  28.560   8.113
 1954POPC   C4A26574  22.902  28.657   7.718
 1954POPC   C1B26575  22.852  28.241   8.661
 1954POPC   C2B26576  23.079  28.197   8.283
 1954POPC   C3B26577  23.140  28.229   7.855
 1954POPC   C4B26578  23.116  27.965   7.503
 1955POPC   NC326579  22.762  31.742   9.422
 1955POPC   PO426580  22.923  32.430   9.498
 1955POPC   GL126581  22.890  32.151   9.172
 1955POPC   GL226582  22.685  32.298   9.021
 1955POPC   C1A26583  23.035  32.046   8.755
 1955POPC   D2A26584  22.955  32.441   8.563
 1955POPC   C3A26585  22.952  32.446   8.116
 1955POPC   C4A26586  23.035  32.254   7.751
 1955POPC   C1B26587  22.521  32.053   8.700
 1955POPC   C2B26588  22.736  31.952   8.337
 1955POPC   C3B26589  22.593  32.068   7.959
 1955POPC   C4B26590  22.668  31.926   7.599
 1956POPC   NC326591  10.573  30.042   9.646
 1956POPC   PO426592  10.648  29.421   9.351
 1956POPC   GL126593  10.477  29.797   9.182
 1956POPC   GL226594  10.353  30.161   9.206
 1956POPC   C1A26595  10.315  29.887   8.788
 1956POPC   D2A26596  10.028  29.746   8.493
 1956POPC   C3A26597  10.286  29.819   8.133
 1956POPC   C4A26598  10.195  29.887   7.725
 1956POPC   C1B26599  10.729  30.212   8.976
 1956POPC   C2B26600  10.716  30.201   8.545
 1956POPC   C3B26601  10.818  29.979   8.152
 1956POPC   C4B26602  10.642  30.110   7.767
 1957POPC   NC326603   4.173  37.834   9.529
 1957POPC   PO426604   4.417  37.222   9.547
 1957POPC   GL126605   4.482  37.522   9.210
 1957POPC   GL226606   4.160  37.619   9.056
 1957POPC   C1A26607   4.604  37.679   8.808
 1957POPC   D2A26608   4.635  37.546   8.382
 1957POPC   C3A26609   4.510  37.861   8.100
 1957POPC   C4A26610   4.494  37.738   7.702
 1957POPC   C1B26611   3.983  37.620   8.633
 1957POPC   C2B26612   4.099  37.570   8.211
 1957POPC   C3B26613   4.016  37.798   7.851
 1957POPC   C4B26614   3.923  37.725   7.422
 1958POPC   NC326615  14.273  11.441   9.557
 1958POPC   PO426616  14.870  11.187   9.549
 1958POPC   GL126617  14.648  11.224   9.160
 1958POPC   GL226618  14.277  11.349   9.071
 1958POPC   C1A26619  14.674  11.344   8.751
 1958POPC   D2A26620  14.426  11.597   8.478
 1958POPC   C3A26621  14.524  11.421   8.063
 1958POPC   C4A26622  14.424  11.251   7.608
 1958POPC   C1B26623  14.203  11.082   8.730
 1958POPC   C2B26624  14.149  11.193   8.345
 1958POPC   C3B26625  14.024  11.337   7.960
 1958POPC   C4B26626  13.990  11.007   7.693
 1959POPC   NC326627  40.548  34.138   9.388
 1959POPC   PO426628  40.973  33.561   9.406
 1959POPC   GL126629  40.779  33.561   9.045
 1959POPC   GL226630  40.867  33.912   9.020
 1959POPC   C1A26631  40.655  33.656   8.638
 1959POPC   D2A26632  40.372  33.666   8.336
 1959POPC   C3A26633  40.495  33.606   7.921
 1959POPC   C4A26634  40.618  33.899   7.578
 1959POPC   C1B26635  40.905  34.100   8.600
 1959POPC   C2B26636  40.783  33.942   8.174
 1959POPC   C3B26637  41.050  33.837   7.817
 1959POPC   C4B26638  41.215  34.021   7.402
 1960POPC   NC326639  15.705   2.384   9.557
 1960POPC   PO426640  16.155   1.808   9.428
 1960POPC   GL126641  15.936   1.822   9.074
 1960POPC   GL226642  15.673   2.007   9.225
 1960POPC   C1A26643  16.072   1.811   8.661
 1960POPC   D2A26644  16.235   2.038   8.322
 1960POPC   C3A26645  16.114   1.965   7.926
 1960POPC   C4A26646  16.138   2.340   7.712
 1960POPC   C1B26647  15.598   2.122   8.826
 1960POPC   C2B26648  15.732   2.140   8.429
 1960POPC   C3B26649  15.653   2.191   7.990
 1960POPC   C4B26650  15.739   2.030   7.574
 1961POPC   NC326651  39.830  21.085   9.901
 1961POPC   PO426652  39.672  20.509   9.519
 1961POPC   GL126653  39.940  20.540   9.158
 1961POPC   GL226654  40.161  20.838   9.152
 1961POPC   C1A26655  39.957  20.435   8.754
 1961POPC   D2A26656  39.733  20.617   8.437
 1961POPC   C3A26657  40.015  20.622   8.126
 1961POPC   C4A26658  39.956  20.407   7.788
 1961POPC   C1B26659  39.823  20.955   8.858
 1961POPC   C2B26660  39.840  21.118   8.457
 1961POPC   C3B26661  39.685  21.020   8.066
 1961POPC   C4B26662  39.849  20.989   7.682
 1962POPC   NC326663  11.224  16.286   9.519
 1962POPC   PO426664  11.487  15.736   9.125
 1962POPC   GL126665  11.168  16.024   9.076
 1962POPC   GL226666  11.373  16.310   9.041
 1962POPC   C1A26667  10.897  15.986   8.747
 1962POPC   D2A26668  11.047  16.031   8.298
 1962POPC   C3A26669  11.210  15.729   8.003
 1962POPC   C4A26670  11.292  15.873   7.584
 1962POPC   C1B26671  11.362  16.276   8.638
 1962POPC   C2B26672  11.646  16.316   8.310
 1962POPC   C3B26673  11.489  16.261   7.926
 1962POPC   C4B26674  11.725  16.167   7.581
 1963POPC   NC326675  17.567  24.696   9.549
 1963POPC   PO426676  18.024  24.203   9.325
 1963POPC   GL126677  17.593  24.318   9.165
 1963POPC   GL226678  17.679  24.643   9.063
 1963POPC   C1A26679  17.352  24.386   8.754
 1963POPC   D2A26680  17.561  24.253   8.358
 1963POPC   C3A26681  17.495  24.438   7.962
 1963POPC   C4A26682  17.370  24.131   7.698
 1963POPC   C1B26683  17.780  24.653   8.621
 1963POPC   C2B26684  17.991  24.497   8.243
 1963POPC   C3B26685  17.970  24.545   7.806
 1963POPC   C4B26686  18.106  24.711   7.413
 1964POPC   NC326687   3.405   5.307   9.506
 1964POPC   PO426688   3.207   4.682   9.531
 1964POPC   GL126689   3.421   4.785   9.115
 1964POPC   GL226690   3.451   5.155   9.028
 1964POPC   C1A26691   3.619   4.733   8.711
 1964POPC   D2A26692   3.752   4.897   8.303
 1964POPC   C3A26693   3.552   4.751   7.932
 1964POPC   C4A26694   3.399   4.885   7.517
 1964POPC   C1B26695   3.195   5.044   8.690
 1964POPC   C2B26696   3.208   4.912   8.283
 1964POPC   C3B26697   3.165   5.140   7.883
 1964POPC   C4B26698   3.070   5.295   7.442
 1965POPC   NC326699  30.705  18.973   9.573
 1965POPC   PO426700  30.854  19.616   9.361
 1965POPC   GL126701  30.780  19.199   9.125
 1965POPC   GL226702  30.954  18.837   9.158
 1965POPC   C1A26703  30.610  18.957   8.787
 1965POPC   D2A26704  30.760  19.015   8.371
 1965POPC   C3A26705  30.499  18.929   8.009
 1965POPC   C4A26706  30.462  19.276   7.744
 1965POPC   C1B26707  31.122  18.802   8.743
 1965POPC   C2B26708  31.050  18.565   8.370
 1965POPC   C3B26709  30.974  18.755   7.989
 1965POPC   C4B26710  30.958  18.931   7.600
 1966POPC   NC326711  28.557  13.908   9.625
 1966POPC   PO426712  29.134  13.357   9.512
 1966POPC   GL126713  29.208  13.520   9.102
 1966POPC   GL226714  28.900  13.616   8.985
 1966POPC   C1A26715  29.385  13.613   8.691
 1966POPC   D2A26716  29.634  13.478   8.316
 1966POPC   C3A26717  29.445  13.403   7.903
 1966POPC   C4A26718  29.708  13.671   7.693
 1966POPC   C1B26719  28.860  13.618   8.559
 1966POPC   C2B26720  29.109  13.579   8.253
 1966POPC   C3B26721  29.353  13.873   8.115
 1966POPC   C4B26722  29.256  13.876   7.698
 1967POPC   NC326723   0.121  28.757   9.356
 1967POPC   PO426724   0.607  29.095   9.677
 1967POPC   GL126725   0.389  29.213   9.308
 1967POPC   GL226726   0.704  29.225   9.120
 1967POPC   C1A26727   0.127  29.292   8.946
 1967POPC   D2A26728   0.254  29.277   8.500
 1967POPC   C3A26729   0.002  29.092   8.184
 1967POPC   C4A26730  44.965  29.359   7.821
 1967POPC   C1B26731   0.474  28.935   8.836
 1967POPC   C2B26732   0.457  28.794   8.424
 1967POPC   C3B26733   0.489  29.021   8.044
 1967POPC   C4B26734   0.676  28.948   7.666
 1968POPC   NC326735   4.021  30.104   9.416
 1968POPC   PO426736   3.313  30.175   9.439
 1968POPC   GL126737   3.367  29.924   9.079
 1968POPC   GL226738   3.565  29.605   9.143
 1968POPC   C1A26739   3.635  29.924   8.742
 1968POPC   D2A26740   3.847  30.054   8.405
 1968POPC   C3A26741   3.749  29.715   8.201
 1968POPC   C4A26742   3.689  29.812   7.815
 1968POPC   C1B26743   3.335  29.496   8.741
 1968POPC   C2B26744   3.245  29.698   8.323
 1968POPC   C3B26745   3.236  29.596   7.858
 1968POPC   C4B26746   3.454  29.615   7.422
 1969POPC   NC326747  17.245  34.161   9.948
 1969POPC   PO426748  16.886  33.643   9.660
 1969POPC   GL126749  16.762  33.731   9.250
 1969POPC   GL226750  16.634  34.077   9.317
 1969POPC   C1A26751  16.833  33.574   8.851
 1969POPC   D2A26752  16.807  33.754   8.451
 1969POPC   C3A26753  16.798  33.470   8.100
 1969POPC   C4A26754  16.856  33.633   7.687
 1969POPC   C1B26755  16.699  34.128   8.894
 1969POPC   C2B26756  16.668  34.259   8.483
 1969POPC   C3B26757  16.566  34.070   8.114
 1969POPC   C4B26758  16.773  34.215   7.791
 1970POPC   NC326759  19.000  16.728   9.818
 1970POPC   PO426760  19.416  17.085   9.383
 1970POPC   GL126761  19.175  16.952   9.062
 1970POPC   GL226762  18.890  16.931   9.263
 1970POPC   C1A26763  19.040  16.794   8.669
 1970POPC   D2A26764  19.247  16.542   8.344
 1970POPC   C3A26765  19.220  16.802   8.031
 1970POPC   C4A26766  19.170  16.783   7.625
 1970POPC   C1B26767  18.651  17.060   8.898
 1970POPC   C2B26768  18.539  16.902   8.500
 1970POPC   C3B26769  18.731  16.903   8.120
 1970POPC   C4B26770  18.629  16.805   7.719
 1971POPC   NC326771  42.351  31.643   9.446
 1971POPC   PO426772  42.519  30.974   9.474
 1971POPC   GL126773  42.383  31.214   9.128
 1971POPC   GL226774  42.226  31.003   8.973
 1971POPC   C1A26775  42.225  31.512   8.808
 1971POPC   D2A26776  42.261  31.830   8.516
 1971POPC   C3A26777  42.227  31.737   8.088
 1971POPC   C4A26778  42.473  31.785   7.742
 1971POPC   C1B26779  41.915  31.110   8.760
 1971POPC   C2B26780  42.165  31.143   8.452
 1971POPC   C3B26781  42.200  31.235   8.061
 1971POPC   C4B26782  42.291  31.249   7.638
 1972POPC   NC326783  34.715  16.647   9.541
 1972POPC   PO426784  35.189  17.081   9.470
 1972POPC   GL126785  34.866  16.937   9.128
 1972POPC   GL226786  34.730  16.561   9.060
 1972POPC   C1A26787  34.654  16.895   8.713
 1972POPC   D2A26788  34.422  16.890   8.378
 1972POPC   C3A26789  34.565  16.892   7.944
 1972POPC   C4A26790  34.992  16.911   7.782
 1972POPC   C1B26791  34.284  16.583   8.936
 1972POPC   C2B26792  34.076  16.514   8.568
 1972POPC   C3B26793  34.213  16.515   8.140
 1972POPC   C4B26794  34.374  16.424   7.735
 1973POPC   NC326795   9.202  30.499   9.561
 1973POPC   PO426796   8.838  30.962   9.405
 1973POPC   GL126797   9.051  30.759   9.121
 1973POPC   GL226798   8.963  30.399   9.126
 1973POPC   C1A26799   8.927  30.779   8.703
 1973POPC   D2A26800   8.965  31.069   8.362
 1973POPC   C3A26801   9.012  30.803   8.014
 1973POPC   C4A26802   8.790  30.568   7.695
 1973POPC   C1B26803   9.315  30.397   8.851
 1973POPC   C2B26804   9.311  30.542   8.431
 1973POPC   C3B26805   9.459  30.410   8.051
 1973POPC   C4B26806   9.340  30.588   7.696
 1974POPC   NC326807   3.172  40.905   9.496
 1974POPC   PO426808   3.812  40.550   9.587
 1974POPC   GL126809   3.603  40.728   9.243
 1974POPC   GL226810   3.571  40.429   9.103
 1974POPC   C1A26811   3.497  41.032   8.898
 1974POPC   D2A26812   3.284  41.015   8.481
 1974POPC   C3A26813   3.521  40.924   8.099
 1974POPC   C4A26814   3.374  40.801   7.684
 1974POPC   C1B26815   3.464  40.554   8.706
 1974POPC   C2B26816   3.670  40.467   8.338
 1974POPC   C3B26817   3.537  40.423   7.967
 1974POPC   C4B26818   3.635  40.333   7.614
 1975POPC   NC326819   5.384  37.809   9.512
 1975POPC   PO426820   6.067  37.606   9.513
 1975POPC   GL126821   5.784  37.766   9.208
 1975POPC   GL226822   5.674  37.434   9.197
 1975POPC   C1A26823   5.792  37.985   8.811
 1975POPC   D2A26824   6.017  38.039   8.441
 1975POPC   C3A26825   5.844  37.990   8.038
 1975POPC   C4A26826   6.218  37.991   7.775
 1975POPC   C1B26827   5.988  37.492   8.850
 1975POPC   C2B26828   6.125  37.309   8.472
 1975POPC   C3B26829   6.152  37.573   8.106
 1975POPC   C4B26830   5.928  37.588   7.720
 1976POPC   NC326831  42.846  19.053   9.433
 1976POPC   PO426832  43.329  19.390   9.730
 1976POPC   GL126833  43.265  19.294   9.236
 1976POPC   GL226834  43.334  18.959   9.117
 1976POPC   C1A26835  42.990  19.139   8.805
 1976POPC   D2A26836  43.033  18.934   8.379
 1976POPC   C3A26837  42.897  19.108   7.995
 1976POPC   C4A26838  43.075  19.040   7.566
 1976POPC   C1B26839  43.496  19.134   8.787
 1976POPC   C2B26840  43.491  19.205   8.366
 1976POPC   C3B26841  43.403  19.040   7.953
 1976POPC   C4B26842  43.501  19.313   7.595
 1977POPC   NC326843  16.222  35.497   9.664
 1977POPC   PO426844  16.870  35.317   9.587
 1977POPC   GL126845  16.519  35.279   9.282
 1977POPC   GL226846  16.477  35.640   9.256
 1977POPC   C1A26847  16.390  35.090   8.884
 1977POPC   D2A26848  16.610  35.205   8.505
 1977POPC   C3A26849  16.668  35.075   8.078
 1977POPC   C4A26850  16.838  35.278   7.718
 1977POPC   C1B26851  16.543  35.595   8.843
 1977POPC   C2B26852  16.703  35.747   8.467
 1977POPC   C3B26853  16.667  35.633   8.056
 1977POPC   C4B26854  16.682  35.787   7.655
 1978POPC   NC326855   1.576  15.816   9.475
 1978POPC   PO426856   0.978  15.938   9.595
 1978POPC   GL126857   1.164  15.879   9.157
 1978POPC   GL226858   1.435  16.144   9.123
 1978POPC   C1A26859   1.142  15.724   8.702
 1978POPC   D2A26860   1.233  15.916   8.276
 1978POPC   C3A26861   0.980  15.847   7.891
 1978POPC   C4A26862   0.609  15.644   7.731
 1978POPC   C1B26863   1.615  15.927   8.754
 1978POPC   C2B26864   1.708  16.095   8.353
 1978POPC   C3B26865   1.515  16.293   7.998
 1978POPC   C4B26866   1.253  16.245   7.619
 1979POPC   NC326867  41.112   5.344   9.541
 1979POPC   PO426868  41.221   4.709   9.226
 1979POPC   GL126869  41.273   5.149   9.073
 1979POPC   GL226870  41.525   5.362   9.213
 1979POPC   C1A26871  41.329   5.294   8.642
 1979POPC   D2A26872  41.455   5.021   8.300
 1979POPC   C3A26873  41.340   5.088   7.891
 1979POPC   C4A26874  41.403   4.894   7.487
 1979POPC   C1B26875  41.785   5.205   8.857
 1979POPC   C2B26876  41.813   5.356   8.435
 1979POPC   C3B26877  41.978   5.254   8.008
 1979POPC   C4B26878  41.768   5.213   7.624
 1980POPC   NC326879  26.255   6.821  10.066
 1980POPC   PO426880  26.013   6.294   9.660
 1980POPC   GL126881  26.033   6.501   9.248
 1980POPC   GL226882  26.298   6.295   9.115
 1980POPC   C1A26883  26.010   6.612   8.799
 1980POPC   D2A26884  25.868   6.539   8.374
 1980POPC   C3A26885  26.009   6.797   8.008
 1980POPC   C4A26886  26.000   7.001   7.571
 1980POPC   C1B26887  26.174   6.119   8.727
 1980POPC   C2B26888  26.239   6.153   8.275
 1980POPC   C3B26889  26.365   6.420   7.946
 1980POPC   C4B26890  26.124   6.485   7.608
 1981POPC   NC326891  36.028   1.812   9.465
 1981POPC   PO426892  36.490   2.328   9.480
 1981POPC   GL126893  36.284   2.102   9.143
 1981POPC   GL226894  36.078   2.358   8.961
 1981POPC   C1A26895  36.114   1.884   8.787
 1981POPC   D2A26896  35.850   2.001   8.452
 1981POPC   C3A26897  35.975   1.830   8.054
 1981POPC   C4A26898  36.065   1.995   7.655
 1981POPC   C1B26899  36.439   2.299   8.707
 1981POPC   C2B26900  36.560   2.317   8.315
 1981POPC   C3B26901  36.247   2.317   8.003
 1981POPC   C4B26902  36.463   2.447   7.663
 1982POPC   NC326903  30.702  11.945   9.472
 1982POPC   PO426904  30.508  12.585   9.306
 1982POPC   GL126905  30.782  12.196   9.023
 1982POPC   GL226906  30.639  11.770   9.014
 1982POPC   C1A26907  30.754  12.004   8.586
 1982POPC   D2A26908  30.582  11.754   8.279
 1982POPC   C3A26909  30.478  12.043   7.960
 1982POPC   C4A26910  30.618  12.251   7.553
 1982POPC   C1B26911  31.049  11.698   8.846
 1982POPC   C2B26912  31.100  11.629   8.419
 1982POPC   C3B26913  31.014  11.781   8.002
 1982POPC   C4B26914  30.774  11.768   7.647
 1983POPC   NC326915  16.462   0.595   9.504
 1983POPC   PO426916  15.834   0.231   9.508
 1983POPC   GL126917  15.879   0.312   9.115
 1983POPC   GL226918  15.545   0.416   9.075
 1983POPC   C1A26919  16.188   0.350   8.772
 1983POPC   D2A26920  16.260   0.501   8.336
 1983POPC   C3A26921  16.127   0.222   7.983
 1983POPC   C4A26922  16.197   0.170   7.550
 1983POPC   C1B26923  15.821   0.721   8.820
 1983POPC   C2B26924  15.814   0.874   8.413
 1983POPC   C3B26925  15.866   0.656   8.041
 1983POPC   C4B26926  15.714   0.436   7.666
 1984POPC   NC326927  23.729  22.787   9.458
 1984POPC   PO426928  24.084  23.336   9.449
 1984POPC   GL126929  23.727  23.199   9.129
 1984POPC   GL226930  23.789  22.839   8.961
 1984POPC   C1A26931  23.730  23.220   8.647
 1984POPC   D2A26932  23.787  22.906   8.330
 1984POPC   C3A26933  23.732  23.085   7.927
 1984POPC   C4A26934  23.351  23.154   7.690
 1984POPC   C1B26935  24.049  22.584   8.679
 1984POPC   C2B26936  23.954  22.367   8.324
 1984POPC   C3B26937  23.800  22.532   7.957
 1984POPC   C4B26938  24.041  22.754   7.660
 1985POPC   NC326939  12.583  19.303   9.390
 1985POPC   PO426940  13.156  18.899   9.472
 1985POPC   GL126941  13.060  18.810   9.056
 1985POPC   GL226942  12.721  18.924   9.044
 1985POPC   C1A26943  13.060  18.934   8.614
 1985POPC   D2A26944  13.237  18.770   8.252
 1985POPC   C3A26945  13.272  18.970   7.870
 1985POPC   C4A26946  13.167  18.774   7.515
 1985POPC   C1B26947  12.519  18.712   8.709
 1985POPC   C2B26948  12.443  18.862   8.292
 1985POPC   C3B26949  12.753  18.866   7.952
 1985POPC   C4B26950  12.680  18.918   7.541
 1986POPC   NC326951  33.215  26.032   9.424
 1986POPC   PO426952  32.719  26.434   9.638
 1986POPC   GL126953  32.836  26.271   9.187
 1986POPC   GL226954  33.124  26.413   9.050
 1986POPC   C1A26955  32.998  25.908   8.809
 1986POPC   D2A26956  32.835  25.629   8.453
 1986POPC   C3A26957  32.853  25.772   8.027
 1986POPC   C4A26958  33.118  26.064   7.811
 1986POPC   C1B26959  32.801  26.345   8.695
 1986POPC   C2B26960  32.625  26.114   8.372
 1986POPC   C3B26961  32.639  26.265   7.958
 1986POPC   C4B26962  32.853  26.437   7.589
 1987POPC   NC326963  11.752   9.673   9.363
 1987POPC   PO426964  12.226  10.099   9.095
 1987POPC   GL126965  11.812   9.931   8.929
 1987POPC   GL226966  11.857   9.550   8.886
 1987POPC   C1A26967  11.650   9.815   8.522
 1987POPC   D2A26968  11.968   9.657   8.246
 1987POPC   C3A26969  12.258   9.909   8.075
 1987POPC   C4A26970  12.077   9.952   7.700
 1987POPC   C1B26971  12.256   9.515   8.662
 1987POPC   C2B26972  12.430   9.415   8.234
 1987POPC   C3B26973  12.205   9.457   7.822
 1987POPC   C4B26974  12.144   9.531   7.397
 1988POPC   NC326975  11.747   7.891   9.565
 1988POPC   PO426976  11.155   8.000   9.498
 1988POPC   GL126977  11.212   8.179   9.103
 1988POPC   GL226978  11.587   8.135   9.134
 1988POPC   C1A26979  11.193   8.479   8.742
 1988POPC   D2A26980  11.003   8.533   8.340
 1988POPC   C3A26981  11.256   8.437   7.974
 1988POPC   C4A26982  11.276   8.208   7.578
 1988POPC   C1B26983  11.549   8.111   8.706
 1988POPC   C2B26984  11.591   8.262   8.313
 1988POPC   C3B26985  11.537   7.990   7.967
 1988POPC   C4B26986  11.703   7.904   7.548
 1989POPC   NC326987  17.191  35.641   9.463
 1989POPC   PO426988  17.824  35.337   9.420
 1989POPC   GL126989  17.478  35.283   9.097
 1989POPC   GL226990  17.131  35.186   9.167
 1989POPC   C1A26991  17.449  35.134   8.679
 1989POPC   D2A26992  17.541  35.443   8.388
 1989POPC   C3A26993  17.649  35.282   8.030
 1989POPC   C4A26994  17.967  35.443   7.760
 1989POPC   C1B26995  17.025  35.406   8.766
 1989POPC   C2B26996  17.046  35.375   8.303
 1989POPC   C3B26997  17.188  35.592   7.924
 1989POPC   C4B26998  17.475  35.484   7.585
 1990POPC   NC326999  12.584  23.845   9.365
 1990POPC   PO427000  13.240  23.821   9.486
 1990POPC   GL127001  13.032  23.828   9.131
 1990POPC   GL227002  12.934  23.474   9.219
 1990POPC   C1A27003  12.820  23.840   8.745
 1990POPC   D2A27004  12.922  23.928   8.343
 1990POPC   C3A27005  12.577  23.787   8.150
 1990POPC   C4A27006  12.684  23.902   7.778
 1990POPC   C1B27007  13.054  23.396   8.809
 1990POPC   C2B27008  12.880  23.398   8.363
 1990POPC   C3B27009  12.984  23.466   7.891
 1990POPC   C4B27010  13.075  23.445   7.413
 1991POPC   NC327011  38.224   4.745   9.300
 1991POPC   PO427012  38.806   4.923   9.595
 1991POPC   GL127013  38.670   4.999   9.171
 1991POPC   GL227014  38.956   5.075   9.005
 1991POPC   C1A27015  38.423   5.139   8.795
 1991POPC   D2A27016  38.351   5.004   8.389
 1991POPC   C3A27017  38.273   5.290   8.049
 1991POPC   C4A27018  38.343   5.303   7.608
 1991POPC   C1B27019  38.855   5.005   8.553
 1991POPC   C2B27020  38.769   5.006   8.094
 1991POPC   C3B27021  38.592   4.856   7.682
 1991POPC   C4B27022  38.704   4.989   7.250
 1992POPC   NC327023   4.851  25.744   9.516
 1992POPC   PO427024   5.038  26.391   9.470
 1992POPC   GL127025   4.880  26.229   9.098
 1992POPC   GL227026   4.845  25.868   9.031
 1992POPC   C1A27027   5.046  26.230   8.677
 1992POPC   D2A27028   4.929  26.422   8.277
 1992POPC   C3A27029   5.204  26.286   7.924
 1992POPC   C4A27030   5.588  26.224   7.635
 1992POPC   C1B27031   4.773  25.768   8.620
 1992POPC   C2B27032   4.974  25.886   8.246
 1992POPC   C3B27033   4.967  25.780   7.820
 1992POPC   C4B27034   4.894  25.657   7.344
 1993POPC   NC327035  18.812  32.374   9.479
 1993POPC   PO427036  19.426  32.134   9.359
 1993POPC   GL127037  19.186  32.344   9.058
 1993POPC   GL227038  18.940  32.083   9.080
 1993POPC   C1A27039  19.069  32.280   8.613
 1993POPC   D2A27040  19.216  32.175   8.203
 1993POPC   C3A27041  18.942  32.317   7.904
 1993POPC   C4A27042  19.287  32.554   7.811
 1993POPC   C1B27043  19.275  31.847   8.783
 1993POPC   C2B27044  19.397  31.693   8.361
 1993POPC   C3B27045  19.317  31.751   7.939
 1993POPC   C4B27046  19.116  31.994   7.560
 1994POPC   NC327047  15.882  10.943   9.612
 1994POPC   PO427048  16.158  10.255   9.646
 1994POPC   GL127049  15.997  10.557   9.282
 1994POPC   GL227050  16.236  10.853   9.262
 1994POPC   C1A27051  15.817  10.522   8.847
 1994POPC   D2A27052  16.022  10.259   8.523
 1994POPC   C3A27053  16.202  10.397   8.106
 1994POPC   C4A27054  16.022  10.419   7.691
 1994POPC   C1B27055  16.228  10.834   8.831
 1994POPC   C2B27056  16.031  10.789   8.429
 1994POPC   C3B27057  15.846  10.776   8.026
 1994POPC   C4B27058  15.767  10.884   7.623
 1995POPC   NC327059  25.994   5.148   9.439
 1995POPC   PO427060  26.564   4.886   9.535
 1995POPC   GL127061  26.278   4.855   9.126
 1995POPC   GL227062  26.074   5.129   8.948
 1995POPC   C1A27063  26.162   4.695   8.707
 1995POPC   D2A27064  26.014   4.959   8.380
 1995POPC   C3A27065  26.273   5.135   8.130
 1995POPC   C4A27066  26.154   5.099   7.726
 1995POPC   C1B27067  25.702   4.926   8.763
 1995POPC   C2B27068  25.533   4.770   8.361
 1995POPC   C3B27069  25.762   4.817   7.932
 1995POPC   C4B27070  25.802   4.872   7.435
 1996POPC   NC327071  16.042  18.416   9.493
 1996POPC   PO427072  15.601  17.828   9.407
 1996POPC   GL127073  15.933  18.050   9.128
 1996POPC   GL227074  15.862  18.398   9.037
 1996POPC   C1A27075  16.151  18.129   8.723
 1996POPC   D2A27076  15.951  18.130   8.299
 1996POPC   C3A27077  16.082  18.444   7.997
 1996POPC   C4A27078  16.222  18.363   7.576
 1996POPC   C1B27079  15.620  18.244   8.710
 1996POPC   C2B27080  15.560  18.475   8.338
 1996POPC   C3B27081  15.650  18.802   8.095
 1996POPC   C4B27082  15.700  18.663   7.685
 1997POPC   NC327083  20.232   3.438   9.624
 1997POPC   PO427084  19.754   3.012   9.576
 1997POPC   GL127085  19.933   3.265   9.230
 1997POPC   GL227086  20.138   3.619   9.180
 1997POPC   C1A27087  19.782   3.439   8.848
 1997POPC   D2A27088  19.708   3.627   8.449
 1997POPC   C3A27089  19.638   3.429   8.072
 1997POPC   C4A27090  19.443   3.682   7.796
 1997POPC   C1B27091  20.303   3.351   8.902
 1997POPC   C2B27092  20.167   3.365   8.510
 1997POPC   C3B27093  20.158   3.547   8.137
 1997POPC   C4B27094  20.020   3.518   7.719
 1998POPC   NC327095  11.842   6.247   9.494
 1998POPC   PO427096  11.857   5.562   9.684
 1998POPC   GL127097  11.797   5.753   9.282
 1998POPC   GL227098  12.120   5.873   9.256
 1998POPC   C1A27099  11.701   5.857   8.839
 1998POPC   D2A27100  11.908   6.046   8.456
 1998POPC   C3A27101  11.900   5.906   8.037
 1998POPC   C4A27102  11.920   6.263   7.785
 1998POPC   C1B27103  12.239   5.859   8.832
 1998POPC   C2B27104  12.423   6.042   8.444
 1998POPC   C3B27105  12.434   5.872   8.031
 1998POPC   C4B27106  12.562   5.578   7.749
 1999POPC   NC327107  26.754  15.854   9.453
 1999POPC   PO427108  27.235  16.295   9.400
 1999POPC   GL127109  27.034  16.105   9.019
 1999POPC   GL227110  26.702  15.921   8.956
 1999POPC   C1A27111  27.000  16.018   8.560
 1999POPC   D2A27112  26.623  15.809   8.414
 1999POPC   C3A27113  26.458  16.040   8.066
 1999POPC   C4A27114  26.653  15.954   7.668
 1999POPC   C1B27115  27.028  15.596   8.824
 1999POPC   C2B27116  27.010  15.447   8.390
 1999POPC   C3B27117  26.988  15.672   8.002
 1999POPC   C4B27118  27.205  15.608   7.594
 2000POPC   NC327119  13.602  18.523  10.013
 2000POPC   PO427120  13.907  18.240   9.474
 2000POPC   GL127121  13.647  18.179   9.105
 2000POPC   GL227122  13.703  18.463   8.966
 2000POPC   C1A27123  13.745  18.040   8.678
 2000POPC   D2A27124  13.564  17.889   8.297
 2000POPC   C3A27125  13.758  18.026   7.965
 2000POPC   C4A27126  13.698  18.146   7.558
 2000POPC   C1B27127  13.475  18.506   8.646
 2000POPC   C2B27128  13.626  18.425   8.272
 2000POPC   C3B27129  13.455  18.460   7.886
 2000POPC   C4B27130  13.656  18.652   7.558
 2001POPC   NC327131  34.855  23.870   9.421
 2001POPC   PO427132  35.432  23.556   9.521
 2001POPC   GL127133  35.550  23.711   9.100
 2001POPC   GL227134  35.263  23.914   9.108
 2001POPC   C1A27135  35.408  23.746   8.648
 2001POPC   D2A27136  35.257  23.956   8.283
 2001POPC   C3A27137  35.445  23.832   7.887
 2001POPC   C4A27138  35.663  23.515   7.649
 2001POPC   C1B27139  35.085  23.486   8.919
 2001POPC   C2B27140  35.046  23.387   8.454
 2001POPC   C3B27141  35.027  23.542   8.000
 2001POPC   C4B27142  35.156  23.523   7.539
 2002POPC   NC327143  31.017   0.119   9.488
 2002POPC   PO427144  30.340   0.348   9.406
 2002POPC   GL127145  30.541   0.398   9.002
 2002POPC   GL227146  30.880   0.495   9.034
 2002POPC   C1A27147  30.582   0.668   8.621
 2002POPC   D2A27148  30.418   0.894   8.245
 2002POPC   C3A27149  30.442   0.592   7.925
 2002POPC   C4A27150  30.411   0.155   7.738
 2002POPC   C1B27151  31.053   0.431   8.620
 2002POPC   C2B27152  30.901   0.477   8.194
 2002POPC   C3B27153  30.890   0.389   7.750
 2002POPC   C4B27154  31.146   0.267   7.403
 2003POPC   NC327155  30.117  20.890   9.405
 2003POPC   PO427156  29.479  20.664   9.443
 2003POPC   GL127157  29.768  20.454   9.123
 2003POPC   GL227158  30.125  20.502   9.075
 2003POPC   C1A27159  29.809  20.550   8.677
 2003POPC   D2A27160  29.987  20.577   8.266
 2003POPC   C3A27161  29.718  20.641   7.925
 2003POPC   C4A27162  29.672  21.039   7.760
 2003POPC   C1B27163  30.334  20.699   8.670
 2003POPC   C2B27164  30.283  20.995   8.310
 2003POPC   C3B27165  30.179  20.888   7.890
 2003POPC   C4B27166  30.267  20.457   7.782
 2004POPC   NC327167   6.884  30.441   9.556
 2004POPC   PO427168   6.426  30.931   9.429
 2004POPC   GL127169   6.549  30.759   9.069
 2004POPC   GL227170   6.752  30.463   9.074
 2004POPC   C1A27171   6.604  30.702   8.651
 2004POPC   D2A27172   6.648  30.962   8.315
 2004POPC   C3A27173   6.449  30.811   7.962
 2004POPC   C4A27174   6.421  30.861   7.538
 2004POPC   C1B27175   6.972  30.312   8.688
 2004POPC   C2B27176   6.909  30.494   8.292
 2004POPC   C3B27177   7.085  30.466   7.915
 2004POPC   C4B27178   6.829  30.556   7.587
 2005POPC   NC327179  10.870  40.523   9.440
 2005POPC   PO427180  10.299  41.011   9.461
 2005POPC   GL127181  10.457  40.713   9.142
 2005POPC   GL227182  10.704  40.487   8.961
 2005POPC   C1A27183  10.358  40.794   8.714
 2005POPC   D2A27184  10.612  40.670   8.353
 2005POPC   C3A27185  10.427  40.612   7.960
 2005POPC   C4A27186  10.358  40.868   7.635
 2005POPC   C1B27187  10.881  40.870   8.755
 2005POPC   C2B27188  11.024  41.025   8.314
 2005POPC   C3B27189  10.807  41.012   7.920
 2005POPC   C4B27190  10.843  40.637   7.673
 2006POPC   NC327191   5.355   2.494   9.419
 2006POPC   PO427192   4.973   2.960   9.504
 2006POPC   GL127193   4.923   2.643   9.173
 2006POPC   GL227194   5.141   2.789   9.023
 2006POPC   C1A27195   5.030   2.318   8.830
 2006POPC   D2A27196   4.906   2.352   8.372
 2006POPC   C3A27197   5.016   2.412   7.937
 2006POPC   C4A27198   4.846   2.623   7.592
 2006POPC   C1B27199   5.255   2.696   8.609
 2006POPC   C2B27200   5.180   2.917   8.269
 2006POPC   C3B27201   5.201   2.888   7.880
 2006POPC   C4B27202   5.490   2.723   7.688
 2007POPC   NC327203   3.685  10.357   9.665
 2007POPC   PO427204   3.293  10.799   9.376
 2007POPC   GL127205   3.446  10.464   9.184
 2007POPC   GL227206   3.742  10.624   9.168
 2007POPC   C1A27207   3.500  10.303   8.762
 2007POPC   D2A27208   3.693  10.373   8.373
 2007POPC   C3A27209   3.481  10.324   7.969
 2007POPC   C4A27210   3.694  10.340   7.557
 2007POPC   C1B27211   3.931  10.639   8.771
 2007POPC   C2B27212   4.067  10.766   8.386
 2007POPC   C3B27213   3.904  10.645   8.002
 2007POPC   C4B27214   3.544  10.817   7.807
 2008POPC   NC327215  25.165  24.837   9.490
 2008POPC   PO427216  25.244  24.274   9.697
 2008POPC   GL127217  25.433  24.441   9.265
 2008POPC   GL227218  25.226  24.614   9.053
 2008POPC   C1A27219  25.617  24.358   8.845
 2008POPC   D2A27220  25.534  24.271   8.426
 2008POPC   C3A27221  25.519  24.562   8.113
 2008POPC   C4A27222  25.694  24.489   7.738
 2008POPC   C1B27223  25.013  24.705   8.701
 2008POPC   C2B27224  25.036  24.422   8.355
 2008POPC   C3B27225  25.029  24.508   7.946
 2008POPC   C4B27226  25.264  24.723   7.673
 2009POPC   NC327227   8.822   0.697   9.481
 2009POPC   PO427228   9.282   0.319   9.716
 2009POPC   GL127229   9.298   0.426   9.227
 2009POPC   GL227230   9.087   0.643   9.080
 2009POPC   C1A27231   9.203   0.264   8.767
 2009POPC   D2A27232   8.848   0.127   8.515
 2009POPC   C3A27233   8.957   0.187   8.102
 2009POPC   C4A27234   9.151   0.047   7.735
 2009POPC   C1B27235   8.788   0.599   8.767
 2009POPC   C2B27236   8.976   0.620   8.387
 2009POPC   C3B27237   8.872   0.680   7.979
 2009POPC   C4B27238   9.033   0.536   7.633
 2010POPC   NC327239   7.155  39.296   9.519
 2010POPC   PO427240   7.646  39.076   9.834
 2010POPC   GL127241   7.642  39.105   9.271
 2010POPC   GL227242   7.344  39.144   9.099
 2010POPC   C1A27243   7.639  39.411   8.807
 2010POPC   D2A27244   7.442  39.545   8.407
 2010POPC   C3A27245   7.575  39.346   7.991
 2010POPC   C4A27246   7.745  39.280   7.550
 2010POPC   C1B27247   7.170  39.219   8.715
 2010POPC   C2B27248   7.268  39.062   8.308
 2010POPC   C3B27249   7.255  38.946   7.877
 2010POPC   C4B27250   6.918  38.818   7.648
 2011POPC   NC327251   5.757  40.448   9.443
 2011POPC   PO427252   6.052  41.066   9.441
 2011POPC   GL127253   5.782  40.918   9.106
 2011POPC   GL227254   5.813  40.597   8.981
 2011POPC   C1A27255   5.915  40.963   8.662
 2011POPC   D2A27256   6.018  40.724   8.317
 2011POPC   C3A27257   6.155  40.909   7.941
 2011POPC   C4A27258   5.944  40.983   7.555
 2011POPC   C1B27259   5.754  40.282   8.710
 2011POPC   C2B27260   5.941  40.205   8.312
 2011POPC   C3B27261   6.024  40.406   7.907
 2011POPC   C4B27262   5.864  40.496   7.483
 2012POPC   NC327263   4.405  24.598   9.528
 2012POPC   PO427264   3.994  25.079   9.464
 2012POPC   GL127265   4.150  24.720   9.128
 2012POPC   GL227266   4.518  24.593   9.048
 2012POPC   C1A27267   4.143  24.462   8.753
 2012POPC   D2A27268   4.308  24.639   8.389
 2012POPC   C3A27269   4.212  24.416   8.067
 2012POPC   C4A27270   3.924  24.493   7.766
 2012POPC   C1B27271   4.745  24.661   8.657
 2012POPC   C2B27272   4.751  24.407   8.261
 2012POPC   C3B27273   4.654  24.465   7.811
 2012POPC   C4B27274   4.769  24.554   7.383
 2013POPC   NC327275  38.421   3.052   9.620
 2013POPC   PO427276  38.253   2.478   9.605
 2013POPC   GL127277  38.448   2.674   9.214
 2013POPC   GL227278  38.755   2.914   9.260
 2013POPC   C1A27279  38.336   2.576   8.776
 2013POPC   D2A27280  38.177   2.741   8.383
 2013POPC   C3A27281  38.336   2.623   8.013
 2013POPC   C4A27282  38.163   2.659   7.630
 2013POPC   C1B27283  38.811   2.781   8.835
 2013POPC   C2B27284  38.693   2.731   8.419
 2013POPC   C3B27285  38.844   2.534   8.061
 2013POPC   C4B27286  38.676   2.568   7.626
 2014POPC   NC327287  19.403  30.910   9.504
 2014POPC   PO427288  18.691  31.049   9.675
 2014POPC   GL127289  18.942  30.957   9.260
 2014POPC   GL227290  19.104  30.606   9.201
 2014POPC   C1A27291  19.128  30.949   8.840
 2014POPC   D2A27292  18.950  30.604   8.577
 2014POPC   C3A27293  19.012  30.572   8.128
 2014POPC   C4A27294  19.226  30.821   7.822
 2014POPC   C1B27295  19.260  30.291   8.863
 2014POPC   C2B27296  19.418  30.324   8.446
 2014POPC   C3B27297  19.396  30.182   8.037
 2014POPC   C4B27298  19.244  30.329   7.686
 2015POPC   NC327299  42.456  36.952   9.569
 2015POPC   PO427300  42.014  36.582   9.176
 2015POPC   GL127301  42.421  36.721   9.070
 2015POPC   GL227302  42.427  37.080   9.084
 2015POPC   C1A27303  42.623  36.852   8.678
 2015POPC   D2A27304  42.342  36.791   8.346
 2015POPC   C3A27305  42.399  36.826   7.927
 2015POPC   C4A27306  42.074  36.739   7.654
 2015POPC   C1B27307  42.147  37.070   8.753
 2015POPC   C2B27308  42.139  37.299   8.405
 2015POPC   C3B27309  42.051  37.228   8.015
 2015POPC   C4B27310  42.249  37.244   7.643
 2016POPC   NC327311  15.474  25.358   9.511
 2016POPC   PO427312  16.182  25.438   9.477
 2016POPC   GL127313  16.026  25.366   9.090
 2016POPC   GL227314  15.748  25.585   9.119
 2016POPC   C1A27315  16.170  25.077   8.782
 2016POPC   D2A27316  15.977  24.857   8.435
 2016POPC   C3A27317  15.968  25.137   8.088
 2016POPC   C4A27318  15.898  25.108   7.663
 2016POPC   C1B27319  15.885  25.689   8.690
 2016POPC   C2B27320  15.620  25.590   8.323
 2016POPC   C3B27321  15.607  25.496   7.882
 2016POPC   C4B27322  15.742  25.542   7.444
 2017POPC   NC327323  10.874   2.033   9.480
 2017POPC   PO427324  11.568   2.158   9.699
 2017POPC   GL127325  11.356   2.192   9.276
 2017POPC   GL227326  11.663   2.312   9.159
 2017POPC   C1A27327  11.070   2.117   8.866
 2017POPC   D2A27328  10.815   2.094   8.472
 2017POPC   C3A27329  11.013   2.183   8.071
 2017POPC   C4A27330  11.047   2.048   7.654
 2017POPC   C1B27331  11.582   2.035   8.808
 2017POPC   C2B27332  11.333   1.919   8.437
 2017POPC   C3B27333  11.415   1.835   7.997
 2017POPC   C4B27334  11.679   2.122   7.771
 2018POPC   NC327335   3.797  13.930   9.496
 2018POPC   PO427336   3.295  13.566   9.483
 2018POPC   GL127337   3.495  13.372   9.121
 2018POPC   GL227338   3.743  13.644   9.077
 2018POPC   C1A27339   3.530  13.408   8.682
 2018POPC   D2A27340   3.641  13.665   8.387
 2018POPC   C3A27341   3.551  13.460   8.072
 2018POPC   C4A27342   3.282  13.339   7.781
 2018POPC   C1B27343   3.726  13.981   8.766
 2018POPC   C2B27344   3.766  14.177   8.346
 2018POPC   C3B27345   3.807  13.912   7.975
 2018POPC   C4B27346   3.757  13.631   7.657
 2019POPC   NC327347  39.438  28.377   9.555
 2019POPC   PO427348  38.786  28.332   9.516
 2019POPC   GL127349  39.118  28.354   9.166
 2019POPC   GL227350  39.395  28.666   9.146
 2019POPC   C1A27351  39.089  28.145   8.769
 2019POPC   D2A27352  38.973  28.336   8.386
 2019POPC   C3A27353  38.938  28.139   7.976
 2019POPC   C4A27354  39.237  28.189   7.651
 2019POPC   C1B27355  39.221  28.644   8.750
 2019POPC   C2B27356  39.375  28.675   8.359
 2019POPC   C3B27357  39.156  28.598   7.993
 2019POPC   C4B27358  39.212  28.712   7.612
 2020POPC   NC327359  36.872  41.791   9.475
 2020POPC   PO427360  36.578  41.194   9.451
 2020POPC   GL127361  36.875  41.373   9.172
 2020POPC   GL227362  36.865  41.705   8.989
 2020POPC   C1A27363  37.050  41.276   8.803
 2020POPC   D2A27364  36.944  41.384   8.439
 2020POPC   C3A27365  37.174  41.213   8.120
 2020POPC   C4A27366  36.969  41.310   7.793
 2020POPC   C1B27367  37.190  41.813   8.730
 2020POPC   C2B27368  37.297  41.727   8.330
 2020POPC   C3B27369  36.935  41.730   8.063
 2020POPC   C4B27370  36.705  41.788   7.687
 2021POPC   NC327371  20.263  19.002   9.307
 2021POPC   PO427372  19.756  18.674   9.617
 2021POPC   GL127373  19.768  18.898   9.172
 2021POPC   GL227374  19.868  19.246   9.119
 2021POPC   C1A27375  19.854  18.966   8.705
 2021POPC   D2A27376  19.606  18.938   8.321
 2021POPC   C3A27377  19.814  19.085   7.983
 2021POPC   C4A27378  19.976  18.734   7.787
 2021POPC   C1B27379  19.677  19.481   8.783
 2021POPC   C2B27380  19.764  19.427   8.364
 2021POPC   C3B27381  19.591  19.555   7.950
 2021POPC   C4B27382  19.729  19.594   7.498
 2022POPC   NC327383  18.750  36.388   9.812
 2022POPC   PO427384  18.868  37.003   9.496
 2022POPC   GL127385  19.161  36.983   9.153
 2022POPC   GL227386  19.138  36.643   9.123
 2022POPC   C1A27387  19.207  37.210   8.747
 2022POPC   D2A27388  18.973  37.127   8.386
 2022POPC   C3A27389  19.120  37.290   8.021
 2022POPC   C4A27390  19.121  37.061   7.672
 2022POPC   C1B27391  18.901  36.764   8.767
 2022POPC   C2B27392  19.003  36.616   8.396
 2022POPC   C3B27393  18.899  36.739   8.007
 2022POPC   C4B27394  19.095  36.543   7.659
 2023POPC   NC327395  44.597  30.419   9.571
 2023POPC   PO427396   0.160  30.756   9.356
 2023POPC   GL127397  44.863  30.672   9.053
 2023POPC   GL227398  44.540  30.506   9.086
 2023POPC   C1A27399  44.761  30.678   8.644
 2023POPC   D2A27400  44.628  30.595   8.263
 2023POPC   C3A27401  44.779  30.800   7.886
 2023POPC   C4A27402  44.564  30.560   7.594
 2023POPC   C1B27403  44.352  30.877   8.870
 2023POPC   C2B27404  44.445  31.055   8.450
 2023POPC   C3B27405  44.300  30.911   8.043
 2023POPC   C4B27406  44.121  30.785   7.681
 2024POPC   NC327407  44.182   2.473   9.385
 2024POPC   PO427408  43.731   2.952   9.584
 2024POPC   GL127409  43.745   2.960   9.128
 2024POPC   GL227410  43.743   2.611   9.133
 2024POPC   C1A27411  43.856   2.937   8.669
 2024POPC   D2A27412  44.007   2.726   8.305
 2024POPC   C3A27413  43.850   2.888   7.918
 2024POPC   C4A27414  44.163   3.111   7.697
 2024POPC   C1B27415  43.800   2.411   8.726
 2024POPC   C2B27416  43.689   2.314   8.292
 2024POPC   C3B27417  43.904   2.368   7.904
 2024POPC   C4B27418  43.667   2.483   7.549
 2025POPC   NC327419   5.577  34.507   9.425
 2025POPC   PO427420   6.225  34.587   9.423
 2025POPC   GL127421   5.949  34.619   9.101
 2025POPC   GL227422   5.756  34.929   9.192
 2025POPC   C1A27423   5.755  34.327   8.768
 2025POPC   D2A27424   5.647  34.200   8.329
 2025POPC   C3A27425   5.549  34.403   7.941
 2025POPC   C4A27426   5.833  34.427   7.587
 2025POPC   C1B27427   5.614  34.815   8.789
 2025POPC   C2B27428   5.793  34.712   8.391
 2025POPC   C3B27429   5.710  34.892   7.983
 2025POPC   C4B27430   5.679  34.987   7.540
 2026POPC   NC327431  30.263  12.566   9.704
 2026POPC   PO427432  30.764  13.014   9.602
 2026POPC   GL127433  30.739  13.013   9.126
 2026POPC   GL227434  30.831  12.719   8.943
 2026POPC   C1A27435  30.820  13.149   8.684
 2026POPC   D2A27436  30.739  12.937   8.314
 2026POPC   C3A27437  30.966  13.113   8.004
 2026POPC   C4A27438  31.151  13.001   7.619
 2026POPC   C1B27439  30.828  12.502   8.576
 2026POPC   C2B27440  30.776  12.412   8.148
 2026POPC   C3B27441  30.959  12.567   7.767
 2026POPC   C4B27442  31.051  12.590   7.288
 2027POPC   NC327443  18.314  43.555   9.402
 2027POPC   PO427444  17.986  44.179   9.470
 2027POPC   GL127445  18.091  44.010   9.097
 2027POPC   GL227446  17.872  43.681   9.064
 2027POPC   C1A27447  18.443  44.156   8.794
 2027POPC   D2A27448  18.749  44.195   8.416
 2027POPC   C3A27449  18.573  44.118   8.001
 2027POPC   C4A27450  18.301  43.886   7.733
 2027POPC   C1B27451  18.096  43.705   8.701
 2027POPC   C2B27452  18.429  43.783   8.444
 2027POPC   C3B27453  18.513  43.599   8.107
 2027POPC   C4B27454  18.459  43.330   7.807
 2028POPC   NC327455  22.432  32.466   9.435
 2028POPC   PO427456  21.695  32.530   9.462
 2028POPC   GL127457  21.918  32.228   9.185
 2028POPC   GL227458  22.184  32.347   9.009
 2028POPC   C1A27459  21.836  32.127   8.745
 2028POPC   D2A27460  21.994  32.395   8.420
 2028POPC   C3A27461  22.096  32.181   8.046
 2028POPC   C4A27462  22.165  32.170   7.607
 2028POPC   C1B27463  22.416  32.576   8.716
 2028POPC   C2B27464  22.489  32.423   8.324
 2028POPC   C3B27465  22.476  32.565   7.920
 2028POPC   C4B27466  22.582  32.429   7.475
 2029POPC   NC327467   2.237  26.635   9.389
 2029POPC   PO427468   1.661  26.902   9.331
 2029POPC   GL127469   1.970  26.880   9.026
 2029POPC   GL227470   2.274  27.064   9.065
 2029POPC   C1A27471   2.056  26.794   8.623
 2029POPC   D2A27472   2.062  27.103   8.307
 2029POPC   C3A27473   1.743  27.002   7.999
 2029POPC   C4A27474   1.803  26.612   7.779
 2029POPC   C1B27475   2.521  27.010   8.682
 2029POPC   C2B27476   2.505  26.607   8.444
 2029POPC   C3B27477   2.194  26.622   8.113
 2029POPC   C4B27478   2.188  26.958   7.796
 2030POPC   NC327479   4.938  40.260   9.744
 2030POPC   PO427480   4.517  39.854   9.305
 2030POPC   GL127481   4.170  40.064   9.094
 2030POPC   GL227482   4.136  40.437   9.196
 2030POPC   C1A27483   4.229  39.937   8.690
 2030POPC   D2A27484   4.587  39.946   8.482
 2030POPC   C3A27485   4.461  39.985   8.095
 2030POPC   C4A27486   4.243  39.869   7.756
 2030POPC   C1B27487   4.365  40.453   8.793
 2030POPC   C2B27488   4.226  40.373   8.386
 2030POPC   C3B27489   4.063  40.342   7.977
 2030POPC   C4B27490   4.154  40.357   7.560
 2031POPC   NC327491   6.032   8.192   9.684
 2031POPC   PO427492   5.627   7.692   9.609
 2031POPC   GL127493   5.656   8.013   9.257
 2031POPC   GL227494   5.984   8.192   9.178
 2031POPC   C1A27495   5.665   8.041   8.797
 2031POPC   D2A27496   5.689   8.264   8.411
 2031POPC   C3A27497   5.610   8.125   7.996
 2031POPC   C4A27498   5.786   8.391   7.655
 2031POPC   C1B27499   6.088   8.340   8.768
 2031POPC   C2B27500   6.181   8.143   8.401
 2031POPC   C3B27501   6.094   8.307   8.046
 2031POPC   C4B27502   6.309   8.476   7.747
 2032POPC   NC327503   1.167   4.714   9.352
 2032POPC   PO427504   1.053   4.150   9.689
 2032POPC   GL127505   1.126   4.133   9.183
 2032POPC   GL227506   1.251   4.451   8.947
 2032POPC   C1A27507   1.290   4.002   8.777
 2032POPC   D2A27508   1.247   4.245   8.385
 2032POPC   C3A27509   0.992   4.157   8.016
 2032POPC   C4A27510   1.219   4.140   7.655
 2032POPC   C1B27511   1.360   4.701   8.567
 2032POPC   C2B27512   1.436   4.744   8.112
 2032POPC   C3B27513   1.532   4.571   7.712
 2032POPC   C4B27514   1.665   4.759   7.305
 2033POPC   NC327515   7.548   3.602   9.503
 2033POPC   PO427516   6.916   3.671   9.284
 2033POPC   GL127517   7.246   3.443   9.052
 2033POPC   GL227518   7.572   3.307   9.092
 2033POPC   C1A27519   7.324   3.577   8.665
 2033POPC   D2A27520   7.158   3.812   8.381
 2033POPC   C3A27521   7.089   3.551   8.062
 2033POPC   C4A27522   7.148   3.700   7.677
 2033POPC   C1B27523   7.638   3.176   8.662
 2033POPC   C2B27524   7.503   3.304   8.251
 2033POPC   C3B27525   7.552   3.721   8.040
 2033POPC   C4B27526   7.642   3.566   7.676
 2034POPC   NC327527  21.607  16.266   9.561
 2034POPC   PO427528  21.124  15.768   9.559
 2034POPC   GL127529  21.373  15.909   9.177
 2034POPC   GL227530  21.740  15.865   9.228
 2034POPC   C1A27531  21.219  15.966   8.726
 2034POPC   D2A27532  21.015  15.785   8.328
 2034POPC   C3A27533  21.272  15.888   7.982
 2034POPC   C4A27534  21.658  15.787   7.774
 2034POPC   C1B27535  21.732  16.124   8.847
 2034POPC   C2B27536  21.551  16.249   8.434
 2034POPC   C3B27537  21.764  16.225   8.045
 2034POPC   C4B27538  21.782  16.274   7.610
 2035POPC   NC327539   2.845   5.891   9.769
 2035POPC   PO427540   3.505   5.792   9.563
 2035POPC   GL127541   3.690   5.943   9.170
 2035POPC   GL227542   3.466   5.702   9.019
 2035POPC   C1A27543   3.678   6.068   8.712
 2035POPC   D2A27544   3.610   6.228   8.273
 2035POPC   C3A27545   3.695   6.014   7.861
 2035POPC   C4A27546   3.620   5.873   7.420
 2035POPC   C1B27547   3.131   5.573   8.752
 2035POPC   C2B27548   3.170   5.441   8.329
 2035POPC   C3B27549   3.352   5.619   7.954
 2035POPC   C4B27550   3.167   5.761   7.589
 2036POPC   NC327551  23.987  23.738   9.628
 2036POPC   PO427552  23.520  24.153   9.570
 2036POPC   GL127553  23.609  23.859   9.262
 2036POPC   GL227554  23.963  23.920   9.162
 2036POPC   C1A27555  23.628  23.655   8.882
 2036POPC   D2A27556  23.755  23.755   8.469
 2036POPC   C3A27557  23.555  23.635   8.081
 2036POPC   C4A27558  23.625  23.587   7.650
 2036POPC   C1B27559  23.962  24.117   8.784
 2036POPC   C2B27560  24.200  24.052   8.409
 2036POPC   C3B27561  23.953  23.996   8.043
 2036POPC   C4B27562  23.984  23.945   7.608
 2037POPC   NC327563   9.333  28.938   9.572
 2037POPC   PO427564   8.661  29.156   9.443
 2037POPC   GL127565   8.939  29.066   9.124
 2037POPC   GL227566   9.247  29.280   9.197
 2037POPC   C1A27567   8.798  29.034   8.680
 2037POPC   D2A27568   8.566  29.036   8.287
 2037POPC   C3A27569   8.815  29.199   7.950
 2037POPC   C4A27570   8.953  28.968   7.595
 2037POPC   C1B27571   9.308  29.190   8.769
 2037POPC   C2B27572   9.160  29.223   8.354
 2037POPC   C3B27573   9.303  29.015   7.989
 2037POPC   C4B27574   9.348  29.280   7.690
 2038POPC   NC327575  24.928   7.190   9.503
 2038POPC   PO427576  25.445   7.573   9.513
 2038POPC   GL127577  25.218   7.417   9.171
 2038POPC   GL227578  24.901   7.610   9.187
 2038POPC   C1A27579  25.100   7.165   8.809
 2038POPC   D2A27580  25.274   7.338   8.407
 2038POPC   C3A27581  25.184   7.170   7.982
 2038POPC   C4A27582  25.494   7.161   7.646
 2038POPC   C1B27583  25.080   7.689   8.779
 2038POPC   C2B27584  24.949   7.761   8.380
 2038POPC   C3B27585  25.208   7.696   8.042
 2038POPC   C4B27586  25.075   7.571   7.658
 2039POPC   NC327587   3.396  31.621   9.525
 2039POPC   PO427588   3.104  30.925   9.451
 2039POPC   GL127589   3.356  31.264   9.120
 2039POPC   GL227590   3.599  31.615   9.076
 2039POPC   C1A27591   3.581  31.303   8.694
 2039POPC   D2A27592   3.784  31.103   8.353
 2039POPC   C3A27593   3.518  31.288   8.061
 2039POPC   C4A27594   3.192  31.230   7.765
 2039POPC   C1B27595   3.430  31.792   8.677
 2039POPC   C2B27596   3.541  31.812   8.224
 2039POPC   C3B27597   3.401  31.730   7.796
 2039POPC   C4B27598   3.308  32.042   7.457
 2040POPC   NC327599  20.380  40.723   9.534
 2040POPC   PO427600  20.978  40.894   9.593
 2040POPC   GL127601  20.696  40.948   9.171
 2040POPC   GL227602  20.465  40.681   9.035
 2040POPC   C1A27603  20.650  41.024   8.694
 2040POPC   D2A27604  20.512  40.777   8.304
 2040POPC   C3A27605  20.720  40.885   7.905
 2040POPC   C4A27606  20.555  40.777   7.467
 2040POPC   C1B27607  20.444  40.402   8.674
 2040POPC   C2B27608  20.694  40.190   8.355
 2040POPC   C3B27609  20.785  40.380   8.005
 2040POPC   C4B27610  20.394  40.494   7.881
 2041POPC   NC327611  29.706  21.825   9.338
 2041POPC   PO427612  30.151  21.342   9.500
 2041POPC   GL127613  30.103  21.342   9.075
 2041POPC   GL227614  30.291  21.639   8.998
 2041POPC   C1A27615  29.959  21.060   8.732
 2041POPC   D2A27616  29.779  21.046   8.308
 2041POPC   C3A27617  29.976  21.365   8.063
 2041POPC   C4A27618  29.980  21.434   7.642
 2041POPC   C1B27619  29.937  21.681   8.697
 2041POPC   C2B27620  29.737  21.798   8.292
 2041POPC   C3B27621  29.954  21.897   7.936
 2041POPC   C4B27622  30.311  21.794   7.730
 2042POPC   NC327623  26.837  17.359   9.495
 2042POPC   PO427624  26.276  17.530   9.254
 2042POPC   GL127625  26.689  17.414   9.018
 2042POPC   GL227626  26.985  17.653   9.082
 2042POPC   C1A27627  26.922  17.419   8.618
 2042POPC   D2A27628  26.763  17.671   8.287
 2042POPC   C3A27629  26.654  17.369   7.995
 2042POPC   C4A27630  26.533  17.385   7.541
 2042POPC   C1B27631  27.063  17.924   8.710
 2042POPC   C2B27632  27.264  17.811   8.311
 2042POPC   C3B27633  27.163  17.445   8.048
 2042POPC   C4B27634  27.000  17.534   7.657
 2043POPC   NC327635   1.183  44.930  10.060
 2043POPC   PO427636   1.220  44.516   9.566
 2043POPC   GL127637   1.132  44.609   9.139
 2043POPC   GL227638   0.786  44.533   9.167
 2043POPC   C1A27639   1.297  44.604   8.674
 2043POPC   D2A27640   1.345  44.533   8.222
 2043POPC   C3A27641   1.272  44.841   7.898
 2043POPC   C4A27642   1.221  44.843   7.462
 2043POPC   C1B27643   0.799  44.364   8.769
 2043POPC   C2B27644   0.816  44.498   8.359
 2043POPC   C3B27645   0.896  44.483   7.916
 2043POPC   C4B27646   0.766  44.188   7.617
 2044POPC   NC327647  26.129   4.165   9.564
 2044POPC   PO427648  25.825   4.721   9.372
 2044POPC   GL127649  26.038   4.386   9.103
 2044POPC   GL227650  26.294   4.094   9.108
 2044POPC   C1A27651  25.936   4.202   8.720
 2044POPC   D2A27652  25.901   4.402   8.352
 2044POPC   C3A27653  26.000   4.190   7.994
 2044POPC   C4A27654  25.944   4.445   7.660
 2044POPC   C1B27655  26.452   4.219   8.739
 2044POPC   C2B27656  26.410   4.407   8.364
 2044POPC   C3B27657  26.268   4.634   8.035
 2044POPC   C4B27658  26.427   4.356   7.751
 2045POPC   NC327659  27.927  44.174   9.700
 2045POPC   PO427660  27.585  43.610   9.714
 2045POPC   GL127661  27.483  43.661   9.229
 2045POPC   GL227662  27.750  43.906   9.148
 2045POPC   C1A27663  27.263  43.729   8.816
 2045POPC   D2A27664  27.254  43.587   8.372
 2045POPC   C3A27665  27.383  43.751   7.980
 2045POPC   C4A27666  27.780  43.776   7.749
 2045POPC   C1B27667  27.647  44.110   8.743
 2045POPC   C2B27668  27.726  44.041   8.282
 2045POPC   C3B27669  27.774  44.252   7.878
 2045POPC   C4B27670  27.438  44.440   7.631
 2046POPC   NC327671   4.708  12.453   9.276
 2046POPC   PO427672   4.427  12.020   9.696
 2046POPC   GL127673   4.098  12.081   9.303
 2046POPC   GL227674   4.186  12.425   9.104
 2046POPC   C1A27675   3.942  12.056   8.874
 2046POPC   D2A27676   4.062  12.224   8.493
 2046POPC   C3A27677   4.110  11.987   8.155
 2046POPC   C4A27678   4.256  12.048   7.734
 2046POPC   C1B27679   4.444  12.474   8.703
 2046POPC   C2B27680   4.704  12.397   8.394
 2046POPC   C3B27681   4.614  12.260   8.027
 2046POPC   C4B27682   4.652  12.364   7.617
 2047POPC   NC327683   6.460   7.556   9.551
 2047POPC   PO427684   7.124   7.466   9.500
 2047POPC   GL127685   6.872   7.546   9.177
 2047POPC   GL227686   6.635   7.308   9.144
 2047POPC   C1A27687   6.728   7.593   8.745
 2047POPC   D2A27688   6.444   7.667   8.400
 2047POPC   C3A27689   6.677   7.502   8.051
 2047POPC   C4A27690   6.745   7.642   7.644
 2047POPC   C1B27691   6.352   7.196   8.827
 2047POPC   C2B27692   6.138   7.267   8.459
 2047POPC   C3B27693   6.179   7.310   8.030
 2047POPC   C4B27694   6.252   7.564   7.692
 2048POPC   NC327695  33.219  31.840   9.492
 2048POPC   PO427696  32.840  32.374   9.755
 2048POPC   GL127697  32.837  32.271   9.310
 2048POPC   GL227698  33.188  32.271   9.218
 2048POPC   C1A27699  32.847  32.432   8.869
 2048POPC   D2A27700  32.730  32.223   8.486
 2048POPC   C3A27701  32.927  32.408   8.112
 2048POPC   C4A27702  32.840  32.248   7.713
 2048POPC   C1B27703  33.161  32.015   8.841
 2048POPC   C2B27704  33.201  32.042   8.409
 2048POPC   C3B27705  33.264  31.964   7.994
 2048POPC   C4B27706  33.360  32.283   7.753
 2049POPC   NC327707  38.069   5.905   9.350
 2049POPC   PO427708  37.527   5.667   9.622
 2049POPC   GL127709  37.545   5.771   9.198
 2049POPC   GL227710  37.612   6.141   9.188
 2049POPC   C1A27711  37.691   5.501   8.842
 2049POPC   D2A27712  37.984   5.447   8.496
 2049POPC   C3A27713  37.773   5.484   8.111
 2049POPC   C4A27714  37.930   5.588   7.745
 2049POPC   C1B27715  37.729   6.001   8.766
 2049POPC   C2B27716  37.531   5.822   8.402
 2049POPC   C3B27717  37.554   5.920   7.953
 2049POPC   C4B27718  37.364   5.702   7.646
 2050POPC   NC327719  12.309  10.511   9.292
 2050POPC   PO427720  11.863  10.092   9.527
 2050POPC   GL127721  11.854  10.428   9.065
 2050POPC   GL227722  11.573  10.658   8.988
 2050POPC   C1A27723  11.974  10.428   8.609
 2050POPC   D2A27724  11.846  10.194   8.229
 2050POPC   C3A27725  12.040  10.419   7.913
 2050POPC   C4A27726  12.339  10.717   7.767
 2050POPC   C1B27727  11.837  10.912   8.721
 2050POPC   C2B27728  12.070  10.912   8.338
 2050POPC   C3B27729  11.886  10.917   7.981
 2050POPC   C4B27730  11.837  10.798   7.585
 2051POPC   NC327731  32.102  11.488   9.424
 2051POPC   PO427732  32.636  11.084   9.351
 2051POPC   GL127733  32.388  11.322   9.024
 2051POPC   GL227734  32.000  11.284   8.984
 2051POPC   C1A27735  32.355  11.363   8.569
 2051POPC   D2A27736  32.613  11.388   8.184
 2051POPC   C3A27737  32.531  11.071   7.855
 2051POPC   C4A27738  32.445  11.032   7.399
 2051POPC   C1B27739  32.019  11.700   8.816
 2051POPC   C2B27740  32.007  11.723   8.405
 2051POPC   C3B27741  32.064  11.412   8.117
 2051POPC   C4B27742  32.094  11.327   7.687
 2052POPC   NC327743  17.479  43.644   9.504
 2052POPC   PO427744  17.204  44.306   9.613
 2052POPC   GL127745  17.523  44.023   9.218
 2052POPC   GL227746  17.264  43.837   9.062
 2052POPC   C1A27747  17.681  44.054   8.780
 2052POPC   D2A27748  17.532  44.025   8.363
 2052POPC   C3A27749  17.718  43.763   8.038
 2052POPC   C4A27750  17.532  44.044   7.761
 2052POPC   C1B27751  17.387  43.626   8.687
 2052POPC   C2B27752  17.148  43.600   8.280
 2052POPC   C3B27753  17.224  43.640   7.837
 2052POPC   C4B27754  17.532  43.435   7.584
 2053POPC   NC327755  36.333  15.659   9.530
 2053POPC   PO427756  36.432  14.949   9.449
 2053POPC   GL127757  36.255  15.143   9.093
 2053POPC   GL227758  36.310  15.483   9.052
 2053POPC   C1A27759  36.202  15.060   8.643
 2053POPC   D2A27760  36.024  15.179   8.248
 2053POPC   C3A27761  36.053  14.947   7.896
 2053POPC   C4A27762  36.397  14.881   7.611
 2053POPC   C1B27763  36.239  15.624   8.659
 2053POPC   C2B27764  36.437  15.481   8.339
 2053POPC   C3B27765  36.445  15.298   7.970
 2053POPC   C4B27766  36.471  15.465   7.595
 2054POPC   NC327767   7.885   4.208   9.331
 2054POPC   PO427768   8.459   4.326   9.676
 2054POPC   GL127769   8.470   4.342   9.180
 2054POPC   GL227770   8.297   4.055   9.096
 2054POPC   C1A27771   8.224   4.438   8.739
 2054POPC   D2A27772   8.346   4.522   8.292
 2054POPC   C3A27773   8.187   4.384   7.863
 2054POPC   C4A27774   7.962   4.005   7.608
 2054POPC   C1B27775   8.188   3.945   8.691
 2054POPC   C2B27776   8.045   4.088   8.308
 2054POPC   C3B27777   8.260   3.906   7.999
 2054POPC   C4B27778   8.485   3.910   7.649
 2055POPC   NC327779   7.671  27.293   9.455
 2055POPC   PO427780   7.266  27.859   9.456
 2055POPC   GL127781   7.226  27.523   9.167
 2055POPC   GL227782   7.552  27.619   9.072
 2055POPC   C1A27783   7.191  27.394   8.732
 2055POPC   D2A27784   7.181  27.179   8.340
 2055POPC   C3A27785   7.116  27.389   7.995
 2055POPC   C4A27786   7.220  27.796   7.848
 2055POPC   C1B27787   7.695  27.422   8.719
 2055POPC   C2B27788   7.564  27.505   8.289
 2055POPC   C3B27789   7.587  27.424   7.849
 2055POPC   C4B27790   7.397  27.258   7.497
 2056POPC   NC327791  14.646  17.223   9.453
 2056POPC   PO427792  14.064  17.585   9.362
 2056POPC   GL127793  14.277  17.368   9.081
 2056POPC   GL227794  14.520  17.582   9.065
 2056POPC   C1A27795  14.413  17.383   8.615
 2056POPC   D2A27796  14.575  17.489   8.197
 2056POPC   C3A27797  14.327  17.484   7.785
 2056POPC   C4A27798  14.466  17.386   7.360
 2056POPC   C1B27799  14.777  17.769   8.748
 2056POPC   C2B27800  14.764  18.007   8.333
 2056POPC   C3B27801  14.530  17.934   7.955
 2056POPC   C4B27802  14.663  17.825   7.554
 2057POPC   NC327803  26.608  30.942   9.677
 2057POPC   PO427804  27.089  30.523   9.509
 2057POPC   GL127805  26.842  30.537   9.159
 2057POPC   GL227806  26.843  30.891   9.201
 2057POPC   C1A27807  26.947  30.564   8.725
 2057POPC   D2A27808  27.064  30.315   8.366
 2057POPC   C3A27809  27.007  30.475   7.990
 2057POPC   C4A27810  26.609  30.468   7.795
 2057POPC   C1B27811  26.594  31.056   8.878
 2057POPC   C2B27812  26.684  31.175   8.467
 2057POPC   C3B27813  26.743  30.911   8.111
 2057POPC   C4B27814  26.586  30.980   7.721
 2058POPC   NC327815  22.491   5.202   9.608
 2058POPC   PO427816  23.131   4.893   9.357
 2058POPC   GL127817  22.894   5.254   9.201
 2058POPC   GL227818  22.983   5.128   8.889
 2058POPC   C1A27819  22.744   5.549   8.834
 2058POPC   D2A27820  23.005   5.582   8.437
 2058POPC   C3A27821  23.035   5.359   8.050
 2058POPC   C4A27822  22.866   5.437   7.652
 2058POPC   C1B27823  23.368   5.105   8.648
 2058POPC   C2B27824  23.293   4.935   8.261
 2058POPC   C3B27825  22.833   4.909   8.165
 2058POPC   C4B27826  22.793   4.946   7.751
 2059POPC   NC327827  39.894  15.179   9.526
 2059POPC   PO427828  40.354  15.526   9.273
 2059POPC   GL127829  40.178  15.153   9.075
 2059POPC   GL227830  39.793  15.057   9.058
 2059POPC   C1A27831  40.089  15.115   8.649
 2059POPC   D2A27832  40.167  14.960   8.268
 2059POPC   C3A27833  40.260  15.340   8.063
 2059POPC   C4A27834  40.313  15.481   7.643
 2059POPC   C1B27835  39.560  15.199   8.705
 2059POPC   C2B27836  39.757  15.316   8.295
 2059POPC   C3B27837  39.824  15.197   7.849
 2059POPC   C4B27838  39.756  14.970   7.441
 2060POPC   NC327839  34.331   9.244   9.393
 2060POPC   PO427840  34.881   8.873   9.416
 2060POPC   GL127841  34.708   9.070   9.079
 2060POPC   GL227842  34.405   8.852   9.069
 2060POPC   C1A27843  34.722   9.004   8.649
 2060POPC   D2A27844  34.726   8.657   8.380
 2060POPC   C3A27845  34.737   8.784   8.006
 2060POPC   C4A27846  34.750   9.049   7.707
 2060POPC   C1B27847  34.223   9.091   8.722
 2060POPC   C2B27848  34.328   8.985   8.290
 2060POPC   C3B27849  34.286   8.927   7.819
 2060POPC   C4B27850  34.163   8.969   7.397
 2061POPC   NC327851  41.104   4.443   9.597
 2061POPC   PO427852  40.540   4.110   9.413
 2061POPC   GL127853  40.948   4.120   9.211
 2061POPC   GL227854  41.005   3.819   9.157
 2061POPC   C1A27855  41.018   4.210   8.781
 2061POPC   D2A27856  40.731   4.194   8.417
 2061POPC   C3A27857  40.788   4.408   8.012
 2061POPC   C4A27858  41.033   4.684   7.764
 2061POPC   C1B27859  40.663   3.842   8.800
 2061POPC   C2B27860  40.478   3.738   8.373
 2061POPC   C3B27861  40.569   3.953   7.993
 2061POPC   C4B27862  40.407   4.040   7.607
 2062POPC   NC327863  42.411   4.951   9.611
 2062POPC   PO427864  41.956   5.330   9.499
 2062POPC   GL127865  42.184   5.081   9.168
 2062POPC   GL227866  42.554   5.120   9.161
 2062POPC   C1A27867  42.282   5.107   8.729
 2062POPC   D2A27868  42.137   4.938   8.376
 2062POPC   C3A27869  42.359   4.913   8.002
 2062POPC   C4A27870  42.231   4.998   7.586
 2062POPC   C1B27871  42.631   5.447   8.875
 2062POPC   C2B27872  42.769   5.446   8.440
 2062POPC   C3B27873  42.637   5.345   8.054
 2062POPC   C4B27874  42.556   5.386   7.639
 2063POPC   NC327875  21.770  29.173   9.402
 2063POPC   PO427876  21.123  28.982   9.491
 2063POPC   GL127877  21.374  29.001   9.106
 2063POPC   GL227878  21.511  29.306   8.944
 2063POPC   C1A27879  21.530  28.852   8.704
 2063POPC   D2A27880  21.572  29.137   8.335
 2063POPC   C3A27881  21.463  28.981   7.928
 2063POPC   C4A27882  21.626  29.264   7.614
 2063POPC   C1B27883  21.172  29.500   8.727
 2063POPC   C2B27884  21.226  29.589   8.318
 2063POPC   C3B27885  21.297  29.490   7.926
 2063POPC   C4B27886  21.148  29.407   7.526
 2064POPC   NC327887  28.266  18.636   9.379
 2064POPC   PO427888  27.970  17.977   9.505
 2064POPC   GL127889  28.234  18.187   9.139
 2064POPC   GL227890  28.456  18.455   8.973
 2064POPC   C1A27891  28.308  18.069   8.725
 2064POPC   D2A27892  28.275  18.315   8.373
 2064POPC   C3A27893  28.365  18.129   8.000
 2064POPC   C4A27894  28.225  18.304   7.613
 2064POPC   C1B27895  28.690  18.507   8.638
 2064POPC   C2B27896  28.737  18.457   8.218
 2064POPC   C3B27897  28.639  18.513   7.836
 2064POPC   C4B27898  28.858  18.444   7.472
 2065POPC   NC327899  37.426   1.540   9.373
 2065POPC   PO427900  37.949   1.031   9.478
 2065POPC   GL127901  37.744   1.206   9.134
 2065POPC   GL227902  37.940   1.501   9.053
 2065POPC   C1A27903  37.506   1.251   8.730
 2065POPC   D2A27904  37.284   1.150   8.326
 2065POPC   C3A27905  37.331   1.432   7.979
 2065POPC   C4A27906  37.561   1.467   7.584
 2065POPC   C1B27907  37.897   1.553   8.648
 2065POPC   C2B27908  37.742   1.407   8.296
 2065POPC   C3B27909  37.901   1.390   7.946
 2065POPC   C4B27910  38.024   1.694   7.686
 2066POPC   NC327911   7.390  32.488   9.873
 2066POPC   PO427912   7.037  32.098   9.406
 2066POPC   GL127913   7.391  32.105   9.075
 2066POPC   GL227914   7.604  32.422   9.006
 2066POPC   C1A27915   7.250  32.231   8.699
 2066POPC   D2A27916   7.234  32.459   8.373
 2066POPC   C3A27917   7.076  32.188   8.125
 2066POPC   C4A27918   7.289  32.213   7.789
 2066POPC   C1B27919   7.749  32.262   8.625
 2066POPC   C2B27920   7.612  32.105   8.207
 2066POPC   C3B27921   7.775  32.062   7.782
 2066POPC   C4B27922   8.011  32.331   7.487
 2067POPC   NC327923  39.011   7.713   9.444
 2067POPC   PO427924  39.362   7.196   9.540
 2067POPC   GL127925  39.208   7.307   9.158
 2067POPC   GL227926  39.218   7.636   8.998
 2067POPC   C1A27927  39.290   7.201   8.753
 2067POPC   D2A27928  39.425   7.503   8.481
 2067POPC   C3A27929  39.292   7.276   8.153
 2067POPC   C4A27930  39.194   7.139   7.734
 2067POPC   C1B27931  39.041   7.933   8.772
 2067POPC   C2B27932  39.191   8.060   8.386
 2067POPC   C3B27933  39.009   7.946   8.016
 2067POPC   C4B27934  39.173   7.629   7.805
 2068POPC   NC327935  30.721  28.066   9.828
 2068POPC   PO427936  30.724  28.609   9.574
 2068POPC   GL127937  30.716  28.480   9.104
 2068POPC   GL227938  30.481  28.301   8.967
 2068POPC   C1A27939  30.824  28.593   8.667
 2068POPC   D2A27940  30.695  28.408   8.280
 2068POPC   C3A27941  30.688  28.623   7.911
 2068POPC   C4A27942  30.315  28.776   7.803
 2068POPC   C1B27943  30.750  28.085   8.671
 2068POPC   C2B27944  30.743  27.888   8.284
 2068POPC   C3B27945  30.723  28.070   7.891
 2068POPC   C4B27946  30.419  28.268   7.657
 2069POPC   NC327947   0.035  26.772   9.481
 2069POPC   PO427948   0.681  26.742   9.451
 2069POPC   GL127949   0.384  26.751   9.100
 2069POPC   GL227950   0.314  27.084   8.999
 2069POPC   C1A27951   0.084  26.705   8.739
 2069POPC   D2A27952   0.039  27.013   8.424
 2069POPC   C3A27953   0.208  26.965   8.035
 2069POPC   C4A27954   0.133  26.720   7.672
 2069POPC   C1B27955   0.778  27.070   8.901
 2069POPC   C2B27956   0.938  27.178   8.509
 2069POPC   C3B27957   0.754  26.992   8.166
 2069POPC   C4B27958   0.621  26.785   7.796
 2070POPC   NC327959  32.785  20.429   9.559
 2070POPC   PO427960  33.240  20.898   9.576
 2070POPC   GL127961  32.902  20.756   9.206
 2070POPC   GL227962  33.085  20.689   8.911
 2070POPC   C1A27963  32.630  20.590   8.801
 2070POPC   D2A27964  32.833  20.405   8.441
 2070POPC   C3A27965  32.666  20.560   8.072
 2070POPC   C4A27966  32.777  20.590   7.672
 2070POPC   C1B27967  33.178  20.844   8.536
 2070POPC   C2B27968  33.270  20.607   8.197
 2070POPC   C3B27969  33.260  20.670   7.773
 2070POPC   C4B27970  33.291  20.840   7.400
 2071POPC   NC327971  39.936  44.438   9.538
 2071POPC   PO427972  40.437  44.862   9.625
 2071POPC   GL127973  40.167  44.786   9.252
 2071POPC   GL227974  39.818  44.797   9.195
 2071POPC   C1A27975  40.199  44.585   8.838
 2071POPC   D2A27976  40.082  44.646   8.421
 2071POPC   C3A27977  40.309  44.515   8.069
 2071POPC   C4A27978  40.131  44.723   7.750
 2071POPC   C1B27979  39.698  44.455   8.884
 2071POPC   C2B27980  39.702  44.277   8.455
 2071POPC   C3B27981  39.804  44.377   8.020
 2071POPC   C4B27982  39.552  44.637   7.722
 2072POPC   NC327983  18.007  23.798   9.524
 2072POPC   PO427984  18.466  23.308   9.377
 2072POPC   GL127985  18.129  23.431   9.049
 2072POPC   GL227986  17.997  23.780   9.012
 2072POPC   C1A27987  18.139  23.540   8.583
 2072POPC   D2A27988  18.443  23.656   8.229
 2072POPC   C3A27989  18.325  23.750   7.809
 2072POPC   C4A27990  18.246  23.651   7.366
 2072POPC   C1B27991  17.940  24.058   8.664
 2072POPC   C2B27992  18.010  23.967   8.252
 2072POPC   C3B27993  17.861  24.026   7.865
 2072POPC   C4B27994  18.106  24.130   7.494
 2073POPC   NC327995  10.258  43.585   9.692
 2073POPC   PO427996   9.832  44.103   9.531
 2073POPC   GL127997   9.770  43.923   9.105
 2073POPC   GL227998   9.460  43.730   9.005
 2073POPC   C1A27999   9.837  43.983   8.668
 2073POPC   D2A28000  10.179  43.933   8.407
 2073POPC   C3A28001  10.122  44.021   8.023
 2073POPC   C4A28002   9.758  43.930   7.881
 2073POPC   C1B28003   9.345  44.084   8.750
 2073POPC   C2B28004   9.465  44.036   8.300
 2073POPC   C3B28005   9.345  43.671   8.098
 2073POPC   C4B28006   9.353  43.458   7.719
 2074POPC   NC328007   7.078  19.350   9.468
 2074POPC   PO428008   6.625  18.771   9.440
 2074POPC   GL128009   6.550  18.939   9.097
 2074POPC   GL228010   6.707  19.234   9.119
 2074POPC   C1A28011   6.762  18.908   8.734
 2074POPC   D2A28012   6.594  18.837   8.397
 2074POPC   C3A28013   6.833  18.888   8.080
 2074POPC   C4A28014   6.572  19.089   7.818
 2074POPC   C1B28015   6.472  19.319   8.723
 2074POPC   C2B28016   6.595  19.359   8.306
 2074POPC   C3B28017   6.874  19.432   7.995
 2074POPC   C4B28018   7.082  19.378   7.596
 2075POPC   NC328019   1.265  43.290   9.655
 2075POPC   PO428020   0.910  42.891   9.309
 2075POPC   GL128021   1.049  43.243   9.172
 2075POPC   GL228022   1.265  43.022   8.986
 2075POPC   C1A28023   0.926  43.361   8.781
 2075POPC   D2A28024   1.175  43.281   8.427
 2075POPC   C3A28025   0.934  43.245   8.119
 2075POPC   C4A28026   0.913  43.374   7.736
 2075POPC   C1B28027   0.917  42.845   8.687
 2075POPC   C2B28028   0.913  42.744   8.287
 2075POPC   C3B28029   1.267  42.845   8.080
 2075POPC   C4B28030   1.324  43.102   7.791
 2076POPC   NC328031   8.660  24.350   9.299
 2076POPC   PO428032   9.237  24.691   9.506
 2076POPC   GL128033   9.165  24.492   9.135
 2076POPC   GL228034   8.899  24.632   8.964
 2076POPC   C1A28035   9.257  24.320   8.747
 2076POPC   D2A28036   8.977  24.484   8.437
 2076POPC   C3A28037   8.884  24.226   8.095
 2076POPC   C4A28038   9.051  24.283   7.704
 2076POPC   C1B28039   8.529  24.531   8.699
 2076POPC   C2B28040   8.541  24.811   8.396
 2076POPC   C3B28041   8.710  24.712   8.058
 2076POPC   C4B28042   8.595  24.509   7.729
 2077POPC   NC328043  14.324  17.979   9.383
 2077POPC   PO428044  14.804  18.425   9.492
 2077POPC   GL128045  14.527  18.398   9.148
 2077POPC   GL228046  14.187  18.512   9.137
 2077POPC   C1A28047  14.588  18.268   8.752
 2077POPC   D2A28048  14.537  18.536   8.424
 2077POPC   C3A28049  14.557  18.427   8.022
 2077POPC   C4A28050  14.478  18.326   7.629
 2077POPC   C1B28051  14.099  18.445   8.676
 2077POPC   C2B28052  14.121  18.268   8.257
 2077POPC   C3B28053  14.026  18.436   7.840
 2077POPC   C4B28054  14.068  18.442   7.348
 2078POPC   NC328055  31.080  28.250   9.405
 2078POPC   PO428056  31.723  28.357   9.410
 2078POPC   GL128057  31.524  28.434   8.989
 2078POPC   GL228058  31.167  28.266   8.907
 2078POPC   C1A28059  31.384  28.605   8.582
 2078POPC   D2A28060  31.090  28.724   8.238
 2078POPC   C3A28061  31.155  28.388   7.958
 2078POPC   C4A28062  31.585  28.419   8.101
 2078POPC   C1B28063  31.476  28.000   8.721
 2078POPC   C2B28064  31.815  28.100   8.462
 2078POPC   C3B28065  31.908  28.017   8.062
 2078POPC   C4B28066  31.561  27.989   7.823
 2079POPC   NC328067  11.546  21.578   9.449
 2079POPC   PO428068  10.960  21.302   9.741
 2079POPC   GL128069  11.088  21.279   9.294
 2079POPC   GL228070  11.390  21.074   9.320
 2079POPC   C1A28071  11.056  21.348   8.818
 2079POPC   D2A28072  11.079  21.610   8.405
 2079POPC   C3A28073  10.945  21.526   7.957
 2079POPC   C4A28074  11.056  21.191   7.686
 2079POPC   C1B28075  11.570  21.167   8.896
 2079POPC   C2B28076  11.488  21.046   8.485
 2079POPC   C3B28077  11.349  21.233   8.110
 2079POPC   C4B28078  11.497  21.568   7.852
 2080POPC   NC328079   0.738   5.212   9.535
 2080POPC   PO428080   0.224   5.637   9.505
 2080POPC   GL128081   0.382   5.315   9.167
 2080POPC   GL228082   0.317   4.942   9.226
 2080POPC   C1A28083   0.553   5.237   8.739
 2080POPC   D2A28084   0.794   5.168   8.368
 2080POPC   C3A28085   0.538   5.301   8.042
 2080POPC   C4A28086   0.539   5.227   7.606
 2080POPC   C1B28087   0.368   4.731   8.813
 2080POPC   C2B28088   0.414   4.819   8.345
 2080POPC   C3B28089   0.556   4.791   7.888
 2080POPC   C4B28090   0.331   4.699   7.460
 2081POPC   NC328091   8.035  39.230   9.657
 2081POPC   PO428092   7.519  39.581   9.398
 2081POPC   GL128093   7.987  39.449   9.181
 2081POPC   GL228094   8.298  39.221   9.205
 2081POPC   C1A28095   8.052  39.137   8.790
 2081POPC   D2A28096   7.855  39.202   8.386
 2081POPC   C3A28097   8.100  39.227   8.018
 2081POPC   C4A28098   8.525  39.108   7.923
 2081POPC   C1B28099   8.449  39.476   8.853
 2081POPC   C2B28100   8.444  39.399   8.392
 2081POPC   C3B28101   8.409  39.630   7.999
 2081POPC   C4B28102   8.244  39.479   7.576
 2082POPC   NC328103  33.563  20.528   9.625
 2082POPC   PO428104  33.979  21.039   9.792
 2082POPC   GL128105  33.772  20.853   9.298
 2082POPC   GL228106  33.488  20.738   9.179
 2082POPC   C1A28107  33.843  20.577   8.887
 2082POPC   D2A28108  33.605  20.394   8.537
 2082POPC   C3A28109  33.886  20.358   8.165
 2082POPC   C4A28110  33.990  20.477   7.726
 2082POPC   C1B28111  33.578  21.016   8.825
 2082POPC   C2B28112  33.713  20.890   8.428
 2082POPC   C3B28113  33.684  20.832   7.999
 2082POPC   C4B28114  33.475  21.156   7.760
 2083POPC   NC328115  22.325   9.418   9.565
 2083POPC   PO428116  21.835   9.888   9.702
 2083POPC   GL128117  22.038   9.872   9.268
 2083POPC   GL228118  22.069   9.537   9.105
 2083POPC   C1A28119  22.061   9.928   8.797
 2083POPC   D2A28120  22.010   9.696   8.407
 2083POPC   C3A28121  22.227   9.913   8.047
 2083POPC   C4A28122  22.202   9.955   7.597
 2083POPC   C1B28123  22.318   9.383   8.711
 2083POPC   C2B28124  22.287   9.306   8.237
 2083POPC   C3B28125  22.224   9.448   7.805
 2083POPC   C4B28126  21.905   9.531   7.489
 2084POPC   NC328127   4.601   1.843   9.503
 2084POPC   PO428128   4.188   2.365   9.673
 2084POPC   GL128129   4.334   2.209   9.245
 2084POPC   GL228130   4.236   1.840   9.153
 2084POPC   C1A28131   4.348   2.178   8.780
 2084POPC   D2A28132   4.374   1.918   8.397
 2084POPC   C3A28133   4.195   2.121   8.018
 2084POPC   C4A28134   4.459   2.353   7.742
 2084POPC   C1B28135   4.379   1.552   8.805
 2084POPC   C2B28136   4.256   1.415   8.395
 2084POPC   C3B28137   4.166   1.569   7.959
 2084POPC   C4B28138   4.006   1.503   7.521
 2085POPC   NC328139  38.344  28.089   9.443
 2085POPC   PO428140  38.168  28.764   9.477
 2085POPC   GL128141  38.485  28.593   9.131
 2085POPC   GL228142  38.627  28.224   9.041
 2085POPC   C1A28143  38.679  28.602   8.726
 2085POPC   D2A28144  38.457  28.433   8.379
 2085POPC   C3A28145  38.318  28.715   8.083
 2085POPC   C4A28146  38.579  28.793   7.734
 2085POPC   C1B28147  38.222  28.294   8.832
 2085POPC   C2B28148  38.068  28.016   8.572
 2085POPC   C3B28149  38.160  28.027   8.149
 2085POPC   C4B28150  38.444  28.249   7.881
 2086POPC   NC328151  27.833  11.353   9.613
 2086POPC   PO428152  28.540  11.289   9.478
 2086POPC   GL128153  28.316  11.292   9.100
 2086POPC   GL228154  28.155  11.578   9.156
 2086POPC   C1A28155  28.432  11.179   8.683
 2086POPC   D2A28156  28.519  10.915   8.323
 2086POPC   C3A28157  28.286  10.917   7.943
 2086POPC   C4A28158  28.390  11.003   7.521
 2086POPC   C1B28159  28.050  11.512   8.680
 2086POPC   C2B28160  28.275  11.416   8.243
 2086POPC   C3B28161  28.204  11.434   7.771
 2086POPC   C4B28162  28.224  11.503   7.311
 2087POPC   NC328163  15.562   8.370   9.379
 2087POPC   PO428164  15.028   8.105   9.752
 2087POPC   GL128165  15.057   8.214   9.261
 2087POPC   GL228166  14.816   8.466   9.180
 2087POPC   C1A28167  15.017   8.056   8.761
 2087POPC   D2A28168  15.110   7.922   8.276
 2087POPC   C3A28169  15.115   7.957   7.800
 2087POPC   C4A28170  15.295   7.756   7.437
 2087POPC   C1B28171  15.071   8.561   8.808
 2087POPC   C2B28172  15.131   8.427   8.383
 2087POPC   C3B28173  15.129   8.602   7.975
 2087POPC   C4B28174  15.241   8.420   7.596
 2088POPC   NC328175   1.406   3.886   9.519
 2088POPC   PO428176   0.871   3.599   9.323
 2088POPC   GL128177   1.169   3.602   9.063
 2088POPC   GL228178   1.418   3.444   9.185
 2088POPC   C1A28179   1.100   3.557   8.654
 2088POPC   D2A28180   0.943   3.842   8.411
 2088POPC   C3A28181   1.283   3.761   8.124
 2088POPC   C4A28182   1.209   3.626   7.723
 2088POPC   C1B28183   1.458   3.238   8.802
 2088POPC   C2B28184   1.583   3.394   8.389
 2088POPC   C3B28185   1.614   3.376   7.933
 2088POPC   C4B28186   1.584   3.410   7.457
 2089POPC   NC328187  14.823  30.999   9.436
 2089POPC   PO428188  14.122  30.850   9.441
 2089POPC   GL128189  14.447  30.751   9.156
 2089POPC   GL228190  14.314  31.049   8.997
 2089POPC   C1A28191  14.394  30.596   8.725
 2089POPC   D2A28192  14.140  30.801   8.396
 2089POPC   C3A28193  14.302  30.767   7.979
 2089POPC   C4A28194  14.497  30.554   7.652
 2089POPC   C1B28195  14.577  31.092   8.671
 2089POPC   C2B28196  14.551  31.136   8.242
 2089POPC   C3B28197  14.699  31.113   7.798
 2089POPC   C4B28198  14.736  31.008   7.357
 2090POPC   NC328199  18.575   6.240   9.836
 2090POPC   PO428200  18.031   6.657   9.710
 2090POPC   GL128201  18.348   6.706   9.270
 2090POPC   GL228202  18.548   6.396   9.124
 2090POPC   C1A28203  18.372   6.801   8.840
 2090POPC   D2A28204  18.392   6.568   8.458
 2090POPC   C3A28205  18.058   6.701   8.175
 2090POPC   C4A28206  18.235   6.757   7.806
 2090POPC   C1B28207  18.221   6.271   8.822
 2090POPC   C2B28208  18.042   6.204   8.397
 2090POPC   C3B28209  18.289   6.267   8.044
 2090POPC   C4B28210  18.426   6.151   7.671
 2091POPC   NC328211  36.927  25.004   9.441
 2091POPC   PO428212  36.459  25.514   9.454
 2091POPC   GL128213  36.697  25.347   9.116
 2091POPC   GL228214  36.615  24.990   9.047
 2091POPC   C1A28215  36.906  25.481   8.747
 2091POPC   D2A28216  36.846  25.777   8.445
 2091POPC   C3A28217  37.081  25.569   8.139
 2091POPC   C4A28218  37.108  25.631   7.700
 2091POPC   C1B28219  36.873  24.996   8.694
 2091POPC   C2B28220  36.766  24.882   8.278
 2091POPC   C3B28221  36.864  25.100   7.909
 2091POPC   C4B28222  36.781  24.850   7.522
 2092POPC   NC328223   2.499  34.387   9.492
 2092POPC   PO428224   1.879  34.672   9.550
 2092POPC   GL128225   2.089  34.450   9.232
 2092POPC   GL228226   2.185  34.794   9.161
 2092POPC   C1A28227   2.114  34.469   8.783
 2092POPC   D2A28228   1.888  34.662   8.446
 2092POPC   C3A28229   1.838  34.334   8.151
 2092POPC   C4A28230   1.887  34.460   7.738
 2092POPC   C1B28231   2.438  34.878   8.825
 2092POPC   C2B28232   2.386  34.804   8.422
 2092POPC   C3B28233   2.288  34.739   8.019
 2092POPC   C4B28234   2.062  34.958   7.731
 2093POPC   NC328235  20.262  16.447   9.448
 2093POPC   PO428236  20.971  16.551   9.360
 2093POPC   GL128237  20.819  16.746   9.047
 2093POPC   GL228238  20.536  16.872   9.245
 2093POPC   C1A28239  20.537  16.703   8.732
 2093POPC   D2A28240  20.504  16.553   8.327
 2093POPC   C3A28241  20.814  16.749   8.074
 2093POPC   C4A28242  21.009  16.703   7.697
 2093POPC   C1B28243  20.338  17.116   8.939
 2093POPC   C2B28244  20.398  17.164   8.503
 2093POPC   C3B28245  20.266  17.081   8.097
 2093POPC   C4B28246  20.447  17.058   7.703
 2094POPC   NC328247   1.338  41.671   9.513
 2094POPC   PO428248   1.441  41.047   9.226
 2094POPC   GL128249   1.429  41.439   9.027
 2094POPC   GL228250   1.151  41.691   9.027
 2094POPC   C1A28251   1.291  41.361   8.625
 2094POPC   D2A28252   1.249  41.467   8.223
 2094POPC   C3A28253   1.486  41.255   7.975
 2094POPC   C4A28254   1.583  41.600   7.758
 2094POPC   C1B28255   1.104  41.838   8.589
 2094POPC   C2B28256   0.896  41.826   8.198
 2094POPC   C3B28257   0.938  41.828   7.750
 2094POPC   C4B28258   0.754  41.850   7.304
 2095POPC   NC328259   6.031  24.686   9.464
 2095POPC   PO428260   5.622  24.163   9.605
 2095POPC   GL128261   5.660  24.415   9.204
 2095POPC   GL228262   6.040  24.371   9.078
 2095POPC   C1A28263   5.739  24.688   8.822
 2095POPC   D2A28264   6.004  24.636   8.450
 2095POPC   C3A28265   5.802  24.725   8.055
 2095POPC   C4A28266   5.557  24.641   7.721
 2095POPC   C1B28267   6.245  24.164   8.735
 2095POPC   C2B28268   6.403  24.240   8.325
 2095POPC   C3B28269   6.208  24.429   7.983
 2095POPC   C4B28270   6.015  24.479   7.571
 2096POPC   NC328271  30.367  40.875   9.646
 2096POPC   PO428272  29.763  40.610   9.615
 2096POPC   GL128273  29.857  40.872   9.221
 2096POPC   GL228274  30.224  40.961   9.167
 2096POPC   C1A28275  29.883  41.151   8.835
 2096POPC   D2A28276  29.677  41.217   8.424
 2096POPC   C3A28277  29.976  41.287   8.074
 2096POPC   C4A28278  29.881  41.183   7.641
 2096POPC   C1B28279  30.237  40.750   8.756
 2096POPC   C2B28280  30.166  40.866   8.316
 2096POPC   C3B28281  30.127  40.791   7.868
 2096POPC   C4B28282  29.789  40.698   7.561
 2097POPC   NC328283  39.384  40.210   9.580
 2097POPC   PO428284  39.305  39.527   9.550
 2097POPC   GL128285  39.254  39.862   9.195
 2097POPC   GL228286  39.166  40.233   9.135
 2097POPC   C1A28287  39.261  39.902   8.735
 2097POPC   D2A28288  39.097  40.104   8.347
 2097POPC   C3A28289  39.368  39.960   8.038
 2097POPC   C4A28290  39.427  39.765   7.639
 2097POPC   C1B28291  38.903  40.258   8.810
 2097POPC   C2B28292  38.773  40.485   8.487
 2097POPC   C3B28293  38.814  40.466   8.049
 2097POPC   C4B28294  38.997  40.160   7.751
 2098POPC   NC328295  23.231   8.523   9.458
 2098POPC   PO428296  23.600   9.048   9.418
 2098POPC   GL128297  23.499   8.791   9.090
 2098POPC   GL228298  23.804   8.948   8.969
 2098POPC   C1A28299  23.431   8.850   8.647
 2098POPC   D2A28300  23.828   8.901   8.438
 2098POPC   C3A28301  23.812   8.794   8.034
 2098POPC   C4A28302  23.587   9.037   7.728
 2098POPC   C1B28303  24.019   9.277   8.746
 2098POPC   C2B28304  24.018   9.482   8.360
 2098POPC   C3B28305  23.994   9.279   7.975
 2098POPC   C4B28306  24.149   9.035   7.644
 2099POPC   NC328307   4.489  38.702   9.913
 2099POPC   PO428308   4.093  38.214   9.792
 2099POPC   GL128309   4.261  38.435   9.407
 2099POPC   GL228310   4.326  38.163   9.184
 2099POPC   C1A28311   4.325  38.603   8.944
 2099POPC   D2A28312   4.309  38.603   8.457
 2099POPC   C3A28313   4.536  38.607   8.040
 2099POPC   C4A28314   4.555  38.613   7.576
 2099POPC   C1B28315   4.289  38.081   8.764
 2099POPC   C2B28316   4.129  38.112   8.379
 2099POPC   C3B28317   4.092  38.346   8.030
 2099POPC   C4B28318   4.314  38.205   7.730
 2100POPC   NC328319  11.846  23.188   9.455
 2100POPC   PO428320  12.293  22.766   9.709
 2100POPC   GL128321  12.253  22.955   9.259
 2100POPC   GL228322  12.485  22.805   9.048
 2100POPC   C1A28323  12.023  22.949   8.842
 2100POPC   D2A28324  11.993  22.777   8.412
 2100POPC   C3A28325  11.929  23.070   8.085
 2100POPC   C4A28326  12.118  23.166   7.705
 2100POPC   C1B28327  12.480  23.200   8.800
 2100POPC   C2B28328  12.332  23.323   8.383
 2100POPC   C3B28329  12.526  23.278   7.983
 2100POPC   C4B28330  12.601  23.291   7.532
 2101POPC   NC328331  23.349   7.010   9.261
 2101POPC   PO428332  23.919   7.364   9.398
 2101POPC   GL128333  23.688   7.354   9.059
 2101POPC   GL228334  23.834   7.020   9.029
 2101POPC   C1A28335  23.705   7.580   8.678
 2101POPC   D2A28336  23.875   7.780   8.337
 2101POPC   C3A28337  23.723   7.615   7.973
 2101POPC   C4A28338  23.871   7.796   7.636
 2101POPC   C1B28339  24.078   7.223   8.749
 2101POPC   C2B28340  23.916   7.252   8.323
 2101POPC   C3B28341  24.100   7.276   7.924
 2101POPC   C4B28342  23.921   7.295   7.509
 2102POPC   NC328343  25.070  42.324   9.397
 2102POPC   PO428344  25.716  42.084   9.369
 2102POPC   GL128345  25.502  42.388   9.093
 2102POPC   GL228346  25.243  42.665   9.050
 2102POPC   C1A28347  25.337  42.323   8.668
 2102POPC   D2A28348  25.140  42.408   8.280
 2102POPC   C3A28349  25.291  42.148   7.931
 2102POPC   C4A28350  25.128  42.165   7.505
 2102POPC   C1B28351  25.615  42.748   8.748
 2102POPC   C2B28352  25.671  42.549   8.322
 2102POPC   C3B28353  25.461  42.630   7.927
 2102POPC   C4B28354  25.551  42.471   7.514
 2103POPC   NC328355  33.616  11.947   9.384
 2103POPC   PO428356  34.155  12.205   9.642
 2103POPC   GL128357  34.079  12.081   9.191
 2103POPC   GL228358  34.347  11.964   8.938
 2103POPC   C1A28359  33.842  11.996   8.782
 2103POPC   D2A28360  33.618  11.996   8.392
 2103POPC   C3A28361  33.808  11.875   8.012
 2103POPC   C4A28362  33.550  11.841   7.636
 2103POPC   C1B28363  34.181  12.389   8.820
 2103POPC   C2B28364  33.908  12.490   8.480
 2103POPC   C3B28365  34.028  12.358   8.055
 2103POPC   C4B28366  33.909  12.210   7.655
 2104POPC   NC328367  29.369  40.868   9.595
 2104POPC   PO428368  28.945  40.467   9.559
 2104POPC   GL128369  28.992  40.721   9.196
 2104POPC   GL228370  29.321  40.847   9.100
 2104POPC   C1A28371  28.922  40.804   8.763
 2104POPC   D2A28372  29.162  40.773   8.385
 2104POPC   C3A28373  28.909  40.796   8.020
 2104POPC   C4A28374  28.887  40.592   7.621
 2104POPC   C1B28375  29.523  40.823   8.752
 2104POPC   C2B28376  29.682  40.689   8.396
 2104POPC   C3B28377  29.640  40.886   8.023
 2104POPC   C4B28378  29.325  40.898   7.744
 2105POPC   NC328379  23.103  26.623   9.605
 2105POPC   PO428380  22.705  27.140   9.403
 2105POPC   GL128381  22.943  26.794   9.132
 2105POPC   GL228382  23.300  26.666   9.121
 2105POPC   C1A28383  22.965  26.709   8.683
 2105POPC   D2A28384  22.986  27.004   8.361
 2105POPC   C3A28385  22.914  26.848   7.962
 2105POPC   C4A28386  22.801  27.041   7.600
 2105POPC   C1B28387  23.463  26.622   8.691
 2105POPC   C2B28388  23.291  26.583   8.262
 2105POPC   C3B28389  23.398  26.717   7.863
 2105POPC   C4B28390  23.242  26.786   7.450
 2106POPC   NC328391   7.177   8.895   9.439
 2106POPC   PO428392   7.656   9.386   9.492
 2106POPC   GL128393   7.511   9.138   9.136
 2106POPC   GL228394   7.591   8.783   9.126
 2106POPC   C1A28395   7.229   8.984   8.784
 2106POPC   D2A28396   7.240   8.967   8.334
 2106POPC   C3A28397   7.576   8.976   8.012
 2106POPC   C4A28398   7.424   8.917   7.567
 2106POPC   C1B28399   7.723   8.896   8.737
 2106POPC   C2B28400   7.683   8.654   8.410
 2106POPC   C3B28401   7.941   8.389   8.208
 2106POPC   C4B28402   7.824   8.506   7.805
 2107POPC   NC328403  25.656   1.855   9.507
 2107POPC   PO428404  25.043   2.344   9.546
 2107POPC   GL128405  25.172   2.322   9.007
 2107POPC   GL228406  25.366   1.991   8.906
 2107POPC   C1A28407  25.077   2.251   8.599
 2107POPC   D2A28408  25.168   1.898   8.351
 2107POPC   C3A28409  25.300   2.110   7.974
 2107POPC   C4A28410  25.054   2.094   7.592
 2107POPC   C1B28411  25.544   1.646   8.682
 2107POPC   C2B28412  25.564   1.446   8.275
 2107POPC   C3B28413  25.331   1.615   7.925
 2107POPC   C4B28414  25.490   1.848   7.566
 2108POPC   NC328415  17.205  27.009   9.884
 2108POPC   PO428416  16.622  26.948   9.646
 2108POPC   GL128417  16.732  26.760   9.287
 2108POPC   GL228418  17.064  26.887   9.255
 2108POPC   C1A28419  16.599  26.851   8.856
 2108POPC   D2A28420  16.660  26.709   8.442
 2108POPC   C3A28421  16.545  26.959   8.128
 2108POPC   C4A28422  16.609  26.855   7.704
 2108POPC   C1B28423  17.009  26.577   8.894
 2108POPC   C2B28424  17.153  26.599   8.458
 2108POPC   C3B28425  17.015  26.700   8.016
 2108POPC   C4B28426  16.946  26.527   7.556
 2109POPC   NC328427   1.938  42.023   9.578
 2109POPC   PO428428   1.797  41.371   9.609
 2109POPC   GL128429   1.916  41.417   9.193
 2109POPC   GL228430   2.144  41.691   9.182
 2109POPC   C1A28431   1.906  41.297   8.752
 2109POPC   D2A28432   1.766  41.497   8.361
 2109POPC   C3A28433   2.005  41.410   7.990
 2109POPC   C4A28434   2.017  41.430   7.544
 2109POPC   C1B28435   1.918  41.806   8.787
 2109POPC   C2B28436   1.914  42.006   8.357
 2109POPC   C3B28437   1.945  41.918   7.926
 2109POPC   C4B28438   2.253  41.892   7.598
 2110POPC   NC328439  42.643  15.211   9.465
 2110POPC   PO428440  43.190  14.941   9.255
 2110POPC   GL128441  43.133  15.302   9.010
 2110POPC   GL228442  42.860  15.522   9.053
 2110POPC   C1A28443  43.295  15.301   8.604
 2110POPC   D2A28444  43.438  15.163   8.216
 2110POPC   C3A28445  43.172  15.298   7.836
 2110POPC   C4A28446  43.139  15.453   7.413
 2110POPC   C1B28447  42.767  15.412   8.646
 2110POPC   C2B28448  42.884  15.321   8.261
 2110POPC   C3B28449  42.676  15.424   7.902
 2110POPC   C4B28450  42.800  15.775   7.657
 2111POPC   NC328451   4.012   9.810   9.476
 2111POPC   PO428452   3.337   9.626   9.510
 2111POPC   GL128453   3.465   9.485   9.073
 2111POPC   GL228454   3.837   9.457   9.080
 2111POPC   C1A28455   3.414   9.562   8.622
 2111POPC   D2A28456   3.382   9.916   8.322
 2111POPC   C3A28457   3.475   9.745   7.923
 2111POPC   C4A28458   3.412   9.686   7.486
 2111POPC   C1B28459   3.764   9.855   8.818
 2111POPC   C2B28460   3.903   9.908   8.386
 2111POPC   C3B28461   3.929  10.077   7.969
 2111POPC   C4B28462   3.894   9.794   7.616
 2112POPC   NC328463  29.808  22.350   9.567
 2112POPC   PO428464  30.204  22.001   9.384
 2112POPC   GL128465  30.099  22.110   8.978
 2112POPC   GL228466  29.798  22.248   9.028
 2112POPC   C1A28467  30.069  22.188   8.527
 2112POPC   D2A28468  29.885  22.527   8.292
 2112POPC   C3A28469  30.023  22.549   7.846
 2112POPC   C4A28470  30.147  22.247   7.552
 2112POPC   C1B28471  29.577  22.083   8.690
 2112POPC   C2B28472  29.451  22.250   8.303
 2112POPC   C3B28473  29.595  22.264   7.898
 2112POPC   C4B28474  29.626  21.965   7.561
 2113POPC   NC328475   1.771  40.324   9.195
 2113POPC   PO428476   1.808  39.662   9.426
 2113POPC   GL128477   2.123  39.800   9.139
 2113POPC   GL228478   1.823  39.880   8.944
 2113POPC   C1A28479   2.235  39.772   8.696
 2113POPC   D2A28480   1.898  39.733   8.416
 2113POPC   C3A28481   1.835  40.042   8.123
 2113POPC   C4A28482   1.831  39.910   7.720
 2113POPC   C1B28483   1.944  40.200   8.612
 2113POPC   C2B28484   2.103  40.529   8.373
 2113POPC   C3B28485   2.112  40.467   7.947
 2113POPC   C4B28486   1.724  40.415   7.732
 2114POPC   NC328487   8.091  23.556   9.520
 2114POPC   PO428488   8.388  24.070   9.546
 2114POPC   GL128489   8.263  23.920   9.124
 2114POPC   GL228490   7.896  23.864   9.083
 2114POPC   C1A28491   8.207  24.059   8.670
 2114POPC   D2A28492   7.915  23.991   8.290
 2114POPC   C3A28493   8.146  23.803   7.962
 2114POPC   C4A28494   8.534  23.985   7.797
 2114POPC   C1B28495   7.926  23.637   8.669
 2114POPC   C2B28496   8.152  23.413   8.349
 2114POPC   C3B28497   8.080  23.252   7.928
 2114POPC   C4B28498   8.075  23.501   7.536
 2115POPC   NC328499  38.569  25.483   9.507
 2115POPC   PO428500  38.380  24.882   9.597
 2115POPC   GL128501  38.568  25.082   9.171
 2115POPC   GL228502  38.750  25.430   9.044
 2115POPC   C1A28503  38.607  25.069   8.702
 2115POPC   D2A28504  38.261  25.157   8.450
 2115POPC   C3A28505  38.335  25.011   8.047
 2115POPC   C4A28506  38.328  25.185   7.657
 2115POPC   C1B28507  38.544  25.578   8.687
 2115POPC   C2B28508  38.639  25.436   8.283
 2115POPC   C3B28509  38.430  25.535   7.992
 2115POPC   C4B28510  38.476  25.876   7.762
 2116POPC   NC328511   3.562  19.562   9.535
 2116POPC   PO428512   2.951  19.672   9.441
 2116POPC   GL128513   3.292  19.468   9.102
 2116POPC   GL228514   3.714  19.413   9.084
 2116POPC   C1A28515   3.456  19.539   8.664
 2116POPC   D2A28516   3.271  19.519   8.276
 2116POPC   C3A28517   3.393  19.759   7.931
 2116POPC   C4A28518   3.587  19.565   7.607
 2116POPC   C1B28519   3.923  19.706   8.757
 2116POPC   C2B28520   3.798  19.752   8.301
 2116POPC   C3B28521   3.914  19.868   7.876
 2116POPC   C4B28522   3.722  20.056   7.511
 2117POPC   NC328523  40.402  31.243   9.416
 2117POPC   PO428524  41.020  31.424   9.429
 2117POPC   GL128525  40.671  31.598   9.165
 2117POPC   GL228526  40.950  31.683   8.964
 2117POPC   C1A28527  40.502  31.633   8.725
 2117POPC   D2A28528  40.857  31.609   8.426
 2117POPC   C3A28529  40.785  31.708   7.980
 2117POPC   C4A28530  40.549  31.424   7.688
 2117POPC   C1B28531  40.842  31.231   8.826
 2117POPC   C2B28532  40.995  31.068   8.443
 2117POPC   C3B28533  41.137  31.319   8.098
 2117POPC   C4B28534  41.041  31.244   7.681
 2118POPC   NC328535   8.097   0.669   9.451
 2118POPC   PO428536   8.518   0.312   9.503
 2118POPC   GL128537   8.396   0.336   9.074
 2118POPC   GL228538   8.332   0.679   9.013
 2118POPC   C1A28539   8.367   0.246   8.609
 2118POPC   D2A28540   8.500   0.463   8.252
 2118POPC   C3A28541   8.549   0.312   7.831
 2118POPC   C4A28542   8.310   0.191   7.513
 2118POPC   C1B28543   7.954   0.445   8.819
 2118POPC   C2B28544   7.992   0.531   8.375
 2118POPC   C3B28545   8.081   0.479   7.941
 2118POPC   C4B28546   8.058   0.624   7.511
 2119POPC   NC328547  15.057   1.099  10.056
 2119POPC   PO428548  15.366   1.340   9.544
 2119POPC   GL128549  15.162   1.152   9.235
 2119POPC   GL228550  15.286   0.838   9.238
 2119POPC   C1A28551  15.046   1.310   8.837
 2119POPC   D2A28552  14.904   1.131   8.454
 2119POPC   C3A28553  15.065   1.415   8.121
 2119POPC   C4A28554  15.071   1.380   7.714
 2119POPC   C1B28555  15.088   0.793   8.837
 2119POPC   C2B28556  15.239   0.752   8.424
 2119POPC   C3B28557  15.116   0.875   8.007
 2119POPC   C4B28558  15.282   0.800   7.596
 2120POPC   NC328559  13.988  28.869   9.320
 2120POPC   PO428560  14.574  28.963   9.506
 2120POPC   GL128561  14.466  29.110   9.105
 2120POPC   GL228562  14.648  29.423   9.042
 2120POPC   C1A28563  14.320  29.175   8.680
 2120POPC   D2A28564  14.267  29.421   8.303
 2120POPC   C3A28565  14.263  29.119   8.017
 2120POPC   C4A28566  14.459  28.996   7.669
 2120POPC   C1B28567  14.838  29.156   8.742
 2120POPC   C2B28568  14.771  29.184   8.335
 2120POPC   C3B28569  14.724  29.321   7.960
 2120POPC   C4B28570  14.400  29.556   7.778
 2121POPC   NC328571  14.418  13.175   9.504
 2121POPC   PO428572  14.182  13.804   9.353
 2121POPC   GL128573  14.471  13.644   9.078
 2121POPC   GL228574  14.399  13.285   9.022
 2121POPC   C1A28575  14.409  13.613   8.644
 2121POPC   D2A28576  14.221  13.569   8.289
 2121POPC   C3A28577  14.473  13.609   7.978
 2121POPC   C4A28578  14.343  13.900   7.729
 2121POPC   C1B28579  14.245  13.066   8.658
 2121POPC   C2B28580  14.109  13.061   8.241
 2121POPC   C3B28581  14.147  13.232   7.843
 2121POPC   C4B28582  14.474  13.376   7.534
 2122POPC   NC328583  12.064   8.839   9.576
 2122POPC   PO428584  12.464   9.327   9.312
 2122POPC   GL128585  12.163   9.036   9.103
 2122POPC   GL228586  11.808   8.830   9.145
 2122POPC   C1A28587  11.968   9.059   8.733
 2122POPC   D2A28588  11.737   9.271   8.448
 2122POPC   C3A28589  11.849   9.186   8.041
 2122POPC   C4A28590  11.915   9.046   7.599
 2122POPC   C1B28591  11.738   8.588   8.787
 2122POPC   C2B28592  11.723   8.758   8.372
 2122POPC   C3B28593  11.894   8.661   8.008
 2122POPC   C4B28594  11.734   8.390   7.736
 2123POPC   NC328595  31.783  14.459   9.424
 2123POPC   PO428596  32.536  14.340   9.405
 2123POPC   GL128597  32.255  14.413   9.128
 2123POPC   GL228598  32.069  14.118   9.145
 2123POPC   C1A28599  32.440  14.427   8.744
 2123POPC   D2A28600  32.436  14.726   8.436
 2123POPC   C3A28601  32.503  14.533   8.080
 2123POPC   C4A28602  32.288  14.543   7.719
 2123POPC   C1B28603  31.927  14.261   8.742
 2123POPC   C2B28604  32.164  14.249   8.362
 2123POPC   C3B28605  32.190  14.113   7.957
 2123POPC   C4B28606  32.403  13.794   7.760
 2124POPC   NC328607  37.397  22.181   9.641
 2124POPC   PO428608  36.708  22.385   9.602
 2124POPC   GL128609  36.947  22.222   9.277
 2124POPC   GL228610  36.713  22.032   9.146
 2124POPC   C1A28611  37.005  22.316   8.827
 2124POPC   D2A28612  37.028  22.577   8.459
 2124POPC   C3A28613  36.974  22.368   8.055
 2124POPC   C4A28614  37.150  22.076   7.733
 2124POPC   C1B28615  36.495  22.220   8.831
 2124POPC   C2B28616  36.658  22.159   8.442
 2124POPC   C3B28617  36.501  22.170   8.025
 2124POPC   C4B28618  36.658  22.208   7.637
 2125POPC   NC328619  12.502  16.896   9.484
 2125POPC   PO428620  11.855  16.762   9.580
 2125POPC   GL128621  11.859  16.611   9.174
 2125POPC   GL228622  12.217  16.602   9.147
 2125POPC   C1A28623  11.877  16.597   8.731
 2125POPC   D2A28624  11.798  16.810   8.358
 2125POPC   C3A28625  11.916  16.597   7.968
 2125POPC   C4A28626  12.165  16.537   7.637
 2125POPC   C1B28627  12.395  16.851   8.813
 2125POPC   C2B28628  12.316  17.009   8.406
 2125POPC   C3B28629  12.433  16.864   8.010
 2125POPC   C4B28630  12.389  16.998   7.596
 2126POPC   NC328631  42.949   9.942   9.474
 2126POPC   PO428632  42.807   9.272   9.553
 2126POPC   GL128633  42.995   9.529   9.170
 2126POPC   GL228634  42.851   9.824   8.999
 2126POPC   C1A28635  43.285   9.680   8.812
 2126POPC   D2A28636  43.063   9.796   8.441
 2126POPC   C3A28637  43.250   9.746   8.053
 2126POPC   C4A28638  43.121   9.569   7.689
 2126POPC   C1B28639  42.662  10.112   8.701
 2126POPC   C2B28640  42.878  10.255   8.321
 2126POPC   C3B28641  42.869  10.046   7.928
 2126POPC   C4B28642  43.120  10.053   7.571
 2127POPC   NC328643  40.852  37.340   9.326
 2127POPC   PO428644  40.540  37.812   9.577
 2127POPC   GL128645  40.559  37.761   9.149
 2127POPC   GL228646  40.456  37.444   9.035
 2127POPC   C1A28647  40.657  37.827   8.715
 2127POPC   D2A28648  40.537  37.649   8.329
 2127POPC   C3A28649  40.654  37.878   7.972
 2127POPC   C4A28650  40.743  37.772   7.543
 2127POPC   C1B28651  40.338  37.251   8.622
 2127POPC   C2B28652  40.354  37.200   8.147
 2127POPC   C3B28653  40.345  37.516   7.793
 2127POPC   C4B28654  40.431  37.449   7.320
 2128POPC   NC328655  13.141  40.739   9.260
 2128POPC   PO428656  13.688  40.862   9.647
 2128POPC   GL128657  13.627  40.943   9.219
 2128POPC   GL228658  13.621  40.575   9.114
 2128POPC   C1A28659  13.697  40.936   8.767
 2128POPC   D2A28660  13.723  40.692   8.392
 2128POPC   C3A28661  13.656  40.887   8.011
 2128POPC   C4A28662  13.880  41.060   7.742
 2128POPC   C1B28663  13.356  40.509   8.716
 2128POPC   C2B28664  13.210  40.645   8.308
 2128POPC   C3B28665  13.421  40.450   8.032
 2128POPC   C4B28666  13.439  40.486   7.614
 2129POPC   NC328667   2.205  16.271   9.958
 2129POPC   PO428668   1.950  16.058   9.394
 2129POPC   GL128669   2.039  15.906   9.046
 2129POPC   GL228670   2.011  15.536   9.075
 2129POPC   C1A28671   2.145  16.145   8.704
 2129POPC   D2A28672   2.417  16.332   8.421
 2129POPC   C3A28673   2.095  16.360   8.151
 2129POPC   C4A28674   1.987  16.150   7.794
 2129POPC   C1B28675   2.053  15.644   8.610
 2129POPC   C2B28676   2.126  15.833   8.223
 2129POPC   C3B28677   1.935  15.658   7.850
 2129POPC   C4B28678   1.489  15.798   7.820
 2130POPC   NC328679   5.163  10.950   9.443
 2130POPC   PO428680   5.276  11.618   9.706
 2130POPC   GL128681   5.271  11.455   9.232
 2130POPC   GL228682   4.930  11.311   9.126
 2130POPC   C1A28683   5.203  11.428   8.733
 2130POPC   D2A28684   4.817  11.411   8.429
 2130POPC   C3A28685   5.027  11.488   8.057
 2130POPC   C4A28686   5.486  11.526   7.942
 2130POPC   C1B28687   4.902  11.000   8.742
 2130POPC   C2B28688   5.069  10.962   8.291
 2130POPC   C3B28689   5.044  11.030   7.823
 2130POPC   C4B28690   4.777  11.184   7.449
 2131POPC   NC328691  13.589  31.255   9.837
 2131POPC   PO428692  13.934  31.711   9.523
 2131POPC   GL128693  13.659  31.578   9.168
 2131POPC   GL228694  13.566  31.195   9.155
 2131POPC   C1A28695  13.743  31.574   8.729
 2131POPC   D2A28696  13.485  31.624   8.336
 2131POPC   C3A28697  13.750  31.600   7.960
 2131POPC   C4A28698  13.935  31.467   7.547
 2131POPC   C1B28699  13.359  31.216   8.758
 2131POPC   C2B28700  13.225  31.065   8.350
 2131POPC   C3B28701  13.409  31.222   7.991
 2131POPC   C4B28702  13.435  31.413   7.576
 2132POPC   NC328703   2.548  31.101   9.430
 2132POPC   PO428704   2.919  31.703   9.476
 2132POPC   GL128705   2.770  31.660   9.070
 2132POPC   GL228706   2.467  31.462   9.078
 2132POPC   C1A28707   3.007  31.443   8.757
 2132POPC   D2A28708   3.158  31.476   8.357
 2132POPC   C3A28709   2.961  31.735   8.078
 2132POPC   C4A28710   2.901  31.654   7.645
 2132POPC   C1B28711   2.512  31.362   8.666
 2132POPC   C2B28712   2.735  31.168   8.359
 2132POPC   C3B28713   2.755  31.262   7.972
 2132POPC   C4B28714   2.527  31.312   7.627
 2133POPC   NC328715  44.750  37.363   9.587
 2133POPC   PO428716  44.131  37.724   9.495
 2133POPC   GL128717  44.467  37.589   9.198
 2133POPC   GL228718  44.827  37.692   9.192
 2133POPC   C1A28719  44.480  37.701   8.754
 2133POPC   D2A28720  44.648  37.702   8.361
 2133POPC   C3A28721  44.442  37.693   7.965
 2133POPC   C4A28722  44.682  37.987   7.812
 2133POPC   C1B28723  44.845  37.366   8.861
 2133POPC   C2B28724  44.983  37.312   8.404
 2133POPC   C3B28725  44.916  37.489   7.968
 2133POPC   C4B28726   0.190  37.596   7.560
 2134POPC   NC328727  32.480  13.868   9.443
 2134POPC   PO428728  32.187  13.262   9.537
 2134POPC   GL128729  32.448  13.416   9.187
 2134POPC   GL228730  32.195  13.621   9.096
 2134POPC   C1A28731  32.552  13.510   8.736
 2134POPC   D2A28732  32.515  13.228   8.397
 2134POPC   C3A28733  32.501  13.135   7.956
 2134POPC   C4A28734  32.611  13.376   7.567
 2134POPC   C1B28735  32.110  13.772   8.683
 2134POPC   C2B28736  32.230  13.698   8.260
 2134POPC   C3B28737  31.932  13.678   7.914
 2134POPC   C4B28738  31.970  13.699   7.480
 2135POPC   NC328739   0.775  35.098   9.218
 2135POPC   PO428740   1.293  35.366   9.539
 2135POPC   GL128741   1.321  35.279   9.129
 2135POPC   GL228742   1.278  34.942   9.149
 2135POPC   C1A28743   1.132  35.254   8.712
 2135POPC   D2A28744   1.015  35.027   8.368
 2135POPC   C3A28745   1.126  35.370   8.125
 2135POPC   C4A28746   1.274  35.379   7.736
 2135POPC   C1B28747   1.562  35.002   8.757
 2135POPC   C2B28748   1.553  35.049   8.301
 2135POPC   C3B28749   1.301  34.914   7.929
 2135POPC   C4B28750   0.860  35.048   7.832
 2136POPC   NC328751   3.385  22.960   9.992
 2136POPC   PO428752   3.592  22.631   9.486
 2136POPC   GL128753   3.590  23.054   9.254
 2136POPC   GL228754   3.900  23.080   9.077
 2136POPC   C1A28755   3.462  23.266   8.838
 2136POPC   D2A28756   3.643  23.244   8.405
 2136POPC   C3A28757   3.426  23.314   8.003
 2136POPC   C4A28758   3.663  23.256   7.616
 2136POPC   C1B28759   3.700  22.821   8.779
 2136POPC   C2B28760   3.703  22.733   8.359
 2136POPC   C3B28761   3.635  22.850   7.914
 2136POPC   C4B28762   3.727  22.783   7.452
 2137POPC   NC328763   5.106   0.243   9.619
 2137POPC   PO428764   5.410   0.822   9.535
 2137POPC   GL128765   5.112   0.579   9.215
 2137POPC   GL228766   4.977   0.187   9.135
 2137POPC   C1A28767   4.920   0.552   8.802
 2137POPC   D2A28768   4.908   0.533   8.359
 2137POPC   C3A28769   5.336   0.378   8.195
 2137POPC   C4A28770   5.432   0.493   7.771
 2137POPC   C1B28771   5.116   0.084   8.674
 2137POPC   C2B28772   4.979   0.032   8.233
 2137POPC   C3B28773   4.915   0.312   7.873
 2137POPC   C4B28774   4.693   0.203   7.464
 2138POPC   NC328775  10.532  39.613   9.817
 2138POPC   PO428776  10.444  40.238   9.475
 2138POPC   GL128777  10.411  40.079   9.098
 2138POPC   GL228778  10.135  40.299   9.051
 2138POPC   C1A28779  10.581  39.796   8.784
 2138POPC   D2A28780  10.766  39.876   8.375
 2138POPC   C3A28781  10.571  39.701   7.972
 2138POPC   C4A28782  10.652  39.665   7.492
 2138POPC   C1B28783  10.341  40.264   8.638
 2138POPC   C2B28784  10.368  40.156   8.221
 2138POPC   C3B28785  10.111  40.212   7.918
 2138POPC   C4B28786  10.104  40.447   7.573
 2139POPC   NC328787  36.021  20.988   9.652
 2139POPC   PO428788  36.441  21.556   9.564
 2139POPC   GL128789  36.067  21.363   9.301
 2139POPC   GL228790  36.214  21.106   9.065
 2139POPC   C1A28791  35.948  21.476   8.860
 2139POPC   D2A28792  36.173  21.343   8.493
 2139POPC   C3A28793  35.949  21.435   8.127
 2139POPC   C4A28794  36.045  21.412   7.708
 2139POPC   C1B28795  35.934  20.952   8.694
 2139POPC   C2B28796  35.886  20.935   8.256
 2139POPC   C3B28797  36.225  20.995   7.947
 2139POPC   C4B28798  36.182  20.961   7.490
 2140POPC   NC328799   7.846  42.656   9.494
 2140POPC   PO428800   7.974  41.970   9.466
 2140POPC   GL128801   8.146  42.317   9.206
 2140POPC   GL228802   7.912  42.493   9.026
 2140POPC   C1A28803   8.355  42.202   8.823
 2140POPC   D2A28804   8.148  42.104   8.440
 2140POPC   C3A28805   8.364  42.174   8.054
 2140POPC   C4A28806   8.254  42.317   7.648
 2140POPC   C1B28807   8.068  42.584   8.650
 2140POPC   C2B28808   7.980  42.804   8.300
 2140POPC   C3B28809   8.131  42.798   7.913
 2140POPC   C4B28810   7.909  42.675   7.574
 2141POPC   NC328811  15.047  31.728   9.355
 2141POPC   PO428812  15.350  31.086   9.446
 2141POPC   GL128813  15.186  31.295   9.126
 2141POPC   GL228814  15.476  31.532   9.098
 2141POPC   C1A28815  14.929  31.466   8.793
 2141POPC   D2A28816  14.962  31.419   8.393
 2141POPC   C3A28817  14.689  31.616   8.126
 2141POPC   C4A28818  14.889  31.594   7.762
 2141POPC   C1B28819  15.428  31.382   8.671
 2141POPC   C2B28820  15.489  31.540   8.260
 2141POPC   C3B28821  15.387  31.513   7.814
 2141POPC   C4B28822  15.427  31.511   7.311
 2142POPC   NC328823  20.509   1.828   9.544
 2142POPC   PO428824  20.371   2.419   9.197
 2142POPC   GL128825  20.607   2.122   8.981
 2142POPC   GL228826  20.646   1.788   9.073
 2142POPC   C1A28827  20.482   1.907   8.600
 2142POPC   D2A28828  20.517   1.717   8.186
 2142POPC   C3A28829  20.464   2.045   7.871
 2142POPC   C4A28830  20.115   2.311   7.809
 2142POPC   C1B28831  20.981   1.778   8.777
 2142POPC   C2B28832  20.972   1.580   8.369
 2142POPC   C3B28833  20.978   1.810   7.968
 2142POPC   C4B28834  20.935   2.261   7.840
 2143POPC   NC328835  28.071  29.551   9.646
 2143POPC   PO428836  28.578  29.219   9.349
 2143POPC   GL128837  28.271  29.159   9.076
 2143POPC   GL228838  28.143  28.849   9.148
 2143POPC   C1A28839  28.413  29.043   8.680
 2143POPC   D2A28840  28.641  29.052   8.286
 2143POPC   C3A28841  28.493  29.371   8.012
 2143POPC   C4A28842  28.567  29.494   7.598
 2143POPC   C1B28843  27.927  28.858   8.749
 2143POPC   C2B28844  28.012  29.030   8.332
 2143POPC   C3B28845  28.156  28.966   7.946
 2143POPC   C4B28846  28.102  29.318   7.659
 2144POPC   NC328847  41.237  34.845   9.242
 2144POPC   PO428848  40.730  34.508   9.613
 2144POPC   GL128849  40.718  34.619   9.186
 2144POPC   GL228850  40.965  34.403   9.067
 2144POPC   C1A28851  40.642  34.644   8.736
 2144POPC   D2A28852  40.472  34.861   8.347
 2144POPC   C3A28853  40.633  34.727   7.947
 2144POPC   C4A28854  41.046  34.825   7.810
 2144POPC   C1B28855  41.182  34.515   8.690
 2144POPC   C2B28856  41.035  34.619   8.303
 2144POPC   C3B28857  41.033  34.338   7.960
 2144POPC   C4B28858  40.838  34.344   7.555
 2145POPC   NC328859  13.939  32.767   9.379
 2145POPC   PO428860  14.576  33.096   9.425
 2145POPC   GL128861  14.423  32.877   9.079
 2145POPC   GL228862  14.148  33.113   9.062
 2145POPC   C1A28863  14.493  32.983   8.657
 2145POPC   D2A28864  14.198  33.062   8.299
 2145POPC   C3A28865  14.288  32.940   7.865
 2145POPC   C4A28866  14.548  33.102   7.520
 2145POPC   C1B28867  13.955  33.359   8.738
 2145POPC   C2B28868  13.906  33.536   8.324
 2145POPC   C3B28869  13.927  33.336   7.926
 2145POPC   C4B28870  14.131  33.398   7.528
 2146POPC   NC328871  30.961  12.619   9.430
 2146POPC   PO428872  31.654  12.816   9.459
 2146POPC   GL128873  31.482  12.973   9.103
 2146POPC   GL228874  31.330  12.672   9.053
 2146POPC   C1A28875  31.700  12.994   8.747
 2146POPC   D2A28876  31.700  12.849   8.342
 2146POPC   C3A28877  31.477  13.097   8.036
 2146POPC   C4A28878  31.640  13.136   7.646
 2146POPC   C1B28879  31.227  12.843   8.630
 2146POPC   C2B28880  31.215  12.673   8.221
 2146POPC   C3B28881  31.499  12.631   7.870
 2146POPC   C4B28882  31.524  12.571   7.444
 2147POPC   NC328883  23.197  24.334   9.853
 2147POPC   PO428884  22.722  24.707   9.531
 2147POPC   GL128885  22.977  24.648   9.111
 2147POPC   GL228886  22.758  24.731   8.842
 2147POPC   C1A28887  23.201  24.548   8.708
 2147POPC   D2A28888  23.011  24.405   8.322
 2147POPC   C3A28889  22.926  24.673   8.022
 2147POPC   C4A28890  23.256  24.598   7.785
 2147POPC   C1B28891  22.806  24.233   8.766
 2147POPC   C2B28892  22.975  23.920   8.454
 2147POPC   C3B28893  22.841  23.951   8.033
 2147POPC   C4B28894  22.860  24.273   7.705
 2148POPC   NC328895  23.141  32.836   9.535
 2148POPC   PO428896  22.480  32.973   9.526
 2148POPC   GL128897  22.719  32.800   9.154
 2148POPC   GL228898  23.077  32.642   9.065
 2148POPC   C1A28899  22.842  32.968   8.758
 2148POPC   D2A28900  22.746  32.862   8.351
 2148POPC   C3A28901  22.630  33.083   7.995
 2148POPC   C4A28902  22.682  32.911   7.603
 2148POPC   C1B28903  23.357  32.863   8.761
 2148POPC   C2B28904  23.266  32.810   8.318
 2148POPC   C3B28905  23.160  32.898   7.861
 2148POPC   C4B28906  23.299  33.050   7.419
 2149POPC   NC328907  34.394  18.379   9.463
 2149POPC   PO428908  34.428  17.726   9.404
 2149POPC   GL128909  34.702  18.016   9.148
 2149POPC   GL228910  34.667  18.396   9.047
 2149POPC   C1A28911  34.888  18.100   8.721
 2149POPC   D2A28912  34.638  18.271   8.420
 2149POPC   C3A28913  34.832  18.226   8.040
 2149POPC   C4A28914  34.772  18.405   7.666
 2149POPC   C1B28915  34.297  18.492   8.782
 2149POPC   C2B28916  34.137  18.369   8.375
 2149POPC   C3B28917  34.330  18.372   7.984
 2149POPC   C4B28918  34.329  18.683   7.693
 2150POPC   NC328919  35.312  24.870   9.374
 2150POPC   PO428920  35.398  25.586   9.593
 2150POPC   GL128921  35.459  25.671   9.192
 2150POPC   GL228922  35.197  25.414   9.119
 2150POPC   C1A28923  35.530  25.638   8.764
 2150POPC   D2A28924  35.550  25.366   8.420
 2150POPC   C3A28925  35.421  25.465   7.996
 2150POPC   C4A28926  35.451  25.243   7.581
 2150POPC   C1B28927  35.171  25.182   8.725
 2150POPC   C2B28928  35.037  25.247   8.281
 2150POPC   C3B28929  35.029  25.164   7.854
 2150POPC   C4B28930  35.013  25.025   7.408
 2151POPC   NC328931  25.731  26.170   9.438
 2151POPC   PO428932  26.331  25.708   9.461
 2151POPC   GL128933  26.008  25.812   9.182
 2151POPC   GL228934  26.081  26.135   8.979
 2151POPC   C1A28935  25.725  25.810   8.832
 2151POPC   D2A28936  25.934  26.021   8.474
 2151POPC   C3A28937  25.925  25.862   8.061
 2151POPC   C4A28938  26.283  25.820   7.772
 2151POPC   C1B28939  26.092  26.479   8.647
 2151POPC   C2B28940  26.067  26.578   8.193
 2151POPC   C3B28941  26.139  26.328   7.812
 2151POPC   C4B28942  25.883  26.366   7.434
 2152POPC   NC328943  10.873  28.277   9.748
 2152POPC   PO428944  10.430  28.446   9.293
 2152POPC   GL128945  10.413  28.196   8.998
 2152POPC   GL228946  10.400  28.538   8.796
 2152POPC   C1A28947  10.569  28.072   8.670
 2152POPC   D2A28948  10.588  28.303   8.341
 2152POPC   C3A28949  10.517  28.125   7.976
 2152POPC   C4A28950  10.525  28.498   7.838
 2152POPC   C1B28951  10.843  28.503   8.739
 2152POPC   C2B28952  11.026  28.700   8.392
 2152POPC   C3B28953  10.924  28.761   7.964
 2152POPC   C4B28954  10.881  28.616   7.508
 2153POPC   NC328955  28.631  35.345   9.549
 2153POPC   PO428956  28.026  35.414   9.651
 2153POPC   GL128957  28.240  35.459   9.216
 2153POPC   GL228958  28.572  35.586   9.108
 2153POPC   C1A28959  28.214  35.525   8.761
 2153POPC   D2A28960  28.166  35.274   8.385
 2153POPC   C3A28961  28.288  35.466   7.979
 2153POPC   C4A28962  28.165  35.387   7.542
 2153POPC   C1B28963  28.735  35.615   8.693
 2153POPC   C2B28964  28.698  35.456   8.293
 2153POPC   C3B28965  28.920  35.622   7.965
 2153POPC   C4B28966  28.678  35.541   7.632
 2154POPC   NC328967  24.929  35.076   9.521
 2154POPC   PO428968  25.582  35.018   9.501
 2154POPC   GL128969  25.386  35.246   9.165
 2154POPC   GL228970  25.114  35.518   9.231
 2154POPC   C1A28971  25.474  35.281   8.714
 2154POPC   D2A28972  25.715  35.444   8.349
 2154POPC   C3A28973  25.475  35.358   7.956
 2154POPC   C4A28974  25.240  35.057   7.640
 2154POPC   C1B28975  24.966  35.249   8.897
 2154POPC   C2B28976  25.015  35.272   8.473
 2154POPC   C3B28977  24.966  35.279   8.027
 2154POPC   C4B28978  24.820  35.333   7.606
 2155POPC   NC328979  26.369   9.790   9.900
 2155POPC   PO428980  26.032   9.952   9.334
 2155POPC   GL128981  25.974   9.902   8.935
 2155POPC   GL228982  25.673  10.080   8.988
 2155POPC   C1A28983  25.858   9.595   8.623
 2155POPC   D2A28984  25.687   9.661   8.223
 2155POPC   C3A28985  25.836   9.438   7.845
 2155POPC   C4A28986  26.264   9.325   7.705
 2155POPC   C1B28987  25.703  10.090   8.545
 2155POPC   C2B28988  25.675  10.157   8.144
 2155POPC   C3B28989  25.821   9.971   7.799
 2155POPC   C4B28990  26.245  10.042   7.683
 2156POPC   NC328991  24.891  43.050   9.543
 2156POPC   PO428992  24.224  43.170   9.743
 2156POPC   GL128993  24.331  43.063   9.303
 2156POPC   GL228994  24.553  43.278   9.195
 2156POPC   C1A28995  24.291  42.956   8.867
 2156POPC   D2A28996  24.526  42.860   8.520
 2156POPC   C3A28997  24.456  42.871   8.072
 2156POPC   C4A28998  24.608  42.811   7.653
 2156POPC   C1B28999  24.571  43.365   8.745
 2156POPC   C2B29000  24.447  43.381   8.280
 2156POPC   C3B29001  24.518  43.317   7.817
 2156POPC   C4B29002  24.459  43.224   7.376
 2157POPC   NC329003  27.991  19.582   9.380
 2157POPC   PO429004  28.483  19.982   9.481
 2157POPC   GL129005  28.436  19.803   9.114
 2157POPC   GL229006  28.135  20.022   9.073
 2157POPC   C1A29007  28.624  19.869   8.719
 2157POPC   D2A29008  28.612  20.056   8.331
 2157POPC   C3A29009  28.648  19.730   8.050
 2157POPC   C4A29010  28.505  19.705   7.665
 2157POPC   C1B29011  28.081  19.733   8.724
 2157POPC   C2B29012  28.242  19.602   8.323
 2157POPC   C3B29013  28.070  19.555   7.882
 2157POPC   C4B29014  28.075  19.938   7.569
 2158POPC   NC329015   9.408  26.711   9.296
 2158POPC   PO429016   9.032  27.137   9.655
 2158POPC   GL129017   9.018  27.055   9.229
 2158POPC   GL229018   8.868  26.754   9.262
 2158POPC   C1A29019   9.179  27.036   8.784
 2158POPC   D2A29020   9.150  26.757   8.440
 2158POPC   C3A29021   9.331  26.838   8.055
 2158POPC   C4A29022   9.232  26.982   7.655
 2158POPC   C1B29023   8.728  26.779   8.820
 2158POPC   C2B29024   8.619  26.700   8.389
 2158POPC   C3B29025   8.823  26.730   7.995
 2158POPC   C4B29026   8.684  26.683   7.586
 2159POPC   NC329027  25.359   4.688   9.487
 2159POPC   PO429028  25.598   5.368   9.577
 2159POPC   GL129029  25.496   5.075   9.206
 2159POPC   GL229030  25.233   5.228   9.145
 2159POPC   C1A29031  25.208   4.906   8.779
 2159POPC   D2A29032  25.085   5.070   8.361
 2159POPC   C3A29033  25.176   4.864   7.985
 2159POPC   C4A29034  25.376   5.052   7.654
 2159POPC   C1B29035  25.582   5.423   8.880
 2159POPC   C2B29036  25.484   5.350   8.503
 2159POPC   C3B29037  25.563   5.230   8.116
 2159POPC   C4B29038  25.651   5.476   7.757
 2160POPC   NC329039  17.411  29.274   9.780
 2160POPC   PO429040  17.721  28.852   9.441
 2160POPC   GL129041  17.438  29.069   9.139
 2160POPC   GL229042  17.097  28.948   9.010
 2160POPC   C1A29043  17.422  29.241   8.745
 2160POPC   D2A29044  17.700  29.324   8.435
 2160POPC   C3A29045  17.502  29.396   8.048
 2160POPC   C4A29046  17.593  29.421   7.627
 2160POPC   C1B29047  17.236  28.775   8.681
 2160POPC   C2B29048  17.366  28.938   8.299
 2160POPC   C3B29049  17.189  28.983   7.889
 2160POPC   C4B29050  17.401  28.977   7.468
 2161POPC   NC329051  43.399  30.126   9.399
 2161POPC   PO429052  43.013  29.582   9.453
 2161POPC   GL129053  43.111  29.780   9.114
 2161POPC   GL229054  42.840  30.036   9.198
 2161POPC   C1A29055  43.201  29.688   8.675
 2161POPC   D2A29056  43.341  29.922   8.302
 2161POPC   C3A29057  43.073  29.923   7.927
 2161POPC   C4A29058  43.239  29.826   7.517
 2161POPC   C1B29059  42.738  29.888   8.775
 2161POPC   C2B29060  42.826  30.088   8.368
 2161POPC   C3B29061  42.759  30.391   8.026
 2161POPC   C4B29062  42.902  30.545   7.660
 2162POPC   NC329063  16.872  36.589   9.459
 2162POPC   PO429064  16.596  37.171   9.492
 2162POPC   GL129065  16.583  36.910   9.151
 2162POPC   GL229066  16.901  36.889   9.053
 2162POPC   C1A29067  16.476  36.794   8.725
 2162POPC   D2A29068  16.661  36.640   8.318
 2162POPC   C3A29069  16.419  36.773   7.970
 2162POPC   C4A29070  16.402  37.155   7.780
 2162POPC   C1B29071  16.828  37.167   8.743
 2162POPC   C2B29072  17.029  37.107   8.393
 2162POPC   C3B29073  16.860  37.052   8.025
 2162POPC   C4B29074  16.905  36.979   7.627
 2163POPC   NC329075   0.239  12.911   9.771
 2163POPC   PO429076   0.728  13.190   9.608
 2163POPC   GL129077   0.773  13.000   9.203
 2163POPC   GL229078   0.448  12.812   9.192
 2163POPC   C1A29079   0.610  13.064   8.771
 2163POPC   D2A29080   0.383  12.932   8.391
 2163POPC   C3A29081   0.572  13.060   8.001
 2163POPC   C4A29082   0.599  12.958   7.568
 2163POPC   C1B29083   0.446  12.564   8.773
 2163POPC   C2B29084   0.603  12.469   8.332
 2163POPC   C3B29085   0.413  12.579   7.907
 2163POPC   C4B29086   0.406  12.478   7.451
 2164POPC   NC329087  30.515  21.649   9.468
 2164POPC   PO429088  31.137  21.375   9.660
 2164POPC   GL129089  30.926  21.409   9.218
 2164POPC   GL229090  30.604  21.266   9.168
 2164POPC   C1A29091  30.779  21.649   8.822
 2164POPC   D2A29092  30.450  21.771   8.521
 2164POPC   C3A29093  30.630  21.766   8.117
 2164POPC   C4A29094  30.785  21.651   7.722
 2164POPC   C1B29095  30.494  21.216   8.741
 2164POPC   C2B29096  30.678  21.306   8.335
 2164POPC   C3B29097  30.523  21.267   7.888
 2164POPC   C4B29098  30.818  21.191   7.504
 2165POPC   NC329099  43.690  34.938   9.525
 2165POPC   PO429100  44.120  34.376   9.506
 2165POPC   GL129101  43.914  34.493   9.129
 2165POPC   GL229102  43.875  34.839   9.069
 2165POPC   C1A29103  43.959  34.508   8.696
 2165POPC   D2A29104  43.734  34.640   8.367
 2165POPC   C3A29105  43.998  34.462   8.096
 2165POPC   C4A29106  44.007  34.388   7.680
 2165POPC   C1B29107  43.997  35.029   8.684
 2165POPC   C2B29108  43.974  35.094   8.247
 2165POPC   C3B29109  43.960  34.883   7.840
 2165POPC   C4B29110  44.251  34.806   7.492
 2166POPC   NC329111  31.774  38.592   9.525
 2166POPC   PO429112  31.173  38.394   9.558
 2166POPC   GL129113  31.357  38.567   9.153
 2166POPC   GL229114  31.661  38.429   9.053
 2166POPC   C1A29115  31.417  38.646   8.681
 2166POPC   D2A29116  31.145  38.619   8.355
 2166POPC   C3A29117  31.233  38.478   7.977
 2166POPC   C4A29118  31.621  38.622   7.792
 2166POPC   C1B29119  31.601  38.162   8.712
 2166POPC   C2B29120  31.585  38.307   8.301
 2166POPC   C3B29121  31.582  38.112   7.908
 2166POPC   C4B29122  31.705  38.185   7.518
 2167POPC   NC329123  28.316  38.045   9.469
 2167POPC   PO429124  28.082  37.475   9.774
 2167POPC   GL129125  28.071  37.409   9.307
 2167POPC   GL229126  28.352  37.616   9.203
 2167POPC   C1A29127  28.167  37.341   8.837
 2167POPC   D2A29128  28.507  37.453   8.548
 2167POPC   C3A29129  28.363  37.501   8.144
 2167POPC   C4A29130  28.329  37.484   7.732
 2167POPC   C1B29131  28.291  37.876   8.820
 2167POPC   C2B29132  28.312  37.961   8.385
 2167POPC   C3B29133  28.255  37.969   7.937
 2167POPC   C4B29134  28.410  38.035   7.553
 2168POPC   NC329135   8.539  24.418   9.800
 2168POPC   PO429136   7.918  24.590   9.541
 2168POPC   GL129137   8.121  24.418   9.230
 2168POPC   GL229138   8.319  24.713   9.175
 2168POPC   C1A29139   8.010  24.500   8.825
 2168POPC   D2A29140   8.057  24.469   8.409
 2168POPC   C3A29141   8.358  24.297   8.173
 2168POPC   C4A29142   8.110  24.294   7.790
 2168POPC   C1B29143   8.276  24.955   8.816
 2168POPC   C2B29144   8.046  24.958   8.421
 2168POPC   C3B29145   8.196  24.783   8.028
 2168POPC   C4B29146   8.413  25.020   7.758
 2169POPC   NC329147  38.902  31.247   9.738
 2169POPC   PO429148  39.043  31.770   9.386
 2169POPC   GL129149  39.180  31.386   9.177
 2169POPC   GL229150  38.887  31.151   9.218
 2169POPC   C1A29151  39.402  31.390   8.754
 2169POPC   D2A29152  39.585  31.367   8.313
 2169POPC   C3A29153  39.317  31.391   7.934
 2169POPC   C4A29154  38.929  31.596   7.741
 2169POPC   C1B29155  38.872  31.305   8.778
 2169POPC   C2B29156  39.070  31.227   8.388
 2169POPC   C3B29157  38.855  31.155   8.019
 2169POPC   C4B29158  39.008  31.069   7.615
 2170POPC   NC329159  29.593  31.466   9.732
 2170POPC   PO429160  30.194  31.224   9.409
 2170POPC   GL129161  29.977  31.391   9.111
 2170POPC   GL229162  29.654  31.403   9.237
 2170POPC   C1A29163  30.058  31.303   8.694
 2170POPC   D2A29164  29.888  31.077   8.385
 2170POPC   C3A29165  29.893  31.275   7.958
 2170POPC   C4A29166  29.949  31.289   7.484
 2170POPC   C1B29167  29.541  31.313   8.815
 2170POPC   C2B29168  29.641  31.522   8.430
 2170POPC   C3B29169  29.476  31.630   8.048
 2170POPC   C4B29170  29.642  31.647   7.634
 2171POPC   NC329171  31.437   2.368   9.509
 2171POPC   PO429172  31.086   2.914   9.507
 2171POPC   GL129173  31.397   2.748   9.156
 2171POPC   GL229174  31.648   2.492   9.016
 2171POPC   C1A29175  31.350   2.787   8.711
 2171POPC   D2A29176  31.161   2.765   8.291
 2171POPC   C3A29177  31.334   2.781   7.866
 2171POPC   C4A29178  31.143   2.728   7.444
 2171POPC   C1B29179  31.858   2.722   8.673
 2171POPC   C2B29180  31.824   2.815   8.218
 2171POPC   C3B29181  31.738   3.118   7.894
 2171POPC   C4B29182  31.649   3.102   7.440
 2172POPC   NC329183  35.992  28.874   9.445
 2172POPC   PO429184  36.161  29.505   9.359
 2172POPC   GL129185  35.853  29.333   9.125
 2172POPC   GL229186  35.628  29.036   9.109
 2172POPC   C1A29187  36.013  29.258   8.746
 2172POPC   D2A29188  36.261  29.169   8.442
 2172POPC   C3A29189  36.077  29.333   8.116
 2172POPC   C4A29190  36.185  29.105   7.836
 2172POPC   C1B29191  35.683  28.869   8.734
 2172POPC   C2B29192  35.710  29.044   8.348
 2172POPC   C3B29193  35.658  28.904   7.944
 2172POPC   C4B29194  35.756  29.088   7.577
 2173POPC   NC329195   0.964   8.414   9.523
 2173POPC   PO429196   1.645   8.511   9.495
 2173POPC   GL129197   1.344   8.321   9.173
 2173POPC   GL229198   1.105   8.004   9.223
 2173POPC   C1A29199   1.421   8.056   8.804
 2173POPC   D2A29200   1.573   7.910   8.404
 2173POPC   C3A29201   1.298   8.087   8.096
 2173POPC   C4A29202   1.408   8.286   7.718
 2173POPC   C1B29203   0.906   8.054   8.806
 2173POPC   C2B29204   0.772   8.058   8.366
 2173POPC   C3B29205   0.842   7.816   7.980
 2173POPC   C4B29206   1.177   7.858   7.655
 2174POPC   NC329207  18.658   7.973   9.580
 2174POPC   PO429208  19.281   7.749   9.605
 2174POPC   GL129209  19.026   7.834   9.244
 2174POPC   GL229210  18.984   8.219   9.277
 2174POPC   C1A29211  19.071   7.991   8.835
 2174POPC   D2A29212  18.984   7.937   8.441
 2174POPC   C3A29213  19.248   7.992   8.096
 2174POPC   C4A29214  19.063   8.153   7.729
 2174POPC   C1B29215  18.710   8.362   8.934
 2174POPC   C2B29216  18.622   8.293   8.510
 2174POPC   C3B29217  18.809   8.353   8.117
 2174POPC   C4B29218  18.603   8.364   7.689
 2175POPC   NC329219  25.949  11.048   9.735
 2175POPC   PO429220  26.390  11.456   9.812
 2175POPC   GL129221  26.282  11.203   9.364
 2175POPC   GL229222  25.910  11.217   9.248
 2175POPC   C1A29223  26.234  11.264   8.870
 2175POPC   D2A29224  26.062  11.332   8.435
 2175POPC   C3A29225  26.227  11.374   8.020
 2175POPC   C4A29226  26.219  11.600   7.579
 2175POPC   C1B29227  25.703  11.267   8.828
 2175POPC   C2B29228  25.600  11.107   8.427
 2175POPC   C3B29229  25.634  11.342   8.057
 2175POPC   C4B29230  25.845  11.280   7.681
 2176POPC   NC329231  41.688   9.019   9.798
 2176POPC   PO429232  41.369   8.515   9.491
 2176POPC   GL129233  41.620   8.813   9.219
 2176POPC   GL229234  41.642   9.211   9.278
 2176POPC   C1A29235  41.476   8.845   8.782
 2176POPC   D2A29236  41.343   8.743   8.348
 2176POPC   C3A29237  41.488   8.907   7.935
 2176POPC   C4A29238  41.668   8.806   7.512
 2176POPC   C1B29239  41.641   9.336   8.827
 2176POPC   C2B29240  41.670   9.136   8.408
 2176POPC   C3B29241  41.804   9.297   8.036
 2176POPC   C4B29242  41.728   9.289   7.636
 2177POPC   NC329243  39.106  44.375   9.847
 2177POPC   PO429244  39.187  43.722   9.574
 2177POPC   GL129245  39.269  43.800   9.165
 2177POPC   GL229246  38.950  43.711   9.075
 2177POPC   C1A29247  39.221  43.993   8.754
 2177POPC   D2A29248  39.381  43.861   8.389
 2177POPC   C3A29249  39.313  44.158   8.087
 2177POPC   C4A29250  39.183  43.864   7.794
 2177POPC   C1B29251  38.855  43.559   8.670
 2177POPC   C2B29252  38.965  43.509   8.251
 2177POPC   C3B29253  38.756  43.607   7.880
 2177POPC   C4B29254  38.885  43.606   7.452
 2178POPC   NC329255   1.714  37.398   9.465
 2178POPC   PO429256   2.130  36.911   9.707
 2178POPC   GL129257   2.096  36.881   9.214
 2178POPC   GL229258   2.325  37.184   9.200
 2178POPC   C1A29259   1.917  36.698   8.768
 2178POPC   D2A29260   2.031  36.847   8.317
 2178POPC   C3A29261   2.003  36.758   7.855
 2178POPC   C4A29262   1.658  36.524   7.657
 2178POPC   C1B29263   2.145  37.154   8.774
 2178POPC   C2B29264   2.242  37.309   8.345
 2178POPC   C3B29265   1.970  37.248   7.978
 2178POPC   C4B29266   1.615  37.202   7.699
 2179POPC   NC329267  41.330  26.639   9.577
 2179POPC   PO429268  42.018  26.699   9.574
 2179POPC   GL129269  41.695  26.880   9.293
 2179POPC   GL229270  41.617  26.570   9.137
 2179POPC   C1A29271  41.464  26.971   8.886
 2179POPC   D2A29272  41.313  27.011   8.432
 2179POPC   C3A29273  41.461  26.907   7.998
 2179POPC   C4A29274  41.289  27.014   7.610
 2179POPC   C1B29275  41.530  26.506   8.683
 2179POPC   C2B29276  41.758  26.753   8.376
 2179POPC   C3B29277  41.947  26.787   7.951
 2179POPC   C4B29278  41.814  26.694   7.529
 2180POPC   NC329279  15.147  41.337   9.561
 2180POPC   PO429280  14.917  41.991   9.481
 2180POPC   GL129281  14.920  41.651   9.176
 2180POPC   GL229282  15.282  41.533   9.096
 2180POPC   C1A29283  14.901  41.459   8.756
 2180POPC   D2A29284  15.222  41.528   8.434
 2180POPC   C3A29285  15.221  41.305   8.066
 2180POPC   C4A29286  15.025  41.502   7.734
 2180POPC   C1B29287  15.502  41.273   8.776
 2180POPC   C2B29288  15.700  41.183   8.362
 2180POPC   C3B29289  15.723  41.342   7.928
 2180POPC   C4B29290  15.510  41.700   7.795
 2181POPC   NC329291  33.479  41.153   9.308
 2181POPC   PO429292  33.866  40.667   9.445
 2181POPC   GL129293  33.753  40.637   9.042
 2181POPC   GL229294  34.054  40.725   8.882
 2181POPC   C1A29295  33.640  40.957   8.721
 2181POPC   D2A29296  33.742  41.156   8.357
 2181POPC   C3A29297  33.869  40.987   7.999
 2181POPC   C4A29298  33.628  40.939   7.628
 2181POPC   C1B29299  34.020  40.720   8.453
 2181POPC   C2B29300  34.295  40.732   8.109
 2181POPC   C3B29301  34.073  40.614   7.724
 2181POPC   C4B29302  33.918  40.599   7.333
 2182POPC   NC329303   1.203   6.507   9.614
 2182POPC   PO429304   1.425   7.124   9.837
 2182POPC   GL129305   1.417   6.906   9.308
 2182POPC   GL229306   1.139   6.624   9.142
 2182POPC   C1A29307   1.446   6.809   8.826
 2182POPC   D2A29308   1.264   6.590   8.419
 2182POPC   C3A29309   1.533   6.613   8.011
 2182POPC   C4A29310   1.555   6.477   7.587
 2182POPC   C1B29311   0.879   6.577   8.775
 2182POPC   C2B29312   0.741   6.765   8.407
 2182POPC   C3B29313   0.950   6.719   8.050
 2182POPC   C4B29314   1.114   6.408   7.808
 2183POPC   NC329315   6.442   5.896   9.509
 2183POPC   PO429316   6.499   5.253   9.563
 2183POPC   GL129317   6.534   5.643   9.107
 2183POPC   GL229318   6.812   5.936   9.154
 2183POPC   C1A29319   6.535   5.945   8.728
 2183POPC   D2A29320   6.395   5.809   8.309
 2183POPC   C3A29321   6.394   6.024   7.911
 2183POPC   C4A29322   6.688   5.855   7.581
 2183POPC   C1B29323   7.025   6.002   8.770
 2183POPC   C2B29324   6.979   5.752   8.427
 2183POPC   C3B29325   6.886   5.910   8.047
 2183POPC   C4B29326   7.164   5.984   7.716
 2184POPC   NC329327  34.074  23.693   9.475
 2184POPC   PO429328  34.670  23.373   9.448
 2184POPC   GL129329  34.435  23.501   9.113
 2184POPC   GL229330  34.437  23.858   9.133
 2184POPC   C1A29331  34.614  23.607   8.719
 2184POPC   D2A29332  34.721  23.841   8.357
 2184POPC   C3A29333  34.516  23.647   8.018
 2184POPC   C4A29334  34.589  23.402   7.664
 2184POPC   C1B29335  34.399  24.110   8.747
 2184POPC   C2B29336  34.225  24.058   8.353
 2184POPC   C3B29337  34.460  24.148   7.997
 2184POPC   C4B29338  34.356  23.922   7.597
 2185POPC   NC329339  28.020  15.000   9.607
 2185POPC   PO429340  28.351  14.319   9.540
 2185POPC   GL129341  28.606  14.264   9.174
 2185POPC   GL229342  28.255  14.283   9.047
 2185POPC   C1A29343  28.619  14.419   8.720
 2185POPC   D2A29344  28.366  14.548   8.361
 2185POPC   C3A29345  28.546  14.399   7.979
 2185POPC   C4A29346  28.736  14.390   7.615
 2185POPC   C1B29347  28.117  14.162   8.669
 2185POPC   C2B29348  27.893  13.958   8.384
 2185POPC   C3B29349  28.130  14.124   8.081
 2185POPC   C4B29350  28.082  14.561   7.923
 2186POPC   NC329351   5.746  30.292   9.363
 2186POPC   PO429352   5.642  30.952   9.374
 2186POPC   GL129353   6.010  30.740   9.183
 2186POPC   GL229354   6.230  30.433   9.289
 2186POPC   C1A29355   6.131  30.867   8.791
 2186POPC   D2A29356   5.834  30.949   8.518
 2186POPC   C3A29357   5.907  30.919   8.112
 2186POPC   C4A29358   5.932  30.682   7.742
 2186POPC   C1B29359   6.197  30.381   8.832
 2186POPC   C2B29360   6.162  30.541   8.380
 2186POPC   C3B29361   6.245  30.340   7.964
 2186POPC   C4B29362   6.316  30.368   7.495
 2187POPC   NC329363  25.787   5.802   9.671
 2187POPC   PO429364  26.347   5.566   9.488
 2187POPC   GL129365  26.122   5.758   9.161
 2187POPC   GL229366  25.877   6.019   9.229
 2187POPC   C1A29367  26.071   5.592   8.741
 2187POPC   D2A29368  25.937   5.500   8.323
 2187POPC   C3A29369  26.147   5.603   7.938
 2187POPC   C4A29370  26.159   5.996   7.767
 2187POPC   C1B29371  25.708   5.921   8.852
 2187POPC   C2B29372  25.768   6.027   8.431
 2187POPC   C3B29373  25.748   6.210   8.014
 2187POPC   C4B29374  25.695   6.167   7.597
 2188POPC   NC329375  17.733  18.514   9.621
 2188POPC   PO429376  17.280  18.332   9.253
 2188POPC   GL129377  17.576  18.379   8.997
 2188POPC   GL229378  17.876  18.367   9.156
 2188POPC   C1A29379  17.549  18.221   8.605
 2188POPC   D2A29380  17.467  17.850   8.449
 2188POPC   C3A29381  17.499  17.999   8.054
 2188POPC   C4A29382  17.364  18.117   7.652
 2188POPC   C1B29383  18.029  18.411   8.752
 2188POPC   C2B29384  18.006  18.403   8.328
 2188POPC   C3B29385  18.042  18.613   7.973
 2188POPC   C4B29386  17.773  18.406   7.746
 2189POPC   NC329387  17.180  26.487   9.572
 2189POPC   PO429388  17.703  26.035   9.690
 2189POPC   GL129389  17.532  26.096   9.266
 2189POPC   GL229390  17.217  25.918   9.216
 2189POPC   C1A29391  17.415  26.299   8.855
 2189POPC   D2A29392  17.306  26.119   8.448
 2189POPC   C3A29393  17.497  26.069   8.071
 2189POPC   C4A29394  17.175  26.187   7.824
 2189POPC   C1B29395  17.424  25.802   8.812
 2189POPC   C2B29396  17.419  25.616   8.370
 2189POPC   C3B29397  17.552  25.591   7.947
 2189POPC   C4B29398  17.402  25.813   7.564
 2190POPC   NC329399  15.707  23.716   9.638
 2190POPC   PO429400  15.100  23.819   9.434
 2190POPC   GL129401  15.185  23.751   9.071
 2190POPC   GL229402  15.462  23.549   9.163
 2190POPC   C1A29403  14.960  23.739   8.696
 2190POPC   D2A29404  14.718  23.840   8.343
 2190POPC   C3A29405  14.982  23.738   8.002
 2190POPC   C4A29406  14.991  23.541   7.606
 2190POPC   C1B29407  15.532  23.720   8.720
 2190POPC   C2B29408  15.388  23.648   8.320
 2190POPC   C3B29409  15.514  23.774   7.926
 2190POPC   C4B29410  15.408  23.858   7.496
 2191POPC   NC329411   9.505  18.761   9.750
 2191POPC   PO429412   9.737  18.171   9.498
 2191POPC   GL129413   9.687  18.192   9.089
 2191POPC   GL229414  10.011  18.392   9.054
 2191POPC   C1A29415   9.705  18.166   8.644
 2191POPC   D2A29416  10.013  18.126   8.310
 2191POPC   C3A29417   9.773  17.975   7.905
 2191POPC   C4A29418   9.956  17.952   7.449
 2191POPC   C1B29419   9.696  18.650   8.840
 2191POPC   C2B29420   9.480  18.589   8.432
 2191POPC   C3B29421   9.710  18.494   8.102
 2191POPC   C4B29422   9.613  18.429   7.714
 2192POPC   NC329423  10.407  13.361   9.588
 2192POPC   PO429424  10.782  13.858   9.586
 2192POPC   GL129425  10.614  13.657   9.222
 2192POPC   GL229426  10.314  13.802   9.278
 2192POPC   C1A29427  10.689  13.494   8.813
 2192POPC   D2A29428  10.811  13.330   8.414
 2192POPC   C3A29429  10.751  13.618   8.081
 2192POPC   C4A29430  10.573  13.499   7.727
 2192POPC   C1B29431  10.397  13.977   8.861
 2192POPC   C2B29432  10.236  14.017   8.436
 2192POPC   C3B29433  10.133  14.096   8.001
 2192POPC   C4B29434  10.462  13.993   7.726
 2193POPC   NC329435  14.256  23.065   9.641
 2193POPC   PO429436  14.235  22.478   9.694
 2193POPC   GL129437  14.375  22.773   9.251
 2193POPC   GL229438  14.608  23.054   9.221
 2193POPC   C1A29439  14.539  22.766   8.798
 2193POPC   D2A29440  14.624  22.888   8.368
 2193POPC   C3A29441  14.249  23.016   8.159
 2193POPC   C4A29442  14.230  22.936   7.766
 2193POPC   C1B29443  14.693  23.267   8.800
 2193POPC   C2B29444  14.516  23.385   8.382
 2193POPC   C3B29445  14.652  23.309   7.958
 2193POPC   C4B29446  14.487  23.324   7.533
 2194POPC   NC329447  30.775  38.644   9.551
 2194POPC   PO429448  30.936  37.933   9.391
 2194POPC   GL129449  30.922  38.257   9.112
 2194POPC   GL229450  30.600  38.425   9.116
 2194POPC   C1A29451  31.029  38.248   8.679
 2194POPC   D2A29452  30.767  38.280   8.286
 2194POPC   C3A29453  30.757  38.672   8.019
 2194POPC   C4A29454  30.814  38.673   7.577
 2194POPC   C1B29455  30.674  38.631   8.712
 2194POPC   C2B29456  30.380  38.679   8.391
 2194POPC   C3B29457  30.257  38.549   8.000
 2194POPC   C4B29458  30.494  38.317   7.710
 2195POPC   NC329459  16.005  12.887   9.467
 2195POPC   PO429460  15.373  12.893   9.787
 2195POPC   GL129461  15.521  12.888   9.308
 2195POPC   GL229462  15.656  12.577   9.159
 2195POPC   C1A29463  15.626  13.011   8.845
 2195POPC   D2A29464  15.813  12.832   8.430
 2195POPC   C3A29465  16.027  13.132   8.115
 2195POPC   C4A29466  16.187  13.352   7.713
 2195POPC   C1B29467  15.472  12.535   8.727
 2195POPC   C2B29468  15.590  12.363   8.326
 2195POPC   C3B29469  15.638  12.609   7.975
 2195POPC   C4B29470  15.890  12.863   7.706
 2196POPC   NC329471  19.698  40.869   9.494
 2196POPC   PO429472  20.356  41.195   9.486
 2196POPC   GL129473  20.124  41.057   9.105
 2196POPC   GL229474  19.930  40.732   9.072
 2196POPC   C1A29475  20.148  40.867   8.656
 2196POPC   D2A29476  20.023  40.518   8.379
 2196POPC   C3A29477  19.927  40.710   7.987
 2196POPC   C4A29478  20.228  40.968   7.810
 2196POPC   C1B29479  19.664  40.512   8.756
 2196POPC   C2B29480  19.503  40.543   8.308
 2196POPC   C3B29481  19.568  40.367   7.887
 2196POPC   C4B29482  19.537  40.429   7.461
 2197POPC   NC329483  40.912   0.024   9.604
 2197POPC   PO429484  41.053   0.644   9.505
 2197POPC   GL129485  40.803   0.416   9.219
 2197POPC   GL229486  41.031   0.134   9.125
 2197POPC   C1A29487  40.671   0.437   8.800
 2197POPC   D2A29488  40.682   0.684   8.423
 2197POPC   C3A29489  40.647   0.480   8.003
 2197POPC   C4A29490  40.466   0.449   7.585
 2197POPC   C1B29491  41.018  45.000   8.712
 2197POPC   C2B29492  40.887   0.133   8.323
 2197POPC   C3B29493  41.093   0.083   7.926
 2197POPC   C4B29494  41.114   0.202   7.498
 2198POPC   NC329495  23.975  29.235   9.376
 2198POPC   PO429496  23.754  28.647   9.596
 2198POPC   GL129497  23.425  28.901   9.290
 2198POPC   GL229498  23.455  29.270   9.146
 2198POPC   C1A29499  23.238  28.928   8.841
 2198POPC   D2A29500  23.296  29.157   8.410
 2198POPC   C3A29501  23.489  28.902   8.058
 2198POPC   C4A29502  23.892  28.775   7.840
 2198POPC   C1B29503  23.707  29.193   8.763
 2198POPC   C2B29504  23.920  29.139   8.358
 2198POPC   C3B29505  23.848  29.266   7.961
 2198POPC   C4B29506  23.410  29.401   7.908
 2199POPC   NC329507  23.969   2.086   9.420
 2199POPC   PO429508  23.356   2.225   9.540
 2199POPC   GL129509  23.538   1.990   9.122
 2199POPC   GL229510  23.356   1.652   9.028
 2199POPC   C1A29511  23.805   2.077   8.714
 2199POPC   D2A29512  23.833   2.370   8.278
 2199POPC   C3A29513  23.868   2.126   7.891
 2199POPC   C4A29514  24.138   1.821   7.717
 2199POPC   C1B29515  23.408   1.762   8.622
 2199POPC   C2B29516  23.613   1.865   8.268
 2199POPC   C3B29517  23.485   1.775   7.864
 2199POPC   C4B29518  23.678   1.858   7.478
 2200POPC   NC329519  40.616  24.149   9.456
 2200POPC   PO429520  41.129  24.564   9.381
 2200POPC   GL129521  40.917  24.557   9.045
 2200POPC   GL229522  40.626  24.656   9.238
 2200POPC   C1A29523  40.830  24.345   8.629
 2200POPC   D2A29524  40.803  24.122   8.244
 2200POPC   C3A29525  40.667  24.419   7.991
 2200POPC   C4A29526  40.833  24.760   7.832
 2200POPC   C1B29527  40.530  24.757   8.814
 2200POPC   C2B29528  40.561  24.717   8.390
 2200POPC   C3B29529  40.371  24.859   8.030
 2200POPC   C4B29530  40.471  25.053   7.673
 2201POPC   NC329531  35.867  27.415   9.534
 2201POPC   PO429532  35.522  27.934   9.700
 2201POPC   GL129533  35.444  28.013   9.261
 2201POPC   GL229534  35.132  27.821   9.243
 2201POPC   C1A29535  35.598  27.784   8.902
 2201POPC   D2A29536  35.486  27.503   8.558
 2201POPC   C3A29537  35.401  27.735   8.177
 2201POPC   C4A29538  35.482  27.583   7.786
 2201POPC   C1B29539  35.051  27.534   8.860
 2201POPC   C2B29540  34.996  27.509   8.387
 2201POPC   C3B29541  35.054  27.286   7.990
 2201POPC   C4B29542  34.888  27.356   7.577
 2202POPC   NC329543  31.771   4.762   9.488
 2202POPC   PO429544  31.533   5.523   9.512
 2202POPC   GL129545  31.539   5.173   9.208
 2202POPC   GL229546  31.410   5.426   9.019
 2202POPC   C1A29547  31.382   5.009   8.767
 2202POPC   D2A29548  31.178   4.945   8.375
 2202POPC   C3A29549  31.447   5.000   8.030
 2202POPC   C4A29550  31.729   4.751   7.794
 2202POPC   C1B29551  31.815   5.266   8.767
 2202POPC   C2B29552  31.849   4.977   8.430
 2202POPC   C3B29553  31.977   5.123   8.045
 2202POPC   C4B29554  31.744   5.331   7.766
 2203POPC   NC329555  43.506  29.301   9.304
 2203POPC   PO429556  44.184  29.190   9.356
 2203POPC   GL129557  43.957  29.410   9.051
 2203POPC   GL229558  43.866  29.117   8.904
 2203POPC   C1A29559  43.686  29.532   8.683
 2203POPC   D2A29560  43.604  29.477   8.245
 2203POPC   C3A29561  43.989  29.335   8.087
 2203POPC   C4A29562  44.160  29.396   7.709
 2203POPC   C1B29563  43.711  28.795   8.624
 2203POPC   C2B29564  43.616  28.785   8.230
 2203POPC   C3B29565  43.853  28.658   7.889
 2203POPC   C4B29566  43.977  28.738   7.464
 2204POPC   NC329567  23.885  26.508   9.420
 2204POPC   PO429568  23.580  26.919   9.735
 2204POPC   GL129569  23.716  26.940   9.216
 2204POPC   GL229570  23.877  26.670   8.976
 2204POPC   C1A29571  23.736  27.069   8.755
 2204POPC   D2A29572  23.522  27.019   8.371
 2204POPC   C3A29573  23.736  27.103   8.017
 2204POPC   C4A29574  23.810  26.928   7.629
 2204POPC   C1B29575  23.986  26.528   8.613
 2204POPC   C2B29576  23.791  26.580   8.263
 2204POPC   C3B29577  23.845  26.450   7.897
 2204POPC   C4B29578  24.054  26.518   7.541
 2205POPC   NC329579  12.218  37.856   9.264
 2205POPC   PO429580  11.820  37.377   9.350
 2205POPC   GL129581  11.796  37.663   9.015
 2205POPC   GL229582  11.740  38.040   9.071
 2205POPC   C1A29583  11.904  37.513   8.607
 2205POPC   D2A29584  11.912  37.369   8.179
 2205POPC   C3A29585  12.352  37.374   8.021
 2205POPC   C4A29586  12.526  37.607   7.656
 2205POPC   C1B29587  11.968  38.021   8.655
 2205POPC   C2B29588  12.169  37.878   8.280
 2205POPC   C3B29589  12.050  37.766   7.880
 2205POPC   C4B29590  11.719  37.862   7.611
 2206POPC   NC329591  24.084  25.858   9.451
 2206POPC   PO429592  23.480  26.293   9.481
 2206POPC   GL129593  23.592  26.243   9.058
 2206POPC   GL229594  23.913  26.147   9.048
 2206POPC   C1A29595  23.623  26.143   8.615
 2206POPC   D2A29596  23.363  25.914   8.363
 2206POPC   C3A29597  23.399  26.120   7.960
 2206POPC   C4A29598  23.569  25.888   7.614
 2206POPC   C1B29599  24.122  26.041   8.668
 2206POPC   C2B29600  24.084  26.136   8.224
 2206POPC   C3B29601  24.049  25.990   7.772
 2206POPC   C4B29602  23.931  26.064   7.311
 2207POPC   NC329603  39.866  42.767   9.734
 2207POPC   PO429604  40.120  43.362   9.545
 2207POPC   GL129605  39.950  43.032   9.271
 2207POPC   GL229606  40.269  43.001   9.146
 2207POPC   C1A29607  39.874  42.958   8.802
 2207POPC   D2A29608  39.827  43.019   8.335
 2207POPC   C3A29609  40.069  43.049   7.950
 2207POPC   C4A29610  39.917  43.410   7.760
 2207POPC   C1B29611  40.225  43.357   8.859
 2207POPC   C2B29612  40.223  43.352   8.398
 2207POPC   C3B29613  40.366  43.482   7.975
 2207POPC   C4B29614  40.367  43.426   7.496
 2208POPC   NC329615  21.480  28.688   9.500
 2208POPC   PO429616  21.652  28.072   9.597
 2208POPC   GL129617  21.514  28.087   9.202
 2208POPC   GL229618  21.182  28.233   9.262
 2208POPC   C1A29619  21.415  28.229   8.808
 2208POPC   D2A29620  21.369  28.099   8.426
 2208POPC   C3A29621  21.554  28.377   8.147
 2208POPC   C4A29622  21.778  28.487   7.781
 2208POPC   C1B29623  21.078  28.560   8.960
 2208POPC   C2B29624  21.120  28.577   8.511
 2208POPC   C3B29625  21.028  28.373   8.151
 2208POPC   C4B29626  21.198  28.476   7.771
 2209POPC   NC329627  33.750  12.474   9.631
 2209POPC   PO429628  33.956  13.035   9.587
 2209POPC   GL129629  33.705  12.806   9.222
 2209POPC   GL229630  33.716  12.443   9.114
 2209POPC   C1A29631  33.571  12.821   8.788
 2209POPC   D2A29632  33.758  13.003   8.424
 2209POPC   C3A29633  33.699  12.792   8.045
 2209POPC   C4A29634  34.058  12.784   7.775
 2209POPC   C1B29635  33.405  12.320   8.787
 2209POPC   C2B29636  33.236  12.333   8.339
 2209POPC   C3B29637  33.497  12.301   7.956
 2209POPC   C4B29638  33.467  12.416   7.499
 2210POPC   NC329639  13.419  41.522   9.498
 2210POPC   PO429640  13.973  41.737   9.341
 2210POPC   GL129641  13.683  41.508   9.045
 2210POPC   GL229642  13.492  41.819   9.015
 2210POPC   C1A29643  13.664  41.431   8.578
 2210POPC   D2A29644  13.401  41.703   8.310
 2210POPC   C3A29645  13.471  41.780   7.864
 2210POPC   C4A29646  13.447  41.341   7.698
 2210POPC   C1B29647  13.884  41.889   8.721
 2210POPC   C2B29648  13.919  41.856   8.295
 2210POPC   C3B29649  13.816  41.487   8.072
 2210POPC   C4B29650  13.899  41.549   7.645
 2211POPC   NC329651   8.479  14.012   9.449
 2211POPC   PO429652   9.103  13.618   9.461
 2211POPC   GL129653   8.929  13.712   9.026
 2211POPC   GL229654   9.278  13.860   8.894
 2211POPC   C1A29655   8.686  13.545   8.638
 2211POPC   D2A29656   8.603  13.181   8.360
 2211POPC   C3A29657   8.587  13.348   7.956
 2211POPC   C4A29658   8.519  13.770   7.832
 2211POPC   C1B29659   9.190  13.499   8.636
 2211POPC   C2B29660   9.046  13.455   8.215
 2211POPC   C3B29661   9.089  13.581   7.798
 2211POPC   C4B29662   8.863  13.739   7.471
 2212POPC   NC329663  23.146  42.635  10.036
 2212POPC   PO429664  22.725  42.317   9.677
 2212POPC   GL129665  22.675  42.362   9.212
 2212POPC   GL229666  22.673  42.707   9.199
 2212POPC   C1A29667  22.726  42.183   8.761
 2212POPC   D2A29668  23.041  42.001   8.435
 2212POPC   C3A29669  22.881  41.924   8.014
 2212POPC   C4A29670  22.598  42.083   7.694
 2212POPC   C1B29671  22.900  42.651   8.793
 2212POPC   C2B29672  23.076  42.499   8.390
 2212POPC   C3B29673  22.855  42.446   8.004
 2212POPC   C4B29674  22.909  42.487   7.602
 2213POPC   NC329675  27.009   3.814   9.513
 2213POPC   PO429676  26.708   3.209   9.707
 2213POPC   GL129677  26.791   3.356   9.238
 2213POPC   GL229678  26.773   3.016   9.054
 2213POPC   C1A29679  26.793   3.696   8.844
 2213POPC   D2A29680  27.053   3.701   8.399
 2213POPC   C3A29681  26.901   3.621   7.922
 2213POPC   C4A29682  26.971   3.289   7.539
 2213POPC   C1B29683  26.940   3.232   8.723
 2213POPC   C2B29684  26.703   3.327   8.359
 2213POPC   C3B29685  26.676   3.156   7.961
 2213POPC   C4B29686  26.475   3.419   7.640
 2214POPC   NC329687   6.894  27.341   9.535
 2214POPC   PO429688   6.415  27.849   9.486
 2214POPC   GL129689   6.716  27.706   9.201
 2214POPC   GL229690   6.544  27.428   9.159
 2214POPC   C1A29691   6.778  27.702   8.760
 2214POPC   D2A29692   6.979  27.753   8.354
 2214POPC   C3A29693   6.700  27.668   7.990
 2214POPC   C4A29694   6.809  27.577   7.598
 2214POPC   C1B29695   6.246  27.204   8.913
 2214POPC   C2B29696   6.187  27.282   8.489
 2214POPC   C3B29697   6.204  27.396   8.088
 2214POPC   C4B29698   6.357  27.364   7.698
 2215POPC   NC329699  15.554  42.344   9.357
 2215POPC   PO429700  16.117  42.060   9.509
 2215POPC   GL129701  16.062  42.238   9.117
 2215POPC   GL229702  16.001  42.593   9.216
 2215POPC   C1A29703  15.872  42.150   8.698
 2215POPC   D2A29704  15.950  42.116   8.256
 2215POPC   C3A29705  15.643  42.170   7.896
 2215POPC   C4A29706  15.836  42.179   7.448
 2215POPC   C1B29707  16.080  42.631   8.777
 2215POPC   C2B29708  15.872  42.616   8.392
 2215POPC   C3B29709  15.982  42.530   7.982
 2215POPC   C4B29710  15.952  42.668   7.595
 2216POPC   NC329711  18.371  38.892   9.472
 2216POPC   PO429712  18.283  39.572   9.440
 2216POPC   GL129713  18.247  39.315   9.095
 2216POPC   GL229714  18.008  39.027   9.122
 2216POPC   C1A29715  18.149  39.361   8.670
 2216POPC   D2A29716  18.358  39.492   8.289
 2216POPC   C3A29717  18.291  39.259   7.924
 2216POPC   C4A29718  18.143  39.490   7.579
 2216POPC   C1B29719  18.363  38.899   8.828
 2216POPC   C2B29720  18.385  38.982   8.387
 2216POPC   C3B29721  18.096  38.809   8.078
 2216POPC   C4B29722  18.216  38.752   7.657
 2217POPC   NC329723   3.953  27.028   9.478
 2217POPC   PO429724   3.344  26.734   9.426
 2217POPC   GL129725   3.701  26.664   9.149
 2217POPC   GL229726   3.701  27.013   9.057
 2217POPC   C1A29727   3.730  26.655   8.695
 2217POPC   D2A29728   3.386  26.690   8.428
 2217POPC   C3A29729   3.549  26.832   8.099
 2217POPC   C4A29730   3.848  26.704   7.800
 2217POPC   C1B29731   3.419  27.084   8.743
 2217POPC   C2B29732   3.360  27.274   8.321
 2217POPC   C3B29733   3.447  27.318   7.898
 2217POPC   C4B29734   3.337  26.959   7.670
 2218POPC   NC329735  32.425  38.190   9.475
 2218POPC   PO429736  32.157  38.742   9.703
 2218POPC   GL129737  32.426  38.689   9.341
 2218POPC   GL229738  32.163  38.498   9.168
 2218POPC   C1A29739  32.416  38.797   8.873
 2218POPC   D2A29740  32.321  38.694   8.453
 2218POPC   C3A29741  32.539  38.783   8.098
 2218POPC   C4A29742  32.510  38.582   7.706
 2218POPC   C1B29743  32.076  38.370   8.744
 2218POPC   C2B29744  32.095  38.214   8.298
 2218POPC   C3B29745  32.064  38.359   7.862
 2218POPC   C4B29746  32.141  38.391   7.387
 2219POPC   NC329747  30.222  14.083   9.279
 2219POPC   PO429748  29.593  14.243   9.461
 2219POPC   GL129749  29.788  14.262   9.060
 2219POPC   GL229750  29.662  13.934   9.017
 2219POPC   C1A29751  30.018  14.306   8.647
 2219POPC   D2A29752  30.328  14.118   8.355
 2219POPC   C3A29753  30.155  14.252   7.973
 2219POPC   C4A29754  30.014  14.656   7.874
 2219POPC   C1B29755  29.532  14.100   8.613
 2219POPC   C2B29756  29.406  14.483   8.374
 2219POPC   C3B29757  29.502  14.603   7.946
 2219POPC   C4B29758  29.652  14.182   7.819
 2220POPC   NC329759   1.819  28.319   9.452
 2220POPC   PO429760   2.453  28.408   9.552
 2220POPC   GL129761   2.237  28.448   9.138
 2220POPC   GL229762   2.221  28.071   9.129
 2220POPC   C1A29763   1.917  28.621   8.805
 2220POPC   D2A29764   1.646  28.427   8.482
 2220POPC   C3A29765   1.808  28.350   8.080
 2220POPC   C4A29766   1.810  28.701   7.797
 2220POPC   C1B29767   2.045  28.128   8.728
 2220POPC   C2B29768   2.192  28.423   8.436
 2220POPC   C3B29769   2.294  28.514   8.052
 2220POPC   C4B29770   2.169  28.348   7.703
 2221POPC   NC329771  16.434   2.299   9.412
 2221POPC   PO429772  16.885   1.767   9.491
 2221POPC   GL129773  16.706   1.948   9.125
 2221POPC   GL229774  16.458   1.703   9.014
 2221POPC   C1A29775  16.554   2.101   8.712
 2221POPC   D2A29776  16.745   1.971   8.282
 2221POPC   C3A29777  16.620   2.113   7.861
 2221POPC   C4A29778  16.672   1.966   7.424
 2221POPC   C1B29779  16.778   1.649   8.681
 2221POPC   C2B29780  16.787   1.441   8.252
 2221POPC   C3B29781  16.768   1.607   7.799
 2221POPC   C4B29782  16.998   1.594   7.344
 2222POPC   NC329783  36.072  11.837   9.572
 2222POPC   PO429784  36.445  12.395   9.496
 2222POPC   GL129785  36.316  12.048   9.179
 2222POPC   GL229786  35.934  12.023   9.128
 2222POPC   C1A29787  36.231  11.889   8.751
 2222POPC   D2A29788  36.382  12.097   8.383
 2222POPC   C3A29789  36.315  11.924   7.992
 2222POPC   C4A29790  36.466  12.185   7.698
 2222POPC   C1B29791  35.756  12.207   8.776
 2222POPC   C2B29792  35.847  12.122   8.358
 2222POPC   C3B29793  35.704  12.226   7.946
 2222POPC   C4B29794  35.971  12.133   7.620
 2223POPC   NC329795  30.945  24.298   9.309
 2223POPC   PO429796  30.341  24.616   9.460
 2223POPC   GL129797  30.432  24.566   9.020
 2223POPC   GL229798  30.498  24.237   9.068
 2223POPC   C1A29799  30.255  24.379   8.622
 2223POPC   D2A29800  30.476  24.230   8.250
 2223POPC   C3A29801  30.691  24.475   8.018
 2223POPC   C4A29802  30.771  24.724   7.694
 2223POPC   C1B29803  30.744  24.233   8.688
 2223POPC   C2B29804  30.983  24.145   8.324
 2223POPC   C3B29805  30.933  24.047   7.896
 2223POPC   C4B29806  30.946  24.276   7.541
 2224POPC   NC329807  12.799  35.050   9.572
 2224POPC   PO429808  13.123  35.546   9.839
 2224POPC   GL129809  12.713  35.509   9.404
 2224POPC   GL229810  12.714  35.194   9.095
 2224POPC   C1A29811  12.718  35.674   8.948
 2224POPC   D2A29812  13.064  35.533   8.667
 2224POPC   C3A29813  12.990  35.505   8.217
 2224POPC   C4A29814  12.799  35.591   7.824
 2224POPC   C1B29815  12.723  35.155   8.610
 2224POPC   C2B29816  12.731  35.072   8.172
 2224POPC   C3B29817  12.556  35.106   7.781
 2224POPC   C4B29818  12.677  34.963   7.358
 2225POPC   NC329819   9.564  42.885   9.524
 2225POPC   PO429820  10.161  43.159   9.543
 2225POPC   GL129821   9.931  43.079   9.204
 2225POPC   GL229822   9.746  43.363   9.230
 2225POPC   C1A29823   9.679  42.995   8.836
 2225POPC   D2A29824   9.585  42.766   8.478
 2225POPC   C3A29825   9.659  42.924   8.066
 2225POPC   C4A29826   9.722  43.085   7.644
 2225POPC   C1B29827   9.863  43.472   8.808
 2225POPC   C2B29828   9.722  43.325   8.409
 2225POPC   C3B29829   9.802  43.439   7.990
 2225POPC   C4B29830   9.827  43.576   7.540
 2226POPC   NC329831  24.309  21.657   9.750
 2226POPC   PO429832  24.660  21.281   9.329
 2226POPC   GL129833  24.441  21.440   9.022
 2226POPC   GL229834  24.334  21.111   8.893
 2226POPC   C1A29835  24.518  21.536   8.598
 2226POPC   D2A29836  24.495  21.210   8.287
 2226POPC   C3A29837  24.287  21.418   7.974
 2226POPC   C4A29838  24.622  21.568   7.736
 2226POPC   C1B29839  24.779  21.062   8.729
 2226POPC   C2B29840  25.051  21.073   8.366
 2226POPC   C3B29841  24.918  21.134   7.940
 2226POPC   C4B29842  24.542  21.041   7.738
 2227POPC   NC329843   1.709   7.281   9.527
 2227POPC   PO429844   2.207   7.687   9.569
 2227POPC   GL129845   2.147   7.394   9.218
 2227POPC   GL229846   1.864   7.368   9.074
 2227POPC   C1A29847   2.304   7.246   8.821
 2227POPC   D2A29848   2.115   7.188   8.435
 2227POPC   C3A29849   2.341   7.289   8.055
 2227POPC   C4A29850   2.384   7.544   7.681
 2227POPC   C1B29851   1.690   7.240   8.748
 2227POPC   C2B29852   1.656   7.409   8.377
 2227POPC   C3B29853   1.841   7.386   7.983
 2227POPC   C4B29854   1.742   7.088   7.703
 2228POPC   NC329855   1.763  17.896   9.543
 2228POPC   PO429856   1.569  17.238   9.452
 2228POPC   GL129857   1.907  17.233   9.172
 2228POPC   GL229858   2.132  17.505   9.236
 2228POPC   C1A29859   1.985  17.246   8.733
 2228POPC   D2A29860   1.774  17.318   8.345
 2228POPC   C3A29861   2.068  17.428   8.047
 2228POPC   C4A29862   1.969  17.260   7.674
 2228POPC   C1B29863   2.162  17.720   8.850
 2228POPC   C2B29864   2.082  17.785   8.422
 2228POPC   C3B29865   1.923  18.022   8.078
 2228POPC   C4B29866   1.986  17.788   7.695
 2229POPC   NC329867  28.799  21.743   9.310
 2229POPC   PO429868  28.377  22.181   9.649
 2229POPC   GL129869  28.451  22.125   9.201
 2229POPC   GL229870  28.278  22.368   9.024
 2229POPC   C1A29871  28.600  22.026   8.748
 2229POPC   D2A29872  28.670  22.099   8.294
 2229POPC   C3A29873  28.287  22.062   8.048
 2229POPC   C4A29874  28.006  22.306   7.778
 2229POPC   C1B29875  28.310  22.430   8.576
 2229POPC   C2B29876  28.312  22.589   8.152
 2229POPC   C3B29877  28.606  22.412   7.862
 2229POPC   C4B29878  28.744  22.424   7.449
 2230POPC   NC329879   5.259   3.355   9.492
 2230POPC   PO429880   4.897   3.922   9.395
 2230POPC   GL129881   5.054   3.638   9.113
 2230POPC   GL229882   4.949   3.284   9.096
 2230POPC   C1A29883   5.210   3.588   8.724
 2230POPC   D2A29884   5.336   3.484   8.319
 2230POPC   C3A29885   5.229   3.799   8.059
 2230POPC   C4A29886   5.070   3.805   7.669
 2230POPC   C1B29887   4.997   3.140   8.689
 2230POPC   C2B29888   4.829   3.296   8.330
 2230POPC   C3B29889   4.975   3.330   7.938
 2230POPC   C4B29890   5.365   3.375   7.777
 2231POPC   NC329891  17.903  28.422   9.512
 2231POPC   PO429892  18.565  28.175   9.507
 2231POPC   GL129893  18.282  28.305   9.169
 2231POPC   GL229894  17.983  28.058   9.177
 2231POPC   C1A29895  18.385  28.538   8.775
 2231POPC   D2A29896  18.385  28.715   8.352
 2231POPC   C3A29897  18.427  28.405   8.019
 2231POPC   C4A29898  18.501  28.428   7.540
 2231POPC   C1B29899  17.901  28.348   8.831
 2231POPC   C2B29900  18.042  28.342   8.430
 2231POPC   C3B29901  17.896  28.414   8.053
 2231POPC   C4B29902  18.033  28.248   7.698
 2232POPC   NC329903  10.296  42.448   9.886
 2232POPC   PO429904  10.816  42.539   9.488
 2232POPC   GL129905  10.700  42.374   9.130
 2232POPC   GL229906  10.368  42.268   9.212
 2232POPC   C1A29907  10.666  42.390   8.694
 2232POPC   D2A29908  10.442  42.540   8.318
 2232POPC   C3A29909  10.594  42.386   7.918
 2232POPC   C4A29910  10.923  42.403   7.619
 2232POPC   C1B29911  10.146  42.408   8.830
 2232POPC   C2B29912   9.953  42.423   8.424
 2232POPC   C3B29913  10.031  42.542   7.987
 2232POPC   C4B29914  10.182  42.357   7.597
 2233POPC   NC329915   5.657  32.093   9.596
 2233POPC   PO429916   6.103  32.517   9.429
 2233POPC   GL129917   5.948  32.166   9.133
 2233POPC   GL229918   5.605  32.000   9.118
 2233POPC   C1A29919   5.752  32.251   8.711
 2233POPC   D2A29920   5.590  32.421   8.317
 2233POPC   C3A29921   5.773  32.376   7.910
 2233POPC   C4A29922   5.756  32.688   7.575
 2233POPC   C1B29923   5.411  31.819   8.779
 2233POPC   C2B29924   5.610  31.900   8.361
 2233POPC   C3B29925   5.477  31.860   7.946
 2233POPC   C4B29926   5.601  32.020   7.573
 2234POPC   NC329927  30.170  11.659   9.679
 2234POPC   PO429928  30.818  11.500   9.498
 2234POPC   GL129929  30.808  11.273   9.128
 2234POPC   GL229930  30.451  11.207   9.172
 2234POPC   C1A29931  30.733  11.312   8.684
 2234POPC   D2A29932  30.918  11.161   8.307
 2234POPC   C3A29933  30.723  11.346   7.978
 2234POPC   C4A29934  30.563  11.307   7.577
 2234POPC   C1B29935  30.472  10.890   8.841
 2234POPC   C2B29936  30.433  10.967   8.400
 2234POPC   C3B29937  30.545  10.839   7.973
 2234POPC   C4B29938  30.336  10.868   7.528
 2235POPC   NC329939  20.417  32.155   9.607
 2235POPC   PO429940  20.840  32.579   9.795
 2235POPC   GL129941  20.699  32.435   9.304
 2235POPC   GL229942  20.635  32.066   9.172
 2235POPC   C1A29943  20.735  32.393   8.818
 2235POPC   D2A29944  20.627  32.175   8.448
 2235POPC   C3A29945  20.725  32.430   8.142
 2235POPC   C4A29946  20.704  32.551   7.751
 2235POPC   C1B29947  20.266  32.196   8.881
 2235POPC   C2B29948  20.100  32.345   8.474
 2235POPC   C3B29949  20.243  32.290   8.047
 2235POPC   C4B29950  20.060  32.181   7.657
 2236POPC   NC329951  20.364   9.793   9.536
 2236POPC   PO429952  20.947   9.839   9.550
 2236POPC   GL129953  20.738  10.005   9.200
 2236POPC   GL229954  20.643   9.683   9.104
 2236POPC   C1A29955  20.576  10.067   8.778
 2236POPC   D2A29956  20.614   9.820   8.405
 2236POPC   C3A29957  20.536  10.002   8.035
 2236POPC   C4A29958  20.479   9.797   7.663
 2236POPC   C1B29959  20.641   9.427   8.735
 2236POPC   C2B29960  20.908   9.371   8.401
 2236POPC   C3B29961  20.786   9.503   8.003
 2236POPC   C4B29962  20.906   9.330   7.610
 2237POPC   NC329963  20.083  18.197   9.707
 2237POPC   PO429964  20.156  18.576   9.173
 2237POPC   GL129965  19.857  18.492   8.893
 2237POPC   GL229966  19.630  18.233   8.912
 2237POPC   C1A29967  19.993  18.406   8.500
 2237POPC   D2A29968  19.999  18.074   8.246
 2237POPC   C3A29969  19.944  18.226   7.863
 2237POPC   C4A29970  20.038  17.980   7.546
 2237POPC   C1B29971  19.494  18.480   8.539
 2237POPC   C2B29972  19.491  18.181   8.220
 2237POPC   C3B29973  19.564  17.902   7.842
 2237POPC   C4B29974  19.537  18.013   7.396
 2238POPC   NC329975   5.779  17.697   9.375
 2238POPC   PO429976   6.257  17.379   9.652
 2238POPC   GL129977   6.124  17.396   9.203
 2238POPC   GL229978   5.830  17.209   9.057
 2238POPC   C1A29979   6.238  17.328   8.800
 2238POPC   D2A29980   5.992  17.126   8.519
 2238POPC   C3A29981   6.021  17.377   8.173
 2238POPC   C4A29982   5.882  17.329   7.790
 2238POPC   C1B29983   5.761  17.543   8.745
 2238POPC   C2B29984   5.577  17.626   8.350
 2238POPC   C3B29985   5.684  17.760   7.958
 2238POPC   C4B29986   6.089  17.844   7.849
 2239POPC   NC329987  15.804  32.922   9.533
 2239POPC   PO429988  16.399  33.220   9.668
 2239POPC   GL129989  16.154  33.242   9.288
 2239POPC   GL229990  15.833  33.432   9.311
 2239POPC   C1A29991  15.990  32.977   8.918
 2239POPC   D2A29992  16.122  32.825   8.528
 2239POPC   C3A29993  15.938  32.918   8.144
 2239POPC   C4A29994  16.142  32.838   7.749
 2239POPC   C1B29995  15.948  33.481   8.876
 2239POPC   C2B29996  15.852  33.308   8.492
 2239POPC   C3B29997  15.906  33.429   8.085
 2239POPC   C4B29998  16.014  33.329   7.691
 2240POPC   NC329999  22.815  16.971   9.560
 2240POPC   PO430000  23.275  16.502   9.736
 2240POPC   GL130001  23.185  16.756   9.285
 2240POPC   GL230002  23.315  17.075   9.351
 2240POPC   C1A30003  22.852  16.809   8.901
 2240POPC   D2A30004  22.638  16.705   8.488
 2240POPC   C3A30005  22.796  16.852   8.055
 2240POPC   C4A30006  22.775  16.691   7.622
 2240POPC   C1B30007  23.268  17.122   8.889
 2240POPC   C2B30008  23.096  17.011   8.495
 2240POPC   C3B30009  23.290  16.969   8.071
 2240POPC   C4B30010  23.165  17.075   7.672
 2241POPC   NC330011  41.373  33.255   9.445
 2241POPC   PO430012  42.036  32.923   9.437
 2241POPC   GL130013  41.748  33.063   9.140
 2241POPC   GL230014  41.476  32.814   9.123
 2241POPC   C1A30015  41.635  33.184   8.732
 2241POPC   D2A30016  41.421  33.342   8.377
 2241POPC   C3A30017  41.639  33.221   7.997
 2241POPC   C4A30018  41.762  32.830   7.841
 2241POPC   C1B30019  41.262  32.808   8.703
 2241POPC   C2B30020  41.317  32.854   8.230
 2241POPC   C3B30021  41.246  32.727   7.780
 2241POPC   C4B30022  41.088  32.530   7.357
 2242POPC   NC330023  27.345  28.049   9.567
 2242POPC   PO430024  27.897  27.675   9.609
 2242POPC   GL130025  27.621  27.552   9.255
 2242POPC   GL230026  27.524  27.868   9.137
 2242POPC   C1A30027  27.406  27.462   8.850
 2242POPC   D2A30028  27.336  27.474   8.422
 2242POPC   C3A30029  27.632  27.545   8.113
 2242POPC   C4A30030  27.501  27.515   7.721
 2242POPC   C1B30031  27.371  27.979   8.736
 2242POPC   C2B30032  27.573  28.003   8.330
 2242POPC   C3B30033  27.308  27.921   7.977
 2242POPC   C4B30034  27.275  27.942   7.542
 2243POPC   NC330035   5.728  11.554   9.800
 2243POPC   PO430036   5.618  11.035   9.449
 2243POPC   GL130037   5.820  11.381   9.274
 2243POPC   GL230038   6.029  11.098   9.099
 2243POPC   C1A30039   6.083  11.581   8.960
 2243POPC   D2A30040   6.163  11.306   8.622
 2243POPC   C3A30041   6.004  11.412   8.209
 2243POPC   C4A30042   5.997  11.502   7.775
 2243POPC   C1B30043   5.689  11.161   8.782
 2243POPC   C2B30044   5.539  11.202   8.354
 2243POPC   C3B30045   5.692  11.067   7.939
 2243POPC   C4B30046   5.733  10.986   7.501
 2244POPC   NC330047  25.671   0.268   9.343
 2244POPC   PO430048  26.296   0.379   9.532
 2244POPC   GL130049  26.162   0.331   9.113
 2244POPC   GL230050  26.017   0.675   9.066
 2244POPC   C1A30051  25.937   0.307   8.711
 2244POPC   D2A30052  25.830   0.502   8.340
 2244POPC   C3A30053  25.974   0.341   7.987
 2244POPC   C4A30054  26.237   0.252   7.687
 2244POPC   C1B30055  25.668   0.775   8.747
 2244POPC   C2B30056  25.492   0.877   8.295
 2244POPC   C3B30057  25.658   0.760   7.883
 2244POPC   C4B30058  25.740   0.917   7.427
 2245POPC   NC330059  40.508  26.935   9.492
 2245POPC   PO430060  41.128  27.151   9.522
 2245POPC   GL130061  40.940  26.966   9.179
 2245POPC   GL230062  41.085  26.636   9.136
 2245POPC   C1A30063  40.681  27.064   8.821
 2245POPC   D2A30064  40.810  27.082   8.388
 2245POPC   C3A30065  40.579  26.765   8.174
 2245POPC   C4A30066  40.502  26.731   7.751
 2245POPC   C1B30067  41.033  26.703   8.728
 2245POPC   C2B30068  41.041  26.539   8.337
 2245POPC   C3B30069  41.034  26.666   7.918
 2245POPC   C4B30070  41.338  26.507   7.626
 2246POPC   NC330071   5.562  44.534   9.505
 2246POPC   PO430072   4.875  44.835   9.680
 2246POPC   GL130073   5.109  44.717   9.326
 2246POPC   GL230074   4.835  44.546   9.213
 2246POPC   C1A30075   5.239  44.615   8.886
 2246POPC   D2A30076   5.049  44.581   8.475
 2246POPC   C3A30077   5.254  44.447   8.089
 2246POPC   C4A30078   5.209  44.366   7.672
 2246POPC   C1B30079   4.711  44.799   8.859
 2246POPC   C2B30080   4.570  44.780   8.425
 2246POPC   C3B30081   4.752  44.599   8.050
 2246POPC   C4B30082   4.969  44.808   7.760
 2247POPC   NC330083  11.950  44.375   9.462
 2247POPC   PO430084  12.563  44.720   9.539
 2247POPC   GL130085  12.452  44.565   9.153
 2247POPC   GL230086  12.144  44.738   9.123
 2247POPC   C1A30087  12.349  44.519   8.712
 2247POPC   D2A30088  12.430  44.436   8.308
 2247POPC   C3A30089  12.191  44.604   7.977
 2247POPC   C4A30090  12.161  44.264   7.722
 2247POPC   C1B30091  11.849  44.592   8.806
 2247POPC   C2B30092  11.820  44.551   8.363
 2247POPC   C3B30093  11.739  44.866   8.062
 2247POPC   C4B30094  11.829   0.048   7.703
 2248POPC   NC330095  13.767  37.229   9.351
 2248POPC   PO430096  13.496  37.873   9.423
 2248POPC   GL130097  13.581  37.815   9.001
 2248POPC   GL230098  13.423  37.515   9.039
 2248POPC   C1A30099  13.420  37.854   8.569
 2248POPC   D2A30100  13.312  37.885   8.126
 2248POPC   C3A30101  13.721  37.864   7.941
 2248POPC   C4A30102  14.124  37.665   8.079
 2248POPC   C1B30103  13.092  37.523   8.761
 2248POPC   C2B30104  13.227  37.394   8.369
 2248POPC   C3B30105  13.481  37.411   8.033
 2248POPC   C4B30106  13.848  37.341   7.805
 2249POPC   NC330107  10.260  11.547   9.500
 2249POPC   PO430108  10.692  11.057   9.545
 2249POPC   GL130109  10.675  11.366   9.207
 2249POPC   GL230110  10.395  11.207   9.074
 2249POPC   C1A30111  10.780  11.531   8.795
 2249POPC   D2A30112  10.598  11.425   8.416
 2249POPC   C3A30113  10.781  11.554   8.009
 2249POPC   C4A30114  10.602  11.359   7.699
 2249POPC   C1B30115  10.283  11.582   8.849
 2249POPC   C2B30116  10.132  11.636   8.458
 2249POPC   C3B30117  10.331  11.745   8.108
 2249POPC   C4B30118  10.212  11.660   7.704
 2250POPC   NC330119   8.915   9.604   9.522
 2250POPC   PO430120   9.059  10.265   9.579
 2250POPC   GL130121   9.103   9.984   9.221
 2250POPC   GL230122   8.777   9.830   9.086
 2250POPC   C1A30123   9.285   9.795   8.850
 2250POPC   D2A30124   9.229   9.590   8.461
 2250POPC   C3A30125   8.995   9.869   8.177
 2250POPC   C4A30126   9.156  10.015   7.785
 2250POPC   C1B30127   8.839   9.438   8.834
 2250POPC   C2B30128   8.756   9.405   8.392
 2250POPC   C3B30129   8.862   9.414   7.954
 2250POPC   C4B30130   8.681   9.757   7.740
 2251POPC   NC330131  13.786  14.105   9.374
 2251POPC   PO430132  13.765  14.753   9.484
 2251POPC   GL130133  13.573  14.518   9.124
 2251POPC   GL230134  13.286  14.254   9.170
 2251POPC   C1A30135  13.817  14.401   8.754
 2251POPC   D2A30136  13.886  14.541   8.345
 2251POPC   C3A30137  13.583  14.481   8.048
 2251POPC   C4A30138  13.796  14.204   7.839
 2251POPC   C1B30139  13.356  14.205   8.717
 2251POPC   C2B30140  13.512  14.039   8.319
 2251POPC   C3B30141  13.380  13.926   7.906
 2251POPC   C4B30142  13.291  14.270   7.647
 2252POPC   NC330143  39.565   1.581   9.308
 2252POPC   PO430144  38.995   1.969   9.463
 2252POPC   GL130145  39.237   2.006   9.119
 2252POPC   GL230146  38.924   2.090   8.958
 2252POPC   C1A30147  39.327   1.943   8.673
 2252POPC   D2A30148  38.960   2.025   8.367
 2252POPC   C3A30149  39.103   2.107   7.930
 2252POPC   C4A30150  39.481   2.040   7.704
 2252POPC   C1B30151  38.878   1.698   8.750
 2252POPC   C2B30152  39.021   1.488   8.395
 2252POPC   C3B30153  38.946   1.626   7.995
 2252POPC   C4B30154  39.096   1.713   7.573
 2253POPC   NC330155   4.276  20.227   9.314
 2253POPC   PO430156   4.000  20.764   9.370
 2253POPC   GL130157   4.312  20.812   9.070
 2253POPC   GL230158   4.659  20.783   9.161
 2253POPC   C1A30159   4.370  20.675   8.650
 2253POPC   D2A30160   4.679  20.775   8.316
 2253POPC   C3A30161   4.461  20.743   7.917
 2253POPC   C4A30162   4.078  20.935   7.723
 2253POPC   C1B30163   4.763  20.435   8.838
 2253POPC   C2B30164   4.617  20.287   8.410
 2253POPC   C3B30165   4.772  20.319   7.983
 2253POPC   C4B30166   4.570  20.288   7.605
 2254POPC   NC330167  40.288  25.424   9.315
 2254POPC   PO430168  39.680  25.163   9.408
 2254POPC   GL130169  39.913  25.229   9.021
 2254POPC   GL230170  40.053  25.559   8.885
 2254POPC   C1A30171  40.180  25.103   8.683
 2254POPC   D2A30172  40.039  25.263   8.328
 2254POPC   C3A30173  40.302  25.369   8.035
 2254POPC   C4A30174  40.025  25.277   7.704
 2254POPC   C1B30175  39.628  25.677   8.747
 2254POPC   C2B30176  39.457  25.636   8.332
 2254POPC   C3B30177  39.707  25.535   8.006
 2254POPC   C4B30178  40.061  25.780   7.846
 2255POPC   NC330179  39.577  18.643   9.860
 2255POPC   PO430180  39.216  19.191   9.558
 2255POPC   GL130181  39.258  18.920   9.160
 2255POPC   GL230182  39.098  18.585   9.042
 2255POPC   C1A30183  39.209  18.990   8.714
 2255POPC   D2A30184  39.396  18.927   8.314
 2255POPC   C3A30185  39.354  19.211   7.957
 2255POPC   C4A30186  38.952  19.429   7.934
 2255POPC   C1B30187  39.040  18.515   8.564
 2255POPC   C2B30188  38.870  18.796   8.299
 2255POPC   C3B30189  38.922  18.916   7.905
 2255POPC   C4B30190  39.189  18.876   7.570
 2256POPC   NC330191  31.193  35.328   9.441
 2256POPC   PO430192  31.857  35.626   9.565
 2256POPC   GL130193  31.725  35.342   9.221
 2256POPC   GL230194  31.451  35.527   9.071
 2256POPC   C1A30195  31.616  35.164   8.784
 2256POPC   D2A30196  31.701  35.458   8.449
 2256POPC   C3A30197  31.576  35.280   8.084
 2256POPC   C4A30198  31.247  35.313   7.809
 2256POPC   C1B30199  31.114  35.471   8.766
 2256POPC   C2B30200  31.201  35.535   8.328
 2256POPC   C3B30201  31.037  35.736   7.977
 2256POPC   C4B30202  31.009  35.662   7.511
 2257POPC   NC330203   9.069  17.198   9.528
 2257POPC   PO430204   8.779  17.886   9.509
 2257POPC   GL130205   9.032  17.678   9.160
 2257POPC   GL230206   9.155  17.351   9.055
 2257POPC   C1A30207   9.017  17.701   8.709
 2257POPC   D2A30208   9.212  17.660   8.319
 2257POPC   C3A30209   9.028  17.609   7.929
 2257POPC   C4A30210   9.152  17.574   7.526
 2257POPC   C1B30211   9.195  17.187   8.633
 2257POPC   C2B30212   9.254  17.184   8.190
 2257POPC   C3B30213   9.313  17.157   7.749
 2257POPC   C4B30214   9.452  17.151   7.317
 2258POPC   NC330215   8.628  38.886   9.452
 2258POPC   PO430216   9.123  39.365   9.599
 2258POPC   GL130217   9.046  39.171   9.230
 2258POPC   GL230218   9.290  38.900   9.278
 2258POPC   C1A30219   9.029  39.341   8.796
 2258POPC   D2A30220   9.188  39.497   8.398
 2258POPC   C3A30221   8.881  39.441   8.093
 2258POPC   C4A30222   8.764  39.479   7.670
 2258POPC   C1B30223   9.140  38.844   8.854
 2258POPC   C2B30224   9.002  38.918   8.436
 2258POPC   C3B30225   9.184  39.037   8.057
 2258POPC   C4B30226   9.121  39.059   7.638
 2259POPC   NC330227  18.831   0.870   9.494
 2259POPC   PO430228  19.332   1.390   9.525
 2259POPC   GL130229  19.092   1.342   9.177
 2259POPC   GL230230  19.169   0.989   9.147
 2259POPC   C1A30231  19.011   1.364   8.764
 2259POPC   D2A30232  19.055   1.129   8.410
 2259POPC   C3A30233  19.078   1.374   8.055
 2259POPC   C4A30234  19.233   1.263   7.643
 2259POPC   C1B30235  19.374   0.956   8.787
 2259POPC   C2B30236  19.511   0.893   8.384
 2259POPC   C3B30237  19.314   0.918   8.012
 2259POPC   C4B30238  19.293   0.715   7.673
 2260POPC   NC330239   9.968  21.838   9.283
 2260POPC   PO430240   9.284  21.759   9.379
 2260POPC   GL130241   9.531  21.926   9.050
 2260POPC   GL230242   9.658  22.278   9.133
 2260POPC   C1A30243   9.733  22.019   8.674
 2260POPC   D2A30244   9.686  22.365   8.409
 2260POPC   C3A30245   9.704  22.235   8.007
 2260POPC   C4A30246   9.492  22.186   7.651
 2260POPC   C1B30247   9.994  22.434   8.851
 2260POPC   C2B30248  10.164  22.556   8.439
 2260POPC   C3B30249   9.960  22.687   8.071
 2260POPC   C4B30250   9.945  22.548   7.676
 2261POPC   NC330251   8.799  16.512   9.404
 2261POPC   PO430252   9.363  16.810   9.585
 2261POPC   GL130253   9.152  16.834   9.156
 2261POPC   GL230254   8.816  16.970   9.036
 2261POPC   C1A30255   9.066  16.653   8.743
 2261POPC   D2A30256   8.897  16.853   8.367
 2261POPC   C3A30257   9.103  16.710   7.967
 2261POPC   C4A30258   8.814  16.485   7.687
 2261POPC   C1B30259   8.701  17.276   8.720
 2261POPC   C2B30260   8.775  17.368   8.308
 2261POPC   C3B30261   8.821  17.132   7.927
 2261POPC   C4B30262   8.861  17.139   7.489
 2262POPC   NC330263  39.567   8.289   9.453
 2262POPC   PO430264  39.124   8.644   9.568
 2262POPC   GL130265  39.069   8.357   9.197
 2262POPC   GL230266  39.376   8.256   8.988
 2262POPC   C1A30267  38.979   8.444   8.754
 2262POPC   D2A30268  39.248   8.556   8.408
 2262POPC   C3A30269  38.975   8.478   8.082
 2262POPC   C4A30270  38.918   8.332   7.668
 2262POPC   C1B30271  39.578   7.935   8.719
 2262POPC   C2B30272  39.838   7.884   8.380
 2262POPC   C3B30273  39.561   7.864   8.091
 2262POPC   C4B30274  39.386   8.246   7.891
 2263POPC   NC330275  22.950   6.169   9.627
 2263POPC   PO430276  23.330   5.777   9.498
 2263POPC   GL130277  22.988   5.820   9.187
 2263POPC   GL230278  22.679   6.052   9.190
 2263POPC   C1A30279  23.029   5.973   8.759
 2263POPC   D2A30280  23.234   6.089   8.360
 2263POPC   C3A30281  23.116   5.885   7.980
 2263POPC   C4A30282  22.995   5.910   7.548
 2263POPC   C1B30283  22.532   6.011   8.747
 2263POPC   C2B30284  22.682   5.972   8.274
 2263POPC   C3B30285  22.657   6.185   7.822
 2263POPC   C4B30286  22.589   6.104   7.324
 2264POPC   NC330287   0.870  32.590   9.441
 2264POPC   PO430288   0.494  32.062   9.690
 2264POPC   GL130289   0.604  32.086   9.207
 2264POPC   GL230290   0.662  32.386   9.041
 2264POPC   C1A30291   0.651  32.046   8.693
 2264POPC   D2A30292   0.846  32.299   8.328
 2264POPC   C3A30293   0.613  32.372   7.955
 2264POPC   C4A30294   0.253  32.104   7.936
 2264POPC   C1B30295   0.396  32.509   8.736
 2264POPC   C2B30296   0.272  32.365   8.366
 2264POPC   C3B30297   0.148  32.594   8.028
 2264POPC   C4B30298   0.285  32.634   7.642
 2265POPC   NC330299   7.195   7.971   9.468
 2265POPC   PO430300   6.451   8.073   9.511
 2265POPC   GL130301   6.531   7.923   9.152
 2265POPC   GL230302   6.835   8.136   9.142
 2265POPC   C1A30303   6.523   8.048   8.753
 2265POPC   D2A30304   6.701   8.122   8.374
 2265POPC   C3A30305   6.508   7.997   7.991
 2265POPC   C4A30306   6.408   8.021   7.571
 2265POPC   C1B30307   7.051   8.019   8.774
 2265POPC   C2B30308   7.108   7.819   8.378
 2265POPC   C3B30309   7.048   8.092   8.015
 2265POPC   C4B30310   6.907   8.136   7.592
 2266POPC   NC330311  32.684  13.110   9.524
 2266POPC   PO430312  33.308  12.684   9.503
 2266POPC   GL130313  33.121  12.969   9.209
 2266POPC   GL230314  32.802  12.778   9.146
 2266POPC   C1A30315  33.078  13.010   8.754
 2266POPC   D2A30316  33.268  12.980   8.351
 2266POPC   C3A30317  33.035  13.073   7.984
 2266POPC   C4A30318  33.204  12.747   7.758
 2266POPC   C1B30319  32.591  12.834   8.767
 2266POPC   C2B30320  32.782  12.805   8.347
 2266POPC   C3B30321  32.720  12.651   7.926
 2266POPC   C4B30322  32.780  12.905   7.539
 2267POPC   NC330323  38.618  41.713   9.497
 2267POPC   PO430324  38.171  41.120   9.506
 2267POPC   GL130325  38.461  41.294   9.235
 2267POPC   GL230326  38.238  41.584   9.194
 2267POPC   C1A30327  38.627  41.453   8.840
 2267POPC   D2A30328  38.662  41.328   8.395
 2267POPC   C3A30329  38.301  41.311   8.094
 2267POPC   C4A30330  38.388  41.414   7.680
 2267POPC   C1B30331  38.199  41.772   8.801
 2267POPC   C2B30332  38.359  41.742   8.383
 2267POPC   C3B30333  38.486  41.848   7.957
 2267POPC   C4B30334  38.257  41.942   7.569
 2268POPC   NC330335  40.687   4.542   9.243
 2268POPC   PO430336  41.077   4.900   9.707
 2268POPC   GL130337  40.799   5.038   9.283
 2268POPC   GL230338  40.445   4.980   9.109
 2268POPC   C1A30339  40.820   5.228   8.827
 2268POPC   D2A30340  40.939   5.134   8.360
 2268POPC   C3A30341  40.887   5.360   7.939
 2268POPC   C4A30342  41.027   5.266   7.512
 2268POPC   C1B30343  40.337   4.728   8.745
 2268POPC   C2B30344  40.597   4.693   8.397
 2268POPC   C3B30345  40.644   4.904   8.019
 2268POPC   C4B30346  40.604   5.014   7.604
 2269POPC   NC330347  29.023  36.639   9.520
 2269POPC   PO430348  29.531  36.182   9.549
 2269POPC   GL130349  29.310  36.279   9.103
 2269POPC   GL230350  29.023  36.037   8.959
 2269POPC   C1A30351  29.406  36.115   8.674
 2269POPC   D2A30352  29.133  35.863   8.421
 2269POPC   C3A30353  29.244  36.047   8.045
 2269POPC   C4A30354  29.252  35.901   7.624
 2269POPC   C1B30355  28.856  36.248   8.632
 2269POPC   C2B30356  28.821  36.357   8.221
 2269POPC   C3B30357  28.804  36.139   7.816
 2269POPC   C4B30358  29.026  36.329   7.462
 2270POPC   NC330359  13.377  43.800   9.469
 2270POPC   PO430360  13.973  43.999   9.564
 2270POPC   GL130361  13.795  43.954   9.183
 2270POPC   GL230362  14.037  43.716   9.106
 2270POPC   C1A30363  13.788  44.094   8.754
 2270POPC   D2A30364  13.712  44.357   8.391
 2270POPC   C3A30365  13.521  44.213   8.059
 2270POPC   C4A30366  13.416  43.901   7.820
 2270POPC   C1B30367  13.893  43.585   8.717
 2270POPC   C2B30368  13.720  43.731   8.330
 2270POPC   C3B30369  13.852  43.667   7.895
 2270POPC   C4B30370  13.817  43.489   7.461
 2271POPC   NC330371  17.916  40.030   9.560
 2271POPC   PO430372  18.566  40.061   9.544
 2271POPC   GL130373  18.395  39.987   9.165
 2271POPC   GL230374  18.604  39.711   9.076
 2271POPC   C1A30375  18.120  40.106   8.829
 2271POPC   D2A30376  18.297  40.131   8.413
 2271POPC   C3A30377  18.209  40.166   7.986
 2271POPC   C4A30378  18.319  39.961   7.607
 2271POPC   C1B30379  18.493  39.774   8.704
 2271POPC   C2B30380  18.721  39.841   8.360
 2271POPC   C3B30381  18.645  39.813   7.957
 2271POPC   C4B30382  18.666  39.487   7.679
 2272POPC   NC330383  25.039   8.906   9.441
 2272POPC   PO430384  25.479   9.243   9.161
 2272POPC   GL130385  25.099   8.999   8.944
 2272POPC   GL230386  25.047   8.626   9.028
 2272POPC   C1A30387  24.929   8.984   8.508
 2272POPC   D2A30388  24.958   9.168   8.098
 2272POPC   C3A30389  25.202   8.988   7.780
 2272POPC   C4A30390  25.107   8.900   7.367
 2272POPC   C1B30391  25.251   8.594   8.649
 2272POPC   C2B30392  25.271   8.723   8.218
 2272POPC   C3B30393  25.323   8.492   7.841
 2272POPC   C4B30394  25.462   8.516   7.427
 2273POPC   NC330395  26.022  17.916   9.338
 2273POPC   PO430396  25.731  17.343   9.580
 2273POPC   GL130397  25.777  17.502   9.152
 2273POPC   GL230398  25.593  17.829   9.086
 2273POPC   C1A30399  25.951  17.314   8.720
 2273POPC   D2A30400  26.306  17.333   8.379
 2273POPC   C3A30401  26.171  17.312   7.899
 2273POPC   C4A30402  26.037  17.217   7.444
 2273POPC   C1B30403  25.638  17.737   8.649
 2273POPC   C2B30404  25.852  17.586   8.274
 2273POPC   C3B30405  25.686  17.367   7.926
 2273POPC   C4B30406  25.697  17.587   7.584
 2274POPC   NC330407  42.053  35.357   9.510
 2274POPC   PO430408  42.541  35.793   9.491
 2274POPC   GL130409  42.307  35.615   9.139
 2274POPC   GL230410  42.289  35.275   9.059
 2274POPC   C1A30411  42.340  35.681   8.690
 2274POPC   D2A30412  42.622  35.405   8.438
 2274POPC   C3A30413  42.560  35.422   7.998
 2274POPC   C4A30414  42.200  35.446   7.738
 2274POPC   C1B30415  42.644  35.059   8.875
 2274POPC   C2B30416  42.674  34.875   8.478
 2274POPC   C3B30417  42.797  34.941   8.075
 2274POPC   C4B30418  42.559  34.996   7.696
 2275POPC   NC330419   2.429   1.214   9.785
 2275POPC   PO430420   1.890   0.941   9.463
 2275POPC   GL130421   1.927   0.993   9.016
 2275POPC   GL230422   1.931   1.330   9.048
 2275POPC   C1A30423   2.271   1.137   8.704
 2275POPC   D2A30424   2.249   1.334   8.335
 2275POPC   C3A30425   2.012   1.076   8.091
 2275POPC   C4A30426   2.348   0.939   7.866
 2275POPC   C1B30427   1.812   1.332   8.633
 2275POPC   C2B30428   1.767   1.554   8.288
 2275POPC   C3B30429   1.916   1.542   7.887
 2275POPC   C4B30430   1.813   1.500   7.436
 2276POPC   NC330431  22.092  22.525   9.669
 2276POPC   PO430432  22.515  22.023   9.556
 2276POPC   GL130433  22.208  22.205   9.193
 2276POPC   GL230434  22.022  21.936   9.004
 2276POPC   C1A30435  21.999  22.359   8.750
 2276POPC   D2A30436  21.986  22.126   8.331
 2276POPC   C3A30437  21.911  22.411   7.954
 2276POPC   C4A30438  21.918  22.653   7.533
 2276POPC   C1B30439  22.352  22.006   8.694
 2276POPC   C2B30440  22.492  21.945   8.270
 2276POPC   C3B30441  22.354  22.137   7.890
 2276POPC   C4B30442  22.336  22.414   7.533
 2277POPC   NC330443  40.977  21.116   9.383
 2277POPC   PO430444  40.497  21.602   9.584
 2277POPC   GL130445  40.667  21.454   9.173
 2277POPC   GL230446  40.603  21.107   9.064
 2277POPC   C1A30447  40.728  21.468   8.728
 2277POPC   D2A30448  40.593  21.575   8.342
 2277POPC   C3A30449  40.591  21.369   7.956
 2277POPC   C4A30450  40.772  21.282   7.577
 2277POPC   C1B30451  40.840  20.971   8.719
 2277POPC   C2B30452  40.901  21.159   8.325
 2277POPC   C3B30453  40.972  21.006   7.951
 2277POPC   C4B30454  41.139  20.943   7.589
 2278POPC   NC330455  34.153  11.822   9.906
 2278POPC   PO430456  34.759  12.027   9.607
 2278POPC   GL130457  34.731  12.172   9.214
 2278POPC   GL230458  34.871  11.835   9.134
 2278POPC   C1A30459  34.727  12.287   8.779
 2278POPC   D2A30460  34.453  12.337   8.379
 2278POPC   C3A30461  34.601  12.262   7.936
 2278POPC   C4A30462  34.360  11.949   7.699
 2278POPC   C1B30463  34.833  11.748   8.737
 2278POPC   C2B30464  34.861  11.999   8.377
 2278POPC   C3B30465  34.798  11.797   8.023
 2278POPC   C4B30466  34.850  11.809   7.621
 2279POPC   NC330467  27.288  18.843   9.405
 2279POPC   PO430468  27.764  19.273   9.641
 2279POPC   GL130469  27.626  19.228   9.192
 2279POPC   GL230470  27.273  19.285   9.147
 2279POPC   C1A30471  27.817  19.112   8.764
 2279POPC   D2A30472  27.986  19.169   8.328
 2279POPC   C3A30473  27.644  19.194   8.016
 2279POPC   C4A30474  27.428  18.831   7.809
 2279POPC   C1B30475  27.292  19.153   8.758
 2279POPC   C2B30476  27.257  19.286   8.363
 2279POPC   C3B30477  27.065  19.203   7.982
 2279POPC   C4B30478  27.294  19.291   7.623
 2280POPC   NC330479  16.479  14.577   9.348
 2280POPC   PO430480  15.939  14.212   9.565
 2280POPC   GL130481  15.902  14.489   9.212
 2280POPC   GL230482  15.641  14.727   9.234
 2280POPC   C1A30483  16.031  14.533   8.782
 2280POPC   D2A30484  15.812  14.392   8.400
 2280POPC   C3A30485  16.014  14.492   8.017
 2280POPC   C4A30486  16.099  14.303   7.603
 2280POPC   C1B30487  15.547  14.679   8.767
 2280POPC   C2B30488  15.683  14.897   8.360
 2280POPC   C3B30489  15.808  14.955   7.924
 2280POPC   C4B30490  16.125  14.828   7.640
 2281POPC   NC330491  42.656   3.052   9.325
 2281POPC   PO430492  42.116   2.713   9.661
 2281POPC   GL130493  42.262   2.691   9.267
 2281POPC   GL230494  41.970   2.738   9.091
 2281POPC   C1A30495  42.457   2.667   8.850
 2281POPC   D2A30496  42.483   2.851   8.468
 2281POPC   C3A30497  42.559   2.601   8.109
 2281POPC   C4A30498  42.379   2.605   7.730
 2281POPC   C1B30499  42.034   2.984   8.677
 2281POPC   C2B30500  42.031   2.964   8.202
 2281POPC   C3B30501  42.106   3.053   7.765
 2281POPC   C4B30502  42.198   3.188   7.327
 2282POPC   NC330503  36.847  14.866   9.651
 2282POPC   PO430504  36.813  15.538   9.635
 2282POPC   GL130505  36.751  15.291   9.232
 2282POPC   GL230506  36.845  14.944   9.149
 2282POPC   C1A30507  36.661  15.208   8.774
 2282POPC   D2A30508  36.911  15.305   8.431
 2282POPC   C3A30509  36.932  15.078   8.086
 2282POPC   C4A30510  36.833  15.110   7.683
 2282POPC   C1B30511  37.074  14.885   8.756
 2282POPC   C2B30512  37.376  15.110   8.480
 2282POPC   C3B30513  37.427  14.980   8.055
 2282POPC   C4B30514  37.247  14.832   7.705
 2283POPC   NC330515  26.752   0.378   9.466
 2283POPC   PO430516  27.410   0.385   9.420
 2283POPC   GL130517  27.086   0.220   9.100
 2283POPC   GL230518  26.711   0.182   9.016
 2283POPC   C1A30519  27.093   0.136   8.674
 2283POPC   D2A30520  27.165   0.433   8.372
 2283POPC   C3A30521  26.938   0.422   7.991
 2283POPC   C4A30522  27.174   0.379   7.614
 2283POPC   C1B30523  26.477   0.344   8.683
 2283POPC   C2B30524  26.347   0.589   8.318
 2283POPC   C3B30525  26.423   0.716   7.880
 2283POPC   C4B30526  26.661   0.492   7.543
 2284POPC   NC330527   6.027  28.115   9.352
 2284POPC   PO430528   5.437  28.552   9.406
 2284POPC   GL130529   5.775  28.501   9.127
 2284POPC   GL230530   5.976  28.807   9.248
 2284POPC   C1A30531   5.861  28.223   8.735
 2284POPC   D2A30532   6.113  28.226   8.358
 2284POPC   C3A30533   5.829  28.207   7.999
 2284POPC   C4A30534   5.793  27.995   7.598
 2284POPC   C1B30535   5.858  28.903   8.834
 2284POPC   C2B30536   5.823  28.673   8.454
 2284POPC   C3B30537   6.030  28.669   8.079
 2284POPC   C4B30538   5.789  28.702   7.752
 2285POPC   NC330539  30.255  35.657   9.551
 2285POPC   PO430540  30.594  35.095   9.576
 2285POPC   GL130541  30.759  35.015   9.180
 2285POPC   GL230542  30.379  35.033   9.107
 2285POPC   C1A30543  30.922  34.986   8.750
 2285POPC   D2A30544  30.793  35.250   8.404
 2285POPC   C3A30545  30.788  35.171   7.979
 2285POPC   C4A30546  30.447  35.125   7.706
 2285POPC   C1B30547  30.518  35.367   8.828
 2285POPC   C2B30548  30.439  35.610   8.435
 2285POPC   C3B30549  30.442  35.570   7.999
 2285POPC   C4B30550  30.514  35.604   7.568
 2286POPC   NC330551  34.466  34.732   9.556
 2286POPC   PO430552  34.872  34.216   9.311
 2286POPC   GL130553  34.639  34.496   9.105
 2286POPC   GL230554  34.619  34.825   9.069
 2286POPC   C1A30555  34.498  34.494   8.664
 2286POPC   D2A30556  34.564  34.268   8.248
 2286POPC   C3A30557  34.798  34.360   7.838
 2286POPC   C4A30558  35.017  34.345   7.364
 2286POPC   C1B30559  34.831  35.003   8.715
 2286POPC   C2B30560  34.820  35.126   8.295
 2286POPC   C3B30561  34.889  34.863   7.920
 2286POPC   C4B30562  34.691  34.736   7.527
 2287POPC   NC330563   7.801   4.656   9.715
 2287POPC   PO430564   7.496   4.092   9.540
 2287POPC   GL130565   7.441   4.352   9.142
 2287POPC   GL230566   7.614   4.698   9.181
 2287POPC   C1A30567   7.389   4.187   8.709
 2287POPC   D2A30568   7.109   4.339   8.379
 2287POPC   C3A30569   7.225   4.474   7.973
 2287POPC   C4A30570   7.521   4.187   7.800
 2287POPC   C1B30571   7.468   4.714   8.735
 2287POPC   C2B30572   7.615   4.500   8.332
 2287POPC   C3B30573   7.710   4.649   7.901
 2287POPC   C4B30574   7.868   4.491   7.479
 2288POPC   NC330575  34.441  36.566   9.600
 2288POPC   PO430576  34.380  35.887   9.428
 2288POPC   GL130577  34.479  36.176   9.124
 2288POPC   GL230578  34.800  36.260   9.241
 2288POPC   C1A30579  34.446  36.115   8.684
 2288POPC   D2A30580  34.209  35.795   8.524
 2288POPC   C3A30581  34.252  35.823   8.108
 2288POPC   C4A30582  34.540  36.105   7.887
 2288POPC   C1B30583  34.925  36.046   8.834
 2288POPC   C2B30584  34.873  36.087   8.359
 2288POPC   C3B30585  35.021  36.263   7.934
 2288POPC   C4B30586  35.110  36.208   7.442
 2289POPC   NC330587  21.213  33.862   9.599
 2289POPC   PO430588  21.725  33.416   9.623
 2289POPC   GL130589  21.315  33.484   9.293
 2289POPC   GL230590  21.372  33.834   9.123
 2289POPC   C1A30591  21.132  33.524   8.841
 2289POPC   D2A30592  21.327  33.615   8.433
 2289POPC   C3A30593  21.134  33.878   8.171
 2289POPC   C4A30594  21.201  33.756   7.771
 2289POPC   C1B30595  21.532  33.981   8.739
 2289POPC   C2B30596  21.575  34.124   8.328
 2289POPC   C3B30597  21.632  33.965   7.927
 2289POPC   C4B30598  21.703  33.575   7.739
 2290POPC   NC330599  11.656  10.505   9.506
 2290POPC   PO430600  10.906  10.381   9.570
 2290POPC   GL130601  11.090  10.357   9.165
 2290POPC   GL230602  11.400  10.197   9.131
 2290POPC   C1A30603  11.099  10.601   8.809
 2290POPC   D2A30604  11.096  10.531   8.396
 2290POPC   C3A30605  10.844  10.526   8.061
 2290POPC   C4A30606  11.072  10.616   7.679
 2290POPC   C1B30607  11.498  10.290   8.673
 2290POPC   C2B30608  11.588  10.625   8.321
 2290POPC   C3B30609  11.533  10.481   7.870
 2290POPC   C4B30610  11.545  10.389   7.394
 2291POPC   NC330611  34.123  26.217   9.544
 2291POPC   PO430612  33.434  26.462   9.470
 2291POPC   GL130613  33.598  26.203   9.135
 2291POPC   GL230614  33.788  25.947   9.249
 2291POPC   C1A30615  33.442  26.188   8.716
 2291POPC   D2A30616  33.237  26.063   8.330
 2291POPC   C3A30617  33.549  26.221   8.007
 2291POPC   C4A30618  33.553  26.253   7.545
 2291POPC   C1B30619  33.919  25.975   8.807
 2291POPC   C2B30620  33.740  25.894   8.390
 2291POPC   C3B30621  33.858  25.789   7.964
 2291POPC   C4B30622  34.168  25.454   7.881
 2292POPC   NC330623  30.671  10.850   9.480
 2292POPC   PO430624  30.662  10.289   9.844
 2292POPC   GL130625  30.594  10.287   9.285
 2292POPC   GL230626  30.354  10.533   9.243
 2292POPC   C1A30627  30.819  10.497   8.830
 2292POPC   D2A30628  30.975  10.655   8.386
 2292POPC   C3A30629  30.881  10.445   7.973
 2292POPC   C4A30630  30.829  10.720   7.579
 2292POPC   C1B30631  30.331  10.385   8.828
 2292POPC   C2B30632  30.508  10.469   8.423
 2292POPC   C3B30633  30.393  10.275   8.062
 2292POPC   C4B30634  30.434  10.397   7.682
 2293POPC   NC330635   6.277   6.573   9.525
 2293POPC   PO430636   5.679   6.796   9.303
 2293POPC   GL130637   5.981   6.484   9.131
 2293POPC   GL230638   6.334   6.277   9.118
 2293POPC   C1A30639   6.144   6.702   8.811
 2293POPC   D2A30640   5.885   6.613   8.501
 2293POPC   C3A30641   5.999   6.861   8.187
 2293POPC   C4A30642   5.801   6.909   7.832
 2293POPC   C1B30643   6.111   6.199   8.727
 2293POPC   C2B30644   6.006   6.143   8.313
 2293POPC   C3B30645   5.858   6.412   8.026
 2293POPC   C4B30646   6.125   6.526   7.691
 2294POPC   NC330647  10.729  21.636   9.491
 2294POPC   PO430648  10.670  20.953   9.307
 2294POPC   GL130649  10.551  21.283   9.035
 2294POPC   GL230650  10.461  21.628   9.075
 2294POPC   C1A30651  10.407  21.309   8.611
 2294POPC   D2A30652  10.233  21.337   8.172
 2294POPC   C3A30653  10.546  21.182   7.861
 2294POPC   C4A30654  10.494  20.940   7.425
 2294POPC   C1B30655  10.701  21.730   8.739
 2294POPC   C2B30656  10.576  21.688   8.303
 2294POPC   C3B30657  10.477  21.750   7.893
 2294POPC   C4B30658  10.770  21.924   7.609
 2295POPC   NC330659  15.855  15.263   9.664
 2295POPC   PO430660  16.419  15.070   9.384
 2295POPC   GL130661  15.983  15.104   9.160
 2295POPC   GL230662  15.673  15.355   9.208
 2295POPC   C1A30663  16.025  15.079   8.708
 2295POPC   D2A30664  16.367  15.268   8.452
 2295POPC   C3A30665  16.273  15.086   8.077
 2295POPC   C4A30666  16.193  15.320   7.709
 2295POPC   C1B30667  15.867  15.523   8.869
 2295POPC   C2B30668  15.994  15.618   8.485
 2295POPC   C3B30669  15.878  15.422   8.131
 2295POPC   C4B30670  15.709  15.444   7.742
 2296POPC   NC330671  37.260  24.389   9.423
 2296POPC   PO430672  37.977  24.396   9.563
 2296POPC   GL130673  37.739  24.519   9.233
 2296POPC   GL230674  37.723  24.196   9.155
 2296POPC   C1A30675  37.842  24.654   8.824
 2296POPC   D2A30676  37.878  24.842   8.426
 2296POPC   C3A30677  37.623  24.765   8.119
 2296POPC   C4A30678  37.684  24.542   7.721
 2296POPC   C1B30679  37.494  24.286   8.817
 2296POPC   C2B30680  37.582  24.314   8.383
 2296POPC   C3B30681  37.380  24.229   7.982
 2296POPC   C4B30682  37.510  24.041   7.595
 2297POPC   NC330683  25.767  44.274   9.374
 2297POPC   PO430684  25.442  44.875   9.401
 2297POPC   GL130685  25.218  44.639   9.121
 2297POPC   GL230686  25.549  44.512   8.996
 2297POPC   C1A30687  25.176  44.584   8.691
 2297POPC   D2A30688  25.484  44.517   8.378
 2297POPC   C3A30689  25.284  44.536   7.998
 2297POPC   C4A30690  24.909  44.600   7.805
 2297POPC   C1B30691  25.689  44.846   8.733
 2297POPC   C2B30692  25.684   0.007   8.310
 2297POPC   C3B30693  25.578   0.024   7.874
 2297POPC   C4B30694  25.394  44.749   7.560
 2298POPC   NC330695  35.171  26.764   9.684
 2298POPC   PO430696  35.840  26.986   9.730
 2298POPC   GL130697  35.619  26.853   9.312
 2298POPC   GL230698  35.284  26.685   9.194
 2298POPC   C1A30699  35.464  27.053   8.893
 2298POPC   D2A30700  35.227  27.050   8.490
 2298POPC   C3A30701  35.510  27.096   8.143
 2298POPC   C4A30702  35.523  27.081   7.714
 2298POPC   C1B30703  35.261  26.588   8.764
 2298POPC   C2B30704  35.274  26.544   8.316
 2298POPC   C3B30705  35.267  26.606   7.877
 2298POPC   C4B30706  35.587  26.596   7.576
 2299POPC   NC330707  24.865  12.286   9.180
 2299POPC   PO430708  24.314  12.528   9.202
 2299POPC   GL130709  24.374  12.140   9.006
 2299POPC   GL230710  24.594  12.337   8.756
 2299POPC   C1A30711  24.340  11.917   8.606
 2299POPC   D2A30712  24.536  12.157   8.272
 2299POPC   C3A30713  24.441  11.984   7.909
 2299POPC   C4A30714  24.064  12.105   7.753
 2299POPC   C1B30715  24.895  11.989   8.636
 2299POPC   C2B30716  24.917  11.827   8.289
 2299POPC   C3B30717  24.944  11.913   7.892
 2299POPC   C4B30718  24.782  11.695   7.571
 2300POPC   NC330719  36.467  32.947   9.444
 2300POPC   PO430720  35.960  33.391   9.559
 2300POPC   GL130721  36.128  33.210   9.143
 2300POPC   GL230722  36.142  32.855   9.066
 2300POPC   C1A30723  36.230  33.238   8.671
 2300POPC   D2A30724  36.254  33.353   8.214
 2300POPC   C3A30725  35.906  33.219   7.957
 2300POPC   C4A30726  36.001  33.151   7.524
 2300POPC   C1B30727  36.490  32.806   8.765
 2300POPC   C2B30728  36.326  32.818   8.337
 2300POPC   C3B30729  36.293  32.883   7.902
 2300POPC   C4B30730  36.181  32.647   7.541
 2301POPC   NC330731   6.308  22.871   9.727
 2301POPC   PO430732   6.870  23.180   9.657
 2301POPC   GL130733   6.847  23.075   9.158
 2301POPC   GL230734   6.527  22.939   9.064
 2301POPC   C1A30735   6.833  22.932   8.661
 2301POPC   D2A30736   6.504  22.995   8.305
 2301POPC   C3A30737   6.667  23.042   7.900
 2301POPC   C4A30738   6.939  23.364   7.766
 2301POPC   C1B30739   6.350  22.758   8.730
 2301POPC   C2B30740   6.438  22.489   8.348
 2301POPC   C3B30741   6.394  22.596   7.947
 2301POPC   C4B30742   6.196  22.934   7.742
 2302POPC   NC330743  21.087   0.469   9.603
 2302POPC   PO430744  21.657   0.107   9.421
 2302POPC   GL130745  21.356   0.360   9.141
 2302POPC   GL230746  21.083   0.627   9.122
 2302POPC   C1A30747  21.218   0.339   8.715
 2302POPC   D2A30748  21.511   0.496   8.434
 2302POPC   C3A30749  21.534   0.395   8.047
 2302POPC   C4A30750  21.763   0.542   7.714
 2302POPC   C1B30751  21.341   0.806   8.832
 2302POPC   C2B30752  21.259   0.921   8.457
 2302POPC   C3B30753  21.153   0.729   8.098
 2302POPC   C4B30754  21.286   0.693   7.711
 2303POPC   NC330755  43.266   5.400   9.426
 2303POPC   PO430756  42.872   4.935   9.694
 2303POPC   GL130757  43.018   4.950   9.287
 2303POPC   GL230758  43.360   4.936   9.213
 2303POPC   C1A30759  42.917   4.853   8.873
 2303POPC   D2A30760  43.062   4.988   8.478
 2303POPC   C3A30761  42.902   4.871   8.092
 2303POPC   C4A30762  42.986   5.075   7.705
 2303POPC   C1B30763  43.415   5.143   8.823
 2303POPC   C2B30764  43.578   5.042   8.430
 2303POPC   C3B30765  43.397   5.056   8.054
 2303POPC   C4B30766  43.522   4.991   7.662
 2304POPC   NC330767  33.602  19.852   9.584
 2304POPC   PO430768  34.107  20.260   9.507
 2304POPC   GL130769  33.797  20.144   9.179
 2304POPC   GL230770  33.800  19.763   9.134
 2304POPC   C1A30771  33.939  20.055   8.743
 2304POPC   D2A30772  34.253  19.790   8.542
 2304POPC   C3A30773  34.063  19.710   8.166
 2304POPC   C4A30774  33.972  19.963   7.825
 2304POPC   C1B30775  33.527  19.730   8.784
 2304POPC   C2B30776  33.609  19.891   8.362
 2304POPC   C3B30777  33.515  19.757   7.956
 2304POPC   C4B30778  33.291  19.434   7.768
 2305POPC   NC330779  22.633   0.856   9.543
 2305POPC   PO430780  23.088   1.315   9.491
 2305POPC   GL130781  22.768   1.205   9.162
 2305POPC   GL230782  22.541   1.442   8.960
 2305POPC   C1A30783  22.829   1.037   8.751
 2305POPC   D2A30784  23.053   0.969   8.371
 2305POPC   C3A30785  22.890   1.118   8.007
 2305POPC   C4A30786  22.884   1.194   7.596
 2305POPC   C1B30787  22.926   1.520   8.741
 2305POPC   C2B30788  23.035   1.490   8.326
 2305POPC   C3B30789  22.972   1.618   7.899
 2305POPC   C4B30790  23.184   1.584   7.486
 2306POPC   NC330791   8.469   3.073   9.208
 2306POPC   PO430792   8.109   2.618   9.580
 2306POPC   GL130793   8.024   2.733   9.138
 2306POPC   GL230794   7.997   3.043   9.021
 2306POPC   C1A30795   8.262   2.694   8.697
 2306POPC   D2A30796   8.409   2.712   8.233
 2306POPC   C3A30797   8.030   2.595   7.987
 2306POPC   C4A30798   7.742   2.343   7.739
 2306POPC   C1B30799   8.150   3.197   8.627
 2306POPC   C2B30800   8.014   3.038   8.257
 2306POPC   C3B30801   8.244   3.050   7.842
 2306POPC   C4B30802   8.480   2.744   7.598
 2307POPC   NC330803  28.258   2.945   9.512
 2307POPC   PO430804  28.215   2.352   9.495
 2307POPC   GL130805  28.439   2.592   9.163
 2307POPC   GL230806  28.417   2.955   9.034
 2307POPC   C1A30807  28.523   2.542   8.728
 2307POPC   D2A30808  28.327   2.611   8.311
 2307POPC   C3A30809  28.596   2.584   7.928
 2307POPC   C4A30810  28.449   2.735   7.519
 2307POPC   C1B30811  28.456   3.032   8.609
 2307POPC   C2B30812  28.152   3.134   8.307
 2307POPC   C3B30813  28.241   2.969   7.920
 2307POPC   C4B30814  28.678   3.096   7.810
 2308POPC   NC330815  44.558   6.872   9.443
 2308POPC   PO430816  44.433   6.227   9.486
 2308POPC   GL130817  44.589   6.476   9.108
 2308POPC   GL230818  44.400   6.407   8.830
 2308POPC   C1A30819  44.830   6.677   8.726
 2308POPC   D2A30820  44.939   6.690   8.257
 2308POPC   C3A30821  44.647   6.972   7.988
 2308POPC   C4A30822  44.506   7.227   7.635
 2308POPC   C1B30823  44.776   6.160   8.694
 2308POPC   C2B30824  44.938   6.150   8.306
 2308POPC   C3B30825  44.640   6.345   8.017
 2308POPC   C4B30826  44.407   6.610   7.711
 2309POPC   NC330827  42.085  43.890   9.441
 2309POPC   PO430828  42.749  44.090   9.540
 2309POPC   GL130829  42.505  44.076   9.197
 2309POPC   GL230830  42.517  43.692   9.190
 2309POPC   C1A30831  42.424  44.126   8.777
 2309POPC   D2A30832  42.093  44.010   8.471
 2309POPC   C3A30833  42.250  43.981   8.056
 2309POPC   C4A30834  42.126  44.070   7.661
 2309POPC   C1B30835  42.296  43.628   8.800
 2309POPC   C2B30836  42.465  43.622   8.372
 2309POPC   C3B30837  42.437  43.522   7.916
 2309POPC   C4B30838  42.507  43.670   7.480
 2310POPC   NC330839   9.341  40.466   9.549
 2310POPC   PO430840   8.951  40.932   9.739
 2310POPC   GL130841   9.060  40.807   9.248
 2310POPC   GL230842   8.840  40.906   9.029
 2310POPC   C1A30843   9.284  40.772   8.807
 2310POPC   D2A30844   9.450  40.623   8.411
 2310POPC   C3A30845   9.128  40.742   8.103
 2310POPC   C4A30846   9.021  40.745   7.675
 2310POPC   C1B30847   8.747  41.198   8.710
 2310POPC   C2B30848   8.815  41.111   8.291
 2310POPC   C3B30849   8.822  41.224   7.874
 2310POPC   C4B30850   8.861  41.169   7.422
 2311POPC   NC330851  24.500  23.206   9.863
 2311POPC   PO430852  24.447  23.818   9.511
 2311POPC   GL130853  24.717  23.838   9.160
 2311POPC   GL230854  24.453  23.943   8.962
 2311POPC   C1A30855  24.874  23.695   8.785
 2311POPC   D2A30856  24.631  23.702   8.448
 2311POPC   C3A30857  24.776  23.867   8.083
 2311POPC   C4A30858  24.419  23.870   7.857
 2311POPC   C1B30859  24.183  23.646   8.755
 2311POPC   C2B30860  24.162  23.497   8.336
 2311POPC   C3B30861  24.056  23.501   7.922
 2311POPC   C4B30862  24.240  23.255   7.631
 2312POPC   NC330863  32.988  17.882   9.285
 2312POPC   PO430864  32.994  18.571   9.455
 2312POPC   GL130865  33.069  18.349   9.113
 2312POPC   GL230866  33.354  18.519   9.036
 2312POPC   C1A30867  32.827  18.283   8.744
 2312POPC   D2A30868  32.623  18.091   8.405
 2312POPC   C3A30869  32.689  18.298   8.013
 2312POPC   C4A30870  33.030  18.120   7.778
 2312POPC   C1B30871  33.313  18.169   8.707
 2312POPC   C2B30872  33.130  18.296   8.299
 2312POPC   C3B30873  33.311  18.499   7.931
 2312POPC   C4B30874  33.512  18.534   7.496
 2313POPC   NC330875  13.609  29.750   9.419
 2313POPC   PO430876  13.252  30.346   9.240
 2313POPC   GL130877  13.562  30.100   9.011
 2313POPC   GL230878  13.913  30.117   9.098
 2313POPC   C1A30879  13.590  29.713   8.753
 2313POPC   D2A30880  13.374  29.639   8.378
 2313POPC   C3A30881  13.313  30.008   8.153
 2313POPC   C4A30882  13.486  30.197   7.798
 2313POPC   C1B30883  13.949  30.283   8.661
 2313POPC   C2B30884  13.808  30.220   8.233
 2313POPC   C3B30885  13.941  29.882   7.956
 2313POPC   C4B30886  13.901  29.443   7.834
 2314POPC   NC330887  17.495  38.604   9.553
 2314POPC   PO430888  17.427  37.950   9.739
 2314POPC   GL130889  17.393  38.220   9.254
 2314POPC   GL230890  17.276  38.618   9.072
 2314POPC   C1A30891  17.651  38.409   8.858
 2314POPC   D2A30892  17.637  38.630   8.445
 2314POPC   C3A30893  17.493  38.367   8.090
 2314POPC   C4A30894  17.548  38.124   7.695
 2314POPC   C1B30895  17.239  38.971   8.718
 2314POPC   C2B30896  17.337  39.112   8.281
 2314POPC   C3B30897  17.546  38.863   7.980
 2314POPC   C4B30898  17.747  38.585   7.691
 2315POPC   NC330899  11.143  42.142   9.451
 2315POPC   PO430900  11.669  42.583   9.518
 2315POPC   GL130901  11.337  42.507   9.138
 2315POPC   GL230902  11.179  42.228   8.969
 2315POPC   C1A30903  11.094  42.672   8.760
 2315POPC   D2A30904  10.967  42.584   8.302
 2315POPC   C3A30905  11.193  42.285   8.025
 2315POPC   C4A30906  11.387  42.236   7.596
 2315POPC   C1B30907  11.001  41.980   8.669
 2315POPC   C2B30908  10.790  42.036   8.264
 2315POPC   C3B30909  10.847  41.929   7.824
 2315POPC   C4B30910  11.016  41.905   7.377
 2316POPC   NC330911   5.784  21.322   9.593
 2316POPC   PO430912   5.859  21.955   9.370
 2316POPC   GL130913   5.938  21.523   9.148
 2316POPC   GL230914   5.731  21.172   9.126
 2316POPC   C1A30915   5.982  21.342   8.743
 2316POPC   D2A30916   5.705  21.246   8.433
 2316POPC   C3A30917   5.964  21.264   8.118
 2316POPC   C4A30918   5.813  21.285   7.729
 2316POPC   C1B30919   5.631  20.894   8.790
 2316POPC   C2B30920   5.854  20.757   8.402
 2316POPC   C3B30921   5.645  20.877   8.014
 2316POPC   C4B30922   5.689  20.822   7.584
 2317POPC   NC330923  33.831  37.356   9.646
 2317POPC   PO430924  33.985  36.699   9.529
 2317POPC   GL130925  33.639  36.913   9.285
 2317POPC   GL230926  33.372  36.688   9.123
 2317POPC   C1A30927  33.690  37.160   8.900
 2317POPC   D2A30928  33.858  37.033   8.472
 2317POPC   C3A30929  33.760  37.233   8.070
 2317POPC   C4A30930  33.418  37.189   7.783
 2317POPC   C1B30931  33.707  36.655   8.807
 2317POPC   C2B30932  33.763  36.527   8.383
 2317POPC   C3B30933  33.747  36.713   7.981
 2317POPC   C4B30934  33.514  36.711   7.619
 2318POPC   NC330935  11.099  18.718   9.497
 2318POPC   PO430936  11.387  19.367   9.312
 2318POPC   GL130937  11.274  19.008   9.112
 2318POPC   GL230938  11.023  19.160   9.004
 2318POPC   C1A30939  11.176  18.816   8.689
 2318POPC   D2A30940  11.124  18.663   8.289
 2318POPC   C3A30941  11.391  18.864   7.965
 2318POPC   C4A30942  11.182  18.822   7.545
 2318POPC   C1B30943  10.934  19.350   8.651
 2318POPC   C2B30944  11.023  19.186   8.255
 2318POPC   C3B30945  11.063  19.217   7.837
 2318POPC   C4B30946  11.419  19.495   7.696
 2319POPC   NC330947  37.338   0.694   9.388
 2319POPC   PO430948  36.704   0.547   9.528
 2319POPC   GL130949  36.927   0.464   9.173
 2319POPC   GL230950  37.043   0.192   9.121
 2319POPC   C1A30951  36.802   0.473   8.753
 2319POPC   D2A30952  36.774   0.228   8.394
 2319POPC   C3A30953  36.757   0.368   7.984
 2319POPC   C4A30954  36.493   0.699   7.797
 2319POPC   C1B30955  37.324   0.370   8.831
 2319POPC   C2B30956  37.249   0.403   8.438
 2319POPC   C3B30957  37.192   0.053   8.163
 2319POPC   C4B30958  37.281   0.161   7.750
 2320POPC   NC330959  13.982  27.006   9.574
 2320POPC   PO430960  13.487  26.513   9.582
 2320POPC   GL130961  13.743  26.687   9.264
 2320POPC   GL230962  13.860  26.425   9.082
 2320POPC   C1A30963  13.750  27.060   8.953
 2320POPC   D2A30964  13.638  27.095   8.503
 2320POPC   C3A30965  13.945  27.129   8.158
 2320POPC   C4A30966  13.810  26.971   7.756
 2320POPC   C1B30967  13.579  26.631   8.777
 2320POPC   C2B30968  13.542  26.590   8.345
 2320POPC   C3B30969  13.375  26.816   8.011
 2320POPC   C4B30970  13.305  26.882   7.580
 2321POPC   NC330971  30.823  14.437   9.501
 2321POPC   PO430972  30.326  14.537   9.175
 2321POPC   GL130973  30.668  14.504   8.946
 2321POPC   GL230974  30.833  14.239   8.957
 2321POPC   C1A30975  30.645  14.527   8.527
 2321POPC   D2A30976  30.353  14.648   8.246
 2321POPC   C3A30977  30.544  14.581   7.897
 2321POPC   C4A30978  30.914  14.436   7.741
 2321POPC   C1B30979  31.054  14.122   8.615
 2321POPC   C2B30980  30.862  14.149   8.232
 2321POPC   C3B30981  31.137  14.040   7.970
 2321POPC   C4B30982  31.137  13.980   7.575
 2322POPC   NC330983   6.248  44.890   9.465
 2322POPC   PO430984   5.579   0.030   9.452
 2322POPC   GL130985   5.862  44.764   9.156
 2322POPC   GL230986   6.185  44.546   9.079
 2322POPC   C1A30987   5.748  44.624   8.768
 2322POPC   D2A30988   5.544  44.337   8.497
 2322POPC   C3A30989   5.792  44.402   8.143
 2322POPC   C4A30990   5.730  44.576   7.757
 2322POPC   C1B30991   6.214  44.891   8.775
 2322POPC   C2B30992   6.032  44.832   8.383
 2322POPC   C3B30993   5.915   0.037   8.048
 2322POPC   C4B30994   6.141  44.870   7.717
 2323POPC   NC330995  39.719  43.640   9.557
 2323POPC   PO430996  40.251  44.089   9.571
 2323POPC   GL130997  40.052  43.918   9.229
 2323POPC   GL230998  39.710  44.074   9.235
 2323POPC   C1A30999  40.219  43.885   8.797
 2323POPC   D2A31000  40.299  44.165   8.439
 2323POPC   C3A31001  40.215  43.972   8.011
 2323POPC   C4A31002  40.054  43.846   7.546
 2323POPC   C1B31003  39.715  43.895   8.816
 2323POPC   C2B31004  39.898  43.797   8.387
 2323POPC   C3B31005  39.711  43.846   7.959
 2323POPC   C4B31006  39.597  44.128   7.620
 2324POPC   NC331007  38.740  15.338   9.507
 2324POPC   PO431008  38.247  14.798   9.474
 2324POPC   GL131009  38.367  15.119   9.149
 2324POPC   GL231010  38.719  15.048   9.089
 2324POPC   C1A31011  38.193  15.441   8.834
 2324POPC   D2A31012  38.075  15.659   8.405
 2324POPC   C3A31013  38.203  15.471   7.959
 2324POPC   C4A31014  38.274  15.282   7.544
 2324POPC   C1B31015  38.598  15.007   8.664
 2324POPC   C2B31016  38.324  14.858   8.347
 2324POPC   C3B31017  38.305  14.927   7.901
 2324POPC   C4B31018  38.585  14.887   7.510
 2325POPC   NC331019  28.255  37.074   9.646
 2325POPC   PO431020  28.591  36.516   9.635
 2325POPC   GL131021  28.556  36.841   9.305
 2325POPC   GL231022  28.201  36.902   9.153
 2325POPC   C1A31023  28.612  37.059   8.911
 2325POPC   D2A31024  28.369  36.952   8.537
 2325POPC   C3A31025  28.586  37.013   8.150
 2325POPC   C4A31026  28.418  36.949   7.740
 2325POPC   C1B31027  28.404  36.557   8.887
 2325POPC   C2B31028  28.326  36.432   8.447
 2325POPC   C3B31029  28.376  36.527   8.023
 2325POPC   C4B31030  28.438  36.401   7.588
 2326POPC   NC331031  43.424  32.797   9.700
 2326POPC   PO431032  42.938  33.247   9.722
 2326POPC   GL131033  43.083  33.177   9.281
 2326POPC   GL231034  43.193  32.835   9.248
 2326POPC   C1A31035  43.069  33.126   8.810
 2326POPC   D2A31036  42.978  32.853   8.454
 2326POPC   C3A31037  42.939  33.066   8.041
 2326POPC   C4A31038  43.278  33.342   7.955
 2326POPC   C1B31039  43.389  32.735   8.881
 2326POPC   C2B31040  43.488  32.629   8.465
 2326POPC   C3B31041  43.377  32.773   8.090
 2326POPC   C4B31042  43.363  32.923   7.696
 2327POPC   NC331043  27.388  22.760   9.653
 2327POPC   PO431044  26.793  22.818   9.612
 2327POPC   GL131045  26.643  22.782   9.152
 2327POPC   GL231046  26.657  23.088   9.055
 2327POPC   C1A31047  26.448  22.808   8.712
 2327POPC   D2A31048  26.678  22.907   8.281
 2327POPC   C3A31049  26.467  22.703   7.932
 2327POPC   C4A31050  26.444  22.776   7.470
 2327POPC   C1B31051  26.758  23.250   8.699
 2327POPC   C2B31052  27.113  23.098   8.509
 2327POPC   C3B31053  27.141  23.168   8.092
 2327POPC   C4B31054  26.832  23.000   7.783
 2328POPC   NC331055  35.240  20.756   9.673
 2328POPC   PO431056  35.774  20.866   9.283
 2328POPC   GL131057  35.416  20.642   9.191
 2328POPC   GL231058  35.090  20.800   9.185
 2328POPC   C1A31059  35.233  20.454   8.810
 2328POPC   D2A31060  35.014  20.341   8.420
 2328POPC   C3A31061  35.137  20.436   7.987
 2328POPC   C4A31062  34.949  20.448   7.557
 2328POPC   C1B31063  35.310  20.956   8.813
 2328POPC   C2B31064  35.285  20.835   8.410
 2328POPC   C3B31065  35.395  20.876   8.009
 2328POPC   C4B31066  35.767  20.821   7.761
 2329POPC   NC331067  36.939   0.170   9.628
 2329POPC   PO431068  36.830  44.565   9.534
 2329POPC   GL131069  37.114  44.702   9.203
 2329POPC   GL231070  36.944  44.499   8.993
 2329POPC   C1A31071  37.111  44.908   8.723
 2329POPC   D2A31072  36.853  44.714   8.426
 2329POPC   C3A31073  36.945  44.441   8.099
 2329POPC   C4A31074  37.232  44.637   7.837
 2329POPC   C1B31075  36.625  44.349   8.708
 2329POPC   C2B31076  36.444  44.421   8.292
 2329POPC   C3B31077  36.489  44.362   7.855
 2329POPC   C4B31078  36.819  44.481   7.577
 2330POPC   NC331079  37.732  21.114   9.650
 2330POPC   PO431080  37.425  21.706   9.620
 2330POPC   GL131081  37.575  21.485   9.204
 2330POPC   GL231082  37.517  21.130   9.146
 2330POPC   C1A31083  37.813  21.425   8.789
 2330POPC   D2A31084  37.694  21.491   8.389
 2330POPC   C3A31085  37.967  21.579   8.080
 2330POPC   C4A31086  37.821  21.483   7.724
 2330POPC   C1B31087  37.302  21.333   8.758
 2330POPC   C2B31088  37.191  21.506   8.334
 2330POPC   C3B31089  37.303  21.486   7.885
 2330POPC   C4B31090  37.499  21.089   7.730
 2331POPC   NC331091  12.324  25.459   9.636
 2331POPC   PO431092  11.956  25.002   9.299
 2331POPC   GL131093  12.044  25.213   8.922
 2331POPC   GL231094  12.306  25.417   9.124
 2331POPC   C1A31095  11.736  25.387   8.642
 2331POPC   D2A31096  11.614  25.287   8.248
 2331POPC   C3A31097  12.028  25.294   8.110
 2331POPC   C4A31098  12.316  25.573   7.918
 2331POPC   C1B31099  12.532  25.115   8.865
 2331POPC   C2B31100  12.409  25.001   8.454
 2331POPC   C3B31101  12.390  24.854   8.051
 2331POPC   C4B31102  12.192  25.064   7.702
 2332POPC   NC331103  19.739  15.032   9.789
 2332POPC   PO431104  19.480  15.473   9.519
 2332POPC   GL131105  19.750  15.199   9.276
 2332POPC   GL231106  19.763  15.465   9.033
 2332POPC   C1A31107  19.949  15.042   8.867
 2332POPC   D2A31108  19.801  15.286   8.474
 2332POPC   C3A31109  19.772  15.125   8.033
 2332POPC   C4A31110  19.831  14.933   7.607
 2332POPC   C1B31111  19.513  15.668   8.723
 2332POPC   C2B31112  19.391  15.581   8.281
 2332POPC   C3B31113  19.571  15.574   7.850
 2332POPC   C4B31114  19.504  15.293   7.488
 2333POPC   NC331115  32.182  21.938   9.796
 2333POPC   PO431116  32.613  22.290   9.391
 2333POPC   GL131117  32.464  22.266   8.970
 2333POPC   GL231118  32.052  22.299   8.872
 2333POPC   C1A31119  32.399  21.969   8.676
 2333POPC   D2A31120  32.480  21.803   8.299
 2333POPC   C3A31121  32.169  21.957   8.030
 2333POPC   C4A31122  32.211  22.242   7.729
 2333POPC   C1B31123  32.275  22.483   8.564
 2333POPC   C2B31124  32.462  22.354   8.213
 2333POPC   C3B31125  32.419  22.660   7.883
 2333POPC   C4B31126  32.326  22.654   7.431
 2334POPC   NC331127  35.662  35.807   9.178
 2334POPC   PO431128  36.018  35.263   9.365
 2334POPC   GL131129  36.200  35.253   8.983
 2334POPC   GL231130  36.338  35.563   9.025
 2334POPC   C1A31131  36.122  35.254   8.540
 2334POPC   D2A31132  36.307  35.087   8.163
 2334POPC   C3A31133  35.988  35.011   7.868
 2334POPC   C4A31134  35.737  35.302   7.623
 2334POPC   C1B31135  36.346  35.733   8.629
 2334POPC   C2B31136  36.371  35.599   8.223
 2334POPC   C3B31137  36.149  35.516   7.852
 2334POPC   C4B31138  35.976  35.796   7.521
 2335POPC   NC331139  14.698  14.132   9.427
 2335POPC   PO431140  14.482  14.754   9.266
 2335POPC   GL131141  14.547  14.473   9.010
 2335POPC   GL231142  14.318  14.197   9.062
 2335POPC   C1A31143  14.319  14.457   8.630
 2335POPC   D2A31144  14.188  14.103   8.402
 2335POPC   C3A31145  14.267  14.291   8.029
 2335POPC   C4A31146  14.531  14.595   7.873
 2335POPC   C1B31147  14.627  14.055   8.740
 2335POPC   C2B31148  14.696  13.927   8.307
 2335POPC   C3B31149  14.778  14.138   7.919
 2335POPC   C4B31150  14.673  14.249   7.473
 2336POPC   NC331151  35.050   0.963   9.438
 2336POPC   PO431152  34.523   1.279   9.493
 2336POPC   GL131153  34.651   1.284   9.101
 2336POPC   GL231154  34.997   1.381   9.083
 2336POPC   C1A31155  34.434   1.284   8.719
 2336POPC   D2A31156  34.193   1.139   8.346
 2336POPC   C3A31157  34.399   1.119   7.945
 2336POPC   C4A31158  34.353   1.479   7.625
 2336POPC   C1B31159  34.917   1.044   8.756
 2336POPC   C2B31160  34.722   1.068   8.348
 2336POPC   C3B31161  34.789   1.408   8.025
 2336POPC   C4B31162  34.779   1.208   7.604
 2337POPC   NC331163   0.990  25.640   9.336
 2337POPC   PO431164   1.385  25.135   9.514
 2337POPC   GL131165   1.154  25.193   9.154
 2337POPC   GL231166   1.393  25.274   8.959
 2337POPC   C1A31167   0.910  25.294   8.746
 2337POPC   D2A31168   1.131  25.235   8.400
 2337POPC   C3A31169   0.983  25.007   8.070
 2337POPC   C4A31170   1.150  24.972   7.674
 2337POPC   C1B31171   1.485  25.540   8.626
 2337POPC   C2B31172   1.356  25.642   8.195
 2337POPC   C3B31173   1.238  25.525   7.767
 2337POPC   C4B31174   1.241  25.754   7.373
 2338POPC   NC331175  12.866  36.667   9.487
 2338POPC   PO431176  12.693  37.324   9.304
 2338POPC   GL131177  12.999  37.112   9.068
 2338POPC   GL231178  13.074  36.739   9.052
 2338POPC   C1A31179  12.990  37.025   8.656
 2338POPC   D2A31180  13.186  36.865   8.339
 2338POPC   C3A31181  12.964  37.067   8.047
 2338POPC   C4A31182  12.775  37.179   7.703
 2338POPC   C1B31183  12.970  36.506   8.693
 2338POPC   C2B31184  12.825  36.440   8.308
 2338POPC   C3B31185  13.037  36.543   7.979
 2338POPC   C4B31186  12.952  36.710   7.635
 2339POPC   NC331187  11.170  44.500   9.578
 2339POPC   PO431188  11.763  44.862   9.454
 2339POPC   GL131189  11.487  44.623   9.197
 2339POPC   GL231190  11.147  44.833   9.181
 2339POPC   C1A31191  11.325  44.552   8.784
 2339POPC   D2A31192  11.345  44.777   8.413
 2339POPC   C3A31193  11.306  44.594   8.009
 2339POPC   C4A31194  11.690  44.394   7.879
 2339POPC   C1B31195  10.862  44.809   8.796
 2339POPC   C2B31196  10.845  44.688   8.363
 2339POPC   C3B31197  10.687  44.788   7.965
 2339POPC   C4B31198  10.873  44.397   7.793
 2340POPC   NC331199   9.312  27.509   9.557
 2340POPC   PO431200   8.861  28.045   9.470
 2340POPC   GL131201   8.807  27.795   9.125
 2340POPC   GL231202   9.055  27.558   9.118
 2340POPC   C1A31203   8.887  27.794   8.683
 2340POPC   D2A31204   9.072  27.673   8.306
 2340POPC   C3A31205   8.893  27.683   7.895
 2340POPC   C4A31206   9.170  27.486   7.631
 2340POPC   C1B31207   8.766  27.318   8.879
 2340POPC   C2B31208   8.751  27.213   8.457
 2340POPC   C3B31209   8.957  27.210   8.068
 2340POPC   C4B31210   8.769  27.180   7.670
 2341POPC   NC331211  21.701   8.829   9.504
 2341POPC   PO431212  21.278   9.330   9.533
 2341POPC   GL131213  21.414   9.098   9.177
 2341POPC   GL231214  21.575   9.378   9.112
 2341POPC   C1A31215  21.482   8.872   8.776
 2341POPC   D2A31216  21.327   8.983   8.352
 2341POPC   C3A31217  21.510   8.787   7.973
 2341POPC   C4A31218  21.545   8.717   7.487
 2341POPC   C1B31219  21.335   9.375   8.737
 2341POPC   C2B31220  21.517   9.455   8.340
 2341POPC   C3B31221  21.303   9.426   7.975
 2341POPC   C4B31222  21.398   9.182   7.669
 2342POPC   NC331223  21.394  40.949   9.757
 2342POPC   PO431224  21.381  41.538   9.598
 2342POPC   GL131225  21.248  41.606   9.183
 2342POPC   GL231226  21.535  41.414   9.103
 2342POPC   C1A31227  21.315  41.735   8.733
 2342POPC   D2A31228  21.165  41.817   8.302
 2342POPC   C3A31229  21.435  41.644   7.954
 2342POPC   C4A31230  21.500  41.819   7.534
 2342POPC   C1B31231  21.231  41.225   8.818
 2342POPC   C2B31232  21.263  41.302   8.361
 2342POPC   C3B31233  21.163  41.192   7.929
 2342POPC   C4B31234  21.353  41.304   7.530
 2343POPC   NC331235  39.377  14.684   9.463
 2343POPC   PO431236  38.970  14.186   9.749
 2343POPC   GL131237  39.123  14.262   9.280
 2343POPC   GL231238  39.518  14.274   9.192
 2343POPC   C1A31239  39.208  14.279   8.798
 2343POPC   D2A31240  39.423  14.382   8.431
 2343POPC   C3A31241  39.188  14.388   8.106
 2343POPC   C4A31242  39.188  14.391   7.704
 2343POPC   C1B31243  39.601  14.635   8.857
 2343POPC   C2B31244  39.692  14.811   8.421
 2343POPC   C3B31245  39.638  14.726   7.979
 2343POPC   C4B31246  39.677  14.507   7.612
 2344POPC   NC331247  13.945  13.434   9.201
 2344POPC   PO431248  13.417  13.817   9.418
 2344POPC   GL131249  13.491  13.710   9.033
 2344POPC   GL231250  13.451  13.362   9.072
 2344POPC   C1A31251  13.694  13.656   8.620
 2344POPC   D2A31252  13.739  13.429   8.204
 2344POPC   C3A31253  13.893  13.691   7.871
 2344POPC   C4A31254  13.830  13.905   7.455
 2344POPC   C1B31255  13.266  13.360   8.700
 2344POPC   C2B31256  13.267  13.575   8.326
 2344POPC   C3B31257  13.290  13.405   7.909
 2344POPC   C4B31258  13.518  13.519   7.562
 2345POPC   NC331259  14.769   0.772   9.436
 2345POPC   PO431260  14.305   0.316   9.533
 2345POPC   GL131261  14.226   0.462   9.165
 2345POPC   GL231262  14.314   0.757   9.182
 2345POPC   C1A31263  14.415   0.445   8.747
 2345POPC   D2A31264  14.790   0.508   8.493
 2345POPC   C3A31265  14.761   0.445   8.038
 2345POPC   C4A31266  14.760   0.653   7.645
 2345POPC   C1B31267  14.567   0.910   8.808
 2345POPC   C2B31268  14.422   0.848   8.387
 2345POPC   C3B31269  14.260   0.548   8.086
 2345POPC   C4B31270  14.218   0.642   7.674
 2346POPC   NC331271  25.660  37.521   9.249
 2346POPC   PO431272  26.303  37.252   9.481
 2346POPC   GL131273  26.202  37.537   9.145
 2346POPC   GL231274  26.237  37.906   9.198
 2346POPC   C1A31275  26.154  37.402   8.716
 2346POPC   D2A31276  26.262  37.235   8.293
 2346POPC   C3A31277  26.206  37.485   7.932
 2346POPC   C4A31278  25.867  37.635   7.700
 2346POPC   C1B31279  26.121  37.937   8.743
 2346POPC   C2B31280  26.062  37.871   8.282
 2346POPC   C3B31281  26.130  38.039   7.869
 2346POPC   C4B31282  26.087  38.427   7.679
 2347POPC   NC331283   1.810  24.989   9.446
 2347POPC   PO431284   2.341  25.408   9.410
 2347POPC   GL131285   2.157  25.146   9.117
 2347POPC   GL231286   1.877  25.378   9.088
 2347POPC   C1A31287   2.308  24.974   8.760
 2347POPC   D2A31288   2.484  25.239   8.475
 2347POPC   C3A31289   2.253  25.161   8.153
 2347POPC   C4A31290   2.150  25.276   7.762
 2347POPC   C1B31291   1.970  25.339   8.633
 2347POPC   C2B31292   1.776  25.332   8.227
 2347POPC   C3B31293   1.742  25.605   7.870
 2347POPC   C4B31294   1.742  25.622   7.428
 2348POPC   NC331295   2.852  23.501   9.986
 2348POPC   PO431296   2.825  23.943   9.463
 2348POPC   GL131297   2.716  23.821   9.127
 2348POPC   GL231298   3.025  23.652   9.057
 2348POPC   C1A31299   2.510  23.677   8.812
 2348POPC   D2A31300   2.507  23.555   8.395
 2348POPC   C3A31301   2.902  23.491   8.181
 2348POPC   C4A31302   2.907  23.710   7.803
 2348POPC   C1B31303   2.943  23.907   8.680
 2348POPC   C2B31304   2.985  24.000   8.227
 2348POPC   C3B31305   3.050  24.176   7.825
 2348POPC   C4B31306   3.132  23.980   7.402
 2349POPC   NC331307  40.325  30.472   9.566
 2349POPC   PO431308  39.712  30.663   9.355
 2349POPC   GL131309  39.981  30.688   9.053
 2349POPC   GL231310  40.286  30.826   9.118
 2349POPC   C1A31311  40.100  30.649   8.637
 2349POPC   D2A31312  40.320  30.412   8.351
 2349POPC   C3A31313  40.114  30.582   8.007
 2349POPC   C4A31314  40.034  30.340   7.646
 2349POPC   C1B31315  40.290  31.121   8.744
 2349POPC   C2B31316  40.115  31.148   8.307
 2349POPC   C3B31317  40.242  31.064   7.868
 2349POPC   C4B31318  40.632  30.917   7.656
 2350POPC   NC331319   3.190  24.214   9.372
 2350POPC   PO431320   3.816  24.180   9.561
 2350POPC   GL131321   3.727  24.395   9.159
 2350POPC   GL231322   3.641  24.731   9.194
 2350POPC   C1A31323   3.446  24.459   8.796
 2350POPC   D2A31324   3.370  24.170   8.489
 2350POPC   C3A31325   3.522  24.292   8.060
 2350POPC   C4A31326   3.456  24.359   7.614
 2350POPC   C1B31327   3.798  24.842   8.799
 2350POPC   C2B31328   3.792  24.633   8.404
 2350POPC   C3B31329   3.628  24.810   8.064
 2350POPC   C4B31330   3.575  24.852   7.660
 2351POPC   NC331331   0.449  23.521   9.843
 2351POPC   PO431332   0.195  24.057   9.498
 2351POPC   GL131333   0.344  23.926   9.087
 2351POPC   GL231334   0.549  23.655   9.142
 2351POPC   C1A31335   0.652  23.997   8.740
 2351POPC   D2A31336   0.837  23.864   8.314
 2351POPC   C3A31337   0.639  23.845   7.897
 2351POPC   C4A31338   0.557  23.822   7.446
 2351POPC   C1B31339   0.503  23.521   8.684
 2351POPC   C2B31340   0.374  23.564   8.229
 2351POPC   C3B31341   0.196  23.590   7.779
 2351POPC   C4B31342   0.186  23.445   7.333
 2352POPC   NC331343  10.663  31.124   9.599
 2352POPC   PO431344  10.470  30.489   9.601
 2352POPC   GL131345  10.520  30.742   9.213
 2352POPC   GL231346  10.436  31.112   9.159
 2352POPC   C1A31347  10.714  30.706   8.811
 2352POPC   D2A31348  10.899  30.694   8.419
 2352POPC   C3A31349  10.719  30.492   8.114
 2352POPC   C4A31350  10.630  30.615   7.730
 2352POPC   C1B31351  10.320  31.025   8.766
 2352POPC   C2B31352  10.363  30.767   8.422
 2352POPC   C3B31353  10.417  30.965   8.057
 2352POPC   C4B31354  10.250  30.924   7.667
 2353POPC   NC331355  22.750  35.795   9.405
 2353POPC   PO431356  22.640  36.482   9.428
 2353POPC   GL131357  22.828  36.214   9.099
 2353POPC   GL231358  23.137  36.045   9.166
 2353POPC   C1A31359  22.823  36.036   8.711
 2353POPC   D2A31360  22.615  35.864   8.372
 2353POPC   C3A31361  22.570  36.110   8.006
 2353POPC   C4A31362  22.831  36.158   7.645
 2353POPC   C1B31363  23.305  35.886   8.788
 2353POPC   C2B31364  23.154  35.753   8.399
 2353POPC   C3B31365  23.019  35.857   8.020
 2353POPC   C4B31366  23.197  35.768   7.626
 2354POPC   NC331367  40.584   3.596   9.493
 2354POPC   PO431368  41.258   3.218   9.559
 2354POPC   GL131369  40.952   3.317   9.178
 2354POPC   GL231370  40.612   3.409   9.030
 2354POPC   C1A31371  41.087   3.520   8.764
 2354POPC   D2A31372  41.304   3.480   8.372
 2354POPC   C3A31373  41.069   3.425   8.005
 2354POPC   C4A31374  40.890   3.683   7.688
 2354POPC   C1B31375  40.664   3.290   8.616
 2354POPC   C2B31376  40.618   3.248   8.188
 2354POPC   C3B31377  40.438   3.495   7.851
 2354POPC   C4B31378  40.448   3.545   7.413
 2355POPC   NC331379  30.324  26.576   9.500
 2355POPC   PO431380  30.951  27.009   9.539
 2355POPC   GL131381  30.738  26.777   9.242
 2355POPC   GL231382  30.896  26.426   9.240
 2355POPC   C1A31383  30.472  26.943   8.900
 2355POPC   D2A31384  30.617  26.975   8.501
 2355POPC   C3A31385  30.398  26.896   8.144
 2355POPC   C4A31386  30.496  26.992   7.769
 2355POPC   C1B31387  30.824  26.569   8.780
 2355POPC   C2B31388  30.605  26.477   8.384
 2355POPC   C3B31389  30.694  26.526   7.942
 2355POPC   C4B31390  30.682  26.589   7.489
 2356POPC   NC331391  22.961  12.589   9.504
 2356POPC   PO431392  22.740  13.255   9.352
 2356POPC   GL131393  22.975  12.930   9.078
 2356POPC   GL231394  22.895  12.515   9.016
 2356POPC   C1A31395  23.173  13.054   8.671
 2356POPC   D2A31396  23.287  13.285   8.275
 2356POPC   C3A31397  23.094  13.125   7.915
 2356POPC   C4A31398  23.139  12.730   7.678
 2356POPC   C1B31399  22.775  12.739   8.648
 2356POPC   C2B31400  22.928  12.743   8.238
 2356POPC   C3B31401  22.784  12.502   7.920
 2356POPC   C4B31402  22.689  12.545   7.451
 2357POPC   NC331403  43.222   3.647   9.548
 2357POPC   PO431404  43.034   3.034   9.586
 2357POPC   GL131405  43.043   3.337   9.157
 2357POPC   GL231406  42.990   3.775   9.125
 2357POPC   C1A31407  42.973   3.471   8.726
 2357POPC   D2A31408  43.071   3.275   8.354
 2357POPC   C3A31409  42.908   3.457   7.986
 2357POPC   C4A31410  43.028   3.306   7.611
 2357POPC   C1B31411  43.214   3.920   8.792
 2357POPC   C2B31412  43.298   3.743   8.390
 2357POPC   C3B31413  43.185   3.882   7.981
 2357POPC   C4B31414  43.359   3.685   7.622
 2358POPC   NC331415  27.581  35.580   9.576
 2358POPC   PO431416  27.529  35.105   9.104
 2358POPC   GL131417  27.744  35.485   9.023
 2358POPC   GL231418  27.515  35.747   9.097
 2358POPC   C1A31419  27.728  35.488   8.577
 2358POPC   D2A31420  27.629  35.117   8.317
 2358POPC   C3A31421  27.505  35.176   7.889
 2358POPC   C4A31422  27.662  35.431   7.570
 2358POPC   C1B31423  27.282  35.688   8.724
 2358POPC   C2B31424  27.282  35.492   8.290
 2358POPC   C3B31425  27.291  35.628   7.855
 2358POPC   C4B31426  27.214  35.540   7.357
 2359POPC   NC331427  31.200  37.803   9.746
 2359POPC   PO431428  30.572  37.580   9.580
 2359POPC   GL131429  30.733  37.556   9.135
 2359POPC   GL231430  30.960  37.223   9.137
 2359POPC   C1A31431  30.691  37.825   8.743
 2359POPC   D2A31432  30.495  37.703   8.364
 2359POPC   C3A31433  30.583  37.896   7.995
 2359POPC   C4A31434  30.605  37.836   7.574
 2359POPC   C1B31435  30.882  37.338   8.709
 2359POPC   C2B31436  30.685  37.246   8.354
 2359POPC   C3B31437  30.652  37.393   7.949
 2359POPC   C4B31438  30.991  37.507   7.691
 2360POPC   NC331439   2.176   4.481   9.372
 2360POPC   PO431440   1.492   4.386   9.420
 2360POPC   GL131441   1.728   4.216   9.107
 2360POPC   GL231442   1.999   3.998   9.231
 2360POPC   C1A31443   1.807   4.449   8.747
 2360POPC   D2A31444   1.735   4.392   8.317
 2360POPC   C3A31445   1.942   4.633   8.013
 2360POPC   C4A31446   1.943   4.291   7.771
 2360POPC   C1B31447   2.138   4.045   8.791
 2360POPC   C2B31448   2.401   4.050   8.416
 2360POPC   C3B31449   2.317   3.993   7.987
 2360POPC   C4B31450   2.201   3.925   7.551
 2361POPC   NC331451  37.066   9.531   9.443
 2361POPC   PO431452  36.650  10.112   9.579
 2361POPC   GL131453  36.828   9.929   9.194
 2361POPC   GL231454  36.555   9.881   9.036
 2361POPC   C1A31455  37.064   9.762   8.834
 2361POPC   D2A31456  37.005   9.596   8.418
 2361POPC   C3A31457  37.032   9.842   8.062
 2361POPC   C4A31458  37.168   9.677   7.714
 2361POPC   C1B31459  36.531   9.696   8.670
 2361POPC   C2B31460  36.596   9.938   8.334
 2361POPC   C3B31461  36.488   9.918   7.950
 2361POPC   C4B31462  36.740  10.052   7.655
 2362POPC   NC331463  19.626  10.319   9.562
 2362POPC   PO431464  19.884  10.856   9.574
 2362POPC   GL131465  19.894  10.626   9.213
 2362POPC   GL231466  20.125  10.391   9.236
 2362POPC   C1A31467  19.895  10.747   8.788
 2362POPC   D2A31468  20.019  10.590   8.411
 2362POPC   C3A31469  19.729  10.711   8.061
 2362POPC   C4A31470  19.650  11.034   7.725
 2362POPC   C1B31471  19.999  10.256   8.813
 2362POPC   C2B31472  20.149  10.048   8.475
 2362POPC   C3B31473  20.049  10.216   8.086
 2362POPC   C4B31474  19.700  10.307   7.770
 2363POPC   NC331475  15.364  13.344   9.499
 2363POPC   PO431476  15.152  14.032   9.440
 2363POPC   GL131477  15.185  13.813   9.062
 2363POPC   GL231478  15.211  13.422   9.021
 2363POPC   C1A31479  15.067  13.813   8.646
 2363POPC   D2A31480  15.227  13.625   8.297
 2363POPC   C3A31481  15.237  13.835   7.904
 2363POPC   C4A31482  15.328  13.657   7.514
 2363POPC   C1B31483  14.840  13.356   8.785
 2363POPC   C2B31484  14.762  13.392   8.345
 2363POPC   C3B31485  14.955  13.396   7.927
 2363POPC   C4B31486  14.976  13.277   7.499
 2364POPC   NC331487  25.214  13.129   9.587
 2364POPC   PO431488  25.037  12.561   9.505
 2364POPC   GL131489  25.218  12.684   9.125
 2364POPC   GL231490  25.329  13.007   9.105
 2364POPC   C1A31491  25.031  12.784   8.722
 2364POPC   D2A31492  25.179  12.997   8.349
 2364POPC   C3A31493  25.066  12.833   7.936
 2364POPC   C4A31494  25.173  13.103   7.580
 2364POPC   C1B31495  25.519  12.915   8.726
 2364POPC   C2B31496  25.533  12.654   8.317
 2364POPC   C3B31497  25.546  12.958   7.958
 2364POPC   C4B31498  25.553  12.740   7.586
 2365POPC   NC331499  29.545  34.163   9.454
 2365POPC   PO431500  30.009  33.652   9.668
 2365POPC   GL131501  30.013  33.629   9.195
 2365POPC   GL231502  29.892  33.958   9.136
 2365POPC   C1A31503  29.697  33.626   8.820
 2365POPC   D2A31504  29.627  33.853   8.457
 2365POPC   C3A31505  29.613  33.582   8.127
 2365POPC   C4A31506  29.751  33.623   7.744
 2365POPC   C1B31507  30.072  33.965   8.734
 2365POPC   C2B31508  30.035  34.239   8.359
 2365POPC   C3B31509  30.083  34.177   7.910
 2365POPC   C4B31510  30.336  34.268   7.574
 2366POPC   NC331511  30.343  31.686   9.388
 2366POPC   PO431512  30.930  31.337   9.366
 2366POPC   GL131513  30.761  31.169   9.005
 2366POPC   GL231514  30.486  31.370   8.995
 2366POPC   C1A31515  30.916  31.314   8.612
 2366POPC   D2A31516  31.082  31.613   8.359
 2366POPC   C3A31517  30.805  31.633   8.034
 2366POPC   C4A31518  30.719  31.797   7.659
 2366POPC   C1B31519  30.480  31.580   8.600
 2366POPC   C2B31520  30.378  31.368   8.224
 2366POPC   C3B31521  30.367  31.420   7.779
 2366POPC   C4B31522  30.132  31.812   7.684
 2367POPC   NC331523   7.047   2.739   9.556
 2367POPC   PO431524   6.423   2.805   9.370
 2367POPC   GL131525   6.741   2.708   9.134
 2367POPC   GL231526   6.906   2.376   9.233
 2367POPC   C1A31527   6.709   2.846   8.714
 2367POPC   D2A31528   6.557   2.881   8.300
 2367POPC   C3A31529   6.469   2.675   7.949
 2367POPC   C4A31530   6.587   2.983   7.681
 2367POPC   C1B31531   7.024   2.449   8.815
 2367POPC   C2B31532   6.785   2.429   8.427
 2367POPC   C3B31533   6.947   2.501   8.050
 2367POPC   C4B31534   6.978   2.669   7.660
 2368POPC   NC331535  34.589  12.507   9.618
 2368POPC   PO431536  34.654  13.045   9.252
 2368POPC   GL131537  34.490  12.672   9.121
 2368POPC   GL231538  34.180  12.612   9.292
 2368POPC   C1A31539  34.532  12.749   8.681
 2368POPC   D2A31540  34.804  12.707   8.347
 2368POPC   C3A31541  34.523  12.761   8.039
 2368POPC   C4A31542  34.656  12.773   7.646
 2368POPC   C1B31543  34.077  12.895   8.908
 2368POPC   C2B31544  34.082  13.289   8.682
 2368POPC   C3B31545  34.201  13.194   8.223
 2368POPC   C4B31546  34.375  13.181   7.784
 2369POPC   NC331547  20.805  38.127   9.291
 2369POPC   PO431548  20.397  37.665   9.489
 2369POPC   GL131549  20.372  37.504   9.066
 2369POPC   GL231550  20.524  37.809   8.999
 2369POPC   C1A31551  20.376  37.541   8.598
 2369POPC   D2A31552  20.764  37.431   8.330
 2369POPC   C3A31553  20.695  37.484   7.887
 2369POPC   C4A31554  20.289  37.682   7.770
 2369POPC   C1B31555  20.780  37.858   8.624
 2369POPC   C2B31556  20.738  37.918   8.173
 2369POPC   C3B31557  21.049  37.888   7.841
 2369POPC   C4B31558  21.245  37.946   7.412
 2370POPC   NC331559   8.554   2.244   9.521
 2370POPC   PO431560   9.075   1.784   9.423
 2370POPC   GL131561   9.103   1.991   9.064
 2370POPC   GL231562   8.754   2.043   9.087
 2370POPC   C1A31563   9.321   1.977   8.702
 2370POPC   D2A31564   9.184   1.800   8.383
 2370POPC   C3A31565   9.047   2.013   8.015
 2370POPC   C4A31566   9.176   2.052   7.616
 2370POPC   C1B31567   8.762   1.776   8.738
 2370POPC   C2B31568   8.674   1.871   8.339
 2370POPC   C3B31569   8.562   1.806   7.947
 2370POPC   C4B31570   8.696   1.906   7.534
 2371POPC   NC331571  21.775  22.955   9.503
 2371POPC   PO431572  22.479  22.752   9.552
 2371POPC   GL131573  22.336  22.862   9.162
 2371POPC   GL231574  22.045  22.687   9.164
 2371POPC   C1A31575  22.399  22.660   8.740
 2371POPC   D2A31576  22.387  22.442   8.339
 2371POPC   C3A31577  22.310  22.709   7.947
 2371POPC   C4A31578  22.343  22.937   7.569
 2371POPC   C1B31579  21.913  22.869   8.778
 2371POPC   C2B31580  22.013  22.794   8.354
 2371POPC   C3B31581  21.814  22.914   7.958
 2371POPC   C4B31582  21.847  23.156   7.561
 2372POPC   NC331583  31.951  29.801   9.478
 2372POPC   PO431584  32.587  29.612   9.523
 2372POPC   GL131585  32.358  29.787   9.146
 2372POPC   GL231586  32.031  29.675   9.000
 2372POPC   C1A31587  32.377  29.982   8.724
 2372POPC   D2A31588  32.699  30.135   8.424
 2372POPC   C3A31589  32.589  29.969   8.050
 2372POPC   C4A31590  32.281  29.848   7.762
 2372POPC   C1B31591  32.011  29.617   8.568
 2372POPC   C2B31592  32.087  29.951   8.261
 2372POPC   C3B31593  31.827  29.964   7.902
 2372POPC   C4B31594  31.838  29.569   7.673
 2373POPC   NC331595  28.961  12.679   9.541
 2373POPC   PO431596  29.509  12.590   9.249
 2373POPC   GL131597  29.171  12.751   9.033
 2373POPC   GL231598  28.988  13.040   9.144
 2373POPC   C1A31599  29.298  12.763   8.605
 2373POPC   D2A31600  29.542  12.983   8.319
 2373POPC   C3A31601  29.434  12.877   7.918
 2373POPC   C4A31602  29.284  13.025   7.532
 2373POPC   C1B31603  29.056  13.191   8.741
 2373POPC   C2B31604  28.839  13.155   8.354
 2373POPC   C3B31605  28.993  13.126   7.955
 2373POPC   C4B31606  28.983  12.674   7.763
 2374POPC   NC331607  38.667   6.254   9.449
 2374POPC   PO431608  38.751   6.903   9.595
 2374POPC   GL131609  38.647   6.729   9.214
 2374POPC   GL231610  38.361   6.876   9.126
 2374POPC   C1A31611  38.712   6.499   8.829
 2374POPC   D2A31612  38.534   6.314   8.471
 2374POPC   C3A31613  38.699   6.452   8.105
 2374POPC   C4A31614  38.511   6.399   7.704
 2374POPC   C1B31615  38.254   6.734   8.743
 2374POPC   C2B31616  38.411   6.812   8.363
 2374POPC   C3B31617  38.360   6.819   7.936
 2374POPC   C4B31618  38.032   6.593   7.711
 2375POPC   NC331619   0.909  11.085   9.560
 2375POPC   PO431620   1.303  11.583   9.786
 2375POPC   GL131621   1.277  11.398   9.331
 2375POPC   GL231622   1.403  11.713   9.176
 2375POPC   C1A31623   1.157  11.129   8.937
 2375POPC   D2A31624   1.359  11.033   8.536
 2375POPC   C3A31625   1.173  11.166   8.166
 2375POPC   C4A31626   1.205  11.123   7.733
 2375POPC   C1B31627   1.242  11.621   8.785
 2375POPC   C2B31628   1.063  11.616   8.403
 2375POPC   C3B31629   1.127  11.660   7.983
 2375POPC   C4B31630   1.487  11.687   7.733
 2376POPC   NC331631  44.189  31.456   9.489
 2376POPC   PO431632  43.482  31.242   9.516
 2376POPC   GL131633  43.585  31.261   9.096
 2376POPC   GL231634  43.636  31.591   9.117
 2376POPC   C1A31635  43.908  31.300   8.759
 2376POPC   D2A31636  43.947  31.152   8.339
 2376POPC   C3A31637  44.129  31.395   8.012
 2376POPC   C4A31638  44.002  31.527   7.594
 2376POPC   C1B31639  43.649  31.762   8.756
 2376POPC   C2B31640  43.663  31.604   8.359
 2376POPC   C3B31641  43.844  31.814   8.038
 2376POPC   C4B31642  43.772  31.985   7.679
 2377POPC   NC331643  26.601  18.478   9.709
 2377POPC   PO431644  27.156  18.402   9.416
 2377POPC   GL131645  27.017  18.409   9.046
 2377POPC   GL231646  26.681  18.479   9.191
 2377POPC   C1A31647  26.758  18.371   8.689
 2377POPC   D2A31648  26.545  18.173   8.386
 2377POPC   C3A31649  26.768  18.163   8.011
 2377POPC   C4A31650  26.617  17.840   7.784
 2377POPC   C1B31651  26.428  18.721   8.941
 2377POPC   C2B31652  26.384  18.679   8.483
 2377POPC   C3B31653  26.397  18.548   8.060
 2377POPC   C4B31654  26.436  18.689   7.655
 2378POPC   NC331655  17.769  30.193   9.611
 2378POPC   PO431656  17.346  29.714   9.823
 2378POPC   GL131657  17.356  29.630   9.341
 2378POPC   GL231658  17.390  30.033   9.282
 2378POPC   C1A31659  17.419  29.727   8.874
 2378POPC   D2A31660  17.248  29.627   8.451
 2378POPC   C3A31661  17.211  29.950   8.168
 2378POPC   C4A31662  17.553  29.889   7.872
 2378POPC   C1B31663  17.666  30.189   8.921
 2378POPC   C2B31664  17.963  30.192   8.544
 2378POPC   C3B31665  17.804  30.282   8.113
 2378POPC   C4B31666  17.393  30.373   7.913
 2379POPC   NC331667  43.608  18.957   9.583
 2379POPC   PO431668  44.013  19.475   9.466
 2379POPC   GL131669  43.999  19.169   9.097
 2379POPC   GL231670  43.836  18.847   9.121
 2379POPC   C1A31671  43.963  18.996   8.656
 2379POPC   D2A31672  44.017  19.259   8.344
 2379POPC   C3A31673  43.795  19.363   7.995
 2379POPC   C4A31674  44.024  19.201   7.644
 2379POPC   C1B31675  43.608  18.621   8.809
 2379POPC   C2B31676  43.535  18.704   8.373
 2379POPC   C3B31677  43.850  18.855   8.077
 2379POPC   C4B31678  44.015  18.685   7.719
 2380POPC   NC331679  11.061  33.246   9.681
 2380POPC   PO431680  11.485  32.724   9.467
 2380POPC   GL131681  11.289  32.919   9.113
 2380POPC   GL231682  11.100  33.212   9.182
 2380POPC   C1A31683  11.440  32.998   8.691
 2380POPC   D2A31684  11.617  32.853   8.358
 2380POPC   C3A31685  11.393  33.022   7.978
 2380POPC   C4A31686  11.187  32.760   7.666
 2380POPC   C1B31687  10.994  33.210   8.766
 2380POPC   C2B31688  11.151  33.318   8.348
 2380POPC   C3B31689  10.923  33.256   7.943
 2380POPC   C4B31690  11.093  33.231   7.536
 2381POPC   NC331691  20.082   6.142   9.295
 2381POPC   PO431692  19.704   5.624   9.384
 2381POPC   GL131693  19.880   5.749   9.036
 2381POPC   GL231694  20.184   5.607   9.052
 2381POPC   C1A31695  19.950   5.933   8.635
 2381POPC   D2A31696  19.735   5.657   8.332
 2381POPC   C3A31697  19.801   5.853   7.966
 2381POPC   C4A31698  19.747   6.218   7.695
 2381POPC   C1B31699  20.104   5.451   8.656
 2381POPC   C2B31700  20.262   5.698   8.304
 2381POPC   C3B31701  20.365   5.580   7.911
 2381POPC   C4B31702  20.088   5.607   7.584
 2382POPC   NC331703   1.670  39.131   9.448
 2382POPC   PO431704   0.993  39.151   9.635
 2382POPC   GL131705   1.204  39.233   9.248
 2382POPC   GL231706   0.984  39.391   9.069
 2382POPC   C1A31707   1.440  39.347   8.840
 2382POPC   D2A31708   1.446  39.145   8.415
 2382POPC   C3A31709   1.663  39.274   8.016
 2382POPC   C4A31710   1.348  39.447   7.717
 2382POPC   C1B31711   1.018  39.003   8.795
 2382POPC   C2B31712   1.006  38.841   8.354
 2382POPC   C3B31713   1.092  39.096   7.993
 2382POPC   C4B31714   0.952  39.174   7.537
 2383POPC   NC331715  44.809  43.548   9.376
 2383POPC   PO431716  44.883  42.943   9.397
 2383POPC   GL131717  44.654  43.107   9.082
 2383POPC   GL231718  44.349  43.308   9.129
 2383POPC   C1A31719  44.385  42.946   8.744
 2383POPC   D2A31720  44.552  43.043   8.346
 2383POPC   C3A31721  44.560  42.847   7.964
 2383POPC   C4A31722  44.849  42.883   7.674
 2383POPC   C1B31723  44.566  43.435   8.721
 2383POPC   C2B31724  44.518  43.571   8.323
 2383POPC   C3B31725  44.714  43.616   7.969
 2383POPC   C4B31726  44.583  43.369   7.694
 2384POPC   NC331727   4.507  14.321   9.575
 2384POPC   PO431728   3.944  14.297   9.274
 2384POPC   GL131729   4.160  14.581   9.069
 2384POPC   GL231730   4.533  14.647   9.120
 2384POPC   C1A31731   4.092  14.487   8.647
 2384POPC   D2A31732   4.268  14.149   8.435
 2384POPC   C3A31733   4.203  14.212   8.022
 2384POPC   C4A31734   4.482  14.172   7.723
 2384POPC   C1B31735   4.406  14.899   8.753
 2384POPC   C2B31736   4.281  14.846   8.344
 2384POPC   C3B31737   4.420  14.677   7.958
 2384POPC   C4B31738   4.115  14.564   7.639
 2385POPC   NC331739   7.135  29.067   9.507
 2385POPC   PO431740   7.529  29.550   9.522
 2385POPC   GL131741   7.483  29.512   9.099
 2385POPC   GL231742   7.136  29.425   9.144
 2385POPC   C1A31743   7.739  29.266   8.766
 2385POPC   D2A31744   7.574  28.892   8.484
 2385POPC   C3A31745   7.563  29.057   8.070
 2385POPC   C4A31746   7.757  29.421   7.829
 2385POPC   C1B31747   7.264  29.125   8.832
 2385POPC   C2B31748   7.317  29.367   8.451
 2385POPC   C3B31749   7.280  29.534   8.036
 2385POPC   C4B31750   7.127  29.167   7.850
 2386POPC   NC331751  34.798  35.682   9.436
 2386POPC   PO431752  34.426  35.210   9.632
 2386POPC   GL131753  34.436  35.302   9.194
 2386POPC   GL231754  34.804  35.300   9.112
 2386POPC   C1A31755  34.363  35.183   8.749
 2386POPC   D2A31756  34.178  35.292   8.366
 2386POPC   C3A31757  34.447  35.313   8.020
 2386POPC   C4A31758  34.461  35.615   7.699
 2386POPC   C1B31759  34.634  35.612   8.819
 2386POPC   C2B31760  34.652  35.599   8.409
 2386POPC   C3B31761  34.814  35.676   8.056
 2386POPC   C4B31762  34.935  35.822   7.694
 2387POPC   NC331763  11.930  20.743   9.586
 2387POPC   PO431764  12.032  20.145   9.432
 2387POPC   GL131765  12.184  20.470   9.160
 2387POPC   GL231766  12.126  20.813   9.127
 2387POPC   C1A31767  12.353  20.537   8.758
 2387POPC   D2A31768  12.380  20.283   8.394
 2387POPC   C3A31769  12.091  20.469   8.127
 2387POPC   C4A31770  12.153  20.732   7.782
 2387POPC   C1B31771  11.904  20.798   8.738
 2387POPC   C2B31772  11.970  20.937   8.340
 2387POPC   C3B31773  11.826  21.076   7.975
 2387POPC   C4B31774  11.678  20.883   7.646
 2388POPC   NC331775  14.595   8.278   9.617
 2388POPC   PO431776  14.080   7.877   9.532
 2388POPC   GL131777  14.324   8.142   9.178
 2388POPC   GL231778  14.285   8.497   9.122
 2388POPC   C1A31779  14.551   8.274   8.771
 2388POPC   D2A31780  14.690   8.171   8.367
 2388POPC   C3A31781  14.743   8.264   7.941
 2388POPC   C4A31782  14.544   8.032   7.631
 2388POPC   C1B31783  14.054   8.413   8.748
 2388POPC   C2B31784  14.214   8.344   8.353
 2388POPC   C3B31785  14.262   8.441   7.939
 2388POPC   C4B31786  14.059   8.220   7.647
 2389POPC   NC331787  12.372  12.943   9.821
 2389POPC   PO431788  13.005  12.937   9.501
 2389POPC   GL131789  13.130  12.910   9.080
 2389POPC   GL231790  12.817  12.725   9.036
 2389POPC   C1A31791  13.016  12.894   8.616
 2389POPC   D2A31792  12.762  12.637   8.307
 2389POPC   C3A31793  12.935  12.657   7.879
 2389POPC   C4A31794  13.004  12.996   7.577
 2389POPC   C1B31795  12.505  12.904   8.714
 2389POPC   C2B31796  12.390  13.137   8.349
 2389POPC   C3B31797  12.410  12.880   8.002
 2389POPC   C4B31798  12.500  12.894   7.577
 2390POPC   NC331799  39.794   7.316   9.416
 2390POPC   PO431800  40.163   7.796   9.563
 2390POPC   GL131801  40.023   7.666   9.104
 2390POPC   GL231802  39.700   7.509   8.970
 2390POPC   C1A31803  40.086   7.545   8.662
 2390POPC   D2A31804  39.878   7.352   8.307
 2390POPC   C3A31805  40.120   7.364   7.965
 2390POPC   C4A31806  40.078   7.765   7.849
 2390POPC   C1B31807  39.788   7.106   8.756
 2390POPC   C2B31808  39.675   6.881   8.367
 2390POPC   C3B31809  39.707   7.008   7.955
 2390POPC   C4B31810  39.645   7.414   7.812
 2391POPC   NC331811  35.777  18.752   9.293
 2391POPC   PO431812  35.560  19.236   9.681
 2391POPC   GL131813  35.518  19.198   9.212
 2391POPC   GL231814  35.189  19.291   9.123
 2391POPC   C1A31815  35.451  19.009   8.765
 2391POPC   D2A31816  35.489  18.851   8.320
 2391POPC   C3A31817  35.393  19.033   7.929
 2391POPC   C4A31818  35.535  18.892   7.537
 2391POPC   C1B31819  35.002  19.286   8.740
 2391POPC   C2B31820  34.988  19.071   8.350
 2391POPC   C3B31821  34.942  19.235   7.960
 2391POPC   C4B31822  35.226  19.515   7.823
 2392POPC   NC331823   2.587  37.757   9.546
 2392POPC   PO431824   3.244  38.043   9.473
 2392POPC   GL131825   2.979  37.803   9.152
 2392POPC   GL231826   2.656  37.603   9.095
 2392POPC   C1A31827   3.065  37.537   8.786
 2392POPC   D2A31828   3.123  37.399   8.356
 2392POPC   C3A31829   3.071  37.745   8.086
 2392POPC   C4A31830   2.838  37.839   7.722
 2392POPC   C1B31831   2.527  37.470   8.766
 2392POPC   C2B31832   2.674  37.631   8.417
 2392POPC   C3B31833   2.614  37.507   8.028
 2392POPC   C4B31834   2.323  37.493   7.721
 2393POPC   NC331835   9.464   1.461   9.427
 2393POPC   PO431836   9.805   2.096   9.412
 2393POPC   GL131837   9.671   1.943   9.085
 2393POPC   GL231838   9.889   1.667   9.065
 2393POPC   C1A31839   9.894   2.058   8.718
 2393POPC   D2A31840   9.939   1.847   8.327
 2393POPC   C3A31841   9.577   1.954   8.097
 2393POPC   C4A31842   9.685   2.056   7.709
 2393POPC   C1B31843   9.662   1.589   8.699
 2393POPC   C2B31844   9.621   1.441   8.280
 2393POPC   C3B31845   9.747   1.533   7.867
 2393POPC   C4B31846   9.446   1.623   7.578
 2394POPC   NC331847  24.343  17.258   9.257
 2394POPC   PO431848  24.493  16.809   9.715
 2394POPC   GL131849  24.353  16.713   9.246
 2394POPC   GL231850  24.485  16.911   8.940
 2394POPC   C1A31851  24.408  16.443   8.845
 2394POPC   D2A31852  24.511  16.560   8.400
 2394POPC   C3A31853  24.239  16.562   8.032
 2394POPC   C4A31854  24.410  16.414   7.640
 2394POPC   C1B31855  24.597  17.073   8.548
 2394POPC   C2B31856  24.602  17.448   8.283
 2394POPC   C3B31857  24.424  17.282   7.916
 2394POPC   C4B31858  24.552  16.889   7.764
 2395POPC   NC331859   2.158  13.254   9.455
 2395POPC   PO431860   2.192  12.583   9.624
 2395POPC   GL131861   2.109  12.640   9.098
 2395POPC   GL231862   1.743  12.659   8.945
 2395POPC   C1A31863   2.134  12.863   8.712
 2395POPC   D2A31864   2.152  12.664   8.339
 2395POPC   C3A31865   1.967  12.882   8.013
 2395POPC   C4A31866   2.189  12.959   7.635
 2395POPC   C1B31867   1.719  13.148   8.752
 2395POPC   C2B31868   1.816  13.274   8.390
 2395POPC   C3B31869   1.586  13.242   8.039
 2395POPC   C4B31870   1.741  13.204   7.660
 2396POPC   NC331871  23.909  14.055   9.292
 2396POPC   PO431872  23.367  13.786   9.290
 2396POPC   GL131873  23.633  13.478   9.102
 2396POPC   GL231874  23.986  13.559   9.071
 2396POPC   C1A31875  23.497  13.456   8.718
 2396POPC   D2A31876  23.449  13.752   8.440
 2396POPC   C3A31877  23.596  13.686   8.083
 2396POPC   C4A31878  23.461  13.460   7.780
 2396POPC   C1B31879  23.898  13.803   8.690
 2396POPC   C2B31880  24.082  13.810   8.293
 2396POPC   C3B31881  23.986  13.942   7.908
 2396POPC   C4B31882  23.653  13.998   7.636
 2397POPC   NC331883  33.513  13.148   9.539
 2397POPC   PO431884  33.660  13.786   9.559
 2397POPC   GL131885  33.816  13.651   9.166
 2397POPC   GL231886  33.846  13.305   9.157
 2397POPC   C1A31887  33.806  13.762   8.726
 2397POPC   D2A31888  33.991  13.664   8.336
 2397POPC   C3A31889  33.803  13.790   7.970
 2397POPC   C4A31890  33.925  13.802   7.539
 2397POPC   C1B31891  33.534  13.332   8.839
 2397POPC   C2B31892  33.495  13.465   8.415
 2397POPC   C3B31893  33.496  13.331   7.985
 2397POPC   C4B31894  33.894  13.313   7.816
 2398POPC   NC331895  32.151  21.197   9.474
 2398POPC   PO431896  32.562  21.623   9.700
 2398POPC   GL131897  32.366  21.700   9.290
 2398POPC   GL231898  32.572  21.428   9.169
 2398POPC   C1A31899  32.169  21.547   8.881
 2398POPC   D2A31900  32.333  21.319   8.521
 2398POPC   C3A31901  32.170  21.442   8.120
 2398POPC   C4A31902  31.793  21.621   7.940
 2398POPC   C1B31903  32.733  21.589   8.754
 2398POPC   C2B31904  32.822  21.426   8.338
 2398POPC   C3B31905  32.653  21.459   7.915
 2398POPC   C4B31906  32.500  21.797   7.669
 2399POPC   NC331907   2.518  44.980   9.303
 2399POPC   PO431908   3.079   0.231   9.634
 2399POPC   GL131909   2.912   0.404   9.247
 2399POPC   GL231910   2.580   0.424   9.039
 2399POPC   C1A31911   3.019   0.479   8.824
 2399POPC   D2A31912   2.769   0.475   8.462
 2399POPC   C3A31913   2.989   0.337   8.105
 2399POPC   C4A31914   2.916   0.203   7.696
 2399POPC   C1B31915   2.288   0.619   8.754
 2399POPC   C2B31916   2.348   0.753   8.344
 2399POPC   C3B31917   2.509   0.483   8.005
 2399POPC   C4B31918   2.454   0.393   7.604
 2400POPC   NC331919  27.918  28.823   9.605
 2400POPC   PO431920  27.228  28.557   9.632
 2400POPC   GL131921  27.551  28.433   9.315
 2400POPC   GL231922  27.250  28.322   9.137
 2400POPC   C1A31923  27.770  28.267   8.919
 2400POPC   D2A31924  27.943  28.327   8.513
 2400POPC   C3A31925  27.785  28.576   8.150
 2400POPC   C4A31926  27.844  28.537   7.693
 2400POPC   C1B31927  27.436  28.662   8.886
 2400POPC   C2B31928  27.430  28.459   8.529
 2400POPC   C3B31929  27.261  28.390   8.163
 2400POPC   C4B31930  27.377  28.403   7.748
 2401POPC   NC331931  36.330  16.226   9.561
 2401POPC   PO431932  35.956  15.784   9.243
 2401POPC   GL131933  36.179  16.063   9.066
 2401POPC   GL231934  36.508  15.961   9.134
 2401POPC   C1A31935  35.992  16.081   8.667
 2401POPC   D2A31936  35.772  15.798   8.433
 2401POPC   C3A31937  35.992  15.668   8.113
 2401POPC   C4A31938  35.990  16.027   7.885
 2401POPC   C1B31939  36.515  16.116   8.691
 2401POPC   C2B31940  36.355  16.008   8.301
 2401POPC   C3B31941  36.454  15.848   7.929
 2401POPC   C4B31942  36.609  15.972   7.540
 2402POPC   NC331943  37.038  18.323   9.766
 2402POPC   PO431944  36.939  18.622   9.217
 2402POPC   GL131945  36.901  18.582   8.843
 2402POPC   GL231946  37.215  18.737   8.802
 2402POPC   C1A31947  36.795  18.249   8.559
 2402POPC   D2A31948  36.866  18.006   8.198
 2402POPC   C3A31949  36.845  18.260   7.832
 2402POPC   C4A31950  36.475  18.120   7.698
 2402POPC   C1B31951  37.196  18.885   8.414
 2402POPC   C2B31952  37.115  18.647   8.070
 2402POPC   C3B31953  37.248  18.564   7.677
 2402POPC   C4B31954  37.154  18.437   7.259
 2403POPC   NC331955  29.944  23.144   9.522
 2403POPC   PO431956  29.523  22.648   9.727
 2403POPC   GL131957  29.787  22.730   9.255
 2403POPC   GL231958  29.843  23.052   9.026
 2403POPC   C1A31959  30.045  22.636   8.839
 2403POPC   D2A31960  30.042  22.985   8.554
 2403POPC   C3A31961  30.077  22.979   8.111
 2403POPC   C4A31962  30.198  23.055   7.673
 2403POPC   C1B31963  29.539  23.137   8.689
 2403POPC   C2B31964  29.487  23.267   8.290
 2403POPC   C3B31965  29.439  23.403   7.879
 2403POPC   C4B31966  29.701  23.112   7.623
 2404POPC   NC331967   7.224   0.270   9.514
 2404POPC   PO431968   7.659   0.833   9.479
 2404POPC   GL131969   7.399   0.633   9.173
 2404POPC   GL231970   7.566   0.313   9.147
 2404POPC   C1A31971   7.484   0.723   8.750
 2404POPC   D2A31972   7.581   0.835   8.340
 2404POPC   C3A31973   7.563   0.423   8.117
 2404POPC   C4A31974   7.621   0.637   7.780
 2404POPC   C1B31975   7.479   0.210   8.730
 2404POPC   C2B31976   7.802   0.073   8.450
 2404POPC   C3B31977   7.957   0.012   8.052
 2404POPC   C4B31978   7.820   0.159   7.627
 2405POPC   NC331979  29.531  35.731   9.747
 2405POPC   PO431980  30.026  35.359   9.827
 2405POPC   GL131981  29.894  35.231   9.307
 2405POPC   GL231982  29.523  35.150   9.231
 2405POPC   C1A31983  29.991  35.315   8.842
 2405POPC   D2A31984  30.134  35.195   8.410
 2405POPC   C3A31985  29.939  35.422   8.060
 2405POPC   C4A31986  30.014  35.570   7.642
 2405POPC   C1B31987  29.592  34.963   8.804
 2405POPC   C2B31988  29.599  35.144   8.389
 2405POPC   C3B31989  29.651  35.002   7.970
 2405POPC   C4B31990  29.931  35.071   7.623
 2406POPC   NC331991  22.483  12.051   9.692
 2406POPC   PO431992  22.114  11.548   9.352
 2406POPC   GL131993  22.319  11.758   9.024
 2406POPC   GL231994  22.425  12.078   9.133
 2406POPC   C1A31995  22.411  11.811   8.595
 2406POPC   D2A31996  22.282  12.032   8.242
 2406POPC   C3A31997  22.351  11.826   7.831
 2406POPC   C4A31998  22.462  11.706   7.366
 2406POPC   C1B31999  22.497  12.309   8.735
 2406POPC   C2B32000  22.443  12.512   8.312
 2406POPC   C3B32001  22.317  12.371   7.868
 2406POPC   C4B32002  21.953  12.154   7.764
 2407POPC   NC332003  29.886   3.067   9.263
 2407POPC   PO432004  29.816   3.710   9.521
 2407POPC   GL132005  29.973   3.579   9.121
 2407POPC   GL232006  30.193   3.309   8.944
 2407POPC   C1A32007  29.741   3.550   8.724
 2407POPC   D2A32008  29.590   3.833   8.393
 2407POPC   C3A32009  29.663   3.657   7.967
 2407POPC   C4A32010  29.741   3.762   7.520
 2407POPC   C1B32011  30.285   3.633   8.696
 2407POPC   C2B32012  30.093   3.681   8.323
 2407POPC   C3B32013  29.994   3.308   8.135
 2407POPC   C4B32014  30.099   3.435   7.754
 2408POPC   NC332015  33.895  14.896   9.401
 2408POPC   PO432016  33.494  15.385   9.681
 2408POPC   GL132017  33.640  15.426   9.212
 2408POPC   GL232018  33.651  15.110   9.013
 2408POPC   C1A32019  33.939  15.443   8.799
 2408POPC   D2A32020  33.916  15.212   8.382
 2408POPC   C3A32021  33.984  15.151   7.927
 2408POPC   C4A32022  33.928  15.091   7.460
 2408POPC   C1B32023  33.818  14.816   8.720
 2408POPC   C2B32024  33.607  14.682   8.367
 2408POPC   C3B32025  33.604  14.798   7.939
 2408POPC   C4B32026  33.466  14.681   7.534
 2409POPC   NC332027  23.272  29.359   9.623
 2409POPC   PO432028  22.943  28.795   9.485
 2409POPC   GL132029  22.937  29.185   9.267
 2409POPC   GL232030  22.610  29.130   9.159
 2409POPC   C1A32031  22.961  29.365   8.847
 2409POPC   D2A32032  22.793  29.308   8.433
 2409POPC   C3A32033  22.929  29.449   8.069
 2409POPC   C4A32034  23.000  29.160   7.736
 2409POPC   C1B32035  22.463  29.122   8.745
 2409POPC   C2B32036  22.391  28.899   8.329
 2409POPC   C3B32037  22.496  28.973   7.880
 2409POPC   C4B32038  22.471  29.093   7.433
 2410POPC   NC332039   2.001  18.629   9.394
 2410POPC   PO432040   2.266  17.942   9.466
 2410POPC   GL132041   2.021  18.132   9.147
 2410POPC   GL232042   2.246  18.375   9.034
 2410POPC   C1A32043   1.910  18.189   8.683
 2410POPC   D2A32044   1.971  18.511   8.320
 2410POPC   C3A32045   1.696  18.492   7.932
 2410POPC   C4A32046   1.622  18.162   7.611
 2410POPC   C1B32047   2.435  18.597   8.690
 2410POPC   C2B32048   2.534  18.697   8.275
 2410POPC   C3B32049   2.340  18.561   7.915
 2410POPC   C4B32050   2.104  18.302   7.697
 2411POPC   NC332051  44.765   3.798   9.639
 2411POPC   PO432052  44.544   3.166   9.649
 2411POPC   GL132053  44.650   3.277   9.206
 2411POPC   GL232054  44.797   3.649   9.127
 2411POPC   C1A32055  44.423   3.406   8.827
 2411POPC   D2A32056  44.274   3.200   8.447
 2411POPC   C3A32057  44.459   3.426   8.074
 2411POPC   C4A32058  44.555   3.423   7.653
 2411POPC   C1B32059   0.038   3.588   8.704
 2411POPC   C2B32060  44.960   3.595   8.246
 2411POPC   C3B32061  44.888   3.739   7.825
 2411POPC   C4B32062  44.878   3.769   7.392
 2412POPC   NC332063   2.424  35.288   9.442
 2412POPC   PO432064   3.015  35.654   9.372
 2412POPC   GL132065   2.762  35.566   9.086
 2412POPC   GL232066   2.758  35.216   9.051
 2412POPC   C1A32067   2.918  35.616   8.682
 2412POPC   D2A32068   3.020  35.338   8.362
 2412POPC   C3A32069   2.940  35.529   7.977
 2412POPC   C4A32070   2.862  35.372   7.553
 2412POPC   C1B32071   2.453  35.393   8.735
 2412POPC   C2B32072   2.493  35.492   8.304
 2412POPC   C3B32073   2.528  35.213   7.974
 2412POPC   C4B32074   2.549  34.989   7.635
 2413POPC   NC332075  31.028   6.552   9.478
 2413POPC   PO432076  30.345   6.804   9.498
 2413POPC   GL132077  30.591   6.631   9.179
 2413POPC   GL232078  30.859   6.863   9.107
 2413POPC   C1A32079  30.529   6.448   8.784
 2413POPC   D2A32080  30.689   6.541   8.398
 2413POPC   C3A32081  30.420   6.547   8.052
 2413POPC   C4A32082  30.593   6.517   7.701
 2413POPC   C1B32083  30.686   6.969   8.699
 2413POPC   C2B32084  30.475   6.988   8.290
 2413POPC   C3B32085  30.656   6.994   7.863
 2413POPC   C4B32086  30.860   6.854   7.425
 2414POPC   NC332087  20.903  19.566   9.484
 2414POPC   PO432088  20.577  20.226   9.471
 2414POPC   GL132089  20.621  19.886   9.193
 2414POPC   GL232090  20.992  19.962   9.155
 2414POPC   C1A32091  20.540  19.775   8.758
 2414POPC   D2A32092  20.670  20.026   8.417
 2414POPC   C3A32093  20.469  19.959   8.053
 2414POPC   C4A32094  20.569  19.603   7.827
 2414POPC   C1B32095  21.027  19.673   8.806
 2414POPC   C2B32096  20.889  19.540   8.375
 2414POPC   C3B32097  20.986  19.839   8.035
 2414POPC   C4B32098  20.866  20.003   7.655
 2415POPC   NC332099   4.892  23.274   9.254
 2415POPC   PO432100   5.263  22.709   9.358
 2415POPC   GL132101   5.144  22.853   9.004
 2415POPC   GL232102   4.833  22.776   9.033
 2415POPC   C1A32103   5.249  22.850   8.581
 2415POPC   D2A32104   5.505  22.616   8.291
 2415POPC   C3A32105   5.381  22.724   7.884
 2415POPC   C4A32106   5.315  23.159   7.797
 2415POPC   C1B32107   4.743  22.941   8.642
 2415POPC   C2B32108   4.543  22.746   8.279
 2415POPC   C3B32109   4.522  22.696   7.814
 2415POPC   C4B32110   4.742  22.608   7.396
 2416POPC   NC332111  22.926   7.888   9.481
 2416POPC   PO432112  22.937   7.182   9.439
 2416POPC   GL132113  22.978   7.308   9.063
 2416POPC   GL232114  23.208   7.587   9.139
 2416POPC   C1A32115  22.911   7.071   8.646
 2416POPC   D2A32116  23.000   7.068   8.181
 2416POPC   C3A32117  22.744   7.312   7.884
 2416POPC   C4A32118  22.731   7.724   7.687
 2416POPC   C1B32119  23.197   7.539   8.686
 2416POPC   C2B32120  23.338   7.741   8.317
 2416POPC   C3B32121  23.165   7.648   7.963
 2416POPC   C4B32122  23.340   7.310   7.793
 2417POPC   NC332123  22.605  44.329   9.514
 2417POPC   PO432124  23.146  43.847   9.639
 2417POPC   GL132125  23.224  43.977   9.236
 2417POPC   GL232126  22.869  43.990   9.213
 2417POPC   C1A32127  23.144  44.156   8.818
 2417POPC   D2A32128  22.947  44.039   8.446
 2417POPC   C3A32129  23.099  44.143   8.039
 2417POPC   C4A32130  22.984  43.963   7.663
 2417POPC   C1B32131  22.617  44.028   8.857
 2417POPC   C2B32132  22.441  44.197   8.437
 2417POPC   C3B32133  22.445  44.286   8.005
 2417POPC   C4B32134  22.524  44.139   7.614
 2418POPC   NC332135  32.140  37.503   9.580
 2418POPC   PO432136  31.871  38.140   9.396
 2418POPC   GL132137  32.115  37.872   9.133
 2418POPC   GL232138  32.174  37.479   9.075
 2418POPC   C1A32139  32.087  37.878   8.700
 2418POPC   D2A32140  32.047  37.589   8.359
 2418POPC   C3A32141  31.956  37.774   7.974
 2418POPC   C4A32142  32.130  37.920   7.600
 2418POPC   C1B32143  32.437  37.521   8.704
 2418POPC   C2B32144  32.479  37.864   8.384
 2418POPC   C3B32145  32.498  37.838   7.965
 2418POPC   C4B32146  32.342  37.442   7.879
 2419POPC   NC332147  37.333  29.504   9.480
 2419POPC   PO432148  37.141  30.159   9.402
 2419POPC   GL132149  36.818  30.018   9.122
 2419POPC   GL232150  36.940  29.695   9.145
 2419POPC   C1A32151  36.846  29.930   8.668
 2419POPC   D2A32152  36.771  29.927   8.232
 2419POPC   C3A32153  36.686  30.221   7.932
 2419POPC   C4A32154  36.743  29.891   7.581
 2419POPC   C1B32155  37.106  29.483   8.785
 2419POPC   C2B32156  37.154  29.622   8.352
 2419POPC   C3B32157  37.039  29.552   7.937
 2419POPC   C4B32158  37.271  29.622   7.593
 2420POPC   NC332159  13.562  28.173   9.542
 2420POPC   PO432160  13.578  28.819   9.506
 2420POPC   GL132161  13.595  28.530   9.165
 2420POPC   GL232162  13.860  28.327   9.027
 2420POPC   C1A32163  13.591  28.618   8.742
 2420POPC   D2A32164  13.441  28.798   8.431
 2420POPC   C3A32165  13.655  28.515   8.173
 2420POPC   C4A32166  13.682  28.539   7.769
 2420POPC   C1B32167  13.453  28.131   8.847
 2420POPC   C2B32168  13.349  27.960   8.445
 2420POPC   C3B32169  13.559  27.994   8.042
 2420POPC   C4B32170  13.409  28.125   7.664
 2421POPC   NC332171   8.473   7.657   9.426
 2421POPC   PO432172   8.036   7.057   9.504
 2421POPC   GL132173   8.208   7.296   9.171
 2421POPC   GL232174   8.544   7.186   9.055
 2421POPC   C1A32175   8.116   7.193   8.758
 2421POPC   D2A32176   8.160   7.432   8.414
 2421POPC   C3A32177   7.969   7.290   8.115
 2421POPC   C4A32178   8.168   7.332   7.726
 2421POPC   C1B32179   8.552   7.480   8.758
 2421POPC   C2B32180   8.656   7.387   8.356
 2421POPC   C3B32181   8.480   7.599   8.039
 2421POPC   C4B32182   8.634   7.536   7.667
 2422POPC   NC332183   2.299  38.673   9.580
 2422POPC   PO432184   1.617  38.689   9.296
 2422POPC   GL132185   1.870  38.442   9.032
 2422POPC   GL232186   2.186  38.459   9.140
 2422POPC   C1A32187   1.923  38.215   8.649
 2422POPC   D2A32188   1.863  38.408   8.246
 2422POPC   C3A32189   1.786  38.242   7.839
 2422POPC   C4A32190   1.856  38.639   7.592
 2422POPC   C1B32191   2.398  38.432   8.757
 2422POPC   C2B32192   2.358  38.326   8.335
 2422POPC   C3B32193   2.250  38.442   7.919
 2422POPC   C4B32194   2.201  38.287   7.519
 2423POPC   NC332195  33.724  24.606   9.780
 2423POPC   PO432196  33.323  24.140   9.411
 2423POPC   GL132197  33.491  24.339   8.979
 2423POPC   GL232198  33.671  24.678   9.098
 2423POPC   C1A32199  33.833  24.357   8.657
 2423POPC   D2A32200  33.917  24.486   8.217
 2423POPC   C3A32201  33.982  24.151   7.891
 2423POPC   C4A32202  33.876  24.076   7.441
 2423POPC   C1B32203  33.765  24.886   8.702
 2423POPC   C2B32204  33.509  24.890   8.324
 2423POPC   C3B32205  33.486  24.682   7.939
 2423POPC   C4B32206  33.847  24.578   7.685
 2424POPC   NC332207   8.715  33.168   9.442
 2424POPC   PO432208   8.883  32.484   9.482
 2424POPC   GL132209   8.988  32.823   9.179
 2424POPC   GL232210   9.256  33.086   9.195
 2424POPC   C1A32211   8.927  33.010   8.774
 2424POPC   D2A32212   9.158  32.955   8.371
 2424POPC   C3A32213   8.867  32.823   8.038
 2424POPC   C4A32214   8.593  32.801   7.665
 2424POPC   C1B32215   9.231  33.403   8.841
 2424POPC   C2B32216   8.952  33.472   8.478
 2424POPC   C3B32217   9.093  33.388   8.050
 2424POPC   C4B32218   8.890  33.235   7.690
 2425POPC   NC332219  39.967  36.061   9.422
 2425POPC   PO432220  39.579  36.546   9.057
 2425POPC   GL132221  39.945  36.327   8.997
 2425POPC   GL232222  39.893  35.946   8.932
 2425POPC   C1A32223  40.089  36.278   8.614
 2425POPC   D2A32224  39.822  36.161   8.333
 2425POPC   C3A32225  40.093  36.230   8.043
 2425POPC   C4A32226  39.948  36.434   7.731
 2425POPC   C1B32227  40.364  35.892   8.802
 2425POPC   C2B32228  40.458  35.911   8.344
 2425POPC   C3B32229  40.278  35.774   7.934
 2425POPC   C4B32230  39.822  35.881   7.809
 2426POPC   NC332231  21.904  36.195   9.436
 2426POPC   PO432232  22.319  35.663   9.464
 2426POPC   GL132233  22.130  35.866   9.149
 2426POPC   GL232234  22.324  36.150   9.145
 2426POPC   C1A32235  21.978  36.068   8.758
 2426POPC   D2A32236  22.188  36.123   8.364
 2426POPC   C3A32237  22.016  36.097   7.975
 2426POPC   C4A32238  21.798  36.430   7.792
 2426POPC   C1B32239  22.436  36.362   8.777
 2426POPC   C2B32240  22.536  36.494   8.377
 2426POPC   C3B32241  22.274  36.553   8.017
 2426POPC   C4B32242  22.315  36.341   7.622
 2427POPC   NC332243   3.698   4.531   9.498
 2427POPC   PO432244   3.366   3.833   9.522
 2427POPC   GL132245   3.259   3.933   9.080
 2427POPC   GL232246   3.234   4.314   9.015
 2427POPC   C1A32247   3.336   3.994   8.633
 2427POPC   D2A32248   3.487   4.328   8.417
 2427POPC   C3A32249   3.399   4.163   8.035
 2427POPC   C4A32250   3.370   4.352   7.643
 2427POPC   C1B32251   3.684   4.257   8.917
 2427POPC   C2B32252   3.981   4.334   8.595
 2427POPC   C3B32253   3.924   4.413   8.148
 2427POPC   C4B32254   4.103   4.760   7.944
 2428POPC   NC332255  39.754  13.413  10.087
 2428POPC   PO432256  40.172  13.479   9.588
 2428POPC   GL132257  39.918  13.452   9.224
 2428POPC   GL232258  39.837  13.773   9.041
 2428POPC   C1A32259  40.035  13.408   8.777
 2428POPC   D2A32260  40.077  13.600   8.357
 2428POPC   C3A32261  40.112  13.363   8.001
 2428POPC   C4A32262  39.710  13.285   7.810
 2428POPC   C1B32263  40.182  13.903   8.748
 2428POPC   C2B32264  40.364  14.037   8.374
 2428POPC   C3B32265  40.231  14.021   7.974
 2428POPC   C4B32266  39.904  13.777   7.853
 2429POPC   NC332267  27.438  10.847   9.274
 2429POPC   PO432268  27.324  11.426   9.603
 2429POPC   GL132269  27.428  11.435   9.174
 2429POPC   GL232270  27.747  11.288   9.122
 2429POPC   C1A32271  27.497  11.372   8.713
 2429POPC   D2A32272  27.459  11.116   8.348
 2429POPC   C3A32273  27.424  11.446   8.056
 2429POPC   C4A32274  27.388  11.843   7.852
 2429POPC   C1B32275  27.942  11.033   8.804
 2429POPC   C2B32276  28.006  11.018   8.388
 2429POPC   C3B32277  27.848  11.172   8.009
 2429POPC   C4B32278  27.501  10.986   7.794
 2430POPC   NC332279  28.728   0.186   9.401
 2430POPC   PO432280  28.399   0.750   9.476
 2430POPC   GL132281  28.568   0.614   9.136
 2430POPC   GL232282  28.341   0.329   9.107
 2430POPC   C1A32283  28.631   0.506   8.730
 2430POPC   D2A32284  28.452   0.467   8.347
 2430POPC   C3A32285  28.641   0.301   7.961
 2430POPC   C4A32286  28.568   0.402   7.516
 2430POPC   C1B32287  28.099   0.511   8.795
 2430POPC   C2B32288  27.927   0.375   8.419
 2430POPC   C3B32289  28.099   0.410   7.998
 2430POPC   C4B32290  28.229   0.071   7.766
 2431POPC   NC332291  35.820   6.959   9.724
 2431POPC   PO432292  36.346   6.615   9.487
 2431POPC   GL132293  36.108   6.524   9.114
 2431POPC   GL232294  35.785   6.333   9.210
 2431POPC   C1A32295  36.071   6.749   8.727
 2431POPC   D2A32296  36.080   6.998   8.338
 2431POPC   C3A32297  35.922   6.925   7.918
 2431POPC   C4A32298  36.049   6.878   7.446
 2431POPC   C1B32299  35.857   6.249   8.763
 2431POPC   C2B32300  36.187   6.309   8.463
 2431POPC   C3B32301  36.203   6.517   8.066
 2431POPC   C4B32302  36.109   6.315   7.658
 2432POPC   NC332303  43.354   0.761   9.514
 2432POPC   PO432304  43.192   1.352   9.799
 2432POPC   GL132305  43.158   1.168   9.282
 2432POPC   GL232306  43.018   1.438   9.040
 2432POPC   C1A32307  43.063   0.976   8.852
 2432POPC   D2A32308  42.873   1.160   8.470
 2432POPC   C3A32309  42.990   1.042   8.070
 2432POPC   C4A32310  43.209   1.230   7.712
 2432POPC   C1B32311  43.278   1.443   8.630
 2432POPC   C2B32312  43.383   1.386   8.155
 2432POPC   C3B32313  43.594   1.553   7.734
 2432POPC   C4B32314  43.463   1.516   7.259
 2433POPC   NC332315  35.002  32.357   9.423
 2433POPC   PO432316  35.514  31.950   9.624
 2433POPC   GL132317  35.437  32.160   9.256
 2433POPC   GL232318  35.132  31.943   9.189
 2433POPC   C1A32319  35.361  32.235   8.818
 2433POPC   D2A32320  35.311  32.469   8.440
 2433POPC   C3A32321  35.455  32.285   8.076
 2433POPC   C4A32322  35.382  32.361   7.666
 2433POPC   C1B32323  34.905  31.994   8.813
 2433POPC   C2B32324  34.856  32.141   8.396
 2433POPC   C3B32325  35.001  31.937   8.035
 2433POPC   C4B32326  34.994  32.053   7.634
 2434POPC   NC332327  27.054  23.174   9.481
 2434POPC   PO432328  27.780  22.958   9.529
 2434POPC   GL132329  27.496  22.816   9.160
 2434POPC   GL232330  27.207  23.031   9.029
 2434POPC   C1A32331  27.562  22.693   8.737
 2434POPC   D2A32332  27.546  22.896   8.325
 2434POPC   C3A32333  27.786  22.788   7.993
 2434POPC   C4A32334  27.813  22.906   7.595
 2434POPC   C1B32335  27.059  22.655   8.811
 2434POPC   C2B32336  27.203  22.521   8.384
 2434POPC   C3B32337  27.187  22.685   7.962
 2434POPC   C4B32338  27.327  23.042   7.638
 2435POPC   NC332339  32.985  33.470   9.485
 2435POPC   PO432340  32.855  34.116   9.732
 2435POPC   GL132341  33.050  33.947   9.345
 2435POPC   GL232342  32.814  33.944   9.151
 2435POPC   C1A32343  33.193  33.720   8.921
 2435POPC   D2A32344  33.247  33.571   8.503
 2435POPC   C3A32345  33.253  33.947   8.270
 2435POPC   C4A32346  33.064  34.073   7.874
 2435POPC   C1B32347  32.838  33.994   8.686
 2435POPC   C2B32348  32.766  33.820   8.287
 2435POPC   C3B32349  32.992  33.568   7.992
 2435POPC   C4B32350  32.840  33.644   7.560
 2436POPC   NC332351  24.394  22.506   9.414
 2436POPC   PO432352  24.685  21.915   9.645
 2436POPC   GL132353  24.538  22.005   9.205
 2436POPC   GL232354  24.771  21.843   8.995
 2436POPC   C1A32355  24.381  22.082   8.737
 2436POPC   D2A32356  24.605  22.093   8.323
 2436POPC   C3A32357  24.331  22.322   7.961
 2436POPC   C4A32358  24.279  22.134   7.516
 2436POPC   C1B32359  24.830  22.307   8.870
 2436POPC   C2B32360  25.003  22.414   8.456
 2436POPC   C3B32361  24.824  22.440   8.023
 2436POPC   C4B32362  24.706  22.045   7.804
 2437POPC   NC332363  13.042  26.121   9.421
 2437POPC   PO432364  12.414  25.872   9.485
 2437POPC   GL132365  12.527  25.899   9.071
 2437POPC   GL232366  12.876  25.976   8.973
 2437POPC   C1A32367  12.504  26.090   8.672
 2437POPC   D2A32368  12.810  26.072   8.392
 2437POPC   C3A32369  12.682  25.933   8.000
 2437POPC   C4A32370  12.860  26.049   7.611
 2437POPC   C1B32371  13.159  25.847   8.677
 2437POPC   C2B32372  13.139  25.651   8.278
 2437POPC   C3B32373  13.105  25.684   7.850
 2437POPC   C4B32374  12.709  25.552   7.566
 2438POPC   NC332375  24.244  36.803   9.577
 2438POPC   PO432376  24.862  36.696   9.652
 2438POPC   GL132377  24.583  36.799   9.213
 2438POPC   GL232378  24.246  36.985   9.112
 2438POPC   C1A32379  24.416  36.613   8.812
 2438POPC   D2A32380  24.327  36.715   8.417
 2438POPC   C3A32381  24.349  36.446   8.103
 2438POPC   C4A32382  24.332  36.764   7.826
 2438POPC   C1B32383  24.359  37.127   8.704
 2438POPC   C2B32384  24.452  37.230   8.264
 2438POPC   C3B32385  24.196  37.262   7.870
 2438POPC   C4B32386  24.284  37.232   7.417
 2439POPC   NC332387  18.917  21.240   9.731
 2439POPC   PO432388  18.895  20.609   9.589
 2439POPC   GL132389  18.903  20.570   9.158
 2439POPC   GL232390  19.205  20.655   9.033
 2439POPC   C1A32391  18.895  20.325   8.771
 2439POPC   D2A32392  19.112  20.296   8.371
 2439POPC   C3A32393  18.964  20.531   8.029
 2439POPC   C4A32394  18.865  20.463   7.591
 2439POPC   C1B32395  19.424  20.381   8.763
 2439POPC   C2B32396  19.620  20.370   8.363
 2439POPC   C3B32397  19.477  20.484   7.937
 2439POPC   C4B32398  19.359  20.382   7.520
 2440POPC   NC332399  23.636  28.203   9.659
 2440POPC   PO432400  23.436  28.216   9.062
 2440POPC   GL132401  23.847  28.402   9.054
 2440POPC   GL232402  23.900  28.781   9.115
 2440POPC   C1A32403  24.043  28.261   8.676
 2440POPC   D2A32404  24.018  27.931   8.344
 2440POPC   C3A32405  23.963  28.003   7.921
 2440POPC   C4A32406  23.574  27.979   7.716
 2440POPC   C1B32407  24.064  28.785   8.715
 2440POPC   C2B32408  23.862  28.613   8.335
 2440POPC   C3B32409  23.613  28.391   8.015
 2440POPC   C4B32410  23.458  28.542   7.596
 2441POPC   NC332411   8.095  16.980   9.469
 2441POPC   PO432412   8.364  16.346   9.404
 2441POPC   GL132413   8.342  16.683   9.108
 2441POPC   GL232414   8.007  16.762   9.007
 2441POPC   C1A32415   8.398  16.858   8.690
 2441POPC   D2A32416   8.379  17.050   8.272
 2441POPC   C3A32417   8.422  16.804   7.883
 2441POPC   C4A32418   8.459  16.754   7.433
 2441POPC   C1B32419   7.718  16.952   8.729
 2441POPC   C2B32420   7.868  17.127   8.368
 2441POPC   C3B32421   7.947  16.996   7.966
 2441POPC   C4B32422   7.968  16.724   7.626
 2442POPC   NC332423   6.807  24.928   9.406
 2442POPC   PO432424   6.267  25.412   9.528
 2442POPC   GL132425   6.536  25.316   9.177
 2442POPC   GL232426   6.400  24.977   9.083
 2442POPC   C1A32427   6.689  25.531   8.797
 2442POPC   D2A32428   6.506  25.628   8.372
 2442POPC   C3A32429   6.718  25.515   7.976
 2442POPC   C4A32430   6.828  25.399   7.551
 2442POPC   C1B32431   6.750  25.034   8.770
 2442POPC   C2B32432   6.811  25.178   8.355
 2442POPC   C3B32433   6.785  24.991   7.938
 2442POPC   C4B32434   6.995  24.931   7.548
 2443POPC   NC332435  12.424  17.647   9.487
 2443POPC   PO432436  11.788  17.440   9.570
 2443POPC   GL132437  12.008  17.423   9.194
 2443POPC   GL232438  12.079  17.086   9.211
 2443POPC   C1A32439  11.914  17.631   8.795
 2443POPC   D2A32440  11.771  17.974   8.534
 2443POPC   C3A32441  11.715  17.850   8.100
 2443POPC   C4A32442  12.006  17.607   7.863
 2443POPC   C1B32443  11.931  17.114   8.772
 2443POPC   C2B32444  11.861  17.316   8.361
 2443POPC   C3B32445  11.982  17.116   7.975
 2443POPC   C4B32446  11.863  16.956   7.601
 2444POPC   NC332447  39.226  12.168   9.393
 2444POPC   PO432448  38.841  11.653   9.143
 2444POPC   GL132449  39.157  11.950   8.934
 2444POPC   GL232450  39.133  12.329   8.917
 2444POPC   C1A32451  39.496  12.108   8.652
 2444POPC   D2A32452  39.743  12.183   8.327
 2444POPC   C3A32453  39.485  12.153   7.994
 2444POPC   C4A32454  39.397  12.319   7.622
 2444POPC   C1B32455  39.122  12.406   8.485
 2444POPC   C2B32456  39.039  12.086   8.219
 2444POPC   C3B32457  38.965  12.157   7.804
 2444POPC   C4B32458  38.856  12.147   7.376
 2445POPC   NC332459  33.115  39.719   9.546
 2445POPC   PO432460  33.071  39.100   9.877
 2445POPC   GL132461  32.811  39.041   9.393
 2445POPC   GL232462  33.118  39.237   9.252
 2445POPC   C1A32463  32.782  39.149   8.895
 2445POPC   D2A32464  32.653  39.342   8.517
 2445POPC   C3A32465  32.730  39.363   8.084
 2445POPC   C4A32466  32.909  39.414   7.682
 2445POPC   C1B32467  33.289  39.256   8.812
 2445POPC   C2B32468  33.188  39.399   8.378
 2445POPC   C3B32469  33.317  39.298   7.941
 2445POPC   C4B32470  33.376  39.192   7.481
 2446POPC   NC332471   3.772   7.015   9.456
 2446POPC   PO432472   3.352   6.429   9.497
 2446POPC   GL132473   3.490   6.449   9.085
 2446POPC   GL232474   3.471   6.823   9.087
 2446POPC   C1A32475   3.517   6.580   8.644
 2446POPC   D2A32476   3.825   6.697   8.299
 2446POPC   C3A32477   3.621   6.571   7.884
 2446POPC   C4A32478   3.720   6.356   7.451
 2446POPC   C1B32479   3.827   6.990   8.797
 2446POPC   C2B32480   4.044   7.163   8.428
 2446POPC   C3B32481   3.846   7.162   8.036
 2446POPC   C4B32482   3.775   7.016   7.646
 2447POPC   NC332483  36.274  12.820   9.528
 2447POPC   PO432484  35.604  12.859   9.500
 2447POPC   GL132485  35.899  12.831   9.166
 2447POPC   GL232486  36.052  12.518   9.185
 2447POPC   C1A32487  36.165  12.920   8.823
 2447POPC   D2A32488  36.047  13.130   8.460
 2447POPC   C3A32489  36.120  12.946   8.099
 2447POPC   C4A32490  36.024  13.096   7.711
 2447POPC   C1B32491  36.248  12.405   8.824
 2447POPC   C2B32492  36.114  12.543   8.452
 2447POPC   C3B32493  36.153  12.434   8.027
 2447POPC   C4B32494  36.321  12.672   7.704
 2448POPC   NC332495  26.660  44.276   9.396
 2448POPC   PO432496  26.828  44.904   9.512
 2448POPC   GL132497  26.650  44.702   9.130
 2448POPC   GL232498  26.951  44.714   8.955
 2448POPC   C1A32499  26.577  44.397   8.774
 2448POPC   D2A32500  26.773  44.352   8.346
 2448POPC   C3A32501  26.492  44.355   7.963
 2448POPC   C4A32502  26.561  44.373   7.488
 2448POPC   C1B32503  26.687  44.854   8.598
 2448POPC   C2B32504  26.706  44.977   8.183
 2448POPC   C3B32505  26.784  44.762   7.798
 2448POPC   C4B32506  26.846   0.033   7.446
 2449POPC   NC332507   8.398  28.005   9.498
 2449POPC   PO432508   8.132  27.362   9.516
 2449POPC   GL132509   8.211  27.626   9.159
 2449POPC   GL232510   7.976  27.909   9.206
 2449POPC   C1A32511   8.412  27.645   8.758
 2449POPC   D2A32512   8.544  27.715   8.299
 2449POPC   C3A32513   8.447  27.407   8.010
 2449POPC   C4A32514   8.306  27.343   7.556
 2449POPC   C1B32515   7.950  27.880   8.757
 2449POPC   C2B32516   8.055  27.599   8.414
 2449POPC   C3B32517   8.006  27.661   8.026
 2449POPC   C4B32518   7.942  27.696   7.630
 2450POPC   NC332519  15.808  31.116   9.569
 2450POPC   PO432520  16.085  31.736   9.637
 2450POPC   GL132521  16.020  31.473   9.250
 2450POPC   GL232522  16.287  31.540   9.017
 2450POPC   C1A32523  15.877  31.206   8.882
 2450POPC   D2A32524  15.787  31.060   8.435
 2450POPC   C3A32525  15.939  31.349   8.094
 2450POPC   C4A32526  15.846  31.356   7.662
 2450POPC   C1B32527  16.225  31.938   8.752
 2450POPC   C2B32528  16.100  31.955   8.345
 2450POPC   C3B32529  16.277  31.756   8.008
 2450POPC   C4B32530  16.169  31.756   7.625
 2451POPC   NC332531  27.860  14.133   9.478
 2451POPC   PO432532  27.553  14.736   9.687
 2451POPC   GL132533  27.519  14.485   9.273
 2451POPC   GL232534  27.436  14.743   9.017
 2451POPC   C1A32535  27.651  14.296   8.840
 2451POPC   D2A32536  27.842  14.535   8.456
 2451POPC   C3A32537  27.607  14.551   8.084
 2451POPC   C4A32538  27.731  14.203   7.786
 2451POPC   C1B32539  27.350  14.610   8.576
 2451POPC   C2B32540  27.413  14.195   8.370
 2451POPC   C3B32541  27.267  14.184   7.947
 2451POPC   C4B32542  27.392  14.564   7.619
 2452POPC   NC332543  26.422  31.504   9.391
 2452POPC   PO432544  26.966  31.234   9.580
 2452POPC   GL132545  26.977  31.399   9.131
 2452POPC   GL232546  26.907  31.758   9.070
 2452POPC   C1A32547  27.114  31.509   8.688
 2452POPC   D2A32548  26.896  31.681   8.335
 2452POPC   C3A32549  26.823  31.409   8.010
 2452POPC   C4A32550  27.082  31.122   7.780
 2452POPC   C1B32551  26.605  31.606   8.764
 2452POPC   C2B32552  26.347  31.583   8.376
 2452POPC   C3B32553  26.355  31.657   7.931
 2452POPC   C4B32554  26.579  31.472   7.570
 2453POPC   NC332555  12.484  24.719   9.421
 2453POPC   PO432556  11.890  24.424   9.636
 2453POPC   GL132557  11.916  24.337   9.159
 2453POPC   GL232558  12.260  24.334   9.019
 2453POPC   C1A32559  11.893  24.191   8.683
 2453POPC   D2A32560  12.086  24.391   8.270
 2453POPC   C3A32561  12.184  24.102   7.858
 2453POPC   C4A32562  12.386  24.149   7.445
 2453POPC   C1B32563  12.041  24.667   8.763
 2453POPC   C2B32564  11.898  24.919   8.449
 2453POPC   C3B32565  11.808  24.839   8.035
 2453POPC   C4B32566  12.057  24.578   7.795
 2454POPC   NC332567  24.656   4.306   9.327
 2454POPC   PO432568  25.199   4.317   9.730
 2454POPC   GL132569  25.217   4.257   9.236
 2454POPC   GL232570  24.976   3.975   9.106
 2454POPC   C1A32571  25.474   4.446   8.831
 2454POPC   D2A32572  25.424   4.220   8.406
 2454POPC   C3A32573  25.510   4.381   8.011
 2454POPC   C4A32574  25.426   4.554   7.627
 2454POPC   C1B32575  25.021   4.253   8.749
 2454POPC   C2B32576  25.028   4.551   8.410
 2454POPC   C3B32577  24.985   4.382   8.007
 2454POPC   C4B32578  25.178   4.017   7.837
 2455POPC   NC332579  20.342   8.616   9.417
 2455POPC   PO432580  20.693   8.090   9.436
 2455POPC   GL132581  20.662   7.986   9.038
 2455POPC   GL232582  20.311   7.981   9.069
 2455POPC   C1A32583  20.831   8.017   8.623
 2455POPC   D2A32584  20.603   8.134   8.259
 2455POPC   C3A32585  20.722   7.978   7.864
 2455POPC   C4A32586  21.104   8.019   7.579
 2455POPC   C1B32587  20.401   8.329   8.749
 2455POPC   C2B32588  20.394   8.597   8.359
 2455POPC   C3B32589  20.337   8.450   7.915
 2455POPC   C4B32590  20.227   8.503   7.451
 2456POPC   NC332591  32.538  41.472   9.422
 2456POPC   PO432592  33.197  41.437   9.537
 2456POPC   GL132593  33.195  41.561   9.118
 2456POPC   GL232594  32.901  41.759   9.165
 2456POPC   C1A32595  33.174  41.798   8.732
 2456POPC   D2A32596  32.931  41.886   8.398
 2456POPC   C3A32597  33.001  41.661   8.068
 2456POPC   C4A32598  33.102  41.736   7.687
 2456POPC   C1B32599  32.686  41.650   8.787
 2456POPC   C2B32600  32.761  41.364   8.446
 2456POPC   C3B32601  32.891  41.171   8.059
 2456POPC   C4B32602  33.047  41.240   7.682
 2457POPC   NC332603  25.577  41.638   9.398
 2457POPC   PO432604  24.913  41.882   9.460
 2457POPC   GL132605  25.100  41.657   9.152
 2457POPC   GL232606  25.223  41.958   9.025
 2457POPC   C1A32607  25.248  41.509   8.733
 2457POPC   D2A32608  25.378  41.711   8.320
 2457POPC   C3A32609  25.481  41.390   8.034
 2457POPC   C4A32610  25.115  41.291   7.881
 2457POPC   C1B32611  24.965  41.949   8.645
 2457POPC   C2B32612  24.775  41.952   8.247
 2457POPC   C3B32613  24.890  41.832   7.858
 2457POPC   C4B32614  25.277  41.699   7.648
 2458POPC   NC332615  40.312  34.440   9.818
 2458POPC   PO432616  39.927  34.839   9.421
 2458POPC   GL132617  40.205  34.701   9.083
 2458POPC   GL232618  40.206  34.366   9.100
 2458POPC   C1A32619  40.139  34.583   8.642
 2458POPC   D2A32620  39.801  34.546   8.381
 2458POPC   C3A32621  40.046  34.642   8.061
 2458POPC   C4A32622  40.179  34.724   7.681
 2458POPC   C1B32623  40.424  34.174   8.738
 2458POPC   C2B32624  40.522  34.350   8.320
 2458POPC   C3B32625  40.386  34.250   7.898
 2458POPC   C4B32626  40.264  34.275   7.454
 2459POPC   NC332627  44.862   6.095   9.346
 2459POPC   PO432628  44.356   5.691   9.582
 2459POPC   GL132629  44.555   5.664   9.176
 2459POPC   GL232630  44.478   5.950   9.037
 2459POPC   C1A32631  44.898   5.635   8.861
 2459POPC   D2A32632   0.020   5.627   8.430
 2459POPC   C3A32633  44.960   5.515   8.000
 2459POPC   C4A32634  44.969   5.858   7.730
 2459POPC   C1B32635  44.449   5.739   8.638
 2459POPC   C2B32636  44.559   5.832   8.228
 2459POPC   C3B32637  44.481   5.851   7.821
 2459POPC   C4B32638  44.171   5.631   7.668
 2460POPC   NC332639  33.584   6.231   9.535
 2460POPC   PO432640  34.111   6.637   9.478
 2460POPC   GL132641  33.809   6.525   9.189
 2460POPC   GL232642  33.612   6.769   9.058
 2460POPC   C1A32643  33.799   6.303   8.825
 2460POPC   D2A32644  33.676   6.357   8.415
 2460POPC   C3A32645  33.828   6.229   8.047
 2460POPC   C4A32646  33.629   6.344   7.678
 2460POPC   C1B32647  33.948   6.761   8.719
 2460POPC   C2B32648  34.113   6.648   8.330
 2460POPC   C3B32649  33.977   6.697   7.909
 2460POPC   C4B32650  34.201   6.825   7.534
 2461POPC   NC332651  10.191  18.082   9.489
 2461POPC   PO432652  10.652  18.571   9.446
 2461POPC   GL132653  10.524  18.271   9.126
 2461POPC   GL232654  10.617  17.924   9.237
 2461POPC   C1A32655  10.400  18.331   8.701
 2461POPC   D2A32656  10.610  18.516   8.367
 2461POPC   C3A32657  10.536  18.310   8.001
 2461POPC   C4A32658  10.131  18.301   7.830
 2461POPC   C1B32659  10.503  17.833   8.818
 2461POPC   C2B32660  10.525  17.927   8.374
 2461POPC   C3B32661  10.647  17.800   7.949
 2461POPC   C4B32662  10.470  17.978   7.568
 2462POPC   NC332663  13.292  29.170   9.436
 2462POPC   PO432664  13.925  29.341   9.316
 2462POPC   GL132665  13.633  29.097   9.048
 2462POPC   GL232666  13.298  28.917   9.005
 2462POPC   C1A32667  13.801  29.077   8.669
 2462POPC   D2A32668  13.723  29.275   8.313
 2462POPC   C3A32669  13.748  28.993   8.030
 2462POPC   C4A32670  13.938  28.961   7.655
 2462POPC   C1B32671  13.295  29.245   8.695
 2462POPC   C2B32672  13.121  29.183   8.280
 2462POPC   C3B32673  13.234  28.875   7.979
 2462POPC   C4B32674  13.431  29.046   7.650
 2463POPC   NC332675  14.911   9.969   9.533
 2463POPC   PO432676  15.386   9.625   9.731
 2463POPC   GL132677  15.369   9.654   9.251
 2463POPC   GL232678  15.168   9.905   9.103
 2463POPC   C1A32679  15.422   9.534   8.807
 2463POPC   D2A32680  15.288   9.430   8.371
 2463POPC   C3A32681  15.439   9.690   8.045
 2463POPC   C4A32682  15.232   9.949   7.755
 2463POPC   C1B32683  14.970   9.794   8.717
 2463POPC   C2B32684  15.036   9.909   8.302
 2463POPC   C3B32685  14.923   9.605   8.015
 2463POPC   C4B32686  14.813   9.671   7.582
 2464POPC   NC332687  32.485  39.893   9.473
 2464POPC   PO432688  32.115  40.424   9.493
 2464POPC   GL132689  32.055  40.094   9.178
 2464POPC   GL232690  32.119  39.727   9.182
 2464POPC   C1A32691  32.162  40.108   8.760
 2464POPC   D2A32692  31.925  40.198   8.408
 2464POPC   C3A32693  32.061  40.009   8.069
 2464POPC   C4A32694  32.075  39.903   7.676
 2464POPC   C1B32695  32.428  39.683   8.840
 2464POPC   C2B32696  32.348  39.745   8.403
 2464POPC   C3B32697  32.539  39.840   7.989
 2464POPC   C4B32698  32.484  39.650   7.580
 2465POPC   NC332699  34.850  22.097   9.609
 2465POPC   PO432700  34.250  22.068   9.277
 2465POPC   GL132701  34.523  22.312   9.100
 2465POPC   GL232702  34.348  22.642   9.058
 2465POPC   C1A32703  34.626  22.102   8.726
 2465POPC   D2A32704  34.693  21.788   8.416
 2465POPC   C3A32705  34.574  21.908   8.018
 2465POPC   C4A32706  34.778  21.879   7.652
 2465POPC   C1B32707  34.191  22.407   8.716
 2465POPC   C2B32708  34.279  22.233   8.327
 2465POPC   C3B32709  34.364  22.404   7.923
 2465POPC   C4B32710  34.485  22.260   7.509
 2466POPC   NC332711   3.174  34.636   9.555
 2466POPC   PO432712   2.589  34.859   9.455
 2466POPC   GL132713   2.867  34.714   9.107
 2466POPC   GL232714   2.923  34.375   9.012
 2466POPC   C1A32715   2.937  34.864   8.657
 2466POPC   D2A32716   2.828  34.877   8.196
 2466POPC   C3A32717   2.783  34.579   7.831
 2466POPC   C4A32718   3.147  34.386   7.626
 2466POPC   C1B32719   2.645  34.422   8.667
 2466POPC   C2B32720   2.588  34.354   8.226
 2466POPC   C3B32721   2.364  34.287   7.818
 2466POPC   C4B32722   2.356  34.574   7.432
 2467POPC   NC332723  41.828   8.308   9.411
 2467POPC   PO432724  41.448   7.771   9.229
 2467POPC   GL132725  41.543   8.026   8.914
 2467POPC   GL232726  41.506   8.354   9.023
 2467POPC   C1A32727  41.250   8.242   8.605
 2467POPC   D2A32728  41.293   8.268   8.189
 2467POPC   C3A32729  41.409   7.935   7.985
 2467POPC   C4A32730  41.335   7.958   7.538
 2467POPC   C1B32731  41.731   8.424   8.632
 2467POPC   C2B32732  41.849   8.658   8.298
 2467POPC   C3B32733  41.806   8.505   7.919
 2467POPC   C4B32734  41.799   8.124   7.747
 2468POPC   NC332735   4.225   5.371   9.357
 2468POPC   PO432736   3.744   4.990   9.441
 2468POPC   GL132737   3.989   4.783   9.090
 2468POPC   GL232738   4.368   4.865   9.066
 2468POPC   C1A32739   4.139   4.818   8.632
 2468POPC   D2A32740   4.319   5.066   8.294
 2468POPC   C3A32741   4.018   5.269   7.998
 2468POPC   C4A32742   3.876   5.071   7.617
 2468POPC   C1B32743   4.496   5.220   8.749
 2468POPC   C2B32744   4.475   5.558   8.377
 2468POPC   C3B32745   4.502   5.404   7.947
 2468POPC   C4B32746   4.585   4.967   7.842
 2469POPC   NC332747  17.149  40.383   9.456
 2469POPC   PO432748  17.516  39.775   9.536
 2469POPC   GL132749  17.558  39.916   9.139
 2469POPC   GL232750  17.239  39.992   9.119
 2469POPC   C1A32751  17.648  39.904   8.725
 2469POPC   D2A32752  17.955  39.785   8.446
 2469POPC   C3A32753  17.810  39.859   8.046
 2469POPC   C4A32754  17.684  39.668   7.701
 2469POPC   C1B32755  17.166  40.045   8.687
 2469POPC   C2B32756  17.338  40.033   8.265
 2469POPC   C3B32757  17.343  40.044   7.800
 2469POPC   C4B32758  17.298  40.318   7.457
 2470POPC   NC332759  16.173  30.334   9.871
 2470POPC   PO432760  15.671  30.191   9.424
 2470POPC   GL132761  15.806  29.971   9.046
 2470POPC   GL232762  16.145  29.847   9.012
 2470POPC   C1A32763  15.835  29.745   8.635
 2470POPC   D2A32764  15.600  29.720   8.275
 2470POPC   C3A32765  15.790  29.952   7.945
 2470POPC   C4A32766  16.200  29.866   7.801
 2470POPC   C1B32767  16.173  30.136   8.671
 2470POPC   C2B32768  16.177  30.138   8.247
 2470POPC   C3B32769  16.364  30.350   7.932
 2470POPC   C4B32770  16.252  30.306   7.501
 2471POPC   NC332771  13.192   2.555   9.536
 2471POPC   PO432772  13.674   2.853   9.440
 2471POPC   GL132773  13.402   2.766   9.102
 2471POPC   GL232774  13.355   2.369   9.104
 2471POPC   C1A32775  13.587   2.890   8.699
 2471POPC   D2A32776  13.908   2.768   8.435
 2471POPC   C3A32777  13.783   3.031   8.151
 2471POPC   C4A32778  13.737   2.874   7.772
 2471POPC   C1B32779  13.747   2.456   8.900
 2471POPC   C2B32780  13.500   2.424   8.535
 2471POPC   C3B32781  13.577   2.469   8.106
 2471POPC   C4B32782  13.422   2.492   7.690
 2472POPC   NC332783  36.769  36.402   9.766
 2472POPC   PO432784  36.749  35.803   9.619
 2472POPC   GL132785  36.890  35.938   9.158
 2472POPC   GL232786  36.822  35.692   8.921
 2472POPC   C1A32787  37.226  35.991   8.771
 2472POPC   D2A32788  37.351  36.110   8.340
 2472POPC   C3A32789  37.063  36.113   7.977
 2472POPC   C4A32790  36.734  36.406   7.854
 2472POPC   C1B32791  36.738  36.059   8.663
 2472POPC   C2B32792  36.594  36.068   8.244
 2472POPC   C3B32793  36.603  35.886   7.837
 2472POPC   C4B32794  36.384  36.132   7.533
 2473POPC   NC332795   2.324   3.667   9.519
 2473POPC   PO432796   1.734   3.428   9.569
 2473POPC   GL132797   1.913   3.292   9.173
 2473POPC   GL232798   2.157   3.532   9.063
 2473POPC   C1A32799   1.974   3.242   8.715
 2473POPC   D2A32800   2.085   3.596   8.471
 2473POPC   C3A32801   2.159   3.437   8.079
 2473POPC   C4A32802   2.054   3.452   7.663
 2473POPC   C1B32803   1.748   3.695   8.878
 2473POPC   C2B32804   1.684   3.910   8.490
 2473POPC   C3B32805   1.823   3.854   8.082
 2473POPC   C4B32806   1.668   3.859   7.686
 2474POPC   NC332807  16.617   6.881   9.965
 2474POPC   PO432808  16.664   7.501   9.600
 2474POPC   GL132809  16.669   7.669   9.160
 2474POPC   GL232810  16.963   7.756   8.991
 2474POPC   C1A32811  16.567   7.683   8.698
 2474POPC   D2A32812  16.612   7.720   8.238
 2474POPC   C3A32813  16.675   7.339   7.982
 2474POPC   C4A32814  16.851   6.980   7.765
 2474POPC   C1B32815  17.055   7.662   8.519
 2474POPC   C2B32816  17.097   7.687   8.042
 2474POPC   C3B32817  16.864   7.669   7.637
 2474POPC   C4B32818  16.961   7.752   7.178
 2475POPC   NC332819   3.796  40.111   9.442
 2475POPC   PO432820   3.132  40.412   9.520
 2475POPC   GL132821   3.260  40.044   9.217
 2475POPC   GL232822   3.611  39.883   9.048
 2475POPC   C1A32823   3.189  39.895   8.807
 2475POPC   D2A32824   3.476  39.774   8.513
 2475POPC   C3A32825   3.396  39.991   8.158
 2475POPC   C4A32826   3.285  39.916   7.727
 2475POPC   C1B32827   3.778  40.139   8.712
 2475POPC   C2B32828   3.903  39.967   8.277
 2475POPC   C3B32829   3.761  39.794   7.851
 2475POPC   C4B32830   3.866  39.930   7.400
 2476POPC   NC332831  32.907   2.222   9.496
 2476POPC   PO432832  33.157   1.619   9.744
 2476POPC   GL132833  33.058   1.744   9.278
 2476POPC   GL232834  32.756   1.669   9.091
 2476POPC   C1A32835  33.195   1.820   8.823
 2476POPC   D2A32836  33.307   1.775   8.356
 2476POPC   C3A32837  33.070   1.976   7.994
 2476POPC   C4A32838  33.123   2.253   7.652
 2476POPC   C1B32839  32.782   2.100   8.855
 2476POPC   C2B32840  32.828   1.978   8.439
 2476POPC   C3B32841  32.528   1.989   8.096
 2476POPC   C4B32842  32.633   1.774   7.724
 2477POPC   NC332843  12.695  38.168   9.551
 2477POPC   PO432844  12.964  38.695   9.624
 2477POPC   GL132845  12.785  38.597   9.204
 2477POPC   GL232846  12.618  38.295   9.064
 2477POPC   C1A32847  12.951  38.592   8.778
 2477POPC   D2A32848  13.028  38.843   8.420
 2477POPC   C3A32849  13.034  38.675   8.006
 2477POPC   C4A32850  13.030  38.862   7.602
 2477POPC   C1B32851  12.489  38.361   8.639
 2477POPC   C2B32852  12.598  38.494   8.222
 2477POPC   C3B32853  12.612  38.517   7.762
 2477POPC   C4B32854  12.531  38.195   7.434
 2478POPC   NC332855   3.403  28.921   9.454
 2478POPC   PO432856   3.928  29.387   9.459
 2478POPC   GL132857   3.959  29.267   8.995
 2478POPC   GL232858   3.674  29.088   9.058
 2478POPC   C1A32859   3.792  29.174   8.572
 2478POPC   D2A32860   3.444  29.195   8.277
 2478POPC   C3A32861   3.645  29.286   7.888
 2478POPC   C4A32862   3.599  29.148   7.459
 2478POPC   C1B32863   3.479  28.782   8.795
 2478POPC   C2B32864   3.578  28.668   8.407
 2478POPC   C3B32865   3.615  28.777   7.999
 2478POPC   C4B32866   3.503  28.670   7.618
 2479POPC   NC332867   0.202  31.211   9.489
 2479POPC   PO432868  44.629  31.580   9.554
 2479POPC   GL132869  44.855  31.507   9.216
 2479POPC   GL232870  44.810  31.814   9.054
 2479POPC   C1A32871  44.668  31.334   8.832
 2479POPC   D2A32872  44.677  31.539   8.421
 2479POPC   C3A32873  44.632  31.307   8.031
 2479POPC   C4A32874  44.454  31.184   7.634
 2479POPC   C1B32875  44.375  31.765   8.870
 2479POPC   C2B32876  44.178  31.790   8.453
 2479POPC   C3B32877  44.379  31.842   8.041
 2479POPC   C4B32878  44.494  31.692   7.643
 2480POPC   NC332879  20.184  38.909   9.401
 2480POPC   PO432880  20.697  38.456   9.599
 2480POPC   GL132881  20.352  38.327   9.231
 2480POPC   GL232882  20.393  38.604   9.042
 2480POPC   C1A32883  20.422  38.214   8.730
 2480POPC   D2A32884  20.337  38.312   8.274
 2480POPC   C3A32885  20.460  38.184   7.842
 2480POPC   C4A32886  20.354  38.238   7.408
 2480POPC   C1B32887  20.491  38.713   8.613
 2480POPC   C2B32888  20.354  38.815   8.200
 2480POPC   C3B32889  20.579  38.683   7.827
 2480POPC   C4B32890  20.656  38.643   7.363
 2481POPC   NC332891  39.666  39.220   9.547
 2481POPC   PO432892  40.295  39.425   9.453
 2481POPC   GL132893  40.120  39.079   9.124
 2481POPC   GL232894  39.775  38.956   9.099
 2481POPC   C1A32895  40.082  39.090   8.662
 2481POPC   D2A32896  40.065  39.416   8.353
 2481POPC   C3A32897  40.110  39.331   7.906
 2481POPC   C4A32898  40.351  39.347   7.495
 2481POPC   C1B32899  39.640  38.826   8.673
 2481POPC   C2B32900  39.717  38.994   8.248
 2481POPC   C3B32901  39.885  38.873   7.859
 2481POPC   C4B32902  39.947  39.045   7.431
 2482POPC   NC332903  32.450  25.390   9.373
 2482POPC   PO432904  33.133  25.561   9.384
 2482POPC   GL132905  33.097  25.403   8.998
 2482POPC   GL232906  32.756  25.326   8.941
 2482POPC   C1A32907  33.234  25.078   8.740
 2482POPC   D2A32908  32.996  24.963   8.399
 2482POPC   C3A32909  32.999  25.265   8.103
 2482POPC   C4A32910  33.165  25.189   7.700
 2482POPC   C1B32911  32.560  25.203   8.541
 2482POPC   C2B32912  32.535  24.995   8.144
 2482POPC   C3B32913  32.638  25.176   7.738
 2482POPC   C4B32914  32.422  25.470   7.483
 2483POPC   NC332915  36.415  22.017   9.547
 2483POPC   PO432916  35.758  22.137   9.417
 2483POPC   GL132917  36.083  22.059   9.134
 2483POPC   GL232918  36.286  21.771   9.114
 2483POPC   C1A32919  36.045  21.986   8.710
 2483POPC   D2A32920  36.141  22.266   8.401
 2483POPC   C3A32921  36.000  22.185   7.998
 2483POPC   C4A32922  36.167  22.376   7.636
 2483POPC   C1B32923  36.493  21.720   8.729
 2483POPC   C2B32924  36.332  21.791   8.330
 2483POPC   C3B32925  36.403  21.650   7.965
 2483POPC   C4B32926  36.273  21.868   7.625
 2484POPC   NC332927   7.115   1.799   9.221
 2484POPC   PO432928   7.353   2.376   9.551
 2484POPC   GL132929   7.428   2.298   9.134
 2484POPC   GL232930   7.585   1.966   9.099
 2484POPC   C1A32931   7.463   2.221   8.696
 2484POPC   D2A32932   7.168   2.096   8.434
 2484POPC   C3A32933   7.384   2.223   8.098
 2484POPC   C4A32934   7.250   2.233   7.721
 2484POPC   C1B32935   7.466   1.722   8.715
 2484POPC   C2B32936   7.557   1.789   8.305
 2484POPC   C3B32937   7.433   1.738   7.877
 2484POPC   C4B32938   7.677   1.876   7.527
 2485POPC   NC332939  16.265  28.250   9.460
 2485POPC   PO432940  16.764  28.655   9.655
 2485POPC   GL132941  16.626  28.658   9.216
 2485POPC   GL232942  16.808  28.345   9.153
 2485POPC   C1A32943  16.570  28.601   8.749
 2485POPC   D2A32944  16.881  28.479   8.430
 2485POPC   C3A32945  16.848  28.416   7.994
 2485POPC   C4A32946  16.938  28.625   7.613
 2485POPC   C1B32947  16.651  28.103   8.786
 2485POPC   C2B32948  16.594  28.038   8.339
 2485POPC   C3B32949  16.735  27.930   7.902
 2485POPC   C4B32950  16.741  28.154   7.493
 2486POPC   NC332951  24.395  34.796   9.333
 2486POPC   PO432952  24.258  34.136   9.441
 2486POPC   GL132953  24.406  34.372   9.073
 2486POPC   GL232954  24.220  34.696   8.881
 2486POPC   C1A32955  24.561  34.394   8.668
 2486POPC   D2A32956  24.363  34.593   8.329
 2486POPC   C3A32957  24.638  34.449   8.025
 2486POPC   C4A32958  24.412  34.322   7.697
 2486POPC   C1B32959  24.648  34.879   8.721
 2486POPC   C2B32960  24.766  34.885   8.305
 2486POPC   C3B32961  24.524  34.984   7.945
 2486POPC   C4B32962  24.714  34.773   7.626
 2487POPC   NC332963  14.737  40.597   9.562
 2487POPC   PO432964  15.266  40.959   9.800
 2487POPC   GL132965  15.237  40.834   9.339
 2487POPC   GL232966  15.550  40.842   9.105
 2487POPC   C1A32967  15.075  40.770   8.913
 2487POPC   D2A32968  15.092  41.008   8.514
 2487POPC   C3A32969  15.028  40.813   8.110
 2487POPC   C4A32970  14.952  41.007   7.714
 2487POPC   C1B32971  15.541  40.784   8.645
 2487POPC   C2B32972  15.516  40.726   8.205
 2487POPC   C3B32973  15.485  40.918   7.783
 2487POPC   C4B32974  15.749  41.106   7.445
 2488POPC   NC332975  34.960  13.370   9.278
 2488POPC   PO432976  35.436  13.664   9.583
 2488POPC   GL132977  35.454  13.612   9.157
 2488POPC   GL232978  35.314  13.355   8.937
 2488POPC   C1A32979  35.606  13.783   8.784
 2488POPC   D2A32980  35.369  13.996   8.473
 2488POPC   C3A32981  35.486  13.868   8.061
 2488POPC   C4A32982  35.228  13.856   7.696
 2488POPC   C1B32983  35.030  13.588   8.664
 2488POPC   C2B32984  35.066  13.618   8.237
 2488POPC   C3B32985  35.298  13.399   7.941
 2488POPC   C4B32986  35.203  13.364   7.515
 2489POPC   NC332987  28.897  33.728   9.611
 2489POPC   PO432988  29.541  33.701   9.426
 2489POPC   GL132989  29.254  33.837   9.161
 2489POPC   GL232990  28.946  33.682   9.106
 2489POPC   C1A32991  29.276  34.043   8.791
 2489POPC   D2A32992  29.080  34.124   8.411
 2489POPC   C3A32993  29.274  33.951   8.067
 2489POPC   C4A32994  29.178  33.798   7.673
 2489POPC   C1B32995  28.808  33.757   8.668
 2489POPC   C2B32996  28.832  33.655   8.192
 2489POPC   C3B32997  28.671  33.648   7.742
 2489POPC   C4B32998  28.873  33.535   7.298
 2490POPC   NC332999  30.861   3.274   9.348
 2490POPC   PO433000  30.363   3.592   9.685
 2490POPC   GL133001  30.507   3.617   9.211
 2490POPC   GL233002  30.831   3.761   9.142
 2490POPC   C1A33003  30.727   3.437   8.769
 2490POPC   D2A33004  30.726   3.666   8.384
 2490POPC   C3A33005  30.522   3.426   8.069
 2490POPC   C4A33006  30.600   3.480   7.641
 2490POPC   C1B33007  31.105   3.789   8.767
 2490POPC   C2B33008  31.237   3.673   8.336
 2490POPC   C3B33009  31.001   3.650   7.927
 2490POPC   C4B33010  31.048   3.764   7.515
 2491POPC   NC333011  11.854  19.344   9.307
 2491POPC   PO433012  12.376  18.883   9.437
 2491POPC   GL133013  12.128  18.831   9.087
 2491POPC   GL233014  11.781  18.840   9.237
 2491POPC   C1A33015  12.115  19.036   8.664
 2491POPC   D2A33016  12.283  19.350   8.357
 2491POPC   C3A33017  12.405  19.244   7.908
 2491POPC   C4A33018  12.236  19.142   7.501
 2491POPC   C1B33019  11.664  18.850   8.830
 2491POPC   C2B33020  11.699  18.791   8.391
 2491POPC   C3B33021  11.952  19.009   8.083
 2491POPC   C4B33022  11.769  19.107   7.685
 2492POPC   NC333023  27.236  12.620   9.323
 2492POPC   PO433024  27.669  12.958   9.796
 2492POPC   GL133025  27.669  13.017   9.317
 2492POPC   GL233026  27.386  13.236   9.325
 2492POPC   C1A33027  27.635  12.830   8.848
 2492POPC   D2A33028  27.405  12.604   8.486
 2492POPC   C3A33029  27.362  12.832   8.085
 2492POPC   C4A33030  27.611  12.767   7.689
 2492POPC   C1B33031  27.419  13.286   8.878
 2492POPC   C2B33032  27.296  13.236   8.441
 2492POPC   C3B33033  27.164  13.342   8.047
 2492POPC   C4B33034  27.337  13.182   7.690
 2493POPC   NC333035  33.295  25.124   9.402
 2493POPC   PO433036  33.948  24.926   9.521
 2493POPC   GL133037  33.868  25.177   9.137
 2493POPC   GL233038  33.643  25.453   9.198
 2493POPC   C1A33039  33.886  25.399   8.726
 2493POPC   D2A33040  33.769  25.359   8.297
 2493POPC   C3A33041  33.942  25.001   8.031
 2493POPC   C4A33042  34.116  25.003   7.600
 2493POPC   C1B33043  33.492  25.699   8.855
 2493POPC   C2B33044  33.328  25.569   8.478
 2493POPC   C3B33045  33.363  25.632   8.035
 2493POPC   C4B33046  33.634  25.357   7.814
 2494POPC   NC333047  26.149  32.137   9.473
 2494POPC   PO433048  26.087  32.794   9.617
 2494POPC   GL133049  25.925  32.547   9.211
 2494POPC   GL233050  25.759  32.226   9.132
 2494POPC   C1A33051  26.129  32.473   8.782
 2494POPC   D2A33052  26.273  32.485   8.318
 2494POPC   C3A33053  25.988  32.439   7.925
 2494POPC   C4A33054  26.043  32.357   7.449
 2494POPC   C1B33055  25.865  32.030   8.718
 2494POPC   C2B33056  25.984  32.002   8.248
 2494POPC   C3B33057  25.930  31.942   7.775
 2494POPC   C4B33058  25.753  31.936   7.334
 2495POPC   NC333059  33.723  33.279   9.436
 2495POPC   PO433060  34.176  32.725   9.374
 2495POPC   GL133061  34.024  33.019   9.080
 2495POPC   GL233062  33.666  32.998   9.030
 2495POPC   C1A33063  34.022  33.017   8.646
 2495POPC   D2A33064  33.956  32.744   8.321
 2495POPC   C3A33065  33.877  32.922   7.936
 2495POPC   C4A33066  33.674  32.650   7.661
 2495POPC   C1B33067  33.704  33.383   8.753
 2495POPC   C2B33068  33.643  33.272   8.292
 2495POPC   C3B33069  33.697  33.401   7.856
 2495POPC   C4B33070  33.580  33.274   7.405
 2496POPC   NC333071  37.201   3.864   9.533
 2496POPC   PO433072  37.218   3.228   9.621
 2496POPC   GL133073  37.130   3.453   9.231
 2496POPC   GL233074  36.785   3.448   9.023
 2496POPC   C1A33075  37.242   3.433   8.822
 2496POPC   D2A33076  36.968   3.472   8.450
 2496POPC   C3A33077  37.167   3.447   8.044
 2496POPC   C4A33078  37.008   3.502   7.657
 2496POPC   C1B33079  36.641   3.820   8.733
 2496POPC   C2B33080  36.459   3.835   8.342
 2496POPC   C3B33081  36.687   3.671   8.025
 2496POPC   C4B33082  36.665   3.901   7.677
 2497POPC   NC333083  25.042  33.599  10.030
 2497POPC   PO433084  25.452  34.050   9.607
 2497POPC   GL133085  25.598  34.043   9.200
 2497POPC   GL233086  25.264  33.877   9.140
 2497POPC   C1A33087  25.693  33.910   8.780
 2497POPC   D2A33088  25.412  34.006   8.418
 2497POPC   C3A33089  25.616  33.940   8.042
 2497POPC   C4A33090  25.494  34.027   7.631
 2497POPC   C1B33091  25.270  33.653   8.773
 2497POPC   C2B33092  25.077  33.492   8.402
 2497POPC   C3B33093  25.222  33.607   8.012
 2497POPC   C4B33094  25.137  33.685   7.619
 2498POPC   NC333095  41.020   2.770   9.491
 2498POPC   PO433096  40.506   3.130   9.430
 2498POPC   GL133097  40.689   2.904   9.037
 2498POPC   GL233098  40.931   2.649   9.027
 2498POPC   C1A33099  40.669   2.771   8.593
 2498POPC   D2A33100  40.457   2.638   8.217
 2498POPC   C3A33101  40.710   2.750   7.862
 2498POPC   C4A33102  40.757   3.161   7.651
 2498POPC   C1B33103  41.122   2.481   8.710
 2498POPC   C2B33104  40.975   2.415   8.322
 2498POPC   C3B33105  41.162   2.408   7.934
 2498POPC   C4B33106  41.065   2.535   7.523
 2499POPC   NC333107   2.405  28.861   9.477
 2499POPC   PO433108   3.025  29.217   9.423
 2499POPC   GL133109   2.711  29.051   9.105
 2499POPC   GL233110   2.700  28.678   9.122
 2499POPC   C1A33111   2.624  29.227   8.698
 2499POPC   D2A33112   2.919  29.291   8.359
 2499POPC   C3A33113   2.843  29.264   7.941
 2499POPC   C4A33114   3.201  29.054   7.777
 2499POPC   C1B33115   2.481  28.737   8.732
 2499POPC   C2B33116   2.536  28.911   8.290
 2499POPC   C3B33117   2.622  28.817   7.835
 2499POPC   C4B33118   2.337  28.755   7.467
 2500POPC   NC333119  40.252   4.963   9.658
 2500POPC   PO433120  39.696   5.313   9.693
 2500POPC   GL133121  39.902   4.979   9.285
 2500POPC   GL233122  39.875   4.721   9.034
 2500POPC   C1A33123  40.058   5.152   8.796
 2500POPC   D2A33124  40.208   5.039   8.345
 2500POPC   C3A33125  40.342   5.317   7.969
 2500POPC   C4A33126  40.154   5.277   7.545
 2500POPC   C1B33127  39.721   4.827   8.623
 2500POPC   C2B33128  39.690   5.156   8.340
 2500POPC   C3B33129  39.856   5.155   7.971
 2500POPC   C4B33130  39.635   5.245   7.663
 2501POPC   NC333131   5.818  10.611   9.478
 2501POPC   PO433132   5.852  10.054   9.816
 2501POPC   GL133133   5.870  10.108   9.314
 2501POPC   GL233134   6.001  10.383   9.054
 2501POPC   C1A33135   5.782  10.001   8.854
 2501POPC   D2A33136   5.859  10.296   8.502
 2501POPC   C3A33137   5.781  10.229   8.053
 2501POPC   C4A33138   5.843  10.380   7.625
 2501POPC   C1B33139   6.123  10.700   8.748
 2501POPC   C2B33140   5.980  10.895   8.373
 2501POPC   C3B33141   6.189  10.962   7.982
 2501POPC   C4B33142   6.180  10.783   7.582
 2502POPC   NC333143  40.240  38.163   9.557
 2502POPC   PO433144  39.977  38.786   9.547
 2502POPC   GL133145  40.080  38.545   9.235
 2502POPC   GL233146  39.834  38.326   9.210
 2502POPC   C1A33147  40.093  38.604   8.805
 2502POPC   D2A33148  39.997  38.581   8.367
 2502POPC   C3A33149  40.318  38.663   8.053
 2502POPC   C4A33150  40.326  38.767   7.610
 2502POPC   C1B33151  39.880  38.149   8.822
 2502POPC   C2B33152  39.705  38.135   8.405
 2502POPC   C3B33153  39.775  38.277   8.013
 2502POPC   C4B33154  40.073  38.323   7.732
 2503POPC   NC333155   0.559  26.304   9.351
 2503POPC   PO433156   0.863  25.842   9.729
 2503POPC   GL133157   0.536  25.802   9.287
 2503POPC   GL233158   0.177  25.844   9.326
 2503POPC   C1A33159   0.594  25.913   8.805
 2503POPC   D2A33160   0.327  26.143   8.463
 2503POPC   C3A33161   0.320  26.399   8.044
 2503POPC   C4A33162   0.484  26.326   7.598
 2503POPC   C1B33163   0.102  25.832   8.868
 2503POPC   C2B33164   0.008  25.708   8.433
 2503POPC   C3B33165   0.103  25.923   8.033
 2503POPC   C4B33166   0.248  25.869   7.569
 2504POPC   NC333167  17.439  25.634   9.632
 2504POPC   PO433168  17.773  25.053   9.749
 2504POPC   GL133169  17.516  25.132   9.309
 2504POPC   GL233170  17.473  25.447   9.148
 2504POPC   C1A33171  17.406  24.999   8.852
 2504POPC   D2A33172  17.546  25.113   8.423
 2504POPC   C3A33173  17.456  24.976   8.007
 2504POPC   C4A33174  17.617  24.877   7.594
 2504POPC   C1B33175  17.763  25.439   8.752
 2504POPC   C2B33176  17.917  25.446   8.289
 2504POPC   C3B33177  17.914  25.252   7.855
 2504POPC   C4B33178  18.152  25.291   7.458
 2505POPC   NC333179  24.117  32.813   9.465
 2505POPC   PO433180  24.001  32.167   9.538
 2505POPC   GL133181  23.756  32.179   9.170
 2505POPC   GL233182  23.395  32.192   9.227
 2505POPC   C1A33183  23.827  32.087   8.742
 2505POPC   D2A33184  24.063  32.001   8.408
 2505POPC   C3A33185  23.904  32.174   8.048
 2505POPC   C4A33186  23.598  32.057   7.766
 2505POPC   C1B33187  23.417  32.364   8.803
 2505POPC   C2B33188  23.407  32.228   8.367
 2505POPC   C3B33189  23.454  32.471   7.996
 2505POPC   C4B33190  23.553  32.638   7.608
 2506POPC   NC333191   8.493   3.883   9.554
 2506POPC   PO433192   9.041   4.296   9.417
 2506POPC   GL133193   9.078   4.125   9.047
 2506POPC   GL233194   8.791   3.924   9.125
 2506POPC   C1A33195   9.127   4.326   8.641
 2506POPC   D2A33196   8.894   4.562   8.335
 2506POPC   C3A33197   9.107   4.536   7.943
 2506POPC   C4A33198   9.249   4.475   7.532
 2506POPC   C1B33199   8.664   4.154   8.757
 2506POPC   C2B33200   8.588   4.064   8.363
 2506POPC   C3B33201   8.681   4.230   7.989
 2506POPC   C4B33202   8.769   4.343   7.579
 2507POPC   NC333203  30.314  18.107   9.582
 2507POPC   PO433204  29.644  18.299   9.521
 2507POPC   GL133205  29.740  18.277   9.150
 2507POPC   GL233206  30.079  18.347   9.190
 2507POPC   C1A33207  29.562  18.191   8.772
 2507POPC   D2A33208  29.763  18.112   8.407
 2507POPC   C3A33209  29.596  18.190   8.026
 2507POPC   C4A33210  29.761  18.246   7.628
 2507POPC   C1B33211  30.139  18.236   8.780
 2507POPC   C2B33212  30.288  18.098   8.382
 2507POPC   C3B33213  30.126  18.273   8.003
 2507POPC   C4B33214  30.270  18.164   7.591
 2508POPC   NC333215   8.037   5.244   9.347
 2508POPC   PO433216   8.092   4.607   9.366
 2508POPC   GL133217   8.208   4.845   9.053
 2508POPC   GL233218   8.481   4.992   9.181
 2508POPC   C1A33219   8.150   5.045   8.668
 2508POPC   D2A33220   8.034   5.362   8.367
 2508POPC   C3A33221   8.125   5.046   8.110
 2508POPC   C4A33222   8.109   4.911   7.751
 2508POPC   C1B33223   8.605   5.227   8.811
 2508POPC   C2B33224   8.506   5.523   8.527
 2508POPC   C3B33225   8.485   5.504   8.125
 2508POPC   C4B33226   8.581   5.226   7.825
 2509POPC   NC333227  14.272  35.108   9.444
 2509POPC   PO433228  14.102  35.706   9.509
 2509POPC   GL133229  14.379  35.501   9.144
 2509POPC   GL233230  14.393  35.154   8.957
 2509POPC   C1A33231  14.512  35.575   8.716
 2509POPC   D2A33232  14.462  35.831   8.368
 2509POPC   C3A33233  14.423  35.604   8.030
 2509POPC   C4A33234  14.291  35.291   7.791
 2509POPC   C1B33235  14.558  34.975   8.594
 2509POPC   C2B33236  14.369  35.124   8.261
 2509POPC   C3B33237  13.992  34.987   8.068
 2509POPC   C4B33238  14.035  34.801   7.669
 2510POPC   NC333239   8.537  15.642   9.499
 2510POPC   PO433240   9.192  16.035   9.456
 2510POPC   GL133241   9.065  15.957   9.076
 2510POPC   GL233242   8.725  16.015   9.190
 2510POPC   C1A33243   9.189  15.880   8.643
 2510POPC   D2A33244   9.096  16.119   8.274
 2510POPC   C3A33245   9.289  15.923   7.951
 2510POPC   C4A33246   9.132  15.732   7.579
 2510POPC   C1B33247   8.659  15.813   8.802
 2510POPC   C2B33248   8.763  15.704   8.370
 2510POPC   C3B33249   8.762  15.869   7.932
 2510POPC   C4B33250   8.616  15.876   7.485
 2511POPC   NC333251  38.613  40.846   9.538
 2511POPC   PO433252  38.078  40.364   9.601
 2511POPC   GL133253  38.276  40.586   9.193
 2511POPC   GL233254  38.645  40.626   9.077
 2511POPC   C1A33255  38.276  40.594   8.702
 2511POPC   D2A33256  38.313  40.362   8.283
 2511POPC   C3A33257  38.369  40.555   7.827
 2511POPC   C4A33258  38.394  40.456   7.338
 2511POPC   C1B33259  38.649  40.925   8.734
 2511POPC   C2B33260  38.497  40.859   8.293
 2511POPC   C3B33261  38.673  40.977   7.907
 2511POPC   C4B33262  38.466  40.937   7.518
 2512POPC   NC333263  32.286  39.177   9.681
 2512POPC   PO433264  32.723  39.516   9.418
 2512POPC   GL133265  32.366  39.266   9.175
 2512POPC   GL233266  32.073  39.014   9.236
 2512POPC   C1A33267  32.201  39.241   8.747
 2512POPC   D2A33268  32.203  39.169   8.317
 2512POPC   C3A33269  32.200  39.453   7.990
 2512POPC   C4A33270  32.060  39.365   7.593
 2512POPC   C1B33271  31.890  38.839   8.817
 2512POPC   C2B33272  31.842  38.764   8.313
 2512POPC   C3B33273  32.073  38.906   7.889
 2512POPC   C4B33274  32.492  39.105   7.690
 2513POPC   NC333275  32.713  30.094   9.456
 2513POPC   PO433276  33.023  30.735   9.578
 2513POPC   GL133277  32.889  30.554   9.221
 2513POPC   GL233278  33.008  30.847   9.074
 2513POPC   C1A33279  32.914  30.429   8.792
 2513POPC   D2A33280  33.087  30.580   8.402
 2513POPC   C3A33281  32.926  30.470   8.014
 2513POPC   C4A33282  33.052  30.559   7.605
 2513POPC   C1B33283  33.078  31.041   8.676
 2513POPC   C2B33284  32.897  31.058   8.286
 2513POPC   C3B33285  33.168  30.955   7.966
 2513POPC   C4B33286  33.429  30.979   7.636
 2514POPC   NC333287  35.815  15.381   9.414
 2514POPC   PO433288  35.359  14.985   9.354
 2514POPC   GL133289  35.486  15.191   9.034
 2514POPC   GL233290  35.776  14.992   8.959
 2514POPC   C1A33291  35.272  15.169   8.638
 2514POPC   D2A33292  34.974  15.320   8.324
 2514POPC   C3A33293  35.124  15.388   7.940
 2514POPC   C4A33294  35.202  15.004   7.730
 2514POPC   C1B33295  35.783  15.338   8.662
 2514POPC   C2B33296  35.550  15.357   8.273
 2514POPC   C3B33297  35.636  15.251   7.903
 2514POPC   C4B33298  35.971  15.402   7.678
 2515POPC   NC333299  25.283   2.781   9.575
 2515POPC   PO433300  25.584   2.252   9.281
 2515POPC   GL133301  25.483   2.691   9.115
 2515POPC   GL233302  25.086   2.805   9.121
 2515POPC   C1A33303  25.343   2.692   8.697
 2515POPC   D2A33304  25.475   2.534   8.316
 2515POPC   C3A33305  25.496   2.940   8.124
 2515POPC   C4A33306  25.371   3.064   7.733
 2515POPC   C1B33307  24.828   2.734   8.747
 2515POPC   C2B33308  24.977   2.683   8.328
 2515POPC   C3B33309  25.171   2.606   7.900
 2515POPC   C4B33310  25.109   2.672   7.459
 2516POPC   NC333311   5.311  28.094   9.399
 2516POPC   PO433312   5.028  28.439   9.862
 2516POPC   GL133313   4.914  28.522   9.355
 2516POPC   GL233314   4.873  28.216   9.158
 2516POPC   C1A33315   5.061  28.584   8.878
 2516POPC   D2A33316   4.958  28.525   8.439
 2516POPC   C3A33317   5.216  28.500   8.052
 2516POPC   C4A33318   5.362  28.158   7.793
 2516POPC   C1B33319   4.813  28.083   8.722
 2516POPC   C2B33320   4.820  28.049   8.270
 2516POPC   C3B33321   4.834  28.112   7.809
 2516POPC   C4B33322   4.930  27.935   7.398
 2517POPC   NC333323  29.476  17.855   9.409
 2517POPC   PO433324  28.905  17.717   9.440
 2517POPC   GL133325  29.152  17.612   9.084
 2517POPC   GL233326  28.943  17.331   8.974
 2517POPC   C1A33327  29.147  17.689   8.655
 2517POPC   D2A33328  29.290  17.870   8.287
 2517POPC   C3A33329  29.221  17.594   7.957
 2517POPC   C4A33330  28.848  17.470   7.744
 2517POPC   C1B33331  29.313  17.152   8.793
 2517POPC   C2B33332  29.262  16.962   8.389
 2517POPC   C3B33333  29.276  17.100   7.972
 2517POPC   C4B33334  29.302  17.197   7.554
 2518POPC   NC333335  43.232   4.639   9.674
 2518POPC   PO433336  42.975   4.034   9.585
 2518POPC   GL133337  42.888   4.282   9.220
 2518POPC   GL233338  43.151   4.476   9.159
 2518POPC   C1A33339  42.889   4.319   8.761
 2518POPC   D2A33340  43.145   4.256   8.408
 2518POPC   C3A33341  42.912   4.337   8.073
 2518POPC   C4A33342  42.954   4.231   7.672
 2518POPC   C1B33343  43.381   4.613   8.777
 2518POPC   C2B33344  43.569   4.542   8.359
 2518POPC   C3B33345  43.361   4.546   7.975
 2518POPC   C4B33346  43.318   4.547   7.547
 2519POPC   NC333347  19.370   0.138   9.605
 2519POPC   PO433348  18.879  44.605   9.612
 2519POPC   GL133349  19.054  44.603   9.215
 2519POPC   GL233350  19.273  44.863   9.125
 2519POPC   C1A33351  18.960  44.564   8.800
 2519POPC   D2A33352  19.037  44.694   8.377
 2519POPC   C3A33353  18.825  44.576   8.039
 2519POPC   C4A33354  19.028  44.646   7.676
 2519POPC   C1B33355  19.437  44.791   8.680
 2519POPC   C2B33356  19.470  44.927   8.229
 2519POPC   C3B33357  19.508  44.727   7.808
 2519POPC   C4B33358  19.403  44.716   7.331
 2520POPC   NC333359  35.249   6.097   9.502
 2520POPC   PO433360  34.754   5.543   9.681
 2520POPC   GL133361  34.855   5.857   9.308
 2520POPC   GL233362  35.177   5.695   9.170
 2520POPC   C1A33363  34.877   5.980   8.864
 2520POPC   D2A33364  35.027   5.799   8.465
 2520POPC   C3A33365  35.090   6.051   8.086
 2520POPC   C4A33366  35.148   5.850   7.678
 2520POPC   C1B33367  35.405   5.976   8.858
 2520POPC   C2B33368  35.511   6.049   8.435
 2520POPC   C3B33369  35.568   5.811   8.070
 2520POPC   C4B33370  35.692   6.007   7.699
 2521POPC   NC333371  12.311  34.468   9.775
 2521POPC   PO433372  12.955  34.599   9.567
 2521POPC   GL133373  12.860  34.684   9.204
 2521POPC   GL233374  12.517  34.620   9.280
 2521POPC   C1A33375  13.024  34.812   8.826
 2521POPC   D2A33376  12.902  34.657   8.436
 2521POPC   C3A33377  13.128  34.724   8.049
 2521POPC   C4A33378  12.911  34.651   7.699
 2521POPC   C1B33379  12.495  34.772   8.861
 2521POPC   C2B33380  12.388  34.582   8.481
 2521POPC   C3B33381  12.538  34.603   8.055
 2521POPC   C4B33382  12.371  34.660   7.642
 2522POPC   NC333383  32.056   6.612   9.413
 2522POPC   PO433384  32.210   5.857   9.492
 2522POPC   GL133385  32.280   6.156   9.168
 2522POPC   GL233386  31.993   6.277   8.971
 2522POPC   C1A33387  32.463   6.131   8.758
 2522POPC   D2A33388  32.457   5.832   8.393
 2522POPC   C3A33389  32.529   5.948   7.963
 2522POPC   C4A33390  32.242   6.039   7.607
 2522POPC   C1B33391  32.040   5.865   8.715
 2522POPC   C2B33392  31.941   5.725   8.261
 2522POPC   C3B33393  31.778   5.868   7.829
 2522POPC   C4B33394  31.910   5.726   7.386
 2523POPC   NC333395  28.381   5.355   9.609
 2523POPC   PO433396  28.860   4.840   9.516
 2523POPC   GL133397  28.536   4.996   9.223
 2523POPC   GL233398  28.172   5.174   9.159
 2523POPC   C1A33399  28.476   5.044   8.782
 2523POPC   D2A33400  28.258   4.920   8.423
 2523POPC   C3A33401  28.378   5.096   8.007
 2523POPC   C4A33402  28.308   5.495   7.777
 2523POPC   C1B33403  28.004   5.283   8.716
 2523POPC   C2B33404  27.986   5.347   8.230
 2523POPC   C3B33405  27.930   5.148   7.804
 2523POPC   C4B33406  28.098   4.698   7.772
 2524POPC   NC333407  42.795  32.122   9.729
 2524POPC   PO433408  42.184  32.102   9.549
 2524POPC   GL133409  42.460  32.157   9.246
 2524POPC   GL233410  42.334  32.502   9.144
 2524POPC   C1A33411  42.535  32.158   8.818
 2524POPC   D2A33412  42.271  32.324   8.466
 2524POPC   C3A33413  42.454  32.205   8.059
 2524POPC   C4A33414  42.655  32.264   7.672
 2524POPC   C1B33415  42.021  32.658   8.820
 2524POPC   C2B33416  41.838  32.633   8.396
 2524POPC   C3B33417  42.009  32.423   8.019
 2524POPC   C4B33418  42.048  32.494   7.575
 2525POPC   NC333419  12.171  42.868   9.692
 2525POPC   PO433420  12.805  43.082   9.490
 2525POPC   GL133421  12.823  43.161   9.087
 2525POPC   GL233422  12.988  42.858   8.969
 2525POPC   C1A33423  12.957  43.316   8.706
 2525POPC   D2A33424  12.832  43.094   8.368
 2525POPC   C3A33425  12.982  43.172   7.966
 2525POPC   C4A33426  12.860  43.245   7.534
 2525POPC   C1B33427  12.574  42.734   8.779
 2525POPC   C2B33428  12.356  42.870   8.396
 2525POPC   C3B33429  12.505  42.921   8.021
 2525POPC   C4B33430  12.809  42.742   7.756
 2526POPC   NC333431   5.144  30.950   9.388
 2526POPC   PO433432   5.060  30.213   9.530
 2526POPC   GL133433   5.042  30.509   9.164
 2526POPC   GL233434   5.393  30.555   9.071
 2526POPC   C1A33435   4.834  30.482   8.728
 2526POPC   D2A33436   4.902  30.760   8.359
 2526POPC   C3A33437   4.870  30.571   7.930
 2526POPC   C4A33438   5.016  30.676   7.481
 2526POPC   C1B33439   5.316  30.858   8.720
 2526POPC   C2B33440   5.381  31.040   8.293
 2526POPC   C3B33441   5.441  30.862   7.885
 2526POPC   C4B33442   5.337  30.447   7.781
 2527POPC   NC333443  32.222  23.775   9.437
 2527POPC   PO433444  32.173  23.120   9.404
 2527POPC   GL133445  32.396  23.418   9.075
 2527POPC   GL233446  32.165  23.696   8.950
 2527POPC   C1A33447  32.593  23.654   8.696
 2527POPC   D2A33448  32.311  23.766   8.374
 2527POPC   C3A33449  32.318  23.633   7.922
 2527POPC   C4A33450  32.417  23.662   7.449
 2527POPC   C1B33451  31.853  23.849   8.680
 2527POPC   C2B33452  31.838  23.848   8.238
 2527POPC   C3B33453  31.867  23.901   7.814
 2527POPC   C4B33454  31.949  23.586   7.562
 2528POPC   NC333455  27.019  34.956   9.294
 2528POPC   PO433456  27.136  34.294   9.537
 2528POPC   GL133457  26.905  34.234   9.190
 2528POPC   GL233458  26.735  34.547   9.201
 2528POPC   C1A33459  26.998  34.192   8.768
 2528POPC   D2A33460  26.739  34.234   8.419
 2528POPC   C3A33461  26.937  34.287   8.009
 2528POPC   C4A33462  26.623  34.264   7.705
 2528POPC   C1B33463  26.778  34.659   8.744
 2528POPC   C2B33464  26.614  34.892   8.371
 2528POPC   C3B33465  26.609  34.950   7.917
 2528POPC   C4B33466  26.877  34.736   7.610
 2529POPC   NC333467  13.364  20.321   9.538
 2529POPC   PO433468  12.666  20.550   9.474
 2529POPC   GL133469  12.779  20.642   9.082
 2529POPC   GL233470  12.985  20.308   9.125
 2529POPC   C1A33471  12.745  20.859   8.666
 2529POPC   D2A33472  12.458  20.805   8.305
 2529POPC   C3A33473  12.655  20.722   7.921
 2529POPC   C4A33474  12.879  21.083   7.851
 2529POPC   C1B33475  12.805  20.317   8.716
 2529POPC   C2B33476  12.846  20.467   8.334
 2529POPC   C3B33477  12.870  20.239   7.991
 2529POPC   C4B33478  12.945  20.341   7.609
 2530POPC   NC333479   4.446   3.937   9.477
 2530POPC   PO433480   4.094   3.356   9.583
 2530POPC   GL133481   4.182   3.432   9.162
 2530POPC   GL233482   4.509   3.560   9.141
 2530POPC   C1A33483   4.135   3.445   8.731
 2530POPC   D2A33484   4.364   3.509   8.381
 2530POPC   C3A33485   4.260   3.301   8.024
 2530POPC   C4A33486   4.226   3.590   7.704
 2530POPC   C1B33487   4.689   3.649   8.755
 2530POPC   C2B33488   4.839   3.798   8.373
 2530POPC   C3B33489   4.654   3.710   7.974
 2530POPC   C4B33490   4.587   3.952   7.583
 2531POPC   NC333491  20.499  27.280   9.570
 2531POPC   PO433492  20.387  27.840   9.232
 2531POPC   GL133493  20.656  27.555   9.049
 2531POPC   GL233494  20.369  27.316   9.056
 2531POPC   C1A33495  20.634  27.645   8.613
 2531POPC   D2A33496  20.276  27.596   8.309
 2531POPC   C3A33497  20.401  27.729   7.909
 2531POPC   C4A33498  20.840  27.645   7.847
 2531POPC   C1B33499  20.521  27.155   8.631
 2531POPC   C2B33500  20.671  27.288   8.210
 2531POPC   C3B33501  20.496  27.248   7.790
 2531POPC   C4B33502  20.357  27.246   7.357
 2532POPC   NC333503   0.248  38.580   9.294
 2532POPC   PO433504   0.773  38.172   9.441
 2532POPC   GL133505   0.538  38.211   9.076
 2532POPC   GL233506   0.215  38.055   9.054
 2532POPC   C1A33507   0.599  37.984   8.696
 2532POPC   D2A33508   0.592  38.006   8.261
 2532POPC   C3A33509   0.397  38.357   8.129
 2532POPC   C4A33510   0.466  38.523   7.746
 2532POPC   C1B33511   0.235  38.341   8.680
 2532POPC   C2B33512   0.110  38.694   8.435
 2532POPC   C3B33513   0.045  38.747   8.011
 2532POPC   C4B33514  44.970  38.393   7.729
 2533POPC   NC333515   3.915  23.735   9.647
 2533POPC   PO433516   3.317  23.347   9.761
 2533POPC   GL133517   3.471  23.594   9.344
 2533POPC   GL233518   3.799  23.553   9.201
 2533POPC   C1A33519   3.469  23.784   8.888
 2533POPC   D2A33520   3.308  23.619   8.493
 2533POPC   C3A33521   3.526  23.782   8.169
 2533POPC   C4A33522   3.492  23.836   7.737
 2533POPC   C1B33523   3.917  23.496   8.793
 2533POPC   C2B33524   3.996  23.630   8.398
 2533POPC   C3B33525   3.968  23.428   8.013
 2533POPC   C4B33526   3.982  23.635   7.641
 2534POPC   NC333527  13.365  24.268   9.511
 2534POPC   PO433528  12.656  24.290   9.352
 2534POPC   GL133529  13.010  24.416   9.132
 2534POPC   GL233530  12.987  24.789   9.222
 2534POPC   C1A33531  12.892  24.355   8.711
 2534POPC   D2A33532  12.507  24.201   8.514
 2534POPC   C3A33533  12.579  24.318   8.102
 2534POPC   C4A33534  12.610  24.509   7.717
 2534POPC   C1B33535  12.983  24.883   8.772
 2534POPC   C2B33536  12.910  24.721   8.342
 2534POPC   C3B33537  12.964  24.796   7.921
 2534POPC   C4B33538  13.098  24.709   7.490
 2535POPC   NC333539  11.441  40.643   9.848
 2535POPC   PO433540  11.074  41.013   9.409
 2535POPC   GL133541  11.235  40.694   9.124
 2535POPC   GL233542  11.549  40.527   9.177
 2535POPC   C1A33543  11.218  40.462   8.752
 2535POPC   D2A33544  11.432  40.428   8.360
 2535POPC   C3A33545  11.254  40.657   8.021
 2535POPC   C4A33546  11.366  41.061   7.887
 2535POPC   C1B33547  11.680  40.713   8.755
 2535POPC   C2B33548  11.690  40.857   8.278
 2535POPC   C3B33549  11.738  40.696   7.822
 2535POPC   C4B33550  11.833  40.624   7.351
 2536POPC   NC333551  36.296  19.517   9.399
 2536POPC   PO433552  35.813  19.945   9.340
 2536POPC   GL133553  35.987  19.735   9.028
 2536POPC   GL233554  36.342  19.831   9.013
 2536POPC   C1A33555  36.001  19.926   8.644
 2536POPC   D2A33556  35.772  19.892   8.299
 2536POPC   C3A33557  36.103  19.981   8.002
 2536POPC   C4A33558  36.115  19.877   7.577
 2536POPC   C1B33559  36.301  19.490   8.683
 2536POPC   C2B33560  36.229  19.490   8.213
 2536POPC   C3B33561  36.450  19.576   7.812
 2536POPC   C4B33562  36.436  19.599   7.322
 2537POPC   NC333563  40.766  36.578   9.381
 2537POPC   PO433564  41.168  37.047   9.437
 2537POPC   GL133565  41.064  36.882   9.072
 2537POPC   GL233566  40.724  36.999   8.945
 2537POPC   C1A33567  40.996  36.651   8.718
 2537POPC   D2A33568  40.755  36.895   8.410
 2537POPC   C3A33569  40.842  36.823   7.991
 2537POPC   C4A33570  40.806  36.601   7.614
 2537POPC   C1B33571  40.852  37.338   8.671
 2537POPC   C2B33572  41.027  37.448   8.281
 2537POPC   C3B33573  40.833  37.375   7.878
 2537POPC   C4B33574  40.545  37.070   7.649
 2538POPC   NC333575  41.407  16.128   9.401
 2538POPC   PO433576  41.310  16.782   9.449
 2538POPC   GL133577  41.616  16.665   9.150
 2538POPC   GL233578  41.834  16.349   9.200
 2538POPC   C1A33579  41.593  16.861   8.744
 2538POPC   D2A33580  41.542  16.649   8.375
 2538POPC   C3A33581  41.588  16.892   8.063
 2538POPC   C4A33582  41.621  16.836   7.659
 2538POPC   C1B33583  41.674  16.331   8.768
 2538POPC   C2B33584  41.794  16.214   8.353
 2538POPC   C3B33585  41.777  16.414   7.928
 2538POPC   C4B33586  41.796  16.416   7.455
 2539POPC   NC333587  41.998  24.483   9.619
 2539POPC   PO433588  42.607  24.212   9.833
 2539POPC   GL133589  42.411  24.404   9.322
 2539POPC   GL233590  42.075  24.275   9.170
 2539POPC   C1A33591  42.321  24.597   8.816
 2539POPC   D2A33592  42.143  24.854   8.407
 2539POPC   C3A33593  42.399  24.946   7.996
 2539POPC   C4A33594  42.642  24.639   7.752
 2539POPC   C1B33595  42.112  24.104   8.764
 2539POPC   C2B33596  42.143  24.335   8.385
 2539POPC   C3B33597  42.192  24.479   7.974
 2539POPC   C4B33598  42.044  24.230   7.653
 2540POPC   NC333599   2.170   2.138   9.503
 2540POPC   PO433600   2.308   1.428   9.396
 2540POPC   GL133601   2.107   1.794   9.147
 2540POPC   GL233602   2.305   2.124   9.020
 2540POPC   C1A33603   1.809   1.823   8.797
 2540POPC   D2A33604   1.537   1.978   8.460
 2540POPC   C3A33605   1.738   2.050   8.075
 2540POPC   C4A33606   1.867   1.985   7.665
 2540POPC   C1B33607   1.974   2.331   8.769
 2540POPC   C2B33608   1.981   2.438   8.321
 2540POPC   C3B33609   2.177   2.292   7.924
 2540POPC   C4B33610   2.200   2.303   7.450
 2541POPC   NC333611  16.218  19.193   9.434
 2541POPC   PO433612  15.620  19.375   9.662
 2541POPC   GL133613  15.742  19.074   9.276
 2541POPC   GL233614  15.829  19.260   9.079
 2541POPC   C1A33615  16.023  18.850   8.897
 2541POPC   D2A33616  16.057  18.621   8.507
 2541POPC   C3A33617  16.185  18.911   8.179
 2541POPC   C4A33618  15.978  19.084   7.814
 2541POPC   C1B33619  15.567  19.070   8.747
 2541POPC   C2B33620  15.431  19.402   8.459
 2541POPC   C3B33621  15.578  19.325   8.076
 2541POPC   C4B33622  15.677  19.542   7.731
 2542POPC   NC333623  38.030  33.591   9.524
 2542POPC   PO433624  37.451  33.991   9.517
 2542POPC   GL133625  37.634  33.859   9.162
 2542POPC   GL233626  37.965  33.945   9.159
 2542POPC   C1A33627  37.697  33.561   8.845
 2542POPC   D2A33628  37.807  33.394   8.467
 2542POPC   C3A33629  37.726  33.581   8.085
 2542POPC   C4A33630  37.717  33.786   7.680
 2542POPC   C1B33631  38.091  34.021   8.775
 2542POPC   C2B33632  38.127  33.812   8.414
 2542POPC   C3B33633  38.020  33.993   8.037
 2542POPC   C4B33634  38.208  33.964   7.656
 2543POPC   NC333635  10.089  15.141   9.817
 2543POPC   PO433636  10.686  15.399   9.620
 2543POPC   GL133637  10.528  15.188   9.276
 2543POPC   GL233638  10.195  15.212   9.314
 2543POPC   C1A33639  10.670  14.987   8.909
 2543POPC   D2A33640  10.492  14.782   8.557
 2543POPC   C3A33641  10.590  14.836   8.139
 2543POPC   C4A33642  10.537  14.983   7.700
 2543POPC   C1B33643  10.237  15.266   8.863
 2543POPC   C2B33644  10.504  15.287   8.490
 2543POPC   C3B33645  10.381  15.290   8.061
 2543POPC   C4B33646  10.460  15.498   7.647
 2544POPC   NC333647  16.292  16.842   9.452
 2544POPC   PO433648  16.945  16.493   9.538
 2544POPC   GL133649  16.657  16.597   9.209
 2544POPC   GL233650  16.861  16.883   9.140
 2544POPC   C1A33651  16.502  16.761   8.803
 2544POPC   D2A33652  16.774  16.851   8.432
 2544POPC   C3A33653  16.606  16.796   8.001
 2544POPC   C4A33654  16.660  16.695   7.559
 2544POPC   C1B33655  16.790  17.208   8.826
 2544POPC   C2B33656  16.998  17.316   8.420
 2544POPC   C3B33657  16.991  17.126   8.040
 2544POPC   C4B33658  17.014  17.237   7.640
 2545POPC   NC333659  38.063  23.931   9.493
 2545POPC   PO433660  37.376  23.935   9.442
 2545POPC   GL133661  37.459  23.768   9.060
 2545POPC   GL233662  37.799  23.689   9.135
 2545POPC   C1A33663  37.458  23.819   8.649
 2545POPC   D2A33664  37.318  23.589   8.352
 2545POPC   C3A33665  37.323  23.718   7.976
 2545POPC   C4A33666  37.352  23.535   7.596
 2545POPC   C1B33667  37.875  23.554   8.726
 2545POPC   C2B33668  37.825  23.700   8.296
 2545POPC   C3B33669  37.770  23.506   7.876
 2545POPC   C4B33670  37.840  23.215   7.544
 2546POPC   NC333671  32.354  17.918   9.691
 2546POPC   PO433672  31.958  18.379   9.561
 2546POPC   GL133673  32.311  18.401   9.270
 2546POPC   GL233674  32.479  18.071   9.185
 2546POPC   C1A33675  32.420  18.553   8.848
 2546POPC   D2A33676  32.536  18.624   8.415
 2546POPC   C3A33677  32.180  18.564   8.139
 2546POPC   C4A33678  32.220  18.326   7.772
 2546POPC   C1B33679  32.091  18.110   8.934
 2546POPC   C2B33680  32.155  18.244   8.534
 2546POPC   C3B33681  32.172  18.014   8.164
 2546POPC   C4B33682  32.097  17.837   7.768
 2547POPC   NC333683  22.447  30.794   9.366
 2547POPC   PO433684  21.859  31.100   9.188
 2547POPC   GL133685  22.027  30.673   9.064
 2547POPC   GL233686  22.367  30.498   8.943
 2547POPC   C1A33687  22.005  30.660   8.636
 2547POPC   D2A33688  21.738  30.721   8.302
 2547POPC   C3A33689  22.010  30.695   7.969
 2547POPC   C4A33690  21.922  30.969   7.671
 2547POPC   C1B33691  22.478  30.877   8.684
 2547POPC   C2B33692  22.381  30.967   8.240
 2547POPC   C3B33693  22.529  30.744   7.865
 2547POPC   C4B33694  22.371  30.323   7.783
 2548POPC   NC333695  23.725  33.468   9.386
 2548POPC   PO433696  23.743  34.087   9.725
 2548POPC   GL133697  23.765  33.979   9.263
 2548POPC   GL233698  24.030  33.756   9.105
 2548POPC   C1A33699  23.593  33.862   8.831
 2548POPC   D2A33700  23.578  33.596   8.444
 2548POPC   C3A33701  23.650  33.827   8.060
 2548POPC   C4A33702  23.481  34.011   7.655
 2548POPC   C1B33703  24.232  33.471   8.767
 2548POPC   C2B33704  24.094  33.514   8.380
 2548POPC   C3B33705  24.004  33.349   8.021
 2548POPC   C4B33706  23.886  33.581   7.701
 2549POPC   NC333707  23.412  11.887   9.649
 2549POPC   PO433708  24.129  12.155   9.607
 2549POPC   GL133709  23.897  12.198   9.218
 2549POPC   GL233710  23.741  11.893   9.237
 2549POPC   C1A33711  23.818  12.106   8.755
 2549POPC   D2A33712  23.942  12.126   8.305
 2549POPC   C3A33713  23.628  11.973   7.995
 2549POPC   C4A33714  23.615  12.146   7.519
 2549POPC   C1B33715  23.976  11.656   8.908
 2549POPC   C2B33716  23.865  11.640   8.477
 2549POPC   C3B33717  24.031  11.667   8.055
 2549POPC   C4B33718  23.772  11.638   7.671
 2550POPC   NC333719  21.387  21.175   9.533
 2550POPC   PO433720  21.548  20.465   9.450
 2550POPC   GL133721  21.307  20.664   9.145
 2550POPC   GL233722  21.455  20.967   9.072
 2550POPC   C1A33723  21.105  20.722   8.757
 2550POPC   D2A33724  21.306  20.726   8.360
 2550POPC   C3A33725  21.238  20.591   7.936
 2550POPC   C4A33726  21.278  20.746   7.487
 2550POPC   C1B33727  21.701  20.859   8.693
 2550POPC   C2B33728  21.806  20.777   8.238
 2550POPC   C3B33729  21.738  20.632   7.785
 2550POPC   C4B33730  21.750  20.598   7.313
 2551POPC   NC333731  37.149  18.939   9.476
 2551POPC   PO433732  36.488  18.836   9.621
 2551POPC   GL133733  36.552  19.054   9.180
 2551POPC   GL233734  36.895  19.086   9.042
 2551POPC   C1A33735  36.515  18.981   8.720
 2551POPC   D2A33736  36.707  18.752   8.409
 2551POPC   C3A33737  36.801  19.055   8.104
 2551POPC   C4A33738  36.747  18.811   7.757
 2551POPC   C1B33739  36.825  19.382   8.709
 2551POPC   C2B33740  37.043  19.495   8.351
 2551POPC   C3B33741  37.331  19.272   8.104
 2551POPC   C4B33742  37.191  19.063   7.741
 2552POPC   NC333743   1.188  13.042   9.572
 2552POPC   PO433744   1.818  12.963   9.329
 2552POPC   GL133745   1.412  13.006   9.111
 2552POPC   GL233746   1.225  12.726   9.141
 2552POPC   C1A33747   1.363  12.828   8.641
 2552POPC   D2A33748   1.218  12.489   8.347
 2552POPC   C3A33749   1.417  12.607   7.954
 2552POPC   C4A33750   1.329  12.894   7.632
 2552POPC   C1B33751   0.934  12.666   8.804
 2552POPC   C2B33752   0.904  12.879   8.378
 2552POPC   C3B33753   0.914  12.668   7.944
 2552POPC   C4B33754   0.903  12.568   7.495
 2553POPC   NC333755  37.183   8.005   9.325
 2553POPC   PO433756  36.921   7.448   9.572
 2553POPC   GL133757  36.692   7.446   9.219
 2553POPC   GL233758  36.829   7.726   9.088
 2553POPC   C1A33759  36.800   7.257   8.849
 2553POPC   D2A33760  37.114   7.235   8.575
 2553POPC   C3A33761  36.909   7.137   8.238
 2553POPC   C4A33762  36.861   7.264   7.848
 2553POPC   C1B33763  36.717   7.762   8.672
 2553POPC   C2B33764  36.821   7.641   8.259
 2553POPC   C3B33765  36.979   7.790   7.900
 2553POPC   C4B33766  37.394   7.776   7.830
 2554POPC   NC333767   2.328   0.962   9.314
 2554POPC   PO433768   2.850   1.265   9.632
 2554POPC   GL133769   2.758   1.237   9.199
 2554POPC   GL233770   2.870   0.904   9.203
 2554POPC   C1A33771   2.729   1.396   8.762
 2554POPC   D2A33772   2.715   1.607   8.340
 2554POPC   C3A33773   2.633   1.373   7.974
 2554POPC   C4A33774   2.812   1.170   7.621
 2554POPC   C1B33775   2.719   0.887   8.784
 2554POPC   C2B33776   2.740   1.071   8.390
 2554POPC   C3B33777   2.825   0.878   8.050
 2554POPC   C4B33778   2.931   0.692   7.694
 2555POPC   NC333779   3.768  22.202   9.464
 2555POPC   PO433780   3.684  21.598   9.341
 2555POPC   GL133781   3.786  21.992   8.992
 2555POPC   GL233782   3.601  22.350   8.993
 2555POPC   C1A33783   3.668  22.145   8.532
 2555POPC   D2A33784   3.299  22.066   8.234
 2555POPC   C3A33785   3.395  21.889   7.858
 2555POPC   C4A33786   3.776  21.939   7.665
 2555POPC   C1B33787   3.293  22.485   8.621
 2555POPC   C2B33788   3.288  22.553   8.141
 2555POPC   C3B33789   3.464  22.397   7.729
 2555POPC   C4B33790   3.335  22.468   7.303
 2556POPC   NC333791  21.570  17.883   9.415
 2556POPC   PO433792  21.230  18.454   9.466
 2556POPC   GL133793  21.094  18.268   9.122
 2556POPC   GL233794  21.109  17.901   9.149
 2556POPC   C1A33795  21.241  18.497   8.762
 2556POPC   D2A33796  21.563  18.412   8.451
 2556POPC   C3A33797  21.400  18.424   8.049
 2556POPC   C4A33798  21.562  18.537   7.671
 2556POPC   C1B33799  21.295  17.988   8.735
 2556POPC   C2B33800  21.081  18.188   8.380
 2556POPC   C3B33801  20.971  18.143   7.952
 2556POPC   C4B33802  21.051  18.120   7.497
 2557POPC   NC333803   7.902  33.265   9.506
 2557POPC   PO433804   8.361  32.838   9.420
 2557POPC   GL133805   8.151  33.041   9.111
 2557POPC   GL233806   7.780  32.938   9.118
 2557POPC   C1A33807   8.366  33.114   8.734
 2557POPC   D2A33808   8.607  33.068   8.378
 2557POPC   C3A33809   8.363  33.100   7.992
 2557POPC   C4A33810   8.371  33.335   7.585
 2557POPC   C1B33811   7.834  33.198   8.751
 2557POPC   C2B33812   7.997  33.124   8.366
 2557POPC   C3B33813   7.825  33.073   7.980
 2557POPC   C4B33814   7.855  33.285   7.594
 2558POPC   NC333815  21.085   3.802   9.476
 2558POPC   PO433816  21.478   3.275   9.527
 2558POPC   GL133817  21.419   3.421   9.126
 2558POPC   GL233818  21.209   3.167   9.000
 2558POPC   C1A33819  21.557   3.364   8.672
 2558POPC   D2A33820  21.407   3.327   8.242
 2558POPC   C3A33821  21.526   3.703   8.002
 2558POPC   C4A33822  21.580   3.810   7.576
 2558POPC   C1B33823  21.089   3.618   8.808
 2558POPC   C2B33824  20.990   3.770   8.375
 2558POPC   C3B33825  20.987   3.547   7.985
 2558POPC   C4B33826  21.270   3.386   7.677
 2559POPC   NC333827   6.350   4.928   9.268
 2559POPC   PO433828   6.925   5.458   9.332
 2559POPC   GL133829   6.720   5.174   9.026
 2559POPC   GL233830   6.338   5.225   8.876
 2559POPC   C1A33831   6.735   4.967   8.631
 2559POPC   D2A33832   6.390   4.881   8.353
 2559POPC   C3A33833   6.311   5.063   7.942
 2559POPC   C4A33834   6.728   5.031   7.839
 2559POPC   C1B33835   6.600   5.456   8.630
 2559POPC   C2B33836   6.707   5.348   8.251
 2559POPC   C3B33837   6.552   5.510   7.903
 2559POPC   C4B33838   6.521   5.331   7.500
 2560POPC   NC333839  18.873  33.154   9.490
 2560POPC   PO433840  19.488  32.874   9.494
 2560POPC   GL133841  19.202  32.949   9.130
 2560POPC   GL233842  18.859  32.768   9.116
 2560POPC   C1A33843  19.158  32.770   8.703
 2560POPC   D2A33844  19.021  32.687   8.261
 2560POPC   C3A33845  19.055  33.023   7.935
 2560POPC   C4A33846  19.275  33.284   7.611
 2560POPC   C1B33847  18.811  33.131   8.818
 2560POPC   C2B33848  18.874  33.356   8.413
 2560POPC   C3B33849  18.723  33.411   7.980
 2560POPC   C4B33850  18.774  33.217   7.543
 2561POPC   NC333851   7.766  36.721   9.625
 2561POPC   PO433852   7.284  37.153   9.533
 2561POPC   GL133853   7.545  37.006   9.210
 2561POPC   GL233854   7.259  36.985   8.989
 2561POPC   C1A33855   7.764  37.012   8.811
 2561POPC   D2A33856   7.591  36.962   8.396
 2561POPC   C3A33857   7.733  37.196   8.037
 2561POPC   C4A33858   7.522  37.075   7.655
 2561POPC   C1B33859   7.414  36.641   8.774
 2561POPC   C2B33860   7.303  36.489   8.350
 2561POPC   C3B33861   7.266  36.774   8.001
 2561POPC   C4B33862   7.133  36.622   7.596
 2562POPC   NC333863  16.400  31.913   9.351
 2562POPC   PO433864  16.049  32.506   9.508
 2562POPC   GL133865  16.009  32.272   9.122
 2562POPC   GL233866  15.875  31.945   9.145
 2562POPC   C1A33867  15.839  32.380   8.711
 2562POPC   D2A33868  15.615  32.572   8.352
 2562POPC   C3A33869  15.892  32.422   8.026
 2562POPC   C4A33870  16.195  32.233   7.790
 2562POPC   C1B33871  15.715  31.857   8.739
 2562POPC   C2B33872  15.592  32.056   8.348
 2562POPC   C3B33873  15.762  31.910   7.964
 2562POPC   C4B33874  15.660  31.854   7.576
 2563POPC   NC333875  41.287   8.045   9.548
 2563POPC   PO433876  40.615   8.217   9.369
 2563POPC   GL133877  40.706   8.180   9.018
 2563POPC   GL233878  41.047   8.103   9.063
 2563POPC   C1A33879  40.637   8.389   8.652
 2563POPC   D2A33880  40.762   8.237   8.280
 2563POPC   C3A33881  40.897   8.474   7.939
 2563POPC   C4A33882  40.897   8.340   7.497
 2563POPC   C1B33883  40.887   7.890   8.663
 2563POPC   C2B33884  40.989   7.779   8.249
 2563POPC   C3B33885  40.924   7.985   7.855
 2563POPC   C4B33886  40.860   7.842   7.382
 2564POPC   NC333887  33.426  41.191   9.846
 2564POPC   PO433888  33.913  41.624   9.496
 2564POPC   GL133889  33.747  41.535   9.119
 2564POPC   GL233890  33.957  41.231   9.044
 2564POPC   C1A33891  33.553  41.461   8.725
 2564POPC   D2A33892  33.270  41.356   8.395
 2564POPC   C3A33893  33.444  41.379   7.979
 2564POPC   C4A33894  33.578  41.762   7.802
 2564POPC   C1B33895  34.060  41.584   8.734
 2564POPC   C2B33896  33.879  41.634   8.331
 2564POPC   C3B33897  33.963  41.477   7.938
 2564POPC   C4B33898  34.262  41.664   7.714
 2565POPC   NC333899   9.591  19.750   9.871
 2565POPC   PO433900  10.156  19.920   9.628
 2565POPC   GL133901   9.870  20.077   9.326
 2565POPC   GL233902   9.645  19.878   9.172
 2565POPC   C1A33903   9.921  20.136   8.867
 2565POPC   D2A33904  10.056  19.826   8.600
 2565POPC   C3A33905  10.012  19.843   8.175
 2565POPC   C4A33906   9.932  19.545   7.846
 2565POPC   C1B33907   9.565  19.690   8.810
 2565POPC   C2B33908   9.675  19.538   8.438
 2565POPC   C3B33909   9.521  19.728   8.112
 2565POPC   C4B33910   9.353  19.611   7.769
 2566POPC   NC333911   7.272  26.422   9.809
 2566POPC   PO433912   7.241  27.027   9.463
 2566POPC   GL133913   7.457  27.029   9.063
 2566POPC   GL233914   7.424  26.647   8.999
 2566POPC   C1A33915   7.711  26.916   8.678
 2566POPC   D2A33916   7.473  26.764   8.349
 2566POPC   C3A33917   7.590  26.795   7.948
 2566POPC   C4A33918   7.775  26.489   7.670
 2566POPC   C1B33919   7.129  26.847   8.720
 2566POPC   C2B33920   6.881  26.780   8.383
 2566POPC   C3B33921   7.077  26.765   8.000
 2566POPC   C4B33922   7.267  26.655   7.576
 2567POPC   NC333923  17.826  34.080   9.356
 2567POPC   PO433924  18.375  33.656   9.409
 2567POPC   GL133925  18.218  33.843   9.100
 2567POPC   GL233926  18.314  34.189   9.193
 2567POPC   C1A33927  18.120  33.677   8.715
 2567POPC   D2A33928  18.341  33.529   8.351
 2567POPC   C3A33929  18.175  33.555   7.928
 2567POPC   C4A33930  18.444  33.603   7.612
 2567POPC   C1B33931  18.130  34.224   8.773
 2567POPC   C2B33932  18.269  34.065   8.409
 2567POPC   C3B33933  18.470  33.933   8.062
 2567POPC   C4B33934  18.212  34.038   7.692
 2568POPC   NC333935  41.524   3.626   9.612
 2568POPC   PO433936  42.064   3.276   9.584
 2568POPC   GL133937  41.743   3.326   9.192
 2568POPC   GL233938  41.430   3.506   9.144
 2568POPC   C1A33939  41.592   3.251   8.746
 2568POPC   D2A33940  41.536   3.038   8.347
 2568POPC   C3A33941  41.588   3.245   7.974
 2568POPC   C4A33942  41.888   3.517   7.817
 2568POPC   C1B33943  41.536   3.789   8.822
 2568POPC   C2B33944  41.330   3.978   8.469
 2568POPC   C3B33945  41.104   3.957   8.106
 2568POPC   C4B33946  41.414   3.823   7.808
 2569POPC   NC333947  11.875  27.166   9.553
 2569POPC   PO433948  12.515  26.746   9.625
 2569POPC   GL133949  12.314  26.672   9.101
 2569POPC   GL233950  12.078  27.003   9.006
 2569POPC   C1A33951  12.298  26.690   8.632
 2569POPC   D2A33952  12.286  26.850   8.182
 2569POPC   C3A33953  12.020  26.628   7.850
 2569POPC   C4A33954  11.792  26.749   7.461
 2569POPC   C1B33955  12.279  27.290   8.709
 2569POPC   C2B33956  12.382  27.476   8.315
 2569POPC   C3B33957  12.474  27.263   7.921
 2569POPC   C4B33958  12.482  26.852   7.697
 2570POPC   NC333959  12.164  39.530   9.457
 2570POPC   PO433960  11.803  38.981   9.608
 2570POPC   GL133961  11.946  39.089   9.176
 2570POPC   GL233962  12.290  39.196   9.111
 2570POPC   C1A33963  11.911  39.310   8.768
 2570POPC   D2A33964  11.887  39.121   8.343
 2570POPC   C3A33965  11.965  39.364   7.994
 2570POPC   C4A33966  12.068  39.196   7.594
 2570POPC   C1B33967  12.420  39.388   8.748
 2570POPC   C2B33968  12.288  39.523   8.361
 2570POPC   C3B33969  12.476  39.456   7.958
 2570POPC   C4B33970  12.461  39.494   7.504
 2571POPC   NC333971  10.182   1.713   9.469
 2571POPC   PO433972  10.479   2.292   9.597
 2571POPC   GL133973  10.324   2.118   9.165
 2571POPC   GL233974  10.427   1.805   9.035
 2571POPC   C1A33975  10.382   2.258   8.711
 2571POPC   D2A33976  10.319   2.209   8.246
 2571POPC   C3A33977  10.552   2.042   7.881
 2571POPC   C4A33978  10.596   2.225   7.459
 2571POPC   C1B33979  10.249   1.633   8.687
 2571POPC   C2B33980  10.444   1.675   8.291
 2571POPC   C3B33981  10.254   1.613   7.901
 2571POPC   C4B33982  10.287   1.464   7.491
 2572POPC   NC333983  30.413   9.197   9.597
 2572POPC   PO433984  30.901   8.778   9.560
 2572POPC   GL133985  30.723   8.973   9.221
 2572POPC   GL233986  31.036   9.019   9.097
 2572POPC   C1A33987  30.651   9.084   8.760
 2572POPC   D2A33988  30.466   8.968   8.364
 2572POPC   C3A33989  30.632   8.937   7.961
 2572POPC   C4A33990  30.830   8.644   7.672
 2572POPC   C1B33991  31.175   9.012   8.707
 2572POPC   C2B33992  30.990   8.884   8.353
 2572POPC   C3B33993  31.136   8.940   7.959
 2572POPC   C4B33994  31.244   9.327   7.809
 2573POPC   NC333995   6.195  27.441   9.543
 2573POPC   PO433996   5.637  27.758   9.415
 2573POPC   GL133997   5.810  27.448   9.167
 2573POPC   GL233998   6.084  27.662   9.100
 2573POPC   C1A33999   5.785  27.440   8.737
 2573POPC   D2A34000   5.874  27.759   8.427
 2573POPC   C3A34001   5.708  27.689   8.036
 2573POPC   C4A34002   5.872  27.513   7.673
 2573POPC   C1B34003   6.274  27.844   8.772
 2573POPC   C2B34004   6.406  27.787   8.379
 2573POPC   C3B34005   6.226  27.889   7.974
 2573POPC   C4B34006   6.266  27.847   7.557
 2574POPC   NC334007  22.645  21.583   9.469
 2574POPC   PO434008  21.930  21.264   9.430
 2574POPC   GL134009  22.078  21.430   9.075
 2574POPC   GL234010  22.412  21.548   9.013
 2574POPC   C1A34011  21.875  21.367   8.714
 2574POPC   D2A34012  21.994  21.291   8.308
 2574POPC   C3A34013  21.989  21.661   8.051
 2574POPC   C4A34014  21.977  21.349   7.744
 2574POPC   C1B34015  22.376  21.514   8.559
 2574POPC   C2B34016  22.453  21.435   8.116
 2574POPC   C3B34017  22.392  21.647   7.727
 2574POPC   C4B34018  22.455  21.942   7.410
 2575POPC   NC334019  13.756  42.150   9.345
 2575POPC   PO434020  13.325  42.683   9.327
 2575POPC   GL134021  13.567  42.563   9.049
 2575POPC   GL234022  13.867  42.639   9.185
 2575POPC   C1A34023  13.577  42.293   8.732
 2575POPC   D2A34024  13.503  42.181   8.346
 2575POPC   C3A34025  13.726  42.239   7.985
 2575POPC   C4A34026  13.612  42.557   7.736
 2575POPC   C1B34027  13.993  42.609   8.770
 2575POPC   C2B34028  13.972  42.410   8.403
 2575POPC   C3B34029  14.016  42.688   8.054
 2575POPC   C4B34030  14.129  42.490   7.701
 2576POPC   NC334031  15.276  15.519   9.545
 2576POPC   PO434032  15.049  16.212   9.547
 2576POPC   GL134033  15.132  15.882   9.213
 2576POPC   GL234034  14.817  15.740   9.071
 2576POPC   C1A34035  15.427  15.767   8.870
 2576POPC   D2A34036  15.491  15.547   8.449
 2576POPC   C3A34037  15.447  15.750   8.046
 2576POPC   C4A34038  15.136  15.699   7.752
 2576POPC   C1B34039  15.014  16.040   8.748
 2576POPC   C2B34040  15.102  15.994   8.325
 2576POPC   C3B34041  15.038  16.191   7.913
 2576POPC   C4B34042  14.782  16.082   7.554
 2577POPC   NC334043  17.484  14.962   9.484
 2577POPC   PO434044  17.260  15.595   9.500
 2577POPC   GL134045  17.393  15.320   9.121
 2577POPC   GL234046  17.693  15.207   9.039
 2577POPC   C1A34047  17.330  15.021   8.733
 2577POPC   D2A34048  17.380  14.960   8.263
 2577POPC   C3A34049  17.561  15.216   7.930
 2577POPC   C4A34050  17.590  15.208   7.488
 2577POPC   C1B34051  17.782  15.267   8.602
 2577POPC   C2B34052  17.920  15.011   8.276
 2577POPC   C3B34053  17.745  14.717   7.976
 2577POPC   C4B34054  17.379  14.765   7.705
 2578POPC   NC334055  38.404  40.024   9.656
 2578POPC   PO434056  38.904  40.443   9.541
 2578POPC   GL134057  38.613  40.147   9.208
 2578POPC   GL234058  38.349  39.867   9.186
 2578POPC   C1A34059  38.431  40.104   8.745
 2578POPC   D2A34060  38.611  39.921   8.351
 2578POPC   C3A34061  38.477  40.028   7.919
 2578POPC   C4A34062  38.579  40.019   7.478
 2578POPC   C1B34063  38.044  39.772   8.845
 2578POPC   C2B34064  38.107  39.849   8.390
 2578POPC   C3B34065  38.038  39.731   7.964
 2578POPC   C4B34066  38.087  39.867   7.542
 2579POPC   NC334067   4.933  35.620   9.553
 2579POPC   PO434068   5.329  35.054   9.439
 2579POPC   GL134069   4.964  35.206   9.198
 2579POPC   GL234070   5.214  35.290   8.981
 2579POPC   C1A34071   4.774  35.344   8.763
 2579POPC   D2A34072   5.001  35.326   8.352
 2579POPC   C3A34073   4.757  35.415   8.006
 2579POPC   C4A34074   4.828  35.731   7.702
 2579POPC   C1B34075   5.150  34.973   8.688
 2579POPC   C2B34076   5.495  35.142   8.418
 2579POPC   C3B34077   5.478  35.373   8.050
 2579POPC   C4B34078   5.199  35.328   7.742
 2580POPC   NC334079   5.317  19.252   9.475
 2580POPC   PO434080   5.420  18.626   9.472
 2580POPC   GL134081   5.058  18.840   9.228
 2580POPC   GL234082   4.994  19.212   9.077
 2580POPC   C1A34083   5.070  18.793   8.809
 2580POPC   D2A34084   5.158  19.025   8.483
 2580POPC   C3A34085   4.957  18.992   8.114
 2580POPC   C4A34086   4.889  18.890   7.711
 2580POPC   C1B34087   4.987  19.479   8.671
 2580POPC   C2B34088   5.159  19.471   8.248
 2580POPC   C3B34089   5.066  19.391   7.805
 2580POPC   C4B34090   5.085  19.230   7.368
 2581POPC   NC334091   8.163  12.614   9.666
 2581POPC   PO434092   7.918  13.209   9.534
 2581POPC   GL134093   8.294  13.059   9.294
 2581POPC   GL234094   8.224  12.748   9.192
 2581POPC   C1A34095   8.393  13.063   8.819
 2581POPC   D2A34096   8.082  13.145   8.463
 2581POPC   C3A34097   8.188  12.978   8.052
 2581POPC   C4A34098   8.471  12.912   7.696
 2581POPC   C1B34099   7.992  12.749   8.823
 2581POPC   C2B34100   7.827  12.683   8.413
 2581POPC   C3B34101   7.888  12.554   7.975
 2581POPC   C4B34102   8.097  12.611   7.561
 2582POPC   NC334103  12.771  18.611   9.463
 2582POPC   PO434104  13.313  18.225   9.527
 2582POPC   GL134105  13.035  18.214   9.138
 2582POPC   GL234106  12.741  18.381   9.033
 2582POPC   C1A34107  12.822  17.962   8.770
 2582POPC   D2A34108  13.064  18.019   8.330
 2582POPC   C3A34109  12.900  18.155   7.919
 2582POPC   C4A34110  12.808  17.947   7.520
 2582POPC   C1B34111  12.974  18.436   8.674
 2582POPC   C2B34112  12.807  18.498   8.298
 2582POPC   C3B34113  12.454  18.439   8.007
 2582POPC   C4B34114  12.502  18.369   7.583
 2583POPC   NC334115   9.526  29.707   9.604
 2583POPC   PO434116  10.142  29.896   9.594
 2583POPC   GL134117   9.964  29.768   9.191
 2583POPC   GL234118   9.636  29.633   9.127
 2583POPC   C1A34119   9.845  30.067   8.883
 2583POPC   D2A34120   9.660  30.166   8.516
 2583POPC   C3A34121   9.811  30.036   8.129
 2583POPC   C4A34122   9.819  30.205   7.745
 2583POPC   C1B34123   9.429  29.726   8.772
 2583POPC   C2B34124   9.524  29.603   8.391
 2583POPC   C3B34125   9.444  29.692   7.999
 2583POPC   C4B34126   9.709  29.688   7.659
 2584POPC   NC334127   8.445  37.232   9.411
 2584POPC   PO434128   8.038  37.770   9.606
 2584POPC   GL134129   7.904  37.767   9.191
 2584POPC   GL234130   8.275  37.825   9.114
 2584POPC   C1A34131   7.901  37.542   8.799
 2584POPC   D2A34132   8.079  37.348   8.399
 2584POPC   C3A34133   8.044  37.617   8.014
 2584POPC   C4A34134   8.030  37.912   7.664
 2584POPC   C1B34135   8.558  37.922   8.761
 2584POPC   C2B34136   8.576  37.653   8.388
 2584POPC   C3B34137   8.555  37.731   7.960
 2584POPC   C4B34138   8.405  37.548   7.593
 2585POPC   NC334139  29.157  15.312   9.514
 2585POPC   PO434140  28.841  14.767   9.313
 2585POPC   GL134141  29.043  15.082   9.071
 2585POPC   GL234142  29.398  15.177   9.051
 2585POPC   C1A34143  29.041  15.254   8.689
 2585POPC   D2A34144  29.005  15.100   8.294
 2585POPC   C3A34145  29.216  15.134   7.910
 2585POPC   C4A34146  29.018  15.219   7.506
 2585POPC   C1B34147  29.451  15.555   8.779
 2585POPC   C2B34148  29.259  15.580   8.361
 2585POPC   C3B34149  29.397  15.622   7.975
 2585POPC   C4B34150  29.474  15.442   7.599
 2586POPC   NC334151  43.807  36.300   9.831
 2586POPC   PO434152  44.014  36.384   9.148
 2586POPC   GL134153  43.764  36.040   8.998
 2586POPC   GL234154  44.049  35.833   9.063
 2586POPC   C1A34155  43.574  35.912   8.628
 2586POPC   D2A34156  43.704  36.239   8.340
 2586POPC   C3A34157  43.605  36.339   7.930
 2586POPC   C4A34158  43.821  36.347   7.541
 2586POPC   C1B34159  44.086  36.037   8.632
 2586POPC   C2B34160  44.277  36.034   8.307
 2586POPC   C3B34161  44.047  36.083   7.978
 2586POPC   C4B34162  44.233  36.060   7.635
 2587POPC   NC334163  10.774  14.306   9.518
 2587POPC   PO434164  10.337  14.808   9.611
 2587POPC   GL134165  10.454  14.648   9.226
 2587POPC   GL234166  10.203  14.769   9.030
 2587POPC   C1A34167  10.683  14.442   8.879
 2587POPC   D2A34168  10.896  14.330   8.487
 2587POPC   C3A34169  10.633  14.289   8.124
 2587POPC   C4A34170  10.386  14.498   7.804
 2587POPC   C1B34171  10.151  14.454   8.728
 2587POPC   C2B34172  10.136  14.510   8.306
 2587POPC   C3B34173  10.080  14.837   8.053
 2587POPC   C4B34174   9.985  14.785   7.631
 2588POPC   NC334175  27.242  16.743   9.502
 2588POPC   PO434176  26.592  16.978   9.545
 2588POPC   GL134177  26.846  16.923   9.208
 2588POPC   GL234178  26.854  16.577   9.192
 2588POPC   C1A34179  27.047  16.942   8.814
 2588POPC   D2A34180  27.214  16.939   8.393
 2588POPC   C3A34181  26.938  16.831   8.038
 2588POPC   C4A34182  26.907  17.051   7.708
 2588POPC   C1B34183  26.764  16.505   8.776
 2588POPC   C2B34184  26.978  16.485   8.394
 2588POPC   C3B34185  26.932  16.286   7.998
 2588POPC   C4B34186  26.604  16.477   7.763
 2589POPC   NC334187  15.588   9.991   9.544
 2589POPC   PO434188  16.045   9.441   9.497
 2589POPC   GL134189  15.909   9.694   9.180
 2589POPC   GL234190  16.037  10.043   9.167
 2589POPC   C1A34191  15.943   9.592   8.735
 2589POPC   D2A34192  16.150   9.326   8.425
 2589POPC   C3A34193  15.870   9.319   8.089
 2589POPC   C4A34194  15.887   9.639   7.817
 2589POPC   C1B34195  15.674  10.012   8.876
 2589POPC   C2B34196  15.618   9.929   8.449
 2589POPC   C3B34197  15.785  10.088   8.039
 2589POPC   C4B34198  15.741  10.038   7.559
 2590POPC   NC334199  41.872  44.963   9.329
 2590POPC   PO434200  41.301  44.689   9.343
 2590POPC   GL134201  41.542  44.643   9.023
 2590POPC   GL234202  41.492  44.967   8.948
 2590POPC   C1A34203  41.343  44.580   8.638
 2590POPC   D2A34204  41.227  44.734   8.305
 2590POPC   C3A34205  41.292  44.569   7.924
 2590POPC   C4A34206  41.445  44.832   7.592
 2590POPC   C1B34207  41.762  44.861   8.629
 2590POPC   C2B34208  41.753  44.590   8.320
 2590POPC   C3B34209  41.692  44.833   8.044
 2590POPC   C4B34210  41.949  44.926   7.809
 2591POPC   NC334211  12.269  37.265   9.482
 2591POPC   PO434212  12.439  36.673   9.659
 2591POPC   GL134213  12.290  36.726   9.265
 2591POPC   GL234214  12.550  36.868   9.145
 2591POPC   C1A34215  12.063  36.889   8.920
 2591POPC   D2A34216  11.891  36.778   8.531
 2591POPC   C3A34217  12.071  36.874   8.133
 2591POPC   C4A34218  11.802  36.999   7.801
 2591POPC   C1B34219  12.533  36.764   8.739
 2591POPC   C2B34220  12.582  36.890   8.331
 2591POPC   C3B34221  12.527  36.783   7.915
 2591POPC   C4B34222  12.288  37.059   7.638
 2592POPC   NC334223  24.197  20.351   9.561
 2592POPC   PO434224  24.542  20.929   9.729
 2592POPC   GL134225  24.545  20.737   9.232
 2592POPC   GL234226  24.249  20.598   9.095
 2592POPC   C1A34227  24.758  20.550   8.853
 2592POPC   D2A34228  24.956  20.533   8.439
 2592POPC   C3A34229  24.696  20.690   8.103
 2592POPC   C4A34230  24.598  20.513   7.680
 2592POPC   C1B34231  24.266  20.340   8.713
 2592POPC   C2B34232  24.460  20.228   8.345
 2592POPC   C3B34233  24.245  20.447   8.055
 2592POPC   C4B34234  24.121  20.717   7.768
 2593POPC   NC334235  15.013  29.127   9.472
 2593POPC   PO434236  15.652  29.174   9.377
 2593POPC   GL134237  15.357  29.039   9.094
 2593POPC   GL234238  15.178  29.357   9.051
 2593POPC   C1A34239  15.342  28.796   8.738
 2593POPC   D2A34240  15.090  28.760   8.407
 2593POPC   C3A34241  15.185  29.010   8.076
 2593POPC   C4A34242  15.020  29.006   7.700
 2593POPC   C1B34243  15.273  29.413   8.609
 2593POPC   C2B34244  15.151  29.503   8.175
 2593POPC   C3B34245  15.354  29.408   7.782
 2593POPC   C4B34246  15.320  29.455   7.334
 2594POPC   NC334247  13.536   3.912   9.565
 2594POPC   PO434248  13.200   4.395   9.533
 2594POPC   GL134249  13.350   4.100   9.134
 2594POPC   GL234250  13.719   4.028   9.071
 2594POPC   C1A34251  13.458   4.210   8.668
 2594POPC   D2A34252  13.366   4.504   8.303
 2594POPC   C3A34253  13.592   4.605   7.911
 2594POPC   C4A34254  13.922   4.588   7.565
 2594POPC   C1B34255  13.819   3.863   8.610
 2594POPC   C2B34256  13.591   3.983   8.212
 2594POPC   C3B34257  13.862   4.176   7.870
 2594POPC   C4B34258  14.081   4.092   7.443
 2595POPC   NC334259  19.403   9.637   9.307
 2595POPC   PO434260  19.960  10.001   9.526
 2595POPC   GL134261  19.842   9.906   9.144
 2595POPC   GL234262  20.193   9.899   9.070
 2595POPC   C1A34263  19.698   9.847   8.712
 2595POPC   D2A34264  19.728   9.854   8.272
 2595POPC   C3A34265  19.612   9.559   8.033
 2595POPC   C4A34266  19.456   9.861   7.777
 2595POPC   C1B34267  20.146   9.537   8.860
 2595POPC   C2B34268  20.056   9.510   8.445
 2595POPC   C3B34269  20.170   9.647   8.060
 2595POPC   C4B34270  19.987   9.892   7.730
 2596POPC   NC334271  25.763  41.048   9.566
 2596POPC   PO434272  25.609  40.358   9.493
 2596POPC   GL134273  25.789  40.508   9.118
 2596POPC   GL234274  26.053  40.762   9.201
 2596POPC   C1A34275  25.923  40.652   8.710
 2596POPC   D2A34276  26.257  40.516   8.427
 2596POPC   C3A34277  26.070  40.614   8.035
 2596POPC   C4A34278  25.785  40.789   7.749
 2596POPC   C1B34279  26.352  40.887   8.853
 2596POPC   C2B34280  26.210  41.025   8.414
 2596POPC   C3B34281  26.209  41.179   7.977
 2596POPC   C4B34282  25.860  41.304   7.683
 2597POPC   NC334283   8.039  21.130   9.398
 2597POPC   PO434284   8.454  21.677   9.496
 2597POPC   GL134285   8.267  21.599   9.108
 2597POPC   GL234286   7.963  21.706   9.043
 2597POPC   C1A34287   8.241  21.367   8.707
 2597POPC   D2A34288   8.542  21.294   8.363
 2597POPC   C3A34289   8.321  21.413   7.995
 2597POPC   C4A34290   8.027  21.134   7.881
 2597POPC   C1B34291   7.764  21.568   8.694
 2597POPC   C2B34292   7.889  21.460   8.314
 2597POPC   C3B34293   7.660  21.455   7.965
 2597POPC   C4B34294   7.859  21.476   7.539
 2598POPC   NC334295  44.799   2.811   9.480
 2598POPC   PO434296  44.238   2.865   9.172
 2598POPC   GL134297  44.624   2.744   9.005
 2598POPC   GL234298  44.982   2.835   9.006
 2598POPC   C1A34299  44.749   2.604   8.619
 2598POPC   D2A34300  44.698   2.337   8.300
 2598POPC   C3A34301  44.486   2.594   7.983
 2598POPC   C4A34302  44.669   2.858   7.652
 2598POPC   C1B34303  44.825   3.111   8.699
 2598POPC   C2B34304  44.739   3.049   8.274
 2598POPC   C3B34305  44.945   3.198   7.907
 2598POPC   C4B34306   0.207   2.950   7.655
 2599POPC   NC334307  25.324  23.824   9.693
 2599POPC   PO434308  24.975  23.416   9.409
 2599POPC   GL134309  25.269  23.643   9.141
 2599POPC   GL234310  25.201  23.994   9.218
 2599POPC   C1A34311  25.325  23.463   8.711
 2599POPC   D2A34312  25.042  23.385   8.356
 2599POPC   C3A34313  25.194  23.570   7.992
 2599POPC   C4A34314  25.135  23.763   7.592
 2599POPC   C1B34315  25.151  24.131   8.804
 2599POPC   C2B34316  25.169  23.913   8.403
 2599POPC   C3B34317  25.290  24.080   7.975
 2599POPC   C4B34318  25.320  24.225   7.522
 2600POPC   NC334319  14.154  12.373   9.362
 2600POPC   PO434320  14.664  12.563   9.882
 2600POPC   GL134321  14.609  12.659   9.362
 2600POPC   GL234322  14.625  12.366   9.105
 2600POPC   C1A34323  14.638  12.855   8.911
 2600POPC   D2A34324  14.716  12.885   8.440
 2600POPC   C3A34325  14.600  13.031   7.995
 2600POPC   C4A34326  14.719  12.859   7.560
 2600POPC   C1B34327  14.425  12.475   8.675
 2600POPC   C2B34328  14.343  12.611   8.227
 2600POPC   C3B34329  14.322  12.644   7.778
 2600POPC   C4B34330  14.405  12.522   7.327
 2601POPC   NC334331  31.958   5.491   9.341
 2601POPC   PO434332  32.265   4.872   9.524
 2601POPC   GL134333  32.209   5.065   9.167
 2601POPC   GL234334  32.456   5.328   9.231
 2601POPC   C1A34335  32.253   4.951   8.757
 2601POPC   D2A34336  32.574   4.933   8.439
 2601POPC   C3A34337  32.432   4.889   8.058
 2601POPC   C4A34338  32.242   4.802   7.663
 2601POPC   C1B34339  32.386   5.474   8.820
 2601POPC   C2B34340  32.251   5.343   8.435
 2601POPC   C3B34341  32.422   5.411   8.059
 2601POPC   C4B34342  32.171   5.583   7.826
 2602POPC   NC334343  31.870  43.883   9.510
 2602POPC   PO434344  32.234  44.349   9.540
 2602POPC   GL134345  32.209  44.054   9.173
 2602POPC   GL234346  32.235  43.662   9.227
 2602POPC   C1A34347  32.086  44.108   8.750
 2602POPC   D2A34348  32.367  44.156   8.436
 2602POPC   C3A34349  32.190  44.054   8.086
 2602POPC   C4A34350  32.029  43.990   7.723
 2602POPC   C1B34351  32.257  43.612   8.775
 2602POPC   C2B34352  32.190  43.584   8.322
 2602POPC   C3B34353  32.305  43.591   7.897
 2602POPC   C4B34354  32.377  43.615   7.478
 2603POPC   NC334355  17.016  30.845   9.704
 2603POPC   PO434356  16.580  30.325   9.624
 2603POPC   GL134357  16.910  30.374   9.275
 2603POPC   GL234358  16.993  30.748   9.175
 2603POPC   C1A34359  16.918  30.297   8.811
 2603POPC   D2A34360  17.072  30.433   8.378
 2603POPC   C3A34361  16.877  30.380   7.953
 2603POPC   C4A34362  16.699  30.534   7.544
 2603POPC   C1B34363  16.840  30.803   8.717
 2603POPC   C2B34364  16.647  30.734   8.285
 2603POPC   C3B34365  16.724  30.931   7.878
 2603POPC   C4B34366  16.648  31.022   7.418
 2604POPC   NC334367  17.143  34.043   9.406
 2604POPC   PO434368  17.619  33.629   9.373
 2604POPC   GL134369  17.512  33.878   9.010
 2604POPC   GL234370  17.179  33.945   8.914
 2604POPC   C1A34371  17.691  33.976   8.613
 2604POPC   D2A34372  17.832  33.717   8.282
 2604POPC   C3A34373  17.757  33.839   7.850
 2604POPC   C4A34374  17.937  33.671   7.452
 2604POPC   C1B34375  17.287  33.665   8.577
 2604POPC   C2B34376  17.297  33.640   8.134
 2604POPC   C3B34377  17.241  33.934   7.834
 2604POPC   C4B34378  17.137  34.140   7.469
 2605POPC   NC334379   6.486  11.882   9.496
 2605POPC   PO434380   6.786  11.317   9.393
 2605POPC   GL134381   6.924  11.274   9.029
 2605POPC   GL234382   7.028  11.635   9.026
 2605POPC   C1A34383   6.627  11.075   8.742
 2605POPC   D2A34384   6.526  10.942   8.372
 2605POPC   C3A34385   6.818  11.129   8.074
 2605POPC   C4A34386   6.555  11.201   7.698
 2605POPC   C1B34387   6.610  11.583   8.778
 2605POPC   C2B34388   6.528  11.464   8.326
 2605POPC   C3B34389   6.719  11.629   7.943
 2605POPC   C4B34390   7.010  11.661   7.577
 2606POPC   NC334391  37.291  43.146   9.834
 2606POPC   PO434392  37.765  43.369   9.315
 2606POPC   GL134393  37.712  43.154   8.981
 2606POPC   GL234394  37.540  42.876   9.049
 2606POPC   C1A34395  37.889  43.186   8.618
 2606POPC   D2A34396  37.967  43.489   8.343
 2606POPC   C3A34397  37.783  43.325   7.993
 2606POPC   C4A34398  37.726  43.262   7.536
 2606POPC   C1B34399  37.611  42.747   8.662
 2606POPC   C2B34400  37.597  42.898   8.253
 2606POPC   C3B34401  37.710  42.840   7.841
 2606POPC   C4B34402  37.464  42.826   7.470
 2607POPC   NC334403  24.817  41.360   9.475
 2607POPC   PO434404  24.181  41.695   9.462
 2607POPC   GL134405  24.534  41.726   9.175
 2607POPC   GL234406  24.664  42.069   9.050
 2607POPC   C1A34407  24.709  41.529   8.824
 2607POPC   D2A34408  24.538  41.272   8.502
 2607POPC   C3A34409  24.698  41.425   8.142
 2607POPC   C4A34410  24.662  41.400   7.705
 2607POPC   C1B34411  24.352  41.909   8.742
 2607POPC   C2B34412  24.317  41.740   8.344
 2607POPC   C3B34413  24.275  41.630   7.928
 2607POPC   C4B34414  24.317  41.731   7.494
 2608POPC   NC334415  21.812  33.831   9.362
 2608POPC   PO434416  22.446  34.072   9.401
 2608POPC   GL134417  22.317  33.964   9.044
 2608POPC   GL234418  22.237  33.662   9.070
 2608POPC   C1A34419  22.053  33.912   8.671
 2608POPC   D2A34420  21.862  33.672   8.340
 2608POPC   C3A34421  22.114  33.794   8.008
 2608POPC   C4A34422  22.089  34.100   7.693
 2608POPC   C1B34423  22.504  33.605   8.713
 2608POPC   C2B34424  22.445  33.485   8.272
 2608POPC   C3B34425  22.575  33.618   7.835
 2608POPC   C4B34426  22.602  33.584   7.361
 2609POPC   NC334427  27.031  41.480   9.260
 2609POPC   PO434428  26.610  41.905   9.478
 2609POPC   GL134429  26.591  41.676   9.088
 2609POPC   GL234430  26.563  41.317   9.132
 2609POPC   C1A34431  26.843  41.608   8.666
 2609POPC   D2A34432  26.831  41.858   8.295
 2609POPC   C3A34433  27.008  41.892   7.872
 2609POPC   C4A34434  26.887  41.727   7.442
 2609POPC   C1B34435  26.379  41.396   8.721
 2609POPC   C2B34436  26.565  41.384   8.305
 2609POPC   C3B34437  26.735  41.460   7.893
 2609POPC   C4B34438  26.614  41.294   7.506
 2610POPC   NC334439  29.910  42.104   9.436
 2610POPC   PO434440  29.540  42.741   9.413
 2610POPC   GL134441  29.867  42.490   9.103
 2610POPC   GL234442  29.765  42.121   8.958
 2610POPC   C1A34443  30.046  42.394   8.670
 2610POPC   D2A34444  30.253  42.145   8.380
 2610POPC   C3A34445  30.161  42.335   7.981
 2610POPC   C4A34446  29.807  42.459   7.749
 2610POPC   C1B34447  29.513  42.099   8.569
 2610POPC   C2B34448  29.612  42.161   8.134
 2610POPC   C3B34449  29.528  42.017   7.749
 2610POPC   C4B34450  29.582  42.077   7.286
 2611POPC   NC334451  25.215  28.068   9.558
 2611POPC   PO434452  25.674  28.510   9.337
 2611POPC   GL134453  25.456  28.280   9.045
 2611POPC   GL234454  25.121  28.139   9.054
 2611POPC   C1A34455  25.302  28.387   8.645
 2611POPC   D2A34456  25.430  28.776   8.457
 2611POPC   C3A34457  25.564  28.661   8.062
 2611POPC   C4A34458  25.589  28.507   7.678
 2611POPC   C1B34459  24.885  28.088   8.697
 2611POPC   C2B34460  24.982  28.162   8.267
 2611POPC   C3B34461  25.114  28.379   7.904
 2611POPC   C4B34462  24.950  28.066   7.645
 2612POPC   NC334463   2.083  10.616   9.558
 2612POPC   PO434464   1.675  10.061   9.521
 2612POPC   GL134465   1.892  10.161   9.159
 2612POPC   GL234466   2.117  10.457   9.077
 2612POPC   C1A34467   1.727  10.341   8.759
 2612POPC   D2A34468   1.918  10.591   8.441
 2612POPC   C3A34469   1.823  10.461   8.041
 2612POPC   C4A34470   1.953  10.392   7.657
 2612POPC   C1B34471   2.136  10.878   8.832
 2612POPC   C2B34472   2.282  10.959   8.405
 2612POPC   C3B34473   2.324  10.664   8.052
 2612POPC   C4B34474   2.346  10.707   7.626
 2613POPC   NC334475  19.584  42.602   9.498
 2613POPC   PO434476  20.083  42.152   9.586
 2613POPC   GL134477  20.000  42.366   9.195
 2613POPC   GL234478  19.817  42.675   9.053
 2613POPC   C1A34479  19.970  42.223   8.790
 2613POPC   D2A34480  19.731  42.187   8.412
 2613POPC   C3A34481  19.988  42.203   8.099
 2613POPC   C4A34482  19.960  42.202   7.687
 2613POPC   C1B34483  19.517  42.505   8.771
 2613POPC   C2B34484  19.343  42.506   8.361
 2613POPC   C3B34485  19.619  42.562   8.001
 2613POPC   C4B34486  19.824  42.729   7.665
 2614POPC   NC334487  14.940  23.388   9.410
 2614POPC   PO434488  15.194  22.782   9.467
 2614POPC   GL134489  15.122  22.914   9.087
 2614POPC   GL234490  15.460  23.034   9.092
 2614POPC   C1A34491  15.279  22.798   8.673
 2614POPC   D2A34492  15.125  22.818   8.264
 2614POPC   C3A34493  15.409  22.813   7.940
 2614POPC   C4A34494  15.325  22.675   7.529
 2614POPC   C1B34495  15.225  23.304   8.780
 2614POPC   C2B34496  15.019  23.319   8.393
 2614POPC   C3B34497  15.155  23.254   7.999
 2614POPC   C4B34498  14.932  22.920   7.754
 2615POPC   NC334499  41.492  43.454   9.497
 2615POPC   PO434500  41.813  42.837   9.610
 2615POPC   GL134501  41.713  43.041   9.203
 2615POPC   GL234502  41.361  43.111   9.112
 2615POPC   C1A34503  41.740  43.222   8.783
 2615POPC   D2A34504  41.585  43.371   8.376
 2615POPC   C3A34505  41.632  43.182   7.967
 2615POPC   C4A34506  41.839  43.114   7.552
 2615POPC   C1B34507  41.212  43.178   8.683
 2615POPC   C2B34508  41.206  43.023   8.253
 2615POPC   C3B34509  41.069  42.954   7.835
 2615POPC   C4B34510  41.233  42.950   7.434
 2616POPC   NC334511  17.270   0.598   9.533
 2616POPC   PO434512  16.745   0.193   9.557
 2616POPC   GL134513  16.862   0.466   9.210
 2616POPC   GL234514  17.137   0.348   9.082
 2616POPC   C1A34515  16.788   0.745   8.851
 2616POPC   D2A34516  16.904   0.796   8.426
 2616POPC   C3A34517  16.769   0.472   8.160
 2616POPC   C4A34518  16.482   0.521   7.824
 2616POPC   C1B34519  17.268   0.525   8.696
 2616POPC   C2B34520  17.300   0.428   8.250
 2616POPC   C3B34521  17.166   0.418   7.807
 2616POPC   C4B34522  17.184   0.281   7.350
 2617POPC   NC334523  17.812  37.856   9.499
 2617POPC   PO434524  18.466  37.841   9.615
 2617POPC   GL134525  18.485  37.677   9.167
 2617POPC   GL234526  18.204  37.455   9.122
 2617POPC   C1A34527  18.365  37.728   8.730
 2617POPC   D2A34528  18.339  37.952   8.345
 2617POPC   C3A34529  18.268  37.664   7.998
 2617POPC   C4A34530  18.374  37.567   7.588
 2617POPC   C1B34531  18.162  37.224   8.690
 2617POPC   C2B34532  18.127  37.196   8.221
 2617POPC   C3B34533  18.101  37.185   7.776
 2617POPC   C4B34534  18.199  37.182   7.332
 2618POPC   NC334535   7.948  44.664   9.722
 2618POPC   PO434536   8.545  44.645   9.750
 2618POPC   GL134537   8.273  44.754   9.336
 2618POPC   GL234538   7.938  44.574   9.229
 2618POPC   C1A34539   8.153  44.890   8.902
 2618POPC   D2A34540   8.176  44.716   8.476
 2618POPC   C3A34541   8.445  44.938   8.178
 2618POPC   C4A34542   8.336  44.777   7.779
 2618POPC   C1B34543   8.029  44.374   8.830
 2618POPC   C2B34544   7.881  44.225   8.440
 2618POPC   C3B34545   8.042  44.369   8.063
 2618POPC   C4B34546   7.875  44.139   7.727
 2619POPC   NC334547   5.518  29.010   9.511
 2619POPC   PO434548   6.224  29.153   9.543
 2619POPC   GL134549   6.067  29.354   9.168
 2619POPC   GL234550   5.693  29.410   9.121
 2619POPC   C1A34551   5.981  29.381   8.728
 2619POPC   D2A34552   5.684  29.205   8.436
 2619POPC   C3A34553   5.880  29.164   8.039
 2619POPC   C4A34554   6.137  29.057   7.665
 2619POPC   C1B34555   5.558  29.672   8.696
 2619POPC   C2B34556   5.321  29.587   8.297
 2619POPC   C3B34557   5.378  29.537   7.831
 2619POPC   C4B34558   5.649  29.273   7.611
 2620POPC   NC334559  41.247  19.095   9.560
 2620POPC   PO434560  41.710  18.718   9.670
 2620POPC   GL134561  41.680  19.020   9.297
 2620POPC   GL234562  41.377  18.932   9.103
 2620POPC   C1A34563  41.746  19.126   8.813
 2620POPC   D2A34564  41.689  19.043   8.363
 2620POPC   C3A34565  41.878  19.118   7.953
 2620POPC   C4A34566  41.711  19.142   7.508
 2620POPC   C1B34567  41.264  18.937   8.677
 2620POPC   C2B34568  41.186  19.124   8.262
 2620POPC   C3B34569  41.361  18.946   7.869
 2620POPC   C4B34570  41.270  18.534   7.696
 2621POPC   NC334571  44.072   5.985   9.338
 2621POPC   PO434572  43.543   6.225   9.146
 2621POPC   GL134573  43.728   5.792   9.049
 2621POPC   GL234574  44.069   5.643   8.986
 2621POPC   C1A34575  43.601   5.642   8.737
 2621POPC   D2A34576  43.511   5.913   8.419
 2621POPC   C3A34577  43.554   5.787   8.012
 2621POPC   C4A34578  43.758   5.969   7.685
 2621POPC   C1B34579  43.998   5.981   8.670
 2621POPC   C2B34580  44.004   5.972   8.239
 2621POPC   C3B34581  44.155   6.204   7.944
 2621POPC   C4B34582  44.207   6.176   7.504
 2622POPC   NC334583   9.695  23.252   9.580
 2622POPC   PO434584   9.840  23.895   9.439
 2622POPC   GL134585   9.904  23.519   9.199
 2622POPC   GL234586   9.530  23.479   9.124
 2622POPC   C1A34587  10.051  23.461   8.787
 2622POPC   D2A34588  10.082  23.766   8.447
 2622POPC   C3A34589   9.756  23.914   8.182
 2622POPC   C4A34590   9.763  23.663   7.848
 2622POPC   C1B34591   9.554  23.630   8.682
 2622POPC   C2B34592   9.457  23.502   8.255
 2622POPC   C3B34593   9.307  23.396   7.845
 2622POPC   C4B34594   9.428  23.673   7.488
 2623POPC   NC334595  43.076  10.790  10.277
 2623POPC   PO434596  43.000  10.626   9.650
 2623POPC   GL134597  43.087  10.380   9.223
 2623POPC   GL234598  43.461  10.346   9.154
 2623POPC   C1A34599  43.159  10.185   8.781
 2623POPC   D2A34600  43.434  10.227   8.408
 2623POPC   C3A34601  43.308  10.285   7.996
 2623POPC   C4A34602  43.534  10.312   7.612
 2623POPC   C1B34603  43.408  10.627   8.760
 2623POPC   C2B34604  43.341  10.735   8.298
 2623POPC   C3B34605  43.259  11.074   7.979
 2623POPC   C4B34606  43.012  11.043   7.563
 2624POPC   NC334607  27.685  16.220   9.490
 2624POPC   PO434608  27.811  15.509   9.626
 2624POPC   GL134609  27.564  15.711   9.260
 2624POPC   GL234610  27.858  15.830   9.194
 2624POPC   C1A34611  27.457  15.916   8.809
 2624POPC   D2A34612  27.393  15.762   8.347
 2624POPC   C3A34613  27.392  16.039   7.963
 2624POPC   C4A34614  27.652  16.295   7.648
 2624POPC   C1B34615  27.958  15.821   8.783
 2624POPC   C2B34616  27.858  15.941   8.359
 2624POPC   C3B34617  27.834  15.787   7.939
 2624POPC   C4B34618  28.011  15.899   7.561
 2625POPC   NC334619  23.743  41.821   9.505
 2625POPC   PO434620  23.219  41.559   9.289
 2625POPC   GL134621  23.686  41.666   9.029
 2625POPC   GL234622  23.944  42.000   9.071
 2625POPC   C1A34623  24.003  41.509   8.678
 2625POPC   D2A34624  24.079  41.280   8.250
 2625POPC   C3A34625  23.789  41.417   7.909
 2625POPC   C4A34626  23.417  41.719   7.857
 2625POPC   C1B34627  23.796  41.985   8.646
 2625POPC   C2B34628  23.831  41.877   8.194
 2625POPC   C3B34629  23.882  41.890   7.748
 2625POPC   C4B34630  23.855  41.566   7.381
 2626POPC   NC334631  11.261  39.574   9.459
 2626POPC   PO434632  11.375  40.237   9.645
 2626POPC   GL134633  11.213  40.145   9.234
 2626POPC   GL234634  11.513  39.955   9.172
 2626POPC   C1A34635  11.087  39.973   8.818
 2626POPC   D2A34636  11.289  39.940   8.407
 2626POPC   C3A34637  11.168  40.145   8.016
 2626POPC   C4A34638  11.076  40.195   7.567
 2626POPC   C1B34639  11.518  39.681   8.795
 2626POPC   C2B34640  11.636  39.555   8.399
 2626POPC   C3B34641  11.592  39.730   8.017
 2626POPC   C4B34642  11.356  39.802   7.695
 2627POPC   NC334643   2.506  24.274   9.432
 2627POPC   PO434644   3.080  24.675   9.404
 2627POPC   GL134645   2.841  24.463   9.069
 2627POPC   GL234646   2.499  24.603   9.042
 2627POPC   C1A34647   2.900  24.407   8.613
 2627POPC   D2A34648   3.099  24.524   8.221
 2627POPC   C3A34649   2.783  24.605   7.897
 2627POPC   C4A34650   2.819  24.468   7.462
 2627POPC   C1B34651   2.430  24.206   8.799
 2627POPC   C2B34652   2.513  24.049   8.400
 2627POPC   C3B34653   2.526  24.156   7.959
 2627POPC   C4B34654   2.329  24.389   7.611
 2628POPC   NC334655  27.637   3.072   9.599
 2628POPC   PO434656  27.370   2.577   9.495
 2628POPC   GL134657  27.517   2.834   9.152
 2628POPC   GL234658  27.884   2.957   9.177
 2628POPC   C1A34659  27.739   2.611   8.834
 2628POPC   D2A34660  27.698   2.418   8.446
 2628POPC   C3A34661  27.451   2.615   8.147
 2628POPC   C4A34662  27.651   2.638   7.744
 2628POPC   C1B34663  27.949   3.113   8.789
 2628POPC   C2B34664  27.704   2.946   8.453
 2628POPC   C3B34665  27.693   3.054   8.044
 2628POPC   C4B34666  27.870   3.293   7.772
 2629POPC   NC334667   9.322  28.195   9.531
 2629POPC   PO434668   8.975  28.676   9.717
 2629POPC   GL134669   9.131  28.580   9.262
 2629POPC   GL234670   8.877  28.363   9.097
 2629POPC   C1A34671   9.146  28.691   8.832
 2629POPC   D2A34672   9.273  28.719   8.410
 2629POPC   C3A34673   8.997  28.612   8.055
 2629POPC   C4A34674   9.164  28.485   7.649
 2629POPC   C1B34675   9.185  28.164   8.877
 2629POPC   C2B34676   9.133  28.193   8.449
 2629POPC   C3B34677   9.173  28.115   8.013
 2629POPC   C4B34678   8.750  28.182   7.853
 2630POPC   NC334679  20.701  15.555   9.553
 2630POPC   PO434680  20.142  15.154   9.600
 2630POPC   GL134681  20.255  15.379   9.168
 2630POPC   GL234682  20.599  15.343   9.020
 2630POPC   C1A34683  20.271  15.403   8.659
 2630POPC   D2A34684  20.626  15.437   8.358
 2630POPC   C3A34685  20.582  15.359   7.900
 2630POPC   C4A34686  20.352  15.020   7.700
 2630POPC   C1B34687  20.781  15.014   8.702
 2630POPC   C2B34688  20.915  14.766   8.293
 2630POPC   C3B34689  20.854  14.888   7.843
 2630POPC   C4B34690  20.851  15.176   7.472
 2631POPC   NC334691  14.127   2.923   9.379
 2631POPC   PO434692  14.454   2.318   9.360
 2631POPC   GL134693  14.452   2.649   9.088
 2631POPC   GL234694  14.759   2.677   8.899
 2631POPC   C1A34695  14.321   2.881   8.716
 2631POPC   D2A34696  14.476   3.000   8.310
 2631POPC   C3A34697  14.221   2.879   7.960
 2631POPC   C4A34698  14.034   2.479   7.898
 2631POPC   C1B34699  14.474   2.387   8.671
 2631POPC   C2B34700  14.359   2.483   8.290
 2631POPC   C3B34701  14.613   2.578   7.974
 2631POPC   C4B34702  14.759   2.986   7.868
 2632POPC   NC334703   6.617  35.716   9.548
 2632POPC   PO434704   6.874  35.171   9.447
 2632POPC   GL134705   6.735  35.409   9.110
 2632POPC   GL234706   6.455  35.646   9.088
 2632POPC   C1A34707   6.862  35.467   8.707
 2632POPC   D2A34708   6.878  35.204   8.350
 2632POPC   C3A34709   6.675  35.357   8.047
 2632POPC   C4A34710   6.818  35.662   7.795
 2632POPC   C1B34711   6.327  35.495   8.715
 2632POPC   C2B34712   6.115  35.672   8.380
 2632POPC   C3B34713   6.266  35.678   7.979
 2632POPC   C4B34714   6.370  35.470   7.617
 2633POPC   NC334715  13.349  14.990   9.533
 2633POPC   PO434716  13.864  15.381   9.704
 2633POPC   GL134717  13.738  15.264   9.273
 2633POPC   GL234718  13.381  15.367   9.160
 2633POPC   C1A34719  13.786  15.377   8.828
 2633POPC   D2A34720  13.534  15.401   8.422
 2633POPC   C3A34721  13.801  15.392   8.015
 2633POPC   C4A34722  13.662  15.441   7.564
 2633POPC   C1B34723  13.491  14.981   8.896
 2633POPC   C2B34724  13.451  14.784   8.494
 2633POPC   C3B34725  13.514  14.982   8.084
 2633POPC   C4B34726  13.568  14.931   7.637
 2634POPC   NC334727   2.928  26.493   9.457
 2634POPC   PO434728   2.631  27.121   9.441
 2634POPC   GL134729   2.734  26.822   9.128
 2634POPC   GL234730   2.512  26.586   8.968
 2634POPC   C1A34731   2.983  26.794   8.778
 2634POPC   D2A34732   2.952  26.960   8.390
 2634POPC   C3A34733   2.585  26.987   8.130
 2634POPC   C4A34734   2.681  26.869   7.700
 2634POPC   C1B34735   2.802  26.316   8.755
 2634POPC   C2B34736   2.959  26.375   8.345
 2634POPC   C3B34737   3.049  26.648   8.018
 2634POPC   C4B34738   3.146  26.496   7.669
 2635POPC   NC334739  38.134  35.803   9.556
 2635POPC   PO434740  38.691  36.223   9.383
 2635POPC   GL134741  38.422  35.991   9.176
 2635POPC   GL234742  38.625  35.727   9.184
 2635POPC   C1A34743  38.273  35.945   8.768
 2635POPC   D2A34744  38.295  36.244   8.418
 2635POPC   C3A34745  38.178  36.259   7.980
 2635POPC   C4A34746  38.363  36.104   7.605
 2635POPC   C1B34747  38.782  35.947   8.772
 2635POPC   C2B34748  38.588  35.834   8.372
 2635POPC   C3B34749  38.696  35.938   7.980
 2635POPC   C4B34750  38.855  36.000   7.574
 2636POPC   NC334751  38.175  32.728   9.355
 2636POPC   PO434752  38.702  33.041   9.661
 2636POPC   GL134753  38.693  32.923   9.244
 2636POPC   GL234754  38.637  32.567   9.176
 2636POPC   C1A34755  38.478  33.028   8.850
 2636POPC   D2A34756  38.336  32.766   8.499
 2636POPC   C3A34757  38.456  32.888   8.093
 2636POPC   C4A34758  38.341  33.105   7.737
 2636POPC   C1B34759  38.779  32.622   8.719
 2636POPC   C2B34760  38.917  32.663   8.259
 2636POPC   C3B34761  38.848  32.644   7.793
 2636POPC   C4B34762  38.487  32.680   7.498
 2637POPC   NC334763  20.675  32.973   9.541
 2637POPC   PO434764  20.073  33.352   9.472
 2637POPC   GL134765  20.370  33.152   9.165
 2637POPC   GL234766  20.751  33.241   9.116
 2637POPC   C1A34767  20.494  32.836   8.855
 2637POPC   D2A34768  20.414  32.754   8.408
 2637POPC   C3A34769  20.673  32.972   8.108
 2637POPC   C4A34770  20.980  32.957   7.780
 2637POPC   C1B34771  20.824  33.168   8.670
 2637POPC   C2B34772  20.817  33.465   8.376
 2637POPC   C3B34773  20.924  33.412   7.990
 2637POPC   C4B34774  20.796  33.475   7.600
 2638POPC   NC334775  13.407  31.903   9.503
 2638POPC   PO434776  13.489  32.579   9.334
 2638POPC   GL134777  13.710  32.210   9.189
 2638POPC   GL234778  14.029  32.370   9.072
 2638POPC   C1A34779  13.465  31.973   8.877
 2638POPC   D2A34780  13.306  32.094   8.500
 2638POPC   C3A34781  13.615  32.116   8.187
 2638POPC   C4A34782  13.412  32.076   7.794
 2638POPC   C1B34783  13.791  32.317   8.688
 2638POPC   C2B34784  13.506  32.559   8.447
 2638POPC   C3B34785  13.302  32.516   8.065
 2638POPC   C4B34786  13.468  32.567   7.653
 2639POPC   NC334787  44.366   0.151   9.443
 2639POPC   PO434788  43.630   0.323   9.474
 2639POPC   GL134789  43.800   0.404   9.085
 2639POPC   GL234790  44.175   0.461   9.071
 2639POPC   C1A34791  43.755   0.548   8.663
 2639POPC   D2A34792  43.859   0.380   8.263
 2639POPC   C3A34793  43.907   0.591   7.833
 2639POPC   C4A34794  43.907   0.595   7.328
 2639POPC   C1B34795  44.105   0.090   8.818
 2639POPC   C2B34796  44.060  44.922   8.386
 2639POPC   C3B34797  44.113   0.083   7.945
 2639POPC   C4B34798  43.866   0.158   7.570
 2640POPC   NC334799  20.779   4.752   9.425
 2640POPC   PO434800  20.440   5.212   9.764
 2640POPC   GL134801  20.499   5.234   9.250
 2640POPC   GL234802  20.848   5.328   9.124
 2640POPC   C1A34803  20.573   4.991   8.816
 2640POPC   D2A34804  20.650   4.772   8.412
 2640POPC   C3A34805  20.464   4.904   8.038
 2640POPC   C4A34806  20.630   4.850   7.638
 2640POPC   C1B34807  20.599   5.494   8.763
 2640POPC   C2B34808  20.593   5.310   8.342
 2640POPC   C3B34809  20.778   5.276   7.916
 2640POPC   C4B34810  20.546   5.345   7.492
 2641POPC   NC334811  15.279  35.626   9.492
 2641POPC   PO434812  15.404  34.931   9.419
 2641POPC   GL134813  15.296  35.175   9.076
 2641POPC   GL234814  15.480  35.469   9.066
 2641POPC   C1A34815  14.918  35.264   8.824
 2641POPC   D2A34816  14.845  35.384   8.366
 2641POPC   C3A34817  15.202  35.237   8.111
 2641POPC   C4A34818  15.279  35.266   7.671
 2641POPC   C1B34819  15.300  35.539   8.642
 2641POPC   C2B34820  15.563  35.579   8.273
 2641POPC   C3B34821  15.325  35.746   7.937
 2641POPC   C4B34822  14.913  35.623   7.848
 2642POPC   NC334823   7.668   2.656   9.733
 2642POPC   PO434824   7.257   3.136   9.499
 2642POPC   GL134825   7.482   2.821   9.249
 2642POPC   GL234826   7.204   2.905   9.020
 2642POPC   C1A34827   7.604   2.690   8.814
 2642POPC   D2A34828   7.306   2.638   8.421
 2642POPC   C3A34829   7.457   2.733   7.987
 2642POPC   C4A34830   7.725   3.065   7.820
 2642POPC   C1B34831   7.127   3.107   8.595
 2642POPC   C2B34832   7.051   3.028   8.135
 2642POPC   C3B34833   7.207   3.135   7.706
 2642POPC   C4B34834   7.068   3.005   7.260
 2643POPC   NC334835  31.156   1.765   9.398
 2643POPC   PO434836  31.711   1.984   9.494
 2643POPC   GL134837  31.531   2.012   9.124
 2643POPC   GL234838  31.219   2.174   9.065
 2643POPC   C1A34839  31.463   1.828   8.752
 2643POPC   D2A34840  31.631   1.946   8.364
 2643POPC   C3A34841  31.458   1.925   7.995
 2643POPC   C4A34842  31.256   1.716   7.695
 2643POPC   C1B34843  31.190   2.279   8.632
 2643POPC   C2B34844  31.533   2.432   8.383
 2643POPC   C3B34845  31.663   2.387   7.961
 2643POPC   C4B34846  31.283   2.295   7.689
 2644POPC   NC334847   3.204   6.032   9.311
 2644POPC   PO434848   2.571   6.143   9.492
 2644POPC   GL134849   2.746   5.897   9.159
 2644POPC   GL234850   2.932   6.116   8.901
 2644POPC   C1A34851   2.630   5.730   8.781
 2644POPC   D2A34852   2.769   5.758   8.372
 2644POPC   C3A34853   2.623   6.112   8.126
 2644POPC   C4A34854   2.754   6.025   7.711
 2644POPC   C1B34855   3.186   6.040   8.531
 2644POPC   C2B34856   3.147   6.088   8.070
 2644POPC   C3B34857   3.261   6.250   7.651
 2644POPC   C4B34858   3.294   6.235   7.191
 2645POPC   NC334859  38.588   2.212   9.427
 2645POPC   PO434860  37.980   1.920   9.357
 2645POPC   GL134861  38.315   1.908   9.108
 2645POPC   GL234862  38.604   1.703   9.200
 2645POPC   C1A34863  38.487   2.046   8.725
 2645POPC   D2A34864  38.458   2.268   8.361
 2645POPC   C3A34865  38.592   2.045   8.012
 2645POPC   C4A34866  38.652   2.074   7.589
 2645POPC   C1B34867  38.400   1.532   8.794
 2645POPC   C2B34868  38.525   1.647   8.386
 2645POPC   C3B34869  38.390   1.569   8.012
 2645POPC   C4B34870  38.598   1.588   7.630
 2646POPC   NC334871  31.004  36.306   9.526
 2646POPC   PO434872  30.360  36.104   9.622
 2646POPC   GL134873  30.633  35.998   9.274
 2646POPC   GL234874  30.836  36.239   9.074
 2646POPC   C1A34875  30.601  35.881   8.840
 2646POPC   D2A34876  30.870  35.889   8.490
 2646POPC   C3A34877  30.632  36.030   8.152
 2646POPC   C4A34878  30.709  36.025   7.730
 2646POPC   C1B34879  31.093  36.299   8.702
 2646POPC   C2B34880  30.953  36.407   8.305
 2646POPC   C3B34881  31.104  36.250   7.924
 2646POPC   C4B34882  31.083  36.203   7.447
 2647POPC   NC334883  37.784  18.191   9.280
 2647POPC   PO434884  37.551  18.674   9.729
 2647POPC   GL134885  37.436  18.548   9.240
 2647POPC   GL234886  37.249  18.235   9.271
 2647POPC   C1A34887  37.584  18.409   8.735
 2647POPC   D2A34888  37.548  18.527   8.303
 2647POPC   C3A34889  37.766  18.399   7.902
 2647POPC   C4A34890  37.834  18.017   7.732
 2647POPC   C1B34891  37.182  18.093   8.859
 2647POPC   C2B34892  37.319  18.045   8.443
 2647POPC   C3B34893  37.327  18.164   8.008
 2647POPC   C4B34894  37.311  18.076   7.581
 2648POPC   NC334895  31.391  38.058   9.313
 2648POPC   PO434896  31.533  37.468   9.675
 2648POPC   GL134897  31.665  37.600   9.251
 2648POPC   GL234898  31.311  37.591   9.156
 2648POPC   C1A34899  31.695  37.590   8.772
 2648POPC   D2A34900  31.582  37.802   8.357
 2648POPC   C3A34901  31.437  37.623   7.974
 2648POPC   C4A34902  31.669  37.495   7.634
 2648POPC   C1B34903  31.204  37.763   8.734
 2648POPC   C2B34904  31.021  37.791   8.291
 2648POPC   C3B34905  31.072  37.989   7.859
 2648POPC   C4B34906  31.318  37.846   7.479
 2649POPC   NC334907  24.177  28.490   9.441
 2649POPC   PO434908  24.766  28.099   9.410
 2649POPC   GL134909  24.516  28.233   9.022
 2649POPC   GL234910  24.439  28.590   9.015
 2649POPC   C1A34911  24.506  28.401   8.553
 2649POPC   D2A34912  24.284  28.339   8.185
 2649POPC   C3A34913  24.494  28.107   7.895
 2649POPC   C4A34914  24.413  28.163   7.470
 2649POPC   C1B34915  24.873  28.589   8.848
 2649POPC   C2B34916  24.929  28.665   8.383
 2649POPC   C3B34917  24.690  28.643   7.975
 2649POPC   C4B34918  24.769  28.526   7.537
 2650POPC   NC334919  38.832  23.511   9.751
 2650POPC   PO434920  39.358  23.731   9.437
 2650POPC   GL134921  39.181  23.682   9.080
 2650POPC   GL234922  38.992  23.364   9.084
 2650POPC   C1A34923  39.364  23.843   8.714
 2650POPC   D2A34924  39.292  24.103   8.388
 2650POPC   C3A34925  39.361  23.898   8.055
 2650POPC   C4A34926  39.029  24.013   7.844
 2650POPC   C1B34927  39.234  23.342   8.711
 2650POPC   C2B34928  39.102  23.551   8.328
 2650POPC   C3B34929  39.112  23.502   7.856
 2650POPC   C4B34930  39.332  23.740   7.519
 2651POPC   NC334931   8.570  27.045   9.634
 2651POPC   PO434932   8.527  26.392   9.499
 2651POPC   GL134933   8.361  26.683   9.171
 2651POPC   GL234934   8.434  27.053   9.158
 2651POPC   C1A34935   8.188  26.634   8.744
 2651POPC   D2A34936   7.910  26.483   8.404
 2651POPC   C3A34937   8.077  26.658   8.050
 2651POPC   C4A34938   8.365  26.931   7.887
 2651POPC   C1B34939   8.206  27.174   8.815
 2651POPC   C2B34940   8.234  27.081   8.399
 2651POPC   C3B34941   7.939  27.157   8.109
 2651POPC   C4B34942   7.909  27.066   7.678
 2652POPC   NC334943  16.478   1.450   9.457
 2652POPC   PO434944  16.967   0.958   9.461
 2652POPC   GL134945  16.843   1.276   9.149
 2652POPC   GL234946  17.082   1.525   9.072
 2652POPC   C1A34947  16.533   1.224   8.813
 2652POPC   D2A34948  16.357   0.992   8.466
 2652POPC   C3A34949  16.582   0.987   8.067
 2652POPC   C4A34950  16.422   1.000   7.668
 2652POPC   C1B34951  17.073   1.236   8.692
 2652POPC   C2B34952  17.273   1.118   8.289
 2652POPC   C3B34953  17.091   0.967   7.909
 2652POPC   C4B34954  16.881   1.171   7.573
 2653POPC   NC334955   3.493   0.017   9.523
 2653POPC   PO434956   3.514  44.348   9.452
 2653POPC   GL134957   3.629  44.596   9.078
 2653POPC   GL234958   3.641  44.952   9.035
 2653POPC   C1A34959   3.738  44.584   8.631
 2653POPC   D2A34960   3.862  44.427   8.222
 2653POPC   C3A34961   3.583  44.263   7.918
 2653POPC   C4A34962   3.180  44.345   7.757
 2653POPC   C1B34963   3.339  44.872   8.720
 2653POPC   C2B34964   3.281  44.672   8.313
 2653POPC   C3B34965   3.151  44.821   7.920
 2653POPC   C4B34966   3.313  44.957   7.506
 2654POPC   NC334967   1.535   3.020   9.485
 2654POPC   PO434968   1.038   2.652   9.597
 2654POPC   GL134969   1.168   2.812   9.196
 2654POPC   GL234970   1.037   3.112   9.218
 2654POPC   C1A34971   1.223   2.717   8.779
 2654POPC   D2A34972   1.008   2.525   8.448
 2654POPC   C3A34973   1.049   2.701   8.041
 2654POPC   C4A34974   1.365   2.640   7.727
 2654POPC   C1B34975   0.892   3.115   8.799
 2654POPC   C2B34976   1.128   3.087   8.419
 2654POPC   C3B34977   1.047   3.223   8.018
 2654POPC   C4B34978   1.230   3.114   7.654
 2655POPC   NC334979  10.835   9.938   9.426
 2655POPC   PO434980  10.545   9.279   9.541
 2655POPC   GL134981  10.472   9.532   9.149
 2655POPC   GL234982  10.747   9.476   9.095
 2655POPC   C1A34983  10.427   9.849   8.797
 2655POPC   D2A34984  10.173   9.911   8.411
 2655POPC   C3A34985  10.377   9.760   8.036
 2655POPC   C4A34986  10.317   9.937   7.632
 2655POPC   C1B34987  10.794   9.509   8.679
 2655POPC   C2B34988  10.847   9.656   8.297
 2655POPC   C3B34989  10.821   9.423   7.974
 2655POPC   C4B34990  10.547   9.501   7.611
 2656POPC   NC334991  25.486  31.538   9.743
 2656POPC   PO434992  24.901  31.735   9.484
 2656POPC   GL134993  25.170  31.651   9.143
 2656POPC   GL234994  25.295  31.344   9.114
 2656POPC   C1A34995  25.184  31.767   8.720
 2656POPC   D2A34996  25.501  31.855   8.411
 2656POPC   C3A34997  25.355  31.701   8.057
 2656POPC   C4A34998  25.217  31.881   7.690
 2656POPC   C1B34999  24.904  31.345   8.841
 2656POPC   C2B35000  24.833  31.204   8.427
 2656POPC   C3B35001  24.959  31.065   8.009
 2656POPC   C4B35002  25.147  31.359   7.718
 2657POPC   NC335003   0.355  34.367   9.390
 2657POPC   PO435004   0.874  34.578   9.730
 2657POPC   GL135005   0.848  34.568   9.176
 2657POPC   GL235006   0.712  34.248   9.056
 2657POPC   C1A35007   0.700  34.700   8.700
 2657POPC   D2A35008   0.296  34.848   8.461
 2657POPC   C3A35009   0.416  34.922   8.049
 2657POPC   C4A35010   0.297  34.868   7.614
 2657POPC   C1B35011   0.428  34.269   8.702
 2657POPC   C2B35012   0.450  34.406   8.264
 2657POPC   C3B35013   0.472  34.435   7.832
 2657POPC   C4B35014   0.568  34.373   7.374
 2658POPC   NC335015  42.590  16.918   9.556
 2658POPC   PO435016  42.690  16.278   9.401
 2658POPC   GL135017  42.418  16.497   9.174
 2658POPC   GL235018  42.167  16.740   9.288
 2658POPC   C1A35019  42.554  16.816   8.893
 2658POPC   D2A35020  42.509  16.933   8.501
 2658POPC   C3A35021  42.545  16.715   8.161
 2658POPC   C4A35022  42.593  16.927   7.837
 2658POPC   C1B35023  42.059  16.696   8.854
 2658POPC   C2B35024  42.047  16.681   8.418
 2658POPC   C3B35025  42.092  16.911   8.047
 2658POPC   C4B35026  42.154  16.703   7.697
 2659POPC   NC335027  25.838  20.168   9.534
 2659POPC   PO435028  26.345  19.734   9.588
 2659POPC   GL135029  26.104  19.813   9.249
 2659POPC   GL235030  26.253  20.136   9.167
 2659POPC   C1A35031  26.026  19.793   8.825
 2659POPC   D2A35032  26.156  19.904   8.426
 2659POPC   C3A35033  26.148  19.600   8.146
 2659POPC   C4A35034  26.164  19.378   7.775
 2659POPC   C1B35035  26.389  20.206   8.751
 2659POPC   C2B35036  26.355  20.348   8.281
 2659POPC   C3B35037  26.343  20.024   7.951
 2659POPC   C4B35038  25.957  19.864   7.729
 2660POPC   NC335039  11.822  23.980   9.545
 2660POPC   PO435040  12.269  23.507   9.396
 2660POPC   GL135041  12.140  23.824   9.108
 2660POPC   GL235042  11.806  23.844   9.057
 2660POPC   C1A35043  12.234  23.776   8.679
 2660POPC   D2A35044  12.060  23.883   8.298
 2660POPC   C3A35045  12.125  23.599   7.978
 2660POPC   C4A35046  12.256  23.652   7.572
 2660POPC   C1B35047  11.794  23.476   8.843
 2660POPC   C2B35048  11.810  23.456   8.411
 2660POPC   C3B35049  11.631  23.632   8.031
 2660POPC   C4B35050  11.674  23.422   7.704
 2661POPC   NC335051  24.600   8.465   9.581
 2661POPC   PO435052  24.165   8.031   9.570
 2661POPC   GL135053  24.305   8.190   9.178
 2661POPC   GL235054  24.618   8.331   9.094
 2661POPC   C1A35055  24.246   8.237   8.738
 2661POPC   D2A35056  24.329   8.055   8.326
 2661POPC   C3A35057  24.482   8.216   7.932
 2661POPC   C4A35058  24.240   8.134   7.524
 2661POPC   C1B35059  24.661   8.585   8.715
 2661POPC   C2B35060  24.709   8.582   8.291
 2661POPC   C3B35061  24.840   8.635   7.905
 2661POPC   C4B35062  24.927   8.434   7.509
 2662POPC   NC335063   0.084  11.025   9.319
 2662POPC   PO435064   0.078  10.315   9.500
 2662POPC   GL135065   0.385  10.470   9.167
 2662POPC   GL235066   0.639  10.710   9.305
 2662POPC   C1A35067   0.528  10.275   8.735
 2662POPC   D2A35068   0.480  10.345   8.278
 2662POPC   C3A35069   0.610  10.367   7.849
 2662POPC   C4A35070   0.490  10.708   7.571
 2662POPC   C1B35071   0.754  10.720   8.857
 2662POPC   C2B35072   0.916  10.771   8.405
 2662POPC   C3B35073   0.868  10.784   7.950
 2662POPC   C4B35074   1.008  10.650   7.528
 2663POPC   NC335075   0.569   3.258   9.389
 2663POPC   PO435076   0.193   3.903   9.458
 2663POPC   GL135077   0.341   3.634   9.133
 2663POPC   GL235078   0.161   3.303   9.110
 2663POPC   C1A35079   0.583   3.570   8.754
 2663POPC   D2A35080   0.704   3.399   8.373
 2663POPC   C3A35081   0.758   3.641   7.957
 2663POPC   C4A35082   0.793   3.404   7.541
 2663POPC   C1B35083   0.343   3.113   8.752
 2663POPC   C2B35084   0.241   3.174   8.341
 2663POPC   C3B35085   0.470   3.220   7.971
 2663POPC   C4B35086   0.309   3.481   7.656
 2664POPC   NC335087   7.085  42.882   9.444
 2664POPC   PO435088   7.582  43.319   9.444
 2664POPC   GL135089   7.388  43.108   9.100
 2664POPC   GL235090   7.467  42.759   9.110
 2664POPC   C1A35091   7.216  43.199   8.703
 2664POPC   D2A35092   7.113  43.472   8.363
 2664POPC   C3A35093   7.340  43.308   8.013
 2664POPC   C4A35094   7.146  43.041   7.747
 2664POPC   C1B35095   7.634  42.851   8.720
 2664POPC   C2B35096   7.492  42.933   8.321
 2664POPC   C3B35097   7.557  42.747   7.930
 2664POPC   C4B35098   7.411  42.726   7.461
 2665POPC   NC335099  19.740  21.474   9.567
 2665POPC   PO435100  19.256  21.063   9.392
 2665POPC   GL135101  19.662  21.249   9.127
 2665POPC   GL235102  19.868  21.571   9.073
 2665POPC   C1A35103  19.958  21.197   8.774
 2665POPC   D2A35104  19.763  21.170   8.371
 2665POPC   C3A35105  19.961  21.200   7.989
 2665POPC   C4A35106  19.719  21.409   7.746
 2665POPC   C1B35107  19.724  21.661   8.644
 2665POPC   C2B35108  19.688  21.673   8.192
 2665POPC   C3B35109  19.909  21.879   7.845
 2665POPC   C4B35110  19.936  21.877   7.408
 2666POPC   NC335111  23.602  21.836   9.322
 2666POPC   PO435112  23.960  22.385   9.274
 2666POPC   GL135113  23.693  22.202   8.911
 2666POPC   GL235114  23.394  21.939   8.891
 2666POPC   C1A35115  23.828  21.914   8.576
 2666POPC   D2A35116  24.151  21.895   8.254
 2666POPC   C3A35117  23.934  22.024   7.893
 2666POPC   C4A35118  23.770  22.228   7.542
 2666POPC   C1B35119  23.251  22.093   8.534
 2666POPC   C2B35120  23.514  22.080   8.190
 2666POPC   C3B35121  23.441  21.896   7.823
 2666POPC   C4B35122  23.278  22.097   7.499
 2667POPC   NC335123  24.047  26.880   9.758
 2667POPC   PO435124  24.670  26.557   9.766
 2667POPC   GL135125  24.614  26.737   9.329
 2667POPC   GL235126  24.269  26.834   9.280
 2667POPC   C1A35127  24.755  26.759   8.885
 2667POPC   D2A35128  24.596  26.888   8.476
 2667POPC   C3A35129  24.671  26.842   8.031
 2667POPC   C4A35130  24.541  26.775   7.597
 2667POPC   C1B35131  24.250  26.986   8.849
 2667POPC   C2B35132  24.092  26.985   8.402
 2667POPC   C3B35133  24.172  26.848   7.982
 2667POPC   C4B35134  24.240  27.195   7.686
 2668POPC   NC335135  31.078  43.476   9.277
 2668POPC   PO435136  31.445  44.077   9.441
 2668POPC   GL135137  31.433  43.861   9.056
 2668POPC   GL235138  31.777  43.792   9.018
 2668POPC   C1A35139  31.463  44.057   8.636
 2668POPC   D2A35140  31.288  44.303   8.275
 2668POPC   C3A35141  31.289  44.089   7.899
 2668POPC   C4A35142  31.543  43.897   7.639
 2668POPC   C1B35143  31.758  43.650   8.609
 2668POPC   C2B35144  31.707  43.837   8.200
 2668POPC   C3B35145  31.794  43.536   7.900
 2668POPC   C4B35146  31.617  43.396   7.515
 2669POPC   NC335147  33.414   4.870   9.607
 2669POPC   PO435148  34.022   4.886   9.502
 2669POPC   GL135149  33.748   5.160   9.292
 2669POPC   GL235150  33.640   4.876   9.109
 2669POPC   C1A35151  33.701   5.392   8.888
 2669POPC   D2A35152  33.740   5.299   8.437
 2669POPC   C3A35153  33.678   5.466   8.028
 2669POPC   C4A35154  33.359   5.277   7.775
 2669POPC   C1B35155  33.823   4.882   8.702
 2669POPC   C2B35156  33.698   4.816   8.277
 2669POPC   C3B35157  33.747   4.902   7.832
 2669POPC   C4B35158  34.144   4.884   7.557
 2670POPC   NC335159  11.804  29.091   9.502
 2670POPC   PO435160  12.248  29.326   9.699
 2670POPC   GL135161  12.119  29.390   9.236
 2670POPC   GL235162  12.172  29.021   9.148
 2670POPC   C1A35163  11.936  29.301   8.800
 2670POPC   D2A35164  12.047  29.318   8.344
 2670POPC   C3A35165  11.829  28.986   8.123
 2670POPC   C4A35166  11.687  28.908   7.728
 2670POPC   C1B35167  12.322  28.886   8.734
 2670POPC   C2B35168  12.311  28.871   8.288
 2670POPC   C3B35169  12.257  28.865   7.831
 2670POPC   C4B35170  12.365  29.079   7.431
 2671POPC   NC335171  20.491  14.875   9.437
 2671POPC   PO435172  20.709  14.335   9.686
 2671POPC   GL135173  20.823  14.449   9.222
 2671POPC   GL235174  20.539  14.293   9.073
 2671POPC   C1A35175  20.844  14.491   8.726
 2671POPC   D2A35176  20.720  14.284   8.317
 2671POPC   C3A35177  20.595  14.443   7.905
 2671POPC   C4A35178  20.623  14.376   7.446
 2671POPC   C1B35179  20.845  13.997   8.851
 2671POPC   C2B35180  20.825  13.810   8.413
 2671POPC   C3B35181  20.625  13.906   7.969
 2671POPC   C4B35182  20.280  14.062   7.709
 2672POPC   NC335183  43.406  10.792   9.484
 2672POPC   PO435184  43.985  10.454   9.659
 2672POPC   GL135185  43.982  10.312   9.237
 2672POPC   GL235186  44.291  10.187   9.209
 2672POPC   C1A35187  43.891  10.443   8.827
 2672POPC   D2A35188  43.838  10.689   8.470
 2672POPC   C3A35189  43.762  10.506   8.077
 2672POPC   C4A35190  43.960  10.558   7.701
 2672POPC   C1B35191  44.196  10.031   8.775
 2672POPC   C2B35192  43.987  10.139   8.379
 2672POPC   C3B35193  44.192  10.148   7.920
 2672POPC   C4B35194  44.257  10.257   7.441
 2673POPC   NC335195  17.433  37.826  10.179
 2673POPC   PO435196  17.544  37.472   9.598
 2673POPC   GL135197  17.508  37.579   9.186
 2673POPC   GL235198  17.725  37.285   9.145
 2673POPC   C1A35199  17.494  37.924   8.868
 2673POPC   D2A35200  17.306  38.122   8.528
 2673POPC   C3A35201  17.398  37.878   8.153
 2673POPC   C4A35202  17.090  37.947   7.838
 2673POPC   C1B35203  17.815  37.554   8.797
 2673POPC   C2B35204  17.931  37.631   8.403
 2673POPC   C3B35205  17.767  37.533   8.009
 2673POPC   C4B35206  17.881  37.674   7.629
 2674POPC   NC335207  14.444  18.747   9.521
 2674POPC   PO435208  14.848  19.297   9.528
 2674POPC   GL135209  14.579  19.104   9.182
 2674POPC   GL235210  14.290  19.246   9.161
 2674POPC   C1A35211  14.289  18.901   8.825
 2674POPC   D2A35212  14.144  19.075   8.453
 2674POPC   C3A35213  14.256  18.850   8.107
 2674POPC   C4A35214  14.254  18.857   7.673
 2674POPC   C1B35215  14.470  19.382   8.764
 2674POPC   C2B35216  14.393  19.512   8.345
 2674POPC   C3B35217  14.526  19.292   7.978
 2674POPC   C4B35218  14.752  19.440   7.593
 2675POPC   NC335219  18.043   4.510   9.456
 2675POPC   PO435220  17.463   4.131   9.446
 2675POPC   GL135221  17.606   4.261   9.074
 2675POPC   GL235222  17.918   4.126   9.103
 2675POPC   C1A35223  17.377   4.200   8.679
 2675POPC   D2A35224  17.138   4.287   8.309
 2675POPC   C3A35225  17.109   4.055   7.954
 2675POPC   C4A35226  17.265   4.141   7.578
 2675POPC   C1B35227  17.843   3.990   8.700
 2675POPC   C2B35228  17.781   4.230   8.341
 2675POPC   C3B35229  17.597   4.247   7.952
 2675POPC   C4B35230  17.781   4.011   7.630
 2676POPC   NC335231  12.903   9.205   9.428
 2676POPC   PO435232  12.557   8.671   9.609
 2676POPC   GL135233  12.725   8.806   9.123
 2676POPC   GL235234  12.798   9.181   8.952
 2676POPC   C1A35235  12.958   8.815   8.671
 2676POPC   D2A35236  12.969   9.107   8.316
 2676POPC   C3A35237  13.010   8.888   7.937
 2676POPC   C4A35238  12.685   8.725   7.666
 2676POPC   C1B35239  12.501   9.069   8.641
 2676POPC   C2B35240  12.217   8.920   8.320
 2676POPC   C3B35241  12.336   8.984   7.924
 2676POPC   C4B35242  12.699   9.277   7.800
 2677POPC   NC335243  40.859  16.853   9.533
 2677POPC   PO435244  40.288  16.477   9.395
 2677POPC   GL135245  40.649  16.582   9.136
 2677POPC   GL235246  40.999  16.454   9.199
 2677POPC   C1A35247  40.679  16.694   8.718
 2677POPC   D2A35248  40.564  16.576   8.287
 2677POPC   C3A35249  40.739  16.853   7.948
 2677POPC   C4A35250  40.573  16.881   7.519
 2677POPC   C1B35251  41.182  16.554   8.791
 2677POPC   C2B35252  41.050  16.706   8.371
 2677POPC   C3B35253  41.179  16.588   7.967
 2677POPC   C4B35254  41.103  16.780   7.571
 2678POPC   NC335255  22.675  19.997   9.602
 2678POPC   PO435256  23.318  19.573   9.527
 2678POPC   GL135257  23.167  19.836   9.161
 2678POPC   GL235258  22.804  19.864   9.134
 2678POPC   C1A35259  23.138  19.782   8.724
 2678POPC   D2A35260  23.045  19.497   8.382
 2678POPC   C3A35261  23.176  19.711   8.015
 2678POPC   C4A35262  22.968  19.991   7.748
 2678POPC   C1B35263  22.666  19.590   8.807
 2678POPC   C2B35264  22.555  19.724   8.404
 2678POPC   C3B35265  22.674  19.605   7.966
 2678POPC   C4B35266  22.714  19.645   7.490
 2679POPC   NC335267  33.462  11.199   9.540
 2679POPC   PO435268  33.971  11.682   9.504
 2679POPC   GL135269  33.750  11.559   9.092
 2679POPC   GL235270  33.734  11.200   9.112
 2679POPC   C1A35271  33.857  11.436   8.650
 2679POPC   D2A35272  34.113  11.088   8.434
 2679POPC   C3A35273  33.967  11.011   8.034
 2679POPC   C4A35274  33.998  11.273   7.671
 2679POPC   C1B35275  33.743  10.928   8.753
 2679POPC   C2B35276  33.577  11.050   8.368
 2679POPC   C3B35277  33.472  10.922   7.954
 2679POPC   C4B35278  33.749  10.827   7.558
 2680POPC   NC335279  21.789  20.025   9.548
 2680POPC   PO435280  22.353  19.662   9.689
 2680POPC   GL135281  22.270  19.858   9.294
 2680POPC   GL235282  21.962  19.654   9.244
 2680POPC   C1A35283  22.342  20.017   8.858
 2680POPC   D2A35284  22.041  19.954   8.500
 2680POPC   C3A35285  22.205  19.871   8.078
 2680POPC   C4A35286  22.514  20.095   7.892
 2680POPC   C1B35287  22.158  19.544   8.888
 2680POPC   C2B35288  22.115  19.448   8.513
 2680POPC   C3B35289  21.822  19.561   8.205
 2680POPC   C4B35290  21.910  19.570   7.788
 2681POPC   NC335291  38.831  33.470   9.561
 2681POPC   PO435292  38.323  33.957   9.532
 2681POPC   GL135293  38.492  33.754   9.194
 2681POPC   GL235294  38.429  33.393   9.237
 2681POPC   C1A35295  38.585  33.902   8.780
 2681POPC   D2A35296  38.496  34.165   8.409
 2681POPC   C3A35297  38.536  33.988   8.039
 2681POPC   C4A35298  38.737  34.023   7.661
 2681POPC   C1B35299  38.219  33.485   8.833
 2681POPC   C2B35300  38.295  33.301   8.416
 2681POPC   C3B35301  38.256  33.519   8.015
 2681POPC   C4B35302  38.565  33.557   7.703
 2682POPC   NC335303   9.566  33.692   9.437
 2682POPC   PO435304  10.231  34.046   9.460
 2682POPC   GL135305   9.913  33.974   9.169
 2682POPC   GL235306   9.974  33.666   9.010
 2682POPC   C1A35307   9.634  33.931   8.794
 2682POPC   D2A35308   9.840  33.787   8.413
 2682POPC   C3A35309   9.686  33.970   8.003
 2682POPC   C4A35310  10.064  34.090   7.748
 2682POPC   C1B35311   9.731  33.421   8.768
 2682POPC   C2B35312   9.812  33.189   8.425
 2682POPC   C3B35313   9.655  33.399   8.068
 2682POPC   C4B35314   9.883  33.590   7.748
 2683POPC   NC335315  23.283   9.402   9.497
 2683POPC   PO435316  22.801   8.904   9.716
 2683POPC   GL135317  22.894   9.065   9.246
 2683POPC   GL235318  23.178   9.184   9.055
 2683POPC   C1A35319  22.898   8.830   8.805
 2683POPC   D2A35320  22.996   8.940   8.362
 2683POPC   C3A35321  22.760   9.015   7.972
 2683POPC   C4A35322  23.092   8.904   7.657
 2683POPC   C1B35323  22.869   9.325   8.729
 2683POPC   C2B35324  23.060   9.458   8.364
 2683POPC   C3B35325  23.135   9.320   7.960
 2683POPC   C4B35326  22.846   9.337   7.576
 2684POPC   NC335327  11.253  30.521   9.448
 2684POPC   PO435328  11.412  29.818   9.457
 2684POPC   GL135329  11.337  30.012   9.095
 2684POPC   GL235330  11.565  30.265   9.071
 2684POPC   C1A35331  11.138  29.925   8.711
 2684POPC   D2A35332  11.360  29.807   8.319
 2684POPC   C3A35333  11.144  29.582   7.984
 2684POPC   C4A35334  11.049  29.842   7.663
 2684POPC   C1B35335  11.615  30.152   8.660
 2684POPC   C2B35336  11.675  30.371   8.283
 2684POPC   C3B35337  11.764  30.051   8.061
 2684POPC   C4B35338  11.553  29.901   7.732
 2685POPC   NC335339  36.901  21.459   9.581
 2685POPC   PO435340  37.144  20.852   9.470
 2685POPC   GL135341  36.970  21.171   9.136
 2685POPC   GL235342  36.749  21.500   9.106
 2685POPC   C1A35343  36.718  21.162   8.730
 2685POPC   D2A35344  36.676  21.411   8.354
 2685POPC   C3A35345  36.802  21.304   7.944
 2685POPC   C4A35346  37.029  21.236   7.507
 2685POPC   C1B35347  37.039  21.779   8.847
 2685POPC   C2B35348  37.145  21.994   8.439
 2685POPC   C3B35349  36.882  21.835   8.093
 2685POPC   C4B35350  36.804  21.720   7.670
 2686POPC   NC335351   6.080  31.226   9.488
 2686POPC   PO435352   5.612  31.641   9.631
 2686POPC   GL135353   5.857  31.584   9.204
 2686POPC   GL235354   5.957  31.283   9.018
 2686POPC   C1A35355   5.908  31.740   8.751
 2686POPC   D2A35356   6.199  31.786   8.389
 2686POPC   C3A35357   6.000  31.711   7.973
 2686POPC   C4A35358   5.909  31.582   7.544
 2686POPC   C1B35359   6.233  31.346   8.655
 2686POPC   C2B35360   6.266  31.297   8.199
 2686POPC   C3B35361   6.128  31.205   7.777
 2686POPC   C4B35362   5.759  31.108   7.511
 2687POPC   NC335363  30.423   7.275   9.539
 2687POPC   PO435364  31.101   7.093   9.567
 2687POPC   GL135365  30.881   7.373   9.209
 2687POPC   GL235366  30.556   7.298   9.064
 2687POPC   C1A35367  30.809   7.571   8.741
 2687POPC   D2A35368  30.719   7.425   8.318
 2687POPC   C3A35369  30.785   7.649   7.942
 2687POPC   C4A35370  30.631   7.673   7.520
 2687POPC   C1B35371  30.324   7.341   8.667
 2687POPC   C2B35372  30.196   7.416   8.231
 2687POPC   C3B35373  30.313   7.377   7.805
 2687POPC   C4B35374  30.447   7.153   7.433
 2688POPC   NC335375  23.592  27.494   9.547
 2688POPC   PO435376  24.068  28.022   9.590
 2688POPC   GL135377  23.811  27.843   9.198
 2688POPC   GL235378  23.755  27.456   9.086
 2688POPC   C1A35379  23.735  27.775   8.727
 2688POPC   D2A35380  23.788  27.461   8.429
 2688POPC   C3A35381  23.610  27.604   8.068
 2688POPC   C4A35382  23.810  27.530   7.719
 2688POPC   C1B35383  23.369  27.389   8.833
 2688POPC   C2B35384  23.248  27.442   8.394
 2688POPC   C3B35385  23.233  27.245   7.984
 2688POPC   C4B35386  23.424  27.223   7.607
 2689POPC   NC335387  10.466  24.814   9.363
 2689POPC   PO435388  10.718  24.292   9.439
 2689POPC   GL135389  10.634  24.460   9.019
 2689POPC   GL235390  10.261  24.495   8.991
 2689POPC   C1A35391  10.519  24.526   8.563
 2689POPC   D2A35392  10.204  24.750   8.361
 2689POPC   C3A35393  10.347  24.868   7.973
 2689POPC   C4A35394  10.748  24.708   7.824
 2689POPC   C1B35395  10.304  24.108   8.768
 2689POPC   C2B35396  10.502  24.031   8.387
 2689POPC   C3B35397  10.284  24.062   8.012
 2689POPC   C4B35398  10.328  24.410   7.748
 2690POPC   NC335399   2.058  43.509   9.332
 2690POPC   PO435400   1.686  42.980   9.580
 2690POPC   GL135401   1.765  43.113   9.168
 2690POPC   GL235402   1.555  43.415   9.166
 2690POPC   C1A35403   2.069  43.171   8.792
 2690POPC   D2A35404   2.304  42.978   8.490
 2690POPC   C3A35405   2.139  42.985   8.118
 2690POPC   C4A35406   2.222  43.183   7.714
 2690POPC   C1B35407   1.582  43.276   8.722
 2690POPC   C2B35408   1.681  43.134   8.348
 2690POPC   C3B35409   1.758  43.259   7.951
 2690POPC   C4B35410   1.797  42.850   7.779
 2691POPC   NC335411  28.805  31.920   9.316
 2691POPC   PO435412  29.159  31.420   9.595
 2691POPC   GL135413  29.164  31.561   9.177
 2691POPC   GL235414  28.855  31.419   9.146
 2691POPC   C1A35415  29.108  31.588   8.718
 2691POPC   D2A35416  29.148  31.245   8.426
 2691POPC   C3A35417  28.960  31.211   8.014
 2691POPC   C4A35418  29.267  31.327   7.681
 2691POPC   C1B35419  28.619  31.380   8.793
 2691POPC   C2B35420  28.666  31.635   8.442
 2691POPC   C3B35421  28.955  31.721   8.120
 2691POPC   C4B35422  28.855  31.628   7.690
 2692POPC   NC335423  42.000  15.470   9.429
 2692POPC   PO435424  41.530  14.973   9.554
 2692POPC   GL135425  41.533  15.215   9.179
 2692POPC   GL235426  41.182  15.251   9.174
 2692POPC   C1A35427  41.578  15.338   8.753
 2692POPC   D2A35428  41.835  15.161   8.426
 2692POPC   C3A35429  41.615  15.207   8.079
 2692POPC   C4A35430  41.633  15.485   7.758
 2692POPC   C1B35431  41.122  15.055   8.774
 2692POPC   C2B35432  41.152  15.224   8.361
 2692POPC   C3B35433  41.168  14.985   7.999
 2692POPC   C4B35434  41.239  14.905   7.599
 2693POPC   NC335435  26.428   1.613   9.536
 2693POPC   PO435436  25.990   2.093   9.749
 2693POPC   GL135437  26.070   2.002   9.238
 2693POPC   GL235438  25.855   1.875   9.028
 2693POPC   C1A35439  26.312   2.021   8.797
 2693POPC   D2A35440  26.151   1.913   8.376
 2693POPC   C3A35441  26.208   2.122   7.974
 2693POPC   C4A35442  26.051   1.973   7.549
 2693POPC   C1B35443  25.829   2.191   8.700
 2693POPC   C2B35444  25.653   2.040   8.356
 2693POPC   C3B35445  25.769   1.883   7.985
 2693POPC   C4B35446  25.714   2.287   7.742
 2694POPC   NC335447  14.583  21.052   9.462
 2694POPC   PO435448  14.152  21.482   9.710
 2694POPC   GL135449  14.131  21.503   9.267
 2694POPC   GL235450  14.231  21.186   9.117
 2694POPC   C1A35451  14.130  21.548   8.824
 2694POPC   D2A35452  14.216  21.309   8.464
 2694POPC   C3A35453  14.082  21.411   8.067
 2694POPC   C4A35454  14.145  21.130   7.778
 2694POPC   C1B35455  14.551  21.080   8.795
 2694POPC   C2B35456  14.660  20.971   8.353
 2694POPC   C3B35457  14.649  21.197   7.939
 2694POPC   C4B35458  14.475  21.574   7.722
 2695POPC   NC335459  30.998  17.266   9.534
 2695POPC   PO435460  30.478  17.693   9.445
 2695POPC   GL135461  30.752  17.533   9.141
 2695POPC   GL235462  31.075  17.687   9.061
 2695POPC   C1A35463  30.605  17.405   8.755
 2695POPC   D2A35464  30.502  17.619   8.385
 2695POPC   C3A35465  30.529  17.420   8.030
 2695POPC   C4A35466  30.823  17.329   7.756
 2695POPC   C1B35467  31.027  17.641   8.625
 2695POPC   C2B35468  30.967  17.391   8.282
 2695POPC   C3B35469  31.174  17.632   7.974
 2695POPC   C4B35470  31.205  17.901   7.628
 2696POPC   NC335471   8.974   5.510   9.371
 2696POPC   PO435472   9.294   6.050   9.223
 2696POPC   GL135473   8.888   6.041   9.012
 2696POPC   GL235474   8.783   5.686   8.935
 2696POPC   C1A35475   8.822   6.083   8.567
 2696POPC   D2A35476   8.893   5.777   8.278
 2696POPC   C3A35477   8.985   5.867   7.894
 2696POPC   C4A35478   8.778   6.191   7.639
 2696POPC   C1B35479   9.167   5.681   8.705
 2696POPC   C2B35480   9.408   5.759   8.357
 2696POPC   C3B35481   9.365   5.467   8.056
 2696POPC   C4B35482   9.123   5.384   7.721
 2697POPC   NC335483  28.118  21.307   9.486
 2697POPC   PO435484  28.772  21.328   9.482
 2697POPC   GL135485  28.504  21.318   9.141
 2697POPC   GL235486  28.359  21.639   9.057
 2697POPC   C1A35487  28.623  21.313   8.726
 2697POPC   D2A35488  28.774  21.518   8.406
 2697POPC   C3A35489  28.423  21.576   8.180
 2697POPC   C4A35490  28.304  21.572   7.761
 2697POPC   C1B35491  28.106  21.374   8.807
 2697POPC   C2B35492  28.179  21.180   8.440
 2697POPC   C3B35493  28.073  21.215   8.047
 2697POPC   C4B35494  28.226  21.065   7.656
 2698POPC   NC335495   6.296  19.034   9.580
 2698POPC   PO435496   5.772  19.289   9.494
 2698POPC   GL135497   5.874  19.023   9.187
 2698POPC   GL235498   6.165  19.243   9.127
 2698POPC   C1A35499   5.604  18.840   8.851
 2698POPC   D2A35500   5.648  18.962   8.432
 2698POPC   C3A35501   5.485  18.791   8.076
 2698POPC   C4A35502   5.386  18.987   7.734
 2698POPC   C1B35503   5.976  19.229   8.724
 2698POPC   C2B35504   6.129  19.104   8.316
 2698POPC   C3B35505   5.973  19.222   7.923
 2698POPC   C4B35506   6.162  19.110   7.512
 2699POPC   NC335507  39.650  19.244   9.345
 2699POPC   PO435508  40.000  18.716   9.689
 2699POPC   GL135509  40.045  18.955   9.265
 2699POPC   GL235510  39.745  18.757   9.143
 2699POPC   C1A35511  40.273  18.959   8.827
 2699POPC   D2A35512  40.276  19.273   8.534
 2699POPC   C3A35513  40.091  19.177   8.146
 2699POPC   C4A35514  40.026  19.161   7.737
 2699POPC   C1B35515  39.766  19.004   8.753
 2699POPC   C2B35516  39.888  18.793   8.404
 2699POPC   C3B35517  39.757  18.791   7.980
 2699POPC   C4B35518  39.986  18.675   7.647
 2700POPC   NC335519  40.951  17.787   9.509
 2700POPC   PO435520  40.545  17.213   9.545
 2700POPC   GL135521  40.788  17.240   9.173
 2700POPC   GL235522  40.901  17.568   9.064
 2700POPC   C1A35523  40.723  17.208   8.737
 2700POPC   D2A35524  40.646  17.209   8.324
 2700POPC   C3A35525  40.842  17.501   8.069
 2700POPC   C4A35526  40.803  17.313   7.684
 2700POPC   C1B35527  40.845  17.725   8.668
 2700POPC   C2B35528  40.518  17.736   8.404
 2700POPC   C3B35529  40.503  17.913   8.007
 2700POPC   C4B35530  40.788  17.826   7.669
 2701POPC   NC335531  30.980  25.856   9.724
 2701POPC   PO435532  30.436  26.216   9.778
 2701POPC   GL135533  30.682  25.926   9.335
 2701POPC   GL235534  31.078  25.921   9.232
 2701POPC   C1A35535  30.781  25.915   8.833
 2701POPC   D2A35536  30.709  25.943   8.392
 2701POPC   C3A35537  30.413  26.096   8.093
 2701POPC   C4A35538  30.533  26.104   7.679
 2701POPC   C1B35539  31.189  26.204   8.857
 2701POPC   C2B35540  31.078  26.280   8.403
 2701POPC   C3B35541  31.001  26.115   7.986
 2701POPC   C4B35542  31.018  26.229   7.554
 2702POPC   NC335543   8.661  18.342   9.544
 2702POPC   PO435544   8.161  18.804   9.517
 2702POPC   GL135545   8.184  18.415   9.238
 2702POPC   GL235546   8.302  18.045   9.303
 2702POPC   C1A35547   8.293  18.234   8.841
 2702POPC   D2A35548   8.443  18.242   8.461
 2702POPC   C3A35549   8.326  18.501   8.172
 2702POPC   C4A35550   8.185  18.503   7.764
 2702POPC   C1B35551   8.053  17.808   8.973
 2702POPC   C2B35552   7.985  17.907   8.535
 2702POPC   C3B35553   8.089  18.047   8.107
 2702POPC   C4B35554   8.011  17.906   7.683
 2703POPC   NC335555  33.741   9.439   9.512
 2703POPC   PO435556  33.587  10.068   9.467
 2703POPC   GL135557  33.772   9.828   9.120
 2703POPC   GL235558  33.510   9.552   9.087
 2703POPC   C1A35559  34.037   9.881   8.717
 2703POPC   D2A35560  33.994  10.078   8.274
 2703POPC   C3A35561  34.151   9.819   7.919
 2703POPC   C4A35562  34.057   9.424   7.638
 2703POPC   C1B35563  33.481   9.728   8.689
 2703POPC   C2B35564  33.723   9.536   8.362
 2703POPC   C3B35565  33.690   9.567   7.940
 2703POPC   C4B35566  33.669   9.996   7.847
 2704POPC   NC335567  32.831  21.208   9.583
 2704POPC   PO435568  33.365  21.632   9.443
 2704POPC   GL135569  33.100  21.451   9.149
 2704POPC   GL235570  33.191  21.158   9.143
 2704POPC   C1A35571  33.195  21.346   8.686
 2704POPC   D2A35572  33.379  21.289   8.287
 2704POPC   C3A35573  33.160  21.499   7.949
 2704POPC   C4A35574  33.141  21.475   7.469
 2704POPC   C1B35575  32.790  21.093   8.851
 2704POPC   C2B35576  32.671  20.939   8.433
 2704POPC   C3B35577  32.947  20.996   8.087
 2704POPC   C4B35578  32.931  21.072   7.688
 2705POPC   NC335579  41.915  37.831   9.391
 2705POPC   PO435580  42.446  37.433   9.477
 2705POPC   GL135581  42.327  37.589   9.123
 2705POPC   GL235582  42.023  37.431   9.071
 2705POPC   C1A35583  42.480  37.479   8.741
 2705POPC   D2A35584  42.553  37.709   8.376
 2705POPC   C3A35585  42.484  37.509   8.023
 2705POPC   C4A35586  42.561  37.673   7.625
 2705POPC   C1B35587  42.043  37.732   8.702
 2705POPC   C2B35588  42.048  37.777   8.254
 2705POPC   C3B35589  42.038  37.709   7.821
 2705POPC   C4B35590  41.756  37.891   7.548
 2706POPC   NC335591  12.261   7.125   9.178
 2706POPC   PO435592  11.812   6.707   9.488
 2706POPC   GL135593  11.981   6.660   9.116
 2706POPC   GL235594  12.212   6.401   9.190
 2706POPC   C1A35595  11.912   6.823   8.691
 2706POPC   D2A35596  11.863   7.038   8.288
 2706POPC   C3A35597  12.025   6.770   7.968
 2706POPC   C4A35598  11.905   6.710   7.533
 2706POPC   C1B35599  12.181   6.362   8.766
 2706POPC   C2B35600  12.245   6.539   8.386
 2706POPC   C3B35601  12.341   6.367   8.030
 2706POPC   C4B35602  12.365   6.524   7.654
 2707POPC   NC335603  36.415  44.406   9.395
 2707POPC   PO435604  36.028  44.917   9.537
 2707POPC   GL135605  36.281  44.867   9.190
 2707POPC   GL235606  36.623  44.938   9.264
 2707POPC   C1A35607  36.183  44.666   8.788
 2707POPC   D2A35608  35.895  44.786   8.430
 2707POPC   C3A35609  36.074  44.737   8.013
 2707POPC   C4A35610  35.903  44.659   7.596
 2707POPC   C1B35611  36.606  44.975   8.815
 2707POPC   C2B35612  36.391  44.920   8.401
 2707POPC   C3B35613  36.593  44.847   7.990
 2707POPC   C4B35614  36.400  44.779   7.568
 2708POPC   NC335615  29.307   4.652   9.567
 2708POPC   PO435616  28.878   4.051   9.466
 2708POPC   GL135617  28.968   4.368   9.143
 2708POPC   GL235618  29.304   4.448   9.053
 2708POPC   C1A35619  28.907   4.263   8.710
 2708POPC   D2A35620  28.821   4.252   8.246
 2708POPC   C3A35621  29.034   4.491   7.931
 2708POPC   C4A35622  29.001   4.119   7.703
 2708POPC   C1B35623  29.249   4.612   8.594
 2708POPC   C2B35624  29.355   4.281   8.286
 2708POPC   C3B35625  29.519   4.141   7.868
 2708POPC   C4B35626  29.454   4.166   7.392
 2709POPC   NC335627  32.322   3.928   9.467
 2709POPC   PO435628  31.885   3.492   9.422
 2709POPC   GL135629  32.134   3.631   9.074
 2709POPC   GL235630  32.003   3.973   9.064
 2709POPC   C1A35631  32.365   3.508   8.687
 2709POPC   D2A35632  32.658   3.343   8.379
 2709POPC   C3A35633  32.511   3.471   7.976
 2709POPC   C4A35634  32.089   3.463   7.783
 2709POPC   C1B35635  32.346   4.016   8.763
 2709POPC   C2B35636  32.296   4.044   8.321
 2709POPC   C3B35637  32.305   3.929   7.890
 2709POPC   C4B35638  32.657   3.904   7.616
 2710POPC   NC335639   3.877  32.572   9.243
 2710POPC   PO435640   3.703  32.211   9.770
 2710POPC   GL135641   3.786  32.036   9.342
 2710POPC   GL235642   3.479  32.187   9.264
 2710POPC   C1A35643   3.856  32.045   8.870
 2710POPC   D2A35644   3.783  32.427   8.576
 2710POPC   C3A35645   3.745  32.312   8.135
 2710POPC   C4A35646   3.783  32.058   7.774
 2710POPC   C1B35647   3.365  32.268   8.848
 2710POPC   C2B35648   3.279  32.351   8.425
 2710POPC   C3B35649   3.355  32.655   8.108
 2710POPC   C4B35650   3.414  32.472   7.734
 2711POPC   NC335651  20.989   3.052   9.527
 2711POPC   PO435652  20.637   3.681   9.564
 2711POPC   GL135653  20.663   3.686   9.147
 2711POPC   GL235654  20.768   3.362   9.167
 2711POPC   C1A35655  20.584   3.751   8.709
 2711POPC   D2A35656  20.526   4.068   8.373
 2711POPC   C3A35657  20.723   3.995   7.979
 2711POPC   C4A35658  20.548   3.710   7.679
 2711POPC   C1B35659  20.767   3.240   8.742
 2711POPC   C2B35660  20.637   3.373   8.326
 2711POPC   C3B35661  20.505   3.246   7.908
 2711POPC   C4B35662  20.765   3.262   7.594
 2712POPC   NC335663  21.151   8.016   9.440
 2712POPC   PO435664  21.269   8.667   9.431
 2712POPC   GL135665  21.466   8.318   9.161
 2712POPC   GL235666  21.769   8.088   9.112
 2712POPC   C1A35667  21.367   8.272   8.733
 2712POPC   D2A35668  21.102   8.461   8.431
 2712POPC   C3A35669  21.114   8.278   8.038
 2712POPC   C4A35670  21.459   8.319   7.772
 2712POPC   C1B35671  21.771   7.965   8.659
 2712POPC   C2B35672  21.588   8.071   8.225
 2712POPC   C3B35673  21.572   7.836   7.813
 2712POPC   C4B35674  21.414   7.600   7.454
 2713POPC   NC335675  15.038  10.888   9.886
 2713POPC   PO435676  15.201  10.350   9.484
 2713POPC   GL135677  15.409  10.366   9.127
 2713POPC   GL235678  15.476  10.728   9.201
 2713POPC   C1A35679  15.256  10.233   8.680
 2713POPC   D2A35680  14.962  10.495   8.394
 2713POPC   C3A35681  15.077  10.410   7.976
 2713POPC   C4A35682  15.493  10.420   7.776
 2713POPC   C1B35683  15.279  10.712   8.782
 2713POPC   C2B35684  15.479  10.653   8.371
 2713POPC   C3B35685  15.336  10.855   7.988
 2713POPC   C4B35686  14.895  10.896   7.880
 2714POPC   NC335687  12.853  39.804   9.533
 2714POPC   PO435688  13.300  40.345   9.488
 2714POPC   GL135689  12.945  40.246   9.191
 2714POPC   GL235690  12.969  39.887   9.070
 2714POPC   C1A35691  12.902  40.251   8.732
 2714POPC   D2A35692  13.124  40.147   8.354
 2714POPC   C3A35693  12.964  40.267   7.947
 2714POPC   C4A35694  13.073  40.147   7.510
 2714POPC   C1B35695  12.591  39.856   8.847
 2714POPC   C2B35696  12.723  39.806   8.435
 2714POPC   C3B35697  12.942  39.725   8.078
 2714POPC   C4B35698  12.719  39.866   7.747
 2715POPC   NC335699  25.133  40.586   9.422
 2715POPC   PO435700  25.355  41.223   9.428
 2715POPC   GL135701  25.477  40.933   9.125
 2715POPC   GL235702  25.130  40.888   9.012
 2715POPC   C1A35703  25.492  40.971   8.672
 2715POPC   D2A35704  25.181  41.060   8.359
 2715POPC   C3A35705  25.309  40.844   7.971
 2715POPC   C4A35706  25.375  40.992   7.538
 2715POPC   C1B35707  25.192  40.568   8.678
 2715POPC   C2B35708  24.977  40.581   8.287
 2715POPC   C3B35709  25.041  40.399   7.928
 2715POPC   C4B35710  25.156  40.527   7.579
 2716POPC   NC335711  42.810  42.164   9.559
 2716POPC   PO435712  43.376  42.411   9.564
 2716POPC   GL135713  43.208  42.527   9.146
 2716POPC   GL235714  42.844  42.604   9.208
 2716POPC   C1A35715  43.303  42.606   8.708
 2716POPC   D2A35716  43.175  42.275   8.431
 2716POPC   C3A35717  43.269  42.303   8.017
 2716POPC   C4A35718  43.497  42.289   7.649
 2716POPC   C1B35719  42.842  42.315   8.851
 2716POPC   C2B35720  42.657  42.335   8.452
 2716POPC   C3B35721  42.756  42.285   8.043
 2716POPC   C4B35722  42.942  42.257   7.622
 2717POPC   NC335723  16.524  11.530   9.558
 2717POPC   PO435724  16.744  10.880   9.538
 2717POPC   GL135725  16.761  11.190   9.207
 2717POPC   GL235726  16.434  11.292   9.107
 2717POPC   C1A35727  16.887  11.163   8.760
 2717POPC   D2A35728  16.665  11.147   8.382
 2717POPC   C3A35729  16.899  11.103   8.024
 2717POPC   C4A35730  16.633  11.162   7.722
 2717POPC   C1B35731  16.538  11.531   8.756
 2717POPC   C2B35732  16.673  11.667   8.352
 2717POPC   C3B35733  16.504  11.594   7.943
 2717POPC   C4B35734  16.558  11.595   7.471
 2718POPC   NC335735  18.812  21.186   9.252
 2718POPC   PO435736  19.262  21.537   9.649
 2718POPC   GL135737  19.180  21.514   9.130
 2718POPC   GL235738  19.212  21.174   8.914
 2718POPC   C1A35739  18.963  21.492   8.655
 2718POPC   D2A35740  19.284  21.354   8.352
 2718POPC   C3A35741  19.250  21.491   7.927
 2718POPC   C4A35742  18.891  21.395   7.649
 2718POPC   C1B35743  18.941  20.880   8.687
 2718POPC   C2B35744  18.744  20.914   8.335
 2718POPC   C3B35745  18.976  21.070   8.040
 2718POPC   C4B35746  19.095  20.893   7.695
 2719POPC   NC335747  10.110  28.095   9.416
 2719POPC   PO435748   9.649  28.586   9.480
 2719POPC   GL135749   9.630  28.341   9.139
 2719POPC   GL235750   9.956  28.421   9.047
 2719POPC   C1A35751   9.583  28.450   8.715
 2719POPC   D2A35752   9.607  28.268   8.341
 2719POPC   C3A35753   9.556  28.515   7.995
 2719POPC   C4A35754   9.616  28.215   7.669
 2719POPC   C1B35755  10.053  28.230   8.614
 2719POPC   C2B35756  10.067  28.247   8.154
 2719POPC   C3B35757  10.032  28.455   7.786
 2719POPC   C4B35758   9.870  28.643   7.426
 2720POPC   NC335759  24.314  42.126   9.435
 2720POPC   PO435760  24.723  42.627   9.460
 2720POPC   GL135761  24.619  42.604   9.086
 2720POPC   GL235762  24.240  42.551   9.160
 2720POPC   C1A35763  24.818  42.455   8.699
 2720POPC   D2A35764  24.605  42.425   8.288
 2720POPC   C3A35765  24.787  42.370   7.892
 2720POPC   C4A35766  24.592  42.165   7.565
 2720POPC   C1B35767  24.312  42.417   8.739
 2720POPC   C2B35768  24.139  42.242   8.385
 2720POPC   C3B35769  24.271  42.137   7.994
 2720POPC   C4B35770  24.250  42.482   7.780
 2721POPC   NC335771  13.209  38.951   9.913
 2721POPC   PO435772  12.651  39.271   9.552
 2721POPC   GL135773  12.759  39.421   9.155
 2721POPC   GL235774  12.783  39.075   8.991
 2721POPC   C1A35775  12.956  39.479   8.752
 2721POPC   D2A35776  12.796  39.300   8.389
 2721POPC   C3A35777  13.055  39.220   8.051
 2721POPC   C4A35778  12.916  39.357   7.686
 2721POPC   C1B35779  12.557  38.891   8.686
 2721POPC   C2B35780  12.383  39.004   8.346
 2721POPC   C3B35781  12.614  38.970   8.019
 2721POPC   C4B35782  12.534  39.010   7.639
 2722POPC   NC335783  15.295  39.080   9.594
 2722POPC   PO435784  15.092  39.645   9.328
 2722POPC   GL135785  15.375  39.367   9.170
 2722POPC   GL235786  15.118  39.098   9.115
 2722POPC   C1A35787  15.388  39.345   8.745
 2722POPC   D2A35788  15.138  39.383   8.390
 2722POPC   C3A35789  15.252  39.109   8.066
 2722POPC   C4A35790  15.293  39.298   7.676
 2722POPC   C1B35791  15.016  38.960   8.696
 2722POPC   C2B35792  14.778  39.027   8.290
 2722POPC   C3B35793  14.827  39.342   7.938
 2722POPC   C4B35794  14.793  39.224   7.471
 2723POPC   NC335795  33.146   3.946   9.335
 2723POPC   PO435796  32.642   3.495   9.444
 2723POPC   GL135797  32.712   3.422   9.046
 2723POPC   GL235798  32.958   3.680   8.942
 2723POPC   C1A35799  32.967   3.194   8.765
 2723POPC   D2A35800  33.173   3.478   8.507
 2723POPC   C3A35801  33.084   3.536   8.101
 2723POPC   C4A35802  33.267   3.268   7.846
 2723POPC   C1B35803  33.288   3.933   8.702
 2723POPC   C2B35804  33.475   3.880   8.310
 2723POPC   C3B35805  33.353   3.994   7.939
 2723POPC   C4B35806  33.185   3.819   7.632
 2724POPC   NC335807  32.158   9.099   9.399
 2724POPC   PO435808  32.654   8.654   9.433
 2724POPC   GL135809  32.425   8.830   9.087
 2724POPC   GL235810  32.558   9.202   9.090
 2724POPC   C1A35811  32.174   8.841   8.707
 2724POPC   D2A35812  32.087   9.063   8.310
 2724POPC   C3A35813  32.161   8.734   8.043
 2724POPC   C4A35814  32.017   8.559   7.663
 2724POPC   C1B35815  32.364   9.311   8.718
 2724POPC   C2B35816  32.586   9.240   8.334
 2724POPC   C3B35817  32.439   9.222   7.924
 2724POPC   C4B35818  32.091   9.082   7.681
 2725POPC   NC335819  44.500  33.754   9.549
 2725POPC   PO435820  44.981  34.154   9.581
 2725POPC   GL135821  44.884  33.802   9.219
 2725POPC   GL235822  44.500  33.742   9.057
 2725POPC   C1A35823  44.905  33.618   8.774
 2725POPC   D2A35824  44.771  33.410   8.356
 2725POPC   C3A35825  44.957  33.601   7.975
 2725POPC   C4A35826  44.907  33.496   7.537
 2725POPC   C1B35827  44.256  34.110   8.895
 2725POPC   C2B35828  44.320  34.214   8.459
 2725POPC   C3B35829  44.486  33.898   8.176
 2725POPC   C4B35830  44.553  33.844   7.757
 2726POPC   NC335831   7.181  35.983   9.590
 2726POPC   PO435832   7.782  36.228   9.643
 2726POPC   GL135833   7.541  36.214   9.216
 2726POPC   GL235834   7.588  35.915   9.136
 2726POPC   C1A35835   7.504  36.153   8.706
 2726POPC   D2A35836   7.607  35.909   8.324
 2726POPC   C3A35837   7.540  36.156   7.977
 2726POPC   C4A35838   7.620  36.497   7.773
 2726POPC   C1B35839   7.151  35.894   8.944
 2726POPC   C2B35840   7.118  35.860   8.507
 2726POPC   C3B35841   7.085  35.977   8.116
 2726POPC   C4B35842   7.039  36.138   7.742
 2727POPC   NC335843   5.824  43.778   9.644
 2727POPC   PO435844   6.044  44.438   9.555
 2727POPC   GL135845   5.835  44.148   9.243
 2727POPC   GL235846   5.839  43.756   9.139
 2727POPC   C1A35847   5.895  44.123   8.803
 2727POPC   D2A35848   6.001  43.955   8.403
 2727POPC   C3A35849   5.717  43.879   8.088
 2727POPC   C4A35850   5.900  44.042   7.753
 2727POPC   C1B35851   5.861  43.557   8.706
 2727POPC   C2B35852   6.083  43.416   8.303
 2727POPC   C3B35853   6.085  43.524   7.856
 2727POPC   C4B35854   5.772  43.602   7.541
 2728POPC   NC335855  24.142   5.877   9.398
 2728POPC   PO435856  24.605   5.477   9.565
 2728POPC   GL135857  24.555   5.708   9.168
 2728POPC   GL235858  24.803   5.943   9.240
 2728POPC   C1A35859  24.294   5.892   8.764
 2728POPC   D2A35860  24.383   5.695   8.355
 2728POPC   C3A35861  24.400   5.958   8.007
 2728POPC   C4A35862  24.436   5.986   7.542
 2728POPC   C1B35863  24.802   5.933   8.790
 2728POPC   C2B35864  24.721   6.102   8.409
 2728POPC   C3B35865  24.910   6.078   8.061
 2728POPC   C4B35866  24.822   5.759   7.786
 2729POPC   NC335867   8.100   9.251   9.581
 2729POPC   PO435868   8.178   8.541   9.601
 2729POPC   GL135869   8.122   8.715   9.188
 2729POPC   GL235870   8.040   9.061   9.119
 2729POPC   C1A35871   8.197   8.711   8.755
 2729POPC   D2A35872   8.131   8.947   8.388
 2729POPC   C3A35873   8.211   8.768   8.003
 2729POPC   C4A35874   8.363   8.767   7.600
 2729POPC   C1B35875   8.277   9.294   8.794
 2729POPC   C2B35876   8.235   9.451   8.382
 2729POPC   C3B35877   8.010   9.316   8.014
 2729POPC   C4B35878   8.386   9.223   7.816
 2730POPC   NC335879  40.099   3.130   9.640
 2730POPC   PO435880  39.732   2.708   9.437
 2730POPC   GL135881  39.842   2.848   9.065
 2730POPC   GL235882  40.186   2.824   9.150
 2730POPC   C1A35883  39.703   2.773   8.664
 2730POPC   D2A35884  39.847   2.629   8.294
 2730POPC   C3A35885  39.752   2.905   8.021
 2730POPC   C4A35886  39.907   2.776   7.677
 2730POPC   C1B35887  40.231   3.055   8.764
 2730POPC   C2B35888  40.099   3.149   8.342
 2730POPC   C3B35889  40.250   3.036   7.917
 2730POPC   C4B35890  40.260   3.060   7.451
 2731POPC   NC335891   9.507  10.895   9.588
 2731POPC   PO435892   9.810  11.516   9.445
 2731POPC   GL135893   9.534  11.412   9.151
 2731POPC   GL235894   9.603  11.097   9.131
 2731POPC   C1A35895   9.442  11.390   8.714
 2731POPC   D2A35896   9.721  11.327   8.350
 2731POPC   C3A35897   9.537  11.309   7.938
 2731POPC   C4A35898   9.681  11.331   7.517
 2731POPC   C1B35899   9.921  11.224   8.841
 2731POPC   C2B35900  10.190  11.122   8.509
 2731POPC   C3B35901  10.233  11.255   8.091
 2731POPC   C4B35902  10.116  11.160   7.690
 2732POPC   NC335903   9.528  39.204   9.750
 2732POPC   PO435904  10.136  39.445   9.640
 2732POPC   GL135905   9.861  39.216   9.309
 2732POPC   GL235906   9.535  39.357   9.265
 2732POPC   C1A35907   9.656  38.992   8.925
 2732POPC   D2A35908   9.488  39.089   8.499
 2732POPC   C3A35909   9.674  38.934   8.090
 2732POPC   C4A35910   9.649  39.064   7.691
 2732POPC   C1B35911   9.520  39.502   8.847
 2732POPC   C2B35912   9.676  39.647   8.475
 2732POPC   C3B35913   9.618  39.450   8.086
 2732POPC   C4B35914   9.734  39.581   7.685
 2733POPC   NC335915  24.064   7.626   9.754
 2733POPC   PO435916  24.476   7.091   9.622
 2733POPC   GL135917  24.416   7.278   9.194
 2733POPC   GL235918  24.367   7.646   9.186
 2733POPC   C1A35919  24.629   7.409   8.788
 2733POPC   D2A35920  24.782   7.239   8.402
 2733POPC   C3A35921  24.736   7.447   8.013
 2733POPC   C4A35922  24.649   7.271   7.609
 2733POPC   C1B35923  24.232   7.713   8.728
 2733POPC   C2B35924  24.342   7.537   8.326
 2733POPC   C3B35925  24.317   7.731   7.894
 2733POPC   C4B35926  24.315   7.610   7.448
 2734POPC   NC335927  16.838  44.188   9.336
 2734POPC   PO435928  16.408  43.740   9.396
 2734POPC   GL135929  16.767  43.709   9.135
 2734POPC   GL235930  16.710  44.001   8.893
 2734POPC   C1A35931  16.881  43.577   8.718
 2734POPC   D2A35932  16.627  43.798   8.397
 2734POPC   C3A35933  16.764  43.873   7.985
 2734POPC   C4A35934  16.788  43.652   7.578
 2734POPC   C1B35935  17.037  44.052   8.571
 2734POPC   C2B35936  17.092  44.448   8.365
 2734POPC   C3B35937  16.976  44.466   7.945
 2734POPC   C4B35938  17.056  44.125   7.645
 2735POPC   NC335939  22.054  33.096   9.655
 2735POPC   PO435940  21.761  33.452   9.084
 2735POPC   GL135941  22.127  33.171   9.140
 2735POPC   GL235942  22.090  32.811   9.198
 2735POPC   C1A35943  22.340  33.078   8.756
 2735POPC   D2A35944  22.233  32.886   8.340
 2735POPC   C3A35945  22.083  33.170   8.021
 2735POPC   C4A35946  22.263  33.174   7.615
 2735POPC   C1B35947  21.907  32.775   8.763
 2735POPC   C2B35948  21.717  32.841   8.320
 2735POPC   C3B35949  21.928  32.655   7.960
 2735POPC   C4B35950  22.144  32.674   7.561
 2736POPC   NC335951  39.607  29.124   9.517
 2736POPC   PO435952  40.277  29.263   9.489
 2736POPC   GL135953  40.177  29.109   9.088
 2736POPC   GL235954  39.839  28.979   9.084
 2736POPC   C1A35955  40.070  29.166   8.666
 2736POPC   D2A35956  39.792  29.054   8.350
 2736POPC   C3A35957  39.938  29.232   7.957
 2736POPC   C4A35958  40.372  29.138   7.852
 2736POPC   C1B35959  39.760  28.702   8.733
 2736POPC   C2B35960  39.911  28.545   8.333
 2736POPC   C3B35961  40.037  28.727   7.949
 2736POPC   C4B35962  39.806  28.888   7.601
 2737POPC   NC335963  11.041  23.967   9.407
 2737POPC   PO435964  11.521  23.510   9.559
 2737POPC   GL135965  11.354  23.625   9.144
 2737POPC   GL235966  11.019  23.638   9.028
 2737POPC   C1A35967  11.396  23.819   8.729
 2737POPC   D2A35968  11.535  23.992   8.360
 2737POPC   C3A35969  11.259  24.004   7.994
 2737POPC   C4A35970  11.280  23.780   7.611
 2737POPC   C1B35971  11.142  23.374   8.736
 2737POPC   C2B35972  11.305  23.427   8.365
 2737POPC   C3B35973  11.132  23.469   7.987
 2737POPC   C4B35974  11.189  23.272   7.600
 2738POPC   NC335975  18.989  40.168   9.664
 2738POPC   PO435976  19.235  39.611   9.603
 2738POPC   GL135977  19.066  39.863   9.237
 2738POPC   GL235978  18.914  40.175   9.120
 2738POPC   C1A35979  19.015  39.837   8.772
 2738POPC   D2A35980  19.151  40.131   8.430
 2738POPC   C3A35981  19.136  39.938   8.043
 2738POPC   C4A35982  19.152  40.106   7.657
 2738POPC   C1B35983  18.721  40.285   8.674
 2738POPC   C2B35984  18.692  40.298   8.175
 2738POPC   C3B35985  18.663  40.326   7.731
 2738POPC   C4B35986  18.723  40.167   7.303
 2739POPC   NC335987   6.432  21.061   9.299
 2739POPC   PO435988   6.852  20.612   9.643
 2739POPC   GL135989   6.780  20.617   9.199
 2739POPC   GL235990   6.460  20.500   9.211
 2739POPC   C1A35991   6.788  20.725   8.721
 2739POPC   D2A35992   7.091  20.828   8.350
 2739POPC   C3A35993   6.923  20.822   7.913
 2739POPC   C4A35994   6.539  20.584   7.765
 2739POPC   C1B35995   6.696  20.232   8.901
 2739POPC   C2B35996   6.940  20.239   8.540
 2739POPC   C3B35997   6.787  20.404   8.178
 2739POPC   C4B35998   6.919  20.266   7.754
 2740POPC   NC335999  12.504   9.822   9.346
 2740POPC   PO436000  12.998   9.549   9.718
 2740POPC   GL136001  12.980   9.658   9.235
 2740POPC   GL236002  13.252   9.454   9.129
 2740POPC   C1A36003  12.818   9.675   8.783
 2740POPC   D2A36004  12.941   9.621   8.342
 2740POPC   C3A36005  12.765   9.822   7.988
 2740POPC   C4A36006  12.549   9.758   7.626
 2740POPC   C1B36007  13.237   9.339   8.699
 2740POPC   C2B36008  13.409   9.446   8.303
 2740POPC   C3B36009  13.213   9.372   7.914
 2740POPC   C4B36010  13.091   9.644   7.595
 2741POPC   NC336011  12.296   2.598   9.905
 2741POPC   PO436012  11.998   2.899   9.362
 2741POPC   GL136013  12.043   2.619   9.026
 2741POPC   GL236014  12.396   2.576   8.865
 2741POPC   C1A36015  11.844   2.568   8.631
 2741POPC   D2A36016  11.760   2.316   8.272
 2741POPC   C3A36017  11.988   2.607   7.979
 2741POPC   C4A36018  11.942   3.027   7.774
 2741POPC   C1B36019  12.187   2.971   8.707
 2741POPC   C2B36020  11.977   3.035   8.322
 2741POPC   C3B36021  12.320   3.143   8.072
 2741POPC   C4B36022  12.487   3.024   7.686
 2742POPC   NC336023  19.283  41.776   9.421
 2742POPC   PO436024  18.579  41.567   9.552
 2742POPC   GL136025  18.850  41.592   9.171
 2742POPC   GL236026  19.038  41.278   9.164
 2742POPC   C1A36027  19.177  41.638   8.786
 2742POPC   D2A36028  19.306  41.800   8.365
 2742POPC   C3A36029  19.330  41.495   8.011
 2742POPC   C4A36030  19.156  41.441   7.582
 2742POPC   C1B36031  18.805  41.305   8.763
 2742POPC   C2B36032  18.843  41.543   8.342
 2742POPC   C3B36033  18.753  41.358   7.938
 2742POPC   C4B36034  18.593  41.365   7.524
 2743POPC   NC336035  28.436  34.263   9.546
 2743POPC   PO436036  28.624  34.903   9.410
 2743POPC   GL136037  28.302  34.790   9.116
 2743POPC   GL236038  28.110  35.041   8.897
 2743POPC   C1A36039  28.333  34.634   8.675
 2743POPC   D2A36040  28.132  34.294   8.437
 2743POPC   C3A36041  28.285  34.382   8.036
 2743POPC   C4A36042  28.225  34.635   7.685
 2743POPC   C1B36043  28.556  35.138   8.809
 2743POPC   C2B36044  28.717  34.981   8.448
 2743POPC   C3B36045  28.425  34.924   8.118
 2743POPC   C4B36046  28.516  35.049   7.682
 2744POPC   NC336047  14.738  27.536   9.595
 2744POPC   PO436048  15.383  27.489   9.506
 2744POPC   GL136049  15.123  27.665   9.154
 2744POPC   GL236050  15.366  27.931   8.994
 2744POPC   C1A36051  14.970  27.746   8.728
 2744POPC   D2A36052  15.196  27.705   8.338
 2744POPC   C3A36053  14.960  27.580   7.964
 2744POPC   C4A36054  15.124  27.406   7.625
 2744POPC   C1B36055  15.458  27.525   8.788
 2744POPC   C2B36056  15.373  27.198   8.457
 2744POPC   C3B36057  15.417  27.283   8.028
 2744POPC   C4B36058  15.484  27.705   7.865
 2745POPC   NC336059  35.367  13.220   9.660
 2745POPC   PO436060  34.974  12.778   9.633
 2745POPC   GL136061  35.170  12.908   9.218
 2745POPC   GL236062  34.988  12.686   9.028
 2745POPC   C1A36063  35.471  12.871   8.845
 2745POPC   D2A36064  35.664  12.767   8.445
 2745POPC   C3A36065  35.599  12.931   8.015
 2745POPC   C4A36066  35.548  13.024   7.570
 2745POPC   C1B36067  35.007  13.010   8.702
 2745POPC   C2B36068  35.197  13.058   8.313
 2745POPC   C3B36069  35.063  12.962   7.876
 2745POPC   C4B36070  35.062  12.904   7.397
 2746POPC   NC336071  28.819   1.749   9.358
 2746POPC   PO436072  29.138   2.313   9.567
 2746POPC   GL136073  28.995   2.202   9.128
 2746POPC   GL236074  29.054   1.846   8.925
 2746POPC   C1A36075  28.972   2.280   8.698
 2746POPC   D2A36076  29.069   1.962   8.397
 2746POPC   C3A36077  29.133   2.203   8.028
 2746POPC   C4A36078  28.893   2.193   7.671
 2746POPC   C1B36079  29.381   1.599   8.704
 2746POPC   C2B36080  29.464   1.489   8.306
 2746POPC   C3B36081  29.223   1.691   7.987
 2746POPC   C4B36082  28.910   1.667   7.668
 2747POPC   NC336083  14.179  12.349   9.966
 2747POPC   PO436084  14.163  11.889   9.465
 2747POPC   GL136085  14.306  11.919   9.077
 2747POPC   GL236086  14.618  11.756   9.053
 2747POPC   C1A36087  14.198  12.015   8.680
 2747POPC   D2A36088  14.031  12.256   8.380
 2747POPC   C3A36089  13.918  12.168   7.974
 2747POPC   C4A36090  14.149  12.170   7.606
 2747POPC   C1B36091  14.703  12.019   8.705
 2747POPC   C2B36092  14.607  12.167   8.317
 2747POPC   C3B36093  14.339  11.923   8.077
 2747POPC   C4B36094  14.424  11.750   7.693
 2748POPC   NC336095  34.163  32.292   9.548
 2748POPC   PO436096  33.683  31.884   9.538
 2748POPC   GL136097  33.707  32.197   9.211
 2748POPC   GL236098  34.048  32.308   9.057
 2748POPC   C1A36099  33.650  32.178   8.767
 2748POPC   D2A36100  33.944  32.231   8.447
 2748POPC   C3A36101  33.792  32.004   8.131
 2748POPC   C4A36102  33.852  32.131   7.752
 2748POPC   C1B36103  34.243  32.561   8.722
 2748POPC   C2B36104  34.404  32.443   8.321
 2748POPC   C3B36105  34.173  32.489   7.914
 2748POPC   C4B36106  34.102  32.453   7.461
 2749POPC   NC336107  12.580  32.445   9.468
 2749POPC   PO436108  12.974  31.953   9.661
 2749POPC   GL136109  12.803  32.028   9.255
 2749POPC   GL236110  12.430  31.943   9.299
 2749POPC   C1A36111  12.980  32.264   8.883
 2749POPC   D2A36112  12.980  32.548   8.479
 2749POPC   C3A36113  12.785  32.559   8.050
 2749POPC   C4A36114  12.973  32.367   7.691
 2749POPC   C1B36115  12.516  31.956   8.839
 2749POPC   C2B36116  12.787  32.007   8.494
 2749POPC   C3B36117  12.957  32.079   8.122
 2749POPC   C4B36118  12.730  31.937   7.787
 2750POPC   NC336119  11.099  31.509   9.407
 2750POPC   PO436120  10.339  31.478   9.527
 2750POPC   GL136121  10.573  31.614   9.189
 2750POPC   GL236122  10.328  31.857   9.086
 2750POPC   C1A36123  10.768  31.362   8.846
 2750POPC   D2A36124  10.719  31.166   8.451
 2750POPC   C3A36125  10.727  31.427   8.089
 2750POPC   C4A36126  10.451  31.403   7.745
 2750POPC   C1B36127  10.294  31.556   8.731
 2750POPC   C2B36128  10.277  31.451   8.301
 2750POPC   C3B36129  10.144  31.729   7.957
 2750POPC   C4B36130  10.124  31.797   7.497
 2751POPC   NC336131  33.589   1.507   9.601
 2751POPC   PO436132  33.991   2.108   9.492
 2751POPC   GL136133  33.712   1.904   9.195
 2751POPC   GL236134  33.840   1.602   9.183
 2751POPC   C1A36135  33.693   1.779   8.731
 2751POPC   D2A36136  33.797   1.993   8.357
 2751POPC   C3A36137  33.604   2.020   7.958
 2751POPC   C4A36138  34.000   2.112   7.781
 2751POPC   C1B36139  34.174   1.695   8.897
 2751POPC   C2B36140  34.197   1.666   8.469
 2751POPC   C3B36141  34.134   1.694   8.031
 2751POPC   C4B36142  33.825   1.656   7.653
 2752POPC   NC336143  33.872   8.361   9.496
 2752POPC   PO436144  33.937   9.013   9.505
 2752POPC   GL136145  33.680   9.049   9.186
 2752POPC   GL236146  33.547   8.697   9.209
 2752POPC   C1A36147  33.700   9.194   8.760
 2752POPC   D2A36148  33.573   9.041   8.352
 2752POPC   C3A36149  33.854   9.075   8.047
 2752POPC   C4A36150  33.651   9.100   7.666
 2752POPC   C1B36151  33.926   8.720   8.916
 2752POPC   C2B36152  33.932   8.728   8.498
 2752POPC   C3B36153  34.069   8.577   8.123
 2752POPC   C4B36154  33.904   8.628   7.719
 2753POPC   NC336155  40.993  38.098   9.671
 2753POPC   PO436156  41.518  37.655   9.526
 2753POPC   GL136157  41.526  37.526   9.127
 2753POPC   GL236158  41.239  37.384   9.025
 2753POPC   C1A36159  41.634  37.441   8.699
 2753POPC   D2A36160  41.512  37.691   8.341
 2753POPC   C3A36161  41.575  37.500   7.961
 2753POPC   C4A36162  41.756  37.342   7.614
 2753POPC   C1B36163  41.173  37.740   8.744
 2753POPC   C2B36164  41.032  37.957   8.350
 2753POPC   C3B36165  41.165  37.810   7.927
 2753POPC   C4B36166  41.264  37.673   7.526
 2754POPC   NC336167   0.684   4.005   9.438
 2754POPC   PO436168   0.704   4.748   9.532
 2754POPC   GL136169   0.736   4.465   9.181
 2754POPC   GL236170   0.395   4.330   9.145
 2754POPC   C1A36171   0.812   4.215   8.798
 2754POPC   D2A36172   0.571   4.355   8.506
 2754POPC   C3A36173   0.529   4.339   8.115
 2754POPC   C4A36174   0.195   4.401   7.839
 2754POPC   C1B36175   0.322   4.026   8.806
 2754POPC   C2B36176   0.403   3.870   8.390
 2754POPC   C3B36177   0.327   3.901   7.979
 2754POPC   C4B36178   0.319   3.983   7.552
 2755POPC   NC336179  42.676  28.242   9.850
 2755POPC   PO436180  43.118  28.681   9.643
 2755POPC   GL136181  43.046  28.450   9.217
 2755POPC   GL236182  43.075  28.740   9.136
 2755POPC   C1A36183  42.852  28.285   8.801
 2755POPC   D2A36184  43.074  28.198   8.396
 2755POPC   C3A36185  42.935  28.302   7.980
 2755POPC   C4A36186  43.104  28.136   7.587
 2755POPC   C1B36187  43.245  28.593   8.739
 2755POPC   C2B36188  43.120  28.701   8.326
 2755POPC   C3B36189  43.196  28.768   7.913
 2755POPC   C4B36190  42.972  28.629   7.553
 2756POPC   NC336191  19.845  43.565   9.429
 2756POPC   PO436192  19.411  43.053   9.543
 2756POPC   GL136193  19.586  43.218   9.167
 2756POPC   GL236194  19.966  43.157   9.153
 2756POPC   C1A36195  19.619  43.092   8.763
 2756POPC   D2A36196  19.717  42.858   8.417
 2756POPC   C3A36197  19.801  43.106   8.067
 2756POPC   C4A36198  19.708  43.254   7.661
 2756POPC   C1B36199  20.027  43.407   8.783
 2756POPC   C2B36200  20.181  43.222   8.414
 2756POPC   C3B36201  20.253  43.360   8.015
 2756POPC   C4B36202  20.188  43.069   7.709
 2757POPC   NC336203  11.684  28.436   9.525
 2757POPC   PO436204  12.296  28.325   9.483
 2757POPC   GL136205  12.123  28.084   9.164
 2757POPC   GL236206  11.774  28.201   9.093
 2757POPC   C1A36207  12.150  28.214   8.744
 2757POPC   D2A36208  12.495  28.383   8.507
 2757POPC   C3A36209  12.377  28.419   8.072
 2757POPC   C4A36210  12.405  28.383   7.615
 2757POPC   C1B36211  11.859  28.603   8.836
 2757POPC   C2B36212  11.949  28.530   8.363
 2757POPC   C3B36213  11.901  28.467   7.889
 2757POPC   C4B36214  11.673  28.253   7.530
 2758POPC   NC336215   4.771   5.703   9.504
 2758POPC   PO436216   5.333   5.468   9.627
 2758POPC   GL136217   5.308   5.804   9.212
 2758POPC   GL236218   5.024   5.670   9.078
 2758POPC   C1A36219   5.176   5.973   8.731
 2758POPC   D2A36220   5.029   5.871   8.290
 2758POPC   C3A36221   5.159   6.058   7.880
 2758POPC   C4A36222   5.019   6.239   7.484
 2758POPC   C1B36223   4.903   5.523   8.672
 2758POPC   C2B36224   4.949   5.363   8.242
 2758POPC   C3B36225   4.942   5.584   7.823
 2758POPC   C4B36226   4.844   5.338   7.478
 2759POPC   NC336227  16.741  24.877   9.405
 2759POPC   PO436228  17.084  25.359   9.555
 2759POPC   GL136229  17.022  25.191   9.149
 2759POPC   GL236230  16.918  25.510   9.076
 2759POPC   C1A36231  16.696  25.135   8.789
 2759POPC   D2A36232  16.508  24.982   8.395
 2759POPC   C3A36233  16.579  25.205   8.024
 2759POPC   C4A36234  16.334  25.357   7.694
 2759POPC   C1B36235  17.131  25.394   8.712
 2759POPC   C2B36236  17.030  25.127   8.388
 2759POPC   C3B36237  17.069  25.353   8.050
 2759POPC   C4B36238  17.235  25.320   7.686
 2760POPC   NC336239  42.245  27.053   9.410
 2760POPC   PO436240  42.611  26.402   9.425
 2760POPC   GL136241  42.475  26.691   9.126
 2760POPC   GL236242  42.111  26.706   9.050
 2760POPC   C1A36243  42.481  26.903   8.747
 2760POPC   D2A36244  42.279  26.782   8.363
 2760POPC   C3A36245  42.467  26.825   7.978
 2760POPC   C4A36246  42.584  26.478   7.746
 2760POPC   C1B36247  41.999  27.053   8.745
 2760POPC   C2B36248  42.229  27.276   8.393
 2760POPC   C3B36249  42.152  27.268   7.934
 2760POPC   C4B36250  42.221  27.037   7.535
 2761POPC   NC336251  12.422   7.949   9.610
 2761POPC   PO436252  11.823   8.368   9.543
 2761POPC   GL136253  12.027   8.387   9.180
 2761POPC   GL236254  12.270   8.545   9.210
 2761POPC   C1A36255  12.029   8.189   8.791
 2761POPC   D2A36256  12.072   8.392   8.414
 2761POPC   C3A36257  12.035   8.109   8.089
 2761POPC   C4A36258  12.184   8.066   7.698
 2761POPC   C1B36259  12.316   8.630   8.797
 2761POPC   C2B36260  12.572   8.573   8.424
 2761POPC   C3B36261  12.402   8.469   8.015
 2761POPC   C4B36262  12.199   8.581   7.614
 2762POPC   NC336263  30.944  10.044   9.578
 2762POPC   PO436264  31.491   9.586   9.546
 2762POPC   GL136265  31.457   9.921   9.237
 2762POPC   GL236266  31.787   9.997   9.102
 2762POPC   C1A36267  31.236   9.898   8.851
 2762POPC   D2A36268  31.369   9.626   8.488
 2762POPC   C3A36269  31.381   9.740   8.059
 2762POPC   C4A36270  31.155   9.862   7.672
 2762POPC   C1B36271  31.672  10.057   8.678
 2762POPC   C2B36272  31.802  10.039   8.282
 2762POPC   C3B36273  31.847   9.953   7.874
 2762POPC   C4B36274  31.664   9.823   7.514
 2763POPC   NC336275  14.030  31.287   9.359
 2763POPC   PO436276  14.655  31.497   9.418
 2763POPC   GL136277  14.487  31.547   9.036
 2763POPC   GL236278  14.178  31.677   9.073
 2763POPC   C1A36279  14.462  31.595   8.591
 2763POPC   D2A36280  14.153  31.502   8.293
 2763POPC   C3A36281  14.293  31.397   7.886
 2763POPC   C4A36282  14.456  31.450   7.481
 2763POPC   C1B36283  14.198  31.983   8.803
 2763POPC   C2B36284  14.164  32.045   8.380
 2763POPC   C3B36285  14.264  31.907   7.980
 2763POPC   C4B36286  13.918  32.035   7.776
 2764POPC   NC336287  41.646  11.099   9.530
 2764POPC   PO436288  41.122  11.421   9.484
 2764POPC   GL136289  41.233  11.378   9.065
 2764POPC   GL236290  41.416  11.088   9.076
 2764POPC   C1A36291  41.367  11.330   8.635
 2764POPC   D2A36292  41.420  10.997   8.347
 2764POPC   C3A36293  41.379  11.056   7.927
 2764POPC   C4A36294  41.487  11.301   7.596
 2764POPC   C1B36295  41.749  10.946   8.752
 2764POPC   C2B36296  41.917  11.042   8.317
 2764POPC   C3B36297  41.891  11.196   7.887
 2764POPC   C4B36298  41.969  11.383   7.475
 2765POPC   NC336299  39.318  41.196   9.427
 2765POPC   PO436300  39.516  40.615   9.411
 2765POPC   GL136301  39.145  40.750   9.213
 2765POPC   GL236302  38.932  41.035   9.145
 2765POPC   C1A36303  39.155  40.694   8.795
 2765POPC   D2A36304  39.478  40.709   8.485
 2765POPC   C3A36305  39.320  40.514   8.099
 2765POPC   C4A36306  39.302  40.634   7.667
 2765POPC   C1B36307  39.084  41.197   8.777
 2765POPC   C2B36308  39.031  40.960   8.369
 2765POPC   C3B36309  39.195  41.018   7.970
 2765POPC   C4B36310  39.034  41.071   7.527
 2766POPC   NC336311  26.054  27.029   9.452
 2766POPC   PO436312  26.142  26.374   9.420
 2766POPC   GL136313  25.921  26.606   9.144
 2766POPC   GL236314  26.253  26.738   9.065
 2766POPC   C1A36315  25.807  26.878   8.813
 2766POPC   D2A36316  25.997  27.142   8.494
 2766POPC   C3A36317  26.021  27.077   8.044
 2766POPC   C4A36318  25.915  26.800   7.696
 2766POPC   C1B36319  26.406  26.889   8.685
 2766POPC   C2B36320  26.482  26.947   8.266
 2766POPC   C3B36321  26.422  26.815   7.836
 2766POPC   C4B36322  26.373  27.015   7.428
 2767POPC   NC336323  42.759  18.246   9.570
 2767POPC   PO436324  43.229  18.680   9.498
 2767POPC   GL136325  43.055  18.464   9.160
 2767POPC   GL236326  43.222  18.166   8.984
 2767POPC   C1A36327  43.094  18.596   8.747
 2767POPC   D2A36328  43.130  18.354   8.375
 2767POPC   C3A36329  43.124  18.590   7.992
 2767POPC   C4A36330  43.520  18.544   7.794
 2767POPC   C1B36331  42.940  17.946   8.666
 2767POPC   C2B36332  42.787  17.968   8.251
 2767POPC   C3B36333  43.052  18.070   7.902
 2767POPC   C4B36334  42.973  18.046   7.473
 2768POPC   NC336335   6.470  23.269   9.434
 2768POPC   PO436336   6.990  23.717   9.484
 2768POPC   GL136337   6.806  23.628   9.137
 2768POPC   GL236338   6.575  23.929   9.097
 2768POPC   C1A36339   6.951  23.417   8.784
 2768POPC   D2A36340   6.974  23.523   8.355
 2768POPC   C3A36341   6.586  23.502   8.132
 2768POPC   C4A36342   6.453  23.549   7.698
 2768POPC   C1B36343   6.536  23.734   8.685
 2768POPC   C2B36344   6.212  23.760   8.373
 2768POPC   C3B36345   6.232  23.913   7.979
 2768POPC   C4B36346   6.384  24.122   7.602
 2769POPC   NC336347  24.540   2.391   9.610
 2769POPC   PO436348  24.874   3.004   9.576
 2769POPC   GL136349  24.576   2.819   9.286
 2769POPC   GL236350  24.663   3.081   9.086
 2769POPC   C1A36351  24.293   2.766   8.901
 2769POPC   D2A36352  24.245   2.577   8.476
 2769POPC   C3A36353  24.499   2.639   8.154
 2769POPC   C4A36354  24.267   2.658   7.792
 2769POPC   C1B36355  24.832   3.304   8.758
 2769POPC   C2B36356  25.064   3.197   8.394
 2769POPC   C3B36357  24.954   3.068   8.011
 2769POPC   C4B36358  24.725   2.923   7.708
 2770POPC   NC336359   7.869   8.306   9.855
 2770POPC   PO436360   7.380   8.428   9.411
 2770POPC   GL136361   7.477   8.150   9.065
 2770POPC   GL236362   7.744   8.362   8.846
 2770POPC   C1A36363   7.557   7.917   8.696
 2770POPC   D2A36364   7.488   8.174   8.360
 2770POPC   C3A36365   7.585   8.075   7.979
 2770POPC   C4A36366   7.337   7.862   7.685
 2770POPC   C1B36367   7.311   8.482   8.734
 2770POPC   C2B36368   7.074   8.484   8.375
 2770POPC   C3B36369   7.299   8.551   8.027
 2770POPC   C4B36370   7.343   8.392   7.674
 2771POPC   NC336371  17.666  17.565   9.427
 2771POPC   PO436372  17.136  17.866   9.724
 2771POPC   GL136373  17.184  17.739   9.261
 2771POPC   GL236374  17.450  17.887   9.077
 2771POPC   C1A36375  17.179  17.570   8.812
 2771POPC   D2A36376  17.505  17.344   8.534
 2771POPC   C3A36377  17.562  17.463   8.094
 2771POPC   C4A36378  17.346  17.618   7.722
 2771POPC   C1B36379  17.835  17.885   8.868
 2771POPC   C2B36380  17.998  17.930   8.506
 2771POPC   C3B36381  18.049  17.916   8.091
 2771POPC   C4B36382  17.855  17.887   7.708
 2772POPC   NC336383  17.751  41.040   9.445
 2772POPC   PO436384  17.616  40.342   9.403
 2772POPC   GL136385  17.375  40.510   9.032
 2772POPC   GL236386  17.398  40.869   9.093
 2772POPC   C1A36387  17.455  40.440   8.615
 2772POPC   D2A36388  17.831  40.338   8.435
 2772POPC   C3A36389  17.692  40.353   8.049
 2772POPC   C4A36390  17.479  40.623   7.815
 2772POPC   C1B36391  17.727  40.840   8.747
 2772POPC   C2B36392  17.598  40.847   8.307
 2772POPC   C3B36393  17.423  41.100   7.966
 2772POPC   C4B36394  17.728  41.075   7.628
 2773POPC   NC336395  15.759  35.211   9.541
 2773POPC   PO436396  15.981  35.746   9.365
 2773POPC   GL136397  16.029  35.486   9.019
 2773POPC   GL236398  15.897  35.161   9.064
 2773POPC   C1A36399  16.132  35.440   8.570
 2773POPC   D2A36400  16.167  35.132   8.224
 2773POPC   C3A36401  16.292  35.327   7.841
 2773POPC   C4A36402  16.185  35.714   7.671
 2773POPC   C1B36403  15.695  35.215   8.694
 2773POPC   C2B36404  15.674  35.032   8.326
 2773POPC   C3B36405  15.712  35.166   7.934
 2773POPC   C4B36406  15.725  35.537   7.726
 2774POPC   NC336407  23.934  24.358   9.437
 2774POPC   PO436408  23.312  24.619   9.506
 2774POPC   GL136409  23.512  24.691   9.120
 2774POPC   GL236410  23.558  24.342   9.075
 2774POPC   C1A36411  23.689  24.662   8.677
 2774POPC   D2A36412  23.490  24.632   8.264
 2774POPC   C3A36413  23.714  24.434   7.954
 2774POPC   C4A36414  24.019  24.617   7.700
 2774POPC   C1B36415  23.437  24.102   8.729
 2774POPC   C2B36416  23.444  24.117   8.301
 2774POPC   C3B36417  23.313  24.080   7.906
 2774POPC   C4B36418  23.520  24.185   7.573
 2775POPC   NC336419  39.842  16.177   9.476
 2775POPC   PO436420  40.054  15.580   9.733
 2775POPC   GL136421  39.852  15.619   9.270
 2775POPC   GL236422  39.669  15.897   9.093
 2775POPC   C1A36423  39.898  15.575   8.792
 2775POPC   D2A36424  39.702  15.883   8.529
 2775POPC   C3A36425  39.650  15.776   8.106
 2775POPC   C4A36426  39.893  15.710   7.790
 2775POPC   C1B36427  40.039  16.079   8.864
 2775POPC   C2B36428  40.123  16.273   8.490
 2775POPC   C3B36429  39.965  16.191   8.122
 2775POPC   C4B36430  40.090  16.175   7.750
 2776POPC   NC336431   2.624  41.525   9.456
 2776POPC   PO436432   3.233  41.363   9.644
 2776POPC   GL136433   3.103  41.579   9.257
 2776POPC   GL236434   2.881  41.880   9.191
 2776POPC   C1A36435   3.060  41.600   8.811
 2776POPC   D2A36436   2.819  41.726   8.455
 2776POPC   C3A36437   2.782  41.392   8.194
 2776POPC   C4A36438   2.937  41.661   7.903
 2776POPC   C1B36439   2.545  41.827   8.872
 2776POPC   C2B36440   2.311  41.700   8.486
 2776POPC   C3B36441   2.422  41.749   8.062
 2776POPC   C4B36442   2.488  41.441   7.754
 2777POPC   NC336443   6.065   3.953   9.475
 2777POPC   PO436444   6.096   4.587   9.448
 2777POPC   GL136445   5.872   4.386   9.076
 2777POPC   GL236446   5.772   4.012   9.063
 2777POPC   C1A36447   5.683   4.300   8.655
 2777POPC   D2A36448   5.751   4.014   8.307
 2777POPC   C3A36449   5.715   4.305   7.979
 2777POPC   C4A36450   5.600   4.380   7.510
 2777POPC   C1B36451   6.091   4.001   8.776
 2777POPC   C2B36452   6.195   4.275   8.476
 2777POPC   C3B36453   6.213   4.206   8.072
 2777POPC   C4B36454   6.061   4.203   7.634
 2778POPC   NC336455  18.817  42.700   9.278
 2778POPC   PO436456  19.302  42.245   9.368
 2778POPC   GL136457  19.069  42.071   9.037
 2778POPC   GL236458  19.035  42.388   8.920
 2778POPC   C1A36459  18.830  41.994   8.630
 2778POPC   D2A36460  18.834  42.117   8.184
 2778POPC   C3A36461  18.966  41.837   7.848
 2778POPC   C4A36462  18.816  41.798   7.396
 2778POPC   C1B36463  18.826  42.526   8.581
 2778POPC   C2B36464  18.932  42.774   8.235
 2778POPC   C3B36465  19.079  42.496   7.917
 2778POPC   C4B36466  19.380  42.123   7.969
 2779POPC   NC336467  30.301  39.198   9.427
 2779POPC   PO436468  29.718  39.197   9.757
 2779POPC   GL136469  29.796  39.206   9.313
 2779POPC   GL236470  29.975  39.508   9.201
 2779POPC   C1A36471  29.799  39.182   8.855
 2779POPC   D2A36472  29.935  39.141   8.425
 2779POPC   C3A36473  29.880  38.916   8.012
 2779POPC   C4A36474  29.832  38.988   7.551
 2779POPC   C1B36475  30.281  39.574   8.845
 2779POPC   C2B36476  30.175  39.626   8.412
 2779POPC   C3B36477  30.101  39.451   8.025
 2779POPC   C4B36478  29.868  39.486   7.680
 2780POPC   NC336479  23.343  25.077   9.526
 2780POPC   PO436480  23.931  25.402   9.443
 2780POPC   GL136481  23.668  25.216   9.166
 2780POPC   GL236482  23.369  25.444   9.140
 2780POPC   C1A36483  23.695  25.180   8.765
 2780POPC   D2A36484  23.463  25.372   8.485
 2780POPC   C3A36485  23.642  25.144   8.198
 2780POPC   C4A36486  23.643  24.919   7.834
 2780POPC   C1B36487  23.688  25.690   8.876
 2780POPC   C2B36488  23.859  25.683   8.452
 2780POPC   C3B36489  23.709  25.674   8.062
 2780POPC   C4B36490  23.799  25.392   7.777
 2781POPC   NC336491   0.075   0.257   9.654
 2781POPC   PO436492  44.522   0.571   9.583
 2781POPC   GL136493  44.699   0.412   9.188
 2781POPC   GL236494   0.024   0.416   9.158
 2781POPC   C1A36495  44.626   0.244   8.784
 2781POPC   D2A36496  44.330   0.394   8.478
 2781POPC   C3A36497  44.508   0.451   8.088
 2781POPC   C4A36498  44.712   0.162   7.842
 2781POPC   C1B36499  44.831   0.756   8.859
 2781POPC   C2B36500  44.884   1.033   8.503
 2781POPC   C3B36501  44.887   0.969   8.043
 2781POPC   C4B36502  44.800   0.669   7.710
 2782POPC   NC336503  15.686  22.729   9.482
 2782POPC   PO436504  15.996  23.379   9.481
 2782POPC   GL136505  15.981  23.008   9.162
 2782POPC   GL236506  16.299  22.788   9.086
 2782POPC   C1A36507  15.818  22.730   8.809
 2782POPC   D2A36508  15.714  22.645   8.363
 2782POPC   C3A36509  15.916  22.813   7.982
 2782POPC   C4A36510  15.788  22.857   7.547
 2782POPC   C1B36511  16.239  23.016   8.734
 2782POPC   C2B36512  16.050  23.074   8.391
 2782POPC   C3B36513  16.203  23.245   8.063
 2782POPC   C4B36514  16.184  23.147   7.681
 2783POPC   NC336515   3.360   7.702   9.375
 2783POPC   PO436516   4.017   7.442   9.512
 2783POPC   GL136517   3.837   7.515   9.111
 2783POPC   GL236518   3.522   7.372   9.005
 2783POPC   C1A36519   3.844   7.571   8.663
 2783POPC   D2A36520   3.532   7.410   8.341
 2783POPC   C3A36521   3.527   7.533   7.889
 2783POPC   C4A36522   3.484   7.677   7.449
 2783POPC   C1B36523   3.319   7.105   8.697
 2783POPC   C2B36524   3.380   6.928   8.302
 2783POPC   C3B36525   3.322   7.028   7.895
 2783POPC   C4B36526   3.262   7.243   7.526
 2784POPC   NC336527  22.742  43.459   9.639
 2784POPC   PO436528  23.252  42.936   9.702
 2784POPC   GL136529  22.982  43.116   9.328
 2784POPC   GL236530  23.054  43.479   9.244
 2784POPC   C1A36531  22.982  43.156   8.857
 2784POPC   D2A36532  23.035  42.994   8.436
 2784POPC   C3A36533  23.122  43.132   8.049
 2784POPC   C4A36534  22.948  42.979   7.698
 2784POPC   C1B36535  23.039  43.666   8.846
 2784POPC   C2B36536  23.027  43.511   8.447
 2784POPC   C3B36537  23.143  43.632   8.061
 2784POPC   C4B36538  22.909  43.478   7.721
 2785POPC   NC336539  12.687  22.864   9.514
 2785POPC   PO436540  13.248  23.043   9.443
 2785POPC   GL136541  12.997  22.964   9.109
 2785POPC   GL236542  12.970  22.628   9.110
 2785POPC   C1A36543  12.912  22.936   8.680
 2785POPC   D2A36544  13.004  22.687   8.341
 2785POPC   C3A36545  12.954  22.950   7.998
 2785POPC   C4A36546  12.995  22.953   7.549
 2785POPC   C1B36547  12.723  22.485   8.756
 2785POPC   C2B36548  12.498  22.743   8.477
 2785POPC   C3B36549  12.549  22.622   8.082
 2785POPC   C4B36550  12.539  22.824   7.729
 2786POPC   NC336551  13.845  15.840   9.710
 2786POPC   PO436552  13.480  16.318   9.562
 2786POPC   GL136553  13.527  15.957   9.260
 2786POPC   GL236554  13.883  15.966   9.227
 2786POPC   C1A36555  13.628  15.862   8.795
 2786POPC   D2A36556  13.639  16.059   8.384
 2786POPC   C3A36557  13.595  15.856   7.980
 2786POPC   C4A36558  13.258  15.621   7.810
 2786POPC   C1B36559  14.089  16.226   8.926
 2786POPC   C2B36560  14.116  16.165   8.497
 2786POPC   C3B36561  13.958  16.384   8.147
 2786POPC   C4B36562  13.812  16.277   7.756
 2787POPC   NC336563  32.729   1.461   9.595
 2787POPC   PO436564  33.354   1.323   9.249
 2787POPC   GL136565  33.078   1.287   8.957
 2787POPC   GL236566  32.859   1.153   9.181
 2787POPC   C1A36567  32.852   1.485   8.634
 2787POPC   D2A36568  32.585   1.538   8.323
 2787POPC   C3A36569  32.763   1.333   7.969
 2787POPC   C4A36570  33.144   1.283   7.739
 2787POPC   C1B36571  32.637   1.027   8.797
 2787POPC   C2B36572  32.547   1.010   8.353
 2787POPC   C3B36573  32.448   0.921   7.918
 2787POPC   C4B36574  32.749   0.983   7.564
 2788POPC   NC336575   7.582  40.626   9.547
 2788POPC   PO436576   6.993  40.822   9.334
 2788POPC   GL136577   7.353  40.739   9.095
 2788POPC   GL236578   7.552  41.031   9.091
 2788POPC   C1A36579   7.397  40.749   8.662
 2788POPC   D2A36580   7.356  40.982   8.293
 2788POPC   C3A36581   7.417  40.795   7.915
 2788POPC   C4A36582   7.688  40.730   7.559
 2788POPC   C1B36583   7.691  41.184   8.662
 2788POPC   C2B36584   7.861  41.083   8.246
 2788POPC   C3B36585   7.683  41.206   7.840
 2788POPC   C4B36586   7.355  41.093   7.483
 2789POPC   NC336587   4.803  23.309   9.824
 2789POPC   PO436588   4.217  23.397   9.531
 2789POPC   GL136589   4.272  23.787   9.228
 2789POPC   GL236590   4.211  24.176   9.240
 2789POPC   C1A36591   4.433  23.984   8.842
 2789POPC   D2A36592   4.361  24.057   8.414
 2789POPC   C3A36593   4.394  23.744   8.079
 2789POPC   C4A36594   4.703  23.838   7.768
 2789POPC   C1B36595   3.929  24.012   8.873
 2789POPC   C2B36596   3.865  24.123   8.418
 2789POPC   C3B36597   3.940  24.008   7.964
 2789POPC   C4B36598   3.867  24.089   7.471
 2790POPC   NC336599  35.615  31.494   9.571
 2790POPC   PO436600  34.990  31.502   9.556
 2790POPC   GL136601  35.290  31.459   9.167
 2790POPC   GL236602  35.567  31.704   9.109
 2790POPC   C1A36603  35.239  31.592   8.727
 2790POPC   D2A36604  35.381  31.717   8.307
 2790POPC   C3A36605  35.197  31.459   7.976
 2790POPC   C4A36606  35.111  31.570   7.521
 2790POPC   C1B36607  35.743  31.642   8.687
 2790POPC   C2B36608  35.659  31.291   8.448
 2790POPC   C3B36609  35.736  31.390   8.052
 2790POPC   C4B36610  35.601  31.408   7.661
 2791POPC   NC336611  41.335  42.791   9.515
 2791POPC   PO436612  41.506  42.092   9.493
 2791POPC   GL136613  41.602  42.258   9.135
 2791POPC   GL236614  41.596  42.559   9.164
 2791POPC   C1A36615  41.642  42.267   8.710
 2791POPC   D2A36616  41.636  42.074   8.305
 2791POPC   C3A36617  41.459  42.206   7.918
 2791POPC   C4A36618  41.780  42.293   7.653
 2791POPC   C1B36619  41.358  42.689   8.817
 2791POPC   C2B36620  41.360  42.541   8.385
 2791POPC   C3B36621  41.716  42.604   8.129
 2791POPC   C4B36622  41.543  42.730   7.764
 2792POPC   NC336623   8.982  19.686   9.741
 2792POPC   PO436624   9.443  20.084   9.591
 2792POPC   GL136625   9.172  20.000   9.214
 2792POPC   GL236626   9.192  19.630   9.230
 2792POPC   C1A36627   9.034  19.921   8.750
 2792POPC   D2A36628   8.990  20.157   8.364
 2792POPC   C3A36629   9.065  19.930   8.024
 2792POPC   C4A36630   9.096  20.012   7.584
 2792POPC   C1B36631   9.132  19.407   8.858
 2792POPC   C2B36632   9.165  19.502   8.433
 2792POPC   C3B36633   8.976  19.394   8.064
 2792POPC   C4B36634   8.821  19.579   7.721
 2793POPC   NC336635  13.124  37.465   9.426
 2793POPC   PO436636  12.518  37.750   9.592
 2793POPC   GL136637  12.727  37.802   9.160
 2793POPC   GL236638  13.066  37.928   9.137
 2793POPC   C1A36639  12.583  37.643   8.744
 2793POPC   D2A36640  12.714  37.394   8.385
 2793POPC   C3A36641  12.906  37.586   8.011
 2793POPC   C4A36642  13.167  37.497   7.643
 2793POPC   C1B36643  12.924  38.035   8.718
 2793POPC   C2B36644  12.680  37.949   8.353
 2793POPC   C3B36645  12.631  38.019   7.946
 2793POPC   C4B36646  12.995  38.182   7.801
 2794POPC   NC336647  26.409  27.711   9.471
 2794POPC   PO436648  27.145  27.639   9.452
 2794POPC   GL136649  27.015  27.739   9.074
 2794POPC   GL236650  26.688  27.616   9.074
 2794POPC   C1A36651  26.928  27.705   8.629
 2794POPC   D2A36652  26.838  27.449   8.270
 2794POPC   C3A36653  26.988  27.537   7.819
 2794POPC   C4A36654  27.125  27.487   7.361
 2794POPC   C1B36655  26.425  27.883   8.829
 2794POPC   C2B36656  26.504  27.909   8.432
 2794POPC   C3B36657  26.358  27.918   8.030
 2794POPC   C4B36658  26.579  27.826   7.705
 2795POPC   NC336659  33.116  22.013   9.532
 2795POPC   PO436660  33.419  22.624   9.325
 2795POPC   GL136661  33.070  22.253   9.087
 2795POPC   GL236662  32.839  21.917   9.125
 2795POPC   C1A36663  32.872  22.181   8.670
 2795POPC   D2A36664  33.011  22.467   8.387
 2795POPC   C3A36665  32.889  22.505   7.990
 2795POPC   C4A36666  33.180  22.390   7.755
 2795POPC   C1B36667  33.193  21.834   8.847
 2795POPC   C2B36668  33.169  21.804   8.423
 2795POPC   C3B36669  32.925  21.983   8.110
 2795POPC   C4B36670  32.998  21.917   7.696
 2796POPC   NC336671   2.565   7.352   9.487
 2796POPC   PO436672   3.307   7.194   9.431
 2796POPC   GL136673   3.032   7.235   9.098
 2796POPC   GL236674   2.726   7.061   9.085
 2796POPC   C1A36675   2.932   7.517   8.755
 2796POPC   D2A36676   2.578   7.526   8.474
 2796POPC   C3A36677   2.688   7.678   8.067
 2796POPC   C4A36678   3.045   7.654   7.777
 2796POPC   C1B36679   2.815   7.042   8.641
 2796POPC   C2B36680   2.985   7.268   8.284
 2796POPC   C3B36681   2.828   7.207   7.883
 2796POPC   C4B36682   2.895   6.904   7.567
 2797POPC   NC336683  21.222  32.532   9.546
 2797POPC   PO436684  21.096  31.880   9.393
 2797POPC   GL136685  21.128  32.210   9.086
 2797POPC   GL236686  21.437  32.323   9.016
 2797POPC   C1A36687  21.137  32.118   8.623
 2797POPC   D2A36688  21.075  32.010   8.178
 2797POPC   C3A36689  21.149  32.313   7.844
 2797POPC   C4A36690  21.082  32.318   7.408
 2797POPC   C1B36691  21.509  32.463   8.591
 2797POPC   C2B36692  21.546  32.236   8.211
 2797POPC   C3B36693  21.641  32.125   7.802
 2797POPC   C4B36694  21.679  32.453   7.538
 2798POPC   NC336695  27.533  42.653   9.500
 2798POPC   PO436696  27.931  42.126   9.534
 2798POPC   GL136697  27.809  42.360   9.144
 2798POPC   GL236698  27.464  42.434   9.028
 2798POPC   C1A36699  27.864  42.615   8.768
 2798POPC   D2A36700  27.592  42.604   8.410
 2798POPC   C3A36701  27.727  42.442   8.013
 2798POPC   C4A36702  27.426  42.407   7.688
 2798POPC   C1B36703  27.654  42.154   8.711
 2798POPC   C2B36704  27.714  42.022   8.307
 2798POPC   C3B36705  27.511  41.953   7.904
 2798POPC   C4B36706  27.569  41.942   7.441
 2799POPC   NC336707  42.821  15.960   9.722
 2799POPC   PO436708  43.068  15.522   9.516
 2799POPC   GL136709  43.081  15.934   9.234
 2799POPC   GL236710  43.391  15.748   9.112
 2799POPC   C1A36711  42.872  16.101   8.798
 2799POPC   D2A36712  42.743  15.901   8.392
 2799POPC   C3A36713  42.748  16.172   8.021
 2799POPC   C4A36714  43.052  16.257   7.718
 2799POPC   C1B36715  43.247  15.795   8.690
 2799POPC   C2B36716  43.310  16.148   8.397
 2799POPC   C3B36717  43.466  16.131   7.985
 2799POPC   C4B36718  43.294  15.812   7.753
 2800POPC   NC336719   7.418  34.406   9.418
 2800POPC   PO436720   7.786  35.056   9.444
 2800POPC   GL136721   7.671  34.822   9.095
 2800POPC   GL236722   7.338  34.705   9.038
 2800POPC   C1A36723   7.717  34.679   8.675
 2800POPC   D2A36724   7.912  34.445   8.362
 2800POPC   C3A36725   7.583  34.507   8.071
 2800POPC   C4A36726   7.539  34.727   7.676
 2800POPC   C1B36727   7.056  34.496   8.724
 2800POPC   C2B36728   7.113  34.340   8.286
 2800POPC   C3B36729   7.124  34.443   7.828
 2800POPC   C4B36730   7.195  34.366   7.378
 2801POPC   NC336731   9.471  21.270   9.387
 2801POPC   PO436732  10.076  21.395   9.281
 2801POPC   GL136733   9.910  21.142   8.958
 2801POPC   GL236734   9.557  21.176   8.888
 2801POPC   C1A36735   9.904  21.379   8.585
 2801POPC   D2A36736   9.655  21.415   8.256
 2801POPC   C3A36737   9.800  21.186   7.925
 2801POPC   C4A36738  10.133  20.913   7.859
 2801POPC   C1B36739   9.408  21.592   8.681
 2801POPC   C2B36740   9.395  21.876   8.309
 2801POPC   C3B36741   9.562  21.765   7.914
 2801POPC   C4B36742   9.976  21.683   7.793
 2802POPC   NC336743  32.687  44.502   9.559
 2802POPC   PO436744  33.270  44.881   9.784
 2802POPC   GL136745  33.095  44.870   9.330
 2802POPC   GL236746  33.106  44.526   9.209
 2802POPC   C1A36747  33.221  44.885   8.867
 2802POPC   D2A36748  33.034  44.618   8.547
 2802POPC   C3A36749  32.971  44.760   8.091
 2802POPC   C4A36750  32.701  44.834   7.747
 2802POPC   C1B36751  33.311  44.310   8.865
 2802POPC   C2B36752  33.345  44.250   8.410
 2802POPC   C3B36753  33.035  44.255   8.112
 2802POPC   C4B36754  32.997  44.356   7.666
 2803POPC   NC336755  34.438   6.921   9.333
 2803POPC   PO436756  34.818   6.334   9.527
 2803POPC   GL136757  34.657   6.498   9.146
 2803POPC   GL236758  34.306   6.551   9.009
 2803POPC   C1A36759  34.734   6.447   8.724
 2803POPC   D2A36760  34.635   6.633   8.358
 2803POPC   C3A36761  34.890   6.569   8.058
 2803POPC   C4A36762  34.894   6.368   7.724
 2803POPC   C1B36763  34.444   6.907   8.728
 2803POPC   C2B36764  34.421   7.100   8.386
 2803POPC   C3B36765  34.426   6.937   7.994
 2803POPC   C4B36766  34.706   6.854   7.689
 2804POPC   NC336767  39.607  38.496   9.655
 2804POPC   PO436768  39.068  38.090   9.495
 2804POPC   GL136769  39.320  38.310   9.223
 2804POPC   GL236770  39.407  38.634   9.216
 2804POPC   C1A36771  39.407  38.331   8.793
 2804POPC   D2A36772  39.190  38.086   8.491
 2804POPC   C3A36773  39.253  38.284   8.118
 2804POPC   C4A36774  39.439  38.618   7.869
 2804POPC   C1B36775  39.168  38.811   8.862
 2804POPC   C2B36776  39.193  38.721   8.413
 2804POPC   C3B36777  38.962  38.714   8.008
 2804POPC   C4B36778  39.113  38.862   7.581
 2805POPC   NC336779  38.249  29.905   9.487
 2805POPC   PO436780  38.896  30.105   9.510
 2805POPC   GL136781  38.602  29.958   9.145
 2805POPC   GL236782  38.330  30.152   9.046
 2805POPC   C1A36783  38.515  29.763   8.766
 2805POPC   D2A36784  38.633  29.939   8.397
 2805POPC   C3A36785  38.475  29.814   8.043
 2805POPC   C4A36786  38.417  29.873   7.630
 2805POPC   C1B36787  38.271  30.322   8.633
 2805POPC   C2B36788  38.256  30.288   8.197
 2805POPC   C3B36789  38.283  30.343   7.766
 2805POPC   C4B36790  38.018  30.144   7.393
 2806POPC   NC336791  43.200  44.209   9.548
 2806POPC   PO436792  42.924  44.817   9.414
 2806POPC   GL136793  42.948  44.467   9.178
 2806POPC   GL236794  43.287  44.567   9.124
 2806POPC   C1A36795  42.946  44.498   8.735
 2806POPC   D2A36796  43.093  44.938   8.580
 2806POPC   C3A36797  43.058   0.022   8.138
 2806POPC   C4A36798  43.122  44.715   7.845
 2806POPC   C1B36799  43.452  44.548   8.708
 2806POPC   C2B36800  43.288  44.471   8.279
 2806POPC   C3B36801  43.435  44.314   7.858
 2806POPC   C4B36802  43.209  44.216   7.463
 2807POPC   NC336803   4.748  39.424   9.271
 2807POPC   PO436804   4.327  39.115   9.756
 2807POPC   GL136805   4.230  39.338   9.326
 2807POPC   GL236806   4.365  39.095   9.106
 2807POPC   C1A36807   4.036  39.476   8.893
 2807POPC   D2A36808   3.878  39.458   8.426
 2807POPC   C3A36809   4.129  39.399   8.012
 2807POPC   C4A36810   4.294  39.011   7.806
 2807POPC   C1B36811   4.569  38.993   8.711
 2807POPC   C2B36812   4.543  39.074   8.280
 2807POPC   C3B36813   4.719  39.291   7.943
 2807POPC   C4B36814   4.753  39.072   7.578
 2808POPC   NC336815   9.041  37.015   9.916
 2808POPC   PO436816   8.563  36.677   9.466
 2808POPC   GL136817   8.817  36.869   9.141
 2808POPC   GL236818   9.149  36.991   9.269
 2808POPC   C1A36819   8.887  36.815   8.682
 2808POPC   D2A36820   8.846  36.582   8.286
 2808POPC   C3A36821   8.849  36.906   7.961
 2808POPC   C4A36822   8.801  37.288   7.779
 2808POPC   C1B36823   9.294  36.647   8.954
 2808POPC   C2B36824   9.358  36.679   8.469
 2808POPC   C3B36825   9.259  36.605   7.990
 2808POPC   C4B36826   8.889  36.464   7.698
 2809POPC   NC336827   9.274  20.612   9.512
 2809POPC   PO436828   8.817  20.121   9.604
 2809POPC   GL136829   8.863  20.413   9.202
 2809POPC   GL236830   9.025  20.797   9.120
 2809POPC   C1A36831   8.899  20.475   8.746
 2809POPC   D2A36832   8.782  20.820   8.467
 2809POPC   C3A36833   8.905  20.747   8.065
 2809POPC   C4A36834   8.809  20.353   7.892
 2809POPC   C1B36835   9.340  20.736   8.784
 2809POPC   C2B36836   9.322  20.567   8.378
 2809POPC   C3B36837   9.317  20.392   7.988
 2809POPC   C4B36838   9.166  20.601   7.646
 2810POPC   NC336839   6.178   3.227   9.466
 2810POPC   PO436840   5.652   3.692   9.447
 2810POPC   GL136841   5.568   3.515   9.089
 2810POPC   GL236842   5.722   3.224   9.192
 2810POPC   C1A36843   5.719   3.636   8.700
 2810POPC   D2A36844   5.867   3.472   8.355
 2810POPC   C3A36845   5.775   3.596   7.973
 2810POPC   C4A36846   5.594   3.908   7.736
 2810POPC   C1B36847   6.001   3.147   8.823
 2810POPC   C2B36848   6.074   3.018   8.391
 2810POPC   C3B36849   6.210   3.219   8.019
 2810POPC   C4B36850   6.255   3.338   7.580
 2811POPC   NC336851  12.128  16.291   9.533
 2811POPC   PO436852  11.532  15.932   9.621
 2811POPC   GL136853  11.804  16.104   9.203
 2811POPC   GL236854  12.154  16.085   9.075
 2811POPC   C1A36855  11.834  16.088   8.720
 2811POPC   D2A36856  12.136  15.991   8.419
 2811POPC   C3A36857  12.056  16.108   8.005
 2811POPC   C4A36858  12.072  15.810   7.700
 2811POPC   C1B36859  12.333  16.340   8.748
 2811POPC   C2B36860  12.237  16.489   8.347
 2811POPC   C3B36861  12.502  16.369   7.997
 2811POPC   C4B36862  12.481  16.139   7.654
 2812POPC   NC336863  10.791  36.543   9.422
 2812POPC   PO436864  10.118  36.503   9.546
 2812POPC   GL136865  10.370  36.747   9.192
 2812POPC   GL236866  10.204  37.030   9.049
 2812POPC   C1A36867  10.699  36.937   8.861
 2812POPC   D2A36868  10.617  37.098   8.437
 2812POPC   C3A36869  10.729  36.986   7.996
 2812POPC   C4A36870  10.543  37.014   7.556
 2812POPC   C1B36871  10.262  36.782   8.664
 2812POPC   C2B36872  10.283  36.761   8.213
 2812POPC   C3B36873  10.214  36.690   7.794
 2812POPC   C4B36874  10.316  36.580   7.368
 2813POPC   NC336875  13.362  25.181   9.300
 2813POPC   PO436876  12.660  25.144   9.539
 2813POPC   GL136877  12.809  25.471   9.194
 2813POPC   GL236878  13.148  25.567   9.079
 2813POPC   C1A36879  12.747  25.551   8.723
 2813POPC   D2A36880  12.857  25.239   8.400
 2813POPC   C3A36881  12.713  25.250   7.982
 2813POPC   C4A36882  12.667  25.006   7.593
 2813POPC   C1B36883  13.262  25.339   8.693
 2813POPC   C2B36884  13.345  25.031   8.390
 2813POPC   C3B36885  13.228  25.200   8.030
 2813POPC   C4B36886  13.117  25.246   7.630
 2814POPC   NC336887  14.834  32.702   9.435
 2814POPC   PO436888  15.416  33.170   9.494
 2814POPC   GL136889  15.250  32.892   9.180
 2814POPC   GL236890  14.933  33.004   9.024
 2814POPC   C1A36891  15.358  32.775   8.767
 2814POPC   D2A36892  15.357  33.076   8.434
 2814POPC   C3A36893  15.261  32.956   8.023
 2814POPC   C4A36894  15.613  33.025   7.770
 2814POPC   C1B36895  14.917  33.347   8.708
 2814POPC   C2B36896  14.944  33.372   8.252
 2814POPC   C3B36897  14.957  33.344   7.776
 2814POPC   C4B36898  15.095  33.269   7.343
 2815POPC   NC336899  16.226  16.008   9.602
 2815POPC   PO436900  15.681  15.685   9.659
 2815POPC   GL136901  15.892  15.815   9.276
 2815POPC   GL236902  16.176  15.570   9.306
 2815POPC   C1A36903  15.885  16.031   8.847
 2815POPC   D2A36904  15.674  16.018   8.421
 2815POPC   C3A36905  15.916  16.006   8.034
 2815POPC   C4A36906  16.017  16.321   7.685
 2815POPC   C1B36907  16.349  15.728   8.896
 2815POPC   C2B36908  16.430  15.868   8.446
 2815POPC   C3B36909  16.316  15.674   8.058
 2815POPC   C4B36910  16.205  15.833   7.646
 2816POPC   NC336911  17.540   6.771   9.709
 2816POPC   PO436912  17.802   6.292   9.318
 2816POPC   GL136913  17.868   6.669   9.107
 2816POPC   GL236914  17.588   6.888   9.185
 2816POPC   C1A36915  17.896   6.645   8.657
 2816POPC   D2A36916  17.578   6.394   8.401
 2816POPC   C3A36917  17.703   6.362   7.977
 2816POPC   C4A36918  17.955   6.359   7.627
 2816POPC   C1B36919  17.421   6.757   8.773
 2816POPC   C2B36920  17.506   6.878   8.316
 2816POPC   C3B36921  17.287   6.749   7.928
 2816POPC   C4B36922  17.291   6.943   7.501
 2817POPC   NC336923  12.124   7.218   9.683
 2817POPC   PO436924  12.067   7.846   9.890
 2817POPC   GL136925  12.096   7.909   9.240
 2817POPC   GL236926  11.894   7.626   9.159
 2817POPC   C1A36927  12.204   7.721   8.764
 2817POPC   D2A36928  12.243   7.663   8.280
 2817POPC   C3A36929  12.270   7.258   8.047
 2817POPC   C4A36930  12.303   7.031   7.632
 2817POPC   C1B36931  11.692   7.618   8.767
 2817POPC   C2B36932  11.752   7.763   8.368
 2817POPC   C3B36933  11.840   7.585   7.961
 2817POPC   C4B36934  12.073   7.484   7.632
 2818POPC   NC336935  29.749  37.309   9.364
 2818POPC   PO436936  29.092  37.098   9.463
 2818POPC   GL136937  29.112  36.870   9.050
 2818POPC   GL236938  28.887  36.569   9.026
 2818POPC   C1A36939  29.239  37.112   8.661
 2818POPC   D2A36940  29.329  37.295   8.255
 2818POPC   C3A36941  29.099  37.080   7.965
 2818POPC   C4A36942  29.240  36.941   7.584
 2818POPC   C1B36943  28.871  36.750   8.597
 2818POPC   C2B36944  29.223  36.700   8.330
 2818POPC   C3B36945  29.200  36.554   7.946
 2818POPC   C4B36946  28.827  36.664   7.803
 2819POPC   NC336947   9.694  26.515   9.839
 2819POPC   PO436948   9.757  27.039   9.412
 2819POPC   GL136949   9.751  26.997   9.015
 2819POPC   GL236950   9.793  26.641   8.973
 2819POPC   C1A36951   9.666  26.975   8.604
 2819POPC   D2A36952   9.974  26.743   8.429
 2819POPC   C3A36953   9.882  26.849   8.029
 2819POPC   C4A36954   9.671  26.662   7.724
 2819POPC   C1B36955   9.579  26.466   8.645
 2819POPC   C2B36956   9.613  26.440   8.211
 2819POPC   C3B36957   9.383  26.286   7.886
 2819POPC   C4B36958   9.146  26.487   7.664
 2820POPC   NC336959  22.567  36.941   9.489
 2820POPC   PO436960  22.000  37.353   9.591
 2820POPC   GL136961  22.008  36.934   9.277
 2820POPC   GL236962  22.268  36.686   9.149
 2820POPC   C1A36963  21.845  36.687   8.885
 2820POPC   D2A36964  22.019  36.576   8.502
 2820POPC   C3A36965  21.819  36.790   8.159
 2820POPC   C4A36966  21.914  36.929   7.729
 2820POPC   C1B36967  22.390  36.872   8.727
 2820POPC   C2B36968  22.268  36.991   8.298
 2820POPC   C3B36969  22.371  37.092   7.886
 2820POPC   C4B36970  22.329  37.020   7.439
 2821POPC   NC336971  14.206  27.699   9.385
 2821POPC   PO436972  14.807  27.991   9.525
 2821POPC   GL136973  14.637  27.819   9.132
 2821POPC   GL236974  14.627  27.479   9.108
 2821POPC   C1A36975  14.453  27.774   8.712
 2821POPC   D2A36976  14.651  27.835   8.295
 2821POPC   C3A36977  14.493  27.800   7.859
 2821POPC   C4A36978  14.697  27.618   7.452
 2821POPC   C1B36979  14.514  27.260   8.771
 2821POPC   C2B36980  14.328  27.383   8.407
 2821POPC   C3B36981  14.462  27.338   8.026
 2821POPC   C4B36982  14.288  27.367   7.632
 2822POPC   NC336983   3.109  23.217   9.369
 2822POPC   PO436984   2.609  23.123   9.790
 2822POPC   GL136985   2.636  23.002   9.301
 2822POPC   GL236986   2.688  23.282   9.090
 2822POPC   C1A36987   2.889  22.853   8.854
 2822POPC   D2A36988   3.200  22.975   8.486
 2822POPC   C3A36989   3.028  22.989   8.067
 2822POPC   C4A36990   2.680  22.762   7.850
 2822POPC   C1B36991   2.875  23.331   8.684
 2822POPC   C2B36992   2.640  23.071   8.393
 2822POPC   C3B36993   2.506  23.219   8.003
 2822POPC   C4B36994   2.793  23.241   7.691
 2823POPC   NC336995  22.155  16.619   9.580
 2823POPC   PO436996  22.747  16.450   9.438
 2823POPC   GL136997  22.385  16.605   9.144
 2823POPC   GL236998  21.958  16.499   9.135
 2823POPC   C1A36999  22.217  16.750   8.783
 2823POPC   D2A37000  22.175  16.960   8.412
 2823POPC   C3A37001  22.305  16.759   8.076
 2823POPC   C4A37002  22.318  16.901   7.664
 2823POPC   C1B37003  21.728  16.634   8.730
 2823POPC   C2B37004  21.750  16.718   8.267
 2823POPC   C3B37005  21.872  16.721   7.840
 2823POPC   C4B37006  21.947  16.723   7.364
 2824POPC   NC337007  22.479  28.729   9.477
 2824POPC   PO437008  22.181  29.358   9.350
 2824POPC   GL137009  22.024  29.225   8.971
 2824POPC   GL237010  22.136  28.907   9.112
 2824POPC   C1A37011  22.034  29.236   8.507
 2824POPC   D2A37012  22.337  29.393   8.196
 2824POPC   C3A37013  22.169  29.387   7.783
 2824POPC   C4A37014  22.034  29.412   7.351
 2824POPC   C1B37015  22.079  28.776   8.731
 2824POPC   C2B37016  21.892  28.725   8.343
 2824POPC   C3B37017  21.977  28.956   7.994
 2824POPC   C4B37018  22.003  28.941   7.560
 2825POPC   NC337019  13.772  17.185   9.424
 2825POPC   PO437020  14.323  16.844   9.556
 2825POPC   GL137021  14.492  16.767   9.177
 2825POPC   GL237022  14.661  17.029   8.978
 2825POPC   C1A37023  14.508  16.544   8.806
 2825POPC   D2A37024  14.336  16.626   8.422
 2825POPC   C3A37025  14.450  16.552   8.016
 2825POPC   C4A37026  14.135  16.669   7.749
 2825POPC   C1B37027  14.204  16.958   8.814
 2825POPC   C2B37028  14.043  17.051   8.425
 2825POPC   C3B37029  14.282  17.053   8.066
 2825POPC   C4B37030  14.537  17.013   7.710
 2826POPC   NC337031  43.875  16.964   9.436
 2826POPC   PO437032  43.577  16.394   9.537
 2826POPC   GL137033  43.816  16.523   9.168
 2826POPC   GL237034  43.567  16.734   9.088
 2826POPC   C1A37035  43.989  16.435   8.743
 2826POPC   D2A37036  43.828  16.271   8.314
 2826POPC   C3A37037  43.946  16.382   7.897
 2826POPC   C4A37038  43.954  16.484   7.449
 2826POPC   C1B37039  43.883  16.929   8.790
 2826POPC   C2B37040  43.924  16.829   8.358
 2826POPC   C3B37041  43.898  16.880   7.909
 2826POPC   C4B37042  44.095  16.970   7.513
 2827POPC   NC337043  39.617  23.327   9.464
 2827POPC   PO437044  40.158  23.119   9.808
 2827POPC   GL137045  40.083  22.974   9.361
 2827POPC   GL237046  40.100  22.592   9.309
 2827POPC   C1A37047  40.173  23.045   8.922
 2827POPC   D2A37048  40.187  22.960   8.470
 2827POPC   C3A37049  39.991  23.036   8.071
 2827POPC   C4A37050  39.951  23.182   7.660
 2827POPC   C1B37051  40.019  22.576   8.854
 2827POPC   C2B37052  40.130  22.466   8.420
 2827POPC   C3B37053  39.996  22.546   8.037
 2827POPC   C4B37054  40.186  22.703   7.701
 2828POPC   NC337055   4.899  43.799   9.393
 2828POPC   PO437056   4.933  43.074   9.535
 2828POPC   GL137057   5.062  43.298   9.204
 2828POPC   GL237058   4.732  43.399   9.147
 2828POPC   C1A37059   5.242  43.139   8.815
 2828POPC   D2A37060   5.232  43.324   8.410
 2828POPC   C3A37061   5.220  43.122   8.031
 2828POPC   C4A37062   5.345  43.417   7.754
 2828POPC   C1B37063   4.722  43.069   8.864
 2828POPC   C2B37064   4.751  43.119   8.437
 2828POPC   C3B37065   4.675  43.062   8.001
 2828POPC   C4B37066   4.869  43.177   7.636
 2829POPC   NC337067  26.536  36.845   9.515
 2829POPC   PO437068  27.091  37.283   9.470
 2829POPC   GL137069  26.878  37.029   9.192
 2829POPC   GL237070  26.596  37.210   9.052
 2829POPC   C1A37071  26.979  36.933   8.794
 2829POPC   D2A37072  26.905  37.211   8.497
 2829POPC   C3A37073  27.021  37.141   8.065
 2829POPC   C4A37074  27.157  36.773   7.833
 2829POPC   C1B37075  26.486  36.981   8.667
 2829POPC   C2B37076  26.707  36.806   8.290
 2829POPC   C3B37077  26.537  37.020   7.916
 2829POPC   C4B37078  26.462  36.916   7.477
 2830POPC   NC337079  11.217  26.764   9.472
 2830POPC   PO437080  11.916  26.735   9.410
 2830POPC   GL137081  11.587  26.918   9.153
 2830POPC   GL237082  11.447  26.569   9.054
 2830POPC   C1A37083  11.301  26.986   8.802
 2830POPC   D2A37084  11.373  26.669   8.468
 2830POPC   C3A37085  11.537  26.766   8.045
 2830POPC   C4A37086  11.327  26.884   7.673
 2830POPC   C1B37087  11.004  26.562   8.863
 2830POPC   C2B37088  10.910  26.467   8.421
 2830POPC   C3B37089  11.067  26.521   7.976
 2830POPC   C4B37090  10.986  26.444   7.532
 2831POPC   NC337091  39.677  18.268   9.404
 2831POPC   PO437092  40.173  18.492   9.235
 2831POPC   GL137093  40.005  18.137   9.062
 2831POPC   GL237094  39.732  17.848   9.149
 2831POPC   C1A37095  39.934  18.278   8.657
 2831POPC   D2A37096  40.280  18.471   8.474
 2831POPC   C3A37097  40.137  18.456   8.081
 2831POPC   C4A37098  40.291  18.296   7.709
 2831POPC   C1B37099  39.951  17.774   8.740
 2831POPC   C2B37100  40.047  17.930   8.300
 2831POPC   C3B37101  39.765  18.095   7.970
 2831POPC   C4B37102  39.841  18.108   7.528
 2832POPC   NC337103  33.626  28.913   9.515
 2832POPC   PO437104  32.985  28.991   9.626
 2832POPC   GL137105  32.920  28.834   9.205
 2832POPC   GL237106  33.255  28.742   9.212
 2832POPC   C1A37107  32.755  29.014   8.805
 2832POPC   D2A37108  32.839  29.065   8.364
 2832POPC   C3A37109  32.757  29.291   7.982
 2832POPC   C4A37110  32.771  28.937   7.706
 2832POPC   C1B37111  33.281  28.989   8.829
 2832POPC   C2B37112  33.365  29.155   8.409
 2832POPC   C3B37113  33.318  29.139   7.960
 2832POPC   C4B37114  33.281  28.798   7.652
 2833POPC   NC337115  31.380  31.384   9.416
 2833POPC   PO437116  31.771  31.873   9.438
 2833POPC   GL137117  31.645  31.622   9.054
 2833POPC   GL237118  31.688  31.208   9.060
 2833POPC   C1A37119  31.508  31.741   8.626
 2833POPC   D2A37120  31.751  31.768   8.248
 2833POPC   C3A37121  31.670  31.534   7.869
 2833POPC   C4A37122  31.666  31.645   7.412
 2833POPC   C1B37123  31.448  31.236   8.685
 2833POPC   C2B37124  31.451  31.250   8.264
 2833POPC   C3B37125  31.193  31.314   7.923
 2833POPC   C4B37126  31.207  31.673   7.657
 2834POPC   NC337127  26.628  42.374   9.455
 2834POPC   PO437128  27.110  42.739   9.711
 2834POPC   GL137129  27.038  42.578   9.267
 2834POPC   GL237130  27.034  42.177   9.187
 2834POPC   C1A37131  26.954  42.553   8.822
 2834POPC   D2A37132  27.152  42.224   8.549
 2834POPC   C3A37133  27.192  42.305   8.130
 2834POPC   C4A37134  26.922  42.412   7.768
 2834POPC   C1B37135  26.740  42.087   8.831
 2834POPC   C2B37136  26.597  42.295   8.470
 2834POPC   C3B37137  26.572  42.230   8.075
 2834POPC   C4B37138  26.569  42.041   7.686
 2835POPC   NC337139  37.565  44.785   9.501
 2835POPC   PO437140  38.059   0.309   9.593
 2835POPC   GL137141  37.936  44.972   9.211
 2835POPC   GL237142  37.544  44.957   9.041
 2835POPC   C1A37143  37.949  44.750   8.801
 2835POPC   D2A37144  38.010  44.471   8.457
 2835POPC   C3A37145  37.811  44.519   8.091
 2835POPC   C4A37146  37.653  44.878   7.974
 2835POPC   C1B37147  37.468  44.581   8.824
 2835POPC   C2B37148  37.373  44.553   8.385
 2835POPC   C3B37149  37.401  44.196   8.100
 2835POPC   C4B37150  37.514  44.256   7.657
 2836POPC   NC337151  22.099  31.419   9.413
 2836POPC   PO437152  22.388  32.004   9.352
 2836POPC   GL137153  22.381  31.698   9.055
 2836POPC   GL237154  22.017  31.731   9.008
 2836POPC   C1A37155  22.296  31.355   8.764
 2836POPC   D2A37156  21.960  31.160   8.504
 2836POPC   C3A37157  21.994  31.260   8.071
 2836POPC   C4A37158  22.352  31.226   7.767
 2836POPC   C1B37159  21.953  31.675   8.551
 2836POPC   C2B37160  22.217  31.706   8.189
 2836POPC   C3B37161  22.082  31.694   7.754
 2836POPC   C4B37162  21.969  31.815   7.291
 2837POPC   NC337163  31.796  22.923   9.629
 2837POPC   PO437164  31.102  22.867   9.458
 2837POPC   GL137165  31.385  22.852   9.159
 2837POPC   GL237166  31.572  23.125   9.194
 2837POPC   C1A37167  31.316  22.934   8.728
 2837POPC   D2A37168  31.508  23.098   8.382
 2837POPC   C3A37169  31.390  22.879   8.004
 2837POPC   C4A37170  31.477  22.480   7.836
 2837POPC   C1B37171  31.783  23.363   8.884
 2837POPC   C2B37172  31.935  23.385   8.469
 2837POPC   C3B37173  31.835  23.394   8.039
 2837POPC   C4B37174  31.694  23.175   7.715
 2838POPC   NC337175  22.714  23.241   9.536
 2838POPC   PO437176  23.225  22.825   9.486
 2838POPC   GL137177  22.887  22.919   9.171
 2838POPC   GL237178  22.770  22.606   9.064
 2838POPC   C1A37179  22.806  22.999   8.713
 2838POPC   D2A37180  22.539  22.937   8.333
 2838POPC   C3A37181  22.738  23.009   7.939
 2838POPC   C4A37182  22.860  23.173   7.524
 2838POPC   C1B37183  23.171  22.648   8.830
 2838POPC   C2B37184  23.289  22.942   8.494
 2838POPC   C3B37185  23.310  22.806   8.063
 2838POPC   C4B37186  23.080  22.726   7.680
 2839POPC   NC337187  31.056  20.590   9.576
 2839POPC   PO437188  30.538  20.782   9.285
 2839POPC   GL137189  30.931  20.887   9.097
 2839POPC   GL237190  30.963  20.576   9.047
 2839POPC   C1A37191  30.930  20.939   8.638
 2839POPC   D2A37192  30.716  20.720   8.289
 2839POPC   C3A37193  30.737  20.800   7.845
 2839POPC   C4A37194  30.477  20.807   7.450
 2839POPC   C1B37195  30.791  20.386   8.676
 2839POPC   C2B37196  30.884  20.225   8.271
 2839POPC   C3B37197  30.992  20.118   7.860
 2839POPC   C4B37198  30.760  20.359   7.582
 2840POPC   NC337199  29.471  13.073   9.348
 2840POPC   PO437200  29.825  12.679   9.673
 2840POPC   GL137201  29.931  12.886   9.206
 2840POPC   GL237202  30.205  13.068   9.077
 2840POPC   C1A37203  29.887  12.736   8.737
 2840POPC   D2A37204  29.771  12.517   8.358
 2840POPC   C3A37205  29.910  12.718   7.965
 2840POPC   C4A37206  29.748  12.736   7.546
 2840POPC   C1B37207  30.381  12.869   8.695
 2840POPC   C2B37208  30.312  12.620   8.309
 2840POPC   C3B37209  30.394  12.609   7.861
 2840POPC   C4B37210  30.177  12.515   7.467
 2841POPC   NC337211  26.778  25.566   9.551
 2841POPC   PO437212  26.516  24.965   9.569
 2841POPC   GL137213  26.667  25.204   9.216
 2841POPC   GL237214  26.421  25.418   9.059
 2841POPC   C1A37215  26.853  25.279   8.830
 2841POPC   D2A37216  26.654  25.310   8.443
 2841POPC   C3A37217  26.804  25.030   8.151
 2841POPC   C4A37218  26.838  25.005   7.718
 2841POPC   C1B37219  26.272  25.702   8.743
 2841POPC   C2B37220  26.389  25.796   8.317
 2841POPC   C3B37221  26.682  25.623   8.030
 2841POPC   C4B37222  26.595  25.439   7.633
 2842POPC   NC337223  18.004  30.978   9.630
 2842POPC   PO437224  18.234  30.335   9.602
 2842POPC   GL137225  18.339  30.417   9.163
 2842POPC   GL237226  18.290  30.774   9.137
 2842POPC   C1A37227  18.423  30.554   8.718
 2842POPC   D2A37228  18.539  30.358   8.348
 2842POPC   C3A37229  18.503  30.535   7.964
 2842POPC   C4A37230  18.103  30.558   7.798
 2842POPC   C1B37231  18.153  31.034   8.724
 2842POPC   C2B37232  18.126  31.193   8.295
 2842POPC   C3B37233  18.264  31.043   7.903
 2842POPC   C4B37234  18.091  31.041   7.498
 2843POPC   NC337235  12.959  10.641   9.841
 2843POPC   PO437236  12.870  10.109   9.466
 2843POPC   GL137237  12.734  10.264   9.109
 2843POPC   GL237238  12.848  10.585   9.179
 2843POPC   C1A37239  12.701  10.289   8.668
 2843POPC   D2A37240  12.979  10.141   8.366
 2843POPC   C3A37241  13.013  10.359   7.983
 2843POPC   C4A37242  12.845  10.618   7.671
 2843POPC   C1B37243  13.077  10.610   8.790
 2843POPC   C2B37244  12.909  10.692   8.355
 2843POPC   C3B37245  13.097  10.908   7.982
 2843POPC   C4B37246  13.178  10.965   7.504
 2844POPC   NC337247  22.526   2.984   9.414
 2844POPC   PO437248  23.117   3.185   9.398
 2844POPC   GL137249  22.955   2.801   9.119
 2844POPC   GL237250  22.739   2.529   9.319
 2844POPC   C1A37251  22.953   2.670   8.647
 2844POPC   D2A37252  23.048   2.533   8.227
 2844POPC   C3A37253  23.050   2.727   7.808
 2844POPC   C4A37254  22.682   3.016   7.725
 2844POPC   C1B37255  22.682   2.352   8.929
 2844POPC   C2B37256  22.642   2.307   8.440
 2844POPC   C3B37257  22.584   2.611   8.080
 2844POPC   C4B37258  22.612   2.473   7.690
 2845POPC   NC337259  25.768  31.170   9.296
 2845POPC   PO437260  25.720  31.870   9.508
 2845POPC   GL137261  25.718  31.691   9.145
 2845POPC   GL237262  26.069  31.729   9.075
 2845POPC   C1A37263  25.644  31.518   8.761
 2845POPC   D2A37264  25.737  31.255   8.423
 2845POPC   C3A37265  25.856  31.507   8.083
 2845POPC   C4A37266  25.653  31.517   7.679
 2845POPC   C1B37267  26.144  31.353   8.801
 2845POPC   C2B37268  26.189  31.034   8.499
 2845POPC   C3B37269  26.271  31.161   8.086
 2845POPC   C4B37270  26.103  31.259   7.701
 2846POPC   NC337271  37.709  40.586   9.383
 2846POPC   PO437272  37.711  40.050   9.899
 2846POPC   GL137273  37.680  40.075   9.395
 2846POPC   GL237274  37.953  40.188   9.145
 2846POPC   C1A37275  37.555  39.962   8.948
 2846POPC   D2A37276  37.595  39.860   8.510
 2846POPC   C3A37277  37.357  40.053   8.145
 2846POPC   C4A37278  37.587  39.981   7.753
 2846POPC   C1B37279  37.923  40.237   8.682
 2846POPC   C2B37280  37.810  40.253   8.256
 2846POPC   C3B37281  37.992  40.244   7.880
 2846POPC   C4B37282  37.911  40.370   7.458
 2847POPC   NC337283  35.146  19.048   9.552
 2847POPC   PO437284  34.555  18.796   9.509
 2847POPC   GL137285  34.826  18.888   9.171
 2847POPC   GL237286  34.670  19.217   9.141
 2847POPC   C1A37287  34.779  18.790   8.733
 2847POPC   D2A37288  34.498  18.780   8.368
 2847POPC   C3A37289  34.723  18.766   8.009
 2847POPC   C4A37290  34.759  18.911   7.587
 2847POPC   C1B37291  34.454  19.332   8.754
 2847POPC   C2B37292  34.323  19.289   8.329
 2847POPC   C3B37293  34.441  19.203   7.924
 2847POPC   C4B37294  34.292  19.171   7.532
 2848POPC   NC337295   5.266  20.086   9.338
 2848POPC   PO437296   4.825  19.610   9.516
 2848POPC   GL137297   4.991  19.743   9.104
 2848POPC   GL237298   5.309  19.624   9.091
 2848POPC   C1A37299   5.084  19.981   8.697
 2848POPC   D2A37300   4.889  19.889   8.278
 2848POPC   C3A37301   5.139  19.917   7.884
 2848POPC   C4A37302   5.156  19.736   7.440
 2848POPC   C1B37303   5.475  19.353   8.758
 2848POPC   C2B37304   5.679  19.461   8.353
 2848POPC   C3B37305   5.549  19.525   7.924
 2848POPC   C4B37306   5.558  19.417   7.512
 2849POPC   NC337307  39.718  24.074   9.386
 2849POPC   PO437308  40.039  23.497   9.369
 2849POPC   GL137309  40.200  23.831   9.137
 2849POPC   GL237310  40.539  23.690   9.136
 2849POPC   C1A37311  40.011  23.943   8.722
 2849POPC   D2A37312  39.838  23.990   8.302
 2849POPC   C3A37313  39.824  23.674   7.955
 2849POPC   C4A37314  39.709  24.009   7.708
 2849POPC   C1B37315  40.268  23.504   8.756
 2849POPC   C2B37316  40.070  23.462   8.362
 2849POPC   C3B37317  40.288  23.416   7.971
 2849POPC   C4B37318  40.293  23.601   7.575
 2850POPC   NC337319   7.244  11.343   9.448
 2850POPC   PO437320   7.953  11.479   9.413
 2850POPC   GL137321   7.649  11.333   9.135
 2850POPC   GL237322   7.548  11.617   9.084
 2850POPC   C1A37323   7.363  11.203   8.795
 2850POPC   D2A37324   7.273  11.011   8.389
 2850POPC   C3A37325   7.598  11.112   8.087
 2850POPC   C4A37326   7.440  11.132   7.682
 2850POPC   C1B37327   7.725  11.755   8.722
 2850POPC   C2B37328   7.503  11.513   8.396
 2850POPC   C3B37329   7.271  11.515   8.013
 2850POPC   C4B37330   7.492  11.750   7.700
 2851POPC   NC337331  19.140  15.787   9.510
 2851POPC   PO437332  18.929  16.459   9.426
 2851POPC   GL137333  18.925  16.079   9.148
 2851POPC   GL237334  19.272  16.143   8.993
 2851POPC   C1A37335  18.988  15.809   8.721
 2851POPC   D2A37336  19.074  16.018   8.282
 2851POPC   C3A37337  19.153  15.864   7.852
 2851POPC   C4A37338  19.308  15.760   7.414
 2851POPC   C1B37339  18.951  16.304   8.705
 2851POPC   C2B37340  18.761  16.457   8.347
 2851POPC   C3B37341  18.902  16.401   7.930
 2851POPC   C4B37342  18.683  16.338   7.545
 2852POPC   NC337343   3.487  18.564   9.434
 2852POPC   PO437344   3.342  19.162   9.529
 2852POPC   GL137345   3.429  18.965   9.104
 2852POPC   GL237346   3.759  18.750   9.058
 2852POPC   C1A37347   3.650  19.082   8.711
 2852POPC   D2A37348   3.487  19.058   8.326
 2852POPC   C3A37349   3.673  19.273   8.017
 2852POPC   C4A37350   3.699  19.059   7.642
 2852POPC   C1B37351   3.453  18.631   8.703
 2852POPC   C2B37352   3.306  18.574   8.269
 2852POPC   C3B37353   3.292  18.835   7.877
 2852POPC   C4B37354   3.152  18.863   7.422
 2853POPC   NC337355  13.161  35.714   9.409
 2853POPC   PO437356  13.619  36.018   9.772
 2853POPC   GL137357  13.778  36.034   9.291
 2853POPC   GL237358  14.013  36.296   9.146
 2853POPC   C1A37359  13.610  35.889   8.879
 2853POPC   D2A37360  13.548  35.640   8.493
 2853POPC   C3A37361  13.530  35.927   8.161
 2853POPC   C4A37362  13.532  36.022   7.728
 2853POPC   C1B37363  14.011  36.512   8.721
 2853POPC   C2B37364  13.868  36.469   8.283
 2853POPC   C3B37365  14.037  36.378   7.840
 2853POPC   C4B37366  13.875  36.223   7.426
 2854POPC   NC337367  32.265   3.229   9.390
 2854POPC   PO437368  31.821   2.688   9.446
 2854POPC   GL137369  32.186   2.747   9.171
 2854POPC   GL237370  32.477   2.467   9.214
 2854POPC   C1A37371  32.255   3.011   8.793
 2854POPC   D2A37372  32.319   2.839   8.404
 2854POPC   C3A37373  32.259   3.018   8.022
 2854POPC   C4A37374  32.049   2.797   7.708
 2854POPC   C1B37375  32.317   2.429   8.791
 2854POPC   C2B37376  32.567   2.400   8.423
 2854POPC   C3B37377  32.773   2.448   8.019
 2854POPC   C4B37378  32.567   2.273   7.654
 2855POPC   NC337379  28.744  40.152   9.285
 2855POPC   PO437380  28.295  39.800   9.672
 2855POPC   GL137381  28.320  39.882   9.192
 2855POPC   GL237382  28.334  40.223   8.963
 2855POPC   C1A37383  28.539  39.815   8.755
 2855POPC   D2A37384  28.575  39.922   8.337
 2855POPC   C3A37385  28.222  40.014   8.062
 2855POPC   C4A37386  28.338  39.807   7.728
 2855POPC   C1B37387  28.739  40.318   8.681
 2855POPC   C2B37388  28.908  40.309   8.254
 2855POPC   C3B37389  28.681  40.178   7.884
 2855POPC   C4B37390  28.503  40.232   7.482
 2856POPC   NC337391   4.330  15.486   9.493
 2856POPC   PO437392   3.936  15.050   9.614
 2856POPC   GL137393   4.205  15.072   9.223
 2856POPC   GL237394   4.589  15.167   9.184
 2856POPC   C1A37395   4.182  15.332   8.856
 2856POPC   D2A37396   4.009  15.336   8.440
 2856POPC   C3A37397   4.128  15.208   8.037
 2856POPC   C4A37398   3.949  15.262   7.665
 2856POPC   C1B37399   4.711  15.357   8.788
 2856POPC   C2B37400   4.535  15.298   8.380
 2856POPC   C3B37401   4.604  15.379   7.939
 2856POPC   C4B37402   4.434  15.063   7.624
 2857POPC   NC337403  39.389  20.872   9.367
 2857POPC   PO437404  39.206  21.355   9.777
 2857POPC   GL137405  39.187  21.440   9.269
 2857POPC   GL237406  38.889  21.662   9.275
 2857POPC   C1A37407  39.357  21.306   8.802
 2857POPC   D2A37408  39.459  21.436   8.330
 2857POPC   C3A37409  39.237  21.257   7.949
 2857POPC   C4A37410  39.260  21.414   7.482
 2857POPC   C1B37411  38.962  21.631   8.816
 2857POPC   C2B37412  38.949  21.484   8.384
 2857POPC   C3B37413  38.987  21.690   7.988
 2857POPC   C4B37414  38.861  21.714   7.576
 2858POPC   NC337415  13.048   8.663   9.566
 2858POPC   PO437416  13.085   7.976   9.560
 2858POPC   GL137417  12.990   8.268   9.241
 2858POPC   GL237418  12.690   8.285   9.306
 2858POPC   C1A37419  12.944   8.315   8.789
 2858POPC   D2A37420  13.042   8.019   8.459
 2858POPC   C3A37421  13.073   8.101   8.006
 2858POPC   C4A37422  13.017   7.724   7.742
 2858POPC   C1B37423  12.494   8.155   8.939
 2858POPC   C2B37424  12.465   8.082   8.478
 2858POPC   C3B37425  12.575   7.972   8.049
 2858POPC   C4B37426  12.703   8.189   7.681
 2859POPC   NC337427   0.784   9.317   9.245
 2859POPC   PO437428   0.590   8.697   9.478
 2859POPC   GL137429   0.400   8.757   9.084
 2859POPC   GL237430   0.358   9.088   9.088
 2859POPC   C1A37431   0.226   8.814   8.673
 2859POPC   D2A37432   0.162   9.033   8.263
 2859POPC   C3A37433   0.259   8.800   7.914
 2859POPC   C4A37434   0.691   8.843   7.772
 2859POPC   C1B37435   0.488   9.246   8.685
 2859POPC   C2B37436   0.867   9.337   8.478
 2859POPC   C3B37437   0.821   9.365   8.056
 2859POPC   C4B37438   0.422   9.304   7.831
 2860POPC   NC337439  31.725   0.328   9.410
 2860POPC   PO437440  31.097   0.610   9.489
 2860POPC   GL137441  31.372   0.583   9.153
 2860POPC   GL237442  31.335   0.231   9.046
 2860POPC   C1A37443  31.493   0.664   8.746
 2860POPC   D2A37444  31.524   0.418   8.367
 2860POPC   C3A37445  31.371   0.545   7.974
 2860POPC   C4A37446  31.493   0.887   7.745
 2860POPC   C1B37447  31.578   0.029   8.706
 2860POPC   C2B37448  31.696  44.927   8.255
 2860POPC   C3B37449  31.852   0.042   7.871
 2860POPC   C4B37450  31.605   0.223   7.611
 2861POPC   NC337451  21.742   3.036   9.229
 2861POPC   PO437452  21.254   2.652   9.486
 2861POPC   GL137453  21.372   2.673   9.073
 2861POPC   GL237454  21.676   2.493   9.169
 2861POPC   C1A37455  21.367   2.812   8.615
 2861POPC   D2A37456  21.208   2.527   8.286
 2861POPC   C3A37457  21.283   2.636   7.879
 2861POPC   C4A37458  21.531   3.006   7.856
 2861POPC   C1B37459  21.771   2.549   8.768
 2861POPC   C2B37460  21.697   2.345   8.412
 2861POPC   C3B37461  21.716   2.581   8.098
 2861POPC   C4B37462  21.760   2.597   7.673
 2862POPC   NC337463  36.106  24.445   9.325
 2862POPC   PO437464  36.129  23.946   9.717
 2862POPC   GL137465  36.466  24.147   9.195
 2862POPC   GL237466  36.371  24.459   8.918
 2862POPC   C1A37467  36.512  24.026   8.736
 2862POPC   D2A37468  36.178  24.215   8.418
 2862POPC   C3A37469  36.303  24.246   7.977
 2862POPC   C4A37470  36.372  24.604   7.692
 2862POPC   C1B37471  35.955  24.571   8.718
 2862POPC   C2B37472  35.886  24.824   8.402
 2862POPC   C3B37473  35.980  24.706   8.017
 2862POPC   C4B37474  35.772  24.846   7.665
 2863POPC   NC337475  16.194  30.213   9.357
 2863POPC   PO437476  15.894  30.674   9.689
 2863POPC   GL137477  15.970  30.717   9.231
 2863POPC   GL237478  16.227  30.996   9.208
 2863POPC   C1A37479  15.842  30.489   8.829
 2863POPC   D2A37480  15.698  30.249   8.414
 2863POPC   C3A37481  15.840  30.468   8.000
 2863POPC   C4A37482  15.686  30.889   7.827
 2863POPC   C1B37483  16.310  30.728   8.832
 2863POPC   C2B37484  16.139  30.627   8.424
 2863POPC   C3B37485  16.161  30.868   8.064
 2863POPC   C4B37486  16.270  30.782   7.675
 2864POPC   NC337487  31.711  17.967   9.514
 2864POPC   PO437488  31.195  18.390   9.414
 2864POPC   GL137489  31.373  18.121   9.147
 2864POPC   GL237490  31.672  18.328   9.134
 2864POPC   C1A37491  31.230  18.108   8.734
 2864POPC   D2A37492  31.349  17.926   8.356
 2864POPC   C3A37493  31.209  18.197   8.046
 2864POPC   C4A37494  31.107  18.394   7.676
 2864POPC   C1B37495  31.723  18.463   8.719
 2864POPC   C2B37496  31.705  18.288   8.290
 2864POPC   C3B37497  31.703  18.184   7.867
 2864POPC   C4B37498  31.787  18.523   7.571
 2865POPC   NC337499  31.626  18.710   9.500
 2865POPC   PO437500  31.115  19.137   9.748
 2865POPC   GL137501  31.266  19.234   9.294
 2865POPC   GL237502  31.457  18.981   9.112
 2865POPC   C1A37503  31.196  19.314   8.813
 2865POPC   D2A37504  31.361  19.362   8.374
 2865POPC   C3A37505  31.341  19.120   7.977
 2865POPC   C4A37506  31.469  18.661   7.941
 2865POPC   C1B37507  31.715  19.176   8.811
 2865POPC   C2B37508  31.868  19.305   8.422
 2865POPC   C3B37509  31.848  19.012   8.064
 2865POPC   C4B37510  31.718  19.022   7.617
 2866POPC   NC337511  12.352  41.109   9.522
 2866POPC   PO437512  11.808  40.718   9.599
 2866POPC   GL137513  12.039  40.736   9.209
 2866POPC   GL237514  12.335  40.523   9.260
 2866POPC   C1A37515  12.120  41.001   8.826
 2866POPC   D2A37516  12.322  40.949   8.423
 2866POPC   C3A37517  12.124  40.976   8.032
 2866POPC   C4A37518  12.200  40.802   7.643
 2866POPC   C1B37519  12.294  40.512   8.794
 2866POPC   C2B37520  12.029  40.506   8.438
 2866POPC   C3B37521  12.197  40.463   8.042
 2866POPC   C4B37522  12.103  40.302   7.654
 2867POPC   NC337523  31.886  30.771   9.712
 2867POPC   PO437524  32.216  30.257   9.341
 2867POPC   GL137525  32.295  30.719   9.173
 2867POPC   GL237526  32.500  31.015   9.155
 2867POPC   C1A37527  32.101  30.867   8.776
 2867POPC   D2A37528  32.119  30.482   8.484
 2867POPC   C3A37529  32.411  30.472   8.141
 2867POPC   C4A37530  32.492  30.418   7.717
 2867POPC   C1B37531  32.610  30.847   8.749
 2867POPC   C2B37532  32.398  30.937   8.365
 2867POPC   C3B37533  32.248  30.970   7.970
 2867POPC   C4B37534  32.198  30.809   7.559
 2868POPC   NC337535  25.371  13.980   9.416
 2868POPC   PO437536  25.040  14.570   9.460
 2868POPC   GL137537  25.231  14.398   9.153
 2868POPC   GL237538  25.548  14.498   9.226
 2868POPC   C1A37539  25.114  14.328   8.755
 2868POPC   D2A37540  25.160  14.636   8.474
 2868POPC   C3A37541  25.172  14.458   8.103
 2868POPC   C4A37542  25.271  14.644   7.747
 2868POPC   C1B37543  25.622  14.311   8.823
 2868POPC   C2B37544  25.545  14.254   8.386
 2868POPC   C3B37545  25.651  14.351   7.952
 2868POPC   C4B37546  25.730  14.519   7.539
 2869POPC   NC337547  37.397   7.529   9.660
 2869POPC   PO437548  37.812   6.997   9.615
 2869POPC   GL137549  37.681   7.343   9.278
 2869POPC   GL237550  37.334   7.528   9.157
 2869POPC   C1A37551  37.777   7.549   8.885
 2869POPC   D2A37552  37.996   7.536   8.499
 2869POPC   C3A37553  37.842   7.668   8.098
 2869POPC   C4A37554  37.749   7.433   7.740
 2869POPC   C1B37555  37.258   7.714   8.737
 2869POPC   C2B37556  37.380   7.592   8.322
 2869POPC   C3B37557  37.357   7.284   8.023
 2869POPC   C4B37558  37.284   7.258   7.570
 2870POPC   NC337559  43.150  37.022   9.649
 2870POPC   PO437560  42.682  36.527   9.467
 2870POPC   GL137561  42.901  36.847   9.205
 2870POPC   GL237562  42.863  37.204   9.301
 2870POPC   C1A37563  43.126  36.795   8.796
 2870POPC   D2A37564  43.260  36.665   8.378
 2870POPC   C3A37565  43.009  36.819   8.053
 2870POPC   C4A37566  43.217  36.989   7.710
 2870POPC   C1B37567  42.917  37.256   8.869
 2870POPC   C2B37568  42.838  37.267   8.424
 2870POPC   C3B37569  42.966  37.343   8.000
 2870POPC   C4B37570  42.730  37.141   7.707
 2871POPC   NC337571  19.582  37.964   9.391
 2871POPC   PO437572  19.796  37.369   9.559
 2871POPC   GL137573  19.872  37.570   9.161
 2871POPC   GL237574  20.051  37.896   9.201
 2871POPC   C1A37575  19.805  37.461   8.716
 2871POPC   D2A37576  19.504  37.451   8.339
 2871POPC   C3A37577  19.719  37.615   7.965
 2871POPC   C4A37578  19.884  37.409   7.593
 2871POPC   C1B37579  19.981  37.956   8.755
 2871POPC   C2B37580  19.875  38.055   8.307
 2871POPC   C3B37581  19.951  38.075   7.837
 2871POPC   C4B37582  19.997  37.872   7.391
 2872POPC   NC337583   6.179  42.451   9.479
 2872POPC   PO437584   5.438  42.484   9.459
 2872POPC   GL137585   5.779  42.259   9.207
 2872POPC   GL237586   5.873  42.582   9.086
 2872POPC   C1A37587   6.069  42.172   8.813
 2872POPC   D2A37588   6.275  42.087   8.373
 2872POPC   C3A37589   6.023  42.271   8.005
 2872POPC   C4A37590   5.621  42.164   7.775
 2872POPC   C1B37591   5.517  42.635   8.820
 2872POPC   C2B37592   5.425  42.372   8.477
 2872POPC   C3B37593   5.504  42.572   8.072
 2872POPC   C4B37594   5.792  42.670   7.741
 2873POPC   NC337595  33.236   3.922   9.874
 2873POPC   PO437596  32.843   4.422   9.549
 2873POPC   GL137597  33.013   4.408   9.141
 2873POPC   GL237598  33.128   4.726   9.054
 2873POPC   C1A37599  32.879   4.199   8.764
 2873POPC   D2A37600  32.779   3.853   8.486
 2873POPC   C3A37601  32.832   3.985   8.079
 2873POPC   C4A37602  32.965   4.309   7.805
 2873POPC   C1B37603  33.361   4.457   8.755
 2873POPC   C2B37604  33.215   4.328   8.335
 2873POPC   C3B37605  33.418   4.503   7.968
 2873POPC   C4B37606  33.387   4.438   7.535
 2874POPC   NC337607  11.694  14.697   9.493
 2874POPC   PO437608  12.329  14.285   9.486
 2874POPC   GL137609  12.103  14.540   9.214
 2874POPC   GL237610  12.354  14.716   9.045
 2874POPC   C1A37611  11.896  14.683   8.824
 2874POPC   D2A37612  12.090  14.591   8.438
 2874POPC   C3A37613  11.912  14.326   8.148
 2874POPC   C4A37614  11.886  14.510   7.748
 2874POPC   C1B37615  12.356  14.340   8.803
 2874POPC   C2B37616  12.496  14.251   8.374
 2874POPC   C3B37617  12.378  14.429   7.976
 2874POPC   C4B37618  12.309  14.297   7.558
 2875POPC   NC337619  41.793  30.101   9.501
 2875POPC   PO437620  41.160  29.725   9.446
 2875POPC   GL137621  41.425  29.876   9.131
 2875POPC   GL237622  41.534  30.226   9.101
 2875POPC   C1A37623  41.332  30.007   8.708
 2875POPC   D2A37624  41.534  30.083   8.356
 2875POPC   C3A37625  41.411  30.034   7.939
 2875POPC   C4A37626  41.224  30.095   7.549
 2875POPC   C1B37627  41.857  30.096   8.800
 2875POPC   C2B37628  42.004  29.896   8.420
 2875POPC   C3B37629  41.929  30.060   8.038
 2875POPC   C4B37630  41.901  29.961   7.652
 2876POPC   NC337631  33.541   0.075   9.457
 2876POPC   PO437632  33.846   0.662   9.542
 2876POPC   GL137633  34.046   0.474   9.208
 2876POPC   GL237634  33.720   0.465   9.074
 2876POPC   C1A37635  34.104   0.335   8.773
 2876POPC   D2A37636  33.891   0.110   8.456
 2876POPC   C3A37637  33.986   0.208   8.032
 2876POPC   C4A37638  33.820   0.199   7.611
 2876POPC   C1B37639  33.470   0.341   8.698
 2876POPC   C2B37640  33.334   0.532   8.315
 2876POPC   C3B37641  33.490   0.458   7.922
 2876POPC   C4B37642  33.771   0.700   7.713
 2877POPC   NC337643   8.638  44.211   9.630
 2877POPC   PO437644   7.982  43.894   9.572
 2877POPC   GL137645   7.995  44.045   9.210
 2877POPC   GL237646   8.316  44.225   9.243
 2877POPC   C1A37647   7.879  43.868   8.829
 2877POPC   D2A37648   8.115  43.733   8.470
 2877POPC   C3A37649   7.906  43.763   8.088
 2877POPC   C4A37650   8.063  43.682   7.700
 2877POPC   C1B37651   8.387  44.004   8.870
 2877POPC   C2B37652   8.389  44.174   8.460
 2877POPC   C3B37653   8.373  43.975   8.058
 2877POPC   C4B37654   8.502  43.915   7.659
 2878POPC   NC337655  16.210  21.082   9.769
 2878POPC   PO437656  15.901  21.598   9.529
 2878POPC   GL137657  15.756  21.475   9.136
 2878POPC   GL237658  15.541  21.191   9.194
 2878POPC   C1A37659  15.902  21.535   8.692
 2878POPC   D2A37660  16.271  21.458   8.424
 2878POPC   C3A37661  16.240  21.594   8.020
 2878POPC   C4A37662  16.278  21.393   7.668
 2878POPC   C1B37663  15.773  21.044   8.842
 2878POPC   C2B37664  15.799  20.936   8.441
 2878POPC   C3B37665  15.976  21.148   8.091
 2878POPC   C4B37666  15.780  21.392   7.794
 2879POPC   NC337667   6.612   0.308   9.839
 2879POPC   PO437668   6.671  44.703   9.540
 2879POPC   GL137669   6.679  44.697   9.121
 2879POPC   GL237670   6.586   0.028   9.108
 2879POPC   C1A37671   6.621  44.563   8.706
 2879POPC   D2A37672   6.541  44.771   8.323
 2879POPC   C3A37673   6.319  44.482   8.036
 2879POPC   C4A37674   6.580  44.284   7.721
 2879POPC   C1B37675   6.811   0.041   8.718
 2879POPC   C2B37676   7.115   0.081   8.395
 2879POPC   C3B37677   6.976   0.033   7.977
 2879POPC   C4B37678   6.676  44.770   7.813
 2880POPC   NC337679  34.266   1.664   9.521
 2880POPC   PO437680  34.764   2.159   9.486
 2880POPC   GL137681  34.433   2.075   9.210
 2880POPC   GL237682  34.607   1.777   9.160
 2880POPC   C1A37683  34.385   2.145   8.766
 2880POPC   D2A37684  34.585   2.382   8.439
 2880POPC   C3A37685  34.469   2.251   8.045
 2880POPC   C4A37686  34.743   2.333   7.696
 2880POPC   C1B37687  34.712   1.710   8.746
 2880POPC   C2B37688  34.649   1.847   8.331
 2880POPC   C3B37689  34.847   1.909   7.948
 2880POPC   C4B37690  34.894   1.697   7.579
 2881POPC   NC337691  25.026  27.044   9.758
 2881POPC   PO437692  25.572  26.889   9.442
 2881POPC   GL137693  25.217  26.924   9.126
 2881POPC   GL237694  24.940  27.182   9.162
 2881POPC   C1A37695  25.285  26.734   8.703
 2881POPC   D2A37696  25.612  26.736   8.364
 2881POPC   C3A37697  25.446  26.768   7.960
 2881POPC   C4A37698  25.061  26.570   7.858
 2881POPC   C1B37699  25.020  27.168   8.688
 2881POPC   C2B37700  25.096  27.004   8.265
 2881POPC   C3B37701  25.035  27.144   7.811
 2881POPC   C4B37702  25.061  27.295   7.356
 2882POPC   NC337703  21.851  17.235   9.598
 2882POPC   PO437704  21.193  17.517   9.489
 2882POPC   GL137705  21.272  17.408   9.089
 2882POPC   GL237706  21.607  17.359   9.153
 2882POPC   C1A37707  21.236  17.490   8.636
 2882POPC   D2A37708  21.225  17.703   8.210
 2882POPC   C3A37709  21.394  17.445   7.842
 2882POPC   C4A37710  21.717  17.165   7.588
 2882POPC   C1B37711  21.729  17.666   8.827
 2882POPC   C2B37712  21.698  17.881   8.430
 2882POPC   C3B37713  21.748  17.775   8.023
 2882POPC   C4B37714  21.438  17.968   7.785
 2883POPC   NC337715  33.766  14.234   9.565
 2883POPC   PO437716  33.436  14.767   9.321
 2883POPC   GL137717  33.747  14.482   9.105
 2883POPC   GL237718  33.951  14.143   9.115
 2883POPC   C1A37719  33.677  14.274   8.721
 2883POPC   D2A37720  33.687  14.107   8.346
 2883POPC   C3A37721  33.840  14.356   8.037
 2883POPC   C4A37722  33.698  14.234   7.680
 2883POPC   C1B37723  34.186  14.313   8.761
 2883POPC   C2B37724  34.214  14.143   8.336
 2883POPC   C3B37725  34.229  14.069   7.895
 2883POPC   C4B37726  34.282  14.166   7.496
 2884POPC   NC337727  41.957   1.465   9.599
 2884POPC   PO437728  41.239   1.235   9.629
 2884POPC   GL137729  41.536   1.330   9.298
 2884POPC   GL237730  41.336   1.119   9.075
 2884POPC   C1A37731  41.705   1.392   8.869
 2884POPC   D2A37732  41.541   1.295   8.460
 2884POPC   C3A37733  41.625   1.619   8.163
 2884POPC   C4A37734  41.587   1.477   7.754
 2884POPC   C1B37735  41.622   0.882   8.803
 2884POPC   C2B37736  41.581   0.761   8.373
 2884POPC   C3B37737  41.511   0.976   7.989
 2884POPC   C4B37738  41.748   0.775   7.645
 2885POPC   NC337739  29.710   1.475   9.363
 2885POPC   PO437740  30.179   1.002   9.418
 2885POPC   GL137741  30.028   0.836   9.062
 2885POPC   GL237742  29.707   0.968   9.153
 2885POPC   C1A37743  30.174   0.961   8.698
 2885POPC   D2A37744  30.181   1.368   8.487
 2885POPC   C3A37745  30.139   1.298   8.073
 2885POPC   C4A37746  30.079   0.961   7.750
 2885POPC   C1B37747  29.760   1.226   8.777
 2885POPC   C2B37748  29.768   1.040   8.371
 2885POPC   C3B37749  29.663   1.144   7.979
 2885POPC   C4B37750  29.651   1.500   7.806
 2886POPC   NC337751  22.577  20.737   9.606
 2886POPC   PO437752  23.078  20.344   9.598
 2886POPC   GL137753  22.812  20.382   9.241
 2886POPC   GL237754  22.895  20.714   9.202
 2886POPC   C1A37755  22.810  20.247   8.785
 2886POPC   D2A37756  22.919  20.075   8.359
 2886POPC   C3A37757  23.132  20.332   8.084
 2886POPC   C4A37758  22.968  20.503   7.704
 2886POPC   C1B37759  22.734  20.765   8.819
 2886POPC   C2B37760  22.833  20.635   8.404
 2886POPC   C3B37761  22.603  20.604   8.027
 2886POPC   C4B37762  22.590  20.848   7.638
 2887POPC   NC337763  22.211   3.907   9.371
 2887POPC   PO437764  22.118   3.232   9.422
 2887POPC   GL137765  22.216   3.472   9.053
 2887POPC   GL237766  21.982   3.765   8.950
 2887POPC   C1A37767  22.140   3.409   8.614
 2887POPC   D2A37768  21.960   3.464   8.230
 2887POPC   C3A37769  22.272   3.404   7.897
 2887POPC   C4A37770  21.875   3.387   7.690
 2887POPC   C1B37771  22.394   3.846   8.705
 2887POPC   C2B37772  22.289   3.854   8.252
 2887POPC   C3B37773  22.057   3.863   7.857
 2887POPC   C4B37774  22.240   3.753   7.473
 2888POPC   NC337775  10.171   3.417   9.422
 2888POPC   PO437776   9.511   3.508   9.519
 2888POPC   GL137777   9.646   3.365   9.162
 2888POPC   GL237778   9.678   3.016   9.102
 2888POPC   C1A37779   9.647   3.570   8.795
 2888POPC   D2A37780   9.720   3.474   8.395
 2888POPC   C3A37781   9.558   3.726   8.068
 2888POPC   C4A37782   9.404   3.707   7.666
 2888POPC   C1B37783   9.986   3.151   8.778
 2888POPC   C2B37784  10.157   3.221   8.339
 2888POPC   C3B37785   9.924   3.338   7.952
 2888POPC   C4B37786   9.931   3.724   7.701
 2889POPC   NC337787   7.396  17.692   9.530
 2889POPC   PO437788   7.975  17.439   9.531
 2889POPC   GL137789   7.800  17.283   9.131
 2889POPC   GL237790   7.426  17.364   9.145
 2889POPC   C1A37791   7.693  17.484   8.720
 2889POPC   D2A37792   7.495  17.774   8.433
 2889POPC   C3A37793   7.615  17.868   8.020
 2889POPC   C4A37794   7.546  17.638   7.650
 2889POPC   C1B37795   7.174  17.665   8.851
 2889POPC   C2B37796   7.001  17.634   8.420
 2889POPC   C3B37797   7.162  17.591   7.990
 2889POPC   C4B37798   7.117  17.347   7.579
 2890POPC   NC337799   3.675  26.349   9.560
 2890POPC   PO437800   3.071  26.102   9.643
 2890POPC   GL137801   3.302  26.215   9.249
 2890POPC   GL237802   3.606  26.080   9.117
 2890POPC   C1A37803   3.311  26.402   8.849
 2890POPC   D2A37804   3.409  26.181   8.487
 2890POPC   C3A37805   3.474  26.323   8.068
 2890POPC   C4A37806   3.657  26.244   7.681
 2890POPC   C1B37807   3.720  25.855   8.748
 2890POPC   C2B37808   3.799  25.699   8.333
 2890POPC   C3B37809   3.605  25.784   7.935
 2890POPC   C4B37810   3.371  25.794   7.538
 2891POPC   NC337811   4.474  33.267   9.567
 2891POPC   PO437812   3.828  32.960   9.500
 2891POPC   GL137813   4.212  32.956   9.246
 2891POPC   GL237814   4.198  33.265   9.114
 2891POPC   C1A37815   4.375  32.788   8.848
 2891POPC   D2A37816   4.544  32.781   8.458
 2891POPC   C3A37817   4.370  33.043   8.180
 2891POPC   C4A37818   4.213  32.970   7.802
 2891POPC   C1B37819   4.567  33.261   8.880
 2891POPC   C2B37820   4.778  33.228   8.511
 2891POPC   C3B37821   4.730  33.400   8.103
 2891POPC   C4B37822   4.460  33.416   7.740
 2892POPC   NC337823  27.913  35.093   9.349
 2892POPC   PO437824  27.997  34.420   9.507
 2892POPC   GL137825  27.719  34.572   9.164
 2892POPC   GL237826  27.946  34.442   8.945
 2892POPC   C1A37827  27.350  34.556   8.828
 2892POPC   D2A37828  27.159  34.565   8.394
 2892POPC   C3A37829  27.440  34.693   8.040
 2892POPC   C4A37830  27.450  34.584   7.583
 2892POPC   C1B37831  27.808  34.695   8.618
 2892POPC   C2B37832  27.954  34.739   8.213
 2892POPC   C3B37833  27.986  35.047   7.907
 2892POPC   C4B37834  27.841  34.929   7.529
 2893POPC   NC337835   8.395  31.430   9.503
 2893POPC   PO437836   7.699  31.359   9.299
 2893POPC   GL137837   7.994  31.348   8.962
 2893POPC   GL237838   8.293  31.547   8.996
 2893POPC   C1A37839   8.060  31.174   8.566
 2893POPC   D2A37840   8.055  31.187   8.132
 2893POPC   C3A37841   8.006  31.611   8.026
 2893POPC   C4A37842   7.845  31.555   7.630
 2893POPC   C1B37843   8.321  31.641   8.550
 2893POPC   C2B37844   8.490  31.439   8.184
 2893POPC   C3B37845   8.417  31.437   7.741
 2893POPC   C4B37846   8.327  31.569   7.306
 2894POPC   NC337847  40.958   9.581   9.410
 2894POPC   PO437848  40.503  10.075   9.542
 2894POPC   GL137849  40.708  10.140   9.169
 2894POPC   GL237850  41.050  10.001   9.150
 2894POPC   C1A37851  40.552  10.090   8.776
 2894POPC   D2A37852  40.456   9.850   8.419
 2894POPC   C3A37853  40.372  10.114   8.068
 2894POPC   C4A37854  40.436   9.875   7.695
 2894POPC   C1B37855  40.943   9.763   8.774
 2894POPC   C2B37856  41.053   9.750   8.347
 2894POPC   C3B37857  40.823   9.666   7.978
 2894POPC   C4B37858  40.976   9.556   7.578
 2895POPC   NC337859  18.671   4.363   9.656
 2895POPC   PO437860  18.165   4.074   9.530
 2895POPC   GL137861  18.432   4.235   9.202
 2895POPC   GL237862  18.380   4.574   9.096
 2895POPC   C1A37863  18.642   4.226   8.809
 2895POPC   D2A37864  18.854   4.223   8.418
 2895POPC   C3A37865  18.670   4.443   8.118
 2895POPC   C4A37866  18.525   4.165   7.842
 2895POPC   C1B37867  18.164   4.382   8.749
 2895POPC   C2B37868  18.219   4.508   8.335
 2895POPC   C3B37869  18.097   4.406   7.934
 2895POPC   C4B37870  17.853   4.602   7.656
 2896POPC   NC337871  44.778   5.480   9.599
 2896POPC   PO437872  44.617   4.844   9.456
 2896POPC   GL137873  44.534   5.129   9.158
 2896POPC   GL237874  44.868   5.230   9.168
 2896POPC   C1A37875  44.533   5.241   8.737
 2896POPC   D2A37876  44.289   5.250   8.382
 2896POPC   C3A37877  44.453   5.353   8.026
 2896POPC   C4A37878  44.622   5.004   7.848
 2896POPC   C1B37879   0.035   5.122   8.779
 2896POPC   C2B37880  44.931   5.105   8.342
 2896POPC   C3B37881   0.109   4.997   7.941
 2896POPC   C4B37882   0.035   5.106   7.523
 2897POPC   NC337883  41.082  41.931   9.414
 2897POPC   PO437884  40.952  42.519   9.504
 2897POPC   GL137885  40.949  42.502   9.074
 2897POPC   GL237886  40.603  42.539   9.023
 2897POPC   C1A37887  40.886  42.628   8.612
 2897POPC   D2A37888  40.856  42.330   8.282
 2897POPC   C3A37889  41.019  42.450   7.916
 2897POPC   C4A37890  40.937  42.157   7.610
 2897POPC   C1B37891  40.550  42.227   8.686
 2897POPC   C2B37892  40.339  42.310   8.286
 2897POPC   C3B37893  40.410  42.156   7.848
 2897POPC   C4B37894  40.460  42.198   7.382
 2898POPC   NC337895   5.485  35.500   9.355
 2898POPC   PO437896   6.175  35.580   9.524
 2898POPC   GL137897   6.028  35.371   9.171
 2898POPC   GL237898   5.893  35.697   9.106
 2898POPC   C1A37899   6.072  35.061   8.816
 2898POPC   D2A37900   6.022  35.166   8.393
 2898POPC   C3A37901   6.193  35.098   7.998
 2898POPC   C4A37902   5.922  35.345   7.802
 2898POPC   C1B37903   5.744  35.512   8.731
 2898POPC   C2B37904   5.582  35.741   8.391
 2898POPC   C3B37905   5.781  35.860   8.032
 2898POPC   C4B37906   5.907  35.839   7.647
 2899POPC   NC337907   1.699   5.188   9.615
 2899POPC   PO437908   2.317   4.950   9.434
 2899POPC   GL137909   1.941   4.943   9.229
 2899POPC   GL237910   1.958   5.294   9.146
 2899POPC   C1A37911   1.684   4.960   8.869
 2899POPC   D2A37912   1.821   4.890   8.454
 2899POPC   C3A37913   1.868   5.198   8.141
 2899POPC   C4A37914   1.739   5.046   7.760
 2899POPC   C1B37915   2.198   5.127   8.797
 2899POPC   C2B37916   2.306   5.013   8.398
 2899POPC   C3B37917   2.319   4.982   7.982
 2899POPC   C4B37918   2.217   5.327   7.713
 2900POPC   NC337919  25.631  28.955   9.354
 2900POPC   PO437920  25.220  29.377   9.543
 2900POPC   GL137921  25.230  29.258   9.145
 2900POPC   GL237922  25.525  29.435   9.076
 2900POPC   C1A37923  25.058  29.065   8.787
 2900POPC   D2A37924  25.041  29.225   8.377
 2900POPC   C3A37925  25.169  28.983   8.040
 2900POPC   C4A37926  25.169  28.833   7.627
 2900POPC   C1B37927  25.517  29.253   8.682
 2900POPC   C2B37928  25.721  29.187   8.300
 2900POPC   C3B37929  25.637  29.139   7.861
 2900POPC   C4B37930  25.392  29.486   7.764
 2901POPC   NC337931  44.864  16.820   9.468
 2901POPC   PO437932  44.218  16.667   9.482
 2901POPC   GL137933  44.454  16.765   9.110
 2901POPC   GL237934  44.563  17.131   9.106
 2901POPC   C1A37935  44.519  16.518   8.720
 2901POPC   D2A37936  44.291  16.458   8.330
 2901POPC   C3A37937  44.462  16.462   7.940
 2901POPC   C4A37938  44.453  16.606   7.479
 2901POPC   C1B37939  44.449  17.026   8.649
 2901POPC   C2B37940  44.664  16.833   8.274
 2901POPC   C3B37941  44.751  16.850   7.807
 2901POPC   C4B37942  44.747  17.006   7.370
 2902POPC   NC337943  44.108   3.191   9.465
 2902POPC   PO437944  43.814   3.792   9.493
 2902POPC   GL137945  43.702   3.454   9.263
 2902POPC   GL237946  43.467   3.582   9.091
 2902POPC   C1A37947  43.896   3.411   8.852
 2902POPC   D2A37948  43.972   3.625   8.476
 2902POPC   C3A37949  43.948   3.400   8.094
 2902POPC   C4A37950  44.064   3.630   7.739
 2902POPC   C1B37951  43.419   3.242   8.819
 2902POPC   C2B37952  43.570   3.288   8.420
 2902POPC   C3B37953  43.431   3.308   7.997
 2902POPC   C4B37954  43.687   3.306   7.664
 2903POPC   NC337955  36.536  27.292   9.379
 2903POPC   PO437956  36.207  27.822   9.530
 2903POPC   GL137957  36.154  27.634   9.124
 2903POPC   GL237958  36.486  27.700   9.077
 2903POPC   C1A37959  35.990  27.456   8.686
 2903POPC   D2A37960  35.913  27.614   8.252
 2903POPC   C3A37961  35.949  27.366   7.858
 2903POPC   C4A37962  35.838  27.399   7.406
 2903POPC   C1B37963  36.484  27.582   8.663
 2903POPC   C2B37964  36.607  27.708   8.268
 2903POPC   C3B37965  36.314  27.730   7.944
 2903POPC   C4B37966  36.261  27.673   7.496
 2904POPC   NC337967   5.175  15.362   9.438
 2904POPC   PO437968   5.699  14.971   9.516
 2904POPC   GL137969   5.423  14.996   9.158
 2904POPC   GL237970   5.075  14.939   9.187
 2904POPC   C1A37971   5.236  15.248   8.800
 2904POPC   D2A37972   5.046  15.256   8.399
 2904POPC   C3A37973   5.141  15.498   8.030
 2904POPC   C4A37974   5.278  15.269   7.673
 2904POPC   C1B37975   4.906  14.859   8.794
 2904POPC   C2B37976   4.786  14.805   8.370
 2904POPC   C3B37977   4.896  14.965   7.980
 2904POPC   C4B37978   4.932  14.905   7.554
 2905POPC   NC337979   1.629  29.352   9.350
 2905POPC   PO437980   1.947  28.810   9.416
 2905POPC   GL137981   2.149  29.007   9.059
 2905POPC   GL237982   2.054  29.349   9.075
 2905POPC   C1A37983   2.119  29.076   8.622
 2905POPC   D2A37984   1.954  28.867   8.281
 2905POPC   C3A37985   2.159  29.052   7.942
 2905POPC   C4A37986   2.029  29.198   7.562
 2905POPC   C1B37987   1.792  29.452   8.708
 2905POPC   C2B37988   1.840  29.419   8.277
 2905POPC   C3B37989   1.876  29.621   7.888
 2905POPC   C4B37990   1.686  29.580   7.482
 2906POPC   NC337991  40.487  18.732   9.453
 2906POPC   PO437992  40.827  19.225   9.454
 2906POPC   GL137993  40.854  18.958   9.101
 2906POPC   GL237994  40.937  18.609   9.201
 2906POPC   C1A37995  40.760  19.048   8.660
 2906POPC   D2A37996  40.526  18.899   8.304
 2906POPC   C3A37997  40.572  19.235   7.991
 2906POPC   C4A37998  40.496  19.267   7.506
 2906POPC   C1B37999  40.728  18.560   8.783
 2906POPC   C2B38000  40.977  18.638   8.375
 2906POPC   C3B38001  40.885  18.815   7.952
 2906POPC   C4B38002  40.451  18.798   7.772
 2907POPC   NC338003  38.729  10.809   9.488
 2907POPC   PO438004  38.448  11.330   9.661
 2907POPC   GL138005  38.509  11.254   9.225
 2907POPC   GL238006  38.856  11.146   9.140
 2907POPC   C1A38007  38.268  11.317   8.836
 2907POPC   D2A38008  38.274  11.385   8.380
 2907POPC   C3A38009  38.282  11.060   8.060
 2907POPC   C4A38010  38.545  11.292   7.813
 2907POPC   C1B38011  38.662  10.995   8.755
 2907POPC   C2B38012  38.730  11.057   8.313
 2907POPC   C3B38013  38.740  10.833   7.904
 2907POPC   C4B38014  38.699  10.991   7.444
 2908POPC   NC338015  29.159  34.847   9.464
 2908POPC   PO438016  29.081  34.141   9.564
 2908POPC   GL138017  29.141  34.376   9.178
 2908POPC   GL238018  28.874  34.618   9.091
 2908POPC   C1A38019  29.264  34.560   8.783
 2908POPC   D2A38020  29.188  34.736   8.388
 2908POPC   C3A38021  29.190  34.450   8.030
 2908POPC   C4A38022  29.356  34.709   7.682
 2908POPC   C1B38023  28.774  34.355   8.749
 2908POPC   C2B38024  28.726  34.498   8.312
 2908POPC   C3B38025  28.844  34.765   7.942
 2908POPC   C4B38026  28.695  34.423   7.724
 2909POPC   NC338027  31.246  34.138   9.551
 2909POPC   PO438028  31.880  34.002   9.543
 2909POPC   GL138029  31.584  33.858   9.137
 2909POPC   GL238030  31.269  34.027   9.076
 2909POPC   C1A38031  31.704  33.745   8.664
 2909POPC   D2A38032  31.741  33.948   8.251
 2909POPC   C3A38033  31.638  33.606   7.944
 2909POPC   C4A38034  31.750  33.596   7.534
 2909POPC   C1B38035  31.197  33.825   8.731
 2909POPC   C2B38036  31.298  33.698   8.330
 2909POPC   C3B38037  31.242  33.933   7.970
 2909POPC   C4B38038  31.111  33.777   7.571
 2910POPC   NC338039  39.378  19.611   9.707
 2910POPC   PO438040  38.848  19.951   9.615
 2910POPC   GL138041  39.118  19.875   9.254
 2910POPC   GL238042  39.432  20.027   9.323
 2910POPC   C1A38043  39.406  19.729   8.886
 2910POPC   D2A38044  39.540  19.573   8.444
 2910POPC   C3A38045  39.363  19.787   8.079
 2910POPC   C4A38046  39.209  19.762   7.657
 2910POPC   C1B38047  39.513  20.237   8.930
 2910POPC   C2B38048  39.453  20.180   8.476
 2910POPC   C3B38049  39.532  20.299   8.071
 2910POPC   C4B38050  39.509  20.163   7.616
 2911POPC   NC338051   4.362  31.044   9.397
 2911POPC   PO438052   3.879  31.548   9.547
 2911POPC   GL138053   4.128  31.558   9.155
 2911POPC   GL238054   4.477  31.536   9.290
 2911POPC   C1A38055   4.088  31.497   8.678
 2911POPC   D2A38056   4.134  31.720   8.269
 2911POPC   C3A38057   3.914  31.548   7.932
 2911POPC   C4A38058   4.023  31.103   7.880
 2911POPC   C1B38059   4.569  31.504   8.848
 2911POPC   C2B38060   4.617  31.273   8.449
 2911POPC   C3B38061   4.479  31.391   8.034
 2911POPC   C4B38062   4.331  31.717   7.744
 2912POPC   NC338063  12.227  13.855   9.583
 2912POPC   PO438064  12.121  13.188   9.505
 2912POPC   GL138065  12.263  13.518   9.152
 2912POPC   GL238066  12.420  13.893   9.123
 2912POPC   C1A38067  12.194  13.460   8.718
 2912POPC   D2A38068  11.848  13.359   8.437
 2912POPC   C3A38069  11.895  13.596   8.035
 2912POPC   C4A38070  11.979  13.974   7.780
 2912POPC   C1B38071  12.552  13.835   8.731
 2912POPC   C2B38072  12.499  13.659   8.319
 2912POPC   C3B38073  12.448  13.906   7.954
 2912POPC   C4B38074  12.427  13.789   7.537
 2913POPC   NC338075  44.389  10.665   9.612
 2913POPC   PO438076  44.642  11.118   9.302
 2913POPC   GL138077  44.639  10.677   9.146
 2913POPC   GL238078  44.772  10.328   9.115
 2913POPC   C1A38079  44.408  10.509   8.809
 2913POPC   D2A38080  44.356  10.461   8.378
 2913POPC   C3A38081  44.605  10.597   8.042
 2913POPC   C4A38082  44.466  10.664   7.663
 2913POPC   C1B38083   0.040  10.440   8.793
 2913POPC   C2B38084  44.989  10.486   8.364
 2913POPC   C3B38085   0.121  10.551   7.950
 2913POPC   C4B38086  44.971  10.775   7.609
 2914POPC   NC338087  12.664  28.591   9.407
 2914POPC   PO438088  13.030  27.999   9.458
 2914POPC   GL138089  13.019  28.310   9.140
 2914POPC   GL238090  12.663  28.190   9.063
 2914POPC   C1A38091  13.076  28.473   8.700
 2914POPC   D2A38092  13.162  28.398   8.239
 2914POPC   C3A38093  12.847  28.466   7.903
 2914POPC   C4A38094  12.737  28.753   7.530
 2914POPC   C1B38095  12.943  27.962   8.777
 2914POPC   C2B38096  12.829  27.894   8.357
 2914POPC   C3B38097  13.016  27.993   7.973
 2914POPC   C4B38098  12.917  28.096   7.525
 2915POPC   NC338099  23.197  13.355   9.355
 2915POPC   PO438100  22.876  13.856   9.741
 2915POPC   GL138101  22.886  13.783   9.203
 2915POPC   GL238102  22.627  13.633   9.027
 2915POPC   C1A38103  23.014  13.736   8.730
 2915POPC   D2A38104  22.771  13.743   8.338
 2915POPC   C3A38105  23.017  13.650   7.973
 2915POPC   C4A38106  22.969  13.462   7.543
 2915POPC   C1B38107  22.690  13.301   8.705
 2915POPC   C2B38108  22.724  13.225   8.270
 2915POPC   C3B38109  22.539  13.450   7.920
 2915POPC   C4B38110  22.271  13.310   7.595
 2916POPC   NC338111   2.288  23.492   9.771
 2916POPC   PO438112   1.792  23.800   9.479
 2916POPC   GL138113   1.998  23.635   9.110
 2916POPC   GL238114   2.200  23.349   9.193
 2916POPC   C1A38115   2.041  23.684   8.668
 2916POPC   D2A38116   1.889  23.869   8.338
 2916POPC   C3A38117   2.175  23.794   8.059
 2916POPC   C4A38118   1.964  23.811   7.718
 2916POPC   C1B38119   2.253  23.228   8.720
 2916POPC   C2B38120   2.062  23.347   8.284
 2916POPC   C3B38121   2.025  23.308   7.841
 2916POPC   C4B38122   2.277  23.095   7.541
 2917POPC   NC338123  24.732  17.813   9.280
 2917POPC   PO438124  24.513  18.443   9.524
 2917POPC   GL138125  24.443  18.578   9.118
 2917POPC   GL238126  24.801  18.465   9.071
 2917POPC   C1A38127  24.162  18.353   8.844
 2917POPC   D2A38128  24.231  18.015   8.554
 2917POPC   C3A38129  24.133  18.170   8.149
 2917POPC   C4A38130  24.257  18.040   7.762
 2917POPC   C1B38131  24.653  18.340   8.679
 2917POPC   C2B38132  24.522  18.484   8.283
 2917POPC   C3B38133  24.633  18.418   7.846
 2917POPC   C4B38134  25.000  18.480   7.548
 2918POPC   NC338135   0.233  37.062   9.381
 2918POPC   PO438136   0.618  36.502   9.370
 2918POPC   GL138137   0.386  36.709   9.049
 2918POPC   GL238138   0.032  36.672   9.095
 2918POPC   C1A38139   0.285  36.997   8.698
 2918POPC   D2A38140   0.514  37.025   8.303
 2918POPC   C3A38141   0.339  37.225   7.923
 2918POPC   C4A38142   0.435  37.148   7.464
 2918POPC   C1B38143   0.108  36.492   8.677
 2918POPC   C2B38144   0.408  36.532   8.344
 2918POPC   C3B38145   0.352  36.708   7.906
 2918POPC   C4B38146   0.255  36.686   7.440
 2919POPC   NC338147  27.446  36.515   9.467
 2919POPC   PO438148  27.890  35.943   9.512
 2919POPC   GL138149  27.737  36.203   9.190
 2919POPC   GL238150  27.996  36.446   9.269
 2919POPC   C1A38151  27.473  36.184   8.784
 2919POPC   D2A38152  27.533  35.950   8.363
 2919POPC   C3A38153  27.425  36.106   7.934
 2919POPC   C4A38154  27.464  35.958   7.467
 2919POPC   C1B38155  27.910  36.498   8.819
 2919POPC   C2B38156  27.780  36.405   8.404
 2919POPC   C3B38157  27.893  36.349   7.968
 2919POPC   C4B38158  28.001  36.674   7.675
 2920POPC   NC338159  17.124  37.676   9.516
 2920POPC   PO438160  16.428  37.741   9.442
 2920POPC   GL138161  16.618  37.758   9.078
 2920POPC   GL238162  16.823  37.457   9.148
 2920POPC   C1A38163  16.614  37.626   8.641
 2920POPC   D2A38164  16.517  37.292   8.346
 2920POPC   C3A38165  16.414  37.583   8.051
 2920POPC   C4A38166  16.565  37.982   7.890
 2920POPC   C1B38167  17.067  37.676   8.876
 2920POPC   C2B38168  17.136  37.611   8.497
 2920POPC   C3B38169  16.917  37.575   8.147
 2920POPC   C4B38170  16.942  37.471   7.722
 2921POPC   NC338171  42.257  36.335   9.482
 2921POPC   PO438172  41.796  35.829   9.438
 2921POPC   GL138173  42.050  36.047   9.100
 2921POPC   GL238174  42.437  36.111   9.063
 2921POPC   C1A38175  42.027  36.152   8.676
 2921POPC   D2A38176  42.308  36.214   8.353
 2921POPC   C3A38177  42.297  35.890   8.038
 2921POPC   C4A38178  42.028  36.005   7.721
 2921POPC   C1B38179  42.706  36.343   8.771
 2921POPC   C2B38180  42.757  36.455   8.340
 2921POPC   C3B38181  42.599  36.347   7.929
 2921POPC   C4B38182  42.780  36.627   7.630
 2922POPC   NC338183   3.094  25.660   9.527
 2922POPC   PO438184   2.515  26.256   9.369
 2922POPC   GL138185   2.829  26.042   9.189
 2922POPC   GL238186   2.712  25.730   9.234
 2922POPC   C1A38187   3.128  25.925   8.854
 2922POPC   D2A38188   3.289  25.698   8.483
 2922POPC   C3A38189   3.145  25.928   8.110
 2922POPC   C4A38190   2.937  26.048   7.737
 2922POPC   C1B38191   2.630  25.748   8.835
 2922POPC   C2B38192   2.782  25.887   8.467
 2922POPC   C3B38193   2.583  26.013   8.103
 2922POPC   C4B38194   2.603  26.406   7.895
 2923POPC   NC338195  27.501  18.105   9.437
 2923POPC   PO438196  27.757  18.776   9.410
 2923POPC   GL138197  27.575  18.466   9.092
 2923POPC   GL238198  27.762  18.096   9.001
 2923POPC   C1A38199  27.433  18.302   8.682
 2923POPC   D2A38200  27.671  18.164   8.312
 2923POPC   C3A38201  27.422  18.160   7.926
 2923POPC   C4A38202  27.108  18.022   7.639
 2923POPC   C1B38203  27.955  18.460   8.753
 2923POPC   C2B38204  27.895  18.653   8.324
 2923POPC   C3B38205  27.825  18.484   7.886
 2923POPC   C4B38206  27.802  18.598   7.425
 2924POPC   NC338207  28.706  10.154   9.454
 2924POPC   PO438208  29.133  10.680   9.462
 2924POPC   GL138209  28.803  10.670   9.181
 2924POPC   GL238210  29.017  10.439   9.002
 2924POPC   C1A38211  28.823  10.850   8.762
 2924POPC   D2A38212  29.066  10.891   8.379
 2924POPC   C3A38213  28.962  10.769   7.953
 2924POPC   C4A38214  29.015  10.340   7.778
 2924POPC   C1B38215  29.368  10.689   8.805
 2924POPC   C2B38216  29.554  10.652   8.393
 2924POPC   C3B38217  29.491  10.856   8.000
 2924POPC   C4B38218  29.401  10.944   7.550
 2925POPC   NC338219  36.355  10.668   9.442
 2925POPC   PO438220  35.736  10.583   9.485
 2925POPC   GL138221  35.902  10.333   9.129
 2925POPC   GL238222  36.233  10.207   9.257
 2925POPC   C1A38223  35.883  10.388   8.668
 2925POPC   D2A38224  35.896  10.753   8.390
 2925POPC   C3A38225  36.226  10.775   8.078
 2925POPC   C4A38226  36.085  10.652   7.672
 2925POPC   C1B38227  36.352  10.382   8.851
 2925POPC   C2B38228  36.324  10.387   8.417
 2925POPC   C3B38229  36.109  10.277   8.047
 2925POPC   C4B38230  36.207  10.178   7.623
 2926POPC   NC338231  38.327  11.732   9.438
 2926POPC   PO438232  38.828  12.219   9.640
 2926POPC   GL138233  38.730  12.163   9.189
 2926POPC   GL238234  38.394  12.071   9.054
 2926POPC   C1A38235  38.716  12.191   8.702
 2926POPC   D2A38236  38.632  12.395   8.304
 2926POPC   C3A38237  38.472  12.113   7.971
 2926POPC   C4A38238  38.680  11.766   7.717
 2926POPC   C1B38239  38.204  12.194   8.636
 2926POPC   C2B38240  38.088  11.888   8.290
 2926POPC   C3B38241  38.171  11.704   7.861
 2926POPC   C4B38242  38.272  11.942   7.476
 2927POPC   NC338243  10.313  15.673   9.565
 2927POPC   PO438244  10.806  16.107   9.457
 2927POPC   GL138245  10.493  16.053   9.177
 2927POPC   GL238246  10.623  15.704   9.158
 2927POPC   C1A38247  10.397  16.268   8.787
 2927POPC   D2A38248  10.557  16.100   8.396
 2927POPC   C3A38249  10.358  16.115   8.005
 2927POPC   C4A38250  10.464  16.379   7.754
 2927POPC   C1B38251  10.385  15.748   8.764
 2927POPC   C2B38252  10.252  15.703   8.329
 2927POPC   C3B38253  10.652  15.711   8.071
 2927POPC   C4B38254  10.815  15.980   7.778
 2928POPC   NC338255  33.138  15.548   9.436
 2928POPC   PO438256  33.330  16.176   9.555
 2928POPC   GL138257  33.034  16.049   9.212
 2928POPC   GL238258  32.796  15.755   9.114
 2928POPC   C1A38259  33.104  15.986   8.785
 2928POPC   D2A38260  33.209  15.883   8.397
 2928POPC   C3A38261  33.024  15.927   7.976
 2928POPC   C4A38262  33.214  15.932   7.585
 2928POPC   C1B38263  32.825  15.567   8.667
 2928POPC   C2B38264  32.997  15.450   8.239
 2928POPC   C3B38265  33.063  15.475   7.782
 2928POPC   C4B38266  32.834  15.607   7.452
 2929POPC   NC338267  44.466   7.679   9.471
 2929POPC   PO438268  44.900   7.177   9.481
 2929POPC   GL138269  44.613   7.315   9.155
 2929POPC   GL238270  44.891   7.576   9.104
 2929POPC   C1A38271  44.442   7.438   8.741
 2929POPC   D2A38272  44.307   7.309   8.294
 2929POPC   C3A38273  44.466   7.598   7.970
 2929POPC   C4A38274  44.859   7.726   7.721
 2929POPC   C1B38275  44.962   7.172   8.837
 2929POPC   C2B38276  44.784   7.150   8.449
 2929POPC   C3B38277  44.948   7.365   8.075
 2929POPC   C4B38278   0.018   7.210   7.640
 2930POPC   NC338279  14.924   1.579   9.484
 2930POPC   PO438280  15.224   2.173   9.456
 2930POPC   GL138281  15.192   1.888   9.086
 2930POPC   GL238282  15.395   1.594   9.100
 2930POPC   C1A38283  15.149   1.837   8.630
 2930POPC   D2A38284  15.207   2.127   8.281
 2930POPC   C3A38285  14.990   2.117   7.891
 2930POPC   C4A38286  15.287   2.257   7.623
 2930POPC   C1B38287  15.601   1.611   8.719
 2930POPC   C2B38288  15.520   1.708   8.270
 2930POPC   C3B38289  15.379   1.768   7.858
 2930POPC   C4B38290  15.292   1.763   7.419
 2931POPC   NC338291  34.057  17.393   9.430
 2931POPC   PO438292  33.425  17.807   9.430
 2931POPC   GL138293  33.428  17.627   9.050
 2931POPC   GL238294  33.660  17.313   8.989
 2931POPC   C1A38295  33.617  17.730   8.688
 2931POPC   D2A38296  33.765  17.420   8.445
 2931POPC   C3A38297  33.630  17.593   8.079
 2931POPC   C4A38298  33.683  17.583   7.666
 2931POPC   C1B38299  34.068  17.119   8.807
 2931POPC   C2B38300  34.289  17.357   8.499
 2931POPC   C3B38301  34.213  17.267   8.087
 2931POPC   C4B38302  34.134  17.557   7.851
 2932POPC   NC338303  27.730  13.418   9.691
 2932POPC   PO438304  27.435  13.952   9.381
 2932POPC   GL138305  27.672  13.680   9.159
 2932POPC   GL238306  27.933  13.884   9.052
 2932POPC   C1A38307  27.534  13.770   8.738
 2932POPC   D2A38308  27.208  13.739   8.472
 2932POPC   C3A38309  27.489  13.726   8.154
 2932POPC   C4A38310  27.493  13.688   7.753
 2932POPC   C1B38311  28.039  13.610   8.740
 2932POPC   C2B38312  27.788  13.357   8.499
 2932POPC   C3B38313  27.671  13.239   8.081
 2932POPC   C4B38314  27.829  13.281   7.694
 2933POPC   NC338315   4.505   6.231   9.274
 2933POPC   PO438316   4.191   6.780   9.527
 2933POPC   GL138317   4.241   6.653   9.159
 2933POPC   GL238318   4.007   6.361   9.217
 2933POPC   C1A38319   4.451   6.641   8.737
 2933POPC   D2A38320   4.362   6.769   8.322
 2933POPC   C3A38321   4.547   6.552   7.986
 2933POPC   C4A38322   4.549   6.427   7.573
 2933POPC   C1B38323   3.972   6.470   8.797
 2933POPC   C2B38324   4.121   6.299   8.452
 2933POPC   C3B38325   4.085   6.322   8.042
 2933POPC   C4B38326   4.085   6.583   7.689
 2934POPC   NC338327  14.845  38.216   9.370
 2934POPC   PO438328  15.338  38.621   9.554
 2934POPC   GL138329  15.199  38.579   9.156
 2934POPC   GL238330  15.325  38.256   9.143
 2934POPC   C1A38331  15.004  38.449   8.786
 2934POPC   D2A38332  14.858  38.542   8.426
 2934POPC   C3A38333  15.111  38.605   8.052
 2934POPC   C4A38334  15.023  38.821   7.673
 2934POPC   C1B38335  15.506  38.382   8.761
 2934POPC   C2B38336  15.381  38.259   8.359
 2934POPC   C3B38337  15.534  38.276   7.930
 2934POPC   C4B38338  15.276  38.361   7.580
 2935POPC   NC338339  32.161  22.188   9.344
 2935POPC   PO438340  32.188  22.658   9.756
 2935POPC   GL138341  32.200  22.668   9.205
 2935POPC   GL238342  31.863  22.647   9.204
 2935POPC   C1A38343  32.310  22.963   8.791
 2935POPC   D2A38344  32.422  23.257   8.427
 2935POPC   C3A38345  32.247  23.112   8.056
 2935POPC   C4A38346  32.282  23.167   7.629
 2935POPC   C1B38347  31.814  22.849   8.811
 2935POPC   C2B38348  31.960  22.852   8.404
 2935POPC   C3B38349  31.956  22.534   8.107
 2935POPC   C4B38350  31.932  22.729   7.734
 2936POPC   NC338351  34.176  19.044   9.452
 2936POPC   PO438352  33.561  19.394   9.486
 2936POPC   GL138353  33.604  19.280   9.072
 2936POPC   GL238354  33.980  19.284   9.040
 2936POPC   C1A38355  33.630  18.997   8.736
 2936POPC   D2A38356  34.001  18.879   8.487
 2936POPC   C3A38357  34.030  18.929   8.033
 2936POPC   C4A38358  33.876  18.884   7.580
 2936POPC   C1B38359  33.911  19.424   8.632
 2936POPC   C2B38360  33.756  19.314   8.239
 2936POPC   C3B38361  33.865  19.381   7.804
 2936POPC   C4B38362  33.720  19.329   7.388
 2937POPC   NC338363  18.738  41.133   9.575
 2937POPC   PO438364  18.990  40.569   9.455
 2937POPC   GL138365  19.079  40.754   9.096
 2937POPC   GL238366  19.402  40.893   9.102
 2937POPC   C1A38367  19.183  40.675   8.694
 2937POPC   D2A38368  18.975  40.662   8.355
 2937POPC   C3A38369  19.098  40.506   7.976
 2937POPC   C4A38370  19.060  40.596   7.555
 2937POPC   C1B38371  19.392  41.169   8.779
 2937POPC   C2B38372  19.156  41.152   8.407
 2937POPC   C3B38373  19.111  41.013   7.990
 2937POPC   C4B38374  19.399  40.964   7.675
 2938POPC   NC338375  38.181   8.047   9.366
 2938POPC   PO438376  38.212   8.673   9.658
 2938POPC   GL138377  38.523   8.429   9.244
 2938POPC   GL238378  38.658   8.059   9.095
 2938POPC   C1A38379  38.445   8.318   8.744
 2938POPC   D2A38380  38.695   8.131   8.417
 2938POPC   C3A38381  38.555   8.189   8.004
 2938POPC   C4A38382  38.188   8.215   7.829
 2938POPC   C1B38383  38.424   7.794   8.727
 2938POPC   C2B38384  38.339   7.787   8.243
 2938POPC   C3B38385  38.300   7.724   7.784
 2938POPC   C4B38386  38.679   7.863   7.604
 2939POPC   NC338387  22.366  15.640   9.384
 2939POPC   PO438388  21.890  15.182   9.296
 2939POPC   GL138389  21.995  15.361   8.996
 2939POPC   GL238390  22.311  15.288   9.014
 2939POPC   C1A38391  21.991  15.435   8.596
 2939POPC   D2A38392  21.926  15.088   8.361
 2939POPC   C3A38393  22.166  15.206   8.084
 2939POPC   C4A38394  22.122  15.569   7.820
 2939POPC   C1B38395  22.423  15.140   8.629
 2939POPC   C2B38396  22.559  14.937   8.282
 2939POPC   C3B38397  22.386  14.781   7.871
 2939POPC   C4B38398  22.117  15.066   7.604
 2940POPC   NC338399  35.653   1.001   9.425
 2940POPC   PO438400  36.191   1.378   9.569
 2940POPC   GL138401  36.337   1.478   9.143
 2940POPC   GL238402  36.317   1.112   9.103
 2940POPC   C1A38403  36.295   1.412   8.677
 2940POPC   D2A38404  36.327   1.094   8.372
 2940POPC   C3A38405  36.205   1.148   7.954
 2940POPC   C4A38406  36.230   1.518   7.707
 2940POPC   C1B38407  35.959   1.055   8.831
 2940POPC   C2B38408  35.881   0.890   8.439
 2940POPC   C3B38409  35.597   0.944   8.147
 2940POPC   C4B38410  35.600   0.863   7.726
 2941POPC   NC338411   0.846  27.170   9.568
 2941POPC   PO438412   0.098  27.261   9.465
 2941POPC   GL138413   0.497  27.486   9.239
 2941POPC   GL238414   0.551  27.848   9.189
 2941POPC   C1A38415   0.677  27.548   8.809
 2941POPC   D2A38416   0.462  27.286   8.509
 2941POPC   C3A38417   0.440  27.415   8.105
 2941POPC   C4A38418   0.647  27.287   7.769
 2941POPC   C1B38419   0.420  28.004   8.814
 2941POPC   C2B38420   0.435  27.831   8.444
 2941POPC   C3B38421   0.409  27.910   8.037
 2941POPC   C4B38422   0.565  27.762   7.655
 2942POPC   NC338423  23.532   2.983   9.490
 2942POPC   PO438424  24.105   2.541   9.495
 2942POPC   GL138425  23.776   2.562   9.182
 2942POPC   GL238426  23.796   2.940   9.070
 2942POPC   C1A38427  23.814   2.575   8.744
 2942POPC   D2A38428  23.915   2.973   8.556
 2942POPC   C3A38429  23.964   2.901   8.127
 2942POPC   C4A38430  23.738   2.625   7.825
 2942POPC   C1B38431  23.414   2.855   8.792
 2942POPC   C2B38432  23.468   2.791   8.342
 2942POPC   C3B38433  23.497   3.037   7.964
 2942POPC   C4B38434  23.693   3.198   7.602
 2943POPC   NC338435  18.883  26.485   9.575
 2943POPC   PO438436  19.375  26.840   9.511
 2943POPC   GL138437  19.044  26.818   9.186
 2943POPC   GL238438  18.964  26.478   9.052
 2943POPC   C1A38439  19.098  26.867   8.740
 2943POPC   D2A38440  19.177  27.088   8.366
 2943POPC   C3A38441  19.022  26.865   7.990
 2943POPC   C4A38442  19.127  26.707   7.562
 2943POPC   C1B38443  18.701  26.557   8.662
 2943POPC   C2B38444  18.706  26.495   8.186
 2943POPC   C3B38445  18.713  26.456   7.705
 2943POPC   C4B38446  18.938  26.321   7.268
 2944POPC   NC338447  29.627   8.589   9.708
 2944POPC   PO438448  29.956   9.103   9.560
 2944POPC   GL138449  29.955   9.042   9.129
 2944POPC   GL238450  30.278   9.220   9.109
 2944POPC   C1A38451  29.697   8.961   8.705
 2944POPC   D2A38452  29.487   9.047   8.273
 2944POPC   C3A38453  29.730   9.005   7.898
 2944POPC   C4A38454  30.133   8.809   7.872
 2944POPC   C1B38455  30.140   9.195   8.695
 2944POPC   C2B38456  30.004   9.147   8.291
 2944POPC   C3B38457  30.138   9.341   7.928
 2944POPC   C4B38458  29.915   9.486   7.578
 2945POPC   NC338459  40.372  14.629   9.539
 2945POPC   PO438460  40.887  14.064   9.570
 2945POPC   GL138461  40.893  14.238   9.132
 2945POPC   GL238462  40.623  14.446   9.152
 2945POPC   C1A38463  40.954  14.572   8.809
 2945POPC   D2A38464  40.936  14.741   8.394
 2945POPC   C3A38465  41.113  14.475   8.064
 2945POPC   C4A38466  41.021  14.449   7.618
 2945POPC   C1B38467  40.477  14.348   8.769
 2945POPC   C2B38468  40.468  14.546   8.331
 2945POPC   C3B38469  40.608  14.562   7.904
 2945POPC   C4B38470  40.507  14.260   7.580
 2946POPC   NC338471  23.255  20.795   9.556
 2946POPC   PO438472  23.875  20.673   9.453
 2946POPC   GL138473  23.571  20.628   9.159
 2946POPC   GL238474  23.327  20.359   9.152
 2946POPC   C1A38475  23.728  20.509   8.772
 2946POPC   D2A38476  23.927  20.679   8.422
 2946POPC   C3A38477  23.715  20.540   8.079
 2946POPC   C4A38478  23.466  20.496   7.725
 2946POPC   C1B38479  23.206  20.583   8.801
 2946POPC   C2B38480  23.364  20.686   8.423
 2946POPC   C3B38481  23.254  20.828   8.058
 2946POPC   C4B38482  23.152  20.988   7.677
 2947POPC   NC338483  25.014  10.593   9.469
 2947POPC   PO438484  25.688  10.799   9.457
 2947POPC   GL138485  25.397  10.467   9.181
 2947POPC   GL238486  25.158  10.670   9.005
 2947POPC   C1A38487  25.265  10.259   8.767
 2947POPC   D2A38488  25.166  10.568   8.509
 2947POPC   C3A38489  24.890  10.544   8.185
 2947POPC   C4A38490  25.028  10.456   7.793
 2947POPC   C1B38491  25.578  10.728   8.805
 2947POPC   C2B38492  25.677  10.583   8.424
 2947POPC   C3B38493  25.441  10.653   8.094
 2947POPC   C4B38494  25.488  10.930   7.787
 2948POPC   NC338495  40.421  15.961   9.418
 2948POPC   PO438496  41.119  15.764   9.485
 2948POPC   GL138497  40.927  15.949   9.144
 2948POPC   GL238498  40.660  15.789   8.992
 2948POPC   C1A38499  40.804  16.203   8.776
 2948POPC   D2A38500  40.592  16.068   8.427
 2948POPC   C3A38501  40.831  16.170   8.076
 2948POPC   C4A38502  40.956  15.946   7.737
 2948POPC   C1B38503  40.412  15.606   8.644
 2948POPC   C2B38504  40.146  15.756   8.338
 2948POPC   C3B38505  40.381  15.847   8.005
 2948POPC   C4B38506  40.722  15.558   7.951
 2949POPC   NC338507  35.597  17.082   9.722
 2949POPC   PO438508  35.337  17.633   9.356
 2949POPC   GL138509  35.218  17.542   8.976
 2949POPC   GL238510  35.565  17.521   8.805
 2949POPC   C1A38511  35.108  17.633   8.577
 2949POPC   D2A38512  35.264  17.613   8.210
 2949POPC   C3A38513  35.024  17.787   7.873
 2949POPC   C4A38514  34.901  17.557   7.511
 2949POPC   C1B38515  35.805  17.129   8.650
 2949POPC   C2B38516  35.723  16.839   8.326
 2949POPC   C3B38517  35.332  17.031   8.157
 2949POPC   C4B38518  35.273  17.322   7.795
 2950POPC   NC338519  27.789  39.930   9.484
 2950POPC   PO438520  27.325  40.446   9.546
 2950POPC   GL138521  27.487  40.330   9.128
 2950POPC   GL238522  27.787  40.143   9.031
 2950POPC   C1A38523  27.440  40.275   8.679
 2950POPC   D2A38524  27.650  39.976   8.409
 2950POPC   C3A38525  27.510  39.942   7.986
 2950POPC   C4A38526  27.363  39.789   7.585
 2950POPC   C1B38527  27.992  39.820   8.826
 2950POPC   C2B38528  28.097  39.697   8.444
 2950POPC   C3B38529  27.894  39.597   8.074
 2950POPC   C4B38530  27.850  39.700   7.661
 2951POPC   NC338531   1.731   0.523   9.596
 2951POPC   PO438532   2.410   0.442   9.508
 2951POPC   GL138533   2.083   0.447   9.223
 2951POPC   GL238534   1.928   0.109   9.222
 2951POPC   C1A38535   1.789   0.519   8.896
 2951POPC   D2A38536   1.848   0.795   8.541
 2951POPC   C3A38537   1.909   0.537   8.192
 2951POPC   C4A38538   2.014   0.567   7.779
 2951POPC   C1B38539   2.145   0.132   8.802
 2951POPC   C2B38540   2.305   0.227   8.390
 2951POPC   C3B38541   2.155   0.108   7.974
 2951POPC   C4B38542   2.056   0.051   7.541
 2952POPC   NC338543  31.782  34.552   9.665
 2952POPC   PO438544  31.256  34.852   9.364
 2952POPC   GL138545  31.370  34.542   9.111
 2952POPC   GL238546  31.653  34.356   9.221
 2952POPC   C1A38547  31.358  34.670   8.694
 2952POPC   D2A38548  31.514  34.837   8.333
 2952POPC   C3A38549  31.317  34.818   7.919
 2952POPC   C4A38550  31.431  34.796   7.473
 2952POPC   C1B38551  31.622  34.236   8.777
 2952POPC   C2B38552  31.352  34.241   8.416
 2952POPC   C3B38553  31.532  34.366   8.029
 2952POPC   C4B38554  31.661  34.064   7.726
 2953POPC   NC338555   2.014  33.514   9.548
 2953POPC   PO438556   1.490  32.997   9.422
 2953POPC   GL138557   1.807  32.990   9.108
 2953POPC   GL238558   2.067  33.226   9.126
 2953POPC   C1A38559   1.887  32.893   8.684
 2953POPC   D2A38560   1.607  32.959   8.315
 2953POPC   C3A38561   1.830  32.954   7.905
 2953POPC   C4A38562   2.285  32.914   7.810
 2953POPC   C1B38563   1.947  33.388   8.710
 2953POPC   C2B38564   2.059  33.208   8.322
 2953POPC   C3B38565   2.269  33.393   7.992
 2953POPC   C4B38566   2.018  33.394   7.647
 2954POPC   NC338567  24.194  21.020   9.440
 2954POPC   PO438568  23.757  21.543   9.655
 2954POPC   GL138569  23.555  21.346   9.228
 2954POPC   GL238570  23.287  21.088   9.157
 2954POPC   C1A38571  23.763  21.448   8.810
 2954POPC   D2A38572  24.032  21.435   8.452
 2954POPC   C3A38573  23.794  21.579   8.104
 2954POPC   C4A38574  23.664  21.452   7.742
 2954POPC   C1B38575  23.512  21.004   8.796
 2954POPC   C2B38576  23.610  21.144   8.393
 2954POPC   C3B38577  23.892  21.076   8.078
 2954POPC   C4B38578  23.650  20.949   7.775
 2955POPC   NC338579   6.776  15.472   9.521
 2955POPC   PO438580   6.306  14.936   9.409
 2955POPC   GL138581   6.564  15.212   9.141
 2955POPC   GL238582   6.914  15.079   9.184
 2955POPC   C1A38583   6.553  15.529   8.768
 2955POPC   D2A38584   6.745  15.512   8.319
 2955POPC   C3A38585   6.511  15.348   7.945
 2955POPC   C4A38586   6.624  15.144   7.531
 2955POPC   C1B38587   6.953  15.221   8.754
 2955POPC   C2B38588   6.813  14.994   8.396
 2955POPC   C3B38589   6.888  15.023   7.971
 2955POPC   C4B38590   7.152  15.120   7.626
 2956POPC   NC338591  40.139  20.222   9.487
 2956POPC   PO438592  39.770  19.665   9.475
 2956POPC   GL138593  39.882  19.924   9.108
 2956POPC   GL238594  40.200  20.036   9.007
 2956POPC   C1A38595  39.848  19.926   8.662
 2956POPC   D2A38596  39.965  20.146   8.302
 2956POPC   C3A38597  39.843  19.919   7.944
 2956POPC   C4A38598  39.680  19.555   7.719
 2956POPC   C1B38599  40.336  19.780   8.655
 2956POPC   C2B38600  40.180  19.680   8.246
 2956POPC   C3B38601  40.231  19.618   7.802
 2956POPC   C4B38602  40.403  19.789   7.404
 2957POPC   NC338603  41.146  24.991   9.553
 2957POPC   PO438604  40.630  25.400   9.611
 2957POPC   GL138605  40.786  25.171   9.187
 2957POPC   GL238606  40.562  25.315   8.927
 2957POPC   C1A38607  40.932  25.040   8.733
 2957POPC   D2A38608  40.644  25.213   8.436
 2957POPC   C3A38609  40.824  25.203   8.073
 2957POPC   C4A38610  40.810  25.410   7.717
 2957POPC   C1B38611  40.900  25.547   8.797
 2957POPC   C2B38612  41.134  25.471   8.457
 2957POPC   C3B38613  41.202  25.576   8.027
 2957POPC   C4B38614  41.249  25.617   7.593
 2958POPC   NC338615  38.982   5.370   9.435
 2958POPC   PO438616  38.503   5.824   9.477
 2958POPC   GL138617  38.795   5.807   9.182
 2958POPC   GL238618  38.629   5.511   9.088
 2958POPC   C1A38619  38.731   5.966   8.786
 2958POPC   D2A38620  38.360   5.812   8.539
 2958POPC   C3A38621  38.288   5.806   8.073
 2958POPC   C4A38622  38.122   6.053   7.700
 2958POPC   C1B38623  38.827   5.479   8.733
 2958POPC   C2B38624  38.651   5.432   8.349
 2958POPC   C3B38625  38.749   5.524   7.936
 2958POPC   C4B38626  38.747   5.967   7.899
 2959POPC   NC338627  33.023   3.214   9.460
 2959POPC   PO438628  33.236   2.577   9.469
 2959POPC   GL138629  33.035   2.802   9.141
 2959POPC   GL238630  32.681   2.937   9.195
 2959POPC   C1A38631  33.183   2.705   8.734
 2959POPC   D2A38632  33.122   2.384   8.452
 2959POPC   C3A38633  33.321   2.461   8.089
 2959POPC   C4A38634  33.188   2.745   7.806
 2959POPC   C1B38635  32.689   2.758   8.780
 2959POPC   C2B38636  32.840   2.840   8.367
 2959POPC   C3B38637  32.811   3.042   7.980
 2959POPC   C4B38638  32.573   2.989   7.609
 2960POPC   NC338639  41.834  42.377   9.604
 2960POPC   PO438640  42.460  42.468   9.531
 2960POPC   GL138641  42.096  42.633   9.221
 2960POPC   GL238642  42.104  42.327   9.062
 2960POPC   C1A38643  41.910  42.706   8.776
 2960POPC   D2A38644  42.069  42.371   8.454
 2960POPC   C3A38645  42.217  42.336   8.011
 2960POPC   C4A38646  42.464  42.051   7.700
 2960POPC   C1B38647  42.401  42.599   8.826
 2960POPC   C2B38648  42.397  42.754   8.401
 2960POPC   C3B38649  42.529  42.745   8.023
 2960POPC   C4B38650  42.545  42.577   7.660
 2961POPC   NC338651  29.123   5.264   9.423
 2961POPC   PO438652  29.668   4.981   9.658
 2961POPC   GL138653  29.446   4.933   9.191
 2961POPC   GL238654  29.086   4.899   9.071
 2961POPC   C1A38655  29.474   5.035   8.761
 2961POPC   D2A38656  29.489   5.119   8.350
 2961POPC   C3A38657  29.174   5.040   8.039
 2961POPC   C4A38658  29.292   5.355   7.730
 2961POPC   C1B38659  28.981   5.107   8.703
 2961POPC   C2B38660  28.751   5.193   8.344
 2961POPC   C3B38661  28.800   5.371   7.938
 2961POPC   C4B38662  28.743   5.346   7.520
 2962POPC   NC338663  31.747  40.140   9.596
 2962POPC   PO438664  31.081  39.984   9.515
 2962POPC   GL138665  31.405  40.015   9.222
 2962POPC   GL238666  31.616  39.765   9.267
 2962POPC   C1A38667  31.623  40.096   8.830
 2962POPC   D2A38668  31.410  40.229   8.442
 2962POPC   C3A38669  31.494  40.064   8.041
 2962POPC   C4A38670  31.125  40.045   7.767
 2962POPC   C1B38671  31.386  39.631   8.882
 2962POPC   C2B38672  31.236  39.471   8.495
 2962POPC   C3B38673  31.139  39.661   8.117
 2962POPC   C4B38674  31.231  39.486   7.737
 2963POPC   NC338675   6.701  33.064   9.725
 2963POPC   PO438676   6.354  33.303   9.236
 2963POPC   GL138677   6.535  32.941   9.088
 2963POPC   GL238678   6.850  33.019   9.215
 2963POPC   C1A38679   6.476  32.833   8.653
 2963POPC   D2A38680   6.550  33.227   8.399
 2963POPC   C3A38681   6.702  33.199   7.998
 2963POPC   C4A38682   6.512  32.847   7.814
 2963POPC   C1B38683   6.908  33.098   8.757
 2963POPC   C2B38684   6.916  32.850   8.362
 2963POPC   C3B38685   6.999  32.699   7.933
 2963POPC   C4B38686   6.930  33.000   7.574
 2964POPC   NC338687  31.105  44.242   9.160
 2964POPC   PO438688  30.776  44.665   9.552
 2964POPC   GL138689  30.743  44.795   9.157
 2964POPC   GL238690  30.754  44.525   8.920
 2964POPC   C1A38691  30.833   0.024   8.817
 2964POPC   D2A38692  30.604   0.164   8.473
 2964POPC   C3A38693  30.718  44.934   8.110
 2964POPC   C4A38694  30.862  44.891   7.702
 2964POPC   C1B38695  30.538  44.611   8.523
 2964POPC   C2B38696  30.312  44.259   8.305
 2964POPC   C3B38697  30.400  44.161   7.914
 2964POPC   C4B38698  30.456  44.594   7.771
 2965POPC   NC338699  30.218   6.297   9.496
 2965POPC   PO438700  29.523   6.290   9.255
 2965POPC   GL138701  29.905   6.208   9.108
 2965POPC   GL238702  30.091   6.533   9.070
 2965POPC   C1A38703  30.131   6.137   8.750
 2965POPC   D2A38704  30.089   6.448   8.421
 2965POPC   C3A38705  29.808   6.347   8.058
 2965POPC   C4A38706  29.717   6.544   7.624
 2965POPC   C1B38707  30.186   6.842   8.756
 2965POPC   C2B38708  29.975   6.964   8.372
 2965POPC   C3B38709  30.067   6.940   7.938
 2965POPC   C4B38710  29.921   7.139   7.526
 2966POPC   NC338711  43.028  29.128   9.547
 2966POPC   PO438712  43.614  28.818   9.258
 2966POPC   GL138713  43.362  29.064   8.898
 2966POPC   GL238714  43.054  29.253   9.023
 2966POPC   C1A38715  43.250  29.183   8.498
 2966POPC   D2A38716  43.016  29.469   8.222
 2966POPC   C3A38717  43.243  29.394   7.856
 2966POPC   C4A38718  43.610  29.104   7.840
 2966POPC   C1B38719  42.853  28.932   8.731
 2966POPC   C2B38720  42.622  28.628   8.459
 2966POPC   C3B38721  42.634  28.725   8.028
 2966POPC   C4B38722  42.824  29.103   7.836
 2967POPC   NC338723  14.859  14.895   9.480
 2967POPC   PO438724  15.445  15.081   9.579
 2967POPC   GL138725  15.259  15.059   9.184
 2967POPC   GL238726  15.123  15.353   9.085
 2967POPC   C1A38727  15.465  15.170   8.782
 2967POPC   D2A38728  15.210  15.098   8.427
 2967POPC   C3A38729  15.385  15.216   8.051
 2967POPC   C4A38730  15.345  14.936   7.698
 2967POPC   C1B38731  15.031  15.537   8.653
 2967POPC   C2B38732  14.960  15.496   8.210
 2967POPC   C3B38733  14.907  15.141   7.927
 2967POPC   C4B38734  14.960  15.189   7.491
 2968POPC   NC338735   0.363  38.038   9.558
 2968POPC   PO438736   0.205  37.446   9.608
 2968POPC   GL138737   0.325  37.546   9.168
 2968POPC   GL238738   0.629  37.723   9.176
 2968POPC   C1A38739   0.213  37.666   8.720
 2968POPC   D2A38740   0.097  37.948   8.385
 2968POPC   C3A38741   0.188  37.916   7.957
 2968POPC   C4A38742   0.477  38.038   7.658
 2968POPC   C1B38743   0.682  37.469   8.776
 2968POPC   C2B38744   0.560  37.517   8.334
 2968POPC   C3B38745   0.660  37.630   7.890
 2968POPC   C4B38746   0.688  37.569   7.429
 2969POPC   NC338747  19.879   6.884   9.546
 2969POPC   PO438748  19.645   6.339   9.301
 2969POPC   GL138749  19.937   6.634   9.102
 2969POPC   GL238750  19.780   6.973   9.066
 2969POPC   C1A38751  20.037   6.643   8.675
 2969POPC   D2A38752  19.826   6.417   8.335
 2969POPC   C3A38753  19.981   6.585   7.942
 2969POPC   C4A38754  20.189   6.498   7.526
 2969POPC   C1B38755  19.704   7.046   8.652
 2969POPC   C2B38756  19.687   6.913   8.262
 2969POPC   C3B38757  19.612   7.016   7.850
 2969POPC   C4B38758  19.867   6.881   7.500
 2970POPC   NC338759   3.849   8.544   9.146
 2970POPC   PO438760   3.315   8.193   9.383
 2970POPC   GL138761   3.435   8.047   9.010
 2970POPC   GL238762   3.778   8.027   9.021
 2970POPC   C1A38763   3.375   7.759   8.684
 2970POPC   D2A38764   3.165   7.764   8.279
 2970POPC   C3A38765   3.336   8.031   7.954
 2970POPC   C4A38766   3.186   8.075   7.505
 2970POPC   C1B38767   3.661   8.170   8.582
 2970POPC   C2B38768   3.729   7.882   8.270
 2970POPC   C3B38769   3.916   7.859   7.897
 2970POPC   C4B38770   3.709   8.091   7.611
 2971POPC   NC338771  24.791  31.270   9.484
 2971POPC   PO438772  24.123  31.519   9.522
 2971POPC   GL138773  24.393  31.471   9.199
 2971POPC   GL238774  24.405  31.105   9.194
 2971POPC   C1A38775  24.380  31.410   8.771
 2971POPC   D2A38776  24.296  31.549   8.399
 2971POPC   C3A38777  24.534  31.427   8.060
 2971POPC   C4A38778  24.203  31.377   7.761
 2971POPC   C1B38779  24.570  30.944   8.788
 2971POPC   C2B38780  24.369  31.018   8.358
 2971POPC   C3B38781  24.454  30.951   7.908
 2971POPC   C4B38782  24.664  31.228   7.598
 2972POPC   NC338783  20.883  44.751   9.672
 2972POPC   PO438784  20.452  44.282   9.391
 2972POPC   GL138785  20.432  44.567   9.084
 2972POPC   GL238786  20.732  44.680   9.180
 2972POPC   C1A38787  20.620  44.535   8.670
 2972POPC   D2A38788  20.785  44.365   8.312
 2972POPC   C3A38789  20.524  44.290   7.988
 2972POPC   C4A38790  20.631  44.587   7.749
 2972POPC   C1B38791  20.885  44.939   8.871
 2972POPC   C2B38792  20.908   0.010   8.454
 2972POPC   C3B38793  21.009  44.778   8.085
 2972POPC   C4B38794  21.071  44.806   7.656
 2973POPC   NC338795   3.854  39.127   9.610
 2973POPC   PO438796   3.553  39.706   9.528
 2973POPC   GL138797   3.624  39.353   9.199
 2973POPC   GL238798   3.838  39.037   9.118
 2973POPC   C1A38799   3.519  39.250   8.774
 2973POPC   D2A38800   3.171  39.371   8.502
 2973POPC   C3A38801   3.292  39.494   8.072
 2973POPC   C4A38802   3.535  39.273   7.754
 2973POPC   C1B38803   4.016  38.972   8.704
 2973POPC   C2B38804   3.994  38.946   8.243
 2973POPC   C3B38805   3.823  38.831   7.835
 2973POPC   C4B38806   3.803  38.975   7.388
 2974POPC   NC338807   2.580  12.433   9.841
 2974POPC   PO438808   2.799  12.951   9.521
 2974POPC   GL138809   2.779  12.940   9.086
 2974POPC   GL238810   2.660  12.622   9.114
 2974POPC   C1A38811   2.582  13.111   8.700
 2974POPC   D2A38812   2.323  13.158   8.318
 2974POPC   C3A38813   2.501  12.874   8.019
 2974POPC   C4A38814   2.759  12.849   7.678
 2974POPC   C1B38815   2.545  12.570   8.706
 2974POPC   C2B38816   2.551  12.347   8.344
 2974POPC   C3B38817   2.354  12.372   7.946
 2974POPC   C4B38818   2.424  12.500   7.546
 2975POPC   NC338819  27.832  41.696   9.663
 2975POPC   PO438820  27.222  41.433   9.668
 2975POPC   GL138821  27.530  41.567   9.279
 2975POPC   GL238822  27.533  41.925   9.207
 2975POPC   C1A38823  27.724  41.504   8.840
 2975POPC   D2A38824  27.940  41.538   8.411
 2975POPC   C3A38825  27.742  41.508   7.991
 2975POPC   C4A38826  27.840  41.507   7.533
 2975POPC   C1B38827  27.302  41.817   8.815
 2975POPC   C2B38828  27.317  41.711   8.387
 2975POPC   C3B38829  27.225  41.458   8.052
 2975POPC   C4B38830  27.326  41.541   7.654
 2976POPC   NC338831  25.247  16.957   9.338
 2976POPC   PO438832  25.134  16.265   9.478
 2976POPC   GL138833  25.194  16.490   9.117
 2976POPC   GL238834  24.863  16.633   9.167
 2976POPC   C1A38835  25.398  16.635   8.698
 2976POPC   D2A38836  25.654  16.574   8.325
 2976POPC   C3A38837  25.434  16.648   7.952
 2976POPC   C4A38838  25.331  17.033   7.808
 2976POPC   C1B38839  24.893  16.656   8.722
 2976POPC   C2B38840  25.043  16.490   8.312
 2976POPC   C3B38841  24.935  16.560   7.854
 2976POPC   C4B38842  25.082  16.770   7.441
 2977POPC   NC338843  16.468  29.004   9.585
 2977POPC   PO438844  17.084  29.163   9.483
 2977POPC   GL138845  16.719  29.212   9.202
 2977POPC   GL238846  16.440  29.422   9.158
 2977POPC   C1A38847  16.636  29.098   8.786
 2977POPC   D2A38848  16.874  29.006   8.419
 2977POPC   C3A38849  16.657  28.885   8.077
 2977POPC   C4A38850  16.672  29.059   7.695
 2977POPC   C1B38851  16.274  29.454   8.730
 2977POPC   C2B38852  16.254  29.637   8.323
 2977POPC   C3B38853  16.423  29.417   7.976
 2977POPC   C4B38854  16.612  29.550   7.607
 2978POPC   NC338855  17.164   3.790   9.369
 2978POPC   PO438856  16.611   3.640   9.624
 2978POPC   GL138857  16.750   3.466   9.195
 2978POPC   GL238858  16.657   3.145   9.058
 2978POPC   C1A38859  16.859   3.489   8.732
 2978POPC   D2A38860  16.848   3.833   8.420
 2978POPC   C3A38861  16.738   3.709   8.006
 2978POPC   C4A38862  16.920   3.364   7.826
 2978POPC   C1B38863  16.510   3.073   8.654
 2978POPC   C2B38864  16.609   3.278   8.288
 2978POPC   C3B38865  16.389   3.327   7.915
 2978POPC   C4B38866  16.515   3.532   7.539
 2979POPC   NC338867   7.798   6.653   9.469
 2979POPC   PO438868   8.435   6.484   9.495
 2979POPC   GL138869   8.143   6.460   9.129
 2979POPC   GL238870   8.169   6.793   9.101
 2979POPC   C1A38871   7.802   6.593   8.813
 2979POPC   D2A38872   7.855   6.825   8.438
 2979POPC   C3A38873   8.009   6.469   8.153
 2979POPC   C4A38874   8.212   6.341   7.751
 2979POPC   C1B38875   8.289   6.697   8.701
 2979POPC   C2B38876   8.339   6.948   8.344
 2979POPC   C3B38877   8.237   6.877   7.944
 2979POPC   C4B38878   8.581   7.032   7.726
 2980POPC   NC338879  30.930  30.882   9.440
 2980POPC   PO438880  30.708  30.300   9.426
 2980POPC   GL138881  30.481  30.593   9.201
 2980POPC   GL238882  30.787  30.642   9.012
 2980POPC   C1A38883  30.356  30.871   8.858
 2980POPC   D2A38884  30.555  30.957   8.498
 2980POPC   C3A38885  30.433  30.872   8.091
 2980POPC   C4A38886  30.664  30.883   7.698
 2980POPC   C1B38887  31.022  30.348   8.738
 2980POPC   C2B38888  31.161  30.429   8.300
 2980POPC   C3B38889  30.969  30.493   7.886
 2980POPC   C4B38890  30.844  30.390   7.432
 2981POPC   NC338891  10.283  19.067   9.636
 2981POPC   PO438892  10.893  19.084   9.687
 2981POPC   GL138893  10.619  19.012   9.249
 2981POPC   GL238894  10.515  19.236   8.985
 2981POPC   C1A38895  10.681  18.799   8.818
 2981POPC   D2A38896  10.571  19.040   8.435
 2981POPC   C3A38897  10.693  18.862   8.009
 2981POPC   C4A38898  10.360  18.741   7.732
 2981POPC   C1B38899  10.133  19.327   8.751
 2981POPC   C2B38900  10.147  19.363   8.317
 2981POPC   C3B38901  10.344  19.232   7.958
 2981POPC   C4B38902  10.204  19.196   7.542
 2982POPC   NC338903  25.521   3.472   9.583
 2982POPC   PO438904  24.887   3.663   9.518
 2982POPC   GL138905  25.147   3.476   9.187
 2982POPC   GL238906  25.428   3.738   9.181
 2982POPC   C1A38907  25.326   3.468   8.748
 2982POPC   D2A38908  25.199   3.735   8.378
 2982POPC   C3A38909  25.201   3.521   7.971
 2982POPC   C4A38910  25.497   3.540   7.641
 2982POPC   C1B38911  25.502   3.934   8.825
 2982POPC   C2B38912  25.723   3.791   8.464
 2982POPC   C3B38913  25.614   3.861   8.046
 2982POPC   C4B38914  25.641   4.041   7.627
 2983POPC   NC338915  44.345  33.137   9.512
 2983POPC   PO438916  43.860  32.663   9.625
 2983POPC   GL138917  43.779  32.819   9.217
 2983POPC   GL238918  44.009  33.112   9.107
 2983POPC   C1A38919  43.893  32.695   8.792
 2983POPC   D2A38920  43.911  32.940   8.424
 2983POPC   C3A38921  43.907  32.821   7.983
 2983POPC   C4A38922  44.287  32.796   7.755
 2983POPC   C1B38923  43.619  33.189   8.865
 2983POPC   C2B38924  43.456  33.192   8.440
 2983POPC   C3B38925  43.758  33.324   8.111
 2983POPC   C4B38926  43.707  33.289   7.685
 2984POPC   NC338927  40.774   1.003   9.458
 2984POPC   PO438928  41.090   1.561   9.163
 2984POPC   GL138929  40.696   1.305   9.049
 2984POPC   GL238930  40.569   0.934   9.013
 2984POPC   C1A38931  40.681   1.260   8.605
 2984POPC   D2A38932  41.019   1.509   8.465
 2984POPC   C3A38933  41.172   1.404   8.079
 2984POPC   C4A38934  41.001   1.315   7.692
 2984POPC   C1B38935  40.957   0.905   8.829
 2984POPC   C2B38936  41.116   0.997   8.428
 2984POPC   C3B38937  40.879   0.976   8.050
 2984POPC   C4B38938  40.758   0.871   7.645
 2985POPC   NC338939  35.688  43.391   9.262
 2985POPC   PO438940  35.099  43.080   9.447
 2985POPC   GL138941  35.312  43.018   9.090
 2985POPC   GL238942  35.182  43.351   8.992
 2985POPC   C1A38943  35.490  43.048   8.693
 2985POPC   D2A38944  35.282  43.287   8.398
 2985POPC   C3A38945  35.451  43.160   7.999
 2985POPC   C4A38946  35.444  42.804   7.743
 2985POPC   C1B38947  34.827  43.401   8.708
 2985POPC   C2B38948  34.851  43.553   8.271
 2985POPC   C3B38949  34.914  43.443   7.829
 2985POPC   C4B38950  35.275  43.464   7.567
 2986POPC   NC338951   7.285  32.490   9.370
 2986POPC   PO438952   7.421  33.177   9.466
 2986POPC   GL138953   7.314  33.168   9.068
 2986POPC   GL238954   7.284  32.834   8.987
 2986POPC   C1A38955   7.350  33.371   8.696
 2986POPC   D2A38956   7.466  33.158   8.349
 2986POPC   C3A38957   7.220  33.143   8.016
 2986POPC   C4A38958   7.420  33.047   7.643
 2986POPC   C1B38959   7.558  32.761   8.639
 2986POPC   C2B38960   7.751  32.622   8.235
 2986POPC   C3B38961   7.653  32.589   7.773
 2986POPC   C4B38962   7.686  32.736   7.310
 2987POPC   NC338963  32.043  12.858   9.698
 2987POPC   PO438964  32.617  12.577   9.588
 2987POPC   GL138965  32.266  12.652   9.252
 2987POPC   GL238966  32.046  12.951   9.177
 2987POPC   C1A38967  32.094  12.645   8.791
 2987POPC   D2A38968  32.245  12.792   8.392
 2987POPC   C3A38969  32.083  12.735   8.005
 2987POPC   C4A38970  32.290  12.757   7.646
 2987POPC   C1B38971  32.187  13.159   8.832
 2987POPC   C2B38972  32.022  13.285   8.473
 2987POPC   C3B38973  31.981  13.213   8.055
 2987POPC   C4B38974  32.127  13.240   7.611
 2988POPC   NC338975  15.443  21.551   9.565
 2988POPC   PO438976  15.034  21.112   9.418
 2988POPC   GL138977  15.076  21.347   9.048
 2988POPC   GL238978  15.225  21.648   9.130
 2988POPC   C1A38979  15.368  21.315   8.696
 2988POPC   D2A38980  15.327  21.128   8.269
 2988POPC   C3A38981  15.111  21.451   8.018
 2988POPC   C4A38982  14.972  21.552   7.608
 2988POPC   C1B38983  15.488  21.810   8.851
 2988POPC   C2B38984  15.355  21.835   8.458
 2988POPC   C3B38985  15.543  21.727   8.105
 2988POPC   C4B38986  15.419  21.764   7.705
 2989POPC   NC338987  39.882  36.718   9.349
 2989POPC   PO438988  40.492  37.057   9.390
 2989POPC   GL138989  40.192  37.013   9.072
 2989POPC   GL238990  40.314  36.688   9.064
 2989POPC   C1A38991  40.026  36.834   8.682
 2989POPC   D2A38992  40.024  36.674   8.280
 2989POPC   C3A38993  39.938  36.916   7.916
 2989POPC   C4A38994  39.879  36.882   7.489
 2989POPC   C1B38995  40.503  36.545   8.712
 2989POPC   C2B38996  40.518  36.442   8.271
 2989POPC   C3B38997  40.376  36.653   7.899
 2989POPC   C4B38998  40.315  36.603   7.440
 2990POPC   NC338999  18.016  33.323   9.408
 2990POPC   PO439000  18.521  32.761   9.501
 2990POPC   GL139001  18.329  32.877   9.166
 2990POPC   GL239002  18.355  33.237   9.033
 2990POPC   C1A39003  18.451  32.768   8.782
 2990POPC   D2A39004  18.442  33.051   8.474
 2990POPC   C3A39005  18.586  32.917   8.091
 2990POPC   C4A39006  18.684  32.723   7.715
 2990POPC   C1B39007  17.995  32.994   8.815
 2990POPC   C2B39008  17.942  32.936   8.407
 2990POPC   C3B39009  18.115  33.089   8.079
 2990POPC   C4B39010  18.300  33.107   7.675
 2991POPC   NC339011  16.219  26.637   9.340
 2991POPC   PO439012  16.751  26.258   9.553
 2991POPC   GL139013  16.541  26.263   9.175
 2991POPC   GL239014  16.701  25.971   9.099
 2991POPC   C1A39015  16.589  26.299   8.724
 2991POPC   D2A39016  16.809  26.217   8.332
 2991POPC   C3A39017  16.624  26.380   7.971
 2991POPC   C4A39018  16.575  26.110   7.636
 2991POPC   C1B39019  16.906  25.869   8.716
 2991POPC   C2B39020  16.747  25.591   8.402
 2991POPC   C3B39021  16.590  25.721   8.008
 2991POPC   C4B39022  16.920  25.728   7.724
 2992POPC   NC339023  26.464  33.045   9.749
 2992POPC   PO439024  25.983  33.299   9.383
 2992POPC   GL139025  25.984  33.035   9.079
 2992POPC   GL239026  26.296  32.876   9.093
 2992POPC   C1A39027  25.837  32.884   8.685
 2992POPC   D2A39028  25.923  33.125   8.317
 2992POPC   C3A39029  25.692  32.920   8.020
 2992POPC   C4A39030  25.719  32.786   7.606
 2992POPC   C1B39031  26.332  32.978   8.649
 2992POPC   C2B39032  26.423  33.305   8.366
 2992POPC   C3B39033  26.359  33.421   7.954
 2992POPC   C4B39034  26.396  33.288   7.491
 2993POPC   NC339035  20.451   4.098   9.457
 2993POPC   PO439036  20.301   4.775   9.385
 2993POPC   GL139037  20.482   4.519   9.068
 2993POPC   GL239038  20.671   4.190   9.003
 2993POPC   C1A39039  20.348   4.439   8.668
 2993POPC   D2A39040  20.155   4.522   8.281
 2993POPC   C3A39041  20.424   4.414   7.970
 2993POPC   C4A39042  20.363   4.191   7.632
 2993POPC   C1B39043  20.899   4.464   8.759
 2993POPC   C2B39044  20.981   4.379   8.339
 2993POPC   C3B39045  20.918   4.578   7.976
 2993POPC   C4B39046  20.851   4.362   7.635
 2994POPC   NC339047  36.065  26.617   9.547
 2994POPC   PO439048  36.113  27.147   9.237
 2994POPC   GL139049  36.257  26.778   9.026
 2994POPC   GL239050  36.179  26.400   9.051
 2994POPC   C1A39051  36.222  26.867   8.589
 2994POPC   D2A39052  36.289  27.203   8.275
 2994POPC   C3A39053  36.203  26.905   7.953
 2994POPC   C4A39054  35.993  26.923   7.574
 2994POPC   C1B39055  35.771  26.565   8.904
 2994POPC   C2B39056  35.697  26.763   8.499
 2994POPC   C3B39057  35.781  26.630   8.048
 2994POPC   C4B39058  36.094  26.446   7.699
 2995POPC   NC339059  21.720  30.127   9.464
 2995POPC   PO439060  21.460  29.509   9.395
 2995POPC   GL139061  21.367  29.811   9.116
 2995POPC   GL239062  21.197  30.096   9.279
 2995POPC   C1A39063  21.539  29.849   8.703
 2995POPC   D2A39064  21.562  29.970   8.284
 2995POPC   C3A39065  21.753  29.697   7.969
 2995POPC   C4A39066  21.583  29.862   7.608
 2995POPC   C1B39067  21.142  30.172   8.823
 2995POPC   C2B39068  21.055  30.058   8.395
 2995POPC   C3B39069  21.158  29.992   7.945
 2995POPC   C4B39070  21.159  30.313   7.635
 2996POPC   NC339071  21.011  22.310   9.518
 2996POPC   PO439072  21.637  22.501   9.546
 2996POPC   GL139073  21.520  22.140   9.208
 2996POPC   GL239074  21.152  21.981   9.144
 2996POPC   C1A39075  21.540  22.139   8.737
 2996POPC   D2A39076  21.610  22.469   8.398
 2996POPC   C3A39077  21.377  22.505   8.004
 2996POPC   C4A39078  21.495  22.413   7.594
 2996POPC   C1B39079  21.020  22.006   8.702
 2996POPC   C2B39080  21.252  22.073   8.315
 2996POPC   C3B39081  21.582  22.042   8.030
 2996POPC   C4B39082  21.329  21.963   7.733
 2997POPC   NC339083  27.138  31.730   9.523
 2997POPC   PO439084  27.681  31.345   9.435
 2997POPC   GL139085  27.492  31.413   9.039
 2997POPC   GL239086  27.439  31.762   9.056
 2997POPC   C1A39087  27.608  31.233   8.613
 2997POPC   D2A39088  27.900  31.358   8.271
 2997POPC   C3A39089  27.860  31.616   7.912
 2997POPC   C4A39090  27.636  31.613   7.537
 2997POPC   C1B39091  27.576  31.741   8.610
 2997POPC   C2B39092  27.424  31.596   8.233
 2997POPC   C3B39093  27.219  31.729   7.870
 2997POPC   C4B39094  27.076  31.560   7.505
 2998POPC   NC339095  32.155  19.484   9.444
 2998POPC   PO439096  32.450  20.114   9.415
 2998POPC   GL139097  32.167  19.897   9.076
 2998POPC   GL239098  32.074  19.531   8.963
 2998POPC   C1A39099  32.070  19.923   8.610
 2998POPC   D2A39100  31.929  20.113   8.203
 2998POPC   C3A39101  32.060  19.997   7.796
 2998POPC   C4A39102  32.124  20.127   7.323
 2998POPC   C1B39103  32.345  19.491   8.631
 2998POPC   C2B39104  32.227  19.615   8.215
 2998POPC   C3B39105  32.106  19.387   7.845
 2998POPC   C4B39106  32.102  19.623   7.473
 2999POPC   NC339107  36.659   1.214   9.502
 2999POPC   PO439108  37.445   1.100   9.561
 2999POPC   GL139109  37.238   1.087   9.116
 2999POPC   GL239110  36.898   0.959   9.147
 2999POPC   C1A39111  37.166   0.848   8.720
 2999POPC   D2A39112  36.881   0.768   8.351
 2999POPC   C3A39113  36.899   1.014   7.996
 2999POPC   C4A39114  37.224   1.028   7.690
 2999POPC   C1B39115  36.680   1.010   8.769
 2999POPC   C2B39116  36.782   1.290   8.458
 2999POPC   C3B39117  36.609   1.431   8.082
 2999POPC   C4B39118  36.827   1.493   7.722
 3000POPC   NC339119   5.479  26.477   9.314
 3000POPC   PO439120   5.973  26.036   9.497
 3000POPC   GL139121   5.878  26.009   9.078
 3000POPC   GL239122   6.223  26.044   9.006
 3000POPC   C1A39123   5.596  25.887   8.727
 3000POPC   D2A39124   5.433  26.099   8.354
 3000POPC   C3A39125   5.465  25.843   7.978
 3000POPC   C4A39126   5.781  25.741   7.691
 3000POPC   C1B39127   6.109  25.807   8.653
 3000POPC   C2B39128   5.906  25.897   8.282
 3000POPC   C3B39129   6.045  26.126   7.938
 3000POPC   C4B39130   6.235  25.964   7.570
 3001POPC   NC339131   9.663  36.340   9.519
 3001POPC   PO439132  10.016  35.677   9.464
 3001POPC   GL139133   9.849  36.038   9.166
 3001POPC   GL239134   9.950  36.414   9.093
 3001POPC   C1A39135   9.598  36.215   8.790
 3001POPC   D2A39136   9.759  36.064   8.396
 3001POPC   C3A39137   9.662  36.313   8.047
 3001POPC   C4A39138   9.533  36.072   7.736
 3001POPC   C1B39139  10.137  36.209   8.769
 3001POPC   C2B39140  10.330  36.279   8.401
 3001POPC   C3B39141  10.151  36.221   8.028
 3001POPC   C4B39142   9.971  36.284   7.619
 3002POPC   NC339143  13.818  26.169   9.568
 3002POPC   PO439144  13.358  25.656   9.526
 3002POPC   GL139145  13.535  25.997   9.188
 3002POPC   GL239146  13.966  25.939   9.133
 3002POPC   C1A39147  13.552  26.147   8.724
 3002POPC   D2A39148  13.311  26.140   8.290
 3002POPC   C3A39149  13.351  26.314   7.850
 3002POPC   C4A39150  13.229  26.295   7.387
 3002POPC   C1B39151  14.019  25.979   8.675
 3002POPC   C2B39152  13.859  26.114   8.281
 3002POPC   C3B39153  13.632  25.889   7.955
 3002POPC   C4B39154  13.473  25.880   7.535
 3003POPC   NC339155   6.360   8.504   9.330
 3003POPC   PO439156   6.729   9.029   9.417
 3003POPC   GL139157   6.716   8.883   9.056
 3003POPC   GL239158   6.968   8.630   9.068
 3003POPC   C1A39159   6.400   8.906   8.736
 3003POPC   D2A39160   6.345   9.176   8.392
 3003POPC   C3A39161   6.470   9.028   7.978
 3003POPC   C4A39162   6.299   9.264   7.647
 3003POPC   C1B39163   6.708   8.506   8.722
 3003POPC   C2B39164   6.513   8.583   8.296
 3003POPC   C3B39165   6.781   8.574   7.922
 3003POPC   C4B39166   6.990   8.963   7.824
 3004POPC   NC339167   6.811  31.173   9.420
 3004POPC   PO439168   6.355  31.639   9.515
 3004POPC   GL139169   6.438  31.432   9.135
 3004POPC   GL239170   6.308  31.753   9.026
 3004POPC   C1A39171   6.747  31.331   8.784
 3004POPC   D2A39172   6.988  31.336   8.394
 3004POPC   C3A39173   6.746  31.414   8.014
 3004POPC   C4A39174   6.582  31.336   7.595
 3004POPC   C1B39175   6.636  31.858   8.833
 3004POPC   C2B39176   6.761  31.775   8.453
 3004POPC   C3B39177   6.636  31.919   8.112
 3004POPC   C4B39178   6.498  31.808   7.719
 3005POPC   NC339179  44.202  32.356   9.545
 3005POPC   PO439180  43.876  31.809   9.499
 3005POPC   GL139181  43.833  32.135   9.212
 3005POPC   GL239182  43.515  32.364   9.287
 3005POPC   C1A39183  44.088  32.212   8.821
 3005POPC   D2A39184  44.249  32.477   8.451
 3005POPC   C3A39185  44.258  32.347   8.017
 3005POPC   C4A39186  44.071  32.372   7.612
 3005POPC   C1B39187  43.549  32.261   8.829
 3005POPC   C2B39188  43.767  32.147   8.441
 3005POPC   C3B39189  43.755  32.337   8.089
 3005POPC   C4B39190  43.599  32.455   7.739
 3006POPC   NC339191   9.845  41.149   9.527
 3006POPC   PO439192   9.531  41.650   9.430
 3006POPC   GL139193   9.726  41.423   9.105
 3006POPC   GL239194  10.061  41.441   9.177
 3006POPC   C1A39195   9.714  41.500   8.680
 3006POPC   D2A39196   9.371  41.711   8.498
 3006POPC   C3A39197   9.288  41.544   8.097
 3006POPC   C4A39198   9.475  41.660   7.704
 3006POPC   C1B39199  10.195  41.296   8.819
 3006POPC   C2B39200  10.203  41.554   8.478
 3006POPC   C3B39201  10.036  41.575   8.106
 3006POPC   C4B39202   9.869  41.387   7.775
 3007POPC   NC339203  26.885  40.371   9.385
 3007POPC   PO439204  26.919  41.069   9.434
 3007POPC   GL139205  26.871  40.892   9.081
 3007POPC   GL239206  27.143  40.692   9.104
 3007POPC   C1A39207  26.808  41.060   8.687
 3007POPC   D2A39208  26.980  41.078   8.300
 3007POPC   C3A39209  26.704  40.959   7.966
 3007POPC   C4A39210  27.070  41.043   7.738
 3007POPC   C1B39211  26.988  40.516   8.726
 3007POPC   C2B39212  26.798  40.591   8.350
 3007POPC   C3B39213  26.785  40.448   7.938
 3007POPC   C4B39214  26.410  40.513   7.685
 3008POPC   NC339215  33.895  44.616  10.066
 3008POPC   PO439216  33.867  44.676   9.381
 3008POPC   GL139217  33.637  44.666   9.066
 3008POPC   GL239218  33.750  44.982   8.952
 3008POPC   C1A39219  33.636  44.603   8.638
 3008POPC   D2A39220  33.462  44.826   8.369
 3008POPC   C3A39221  33.439  44.599   8.038
 3008POPC   C4A39222  33.409  44.954   7.814
 3008POPC   C1B39223  34.099  44.737   8.768
 3008POPC   C2B39224  34.086  44.349   8.516
 3008POPC   C3B39225  33.936  44.643   8.221
 3008POPC   C4B39226  33.881  44.722   7.822
 3009POPC   NC339227  13.896  39.268   9.508
 3009POPC   PO439228  14.564  39.202   9.807
 3009POPC   GL139229  14.591  39.349   9.329
 3009POPC   GL239230  14.264  39.320   9.137
 3009POPC   C1A39231  14.685  39.304   8.869
 3009POPC   D2A39232  14.625  39.491   8.464
 3009POPC   C3A39233  14.350  39.333   8.155
 3009POPC   C4A39234  14.382  39.437   7.710
 3009POPC   C1B39235  14.192  39.194   8.687
 3009POPC   C2B39236  13.915  38.987   8.397
 3009POPC   C3B39237  13.925  39.093   7.962
 3009POPC   C4B39238  13.942  39.250   7.589
 3010POPC   NC339239  40.043  10.051   9.613
 3010POPC   PO439240  39.755   9.415   9.474
 3010POPC   GL139241  40.060   9.696   9.231
 3010POPC   GL239242  40.436   9.677   9.215
 3010POPC   C1A39243  40.124   9.811   8.814
 3010POPC   D2A39244  39.844   9.747   8.482
 3010POPC   C3A39245  40.062   9.703   8.100
 3010POPC   C4A39246  40.007   9.547   7.697
 3010POPC   C1B39247  40.516   9.468   8.803
 3010POPC   C2B39248  40.564   9.308   8.380
 3010POPC   C3B39249  40.344   9.294   7.997
 3010POPC   C4B39250  40.480   9.368   7.623
 3011POPC   NC339251   5.146  24.960   9.533
 3011POPC   PO439252   4.795  24.355   9.456
 3011POPC   GL139253   5.060  24.578   9.192
 3011POPC   GL239254   4.932  24.874   9.090
 3011POPC   C1A39255   5.246  24.517   8.803
 3011POPC   D2A39256   5.485  24.486   8.427
 3011POPC   C3A39257   5.234  24.526   8.098
 3011POPC   C4A39258   5.148  24.337   7.713
 3011POPC   C1B39259   5.263  25.023   8.832
 3011POPC   C2B39260   5.135  24.953   8.424
 3011POPC   C3B39261   4.838  24.894   8.113
 3011POPC   C4B39262   5.036  24.831   7.732
 3012POPC   NC339263  14.907   2.526   9.365
 3012POPC   PO439264  15.512   2.790   9.454
 3012POPC   GL139265  15.402   2.502   9.126
 3012POPC   GL239266  15.250   2.787   9.005
 3012POPC   C1A39267  15.157   2.368   8.739
 3012POPC   D2A39268  14.897   2.533   8.399
 3012POPC   C3A39269  15.112   2.599   8.004
 3012POPC   C4A39270  15.211   2.873   7.689
 3012POPC   C1B39271  15.210   2.909   8.575
 3012POPC   C2B39272  15.315   3.075   8.157
 3012POPC   C3B39273  15.189   3.361   7.827
 3012POPC   C4B39274  14.822   3.410   7.578
 3013POPC   NC339275  24.761  18.842   9.433
 3013POPC   PO439276  24.265  19.261   9.448
 3013POPC   GL139277  24.410  19.181   9.069
 3013POPC   GL239278  24.757  19.227   9.071
 3013POPC   C1A39279  24.398  19.282   8.649
 3013POPC   D2A39280  24.521  19.022   8.307
 3013POPC   C3A39281  24.489  19.189   7.926
 3013POPC   C4A39282  24.308  19.518   7.717
 3013POPC   C1B39283  24.740  18.887   8.761
 3013POPC   C2B39284  24.974  18.839   8.382
 3013POPC   C3B39285  24.980  18.782   7.961
 3013POPC   C4B39286  24.804  18.935   7.576
 3014POPC   NC339287  34.026  43.603   9.577
 3014POPC   PO439288  34.590  43.984   9.368
 3014POPC   GL139289  34.507  43.700   9.029
 3014POPC   GL239290  34.173  43.576   9.086
 3014POPC   C1A39291  34.654  43.877   8.642
 3014POPC   D2A39292  34.624  44.156   8.319
 3014POPC   C3A39293  34.674  43.904   7.955
 3014POPC   C4A39294  35.044  43.938   7.721
 3014POPC   C1B39295  34.160  43.759   8.660
 3014POPC   C2B39296  34.201  43.882   8.208
 3014POPC   C3B39297  34.207  43.909   7.745
 3014POPC   C4B39298  34.183  43.897   7.273
 3015POPC   NC339299  17.089  36.144   9.837
 3015POPC   PO439300  16.571  36.225   9.533
 3015POPC   GL139301  16.520  36.378   9.110
 3015POPC   GL239302  16.643  36.065   9.008
 3015POPC   C1A39303  16.852  36.457   8.782
 3015POPC   D2A39304  17.087  36.341   8.434
 3015POPC   C3A39305  16.828  36.158   8.112
 3015POPC   C4A39306  16.756  36.447   7.768
 3015POPC   C1B39307  17.039  35.936   8.804
 3015POPC   C2B39308  17.233  35.861   8.382
 3015POPC   C3B39309  17.320  36.133   8.012
 3015POPC   C4B39310  17.099  36.067   7.650
 3016POPC   NC339311  44.813   9.456   9.723
 3016POPC   PO439312  44.627   8.785   9.519
 3016POPC   GL139313  44.870   8.866   9.161
 3016POPC   GL239314  44.913   9.188   9.303
 3016POPC   C1A39315  44.754   8.986   8.742
 3016POPC   D2A39316  44.460   8.972   8.402
 3016POPC   C3A39317  44.694   8.941   8.028
 3016POPC   C4A39318  44.468   9.063   7.721
 3016POPC   C1B39319  44.991   9.406   8.933
 3016POPC   C2B39320   0.055   9.441   8.529
 3016POPC   C3B39321   0.034   9.559   8.110
 3016POPC   C4B39322  44.915   9.329   7.781
 3017POPC   NC339323  24.997  15.779   9.433
 3017POPC   PO439324  25.649  15.765   9.357
 3017POPC   GL139325  25.341  15.978   9.098
 3017POPC   GL239326  25.208  15.712   8.982
 3017POPC   C1A39327  25.157  16.159   8.737
 3017POPC   D2A39328  25.138  15.931   8.386
 3017POPC   C3A39329  25.230  16.123   7.990
 3017POPC   C4A39330  25.295  16.281   7.601
 3017POPC   C1B39331  25.563  15.728   8.701
 3017POPC   C2B39332  25.650  15.475   8.373
 3017POPC   C3B39333  25.473  15.613   8.024
 3017POPC   C4B39334  25.578  15.858   7.711
 3018POPC   NC339335   1.371  23.618   9.468
 3018POPC   PO439336   0.803  23.704   9.594
 3018POPC   GL139337   1.022  23.877   9.144
 3018POPC   GL239338   1.411  23.964   9.099
 3018POPC   C1A39339   1.150  24.017   8.682
 3018POPC   D2A39340   1.371  23.919   8.279
 3018POPC   C3A39341   1.142  23.951   7.879
 3018POPC   C4A39342   1.024  23.628   7.556
 3018POPC   C1B39343   1.556  23.714   8.770
 3018POPC   C2B39344   1.579  23.464   8.391
 3018POPC   C3B39345   1.568  23.576   7.941
 3018POPC   C4B39346   1.452  23.332   7.560
 3019POPC   NC339347  27.980  22.220   9.423
 3019POPC   PO439348  27.283  22.340   9.481
 3019POPC   GL139349  27.547  22.302   9.131
 3019POPC   GL239350  27.602  21.971   9.134
 3019POPC   C1A39351  27.820  22.249   8.757
 3019POPC   D2A39352  27.844  22.443   8.365
 3019POPC   C3A39353  27.574  22.298   8.068
 3019POPC   C4A39354  27.524  22.487   7.674
 3019POPC   C1B39355  27.740  21.737   8.760
 3019POPC   C2B39356  27.984  21.732   8.381
 3019POPC   C3B39357  27.863  21.802   7.946
 3019POPC   C4B39358  27.560  21.983   7.632
 3020POPC   NC339359   8.742   4.640   9.491
 3020POPC   PO439360   9.241   5.126   9.450
 3020POPC   GL139361   8.988   4.984   9.123
 3020POPC   GL239362   8.940   4.627   9.025
 3020POPC   C1A39363   9.064   5.035   8.704
 3020POPC   D2A39364   8.966   5.297   8.389
 3020POPC   C3A39365   9.021   5.036   8.072
 3020POPC   C4A39366   9.395   4.954   7.852
 3020POPC   C1B39367   8.627   4.733   8.740
 3020POPC   C2B39368   8.572   4.972   8.341
 3020POPC   C3B39369   8.620   4.743   7.918
 3020POPC   C4B39370   8.927   4.880   7.572
 3021POPC   NC339371   7.151   9.565   9.556
 3021POPC   PO439372   7.589   9.994   9.706
 3021POPC   GL139373   7.600   9.974   9.197
 3021POPC   GL239374   7.416   9.660   9.108
 3021POPC   C1A39375   7.521   9.960   8.704
 3021POPC   D2A39376   7.132   9.927   8.424
 3021POPC   C3A39377   7.228   9.857   7.996
 3021POPC   C4A39378   7.669   9.733   7.861
 3021POPC   C1B39379   7.284   9.491   8.688
 3021POPC   C2B39380   7.417   9.447   8.243
 3021POPC   C3B39381   7.321   9.365   7.795
 3021POPC   C4B39382   7.261   9.345   7.323
 3022POPC   NC339383  19.558  34.351   9.604
 3022POPC   PO439384  18.884  34.467   9.501
 3022POPC   GL139385  19.077  34.574   9.121
 3022POPC   GL239386  19.389  34.434   9.132
 3022POPC   C1A39387  19.106  34.515   8.673
 3022POPC   D2A39388  19.155  34.274   8.304
 3022POPC   C3A39389  19.048  34.413   7.895
 3022POPC   C4A39390  19.328  34.514   7.584
 3022POPC   C1B39391  19.514  34.768   8.878
 3022POPC   C2B39392  19.399  34.892   8.477
 3022POPC   C3B39393  19.474  34.697   8.075
 3022POPC   C4B39394  19.585  34.925   7.693
 3023POPC   NC339395   4.831  11.773   9.645
 3023POPC   PO439396   4.569  12.037   9.136
 3023POPC   GL139397   5.048  11.972   9.136
 3023POPC   GL239398   5.289  12.254   9.141
 3023POPC   C1A39399   5.340  11.937   8.763
 3023POPC   D2A39400   5.133  11.845   8.402
 3023POPC   C3A39401   5.255  11.973   8.012
 3023POPC   C4A39402   4.945  11.957   7.755
 3023POPC   C1B39403   5.091  12.400   8.754
 3023POPC   C2B39404   5.212  12.361   8.347
 3023POPC   C3B39405   5.082  12.442   7.915
 3023POPC   C4B39406   5.308  12.318   7.572
 3024POPC   NC339407  16.716  24.177   9.468
 3024POPC   PO439408  17.128  24.617   9.405
 3024POPC   GL139409  16.845  24.530   9.042
 3024POPC   GL239410  16.616  24.214   8.972
 3024POPC   C1A39411  16.773  24.578   8.610
 3024POPC   D2A39412  16.849  24.264   8.294
 3024POPC   C3A39413  16.984  24.466   7.930
 3024POPC   C4A39414  16.980  24.887   7.799
 3024POPC   C1B39415  16.403  24.195   8.570
 3024POPC   C2B39416  16.319  24.508   8.279
 3024POPC   C3B39417  16.313  24.769   7.936
 3024POPC   C4B39418  16.561  24.525   7.660
 3025POPC   NC339419  23.564  35.350   9.366
 3025POPC   PO439420  24.099  34.946   9.642
 3025POPC   GL139421  23.990  35.082   9.186
 3025POPC   GL239422  24.013  35.391   9.047
 3025POPC   C1A39423  23.721  35.088   8.773
 3025POPC   D2A39424  23.414  35.292   8.467
 3025POPC   C3A39425  23.428  35.104   8.057
 3025POPC   C4A39426  23.736  35.087   7.744
 3025POPC   C1B39427  23.714  35.594   8.768
 3025POPC   C2B39428  23.673  35.787   8.355
 3025POPC   C3B39429  23.615  35.602   7.925
 3025POPC   C4B39430  23.868  35.556   7.525
 3026POPC   NC339431  40.514  25.832   9.684
 3026POPC   PO439432  40.947  26.343   9.539
 3026POPC   GL139433  40.796  26.121   9.172
 3026POPC   GL239434  40.708  25.748   9.219
 3026POPC   C1A39435  40.852  26.212   8.751
 3026POPC   D2A39436  40.560  26.276   8.439
 3026POPC   C3A39437  40.713  26.288   8.024
 3026POPC   C4A39438  40.814  26.373   7.575
 3026POPC   C1B39439  40.481  25.853   8.831
 3026POPC   C2B39440  40.598  25.734   8.421
 3026POPC   C3B39441  40.553  25.805   8.008
 3026POPC   C4B39442  40.776  25.896   7.678
 3027POPC   NC339443  20.824  21.330   9.577
 3027POPC   PO439444  20.203  21.370   9.493
 3027POPC   GL139445  20.488  21.399   9.160
 3027POPC   GL239446  20.665  21.099   9.146
 3027POPC   C1A39447  20.433  21.489   8.732
 3027POPC   D2A39448  20.210  21.419   8.359
 3027POPC   C3A39449  20.478  21.241   8.024
 3027POPC   C4A39450  20.898  21.423   8.024
 3027POPC   C1B39451  20.658  21.006   8.713
 3027POPC   C2B39452  20.887  21.021   8.334
 3027POPC   C3B39453  20.872  20.919   7.906
 3027POPC   C4B39454  20.832  20.984   7.468
 3028POPC   NC339455  38.098  13.412   9.494
 3028POPC   PO439456  37.430  13.753   9.522
 3028POPC   GL139457  37.755  13.702   9.217
 3028POPC   GL239458  37.441  13.648   9.022
 3028POPC   C1A39459  37.893  13.595   8.806
 3028POPC   D2A39460  37.556  13.616   8.502
 3028POPC   C3A39461  37.734  13.724   8.127
 3028POPC   C4A39462  37.703  13.635   7.731
 3028POPC   C1B39463  37.211  13.934   8.762
 3028POPC   C2B39464  37.117  13.879   8.332
 3028POPC   C3B39465  37.318  13.976   7.936
 3028POPC   C4B39466  37.068  14.096   7.579
 3029POPC   NC339467  35.517  33.273   9.499
 3029POPC   PO439468  35.063  32.806   9.372
 3029POPC   GL139469  35.005  32.968   9.011
 3029POPC   GL239470  35.233  33.263   9.081
 3029POPC   C1A39471  35.182  32.966   8.633
 3029POPC   D2A39472  35.473  32.971   8.311
 3029POPC   C3A39473  35.347  32.812   7.918
 3029POPC   C4A39474  35.726  32.757   7.713
 3029POPC   C1B39475  35.511  33.410   8.781
 3029POPC   C2B39476  35.270  33.442   8.434
 3029POPC   C3B39477  35.219  33.312   8.020
 3029POPC   C4B39478  35.088  33.540   7.699
 3030POPC   NC339479   8.889  14.918   9.546
 3030POPC   PO439480   8.993  15.540   9.568
 3030POPC   GL139481   8.863  15.469   9.145
 3030POPC   GL239482   8.729  15.139   9.078
 3030POPC   C1A39483   9.023  15.397   8.742
 3030POPC   D2A39484   9.305  15.377   8.421
 3030POPC   C3A39485   9.103  15.457   8.057
 3030POPC   C4A39486   9.212  15.257   7.716
 3030POPC   C1B39487   8.518  15.342   8.688
 3030POPC   C2B39488   8.700  15.203   8.272
 3030POPC   C3B39489   8.876  14.945   7.920
 3030POPC   C4B39490   8.939  14.943   7.446
 3031POPC   NC339491  41.372  29.322   9.532
 3031POPC   PO439492  41.695  28.718   9.454
 3031POPC   GL139493  41.490  29.001   9.147
 3031POPC   GL239494  41.604  29.364   9.095
 3031POPC   C1A39495  41.332  29.082   8.748
 3031POPC   D2A39496  41.515  29.053   8.346
 3031POPC   C3A39497  41.354  29.267   8.004
 3031POPC   C4A39498  41.593  29.170   7.657
 3031POPC   C1B39499  41.666  29.621   8.763
 3031POPC   C2B39500  41.609  29.565   8.369
 3031POPC   C3B39501  41.766  29.572   7.964
 3031POPC   C4B39502  41.526  29.655   7.586
 3032POPC   NC339503  23.403  31.044   9.436
 3032POPC   PO439504  22.829  30.733   9.667
 3032POPC   GL139505  22.952  30.869   9.242
 3032POPC   GL239506  22.869  30.546   9.109
 3032POPC   C1A39507  23.004  31.004   8.782
 3032POPC   D2A39508  22.891  30.935   8.313
 3032POPC   C3A39509  23.064  30.911   7.860
 3032POPC   C4A39510  23.248  30.662   7.485
 3032POPC   C1B39511  23.030  30.296   8.748
 3032POPC   C2B39512  22.950  30.255   8.282
 3032POPC   C3B39513  22.969  30.353   7.815
 3032POPC   C4B39514  22.735  30.513   7.429
 3033POPC   NC339515  19.476   4.041   9.370
 3033POPC   PO439516  19.099   4.438   9.770
 3033POPC   GL139517  18.996   4.241   9.287
 3033POPC   GL239518  18.873   4.545   9.180
 3033POPC   C1A39519  19.116   4.044   8.820
 3033POPC   D2A39520  19.213   3.837   8.373
 3033POPC   C3A39521  19.037   4.038   7.975
 3033POPC   C4A39522  18.953   4.400   7.707
 3033POPC   C1B39523  19.010   4.577   8.740
 3033POPC   C2B39524  19.082   4.714   8.331
 3033POPC   C3B39525  19.320   4.568   8.007
 3033POPC   C4B39526  19.402   4.668   7.578
 3034POPC   NC339527  33.670  15.807   9.748
 3034POPC   PO439528  34.111  16.167   9.517
 3034POPC   GL139529  33.795  15.965   9.261
 3034POPC   GL239530  34.058  15.746   9.178
 3034POPC   C1A39531  33.594  15.853   8.864
 3034POPC   D2A39532  33.677  15.683   8.441
 3034POPC   C3A39533  33.562  15.888   8.044
 3034POPC   C4A39534  33.693  15.704   7.673
 3034POPC   C1B39535  34.073  16.021   8.787
 3034POPC   C2B39536  33.989  16.079   8.329
 3034POPC   C3B39537  33.968  16.138   7.887
 3034POPC   C4B39538  33.588  16.265   7.666
 3035POPC   NC339539  30.275  24.144   9.541
 3035POPC   PO439540  29.635  24.299   9.694
 3035POPC   GL139541  29.802  24.106   9.297
 3035POPC   GL239542  29.982  24.388   9.145
 3035POPC   C1A39543  29.861  24.035   8.830
 3035POPC   D2A39544  29.784  24.240   8.435
 3035POPC   C3A39545  30.001  24.303   8.097
 3035POPC   C4A39546  29.929  24.134   7.702
 3035POPC   C1B39547  29.863  24.667   8.777
 3035POPC   C2B39548  29.918  24.836   8.375
 3035POPC   C3B39549  30.236  24.768   8.082
 3035POPC   C4B39550  30.148  24.607   7.697
 3036POPC   NC339551  34.809   9.986   9.470
 3036POPC   PO439552  34.170   9.674   9.422
 3036POPC   GL139553  34.420   9.889   9.153
 3036POPC   GL239554  34.676   9.610   9.146
 3036POPC   C1A39555  34.650  10.008   8.801
 3036POPC   D2A39556  34.488  10.003   8.393
 3036POPC   C3A39557  34.678   9.840   8.028
 3036POPC   C4A39558  34.973   9.899   7.686
 3036POPC   C1B39559  34.514   9.521   8.737
 3036POPC   C2B39560  34.248   9.520   8.378
 3036POPC   C3B39561  34.396   9.386   8.006
 3036POPC   C4B39562  34.561   9.508   7.646
 3037POPC   NC339563  36.736  40.769   9.524
 3037POPC   PO439564  37.326  40.464   9.627
 3037POPC   GL139565  37.207  40.724   9.193
 3037POPC   GL239566  36.894  40.860   9.060
 3037POPC   C1A39567  37.263  40.826   8.709
 3037POPC   D2A39568  36.926  40.869   8.439
 3037POPC   C3A39569  36.963  40.748   8.020
 3037POPC   C4A39570  37.205  40.840   7.704
 3037POPC   C1B39571  36.535  40.965   8.816
 3037POPC   C2B39572  36.489  41.157   8.428
 3037POPC   C3B39573  36.584  41.052   8.031
 3037POPC   C4B39574  36.469  40.828   7.628
 3038POPC   NC339575   7.077   1.848   9.740
 3038POPC   PO439576   6.443   2.076   9.489
 3038POPC   GL139577   6.625   1.953   9.163
 3038POPC   GL239578   6.540   1.663   9.149
 3038POPC   C1A39579   6.737   2.026   8.757
 3038POPC   D2A39580   6.669   1.889   8.378
 3038POPC   C3A39581   6.403   2.149   8.118
 3038POPC   C4A39582   6.611   2.222   7.738
 3038POPC   C1B39583   6.343   1.670   8.752
 3038POPC   C2B39584   6.207   1.656   8.299
 3038POPC   C3B39585   6.531   1.669   7.944
 3038POPC   C4B39586   6.659   1.705   7.508
 3039POPC   NC339587  20.234  21.809   9.362
 3039POPC   PO439588  20.555  22.399   9.459
 3039POPC   GL139589  20.669  22.243   9.043
 3039POPC   GL239590  20.582  21.908   8.999
 3039POPC   C1A39591  20.548  22.269   8.583
 3039POPC   D2A39592  20.731  22.141   8.185
 3039POPC   C3A39593  20.639  22.325   7.754
 3039POPC   C4A39594  20.548  22.730   7.550
 3039POPC   C1B39595  20.172  21.948   8.744
 3039POPC   C2B39596  20.136  21.921   8.310
 3039POPC   C3B39597  20.431  21.767   7.993
 3039POPC   C4B39598  20.848  21.852   7.782
 3040POPC   NC339599  29.580  30.165   9.580
 3040POPC   PO439600  30.009  29.704   9.489
 3040POPC   GL139601  29.701  29.720   9.163
 3040POPC   GL239602  29.756  30.035   9.125
 3040POPC   C1A39603  29.561  29.777   8.710
 3040POPC   D2A39604  29.391  29.699   8.274
 3040POPC   C3A39605  29.697  29.880   7.949
 3040POPC   C4A39606  30.161  29.750   7.873
 3040POPC   C1B39607  30.004  30.103   8.764
 3040POPC   C2B39608  30.204  30.059   8.369
 3040POPC   C3B39609  30.059  30.238   8.007
 3040POPC   C4B39610  29.877  30.419   7.638
 3041POPC   NC339611   5.307   1.824   9.837
 3041POPC   PO439612   4.904   2.257   9.516
 3041POPC   GL139613   5.018   1.980   9.218
 3041POPC   GL239614   5.378   1.957   9.274
 3041POPC   C1A39615   4.786   1.879   8.829
 3041POPC   D2A39616   4.939   1.836   8.398
 3041POPC   C3A39617   4.727   1.990   8.007
 3041POPC   C4A39618   4.815   2.076   7.553
 3041POPC   C1B39619   5.335   1.831   8.827
 3041POPC   C2B39620   5.583   1.721   8.464
 3041POPC   C3B39621   5.362   1.803   8.092
 3041POPC   C4B39622   5.251   1.965   7.731
 3042POPC   NC339623   4.555  13.372   9.641
 3042POPC   PO439624   4.193  13.966   9.720
 3042POPC   GL139625   4.245  13.704   9.298
 3042POPC   GL239626   4.469  13.405   9.135
 3042POPC   C1A39627   4.217  13.792   8.844
 3042POPC   D2A39628   4.164  13.641   8.415
 3042POPC   C3A39629   4.443  13.734   8.078
 3042POPC   C4A39630   4.257  13.686   7.687
 3042POPC   C1B39631   4.528  13.334   8.669
 3042POPC   C2B39632   4.464  13.188   8.228
 3042POPC   C3B39633   4.570  13.292   7.781
 3042POPC   C4B39634   4.530  13.424   7.291
 3043POPC   NC339635  19.572  29.023   9.269
 3043POPC   PO439636  20.145  29.122   9.645
 3043POPC   GL139637  20.021  29.243   9.167
 3043POPC   GL239638  19.695  29.336   8.914
 3043POPC   C1A39639  20.049  29.016   8.752
 3043POPC   D2A39640  20.134  29.172   8.346
 3043POPC   C3A39641  20.139  28.905   8.003
 3043POPC   C4A39642  19.962  29.013   7.618
 3043POPC   C1B39643  19.505  29.020   8.641
 3043POPC   C2B39644  19.674  28.976   8.258
 3043POPC   C3B39645  19.554  29.124   7.884
 3043POPC   C4B39646  19.457  28.882   7.553
 3044POPC   NC339647   3.403  36.661   9.530
 3044POPC   PO439648   3.715  37.161   9.497
 3044POPC   GL139649   3.717  36.841   9.159
 3044POPC   GL239650   3.362  36.882   9.027
 3044POPC   C1A39651   3.865  36.854   8.739
 3044POPC   D2A39652   3.629  36.847   8.352
 3044POPC   C3A39653   3.881  36.985   8.007
 3044POPC   C4A39654   3.872  36.970   7.565
 3044POPC   C1B39655   3.047  36.630   8.762
 3044POPC   C2B39656   2.983  36.445   8.345
 3044POPC   C3B39657   3.141  36.650   7.999
 3044POPC   C4B39658   3.402  36.908   7.736
 3045POPC   NC339659  31.592   3.950   9.436
 3045POPC   PO439660  31.336   4.600   9.420
 3045POPC   GL139661  31.295   4.301   9.096
 3045POPC   GL239662  31.145   4.596   8.943
 3045POPC   C1A39663  31.554   4.035   8.799
 3045POPC   D2A39664  31.771   4.050   8.412
 3045POPC   C3A39665  31.504   4.037   8.056
 3045POPC   C4A39666  31.510   4.271   7.720
 3045POPC   C1B39667  31.529   4.539   8.697
 3045POPC   C2B39668  31.597   4.537   8.272
 3045POPC   C3B39669  31.241   4.545   8.033
 3045POPC   C4B39670  30.975   4.737   7.736
 3046POPC   NC339671  24.773  29.453   9.477
 3046POPC   PO439672  24.334  28.956   9.349
 3046POPC   GL139673  24.588  29.141   9.053
 3046POPC   GL239674  24.432  29.478   9.104
 3046POPC   C1A39675  24.577  28.955   8.635
 3046POPC   D2A39676  24.325  28.837   8.282
 3046POPC   C3A39677  24.349  29.086   7.932
 3046POPC   C4A39678  24.758  29.128   7.768
 3046POPC   C1B39679  24.219  29.325   8.749
 3046POPC   C2B39680  24.409  29.359   8.375
 3046POPC   C3B39681  24.418  29.610   8.056
 3046POPC   C4B39682  24.195  29.604   7.707
 3047POPC   NC339683   3.315  11.248   9.479
 3047POPC   PO439684   3.967  11.153   9.506
 3047POPC   GL139685   3.702  11.132   9.148
 3047POPC   GL239686   3.485  11.430   9.027
 3047POPC   C1A39687   3.757  11.125   8.712
 3047POPC   D2A39688   3.564  11.413   8.425
 3047POPC   C3A39689   3.666  11.282   8.014
 3047POPC   C4A39690   3.749  11.319   7.597
 3047POPC   C1B39691   3.234  11.135   8.755
 3047POPC   C2B39692   3.292  10.987   8.316
 3047POPC   C3B39693   3.186  11.160   7.904
 3047POPC   C4B39694   3.174  11.073   7.437
 3048POPC   NC339695  34.854  30.187   9.601
 3048POPC   PO439696  34.343  29.800   9.506
 3048POPC   GL139697  34.539  29.941   9.150
 3048POPC   GL239698  34.919  29.959   9.148
 3048POPC   C1A39699  34.389  30.040   8.744
 3048POPC   D2A39700  34.456  29.834   8.348
 3048POPC   C3A39701  34.335  30.069   7.993
 3048POPC   C4A39702  34.454  29.861   7.622
 3048POPC   C1B39703  35.040  29.813   8.746
 3048POPC   C2B39704  34.956  29.988   8.321
 3048POPC   C3B39705  34.831  30.062   7.882
 3048POPC   C4B39706  34.875  30.025   7.354
 3049POPC   NC339707  38.855  39.245   9.635
 3049POPC   PO439708  39.403  38.904   9.739
 3049POPC   GL139709  39.233  39.097   9.284
 3049POPC   GL239710  39.036  39.397   9.149
 3049POPC   C1A39711  39.419  39.261   8.857
 3049POPC   D2A39712  39.292  39.231   8.405
 3049POPC   C3A39713  39.492  39.431   8.055
 3049POPC   C4A39714  39.528  39.208   7.680
 3049POPC   C1B39715  38.908  39.252   8.728
 3049POPC   C2B39716  38.790  39.117   8.286
 3049POPC   C3B39717  39.023  39.262   7.886
 3049POPC   C4B39718  39.123  39.327   7.401
 3050POPC   NC339719   1.611  16.808   9.602
 3050POPC   PO439720   0.903  16.851   9.601
 3050POPC   GL139721   1.135  16.646   9.271
 3050POPC   GL239722   0.961  16.355   9.144
 3050POPC   C1A39723   1.195  16.743   8.824
 3050POPC   D2A39724   1.267  17.006   8.452
 3050POPC   C3A39725   1.181  16.830   8.061
 3050POPC   C4A39726   1.287  16.796   7.648
 3050POPC   C1B39727   1.098  16.236   8.754
 3050POPC   C2B39728   1.220  16.421   8.400
 3050POPC   C3B39729   0.984  16.347   8.054
 3050POPC   C4B39730   0.851  16.545   7.716
 3051POPC   NC339731   1.407  30.077   9.315
 3051POPC   PO439732   0.730  30.060   9.446
 3051POPC   GL139733   0.938  29.766   9.104
 3051POPC   GL239734   1.330  29.652   9.016
 3051POPC   C1A39735   1.025  29.720   8.646
 3051POPC   D2A39736   1.095  30.108   8.435
 3051POPC   C3A39737   1.204  30.188   8.028
 3051POPC   C4A39738   1.365  30.472   7.724
 3051POPC   C1B39739   1.525  29.884   8.659
 3051POPC   C2B39740   1.568  29.872   8.233
 3051POPC   C3B39741   1.331  29.638   7.957
 3051POPC   C4B39742   0.899  29.761   7.931
 3052POPC   NC339743  14.381  19.393   9.620
 3052POPC   PO439744  14.610  19.924   9.431
 3052POPC   GL139745  14.441  19.760   9.100
 3052POPC   GL239746  14.099  19.707   9.199
 3052POPC   C1A39747  14.219  19.831   8.716
 3052POPC   D2A39748  14.106  19.995   8.330
 3052POPC   C3A39749  14.248  19.827   7.924
 3052POPC   C4A39750  14.255  19.893   7.461
 3052POPC   C1B39751  13.934  19.417   8.851
 3052POPC   C2B39752  13.864  19.513   8.408
 3052POPC   C3B39753  14.018  19.356   8.027
 3052POPC   C4B39754  14.218  19.393   7.597
 3053POPC   NC339755  21.832   3.111   9.778
 3053POPC   PO439756  22.253   2.642   9.546
 3053POPC   GL139757  22.166   2.708   9.145
 3053POPC   GL239758  22.181   2.370   9.098
 3053POPC   C1A39759  22.159   2.920   8.749
 3053POPC   D2A39760  21.830   2.979   8.436
 3053POPC   C3A39761  22.010   2.988   8.038
 3053POPC   C4A39762  22.210   2.840   7.706
 3053POPC   C1B39763  22.247   2.428   8.706
 3053POPC   C2B39764  22.156   2.568   8.337
 3053POPC   C3B39765  22.152   2.382   7.929
 3053POPC   C4B39766  22.181   2.404   7.447
 3054POPC   NC339767  20.490   7.669   9.447
 3054POPC   PO439768  21.044   7.295   9.355
 3054POPC   GL139769  20.899   7.539   9.053
 3054POPC   GL239770  20.531   7.480   8.990
 3054POPC   C1A39771  20.874   7.493   8.625
 3054POPC   D2A39772  20.729   7.610   8.268
 3054POPC   C3A39773  20.770   7.251   8.056
 3054POPC   C4A39774  20.739   7.097   7.674
 3054POPC   C1B39775  20.373   7.747   8.629
 3054POPC   C2B39776  20.258   7.745   8.183
 3054POPC   C3B39777  20.413   7.543   7.803
 3054POPC   C4B39778  20.288   7.563   7.367
 3055POPC   NC339779   9.531  11.871   9.368
 3055POPC   PO439780   9.658  12.501   9.526
 3055POPC   GL139781   9.855  12.233   9.198
 3055POPC   GL239782  10.040  11.923   9.189
 3055POPC   C1A39783   9.776  12.299   8.756
 3055POPC   D2A39784   9.589  12.360   8.360
 3055POPC   C3A39785   9.675  12.214   7.975
 3055POPC   C4A39786   9.830  12.378   7.602
 3055POPC   C1B39787   9.797  11.776   8.810
 3055POPC   C2B39788   9.631  11.836   8.415
 3055POPC   C3B39789   9.819  11.728   8.025
 3055POPC   C4B39790   9.772  11.865   7.603
 3056POPC   NC339791  31.346  21.781   9.579
 3056POPC   PO439792  31.833  22.216   9.663
 3056POPC   GL139793  31.616  22.192   9.265
 3056POPC   GL239794  31.747  21.932   9.075
 3056POPC   C1A39795  31.512  22.435   8.885
 3056POPC   D2A39796  31.512  22.541   8.426
 3056POPC   C3A39797  31.504  22.127   8.197
 3056POPC   C4A39798  31.497  21.982   7.754
 3056POPC   C1B39799  31.317  21.944   8.816
 3056POPC   C2B39800  31.070  21.863   8.410
 3056POPC   C3B39801  31.037  22.041   7.967
 3056POPC   C4B39802  31.022  22.000   7.480
 3057POPC   NC339803   7.203  12.355   9.562
 3057POPC   PO439804   7.423  11.765   9.563
 3057POPC   GL139805   7.337  12.055   9.179
 3057POPC   GL239806   7.571  12.305   9.110
 3057POPC   C1A39807   7.348  12.079   8.722
 3057POPC   D2A39808   7.243  11.940   8.313
 3057POPC   C3A39809   7.339  12.195   7.957
 3057POPC   C4A39810   7.218  12.144   7.540
 3057POPC   C1B39811   7.821  12.272   8.763
 3057POPC   C2B39812   7.680  12.193   8.346
 3057POPC   C3B39813   7.830  12.043   7.963
 3057POPC   C4B39814   7.740  12.247   7.556
 3058POPC   NC339815  18.646   2.443   9.372
 3058POPC   PO439816  18.063   2.753   9.247
 3058POPC   GL139817  18.460   2.781   9.036
 3058POPC   GL239818  18.549   2.427   8.881
 3058POPC   C1A39819  18.505   2.860   8.629
 3058POPC   D2A39820  18.251   2.991   8.327
 3058POPC   C3A39821  18.453   2.868   7.982
 3058POPC   C4A39822  18.335   2.793   7.605
 3058POPC   C1B39823  18.122   2.520   8.671
 3058POPC   C2B39824  17.878   2.632   8.331
 3058POPC   C3B39825  18.041   2.515   7.942
 3058POPC   C4B39826  17.895   2.543   7.537
 3059POPC   NC339827   4.808  40.208   9.240
 3059POPC   PO439828   5.043  39.646   9.584
 3059POPC   GL139829   5.185  39.847   9.182
 3059POPC   GL239830   5.347  40.169   9.045
 3059POPC   C1A39831   5.043  39.855   8.747
 3059POPC   D2A39832   5.026  39.727   8.330
 3059POPC   C3A39833   4.981  40.092   8.070
 3059POPC   C4A39834   5.168  40.133   7.674
 3059POPC   C1B39835   5.158  40.365   8.672
 3059POPC   C2B39836   4.780  40.411   8.436
 3059POPC   C3B39837   4.588  40.475   8.023
 3059POPC   C4B39838   4.641  40.212   7.672
 3060POPC   NC339839  44.471  19.460   9.538
 3060POPC   PO439840  44.798  18.856   9.453
 3060POPC   GL139841  44.522  18.966   9.107
 3060POPC   GL239842  44.629  19.309   9.064
 3060POPC   C1A39843  44.480  19.027   8.647
 3060POPC   D2A39844  44.397  18.951   8.217
 3060POPC   C3A39845  44.710  18.956   7.922
 3060POPC   C4A39846  44.538  19.248   7.708
 3060POPC   C1B39847  44.806  19.450   8.661
 3060POPC   C2B39848  44.812  19.347   8.215
 3060POPC   C3B39849   0.004  19.375   7.790
 3060POPC   C4B39850  44.826  19.531   7.372
 3061POPC   NC339851  37.026   8.887   9.593
 3061POPC   PO439852  36.683   9.341   9.261
 3061POPC   GL139853  37.095   9.143   9.139
 3061POPC   GL239854  37.213   8.811   9.112
 3061POPC   C1A39855  37.110   9.218   8.747
 3061POPC   D2A39856  36.886   9.093   8.372
 3061POPC   C3A39857  36.924   9.292   7.966
 3061POPC   C4A39858  36.706   9.485   7.608
 3061POPC   C1B39859  36.886   8.758   8.797
 3061POPC   C2B39860  36.900   8.595   8.334
 3061POPC   C3B39861  36.869   8.775   7.918
 3061POPC   C4B39862  37.206   8.709   7.653
 3062POPC   NC339863  11.361  37.348   9.355
 3062POPC   PO439864  10.963  37.801   9.492
 3062POPC   GL139865  11.054  37.704   9.066
 3062POPC   GL239866  10.895  37.386   9.114
 3062POPC   C1A39867  11.386  37.776   8.724
 3062POPC   D2A39868  11.618  37.818   8.305
 3062POPC   C3A39869  11.372  37.956   7.955
 3062POPC   C4A39870  11.076  37.879   7.612
 3062POPC   C1B39871  11.102  37.260   8.762
 3062POPC   C2B39872  11.304  37.393   8.394
 3062POPC   C3B39873  11.101  37.537   8.031
 3062POPC   C4B39874  11.382  37.480   7.700
 3063POPC   NC339875  25.052   1.962   9.302
 3063POPC   PO439876  24.385   1.900   9.529
 3063POPC   GL139877  24.534   1.982   9.146
 3063POPC   GL239878  24.698   2.326   9.150
 3063POPC   C1A39879  24.359   1.838   8.727
 3063POPC   D2A39880  24.146   1.985   8.337
 3063POPC   C3A39881  24.352   2.175   8.008
 3063POPC   C4A39882  24.644   1.911   7.819
 3063POPC   C1B39883  24.527   2.324   8.796
 3063POPC   C2B39884  24.607   2.201   8.437
 3063POPC   C3B39885  24.847   2.253   8.113
 3063POPC   C4B39886  24.726   2.431   7.731
 3064POPC   NC339887   8.829  12.289   9.606
 3064POPC   PO439888   9.082  11.756   9.362
 3064POPC   GL139889   9.041  12.133   9.155
 3064POPC   GL239890   9.360  12.314   9.116
 3064POPC   C1A39891   8.770  12.081   8.814
 3064POPC   D2A39892   8.661  12.209   8.426
 3064POPC   C3A39893   8.856  12.095   8.066
 3064POPC   C4A39894   8.726  12.114   7.682
 3064POPC   C1B39895   9.285  12.131   8.712
 3064POPC   C2B39896   9.107  11.833   8.432
 3064POPC   C3B39897   9.289  11.802   8.004
 3064POPC   C4B39898   9.240  12.145   7.686
 3065POPC   NC339899  15.648  28.719   9.396
 3065POPC   PO439900  15.804  28.063   9.552
 3065POPC   GL139901  15.822  28.290   9.165
 3065POPC   GL239902  16.136  28.420   9.007
 3065POPC   C1A39903  15.635  28.337   8.789
 3065POPC   D2A39904  15.554  28.095   8.422
 3065POPC   C3A39905  15.845  28.244   8.136
 3065POPC   C4A39906  15.891  28.494   7.781
 3065POPC   C1B39907  16.169  28.283   8.585
 3065POPC   C2B39908  16.323  28.471   8.201
 3065POPC   C3B39909  16.389  28.395   7.772
 3065POPC   C4B39910  16.252  28.277   7.370
 3066POPC   NC339911  34.237  20.764   9.452
 3066POPC   PO439912  34.805  20.518   9.574
 3066POPC   GL139913  34.617  20.536   9.159
 3066POPC   GL239914  34.590  20.888   9.118
 3066POPC   C1A39915  34.332  20.633   8.778
 3066POPC   D2A39916  34.228  20.859   8.385
 3066POPC   C3A39917  34.367  20.646   8.024
 3066POPC   C4A39918  34.417  20.711   7.565
 3066POPC   C1B39919  34.824  20.773   8.718
 3066POPC   C2B39920  34.786  20.880   8.285
 3066POPC   C3B39921  34.817  20.822   7.852
 3066POPC   C4B39922  34.837  20.935   7.367
 3067POPC   NC339923  14.540  33.557   9.493
 3067POPC   PO439924  13.961  33.924   9.593
 3067POPC   GL139925  14.248  33.916   9.227
 3067POPC   GL239926  13.936  33.817   9.066
 3067POPC   C1A39927  14.539  33.772   8.847
 3067POPC   D2A39928  14.438  33.489   8.476
 3067POPC   C3A39929  14.534  33.585   8.017
 3067POPC   C4A39930  14.584  34.011   7.817
 3067POPC   C1B39931  14.079  33.900   8.659
 3067POPC   C2B39932  14.251  33.957   8.257
 3067POPC   C3B39933  14.108  33.816   7.865
 3067POPC   C4B39934  14.193  33.920   7.443
 3068POPC   NC339935   2.298   8.949   9.586
 3068POPC   PO439936   2.896   9.102   9.505
 3068POPC   GL139937   2.838   8.911   9.129
 3068POPC   GL239938   3.075   9.135   9.018
 3068POPC   C1A39939   2.635   9.029   8.738
 3068POPC   D2A39940   2.480   9.298   8.418
 3068POPC   C3A39941   2.387   9.045   8.099
 3068POPC   C4A39942   2.543   8.802   7.774
 3068POPC   C1B39943   3.135   8.961   8.647
 3068POPC   C2B39944   2.991   8.830   8.274
 3068POPC   C3B39945   3.053   8.904   7.859
 3068POPC   C4B39946   3.235   9.279   7.729
 3069POPC   NC339947  12.422   2.598   9.366
 3069POPC   PO439948  12.970   2.975   9.587
 3069POPC   GL139949  12.886   2.818   9.174
 3069POPC   GL239950  12.590   3.020   9.157
 3069POPC   C1A39951  12.996   2.591   8.750
 3069POPC   D2A39952  13.109   2.608   8.270
 3069POPC   C3A39953  12.914   2.584   7.851
 3069POPC   C4A39954  12.593   2.506   7.545
 3069POPC   C1B39955  12.727   3.047   8.745
 3069POPC   C2B39956  12.687   3.291   8.390
 3069POPC   C3B39957  12.859   3.096   8.017
 3069POPC   C4B39958  13.045   3.028   7.611
 3070POPC   NC339959  23.992  12.684   9.481
 3070POPC   PO439960  23.370  12.792   9.403
 3070POPC   GL139961  23.549  12.800   8.981
 3070POPC   GL239962  23.909  12.890   9.029
 3070POPC   C1A39963  23.683  13.012   8.578
 3070POPC   D2A39964  23.893  13.356   8.409
 3070POPC   C3A39965  23.893  13.267   7.995
 3070POPC   C4A39966  23.568  12.948   7.915
 3070POPC   C1B39967  23.934  12.590   8.673
 3070POPC   C2B39968  23.623  12.540   8.347
 3070POPC   C3B39969  23.712  12.463   7.934
 3070POPC   C4B39970  24.029  12.679   7.744
 3071POPC   NC339971  41.211   6.337   9.470
 3071POPC   PO439972  41.674   6.877   9.484
 3071POPC   GL139973  41.496   6.623   9.147
 3071POPC   GL239974  41.690   6.846   8.966
 3071POPC   C1A39975  41.398   6.546   8.685
 3071POPC   D2A39976  41.792   6.643   8.498
 3071POPC   C3A39977  41.817   6.605   8.075
 3071POPC   C4A39978  41.528   6.505   7.721
 3071POPC   C1B39979  41.307   7.011   8.848
 3071POPC   C2B39980  41.322   7.020   8.456
 3071POPC   C3B39981  41.348   6.807   8.123
 3071POPC   C4B39982  41.549   6.987   7.823
 3072POPC   NC339983  28.849  27.299   9.320
 3072POPC   PO439984  29.475  27.593   9.484
 3072POPC   GL139985  29.269  27.500   9.104
 3072POPC   GL239986  29.398  27.154   9.035
 3072POPC   C1A39987  29.185  27.752   8.715
 3072POPC   D2A39988  29.354  27.793   8.329
 3072POPC   C3A39989  29.145  27.643   7.988
 3072POPC   C4A39990  28.930  27.343   7.753
 3072POPC   C1B39991  29.552  27.403   8.675
 3072POPC   C2B39992  29.733  27.422   8.288
 3072POPC   C3B39993  29.571  27.268   7.913
 3072POPC   C4B39994  29.387  27.453   7.557
 3073POPC   NC339995  35.410  22.504   9.283
 3073POPC   PO439996  35.243  21.924   9.450
 3073POPC   GL139997  35.360  22.046   9.046
 3073POPC   GL239998  35.035  22.231   9.063
 3073POPC   C1A39999  35.619  22.283   8.716
 3073POPC   D2A40000  35.656  22.520   8.340
 3073POPC   C3A40001  35.473  22.261   8.066
 3073POPC   C4A40002  35.637  21.828   7.983
 3073POPC   C1B40003  35.096  22.260   8.626
 3073POPC   C2B40004  34.790  22.301   8.287
 3073POPC   C3B40005  34.869  22.319   7.888
 3073POPC   C4B40006  35.195  22.178   7.654
 3074POPC   NC340007  24.434  40.395   9.588
 3074POPC   PO440008  24.766  40.894   9.497
 3074POPC   GL140009  24.669  40.687   9.125
 3074POPC   GL240010  24.845  40.417   8.997
 3074POPC   C1A40011  24.709  40.794   8.671
 3074POPC   D2A40012  24.463  40.710   8.279
 3074POPC   C3A40013  24.427  41.015   7.943
 3074POPC   C4A40014  24.182  41.227   7.613
 3074POPC   C1B40015  24.805  40.195   8.590
 3074POPC   C2B40016  24.615  40.218   8.156
 3074POPC   C3B40017  24.582  40.522   7.789
 3074POPC   C4B40018  24.729  40.421   7.335
 3075POPC   NC340019   7.995   9.938   9.516
 3075POPC   PO440020   8.463   9.480   9.410
 3075POPC   GL140021   8.247   9.762   9.095
 3075POPC   GL240022   8.120  10.141   9.082
 3075POPC   C1A40023   8.022   9.807   8.714
 3075POPC   D2A40024   7.838   9.765   8.332
 3075POPC   C3A40025   8.165   9.816   8.012
 3075POPC   C4A40026   8.179   9.636   7.628
 3075POPC   C1B40027   8.419  10.147   8.765
 3075POPC   C2B40028   8.515   9.914   8.393
 3075POPC   C3B40029   8.558  10.173   8.013
 3075POPC   C4B40030   8.434  10.164   7.571
 3076POPC   NC340031  31.705  13.289   9.429
 3076POPC   PO440032  31.603  13.992   9.329
 3076POPC   GL140033  31.450  13.602   9.120
 3076POPC   GL240034  31.742  13.462   8.937
 3076POPC   C1A40035  31.275  13.376   8.775
 3076POPC   D2A40036  31.533  13.389   8.431
 3076POPC   C3A40037  31.417  13.618   8.066
 3076POPC   C4A40038  31.501  13.626   7.634
 3076POPC   C1B40039  31.589  13.840   8.680
 3076POPC   C2B40040  31.728  13.997   8.277
 3076POPC   C3B40041  31.632  14.080   7.838
 3076POPC   C4B40042  31.633  14.057   7.371
 3077POPC   NC340043  27.903   1.983   9.490
 3077POPC   PO440044  27.209   1.741   9.611
 3077POPC   GL140045  27.474   1.895   9.231
 3077POPC   GL240046  27.583   2.246   9.171
 3077POPC   C1A40047  27.710   1.827   8.876
 3077POPC   D2A40048  27.714   1.895   8.455
 3077POPC   C3A40049  27.436   1.680   8.185
 3077POPC   C4A40050  27.632   1.646   7.809
 3077POPC   C1B40051  27.337   2.227   8.788
 3077POPC   C2B40052  27.273   2.157   8.326
 3077POPC   C3B40053  27.589   2.143   7.961
 3077POPC   C4B40054  27.491   2.219   7.498
 3078POPC   NC340055  39.962   1.101   9.512
 3078POPC   PO440056  40.417   1.547   9.466
 3078POPC   GL140057  40.178   1.337   9.089
 3078POPC   GL240058  40.066   0.978   9.034
 3078POPC   C1A40059  39.898   1.305   8.705
 3078POPC   D2A40060  39.836   1.056   8.335
 3078POPC   C3A40061  39.879   1.256   7.964
 3078POPC   C4A40062  40.243   1.402   7.815
 3078POPC   C1B40063  40.268   0.964   8.607
 3078POPC   C2B40064  40.344   1.008   8.150
 3078POPC   C3B40065  40.269   0.918   7.702
 3078POPC   C4B40066  40.366   0.836   7.255
 3079POPC   NC340067  13.218  13.386   9.524
 3079POPC   PO440068  12.617  13.619   9.503
 3079POPC   GL140069  12.933  13.687   9.198
 3079POPC   GL240070  12.934  13.380   9.083
 3079POPC   C1A40071  13.056  13.800   8.789
 3079POPC   D2A40072  12.929  13.941   8.389
 3079POPC   C3A40073  12.915  13.738   7.989
 3079POPC   C4A40074  12.900  13.947   7.586
 3079POPC   C1B40075  12.757  13.361   8.674
 3079POPC   C2B40076  12.891  13.245   8.253
 3079POPC   C3B40077  12.709  13.290   7.865
 3079POPC   C4B40078  12.282  13.347   7.804
 3080POPC   NC340079  18.124  26.220   9.769
 3080POPC   PO440080  18.613  26.222   9.320
 3080POPC   GL140081  18.142  26.189   9.243
 3080POPC   GL240082  17.986  25.837   9.244
 3080POPC   C1A40083  17.892  26.159   8.860
 3080POPC   D2A40084  17.813  25.929   8.475
 3080POPC   C3A40085  18.007  26.115   8.110
 3080POPC   C4A40086  18.278  26.156   7.746
 3080POPC   C1B40087  18.195  25.752   8.803
 3080POPC   C2B40088  18.316  25.779   8.343
 3080POPC   C3B40089  18.305  25.633   7.884
 3080POPC   C4B40090  18.621  25.449   7.590
 3081POPC   NC340091  28.085  33.394   9.896
 3081POPC   PO440092  28.442  33.045   9.443
 3081POPC   GL140093  28.485  33.013   9.087
 3081POPC   GL240094  28.807  33.145   9.087
 3081POPC   C1A40095  28.259  32.898   8.762
 3081POPC   D2A40096  28.334  32.744   8.379
 3081POPC   C3A40097  28.100  32.857   8.049
 3081POPC   C4A40098  28.217  32.872   7.636
 3081POPC   C1B40099  28.704  33.248   8.692
 3081POPC   C2B40100  28.721  33.088   8.312
 3081POPC   C3B40101  28.504  33.187   7.966
 3081POPC   C4B40102  28.620  33.172   7.547
 3082POPC   NC340103   5.232  16.132   9.442
 3082POPC   PO440104   4.773  15.607   9.433
 3082POPC   GL140105   4.952  15.833   9.131
 3082POPC   GL240106   5.243  15.709   9.046
 3082POPC   C1A40107   4.805  15.944   8.747
 3082POPC   D2A40108   4.805  15.738   8.367
 3082POPC   C3A40109   4.879  16.028   8.057
 3082POPC   C4A40110   4.847  15.898   7.651
 3082POPC   C1B40111   5.264  15.733   8.612
 3082POPC   C2B40112   5.356  16.030   8.291
 3082POPC   C3B40113   5.399  15.942   7.873
 3082POPC   C4B40114   5.416  15.741   7.492
 3083POPC   NC340115   6.001  17.011   9.528
 3083POPC   PO440116   5.553  16.451   9.586
 3083POPC   GL140117   5.651  16.449   9.173
 3083POPC   GL240118   5.325  16.362   9.015
 3083POPC   C1A40119   5.823  16.721   8.833
 3083POPC   D2A40120   6.043  16.591   8.452
 3083POPC   C3A40121   5.938  16.817   8.095
 3083POPC   C4A40122   5.881  16.848   7.672
 3083POPC   C1B40123   5.577  16.308   8.674
 3083POPC   C2B40124   5.527  16.619   8.371
 3083POPC   C3B40125   5.581  16.430   7.992
 3083POPC   C4B40126   5.589  16.454   7.582
 3084POPC   NC340127  24.029   9.203   9.381
 3084POPC   PO440128  24.595   8.933   9.531
 3084POPC   GL140129  24.599   8.862   9.141
 3084POPC   GL240130  24.286   8.723   9.137
 3084POPC   C1A40131  24.540   9.125   8.791
 3084POPC   D2A40132  24.329   9.067   8.380
 3084POPC   C3A40133  24.482   9.158   8.002
 3084POPC   C4A40134  24.693   9.038   7.631
 3084POPC   C1B40135  24.198   8.752   8.750
 3084POPC   C2B40136  24.213   8.571   8.355
 3084POPC   C3B40137  24.310   8.686   7.970
 3084POPC   C4B40138  24.445   8.588   7.572
 3085POPC   NC340139  29.719  38.502   9.523
 3085POPC   PO440140  30.323  38.717   9.489
 3085POPC   GL140141  30.104  38.768   9.142
 3085POPC   GL240142  30.071  38.406   9.142
 3085POPC   C1A40143  29.919  38.700   8.742
 3085POPC   D2A40144  29.903  38.494   8.383
 3085POPC   C3A40145  29.707  38.382   8.021
 3085POPC   C4A40146  29.905  38.479   7.638
 3085POPC   C1B40147  30.262  38.285   8.743
 3085POPC   C2B40148  30.259  38.144   8.318
 3085POPC   C3B40149  30.097  38.057   7.901
 3085POPC   C4B40150  30.149  38.076   7.417
 3086POPC   NC340151   2.978  32.994   9.336
 3086POPC   PO440152   2.434  33.292   9.526
 3086POPC   GL140153   2.501  32.979   9.159
 3086POPC   GL240154   2.631  32.631   9.180
 3086POPC   C1A40155   2.426  32.875   8.718
 3086POPC   D2A40156   2.511  32.988   8.278
 3086POPC   C3A40157   2.864  33.227   8.169
 3086POPC   C4A40158   2.922  33.503   7.855
 3086POPC   C1B40159   2.875  32.546   8.779
 3086POPC   C2B40160   2.968  32.774   8.410
 3086POPC   C3B40161   2.851  32.728   7.967
 3086POPC   C4B40162   2.535  32.477   7.736
 3087POPC   NC340163  15.029  43.365   9.493
 3087POPC   PO440164  15.312  42.682   9.584
 3087POPC   GL140165  15.064  42.915   9.231
 3087POPC   GL240166  15.213  43.210   9.069
 3087POPC   C1A40167  14.964  42.910   8.761
 3087POPC   D2A40168  14.857  42.862   8.322
 3087POPC   C3A40169  15.102  43.020   8.004
 3087POPC   C4A40170  15.330  43.095   7.658
 3087POPC   C1B40171  15.344  43.382   8.741
 3087POPC   C2B40172  15.404  43.167   8.394
 3087POPC   C3B40173  15.481  43.389   8.039
 3087POPC   C4B40174  15.505  43.584   7.683
 3088POPC   NC340175  23.095  36.504   9.412
 3088POPC   PO440176  22.977  37.111   9.617
 3088POPC   GL140177  22.989  36.971   9.159
 3088POPC   GL240178  22.776  36.729   9.027
 3088POPC   C1A40179  22.915  37.063   8.692
 3088POPC   D2A40180  22.775  36.923   8.283
 3088POPC   C3A40181  22.980  37.018   7.892
 3088POPC   C4A40182  22.798  37.261   7.554
 3088POPC   C1B40183  22.991  36.527   8.702
 3088POPC   C2B40184  23.037  36.304   8.322
 3088POPC   C3B40185  22.902  36.519   7.988
 3088POPC   C4B40186  22.638  36.704   7.696
 3089POPC   NC340187  44.975   9.891   9.371
 3089POPC   PO440188  44.402   9.580   9.551
 3089POPC   GL140189  44.563   9.547   9.175
 3089POPC   GL240190  44.628   9.846   8.994
 3089POPC   C1A40191  44.472   9.421   8.766
 3089POPC   D2A40192  44.616   9.646   8.445
 3089POPC   C3A40193  44.518   9.431   8.101
 3089POPC   C4A40194  44.562   9.727   7.811
 3089POPC   C1B40195  44.686  10.114   8.627
 3089POPC   C2B40196  44.656  10.100   8.168
 3089POPC   C3B40197  44.742  10.186   7.736
 3089POPC   C4B40198  44.988   9.824   7.530
 3090POPC   NC340199  42.914   7.241   9.480
 3090POPC   PO440200  42.657   7.774   9.125
 3090POPC   GL140201  42.986   7.470   9.027
 3090POPC   GL240202  43.308   7.563   9.154
 3090POPC   C1A40203  43.051   7.191   8.697
 3090POPC   D2A40204  42.874   7.202   8.292
 3090POPC   C3A40205  43.160   7.179   7.948
 3090POPC   C4A40206  42.807   7.025   7.769
 3090POPC   C1B40207  43.466   7.471   8.720
 3090POPC   C2B40208  43.260   7.549   8.318
 3090POPC   C3B40209  43.159   7.693   7.894
 3090POPC   C4B40210  43.509   7.713   7.639
 3091POPC   NC340211  19.779   8.982   9.514
 3091POPC   PO440212  19.460   9.289   9.031
 3091POPC   GL140213  19.898   9.128   9.043
 3091POPC   GL240214  19.979   8.766   9.077
 3091POPC   C1A40215  19.984   9.045   8.643
 3091POPC   D2A40216  19.702   9.130   8.328
 3091POPC   C3A40217  19.966   9.169   8.006
 3091POPC   C4A40218  19.916   9.413   7.662
 3091POPC   C1B40219  19.929   8.548   8.692
 3091POPC   C2B40220  19.902   8.656   8.248
 3091POPC   C3B40221  19.889   8.693   7.819
 3091POPC   C4B40222  19.612   8.999   7.663
 3092POPC   NC340223  39.409  21.754   9.599
 3092POPC   PO440224  38.898  22.156   9.574
 3092POPC   GL140225  39.182  22.072   9.198
 3092POPC   GL240226  39.229  22.388   9.024
 3092POPC   C1A40227  39.398  21.952   8.808
 3092POPC   D2A40228  39.215  21.927   8.396
 3092POPC   C3A40229  39.200  22.164   7.997
 3092POPC   C4A40230  39.318  21.908   7.637
 3092POPC   C1B40231  39.537  22.472   8.724
 3092POPC   C2B40232  39.594  22.362   8.312
 3092POPC   C3B40233  39.441  22.639   8.018
 3092POPC   C4B40234  39.626  22.779   7.678
 3093POPC   NC340235   7.535  43.770   9.539
 3093POPC   PO440236   6.993  44.122   9.533
 3093POPC   GL140237   7.235  44.053   9.188
 3093POPC   GL240238   7.525  44.259   9.274
 3093POPC   C1A40239   7.312  43.766   8.824
 3093POPC   D2A40240   7.559  43.722   8.458
 3093POPC   C3A40241   7.386  43.811   8.046
 3093POPC   C4A40242   7.567  43.668   7.673
 3093POPC   C1B40243   7.513  44.251   8.819
 3093POPC   C2B40244   7.328  44.175   8.424
 3093POPC   C3B40245   7.508  44.301   8.031
 3093POPC   C4B40246   7.352  44.168   7.611
 3094POPC   NC340247  39.017  32.216   9.523
 3094POPC   PO440248  38.385  32.324   9.588
 3094POPC   GL140249  38.290  32.172   9.186
 3094POPC   GL240250  38.620  32.002   9.156
 3094POPC   C1A40251  38.434  32.255   8.752
 3094POPC   D2A40252  38.673  32.232   8.352
 3094POPC   C3A40253  38.448  32.357   7.974
 3094POPC   C4A40254  38.323  32.167   7.562
 3094POPC   C1B40255  38.632  31.763   8.753
 3094POPC   C2B40256  38.897  31.717   8.365
 3094POPC   C3B40257  39.047  32.002   8.067
 3094POPC   C4B40258  38.810  32.106   7.702
 3095POPC   NC340259   7.845  29.906   9.558
 3095POPC   PO440260   8.499  30.142   9.417
 3095POPC   GL140261   8.197  30.003   9.178
 3095POPC   GL240262   8.304  29.736   9.031
 3095POPC   C1A40263   8.016  30.092   8.776
 3095POPC   D2A40264   7.851  29.965   8.363
 3095POPC   C3A40265   7.987  30.101   7.932
 3095POPC   C4A40266   8.042  29.842   7.531
 3095POPC   C1B40267   8.481  29.873   8.658
 3095POPC   C2B40268   8.538  30.002   8.242
 3095POPC   C3B40269   8.406  29.785   7.894
 3095POPC   C4B40270   8.592  29.525   7.604
 3096POPC   NC340271  38.332   0.768   9.460
 3096POPC   PO440272  38.895   0.334   9.519
 3096POPC   GL140273  38.634   0.322   9.186
 3096POPC   GL240274  38.288   0.347   9.142
 3096POPC   C1A40275  38.736   0.307   8.765
 3096POPC   D2A40276  38.615   0.557   8.429
 3096POPC   C3A40277  38.555   0.424   8.028
 3096POPC   C4A40278  38.517   0.752   7.725
 3096POPC   C1B40279  38.236   0.597   8.784
 3096POPC   C2B40280  38.082   0.500   8.370
 3096POPC   C3B40281  38.082   0.530   7.921
 3096POPC   C4B40282  38.257   0.397   7.506
 3097POPC   NC340283  11.824   4.308   9.535
 3097POPC   PO440284  12.430   4.329   9.330
 3097POPC   GL140285  12.085   4.354   9.085
 3097POPC   GL240286  11.875   4.046   9.116
 3097POPC   C1A40287  12.200   4.346   8.681
 3097POPC   D2A40288  12.270   4.667   8.423
 3097POPC   C3A40289  12.292   4.441   8.062
 3097POPC   C4A40290  12.140   4.499   7.685
 3097POPC   C1B40291  11.957   3.803   8.778
 3097POPC   C2B40292  12.015   3.964   8.384
 3097POPC   C3B40293  11.938   4.038   7.968
 3097POPC   C4B40294  12.226   4.004   7.695
 3098POPC   NC340295  40.607   5.982   9.527
 3098POPC   PO440296  40.401   5.348   9.438
 3098POPC   GL140297  40.597   5.660   9.080
 3098POPC   GL240298  40.857   5.947   9.098
 3098POPC   C1A40299  40.637   5.932   8.653
 3098POPC   D2A40300  40.658   6.145   8.227
 3098POPC   C3A40301  40.657   5.846   7.883
 3098POPC   C4A40302  40.597   5.548   7.530
 3098POPC   C1B40303  41.077   5.712   8.796
 3098POPC   C2B40304  40.988   5.666   8.352
 3098POPC   C3B40305  41.156   5.829   7.961
 3098POPC   C4B40306  41.061   5.763   7.532
 3099POPC   NC340307   0.074  33.757   9.802
 3099POPC   PO440308   0.578  33.830   9.391
 3099POPC   GL140309   0.565  33.731   8.989
 3099POPC   GL240310   0.713  33.412   8.948
 3099POPC   C1A40311   0.697  33.839   8.593
 3099POPC   D2A40312   0.333  33.906   8.333
 3099POPC   C3A40313   0.400  33.918   7.930
 3099POPC   C4A40314   0.214  33.891   7.588
 3099POPC   C1B40315   0.371  33.455   8.596
 3099POPC   C2B40316   0.408  33.408   8.140
 3099POPC   C3B40317   0.390  33.407   7.677
 3099POPC   C4B40318   0.313  33.488   7.228
 3100POPC   NC340319  17.938   8.666   9.552
 3100POPC   PO440320  18.398   9.167   9.573
 3100POPC   GL140321  18.156   9.035   9.159
 3100POPC   GL240322  17.909   9.317   8.988
 3100POPC   C1A40323  18.164   8.747   8.756
 3100POPC   D2A40324  18.017   8.800   8.294
 3100POPC   C3A40325  18.225   9.025   7.950
 3100POPC   C4A40326  18.090   9.001   7.502
 3100POPC   C1B40327  18.270   9.268   8.707
 3100POPC   C2B40328  18.589   9.289   8.385
 3100POPC   C3B40329  18.642   9.331   7.952
 3100POPC   C4B40330  18.459   9.316   7.555
 3101POPC   NC340331  39.493  25.691   9.434
 3101POPC   PO440332  39.430  26.449   9.514
 3101POPC   GL140333  39.056  26.352   9.289
 3101POPC   GL240334  38.958  26.002   9.256
 3101POPC   C1A40335  39.129  26.342   8.853
 3101POPC   D2A40336  39.329  26.121   8.494
 3101POPC   C3A40337  39.271  26.336   8.091
 3101POPC   C4A40338  39.195  26.286   7.665
 3101POPC   C1B40339  39.141  25.808   8.879
 3101POPC   C2B40340  38.981  25.742   8.480
 3101POPC   C3B40341  38.994  25.883   8.082
 3101POPC   C4B40342  39.314  25.799   7.777
 3102POPC   NC340343  28.943  25.731   9.317
 3102POPC   PO440344  29.538  25.905   9.542
 3102POPC   GL140345  29.300  26.080   9.157
 3102POPC   GL240346  29.274  25.818   8.914
 3102POPC   C1A40347  29.223  26.322   8.777
 3102POPC   D2A40348  29.237  26.128   8.387
 3102POPC   C3A40349  29.098  26.204   7.974
 3102POPC   C4A40350  29.028  25.802   7.766
 3102POPC   C1B40351  28.871  25.962   8.715
 3102POPC   C2B40352  28.708  26.089   8.341
 3102POPC   C3B40353  28.629  25.763   8.121
 3102POPC   C4B40354  28.589  25.536   7.763
 3103POPC   NC340355   1.815  31.789   9.585
 3103POPC   PO440356   2.109  31.274   9.410
 3103POPC   GL140357   1.789  31.509   9.157
 3103POPC   GL240358   2.026  31.713   9.003
 3103POPC   C1A40359   1.649  31.579   8.711
 3103POPC   D2A40360   1.932  31.467   8.350
 3103POPC   C3A40361   1.800  31.387   7.937
 3103POPC   C4A40362   2.072  31.547   7.629
 3103POPC   C1B40363   2.030  31.251   8.791
 3103POPC   C2B40364   2.216  31.005   8.463
 3103POPC   C3B40365   2.272  31.158   8.059
 3103POPC   C4B40366   2.174  30.975   7.659
 3104POPC   NC340367  31.848   8.310   9.353
 3104POPC   PO440368  31.229   8.011   9.520
 3104POPC   GL140369  31.381   8.207   9.153
 3104POPC   GL240370  31.564   7.893   9.143
 3104POPC   C1A40371  31.397   8.508   8.781
 3104POPC   D2A40372  31.436   8.619   8.315
 3104POPC   C3A40373  31.741   8.357   8.065
 3104POPC   C4A40374  31.654   8.190   7.641
 3104POPC   C1B40375  31.744   7.965   8.763
 3104POPC   C2B40376  31.632   7.777   8.360
 3104POPC   C3B40377  31.739   7.789   7.919
 3104POPC   C4B40378  31.803   7.748   7.444
 3105POPC   NC340379  25.249  32.055   9.417
 3105POPC   PO440380  25.235  32.743   9.447
 3105POPC   GL140381  25.108  32.445   9.133
 3105POPC   GL240382  24.796  32.208   9.167
 3105POPC   C1A40383  25.375  32.228   8.789
 3105POPC   D2A40384  25.591  32.395   8.414
 3105POPC   C3A40385  25.518  32.194   8.015
 3105POPC   C4A40386  25.547  32.304   7.590
 3105POPC   C1B40387  24.858  32.304   8.715
 3105POPC   C2B40388  25.082  32.152   8.347
 3105POPC   C3B40389  24.972  32.253   7.920
 3105POPC   C4B40390  24.763  32.175   7.505
 3106POPC   NC340391  20.921  16.090   9.311
 3106POPC   PO440392  20.305  15.971   9.475
 3106POPC   GL140393  20.505  15.853   9.144
 3106POPC   GL240394  20.454  16.211   9.009
 3106POPC   C1A40395  20.626  15.777   8.752
 3106POPC   D2A40396  20.423  15.987   8.447
 3106POPC   C3A40397  20.548  15.862   8.083
 3106POPC   C4A40398  20.357  15.799   7.727
 3106POPC   C1B40399  20.781  16.259   8.702
 3106POPC   C2B40400  20.961  16.288   8.315
 3106POPC   C3B40401  20.854  16.222   7.892
 3106POPC   C4B40402  20.858  15.813   7.664
 3107POPC   NC340403  15.307  27.968   9.504
 3107POPC   PO440404  15.141  28.646   9.466
 3107POPC   GL140405  15.249  28.426   9.117
 3107POPC   GL240406  14.931  28.251   9.111
 3107POPC   C1A40407  15.142  28.300   8.669
 3107POPC   D2A40408  14.876  28.300   8.327
 3107POPC   C3A40409  15.070  28.067   7.990
 3107POPC   C4A40410  15.461  28.208   7.781
 3107POPC   C1B40411  14.836  28.662   8.879
 3107POPC   C2B40412  14.585  28.745   8.504
 3107POPC   C3B40413  14.695  28.758   8.062
 3107POPC   C4B40414  15.078  28.548   7.891
 3108POPC   NC340415  37.610   3.112   9.430
 3108POPC   PO440416  37.702   3.841   9.520
 3108POPC   GL140417  37.605   3.643   9.184
 3108POPC   GL240418  37.911   3.460   9.169
 3108POPC   C1A40419  37.611   3.811   8.786
 3108POPC   D2A40420  37.486   3.612   8.413
 3108POPC   C3A40421  37.584   3.801   8.048
 3108POPC   C4A40422  37.483   3.661   7.658
 3108POPC   C1B40423  37.755   3.298   8.778
 3108POPC   C2B40424  37.842   3.133   8.383
 3108POPC   C3B40425  37.679   3.278   7.985
 3108POPC   C4B40426  37.946   3.443   7.642
 3109POPC   NC340427  38.313  31.766   9.539
 3109POPC   PO440428  38.516  31.028   9.586
 3109POPC   GL140429  38.374  31.177   9.154
 3109POPC   GL240430  38.269  31.539   9.110
 3109POPC   C1A40431  38.353  31.267   8.719
 3109POPC   D2A40432  38.488  31.437   8.356
 3109POPC   C3A40433  38.322  31.274   8.004
 3109POPC   C4A40434  38.538  31.251   7.643
 3109POPC   C1B40435  38.111  31.839   8.812
 3109POPC   C2B40436  38.284  31.922   8.388
 3109POPC   C3B40437  38.477  31.820   7.999
 3109POPC   C4B40438  38.240  31.670   7.662
 3110POPC   NC340439  27.212  29.039   9.617
 3110POPC   PO440440  27.824  29.230   9.383
 3110POPC   GL140441  27.789  29.364   8.989
 3110POPC   GL240442  27.481  29.174   8.994
 3110POPC   C1A40443  27.703  29.350   8.560
 3110POPC   D2A40444  27.518  28.943   8.434
 3110POPC   C3A40445  27.375  28.868   8.020
 3110POPC   C4A40446  27.680  29.018   7.757
 3110POPC   C1B40447  27.270  29.507   8.784
 3110POPC   C2B40448  27.203  29.330   8.416
 3110POPC   C3B40449  27.423  29.374   8.076
 3110POPC   C4B40450  27.226  29.627   7.788
 3111POPC   NC340451  16.884   3.045   9.489
 3111POPC   PO440452  16.361   2.751   9.240
 3111POPC   GL140453  16.614   2.545   9.003
 3111POPC   GL240454  16.916   2.700   9.067
 3111POPC   C1A40455  16.671   2.578   8.599
 3111POPC   D2A40456  16.800   2.761   8.267
 3111POPC   C3A40457  16.563   2.638   7.943
 3111POPC   C4A40458  16.585   2.948   7.653
 3111POPC   C1B40459  17.019   2.976   8.697
 3111POPC   C2B40460  17.108   3.172   8.281
 3111POPC   C3B40461  17.107   2.907   7.883
 3111POPC   C4B40462  17.023   2.458   7.837
 3112POPC   NC340463  10.433  22.581   9.647
 3112POPC   PO440464  10.364  21.980   9.470
 3112POPC   GL140465  10.687  22.095   9.187
 3112POPC   GL240466  10.390  22.121   8.956
 3112POPC   C1A40467  10.854  22.215   8.773
 3112POPC   D2A40468  10.532  22.162   8.447
 3112POPC   C3A40469  10.743  22.209   8.025
 3112POPC   C4A40470  10.799  22.439   7.562
 3112POPC   C1B40471  10.201  21.801   8.670
 3112POPC   C2B40472  10.030  21.841   8.277
 3112POPC   C3B40473  10.199  22.183   8.051
 3112POPC   C4B40474  10.362  22.237   7.682
 3113POPC   NC340475  41.421  15.416   9.633
 3113POPC   PO440476  41.820  15.929   9.517
 3113POPC   GL140477  41.713  15.782   9.131
 3113POPC   GL240478  41.395  15.707   9.069
 3113POPC   C1A40479  41.781  15.826   8.717
 3113POPC   D2A40480  41.655  15.670   8.330
 3113POPC   C3A40481  41.878  15.860   8.006
 3113POPC   C4A40482  41.732  15.962   7.638
 3113POPC   C1B40483  41.279  16.001   8.763
 3113POPC   C2B40484  41.257  16.219   8.390
 3113POPC   C3B40485  41.377  16.107   7.986
 3113POPC   C4B40486  41.312  16.292   7.567
 3114POPC   NC340487  30.899  34.734   9.630
 3114POPC   PO440488  30.252  34.480   9.596
 3114POPC   GL140489  30.552  34.564   9.288
 3114POPC   GL240490  30.887  34.412   9.237
 3114POPC   C1A40491  30.565  34.639   8.854
 3114POPC   D2A40492  30.405  34.679   8.421
 3114POPC   C3A40493  30.496  34.382   8.131
 3114POPC   C4A40494  30.618  34.648   7.828
 3114POPC   C1B40495  30.970  34.323   8.805
 3114POPC   C2B40496  30.915  34.542   8.432
 3114POPC   C3B40497  31.009  34.401   8.040
 3114POPC   C4B40498  30.773  34.100   7.799
 3115POPC   NC340499  19.318   3.074   9.376
 3115POPC   PO440500  19.009   3.645   9.366
 3115POPC   GL140501  18.963   3.349   9.050
 3115POPC   GL240502  19.285   3.354   8.943
 3115POPC   C1A40503  18.713   3.487   8.699
 3115POPC   D2A40504  18.711   3.717   8.314
 3115POPC   C3A40505  18.950   3.534   7.984
 3115POPC   C4A40506  18.674   3.694   7.723
 3115POPC   C1B40507  19.469   3.039   8.687
 3115POPC   C2B40508  19.329   2.910   8.274
 3115POPC   C3B40509  19.464   2.988   7.836
 3115POPC   C4B40510  19.337   3.275   7.494
 3116POPC   NC340511  23.243  19.106   9.491
 3116POPC   PO440512  22.677  18.816   9.651
 3116POPC   GL140513  22.812  18.984   9.217
 3116POPC   GL240514  23.144  18.773   9.117
 3116POPC   C1A40515  22.939  19.105   8.768
 3116POPC   D2A40516  23.028  18.982   8.340
 3116POPC   C3A40517  22.796  19.081   7.972
 3116POPC   C4A40518  23.054  19.315   7.704
 3116POPC   C1B40519  23.170  18.615   8.686
 3116POPC   C2B40520  23.304  18.558   8.260
 3116POPC   C3B40521  23.277  18.860   7.903
 3116POPC   C4B40522  23.339  18.799   7.461
 3117POPC   NC340523   9.214  31.262   9.482
 3117POPC   PO440524   8.767  31.686   9.720
 3117POPC   GL140525   8.828  31.486   9.252
 3117POPC   GL240526   9.089  31.701   9.139
 3117POPC   C1A40527   9.073  31.256   8.859
 3117POPC   D2A40528   9.399  31.357   8.552
 3117POPC   C3A40529   9.281  31.389   8.116
 3117POPC   C4A40530   8.900  31.281   7.863
 3117POPC   C1B40531   8.790  31.653   8.783
 3117POPC   C2B40532   8.912  31.595   8.397
 3117POPC   C3B40533   8.866  31.775   7.995
 3117POPC   C4B40534   8.740  31.833   7.563
 3118POPC   NC340535  10.861  25.440   9.570
 3118POPC   PO440536  10.243  25.207   9.448
 3118POPC   GL140537  10.500  25.328   9.135
 3118POPC   GL240538  10.827  25.140   9.146
 3118POPC   C1A40539  10.263  25.317   8.750
 3118POPC   D2A40540  10.105  25.236   8.366
 3118POPC   C3A40541  10.388  25.369   8.080
 3118POPC   C4A40542  10.436  25.272   7.662
 3118POPC   C1B40543  10.736  25.140   8.709
 3118POPC   C2B40544  10.743  24.963   8.295
 3118POPC   C3B40545  10.856  25.210   7.941
 3118POPC   C4B40546  10.758  25.677   7.882
 3119POPC   NC340547  33.766  24.260   9.369
 3119POPC   PO440548  33.667  23.505   9.369
 3119POPC   GL140549  33.652  23.835   9.109
 3119POPC   GL240550  33.972  23.998   9.013
 3119POPC   C1A40551  33.583  23.894   8.693
 3119POPC   D2A40552  33.703  24.002   8.299
 3119POPC   C3A40553  33.531  23.706   8.056
 3119POPC   C4A40554  33.589  23.676   7.636
 3119POPC   C1B40555  34.098  23.705   8.722
 3119POPC   C2B40556  33.970  23.537   8.326
 3119POPC   C3B40557  34.019  23.646   7.902
 3119POPC   C4B40558  34.111  23.511   7.484
 3120POPC   NC340559  42.165  33.427   9.338
 3120POPC   PO440560  42.478  34.115   9.479
 3120POPC   GL140561  42.347  33.848   9.110
 3120POPC   GL240562  41.976  33.881   9.080
 3120POPC   C1A40563  42.464  33.657   8.663
 3120POPC   D2A40564  42.369  33.649   8.207
 3120POPC   C3A40565  42.543  33.669   7.786
 3120POPC   C4A40566  42.732  33.687   7.346
 3120POPC   C1B40567  42.128  34.060   8.707
 3120POPC   C2B40568  42.000  34.054   8.279
 3120POPC   C3B40569  42.240  34.062   7.910
 3120POPC   C4B40570  42.321  33.993   7.462
 3121POPC   NC340571   0.401  33.372   9.349
 3121POPC   PO440572   0.430  32.646   9.392
 3121POPC   GL140573   0.480  32.908   9.094
 3121POPC   GL240574   0.164  32.999   9.110
 3121POPC   C1A40575   0.525  32.993   8.679
 3121POPC   D2A40576   0.595  32.761   8.318
 3121POPC   C3A40577   0.555  32.952   7.934
 3121POPC   C4A40578   0.895  33.129   7.730
 3121POPC   C1B40579   0.001  33.120   8.731
 3121POPC   C2B40580   0.111  33.009   8.320
 3121POPC   C3B40581   0.037  33.087   7.876
 3121POPC   C4B40582   0.078  33.034   7.423
 3122POPC   NC340583  30.261  17.262   9.323
 3122POPC   PO440584  29.533  17.357   9.412
 3122POPC   GL140585  29.793  17.573   9.114
 3122POPC   GL240586  30.027  17.835   9.213
 3122POPC   C1A40587  29.656  17.669   8.713
 3122POPC   D2A40588  29.516  17.411   8.361
 3122POPC   C3A40589  29.740  17.401   7.966
 3122POPC   C4A40590  30.127  17.291   7.751
 3122POPC   C1B40591  30.170  17.726   8.781
 3122POPC   C2B40592  29.998  17.670   8.340
 3122POPC   C3B40593  30.142  17.769   7.924
 3122POPC   C4B40594  30.477  17.680   7.596
 3123POPC   NC340595  36.552  29.702   9.486
 3123POPC   PO440596  36.023  30.086   9.614
 3123POPC   GL140597  36.223  29.986   9.215
 3123POPC   GL240598  36.186  30.273   9.150
 3123POPC   C1A40599  36.350  29.990   8.760
 3123POPC   D2A40600  36.339  29.722   8.393
 3123POPC   C3A40601  36.368  29.813   7.922
 3123POPC   C4A40602  36.122  29.583   7.663
 3123POPC   C1B40603  35.901  30.317   8.821
 3123POPC   C2B40604  35.948  30.128   8.470
 3123POPC   C3B40605  36.186  30.208   8.157
 3123POPC   C4B40606  36.007  30.250   7.769
 3124POPC   NC340607   4.844  34.839   9.572
 3124POPC   PO440608   4.938  34.159   9.622
 3124POPC   GL140609   4.905  34.459   9.246
 3124POPC   GL240610   5.154  34.690   9.148
 3124POPC   C1A40611   4.747  34.601   8.820
 3124POPC   D2A40612   4.782  34.644   8.348
 3124POPC   C3A40613   5.019  34.376   7.996
 3124POPC   C4A40614   5.051  34.380   7.505
 3124POPC   C1B40615   5.239  34.439   8.800
 3124POPC   C2B40616   5.303  34.572   8.395
 3124POPC   C3B40617   5.186  34.884   8.112
 3124POPC   C4B40618   5.236  34.802   7.715
 3125POPC   NC340619   6.557  32.108   9.471
 3125POPC   PO440620   6.996  32.690   9.698
 3125POPC   GL140621   6.791  32.529   9.273
 3125POPC   GL240622   6.473  32.424   9.082
 3125POPC   C1A40623   6.883  32.566   8.828
 3125POPC   D2A40624   6.751  32.283   8.529
 3125POPC   C3A40625   6.605  32.453   8.167
 3125POPC   C4A40626   6.707  32.294   7.764
 3125POPC   C1B40627   6.272  32.213   8.735
 3125POPC   C2B40628   6.109  32.281   8.330
 3125POPC   C3B40629   6.229  32.172   7.951
 3125POPC   C4B40630   6.088  32.038   7.561
 3126POPC   NC340631  13.047   1.930   9.361
 3126POPC   PO440632  13.646   1.797   9.477
 3126POPC   GL140633  13.545   1.864   9.105
 3126POPC   GL240634  13.278   1.643   9.033
 3126POPC   C1A40635  13.750   1.993   8.736
 3126POPC   D2A40636  13.940   2.235   8.408
 3126POPC   C3A40637  13.892   2.002   8.033
 3126POPC   C4A40638  13.567   1.973   7.757
 3126POPC   C1B40639  13.239   1.995   8.729
 3126POPC   C2B40640  13.387   1.977   8.310
 3126POPC   C3B40641  13.176   2.160   7.998
 3126POPC   C4B40642  13.071   2.124   7.579
 3127POPC   NC340643  33.255  13.963   9.699
 3127POPC   PO440644  32.820  13.555   9.546
 3127POPC   GL140645  32.968  13.569   9.181
 3127POPC   GL240646  33.307  13.541   9.270
 3127POPC   C1A40647  33.056  13.520   8.771
 3127POPC   D2A40648  32.993  13.403   8.375
 3127POPC   C3A40649  32.772  13.565   8.047
 3127POPC   C4A40650  32.905  13.782   7.693
 3127POPC   C1B40651  33.368  13.866   8.963
 3127POPC   C2B40652  33.242  13.921   8.519
 3127POPC   C3B40653  33.256  13.799   8.085
 3127POPC   C4B40654  33.408  13.795   7.656
 3128POPC   NC340655   0.292   9.983   5.309
 3128POPC   PO440656   0.870   9.664   5.400
 3128POPC   GL140657   0.621   9.694   5.793
 3128POPC   GL240658   0.301   9.566   5.786
 3128POPC   C1A40659   0.427   9.892   6.173
 3128POPC   D2A40660   0.582   9.954   6.599
 3128POPC   C3A40661   0.266   9.881   6.896
 3128POPC   C4A40662   0.407   9.811   7.234
 3128POPC   C1B40663   0.364   9.376   6.174
 3128POPC   C2B40664   0.317   9.528   6.548
 3128POPC   C3B40665   0.318   9.374   6.955
 3128POPC   C4B40666   0.143   9.392   7.341
 3129POPC   NC340667   3.577  24.690   5.237
 3129POPC   PO440668   3.422  24.042   5.235
 3129POPC   GL140669   3.436  24.247   5.683
 3129POPC   GL240670   3.737  24.234   5.896
 3129POPC   C1A40671   3.300  24.262   6.150
 3129POPC   D2A40672   3.336  24.306   6.612
 3129POPC   C3A40673   3.387  24.700   6.854
 3129POPC   C4A40674   3.271  24.711   7.275
 3129POPC   C1B40675   3.793  24.629   6.156
 3129POPC   C2B40676   3.850  24.882   6.548
 3129POPC   C3B40677   4.009  24.840   6.980
 3129POPC   C4B40678   3.787  24.605   7.280
 3130POPC   NC340679  25.598  44.124   5.617
 3130POPC   PO440680  26.120  43.671   5.474
 3130POPC   GL140681  26.041  43.930   5.808
 3130POPC   GL240682  25.774  43.718   5.870
 3130POPC   C1A40683  25.933  44.074   6.232
 3130POPC   D2A40684  26.126  44.175   6.589
 3130POPC   C3A40685  25.937  44.078   6.957
 3130POPC   C4A40686  26.168  44.122   7.291
 3130POPC   C1B40687  26.025  43.586   6.195
 3130POPC   C2B40688  25.922  43.674   6.624
 3130POPC   C3B40689  26.140  43.611   6.988
 3130POPC   C4B40690  26.173  43.639   7.391
 3131POPC   NC340691   8.022   0.802   5.588
 3131POPC   PO440692   8.513   1.250   5.456
 3131POPC   GL140693   8.246   1.492   5.766
 3131POPC   GL240694   8.008   1.242   5.858
 3131POPC   C1A40695   8.225   1.492   6.244
 3131POPC   D2A40696   8.405   1.533   6.684
 3131POPC   C3A40697   8.189   1.268   6.969
 3131POPC   C4A40698   8.294   1.032   7.335
 3131POPC   C1B40699   7.953   0.954   6.229
 3131POPC   C2B40700   8.119   0.860   6.644
 3131POPC   C3B40701   7.897   0.817   7.031
 3131POPC   C4B40702   7.730   0.993   7.409
 3132POPC   NC340703  28.610  33.076   5.158
 3132POPC   PO440704  27.972  33.008   5.259
 3132POPC   GL140705  28.229  33.167   5.635
 3132POPC   GL240706  28.617  33.181   5.675
 3132POPC   C1A40707  28.158  33.108   6.101
 3132POPC   D2A40708  28.356  33.212   6.500
 3132POPC   C3A40709  28.180  33.030   6.849
 3132POPC   C4A40710  28.235  33.181   7.237
 3132POPC   C1B40711  28.663  33.047   6.115
 3132POPC   C2B40712  28.478  32.724   6.409
 3132POPC   C3B40713  28.456  32.588   6.842
 3132POPC   C4B40714  28.533  32.763   7.253
 3133POPC   NC340715  33.947   7.769   5.310
 3133POPC   PO440716  33.612   7.194   5.248
 3133POPC   GL140717  33.913   7.332   5.586
 3133POPC   GL240718  33.660   7.583   5.693
 3133POPC   C1A40719  33.962   7.393   6.070
 3133POPC   D2A40720  34.021   7.192   6.500
 3133POPC   C3A40721  33.851   7.373   6.893
 3133POPC   C4A40722  33.889   7.160   7.278
 3133POPC   C1B40723  33.461   7.556   6.106
 3133POPC   C2B40724  33.498   7.347   6.504
 3133POPC   C3B40725  33.333   7.341   6.909
 3133POPC   C4B40726  33.482   7.650   7.182
 3134POPC   NC340727  18.048  18.790   5.469
 3134POPC   PO440728  18.457  19.460   5.472
 3134POPC   GL140729  18.308  19.149   5.768
 3134POPC   GL240730  17.961  19.075   5.904
 3134POPC   C1A40731  18.373  18.972   6.181
 3134POPC   D2A40732  18.119  18.962   6.564
 3134POPC   C3A40733  18.404  18.872   6.897
 3134POPC   C4A40734  18.305  19.062   7.265
 3134POPC   C1B40735  17.959  18.665   6.167
 3134POPC   C2B40736  18.031  18.453   6.602
 3134POPC   C3B40737  17.971  18.647   7.045
 3134POPC   C4B40738  18.163  18.626   7.466
 3135POPC   NC340739  40.964  40.105   5.268
 3135POPC   PO440740  40.318  39.980   5.349
 3135POPC   GL140741  40.639  39.902   5.676
 3135POPC   GL240742  40.622  40.227   5.831
 3135POPC   C1A40743  40.845  39.901   6.142
 3135POPC   D2A40744  40.898  40.105   6.571
 3135POPC   C3A40745  40.874  39.869   6.975
 3135POPC   C4A40746  40.695  39.704   7.371
 3135POPC   C1B40747  40.411  40.284   6.258
 3135POPC   C2B40748  40.403  40.253   6.707
 3135POPC   C3B40749  40.544  40.237   7.111
 3135POPC   C4B40750  40.546  40.536   7.403
 3136POPC   NC340751  38.261  28.816   5.440
 3136POPC   PO440752  38.556  28.091   5.404
 3136POPC   GL140753  38.537  28.407   5.736
 3136POPC   GL240754  38.793  28.270   5.901
 3136POPC   C1A40755  38.430  28.495   6.203
 3136POPC   D2A40756  38.280  28.297   6.585
 3136POPC   C3A40757  38.194  28.508   6.982
 3136POPC   C4A40758  38.293  28.337   7.398
 3136POPC   C1B40759  38.985  28.361   6.303
 3136POPC   C2B40760  38.752  28.536   6.663
 3136POPC   C3B40761  38.678  28.327   7.058
 3136POPC   C4B40762  38.795  28.383   7.509
 3137POPC   NC340763  32.069  40.190   5.325
 3137POPC   PO440764  32.626  39.797   5.303
 3137POPC   GL140765  32.353  39.876   5.664
 3137POPC   GL240766  32.354  40.219   5.756
 3137POPC   C1A40767  32.185  39.882   6.106
 3137POPC   D2A40768  32.133  39.901   6.560
 3137POPC   C3A40769  32.346  39.791   6.942
 3137POPC   C4A40770  32.058  39.726   7.216
 3137POPC   C1B40771  32.171  40.430   6.095
 3137POPC   C2B40772  32.256  40.400   6.510
 3137POPC   C3B40773  32.279  40.290   6.920
 3137POPC   C4B40774  31.993  40.244   7.256
 3138POPC   NC340775  31.096  28.514   5.141
 3138POPC   PO440776  30.586  28.277   5.546
 3138POPC   GL140777  30.661  28.366   5.932
 3138POPC   GL240778  30.528  28.083   6.095
 3138POPC   C1A40779  30.800  28.532   6.315
 3138POPC   D2A40780  30.726  28.761   6.679
 3138POPC   C3A40781  30.651  28.463   7.011
 3138POPC   C4A40782  30.578  28.650   7.380
 3138POPC   C1B40783  30.975  28.028   6.186
 3138POPC   C2B40784  31.145  28.049   6.603
 3138POPC   C3B40785  30.946  28.021   7.029
 3138POPC   C4B40786  30.896  28.227   7.440
 3139POPC   NC340787  30.482  13.110   5.080
 3139POPC   PO440788  30.058  12.664   5.454
 3139POPC   GL140789  29.931  12.809   5.837
 3139POPC   GL240790  29.597  12.719   5.882
 3139POPC   C1A40791  29.973  12.997   6.229
 3139POPC   D2A40792  29.823  12.863   6.649
 3139POPC   C3A40793  30.028  13.053   7.049
 3139POPC   C4A40794  30.191  13.029   7.501
 3139POPC   C1B40795  29.442  12.998   6.238
 3139POPC   C2B40796  29.348  13.111   6.680
 3139POPC   C3B40797  29.523  12.923   7.071
 3139POPC   C4B40798  29.846  12.566   7.067
 3140POPC   NC340799  10.790  37.356   5.473
 3140POPC   PO440800  10.766  37.989   5.389
 3140POPC   GL140801  10.548  37.834   5.751
 3140POPC   GL240802  10.711  37.551   5.926
 3140POPC   C1A40803  10.449  37.900   6.202
 3140POPC   D2A40804  10.394  38.112   6.585
 3140POPC   C3A40805  10.402  37.903   6.969
 3140POPC   C4A40806  10.680  37.818   7.291
 3140POPC   C1B40807  10.416  37.389   6.214
 3140POPC   C2B40808  10.481  37.526   6.633
 3140POPC   C3B40809  10.519  37.390   7.059
 3140POPC   C4B40810  10.278  37.450   7.402
 3141POPC   NC340811  16.645  16.269   5.112
 3141POPC   PO440812  16.900  15.782   5.562
 3141POPC   GL140813  16.614  15.689   5.904
 3141POPC   GL240814  16.649  16.040   6.051
 3141POPC   C1A40815  16.588  15.659   6.368
 3141POPC   D2A40816  16.801  15.912   6.693
 3141POPC   C3A40817  16.833  15.818   7.144
 3141POPC   C4A40818  16.976  15.952   7.565
 3141POPC   C1B40819  16.383  16.367   6.229
 3141POPC   C2B40820  16.332  16.496   6.644
 3141POPC   C3B40821  16.504  16.234   6.994
 3141POPC   C4B40822  16.518  16.191   7.450
 3142POPC   NC340823  32.607  44.810   5.272
 3142POPC   PO440824  32.022  44.571   5.411
 3142POPC   GL140825  32.207  44.789   5.749
 3142POPC   GL240826  32.488  44.607   5.747
 3142POPC   C1A40827  32.147  44.884   6.207
 3142POPC   D2A40828  32.333  44.780   6.626
 3142POPC   C3A40829  32.166  44.767   7.078
 3142POPC   C4A40830  32.259  44.968   7.515
 3142POPC   C1B40831  32.444  44.439   6.158
 3142POPC   C2B40832  32.345  44.264   6.541
 3142POPC   C3B40833  32.511  44.393   6.926
 3142POPC   C4B40834  32.598  44.504   7.353
 3143POPC   NC340835  16.834  43.478   5.331
 3143POPC   PO440836  16.587  44.070   5.111
 3143POPC   GL140837  16.645  43.975   5.588
 3143POPC   GL240838  16.349  43.864   5.770
 3143POPC   C1A40839  16.777  43.987   6.060
 3143POPC   D2A40840  16.592  44.229   6.428
 3143POPC   C3A40841  16.573  44.026   6.841
 3143POPC   C4A40842  16.741  44.059   7.252
 3143POPC   C1B40843  16.524  43.551   6.020
 3143POPC   C2B40844  16.547  43.671   6.432
 3143POPC   C3B40845  16.457  43.509   6.817
 3143POPC   C4B40846  16.408  43.660   7.207
 3144POPC   NC340847  43.407  32.617   5.310
 3144POPC   PO440848  42.985  32.017   5.255
 3144POPC   GL140849  42.934  32.172   5.689
 3144POPC   GL240850  43.035  32.517   5.683
 3144POPC   C1A40851  43.176  32.185   6.104
 3144POPC   D2A40852  43.261  32.145   6.555
 3144POPC   C3A40853  43.210  32.009   7.003
 3144POPC   C4A40854  43.304  32.082   7.451
 3144POPC   C1B40855  42.791  32.507   6.076
 3144POPC   C2B40856  42.807  32.382   6.484
 3144POPC   C3B40857  42.782  32.577   6.878
 3144POPC   C4B40858  42.929  32.401   7.251
 3145POPC   NC340859  11.024   3.675   5.142
 3145POPC   PO440860  10.341   3.752   5.394
 3145POPC   GL140861  10.457   3.602   5.808
 3145POPC   GL240862  10.691   3.845   5.854
 3145POPC   C1A40863  10.358   3.394   6.225
 3145POPC   D2A40864  10.432   3.704   6.559
 3145POPC   C3A40865  10.531   3.758   6.984
 3145POPC   C4A40866  10.303   3.751   7.353
 3145POPC   C1B40867  10.810   3.632   6.213
 3145POPC   C2B40868  10.943   3.456   6.593
 3145POPC   C3B40869  10.892   3.385   7.023
 3145POPC   C4B40870  10.539   3.320   7.271
 3146POPC   NC340871  10.259  40.556   5.339
 3146POPC   PO440872  10.772  40.952   5.411
 3146POPC   GL140873  10.504  40.768   5.730
 3146POPC   GL240874  10.385  41.063   5.806
 3146POPC   C1A40875  10.301  40.640   6.117
 3146POPC   D2A40876  10.262  40.759   6.567
 3146POPC   C3A40877  10.434  40.455   6.867
 3146POPC   C4A40878  10.526  40.543   7.297
 3146POPC   C1B40879  10.413  41.153   6.236
 3146POPC   C2B40880  10.587  41.172   6.632
 3146POPC   C3B40881  10.574  40.934   6.968
 3146POPC   C4B40882  10.614  41.133   7.321
 3147POPC   NC340883  18.857   4.208   5.412
 3147POPC   PO440884  19.418   4.474   5.189
 3147POPC   GL140885  19.380   4.405   5.673
 3147POPC   GL240886  19.072   4.336   5.876
 3147POPC   C1A40887  19.531   4.213   6.088
 3147POPC   D2A40888  19.392   4.343   6.498
 3147POPC   C3A40889  19.452   4.434   6.918
 3147POPC   C4A40890  19.110   4.417   7.227
 3147POPC   C1B40891  19.028   4.105   6.243
 3147POPC   C2B40892  18.868   4.169   6.626
 3147POPC   C3B40893  18.889   4.002   7.025
 3147POPC   C4B40894  18.702   4.084   7.391
 3148POPC   NC340895  36.281   0.299   5.410
 3148POPC   PO440896  36.302   0.942   5.376
 3148POPC   GL140897  36.156   0.650   5.751
 3148POPC   GL240898  36.471   0.441   5.859
 3148POPC   C1A40899  36.015   0.374   6.106
 3148POPC   D2A40900  36.050   0.465   6.563
 3148POPC   C3A40901  35.860   0.421   6.994
 3148POPC   C4A40902  35.726   0.040   7.246
 3148POPC   C1B40903  36.420   0.700   6.237
 3148POPC   C2B40904  36.542   0.556   6.661
 3148POPC   C3B40905  36.356   0.343   7.037
 3148POPC   C4B40906  36.461   0.307   7.470
 3149POPC   NC340907  25.686   5.493   5.388
 3149POPC   PO440908  25.559   6.149   5.384
 3149POPC   GL140909  25.321   5.877   5.702
 3149POPC   GL240910  25.536   5.657   5.870
 3149POPC   C1A40911  25.098   5.749   6.135
 3149POPC   D2A40912  25.270   5.770   6.575
 3149POPC   C3A40913  25.129   5.723   7.014
 3149POPC   C4A40914  25.048   5.978   7.383
 3149POPC   C1B40915  25.531   6.047   6.152
 3149POPC   C2B40916  25.698   6.040   6.577
 3149POPC   C3B40917  25.538   6.038   7.005
 3149POPC   C4B40918  25.555   5.768   7.338
 3150POPC   NC340919  22.920  31.666   5.641
 3150POPC   PO440920  22.508  31.276   5.273
 3150POPC   GL140921  22.618  31.249   5.732
 3150POPC   GL240922  22.994  31.161   5.791
 3150POPC   C1A40923  22.734  31.371   6.183
 3150POPC   D2A40924  23.015  31.467   6.486
 3150POPC   C3A40925  22.805  31.726   6.780
 3150POPC   C4A40926  22.847  31.650   7.186
 3150POPC   C1B40927  23.247  31.081   6.177
 3150POPC   C2B40928  23.470  31.216   6.576
 3150POPC   C3B40929  23.304  31.478   6.920
 3150POPC   C4B40930  23.275  31.356   7.341
 3151POPC   NC340931  21.409  27.895   5.148
 3151POPC   PO440932  21.304  28.586   5.331
 3151POPC   GL140933  21.419  28.440   5.763
 3151POPC   GL240934  21.695  28.243   5.732
 3151POPC   C1A40935  21.281  28.379   6.196
 3151POPC   D2A40936  21.141  28.283   6.612
 3151POPC   C3A40937  21.410  28.191   6.954
 3151POPC   C4A40938  21.431  28.302   7.366
 3151POPC   C1B40939  21.685  28.058   6.150
 3151POPC   C2B40940  21.892  27.939   6.558
 3151POPC   C3B40941  21.808  27.820   7.000
 3151POPC   C4B40942  21.831  28.018   7.383
 3152POPC   NC340943  25.755  35.995   5.623
 3152POPC   PO440944  26.185  36.414   5.462
 3152POPC   GL140945  26.072  36.269   5.891
 3152POPC   GL240946  26.125  35.926   5.956
 3152POPC   C1A40947  25.985  36.248   6.312
 3152POPC   D2A40948  26.150  36.371   6.695
 3152POPC   C3A40949  25.979  36.156   7.002
 3152POPC   C4A40950  25.761  36.180   7.351
 3152POPC   C1B40951  26.389  35.770   6.243
 3152POPC   C2B40952  26.343  35.909   6.637
 3152POPC   C3B40953  26.249  35.719   6.997
 3152POPC   C4B40954  26.187  35.862   7.400
 3153POPC   NC340955   4.243   7.271   5.388
 3153POPC   PO440956   3.885   7.793   5.558
 3153POPC   GL140957   4.102   7.469   5.844
 3153POPC   GL240958   4.474   7.461   5.879
 3153POPC   C1A40959   4.188   7.304   6.277
 3153POPC   D2A40960   4.163   7.509   6.672
 3153POPC   C3A40961   4.172   7.274   7.060
 3153POPC   C4A40962   4.412   7.633   7.187
 3153POPC   C1B40963   4.673   7.172   6.207
 3153POPC   C2B40964   4.564   7.145   6.647
 3153POPC   C3B40965   4.660   7.178   7.088
 3153POPC   C4B40966   4.499   7.300   7.545
 3154POPC   NC340967  36.699  33.939   5.593
 3154POPC   PO440968  37.276  34.122   5.295
 3154POPC   GL140969  37.229  33.944   5.758
 3154POPC   GL240970  37.258  33.553   5.794
 3154POPC   C1A40971  37.037  34.095   6.187
 3154POPC   D2A40972  36.690  34.154   6.522
 3154POPC   C3A40973  36.704  33.978   6.921
 3154POPC   C4A40974  36.828  33.792   7.271
 3154POPC   C1B40975  37.334  33.683   6.233
 3154POPC   C2B40976  37.063  33.585   6.607
 3154POPC   C3B40977  37.188  33.482   7.032
 3154POPC   C4B40978  37.276  33.607   7.464
 3155POPC   NC340979  16.788   7.229   5.165
 3155POPC   PO440980  16.507   7.713   5.558
 3155POPC   GL140981  16.912   7.667   5.782
 3155POPC   GL240982  17.173   7.405   5.660
 3155POPC   C1A40983  16.827   7.570   6.219
 3155POPC   D2A40984  16.492   7.523   6.546
 3155POPC   C3A40985  16.599   7.431   6.991
 3155POPC   C4A40986  16.471   7.378   7.463
 3155POPC   C1B40987  17.255   7.313   6.110
 3155POPC   C2B40988  17.313   7.179   6.552
 3155POPC   C3B40989  17.044   7.109   6.913
 3155POPC   C4B40990  16.948   7.263   7.325
 3156POPC   NC340991  19.625   9.145   5.428
 3156POPC   PO440992  20.269   8.839   5.450
 3156POPC   GL140993  19.934   8.884   5.748
 3156POPC   GL240994  19.578   8.707   5.716
 3156POPC   C1A40995  19.824   8.850   6.173
 3156POPC   D2A40996  19.621   9.028   6.521
 3156POPC   C3A40997  19.849   9.058   6.883
 3156POPC   C4A40998  19.769   9.282   7.212
 3156POPC   C1B40999  19.498   8.453   6.093
 3156POPC   C2B41000  19.712   8.466   6.497
 3156POPC   C3B41001  19.578   8.618   6.883
 3156POPC   C4B41002  19.761   8.686   7.280
 3157POPC   NC341003  37.385   3.319   5.352
 3157POPC   PO441004  36.728   3.604   5.382
 3157POPC   GL141005  36.652   3.658   5.803
 3157POPC   GL241006  36.934   3.403   5.884
 3157POPC   C1A41007  36.518   3.477   6.184
 3157POPC   D2A41008  36.760   3.276   6.508
 3157POPC   C3A41009  36.739   3.547   6.845
 3157POPC   C4A41010  36.791   3.633   7.236
 3157POPC   C1B41011  37.138   3.130   6.201
 3157POPC   C2B41012  37.321   3.249   6.600
 3157POPC   C3B41013  37.101   3.175   6.965
 3157POPC   C4B41014  36.899   3.130   7.318
 3158POPC   NC341015   0.979   2.144   5.452
 3158POPC   PO441016   1.565   1.876   5.294
 3158POPC   GL141017   1.393   1.945   5.739
 3158POPC   GL241018   1.104   1.769   5.807
 3158POPC   C1A41019   1.364   2.016   6.212
 3158POPC   D2A41020   1.477   1.903   6.626
 3158POPC   C3A41021   1.257   2.136   6.913
 3158POPC   C4A41022   1.274   2.411   7.260
 3158POPC   C1B41023   1.199   1.546   6.250
 3158POPC   C2B41024   1.224   1.471   6.683
 3158POPC   C3B41025   1.300   1.646   7.075
 3158POPC   C4B41026   1.061   1.950   7.339
 3159POPC   NC341027  16.552  27.468   5.532
 3159POPC   PO441028  17.280  27.651   5.485
 3159POPC   GL141029  16.985  27.602   5.818
 3159POPC   GL241030  17.073  27.314   5.932
 3159POPC   C1A41031  16.932  27.813   6.255
 3159POPC   D2A41032  16.795  28.017   6.671
 3159POPC   C3A41033  16.674  27.788   7.089
 3159POPC   C4A41034  16.924  27.663   7.475
 3159POPC   C1B41035  16.731  27.345   6.214
 3159POPC   C2B41036  16.723  27.489   6.649
 3159POPC   C3B41037  16.969  27.370   7.024
 3159POPC   C4B41038  17.354  27.232   7.209
 3160POPC   NC341039  29.634   4.347   5.392
 3160POPC   PO441040  29.862   3.824   5.574
 3160POPC   GL141041  29.914   4.127   5.905
 3160POPC   GL241042  29.732   4.463   5.880
 3160POPC   C1A41043  30.117   4.096   6.317
 3160POPC   D2A41044  29.827   3.972   6.646
 3160POPC   C3A41045  29.898   4.071   7.062
 3160POPC   C4A41046  30.327   4.136   7.090
 3160POPC   C1B41047  29.736   4.435   6.317
 3160POPC   C2B41048  30.005   4.687   6.584
 3160POPC   C3B41049  29.949   4.877   6.976
 3160POPC   C4B41050  29.745   4.570   7.199
 3161POPC   NC341051  21.696   6.099   5.149
 3161POPC   PO441052  21.251   5.611   5.391
 3161POPC   GL141053  21.350   5.667   5.852
 3161POPC   GL241054  21.387   6.004   5.810
 3161POPC   C1A41055  21.622   5.773   6.239
 3161POPC   D2A41056  21.781   5.797   6.697
 3161POPC   C3A41057  21.512   5.740   7.058
 3161POPC   C4A41058  21.077   5.855   7.167
 3161POPC   C1B41059  21.362   6.212   6.208
 3161POPC   C2B41060  21.302   5.998   6.592
 3161POPC   C3B41061  21.377   6.204   6.936
 3161POPC   C4B41062  21.566   6.266   7.304
 3162POPC   NC341063  44.463  37.086   5.068
 3162POPC   PO441064  44.737  36.672   5.524
 3162POPC   GL141065  44.598  36.875   5.869
 3162POPC   GL241066  44.569  37.214   5.914
 3162POPC   C1A41067  44.705  36.801   6.266
 3162POPC   D2A41068   0.055  36.799   6.525
 3162POPC   C3A41069  44.822  36.644   6.850
 3162POPC   C4A41070  44.740  36.825   7.243
 3162POPC   C1B41071  44.336  37.174   6.247
 3162POPC   C2B41072  44.376  36.995   6.628
 3162POPC   C3B41073  44.389  37.165   7.023
 3162POPC   C4B41074  44.417  37.168   7.443
 3163POPC   NC341075  15.077  29.625   5.253
 3163POPC   PO441076  15.013  30.319   5.149
 3163POPC   GL141077  15.060  30.083   5.571
 3163POPC   GL241078  14.840  30.260   5.809
 3163POPC   C1A41079  15.054  29.844   6.021
 3163POPC   D2A41080  15.334  29.872   6.416
 3163POPC   C3A41081  15.261  29.765   6.870
 3163POPC   C4A41082  15.023  29.839   7.246
 3163POPC   C1B41083  15.266  30.303   6.043
 3163POPC   C2B41084  15.354  30.395   6.476
 3163POPC   C3B41085  15.153  30.351   6.866
 3163POPC   C4B41086  15.388  30.190   7.192
 3164POPC   NC341087   5.735   0.165   5.290
 3164POPC   PO441088   5.905   0.760   5.553
 3164POPC   GL141089   5.611   0.609   5.878
 3164POPC   GL241090   5.702   0.267   5.806
 3164POPC   C1A41091   5.579   0.721   6.329
 3164POPC   D2A41092   5.942   0.855   6.599
 3164POPC   C3A41093   6.052   0.644   7.011
 3164POPC   C4A41094   5.778   0.649   7.400
 3164POPC   C1B41095   5.964   0.396   6.185
 3164POPC   C2B41096   5.853   0.322   6.623
 3164POPC   C3B41097   5.743   0.249   7.069
 3164POPC   C4B41098   6.137   0.196   7.289
 3165POPC   NC341099  33.430  18.008   5.419
 3165POPC   PO441100  33.823  18.568   5.586
 3165POPC   GL141101  33.628  18.291   5.825
 3165POPC   GL241102  33.775  17.967   5.818
 3165POPC   C1A41103  33.756  18.322   6.254
 3165POPC   D2A41104  33.522  18.528   6.579
 3165POPC   C3A41105  33.613  18.411   6.997
 3165POPC   C4A41106  33.981  18.602   7.169
 3165POPC   C1B41107  33.988  17.856   6.217
 3165POPC   C2B41108  33.913  17.998   6.669
 3165POPC   C3B41109  34.002  18.101   7.100
 3165POPC   C4B41110  34.057  17.886   7.481
 3166POPC   NC341111  18.540  17.951   5.485
 3166POPC   PO441112  18.010  17.602   5.176
 3166POPC   GL141113  18.068  17.561   5.693
 3166POPC   GL241114  18.409  17.533   5.916
 3166POPC   C1A41115  18.010  17.617   6.169
 3166POPC   D2A41116  18.374  17.603   6.474
 3166POPC   C3A41117  18.282  17.512   6.910
 3166POPC   C4A41118  18.176  17.667   7.354
 3166POPC   C1B41119  18.575  17.194   6.217
 3166POPC   C2B41120  18.458  17.051   6.655
 3166POPC   C3B41121  18.571  17.140   7.092
 3166POPC   C4B41122  18.486  17.253   7.550
 3167POPC   NC341123  25.285  28.953   5.062
 3167POPC   PO441124  25.578  29.371   5.390
 3167POPC   GL141125  25.363  29.134   5.721
 3167POPC   GL241126  25.609  28.911   5.871
 3167POPC   C1A41127  25.170  29.264   6.147
 3167POPC   D2A41128  25.333  29.474   6.545
 3167POPC   C3A41129  25.358  29.300   6.969
 3167POPC   C4A41130  25.114  29.282   7.371
 3167POPC   C1B41131  25.320  28.750   6.211
 3167POPC   C2B41132  25.125  28.904   6.614
 3167POPC   C3B41133  25.194  28.838   7.069
 3167POPC   C4B41134  25.553  28.832   7.292
 3168POPC   NC341135  27.952  16.485   5.102
 3168POPC   PO441136  27.443  16.820   5.489
 3168POPC   GL141137  27.556  16.676   5.871
 3168POPC   GL241138  27.878  16.685   5.804
 3168POPC   C1A41139  27.589  16.526   6.280
 3168POPC   D2A41140  27.590  16.760   6.641
 3168POPC   C3A41141  27.675  16.534   7.036
 3168POPC   C4A41142  27.566  16.765   7.420
 3168POPC   C1B41143  27.883  16.959   6.176
 3168POPC   C2B41144  28.042  17.003   6.581
 3168POPC   C3B41145  27.854  17.014   6.983
 3168POPC   C4B41146  28.158  16.691   7.035
 3169POPC   NC341147  33.785  43.563   5.354
 3169POPC   PO441148  33.588  44.241   5.338
 3169POPC   GL141149  33.721  44.045   5.765
 3169POPC   GL241150  33.964  44.280   5.837
 3169POPC   C1A41151  33.711  43.810   6.209
 3169POPC   D2A41152  33.846  43.628   6.633
 3169POPC   C3A41153  33.730  43.834   7.056
 3169POPC   C4A41154  33.736  43.798   7.542
 3169POPC   C1B41155  34.102  44.114   6.243
 3169POPC   C2B41156  33.954  44.121   6.684
 3169POPC   C3B41157  33.922  44.305   7.116
 3169POPC   C4B41158  33.908  44.279   7.570
 3170POPC   NC341159  38.370  40.158   5.217
 3170POPC   PO441160  38.561  39.767   5.707
 3170POPC   GL141161  38.336  40.008   5.923
 3170POPC   GL241162  38.150  40.233   5.724
 3170POPC   C1A41163  38.393  39.996   6.353
 3170POPC   D2A41164  38.532  40.232   6.666
 3170POPC   C3A41165  38.699  39.968   6.934
 3170POPC   C4A41166  38.849  40.293   7.132
 3170POPC   C1B41167  38.032  40.318   6.198
 3170POPC   C2B41168  38.031  40.182   6.666
 3170POPC   C3B41169  38.188  40.041   7.062
 3170POPC   C4B41170  38.392  39.650   7.188
 3171POPC   NC341171   7.097  32.515   5.456
 3171POPC   PO441172   6.437  32.173   5.447
 3171POPC   GL141173   6.520  32.073   5.865
 3171POPC   GL241174   6.855  32.210   5.906
 3171POPC   C1A41175   6.414  32.068   6.284
 3171POPC   D2A41176   6.726  32.158   6.557
 3171POPC   C3A41177   6.671  32.317   6.951
 3171POPC   C4A41178   6.500  32.151   7.309
 3171POPC   C1B41179   7.128  31.994   6.217
 3171POPC   C2B41180   7.102  31.839   6.644
 3171POPC   C3B41181   7.192  31.988   7.025
 3171POPC   C4B41182   7.000  32.152   7.371
 3172POPC   NC341183   4.922  14.721   5.366
 3172POPC   PO441184   5.208  14.127   5.220
 3172POPC   GL141185   5.144  14.161   5.719
 3172POPC   GL241186   4.863  13.981   5.879
 3172POPC   C1A41187   5.133  14.491   6.054
 3172POPC   D2A41188   5.417  14.635   6.369
 3172POPC   C3A41189   5.259  14.682   6.778
 3172POPC   C4A41190   4.984  14.593   7.115
 3172POPC   C1B41191   4.701  14.243   6.204
 3172POPC   C2B41192   4.888  14.353   6.589
 3172POPC   C3B41193   4.685  14.221   6.954
 3172POPC   C4B41194   4.833  14.167   7.367
 3173POPC   NC341195  14.082  11.701   5.543
 3173POPC   PO441196  13.488  11.491   5.153
 3173POPC   GL141197  13.671  11.391   5.616
 3173POPC   GL241198  13.743  11.617   5.905
 3173POPC   C1A41199  13.508  11.184   6.024
 3173POPC   D2A41200  13.367  11.150   6.445
 3173POPC   C3A41201  13.493  11.450   6.767
 3173POPC   C4A41202  13.408  11.314   7.185
 3173POPC   C1B41203  14.005  11.318   6.121
 3173POPC   C2B41204  13.887  11.149   6.519
 3173POPC   C3B41205  13.959  11.278   6.927
 3173POPC   C4B41206  13.958  11.346   7.340
 3174POPC   NC341207   0.259  38.619   5.492
 3174POPC   PO441208   0.761  38.175   5.492
 3174POPC   GL141209   0.573  38.335   5.848
 3174POPC   GL241210   0.695  38.650   5.820
 3174POPC   C1A41211   0.519  38.242   6.284
 3174POPC   D2A41212   0.685  38.255   6.708
 3174POPC   C3A41213   0.394  38.449   6.940
 3174POPC   C4A41214   0.248  38.396   7.312
 3174POPC   C1B41215   0.804  38.917   6.146
 3174POPC   C2B41216   0.712  38.737   6.537
 3174POPC   C3B41217   0.637  38.889   6.949
 3174POPC   C4B41218   0.610  38.805   7.349
 3175POPC   NC341219  10.046  25.600   5.429
 3175POPC   PO441220  10.578  25.227   5.255
 3175POPC   GL141221  10.584  25.287   5.718
 3175POPC   GL241222  10.685  25.002   5.873
 3175POPC   C1A41223  10.699  25.488   6.145
 3175POPC   D2A41224  10.604  25.587   6.618
 3175POPC   C3A41225  10.550  25.375   7.043
 3175POPC   C4A41226  10.785  25.531   7.397
 3175POPC   C1B41227  10.530  25.037   6.266
 3175POPC   C2B41228  10.692  25.070   6.659
 3175POPC   C3B41229  10.750  24.871   7.057
 3175POPC   C4B41230  10.858  25.036   7.459
 3176POPC   NC341231  32.620   4.641   5.512
 3176POPC   PO441232  32.093   4.350   5.134
 3176POPC   GL141233  32.209   4.203   5.635
 3176POPC   GL241234  32.205   4.473   5.911
 3176POPC   C1A41235  32.239   4.039   6.136
 3176POPC   D2A41236  32.203   4.183   6.592
 3176POPC   C3A41237  32.399   4.021   6.991
 3176POPC   C4A41238  32.200   3.943   7.380
 3176POPC   C1B41239  32.500   4.493   6.296
 3176POPC   C2B41240  32.506   4.583   6.761
 3176POPC   C3B41241  32.166   4.489   7.072
 3176POPC   C4B41242  31.883   4.810   7.301
 3177POPC   NC341243   0.217  14.100   5.084
 3177POPC   PO441244   0.388  14.584   5.365
 3177POPC   GL141245   0.524  14.657   5.796
 3177POPC   GL241246   0.600  14.295   5.892
 3177POPC   C1A41247   0.681  14.670   6.248
 3177POPC   D2A41248   0.597  14.298   6.538
 3177POPC   C3A41249   0.413  14.349   6.965
 3177POPC   C4A41250   0.343  14.640   7.307
 3177POPC   C1B41251   0.242  14.435   6.169
 3177POPC   C2B41252   0.218  14.674   6.570
 3177POPC   C3B41253  44.975  14.650   6.953
 3177POPC   C4B41254  44.897  14.379   7.330
 3178POPC   NC341255  33.022  39.630   5.499
 3178POPC   PO441256  33.245  40.276   5.509
 3178POPC   GL141257  33.157  40.033   5.832
 3178POPC   GL241258  32.827  40.023   5.800
 3178POPC   C1A41259  33.091  39.934   6.254
 3178POPC   D2A41260  33.190  40.140   6.614
 3178POPC   C3A41261  33.160  39.888   6.910
 3178POPC   C4A41262  33.244  40.083   7.255
 3178POPC   C1B41263  32.617  40.148   6.203
 3178POPC   C2B41264  32.691  39.988   6.626
 3178POPC   C3B41265  32.732  40.129   7.072
 3178POPC   C4B41266  32.463  40.168   7.444
 3179POPC   NC341267  30.889   7.630   5.457
 3179POPC   PO441268  30.532   7.099   5.476
 3179POPC   GL141269  30.857   7.202   5.816
 3179POPC   GL241270  30.644   7.470   5.861
 3179POPC   C1A41271  31.004   7.420   6.250
 3179POPC   D2A41272  31.005   7.548   6.733
 3179POPC   C3A41273  30.822   7.361   7.142
 3179POPC   C4A41274  30.997   7.319   7.592
 3179POPC   C1B41275  30.494   7.360   6.252
 3179POPC   C2B41276  30.560   7.258   6.668
 3179POPC   C3B41277  30.289   7.324   6.992
 3179POPC   C4B41278  30.147   7.574   7.345
 3180POPC   NC341279  38.267  39.623   5.380
 3180POPC   PO441280  38.419  38.980   5.292
 3180POPC   GL141281  38.477  39.142   5.754
 3180POPC   GL241282  38.222  39.385   5.843
 3180POPC   C1A41283  38.599  39.299   6.216
 3180POPC   D2A41284  38.855  39.568   6.539
 3180POPC   C3A41285  38.817  39.454   6.986
 3180POPC   C4A41286  38.679  39.120   7.251
 3180POPC   C1B41287  38.166  39.548   6.279
 3180POPC   C2B41288  38.363  39.465   6.695
 3180POPC   C3B41289  38.230  39.194   7.053
 3180POPC   C4B41290  38.227  39.304   7.542
 3181POPC   NC341291  28.324  26.186   5.081
 3181POPC   PO441292  28.628  25.663   5.372
 3181POPC   GL141293  28.509  25.883   5.783
 3181POPC   GL241294  28.190  26.074   5.869
 3181POPC   C1A41295  28.432  25.842   6.248
 3181POPC   D2A41296  28.257  25.899   6.642
 3181POPC   C3A41297  28.542  25.898   6.930
 3181POPC   C4A41298  28.524  26.137   7.263
 3181POPC   C1B41299  28.084  26.233   6.305
 3181POPC   C2B41300  28.092  26.385   6.780
 3181POPC   C3B41301  28.022  26.253   7.248
 3181POPC   C4B41302  27.828  26.303   7.734
 3182POPC   NC341303  29.406  43.246   5.396
 3182POPC   PO441304  28.783  42.970   5.475
 3182POPC   GL141305  29.121  43.038   5.791
 3182POPC   GL241306  29.404  42.796   5.738
 3182POPC   C1A41307  29.138  43.293   6.192
 3182POPC   D2A41308  29.390  43.588   6.464
 3182POPC   C3A41309  29.478  43.433   6.896
 3182POPC   C4A41310  29.207  43.230   7.192
 3182POPC   C1B41311  29.206  42.740   6.210
 3182POPC   C2B41312  29.106  42.764   6.718
 3182POPC   C3B41313  29.134  42.740   7.220
 3182POPC   C4B41314  28.995  42.808   7.745
 3183POPC   NC341315   1.111  36.375   5.293
 3183POPC   PO441316   1.036  35.793   5.523
 3183POPC   GL141317   1.216  36.098   5.746
 3183POPC   GL241318   1.370  35.843   5.924
 3183POPC   C1A41319   1.300  36.287   6.132
 3183POPC   D2A41320   1.481  36.113   6.486
 3183POPC   C3A41321   1.310  36.202   6.859
 3183POPC   C4A41322   1.158  36.132   7.236
 3183POPC   C1B41323   0.972  35.865   6.161
 3183POPC   C2B41324   0.978  35.989   6.546
 3183POPC   C3B41325   0.986  35.778   6.902
 3183POPC   C4B41326   0.762  35.817   7.225
 3184POPC   NC341327   4.034  35.606   5.538
 3184POPC   PO441328   4.294  36.132   5.448
 3184POPC   GL141329   4.265  36.198   5.872
 3184POPC   GL241330   4.190  35.856   5.957
 3184POPC   C1A41331   4.333  36.216   6.320
 3184POPC   D2A41332   4.548  36.451   6.622
 3184POPC   C3A41333   4.260  36.357   6.913
 3184POPC   C4A41334   4.082  36.020   7.100
 3184POPC   C1B41335   4.617  35.866   6.090
 3184POPC   C2B41336   4.728  35.955   6.528
 3184POPC   C3B41337   4.626  36.020   6.967
 3184POPC   C4B41338   4.490  35.926   7.399
 3185POPC   NC341339  22.290  34.736   5.125
 3185POPC   PO441340  22.014  35.313   5.458
 3185POPC   GL141341  22.161  35.459   5.836
 3185POPC   GL241342  22.402  35.258   5.871
 3185POPC   C1A41343  22.075  35.396   6.280
 3185POPC   D2A41344  21.871  35.508   6.675
 3185POPC   C3A41345  22.123  35.321   6.999
 3185POPC   C4A41346  22.343  35.394   7.400
 3185POPC   C1B41347  22.424  35.033   6.218
 3185POPC   C2B41348  22.435  35.153   6.594
 3185POPC   C3B41349  22.409  34.880   6.907
 3185POPC   C4B41350  22.304  34.916   7.284
 3186POPC   NC341351  20.611  11.701   5.401
 3186POPC   PO441352  20.504  11.103   5.353
 3186POPC   GL141353  20.633  11.318   5.748
 3186POPC   GL241354  20.966  11.227   5.876
 3186POPC   C1A41355  20.563  11.295   6.214
 3186POPC   D2A41356  20.735  11.334   6.639
 3186POPC   C3A41357  20.484  11.389   7.033
 3186POPC   C4A41358  20.273  11.087   7.305
 3186POPC   C1B41359  21.030  11.520   6.227
 3186POPC   C2B41360  21.158  11.648   6.659
 3186POPC   C3B41361  20.998  11.536   7.058
 3186POPC   C4B41362  20.718  11.746   7.372
 3187POPC   NC341363  25.784  10.866   5.417
 3187POPC   PO441364  26.031  11.490   5.373
 3187POPC   GL141365  25.858  11.328   5.760
 3187POPC   GL241366  26.118  11.094   5.782
 3187POPC   C1A41367  25.883  11.468   6.203
 3187POPC   D2A41368  26.085  11.328   6.588
 3187POPC   C3A41369  26.230  11.457   6.956
 3187POPC   C4A41370  25.863  11.483   7.217
 3187POPC   C1B41371  26.344  11.209   6.148
 3187POPC   C2B41372  26.408  10.962   6.515
 3187POPC   C3B41373  26.359  10.900   6.963
 3187POPC   C4B41374  26.240  11.135   7.343
 3188POPC   NC341375  17.103  18.934   5.557
 3188POPC   PO441376  17.711  19.160   5.433
 3188POPC   GL141377  17.468  19.214   5.805
 3188POPC   GL241378  17.635  19.478   5.898
 3188POPC   C1A41379  17.493  19.005   6.218
 3188POPC   D2A41380  17.621  18.734   6.556
 3188POPC   C3A41381  17.478  18.759   6.940
 3188POPC   C4A41382  17.329  19.088   7.149
 3188POPC   C1B41383  17.816  19.399   6.305
 3188POPC   C2B41384  17.648  19.229   6.700
 3188POPC   C3B41385  17.831  19.163   7.091
 3188POPC   C4B41386  17.881  19.327   7.535
 3189POPC   NC341387  15.350  10.640   5.595
 3189POPC   PO441388  14.776  10.825   5.363
 3189POPC   GL141389  14.857  10.749   5.811
 3189POPC   GL241390  14.989  10.405   5.887
 3189POPC   C1A41391  15.032  10.774   6.248
 3189POPC   D2A41392  15.350  10.785   6.580
 3189POPC   C3A41393  15.236  10.812   7.024
 3189POPC   C4A41394  15.296  10.773   7.469
 3189POPC   C1B41395  14.813  10.289   6.283
 3189POPC   C2B41396  14.970  10.452   6.669
 3189POPC   C3B41397  15.340  10.324   6.899
 3189POPC   C4B41398  15.312  10.170   7.312
 3190POPC   NC341399   3.430  40.899   5.430
 3190POPC   PO441400   3.102  40.311   5.584
 3190POPC   GL141401   3.423  40.441   5.851
 3190POPC   GL241402   3.755  40.588   5.861
 3190POPC   C1A41403   3.468  40.561   6.276
 3190POPC   D2A41404   3.385  40.775   6.599
 3190POPC   C3A41405   3.415  40.508   6.889
 3190POPC   C4A41406   3.313  40.586   7.250
 3190POPC   C1B41407   3.690  40.993   6.126
 3190POPC   C2B41408   3.820  41.075   6.522
 3190POPC   C3B41409   3.823  40.833   6.884
 3190POPC   C4B41410   3.694  40.920   7.283
 3191POPC   NC341411  17.938   7.851   5.386
 3191POPC   PO441412  18.316   7.333   5.338
 3191POPC   GL141413  18.234   7.470   5.761
 3191POPC   GL241414  18.092   7.136   5.809
 3191POPC   C1A41415  18.389   7.430   6.216
 3191POPC   D2A41416  18.358   7.617   6.660
 3191POPC   C3A41417  18.411   7.474   7.095
 3191POPC   C4A41418  18.356   7.577   7.564
 3191POPC   C1B41419  18.113   6.989   6.208
 3191POPC   C2B41420  18.123   7.159   6.606
 3191POPC   C3B41421  18.173   7.008   7.018
 3191POPC   C4B41422  18.242   7.095   7.434
 3192POPC   NC341423  23.629  21.527   5.215
 3192POPC   PO441424  23.507  21.020   5.606
 3192POPC   GL141425  23.752  21.103   5.945
 3192POPC   GL241426  24.129  21.085   5.915
 3192POPC   C1A41427  23.557  21.310   6.311
 3192POPC   D2A41428  23.750  21.576   6.636
 3192POPC   C3A41429  23.559  21.419   6.993
 3192POPC   C4A41430  23.543  21.172   7.341
 3192POPC   C1B41431  24.057  21.270   6.311
 3192POPC   C2B41432  23.902  21.084   6.679
 3192POPC   C3B41433  24.006  21.177   7.104
 3192POPC   C4B41434  24.042  21.171   7.570
 3193POPC   NC341435  24.362   1.494   5.296
 3193POPC   PO441436  24.252   0.886   5.552
 3193POPC   GL141437  24.411   1.249   5.781
 3193POPC   GL241438  24.299   1.631   5.770
 3193POPC   C1A41439  24.482   1.205   6.205
 3193POPC   D2A41440  24.383   0.975   6.564
 3193POPC   C3A41441  24.636   1.076   6.896
 3193POPC   C4A41442  24.516   1.079   7.306
 3193POPC   C1B41443  24.563   1.714   6.154
 3193POPC   C2B41444  24.607   1.526   6.601
 3193POPC   C3B41445  24.424   1.514   7.034
 3193POPC   C4B41446  24.162   1.425   7.416
 3194POPC   NC341447  22.086  36.700   5.396
 3194POPC   PO441448  22.726  36.953   5.432
 3194POPC   GL141449  22.456  36.719   5.791
 3194POPC   GL241450  22.039  36.709   5.893
 3194POPC   C1A41451  22.369  36.760   6.259
 3194POPC   D2A41452  22.363  36.533   6.649
 3194POPC   C3A41453  22.299  36.677   7.065
 3194POPC   C4A41454  21.987  36.590   7.353
 3194POPC   C1B41455  21.873  36.893   6.308
 3194POPC   C2B41456  21.959  36.923   6.771
 3194POPC   C3B41457  21.865  37.053   7.209
 3194POPC   C4B41458  22.018  37.408   7.506
 3195POPC   NC341459  10.893  12.659   5.526
 3195POPC   PO441460  10.353  13.003   5.419
 3195POPC   GL141461  10.559  12.927   5.785
 3195POPC   GL241462  10.792  13.208   5.873
 3195POPC   C1A41463  10.599  12.709   6.178
 3195POPC   D2A41464  10.339  12.511   6.517
 3195POPC   C3A41465  10.442  12.648   6.898
 3195POPC   C4A41466  10.641  12.780   7.242
 3195POPC   C1B41467  10.435  13.222   6.156
 3195POPC   C2B41468  10.471  13.032   6.556
 3195POPC   C3B41469  10.566  13.182   6.952
 3195POPC   C4B41470  10.352  13.328   7.321
 3196POPC   NC341471  29.656  27.436   5.458
 3196POPC   PO441472  29.939  26.753   5.353
 3196POPC   GL141473  29.957  26.998   5.723
 3196POPC   GL241474  29.619  27.029   5.803
 3196POPC   C1A41475  30.020  26.793   6.112
 3196POPC   D2A41476  30.095  26.556   6.507
 3196POPC   C3A41477  30.031  26.719   6.925
 3196POPC   C4A41478  29.847  26.617   7.331
 3196POPC   C1B41479  29.521  26.840   6.223
 3196POPC   C2B41480  29.585  26.697   6.641
 3196POPC   C3B41481  29.535  26.866   7.038
 3196POPC   C4B41482  29.485  26.937   7.512
 3197POPC   NC341483  42.103  17.214   5.479
 3197POPC   PO441484  41.461  17.384   5.302
 3197POPC   GL141485  41.442  17.526   5.725
 3197POPC   GL241486  41.791  17.607   5.813
 3197POPC   C1A41487  41.388  17.466   6.186
 3197POPC   D2A41488  41.284  17.712   6.574
 3197POPC   C3A41489  41.357  17.496   6.950
 3197POPC   C4A41490  41.101  17.589   7.320
 3197POPC   C1B41491  41.974  17.650   6.257
 3197POPC   C2B41492  41.810  17.602   6.683
 3197POPC   C3B41493  41.846  17.348   7.072
 3197POPC   C4B41494  41.850  17.304   7.565
 3198POPC   NC341495   7.864   0.236   5.130
 3198POPC   PO441496   8.382   0.500   5.496
 3198POPC   GL141497   8.053   0.238   5.648
 3198POPC   GL241498   8.285   0.155   5.923
 3198POPC   C1A41499   7.787   0.195   6.021
 3198POPC   D2A41500   7.764   0.138   6.466
 3198POPC   C3A41501   8.055   0.336   6.721
 3198POPC   C4A41502   8.001   0.288   7.143
 3198POPC   C1B41503   8.248   0.473   6.245
 3198POPC   C2B41504   8.516   0.536   6.613
 3198POPC   C3B41505   8.376   0.619   7.033
 3198POPC   C4B41506   8.581   0.613   7.402
 3199POPC   NC341507  43.542  11.038   5.383
 3199POPC   PO441508  43.127  10.507   5.442
 3199POPC   GL141509  43.067  10.354   5.855
 3199POPC   GL241510  43.421  10.304   5.928
 3199POPC   C1A41511  43.072  10.402   6.332
 3199POPC   D2A41512  43.287  10.180   6.674
 3199POPC   C3A41513  43.321  10.300   7.124
 3199POPC   C4A41514  43.067  10.542   7.426
 3199POPC   C1B41515  43.518  10.640   6.260
 3199POPC   C2B41516  43.505  10.704   6.729
 3199POPC   C3B41517  43.368  10.855   7.158
 3199POPC   C4B41518  43.509  10.820   7.615
 3200POPC   NC341519   7.759  30.585   5.326
 3200POPC   PO441520   7.091  30.736   5.139
 3200POPC   GL141521   7.300  30.709   5.609
 3200POPC   GL241522   7.297  30.378   5.809
 3200POPC   C1A41523   7.449  30.797   6.069
 3200POPC   D2A41524   7.317  30.993   6.475
 3200POPC   C3A41525   7.531  30.988   6.874
 3200POPC   C4A41526   7.611  30.681   7.192
 3200POPC   C1B41527   7.557  30.326   6.208
 3200POPC   C2B41528   7.625  30.417   6.670
 3200POPC   C3B41529   7.951  30.344   6.992
 3200POPC   C4B41530   7.904  30.331   7.465
 3201POPC   NC341531  37.377  11.399   5.505
 3201POPC   PO441532  36.783  11.680   5.312
 3201POPC   GL141533  36.918  11.562   5.712
 3201POPC   GL241534  36.720  11.254   5.746
 3201POPC   C1A41535  36.957  11.439   6.153
 3201POPC   D2A41536  36.755  11.559   6.529
 3201POPC   C3A41537  37.063  11.484   6.819
 3201POPC   C4A41538  36.997  11.498   7.244
 3201POPC   C1B41539  36.618  11.034   6.139
 3201POPC   C2B41540  36.841  11.052   6.511
 3201POPC   C3B41541  36.678  11.154   6.918
 3201POPC   C4B41542  36.837  10.984   7.276
 3202POPC   NC341543   5.527   6.911   5.382
 3202POPC   PO441544   6.002   6.463   5.410
 3202POPC   GL141545   5.874   6.480   5.830
 3202POPC   GL241546   5.893   6.824   5.827
 3202POPC   C1A41547   5.774   6.625   6.281
 3202POPC   D2A41548   5.542   6.841   6.588
 3202POPC   C3A41549   5.733   6.708   6.942
 3202POPC   C4A41550   5.808   6.751   7.352
 3202POPC   C1B41551   6.166   6.910   6.221
 3202POPC   C2B41552   6.155   6.856   6.666
 3202POPC   C3B41553   6.069   7.113   7.032
 3202POPC   C4B41554   6.064   7.154   7.482
 3203POPC   NC341555   1.026   4.737   5.505
 3203POPC   PO441556   1.463   5.312   5.563
 3203POPC   GL141557   1.104   5.225   5.828
 3203POPC   GL241558   1.174   5.589   5.919
 3203POPC   C1A41559   0.963   4.931   6.159
 3203POPC   D2A41560   1.190   4.824   6.555
 3203POPC   C3A41561   1.052   4.923   6.979
 3203POPC   C4A41562   0.948   5.246   7.290
 3203POPC   C1B41563   1.280   5.333   6.308
 3203POPC   C2B41564   1.247   5.383   6.788
 3203POPC   C3B41565   1.436   5.263   7.176
 3203POPC   C4B41566   1.451   5.430   7.619
 3204POPC   NC341567  13.931  34.525   5.412
 3204POPC   PO441568  14.590  34.510   5.232
 3204POPC   GL141569  14.513  34.486   5.708
 3204POPC   GL241570  14.219  34.695   5.795
 3204POPC   C1A41571  14.537  34.258   6.131
 3204POPC   D2A41572  14.678  34.422   6.557
 3204POPC   C3A41573  14.812  34.171   6.895
 3204POPC   C4A41574  14.667  34.117   7.321
 3204POPC   C1B41575  14.383  34.738   6.207
 3204POPC   C2B41576  14.221  34.655   6.597
 3204POPC   C3B41577  14.288  34.443   6.955
 3204POPC   C4B41578  14.244  34.424   7.383
 3205POPC   NC341579  42.907  33.894   5.663
 3205POPC   PO441580  43.522  33.949   5.371
 3205POPC   GL141581  43.375  33.799   5.794
 3205POPC   GL241582  43.254  33.482   5.702
 3205POPC   C1A41583  43.250  33.904   6.242
 3205POPC   D2A41584  42.978  33.776   6.603
 3205POPC   C3A41585  43.151  33.989   6.949
 3205POPC   C4A41586  43.189  34.095   7.370
 3205POPC   C1B41587  43.153  33.412   6.158
 3205POPC   C2B41588  43.306  33.394   6.596
 3205POPC   C3B41589  43.122  33.455   7.035
 3205POPC   C4B41590  43.062  33.301   7.480
 3206POPC   NC341591   8.406   4.359   5.567
 3206POPC   PO441592   7.761   4.062   5.334
 3206POPC   GL141593   7.914   4.242   5.739
 3206POPC   GL241594   7.953   4.612   5.722
 3206POPC   C1A41595   8.079   4.208   6.187
 3206POPC   D2A41596   8.222   3.992   6.580
 3206POPC   C3A41597   8.373   4.276   6.912
 3206POPC   C4A41598   8.321   4.294   7.353
 3206POPC   C1B41599   7.953   4.730   6.183
 3206POPC   C2B41600   8.021   4.647   6.643
 3206POPC   C3B41601   8.121   4.746   7.093
 3206POPC   C4B41602   8.446   4.779   7.433
 3207POPC   NC341603  31.050  32.451   5.581
 3207POPC   PO441604  30.476  32.053   5.373
 3207POPC   GL141605  30.449  32.160   5.812
 3207POPC   GL241606  30.636  32.483   5.910
 3207POPC   C1A41607  30.648  32.061   6.220
 3207POPC   D2A41608  30.801  31.816   6.585
 3207POPC   C3A41609  30.598  32.013   6.921
 3207POPC   C4A41610  30.728  32.136   7.286
 3207POPC   C1B41611  30.998  32.570   6.231
 3207POPC   C2B41612  31.041  32.474   6.671
 3207POPC   C3B41613  30.778  32.564   7.015
 3207POPC   C4B41614  30.722  32.598   7.473
 3208POPC   NC341615  41.872   3.584   5.346
 3208POPC   PO441616  41.436   3.970   5.709
 3208POPC   GL141617  41.616   3.587   5.871
 3208POPC   GL241618  41.416   3.244   5.942
 3208POPC   C1A41619  41.728   3.487   6.285
 3208POPC   D2A41620  41.649   3.295   6.659
 3208POPC   C3A41621  41.910   3.437   6.988
 3208POPC   C4A41622  41.759   3.635   7.360
 3208POPC   C1B41623  41.197   3.115   6.351
 3208POPC   C2B41624  41.160   3.126   6.810
 3208POPC   C3B41625  41.401   3.356   7.116
 3208POPC   C4B41626  41.300   3.412   7.545
 3209POPC   NC341627  24.948  35.780   5.424
 3209POPC   PO441628  25.242  35.134   5.432
 3209POPC   GL141629  25.005  35.394   5.786
 3209POPC   GL241630  25.101  35.767   5.912
 3209POPC   C1A41631  24.832  35.391   6.233
 3209POPC   D2A41632  25.028  35.516   6.640
 3209POPC   C3A41633  25.028  35.253   7.021
 3209POPC   C4A41634  25.239  35.494   7.364
 3209POPC   C1B41635  25.342  35.498   6.199
 3209POPC   C2B41636  25.611  35.324   6.523
 3209POPC   C3B41637  25.508  35.304   6.939
 3209POPC   C4B41638  25.505  34.938   7.178
 3210POPC   NC341639  17.971  41.360   5.465
 3210POPC   PO441640  18.646  41.321   5.478
 3210POPC   GL141641  18.364  41.558   5.781
 3210POPC   GL241642  18.065  41.792   5.757
 3210POPC   C1A41643  18.244  41.430   6.218
 3210POPC   D2A41644  17.963  41.170   6.504
 3210POPC   C3A41645  17.971  41.336   6.921
 3210POPC   C4A41646  18.335  41.524   7.110
 3210POPC   C1B41647  17.821  41.683   6.127
 3210POPC   C2B41648  17.941  41.704   6.550
 3210POPC   C3B41649  17.950  41.871   6.953
 3210POPC   C4B41650  17.874  41.679   7.298
 3211POPC   NC341651   1.075   5.513   5.420
 3211POPC   PO441652   1.052   6.178   5.279
 3211POPC   GL141653   1.231   6.072   5.688
 3211POPC   GL241654   1.556   5.903   5.678
 3211POPC   C1A41655   1.203   6.057   6.142
 3211POPC   D2A41656   1.061   5.762   6.473
 3211POPC   C3A41657   1.010   5.868   6.897
 3211POPC   C4A41658   1.188   5.702   7.259
 3211POPC   C1B41659   1.615   5.746   6.105
 3211POPC   C2B41660   1.616   5.661   6.529
 3211POPC   C3B41661   1.552   5.831   6.926
 3211POPC   C4B41662   1.392   6.182   7.173
 3212POPC   NC341663  28.567   0.556   5.494
 3212POPC   PO441664  28.112   0.118   5.391
 3212POPC   GL141665  28.179   0.393   5.774
 3212POPC   GL241666  28.453   0.196   5.855
 3212POPC   C1A41667  28.418   0.606   6.159
 3212POPC   D2A41668  28.612   0.487   6.566
 3212POPC   C3A41669  28.386   0.669   6.906
 3212POPC   C4A41670  28.404   0.922   7.268
 3212POPC   C1B41671  28.524   0.046   6.240
 3212POPC   C2B41672  28.338   0.035   6.650
 3212POPC   C3B41673  28.389   0.196   7.064
 3212POPC   C4B41674  28.107   0.483   7.302
 3213POPC   NC341675  41.648  24.835   5.477
 3213POPC   PO441676  41.425  24.159   5.432
 3213POPC   GL141677  41.621  24.400   5.753
 3213POPC   GL241678  41.303  24.504   5.874
 3213POPC   C1A41679  41.705  24.639   6.158
 3213POPC   D2A41680  41.382  24.635   6.516
 3213POPC   C3A41681  41.592  24.671   6.926
 3213POPC   C4A41682  41.791  24.532   7.311
 3213POPC   C1B41683  41.454  24.193   6.214
 3213POPC   C2B41684  41.337  24.155   6.677
 3213POPC   C3B41685  41.511  24.181   7.098
 3213POPC   C4B41686  41.536  24.209   7.593
 3214POPC   NC341687  20.475   7.520   5.070
 3214POPC   PO441688  20.731   7.075   5.579
 3214POPC   GL141689  20.584   7.110   5.964
 3214POPC   GL241690  20.368   7.377   5.943
 3214POPC   C1A41691  20.700   7.306   6.375
 3214POPC   D2A41692  21.099   7.401   6.632
 3214POPC   C3A41693  21.011   7.616   7.019
 3214POPC   C4A41694  20.732   7.367   7.243
 3214POPC   C1B41695  20.129   7.112   6.187
 3214POPC   C2B41696  20.293   7.035   6.578
 3214POPC   C3B41697  20.297   7.267   6.938
 3214POPC   C4B41698  19.918   7.261   7.171
 3215POPC   NC341699  38.126   9.926   5.536
 3215POPC   PO441700  38.747   9.625   5.425
 3215POPC   GL141701  38.521   9.606   5.797
 3215POPC   GL241702  38.262   9.407   5.655
 3215POPC   C1A41703  38.722   9.747   6.189
 3215POPC   D2A41704  38.970   9.729   6.556
 3215POPC   C3A41705  38.759   9.648   6.962
 3215POPC   C4A41706  38.393   9.897   7.150
 3215POPC   C1B41707  38.151   9.310   6.078
 3215POPC   C2B41708  38.318   9.551   6.415
 3215POPC   C3B41709  38.274   9.523   6.827
 3215POPC   C4B41710  38.349   9.400   7.229
 3216POPC   NC341711  11.988  33.298   5.122
 3216POPC   PO441712  12.311  32.781   5.454
 3216POPC   GL141713  12.046  32.997   5.804
 3216POPC   GL241714  12.062  33.363   5.857
 3216POPC   C1A41715  12.084  32.871   6.215
 3216POPC   D2A41716  12.360  32.971   6.558
 3216POPC   C3A41717  12.138  32.858   6.910
 3216POPC   C4A41718  12.153  32.939   7.313
 3216POPC   C1B41719  12.096  33.364   6.259
 3216POPC   C2B41720  11.958  33.273   6.639
 3216POPC   C3B41721  12.206  33.365   6.996
 3216POPC   C4B41722  12.030  33.436   7.411
 3217POPC   NC341723  14.896  19.149   5.403
 3217POPC   PO441724  14.294  18.962   5.300
 3217POPC   GL141725  14.351  18.809   5.760
 3217POPC   GL241726  14.039  18.674   5.961
 3217POPC   C1A41727  14.439  19.028   6.156
 3217POPC   D2A41728  14.445  19.320   6.508
 3217POPC   C3A41729  14.624  19.160   6.874
 3217POPC   C4A41730  14.486  19.135   7.274
 3217POPC   C1B41731  14.340  18.517   6.222
 3217POPC   C2B41732  14.447  18.724   6.580
 3217POPC   C3B41733  14.222  18.839   6.903
 3217POPC   C4B41734  14.011  18.933   7.246
 3218POPC   NC341735   1.372  27.113   5.362
 3218POPC   PO441736   1.257  26.463   5.180
 3218POPC   GL141737   1.376  26.762   5.701
 3218POPC   GL241738   1.433  26.504   5.983
 3218POPC   C1A41739   1.368  26.963   6.156
 3218POPC   D2A41740   1.497  26.774   6.576
 3218POPC   C3A41741   1.345  27.003   6.942
 3218POPC   C4A41742   1.356  27.225   7.317
 3218POPC   C1B41743   1.101  26.520   6.324
 3218POPC   C2B41744   0.935  26.437   6.743
 3218POPC   C3B41745   1.164  26.539   7.096
 3218POPC   C4B41746   0.916  26.585   7.462
 3219POPC   NC341747   7.448  44.988   5.501
 3219POPC   PO441748   7.349  44.315   5.524
 3219POPC   GL141749   7.297  44.606   5.878
 3219POPC   GL241750   7.206  44.961   5.944
 3219POPC   C1A41751   7.509  44.724   6.282
 3219POPC   D2A41752   7.537  44.767   6.748
 3219POPC   C3A41753   7.396  44.465   7.061
 3219POPC   C4A41754   7.731  44.382   7.320
 3219POPC   C1B41755   7.165   0.126   6.384
 3219POPC   C2B41756   7.172   0.096   6.847
 3219POPC   C3B41757   7.408   0.029   7.230
 3219POPC   C4B41758   7.328   0.224   7.665
 3220POPC   NC341759  24.712   0.827   5.643
 3220POPC   PO441760  25.006   0.354   5.239
 3220POPC   GL141761  25.289   0.501   5.744
 3220POPC   GL241762  25.034   0.678   6.021
 3220POPC   C1A41763  25.473   0.605   6.217
 3220POPC   D2A41764  25.623   0.488   6.692
 3220POPC   C3A41765  25.359   0.557   7.105
 3220POPC   C4A41766  24.884   0.643   7.240
 3220POPC   C1B41767  25.060   0.302   6.308
 3220POPC   C2B41768  25.166   0.248   6.724
 3220POPC   C3B41769  24.989   0.176   7.089
 3220POPC   C4B41770  24.936  44.936   7.430
 3221POPC   NC341771   7.755  44.184   5.340
 3221POPC   PO441772   7.385  43.619   5.266
 3221POPC   GL141773   7.259  43.774   5.696
 3221POPC   GL241774   7.579  43.901   5.774
 3221POPC   C1A41775   7.250  43.765   6.184
 3221POPC   D2A41776   7.267  43.659   6.660
 3221POPC   C3A41777   7.040  43.606   7.099
 3221POPC   C4A41778   7.084  43.546   7.624
 3221POPC   C1B41779   7.637  44.213   6.102
 3221POPC   C2B41780   7.647  44.289   6.531
 3221POPC   C3B41781   7.742  44.105   6.898
 3221POPC   C4B41782   7.510  43.877   7.210
 3222POPC   NC341783  13.441  17.042   5.317
 3222POPC   PO441784  13.780  16.426   5.496
 3222POPC   GL141785  13.825  16.603   5.906
 3222POPC   GL241786  13.491  16.610   6.012
 3222POPC   C1A41787  13.872  16.593   6.355
 3222POPC   D2A41788  14.073  16.500   6.705
 3222POPC   C3A41789  13.884  16.692   7.013
 3222POPC   C4A41790  13.766  16.646   7.415
 3222POPC   C1B41791  13.369  16.708   6.447
 3222POPC   C2B41792  13.366  16.777   6.909
 3222POPC   C3B41793  13.368  16.926   7.342
 3222POPC   C4B41794  13.752  17.108   7.618
 3223POPC   NC341795  16.947  36.818   5.419
 3223POPC   PO441796  16.443  37.231   5.365
 3223POPC   GL141797  16.660  37.162   5.757
 3223POPC   GL241798  17.042  37.227   5.735
 3223POPC   C1A41799  16.538  37.064   6.203
 3223POPC   D2A41800  16.644  36.816   6.575
 3223POPC   C3A41801  16.496  37.047   6.925
 3223POPC   C4A41802  16.681  37.239   7.262
 3223POPC   C1B41803  17.025  36.916   6.096
 3223POPC   C2B41804  17.175  36.863   6.546
 3223POPC   C3B41805  17.001  36.885   6.980
 3223POPC   C4B41806  16.925  36.597   7.318
 3224POPC   NC341807   8.518  42.737   5.510
 3224POPC   PO441808   9.192  42.934   5.460
 3224POPC   GL141809   8.944  43.220   5.675
 3224POPC   GL241810   8.832  42.940   5.862
 3224POPC   C1A41811   8.913  43.357   6.121
 3224POPC   D2A41812   9.105  43.132   6.503
 3224POPC   C3A41813   9.135  43.339   6.916
 3224POPC   C4A41814   9.125  43.203   7.345
 3224POPC   C1B41815   8.763  42.687   6.218
 3224POPC   C2B41816   8.943  42.640   6.615
 3224POPC   C3B41817   9.010  42.800   7.045
 3224POPC   C4B41818   8.881  42.770   7.486
 3225POPC   NC341819  24.568  34.250   5.013
 3225POPC   PO441820  24.281  33.832   5.557
 3225POPC   GL141821  24.538  33.819   5.898
 3225POPC   GL241822  24.774  34.096   5.992
 3225POPC   C1A41823  24.411  33.925   6.294
 3225POPC   D2A41824  24.451  33.721   6.645
 3225POPC   C3A41825  24.208  33.727   6.998
 3225POPC   C4A41826  24.221  34.095   7.267
 3225POPC   C1B41827  24.918  33.787   6.351
 3225POPC   C2B41828  24.915  33.738   6.813
 3225POPC   C3B41829  24.672  33.931   7.095
 3225POPC   C4B41830  24.738  33.974   7.547
 3226POPC   NC341831  23.359  30.218   5.631
 3226POPC   PO441832  23.732  29.696   5.340
 3226POPC   GL141833  23.722  29.829   5.746
 3226POPC   GL241834  23.972  30.093   5.705
 3226POPC   C1A41835  23.633  29.919   6.172
 3226POPC   D2A41836  23.611  29.979   6.593
 3226POPC   C3A41837  23.734  29.672   6.864
 3226POPC   C4A41838  23.513  29.852   7.225
 3226POPC   C1B41839  24.089  30.206   6.107
 3226POPC   C2B41840  24.112  30.044   6.514
 3226POPC   C3B41841  24.002  30.134   6.946
 3226POPC   C4B41842  24.093  29.781   7.229
 3227POPC   NC341843  20.377  36.567   5.371
 3227POPC   PO441844  20.888  37.055   5.382
 3227POPC   GL141845  20.648  36.862   5.692
 3227POPC   GL241846  20.855  36.596   5.839
 3227POPC   C1A41847  20.422  37.015   6.072
 3227POPC   D2A41848  20.729  37.126   6.421
 3227POPC   C3A41849  20.766  37.076   6.886
 3227POPC   C4A41850  20.390  36.964   7.139
 3227POPC   C1B41851  20.678  36.632   6.259
 3227POPC   C2B41852  20.460  36.735   6.665
 3227POPC   C3B41853  20.710  36.580   7.031
 3227POPC   C4B41854  21.108  36.510   7.215
 3228POPC   NC341855  14.551  18.578   5.336
 3228POPC   PO441856  14.209  17.998   5.207
 3228POPC   GL141857  14.457  18.064   5.624
 3228POPC   GL241858  14.631  18.359   5.777
 3228POPC   C1A41859  14.423  18.028   6.092
 3228POPC   D2A41860  14.315  17.973   6.535
 3228POPC   C3A41861  14.277  18.301   6.826
 3228POPC   C4A41862  14.446  18.125   7.170
 3228POPC   C1B41863  14.836  18.470   6.177
 3228POPC   C2B41864  14.751  18.305   6.556
 3228POPC   C3B41865  14.784  18.524   6.933
 3228POPC   C4B41866  14.536  18.645   7.258
 3229POPC   NC341867  37.321  32.647   5.047
 3229POPC   PO441868  36.705  32.783   5.351
 3229POPC   GL141869  36.891  33.028   5.710
 3229POPC   GL241870  37.230  32.926   5.736
 3229POPC   C1A41871  37.021  33.210   6.155
 3229POPC   D2A41872  37.000  33.059   6.607
 3229POPC   C3A41873  36.706  33.285   6.909
 3229POPC   C4A41874  36.807  33.316   7.361
 3229POPC   C1B41875  37.015  32.706   6.122
 3229POPC   C2B41876  36.746  32.632   6.459
 3229POPC   C3B41877  36.766  32.598   6.887
 3229POPC   C4B41878  36.953  32.891   7.146
 3230POPC   NC341879  43.160   0.834   5.233
 3230POPC   PO441880  43.001   0.210   5.234
 3230POPC   GL141881  42.974   0.188   5.676
 3230POPC   GL241882  43.205   0.470   5.745
 3230POPC   C1A41883  42.742   0.262   6.075
 3230POPC   D2A41884  42.599   0.310   6.522
 3230POPC   C3A41885  42.949   0.244   6.858
 3230POPC   C4A41886  43.032   0.408   7.276
 3230POPC   C1B41887  43.358   0.536   6.189
 3230POPC   C2B41888  43.425   0.378   6.632
 3230POPC   C3B41889  43.467   0.570   7.049
 3230POPC   C4B41890  43.463   0.586   7.526
 3231POPC   NC341891  11.614  24.558   5.480
 3231POPC   PO441892  11.059  24.901   5.554
 3231POPC   GL141893  11.237  24.733   5.889
 3231POPC   GL241894  11.581  24.810   5.913
 3231POPC   C1A41895  11.310  24.363   6.147
 3231POPC   D2A41896  11.520  24.268   6.545
 3231POPC   C3A41897  11.300  24.350   6.938
 3231POPC   C4A41898  11.073  24.098   7.242
 3231POPC   C1B41899  11.507  24.802   6.331
 3231POPC   C2B41900  11.657  24.770   6.698
 3231POPC   C3B41901  11.573  24.738   7.116
 3231POPC   C4B41902  11.633  24.733   7.569
 3232POPC   NC341903  19.834  15.394   5.095
 3232POPC   PO441904  20.057  14.906   5.399
 3232POPC   GL141905  19.980  15.204   5.752
 3232POPC   GL241906  19.922  14.925   5.946
 3232POPC   C1A41907  19.896  15.376   6.199
 3232POPC   D2A41908  19.599  15.356   6.574
 3232POPC   C3A41909  19.724  15.288   7.011
 3232POPC   C4A41910  20.087  15.220   7.247
 3232POPC   C1B41911  20.180  14.973   6.319
 3232POPC   C2B41912  20.123  15.031   6.764
 3232POPC   C3B41913  20.013  14.738   7.120
 3232POPC   C4B41914  20.157  14.549   7.528
 3233POPC   NC341915  30.468  18.312   5.432
 3233POPC   PO441916  31.168  18.139   5.457
 3233POPC   GL141917  30.854  18.174   5.775
 3233POPC   GL241918  30.531  17.966   5.805
 3233POPC   C1A41919  30.876  18.117   6.220
 3233POPC   D2A41920  30.685  18.270   6.595
 3233POPC   C3A41921  30.896  18.180   6.958
 3233POPC   C4A41922  30.914  18.548   7.229
 3233POPC   C1B41923  30.353  18.156   6.188
 3233POPC   C2B41924  30.210  18.012   6.605
 3233POPC   C3B41925  30.408  18.042   7.020
 3233POPC   C4B41926  30.414  18.452   7.195
 3234POPC   NC341927  38.904  12.266   5.480
 3234POPC   PO441928  39.517  11.849   5.340
 3234POPC   GL141929  39.473  12.002   5.744
 3234POPC   GL241930  39.154  12.024   5.838
 3234POPC   C1A41931  39.569  11.831   6.170
 3234POPC   D2A41932  39.420  11.661   6.588
 3234POPC   C3A41933  39.518  11.783   7.015
 3234POPC   C4A41934  39.339  12.159   7.145
 3234POPC   C1B41935  39.203  12.170   6.262
 3234POPC   C2B41936  39.118  12.141   6.684
 3234POPC   C3B41937  38.956  12.446   6.975
 3234POPC   C4B41938  38.728  12.726   7.172
 3235POPC   NC341939  40.062  36.253   5.187
 3235POPC   PO441940  39.555  36.009   5.531
 3235POPC   GL141941  39.668  36.060   5.919
 3235POPC   GL241942  39.606  35.695   5.950
 3235POPC   C1A41943  40.017  36.042   6.240
 3235POPC   D2A41944  40.220  35.877   6.631
 3235POPC   C3A41945  40.203  36.159   6.993
 3235POPC   C4A41946  40.152  36.086   7.434
 3235POPC   C1B41947  39.564  35.874   6.371
 3235POPC   C2B41948  39.743  36.060   6.743
 3235POPC   C3B41949  39.717  35.956   7.179
 3235POPC   C4B41950  39.550  36.193   7.543
 3236POPC   NC341951   1.600  24.631   5.522
 3236POPC   PO441952   1.097  24.299   5.489
 3236POPC   GL141953   1.266  24.386   5.862
 3236POPC   GL241954   1.523  24.154   5.863
 3236POPC   C1A41955   1.247  24.697   6.201
 3236POPC   D2A41956   1.335  24.631   6.640
 3236POPC   C3A41957   1.039  24.480   6.944
 3236POPC   C4A41958   1.021  24.585   7.379
 3236POPC   C1B41959   1.578  24.283   6.294
 3236POPC   C2B41960   1.477  24.154   6.726
 3236POPC   C3B41961   1.484  24.319   7.145
 3236POPC   C4B41962   1.562  24.724   7.358
 3237POPC   NC341963  31.380  27.624   5.211
 3237POPC   PO441964  31.829  27.657   5.700
 3237POPC   GL141965  31.570  27.413   5.911
 3237POPC   GL241966  31.269  27.582   5.748
 3237POPC   C1A41967  31.637  27.467   6.370
 3237POPC   D2A41968  31.536  27.729   6.736
 3237POPC   C3A41969  31.650  27.592   7.160
 3237POPC   C4A41970  31.841  27.250   7.401
 3237POPC   C1B41971  31.158  27.528   6.190
 3237POPC   C2B41972  31.190  27.325   6.597
 3237POPC   C3B41973  31.145  27.530   7.024
 3237POPC   C4B41974  30.918  27.506   7.472
 3238POPC   NC341975  22.588  30.307   5.385
 3238POPC   PO441976  21.991  30.636   5.537
 3238POPC   GL141977  22.221  30.761   5.857
 3238POPC   GL241978  22.351  30.402   5.844
 3238POPC   C1A41979  22.045  30.787   6.262
 3238POPC   D2A41980  21.999  30.455   6.548
 3238POPC   C3A41981  22.117  30.578   6.976
 3238POPC   C4A41982  22.246  30.680   7.423
 3238POPC   C1B41983  22.455  30.446   6.266
 3238POPC   C2B41984  22.435  30.736   6.595
 3238POPC   C3B41985  22.575  30.779   6.997
 3238POPC   C4B41986  22.414  31.105   7.238
 3239POPC   NC341987  16.427  18.796   5.399
 3239POPC   PO441988  16.767  19.263   5.571
 3239POPC   GL141989  16.552  19.010   5.843
 3239POPC   GL241990  16.788  18.797   5.921
 3239POPC   C1A41991  16.419  18.893   6.247
 3239POPC   D2A41992  16.636  18.950   6.629
 3239POPC   C3A41993  16.426  18.993   7.017
 3239POPC   C4A41994  16.476  19.184   7.430
 3239POPC   C1B41995  16.973  19.075   6.220
 3239POPC   C2B41996  17.152  19.002   6.633
 3239POPC   C3B41997  16.958  18.769   6.998
 3239POPC   C4B41998  16.937  18.894   7.445
 3240POPC   NC341999  24.076   7.994   5.310
 3240POPC   PO442000  24.374   7.331   5.290
 3240POPC   GL142001  24.431   7.359   5.732
 3240POPC   GL242002  24.725   7.150   5.755
 3240POPC   C1A42003  24.258   7.517   6.132
 3240POPC   D2A42004  24.395   7.429   6.537
 3240POPC   C3A42005  24.240   7.446   6.948
 3240POPC   C4A42006  24.300   7.124   7.236
 3240POPC   C1B42007  24.778   7.367   6.161
 3240POPC   C2B42008  24.832   7.145   6.574
 3240POPC   C3B42009  24.730   7.220   6.971
 3240POPC   C4B42010  24.809   7.573   7.210
 3241POPC   NC342011  33.381  20.212   5.495
 3241POPC   PO442012  33.065  20.786   5.243
 3241POPC   GL142013  33.124  20.592   5.712
 3241POPC   GL242014  33.430  20.755   5.842
 3241POPC   C1A42015  33.064  20.293   6.117
 3241POPC   D2A42016  33.315  20.153   6.508
 3241POPC   C3A42017  33.283  20.339   6.932
 3241POPC   C4A42018  33.092  20.386   7.335
 3241POPC   C1B42019  33.110  20.793   6.191
 3241POPC   C2B42020  32.987  20.963   6.570
 3241POPC   C3B42021  33.113  21.041   6.962
 3241POPC   C4B42022  32.827  20.852   7.229
 3242POPC   NC342023  22.601  10.165   5.369
 3242POPC   PO442024  22.926   9.569   5.376
 3242POPC   GL142025  22.924   9.896   5.712
 3242POPC   GL242026  23.266  10.018   5.762
 3242POPC   C1A42027  22.833   9.937   6.180
 3242POPC   D2A42028  22.780   9.718   6.583
 3242POPC   C3A42029  22.593   9.940   6.927
 3242POPC   C4A42030  22.827  10.263   7.186
 3242POPC   C1B42031  23.330   9.803   6.123
 3242POPC   C2B42032  23.238   9.970   6.516
 3242POPC   C3B42033  23.116   9.894   6.920
 3242POPC   C4B42034  22.930   9.724   7.251
 3243POPC   NC342035  18.350  44.070   5.267
 3243POPC   PO442036  17.984  43.585   5.546
 3243POPC   GL142037  18.181  43.884   5.819
 3243POPC   GL242038  18.335  44.205   5.760
 3243POPC   C1A42039  18.214  43.752   6.233
 3243POPC   D2A42040  17.966  43.694   6.575
 3243POPC   C3A42041  18.234  43.721   6.919
 3243POPC   C4A42042  18.431  43.572   7.311
 3243POPC   C1B42043  18.342  44.274   6.198
 3243POPC   C2B42044  18.174  44.160   6.597
 3243POPC   C3B42045  18.083  44.321   6.986
 3243POPC   C4B42046  18.288  44.080   7.264
 3244POPC   NC342047  29.471  26.729   5.393
 3244POPC   PO442048  29.216  27.275   5.563
 3244POPC   GL142049  29.117  26.962   5.865
 3244POPC   GL242050  29.245  26.642   5.849
 3244POPC   C1A42051  28.824  26.792   6.149
 3244POPC   D2A42052  28.755  26.965   6.551
 3244POPC   C3A42053  29.066  26.968   6.846
 3244POPC   C4A42054  29.077  26.810   7.239
 3244POPC   C1B42055  29.189  26.431   6.249
 3244POPC   C2B42056  29.108  26.477   6.688
 3244POPC   C3B42057  29.326  26.396   7.069
 3244POPC   C4B42058  29.307  26.442   7.538
 3245POPC   NC342059  26.618   1.588   5.522
 3245POPC   PO442060  26.803   2.283   5.472
 3245POPC   GL142061  26.890   2.187   5.867
 3245POPC   GL242062  26.559   2.027   5.855
 3245POPC   C1A42063  26.763   2.248   6.285
 3245POPC   D2A42064  26.568   2.120   6.662
 3245POPC   C3A42065  26.836   2.255   6.986
 3245POPC   C4A42066  26.880   2.280   7.422
 3245POPC   C1B42067  26.574   1.756   6.227
 3245POPC   C2B42068  26.741   1.588   6.615
 3245POPC   C3B42069  26.719   1.746   7.020
 3245POPC   C4B42070  26.856   1.625   7.412
 3246POPC   NC342071   0.902  18.636   5.410
 3246POPC   PO442072   0.640  18.003   5.232
 3246POPC   GL142073   0.731  18.156   5.626
 3246POPC   GL242074   0.390  18.288   5.713
 3246POPC   C1A42075   0.766  18.204   6.075
 3246POPC   D2A42076   0.618  18.176   6.504
 3246POPC   C3A42077   0.498  18.399   6.879
 3246POPC   C4A42078   0.807  18.463   7.190
 3246POPC   C1B42079   0.236  18.122   6.117
 3246POPC   C2B42080   0.066  18.192   6.554
 3246POPC   C3B42081   0.062  18.101   7.006
 3246POPC   C4B42082   0.197  18.336   7.370
 3247POPC   NC342083  37.128  18.775   5.386
 3247POPC   PO442084  36.540  19.076   5.654
 3247POPC   GL142085  36.706  18.869   5.932
 3247POPC   GL242086  37.011  19.014   5.857
 3247POPC   C1A42087  36.786  18.956   6.370
 3247POPC   D2A42088  36.838  19.351   6.620
 3247POPC   C3A42089  36.766  19.320   7.071
 3247POPC   C4A42090  36.805  19.326   7.564
 3247POPC   C1B42091  37.167  18.686   6.113
 3247POPC   C2B42092  37.118  18.570   6.553
 3247POPC   C3B42093  37.101  18.872   6.899
 3247POPC   C4B42094  36.953  18.903   7.307
 3248POPC   NC342095  13.659   9.215   5.167
 3248POPC   PO442096  13.418   9.792   5.422
 3248POPC   GL142097  13.621   9.843   5.759
 3248POPC   GL242098  13.847   9.564   5.812
 3248POPC   C1A42099  13.391   9.895   6.150
 3248POPC   D2A42100  13.124   9.986   6.510
 3248POPC   C3A42101  13.328   9.771   6.856
 3248POPC   C4A42102  13.455   9.861   7.256
 3248POPC   C1B42103  13.914   9.857   6.158
 3248POPC   C2B42104  13.729   9.840   6.538
 3248POPC   C3B42105  13.852   9.854   6.929
 3248POPC   C4B42106  13.948   9.675   7.296
 3249POPC   NC342107  14.838  31.430   5.509
 3249POPC   PO442108  14.134  31.465   5.406
 3249POPC   GL142109  14.375  31.480   5.763
 3249POPC   GL242110  14.213  31.769   5.842
 3249POPC   C1A42111  14.682  31.503   6.147
 3249POPC   D2A42112  14.774  31.236   6.539
 3249POPC   C3A42113  14.590  31.295   6.951
 3249POPC   C4A42114  14.156  31.315   7.100
 3249POPC   C1B42115  14.184  31.650   6.235
 3249POPC   C2B42116  14.401  31.603   6.594
 3249POPC   C3B42117  14.361  31.776   6.997
 3249POPC   C4B42118  14.160  31.873   7.368
 3250POPC   NC342119  28.546  17.219   5.460
 3250POPC   PO442120  28.014  17.640   5.450
 3250POPC   GL142121  28.147  17.621   5.850
 3250POPC   GL242122  28.116  17.254   5.828
 3250POPC   C1A42123  28.448  17.772   6.195
 3250POPC   D2A42124  28.694  17.731   6.579
 3250POPC   C3A42125  28.421  17.759   6.949
 3250POPC   C4A42126  28.490  17.575   7.370
 3250POPC   C1B42127  28.304  17.280   6.199
 3250POPC   C2B42128  28.238  17.467   6.566
 3250POPC   C3B42129  28.319  17.263   6.949
 3250POPC   C4B42130  28.111  17.276   7.310
 3251POPC   NC342131  34.473   4.475   5.496
 3251POPC   PO442132  34.997   3.951   5.529
 3251POPC   GL142133  34.739   4.193   5.817
 3251POPC   GL242134  34.760   4.535   5.919
 3251POPC   C1A42135  34.371   4.174   6.093
 3251POPC   D2A42136  34.299   4.051   6.524
 3251POPC   C3A42137  34.496   4.235   6.880
 3251POPC   C4A42138  34.413   4.005   7.246
 3251POPC   C1B42139  34.382   4.686   6.147
 3251POPC   C2B42140  34.260   4.648   6.602
 3251POPC   C3B42141  34.316   4.762   7.054
 3251POPC   C4B42142  34.489   4.523   7.343
 3252POPC   NC342143   2.098  16.592   5.358
 3252POPC   PO442144   2.599  16.316   5.654
 3252POPC   GL142145   2.224  16.590   5.850
 3252POPC   GL242146   2.113  16.937   5.759
 3252POPC   C1A42147   1.966  16.646   6.212
 3252POPC   D2A42148   2.050  16.818   6.625
 3252POPC   C3A42149   1.998  16.542   6.982
 3252POPC   C4A42150   2.156  16.380   7.363
 3252POPC   C1B42151   1.837  17.132   6.118
 3252POPC   C2B42152   1.624  17.080   6.534
 3252POPC   C3B42153   1.625  16.930   6.960
 3252POPC   C4B42154   1.561  17.136   7.363
 3253POPC   NC342155   1.359  43.595   5.670
 3253POPC   PO442156   1.479  44.166   5.246
 3253POPC   GL142157   1.330  44.150   5.714
 3253POPC   GL242158   0.984  44.024   5.821
 3253POPC   C1A42159   1.399  44.060   6.186
 3253POPC   D2A42160   1.486  43.677   6.471
 3253POPC   C3A42161   1.389  43.701   6.932
 3253POPC   C4A42162   1.402  44.009   7.267
 3253POPC   C1B42163   0.893  43.986   6.287
 3253POPC   C2B42164   1.011  44.055   6.740
 3253POPC   C3B42165   0.885  43.929   7.156
 3253POPC   C4B42166   0.871  43.486   7.225
 3254POPC   NC342167   2.232   0.897   5.427
 3254POPC   PO442168   2.756   0.401   5.404
 3254POPC   GL142169   2.882   0.414   5.762
 3254POPC   GL242170   2.959   0.049   5.744
 3254POPC   C1A42171   2.729   0.620   6.096
 3254POPC   D2A42172   2.737   0.464   6.480
 3254POPC   C3A42173   2.634   0.689   6.841
 3254POPC   C4A42174   2.777   0.548   7.238
 3254POPC   C1B42175   2.741   0.078   6.116
 3254POPC   C2B42176   2.938  44.976   6.501
 3254POPC   C3B42177   2.856   0.160   6.862
 3254POPC   C4B42178   2.902   0.049   7.226
 3255POPC   NC342179   8.800  17.480   5.140
 3255POPC   PO442180   9.214  17.702   5.538
 3255POPC   GL142181   8.993  17.489   5.856
 3255POPC   GL242182   8.670  17.478   5.698
 3255POPC   C1A42183   8.972  17.472   6.314
 3255POPC   D2A42184   8.876  17.242   6.682
 3255POPC   C3A42185   9.003  17.423   7.067
 3255POPC   C4A42186   9.015  17.893   7.162
 3255POPC   C1B42187   8.576  17.735   6.104
 3255POPC   C2B42188   8.699  17.864   6.554
 3255POPC   C3B42189   8.580  17.693   6.971
 3255POPC   C4B42190   8.661  17.636   7.441
 3256POPC   NC342191   1.745  14.881   5.466
 3256POPC   PO442192   2.090  14.356   5.151
 3256POPC   GL142193   2.042  14.399   5.653
 3256POPC   GL242194   1.843  14.090   5.743
 3256POPC   C1A42195   2.025  14.448   6.138
 3256POPC   D2A42196   2.295  14.431   6.539
 3256POPC   C3A42197   2.128  14.618   6.888
 3256POPC   C4A42198   1.778  14.635   7.176
 3256POPC   C1B42199   1.895  13.969   6.178
 3256POPC   C2B42200   1.991  14.038   6.601
 3256POPC   C3B42201   1.910  14.152   7.027
 3256POPC   C4B42202   1.594  14.089   7.323
 3257POPC   NC342203  17.940  28.833   5.287
 3257POPC   PO442204  18.250  29.374   5.496
 3257POPC   GL142205  18.139  29.060   5.778
 3257POPC   GL242206  18.470  28.893   5.735
 3257POPC   C1A42207  17.955  29.088   6.235
 3257POPC   D2A42208  17.947  29.466   6.556
 3257POPC   C3A42209  17.950  29.416   7.021
 3257POPC   C4A42210  18.267  29.407   7.350
 3257POPC   C1B42211  18.454  29.170   6.153
 3257POPC   C2B42212  18.391  29.200   6.621
 3257POPC   C3B42213  18.239  28.986   7.008
 3257POPC   C4B42214  18.450  28.920   7.404
 3258POPC   NC342215  13.240  24.387   5.342
 3258POPC   PO442216  13.808  24.737   5.235
 3258POPC   GL142217  13.754  24.605   5.701
 3258POPC   GL242218  13.677  24.240   5.723
 3258POPC   C1A42219  13.909  24.511   6.144
 3258POPC   D2A42220  13.994  24.610   6.596
 3258POPC   C3A42221  13.770  24.458   6.942
 3258POPC   C4A42222  13.607  24.709   7.267
 3258POPC   C1B42223  13.417  24.355   6.121
 3258POPC   C2B42224  13.395  24.549   6.582
 3258POPC   C3B42225  13.267  24.396   7.049
 3258POPC   C4B42226  13.409  24.307   7.506
 3259POPC   NC342227  22.339  18.718   5.462
 3259POPC   PO442228  21.867  19.111   5.562
 3259POPC   GL142229  22.172  19.013   5.871
 3259POPC   GL242230  22.507  19.116   5.771
 3259POPC   C1A42231  22.292  19.241   6.243
 3259POPC   D2A42232  22.109  19.248   6.657
 3259POPC   C3A42233  22.278  19.336   7.070
 3259POPC   C4A42234  21.987  19.258   7.394
 3259POPC   C1B42235  22.592  18.846   6.129
 3259POPC   C2B42236  22.386  18.769   6.505
 3259POPC   C3B42237  22.471  18.876   6.929
 3259POPC   C4B42238  22.370  18.859   7.344
 3260POPC   NC342239  27.004   0.950   5.373
 3260POPC   PO442240  26.349   1.188   5.490
 3260POPC   GL142241  26.569   1.057   5.834
 3260POPC   GL242242  26.908   1.115   5.857
 3260POPC   C1A42243  26.598   1.213   6.263
 3260POPC   D2A42244  26.321   1.223   6.623
 3260POPC   C3A42245  26.540   1.250   7.016
 3260POPC   C4A42246  26.594   0.950   7.331
 3260POPC   C1B42247  27.144   1.151   6.251
 3260POPC   C2B42248  27.267   1.406   6.619
 3260POPC   C3B42249  27.160   1.448   7.035
 3260POPC   C4B42250  27.045   1.169   7.362
 3261POPC   NC342251  36.657  20.238   5.473
 3261POPC   PO442252  37.043  20.669   5.104
 3261POPC   GL142253  37.045  20.642   5.594
 3261POPC   GL242254  36.877  20.923   5.750
 3261POPC   C1A42255  37.026  20.477   6.046
 3261POPC   D2A42256  37.095  20.570   6.491
 3261POPC   C3A42257  37.014  20.259   6.790
 3261POPC   C4A42258  37.093  20.217   7.217
 3261POPC   C1B42259  37.036  20.975   6.171
 3261POPC   C2B42260  37.220  21.065   6.580
 3261POPC   C3B42261  37.055  21.013   7.004
 3261POPC   C4B42262  37.027  20.722   7.349
 3262POPC   NC342263  39.059  13.192   5.474
 3262POPC   PO442264  39.325  12.494   5.496
 3262POPC   GL142265  39.314  12.510   5.891
 3262POPC   GL242266  39.243  12.863   5.886
 3262POPC   C1A42267  39.477  12.607   6.269
 3262POPC   D2A42268  39.177  12.658   6.539
 3262POPC   C3A42269  39.426  12.560   6.835
 3262POPC   C4A42270  39.402  12.650   7.240
 3262POPC   C1B42271  39.391  13.120   6.238
 3262POPC   C2B42272  39.453  13.087   6.670
 3262POPC   C3B42273  39.131  12.975   6.964
 3262POPC   C4B42274  39.203  13.086   7.384
 3263POPC   NC342275  10.752  10.451   5.608
 3263POPC   PO442276  10.138  10.707   5.407
 3263POPC   GL142277  10.273  10.491   5.807
 3263POPC   GL242278  10.357  10.117   5.821
 3263POPC   C1A42279  10.522  10.612   6.188
 3263POPC   D2A42280  10.467  10.468   6.598
 3263POPC   C3A42281  10.420  10.734   6.965
 3263POPC   C4A42282  10.743  10.720   7.294
 3263POPC   C1B42283  10.575  10.103   6.239
 3263POPC   C2B42284  10.872  10.143   6.587
 3263POPC   C3B42285  10.761  10.318   6.985
 3263POPC   C4B42286  10.368  10.308   7.221
 3264POPC   NC342287  14.357  10.740   5.526
 3264POPC   PO442288  13.907  10.311   5.546
 3264POPC   GL142289  14.211  10.190   5.874
 3264POPC   GL242290  14.456  10.441   5.932
 3264POPC   C1A42291  14.285  10.171   6.328
 3264POPC   D2A42292  13.983  10.319   6.634
 3264POPC   C3A42293  14.078  10.304   7.048
 3264POPC   C4A42294  14.434  10.392   7.238
 3264POPC   C1B42295  14.507  10.706   6.273
 3264POPC   C2B42296  14.455  10.588   6.706
 3264POPC   C3B42297  14.721  10.740   7.013
 3264POPC   C4B42298  14.910  10.509   7.342
 3265POPC   NC342299   3.974  44.800   5.384
 3265POPC   PO442300   3.350  44.380   5.471
 3265POPC   GL142301   3.306  44.625   5.827
 3265POPC   GL242302   3.471  44.933   5.718
 3265POPC   C1A42303   3.540  44.521   6.179
 3265POPC   D2A42304   3.697  44.406   6.565
 3265POPC   C3A42305   3.506  44.564   6.923
 3265POPC   C4A42306   3.534  44.543   7.358
 3265POPC   C1B42307   3.673   0.006   6.125
 3265POPC   C2B42308   3.444  44.907   6.517
 3265POPC   C3B42309   3.367   0.052   6.941
 3265POPC   C4B42310   3.756  44.989   7.178
 3266POPC   NC342311   6.714  33.409   5.690
 3266POPC   PO442312   6.229  33.815   5.418
 3266POPC   GL142313   6.479  33.905   5.792
 3266POPC   GL242314   6.857  33.953   5.772
 3266POPC   C1A42315   6.630  33.813   6.213
 3266POPC   D2A42316   6.843  33.640   6.541
 3266POPC   C3A42317   6.640  33.759   6.906
 3266POPC   C4A42318   6.473  33.806   7.310
 3266POPC   C1B42319   7.024  34.117   6.198
 3266POPC   C2B42320   6.956  34.136   6.685
 3266POPC   C3B42321   6.781  34.221   7.108
 3266POPC   C4B42322   6.759  34.158   7.581
 3267POPC   NC342323  27.882  33.362   4.955
 3267POPC   PO442324  27.418  33.008   5.249
 3267POPC   GL142325  27.463  32.915   5.745
 3267POPC   GL242326  27.676  32.678   5.944
 3267POPC   C1A42327  27.629  33.117   6.161
 3267POPC   D2A42328  27.719  32.923   6.542
 3267POPC   C3A42329  27.669  33.124   6.923
 3267POPC   C4A42330  27.802  32.895   7.273
 3267POPC   C1B42331  27.272  32.739   6.194
 3267POPC   C2B42332  27.192  32.838   6.633
 3267POPC   C3B42333  27.325  32.783   7.074
 3267POPC   C4B42334  27.408  32.791   7.588
 3268POPC   NC342335  37.035  32.481   5.505
 3268POPC   PO442336  36.948  31.843   5.590
 3268POPC   GL142337  36.876  32.140   5.881
 3268POPC   GL242338  37.200  32.276   5.922
 3268POPC   C1A42339  36.844  32.155   6.309
 3268POPC   D2A42340  36.941  32.140   6.734
 3268POPC   C3A42341  36.623  32.082   7.064
 3268POPC   C4A42342  36.682  32.017   7.539
 3268POPC   C1B42343  37.337  32.351   6.320
 3268POPC   C2B42344  37.221  32.567   6.643
 3268POPC   C3B42345  37.247  32.500   7.045
 3268POPC   C4B42346  37.063  32.194   7.260
 3269POPC   NC342347   1.587  41.414   5.398
 3269POPC   PO442348   0.980  41.788   5.400
 3269POPC   GL142349   1.141  41.641   5.857
 3269POPC   GL242350   1.444  41.462   5.872
 3269POPC   C1A42351   1.297  41.589   6.338
 3269POPC   D2A42352   1.244  41.882   6.637
 3269POPC   C3A42353   1.481  41.903   6.987
 3269POPC   C4A42354   1.274  41.780   7.338
 3269POPC   C1B42355   1.552  41.161   6.160
 3269POPC   C2B42356   1.432  41.098   6.558
 3269POPC   C3B42357   1.423  41.400   6.893
 3269POPC   C4B42358   1.556  41.361   7.312
 3270POPC   NC342359  16.375  30.849   5.512
 3270POPC   PO442360  15.853  30.376   5.391
 3270POPC   GL142361  15.841  30.562   5.807
 3270POPC   GL242362  15.812  30.938   5.768
 3270POPC   C1A42363  15.808  30.420   6.244
 3270POPC   D2A42364  15.822  30.219   6.661
 3270POPC   C3A42365  15.846  30.411   7.044
 3270POPC   C4A42366  15.860  30.617   7.424
 3270POPC   C1B42367  16.017  30.903   6.173
 3270POPC   C2B42368  16.094  30.707   6.570
 3270POPC   C3B42369  16.016  30.881   6.945
 3270POPC   C4B42370  16.116  31.072   7.307
 3271POPC   NC342371   5.490  35.311   5.396
 3271POPC   PO442372   6.142  35.575   5.492
 3271POPC   GL142373   5.907  35.293   5.743
 3271POPC   GL242374   5.599  35.489   5.837
 3271POPC   C1A42375   5.831  35.188   6.193
 3271POPC   D2A42376   5.930  35.144   6.631
 3271POPC   C3A42377   6.122  35.470   6.887
 3271POPC   C4A42378   6.035  35.284   7.286
 3271POPC   C1B42379   5.593  35.700   6.185
 3271POPC   C2B42380   5.673  35.575   6.595
 3271POPC   C3B42381   5.602  35.455   7.011
 3271POPC   C4B42382   5.603  35.484   7.451
 3272POPC   NC342383   7.449   9.566   5.466
 3272POPC   PO442384   7.050   9.985   5.228
 3272POPC   GL142385   7.161   9.992   5.720
 3272POPC   GL242386   7.288   9.677   5.930
 3272POPC   C1A42387   7.364  10.114   6.154
 3272POPC   D2A42388   7.567   9.878   6.523
 3272POPC   C3A42389   7.421   9.922   6.951
 3272POPC   C4A42390   7.470   9.807   7.399
 3272POPC   C1B42391   7.221   9.495   6.360
 3272POPC   C2B42392   7.300   9.441   6.781
 3272POPC   C3B42393   7.640   9.464   7.034
 3272POPC   C4B42394   7.756   9.407   7.478
 3273POPC   NC342395  28.688  34.825   5.452
 3273POPC   PO442396  28.345  34.231   5.350
 3273POPC   GL142397  28.284  34.535   5.662
 3273POPC   GL242398  27.981  34.743   5.574
 3273POPC   C1A42399  28.534  34.621   6.080
 3273POPC   D2A42400  28.759  34.468   6.455
 3273POPC   C3A42401  28.685  34.629   6.870
 3273POPC   C4A42402  28.495  34.487   7.258
 3273POPC   C1B42403  28.107  34.884   5.989
 3273POPC   C2B42404  28.122  34.708   6.415
 3273POPC   C3B42405  28.174  34.695   6.867
 3273POPC   C4B42406  28.262  34.960   7.238
 3274POPC   NC342407  21.356  33.327   5.505
 3274POPC   PO442408  21.107  32.780   5.204
 3274POPC   GL142409  21.091  32.967   5.700
 3274POPC   GL242410  20.901  33.256   5.710
 3274POPC   C1A42411  21.171  32.790   6.164
 3274POPC   D2A42412  21.097  32.973   6.572
 3274POPC   C3A42413  21.367  32.941   6.933
 3274POPC   C4A42414  21.592  33.240   7.202
 3274POPC   C1B42415  20.884  33.220   6.140
 3274POPC   C2B42416  20.959  33.478   6.500
 3274POPC   C3B42417  21.119  33.417   6.881
 3274POPC   C4B42418  21.025  33.200   7.237
 3275POPC   NC342419  27.216  14.495   5.180
 3275POPC   PO442420  26.668  14.368   5.416
 3275POPC   GL142421  26.995  14.508   5.676
 3275POPC   GL242422  27.109  14.216   5.834
 3275POPC   C1A42423  26.960  14.619   6.119
 3275POPC   D2A42424  27.125  14.595   6.533
 3275POPC   C3A42425  26.788  14.434   6.779
 3275POPC   C4A42426  26.684  14.539   7.196
 3275POPC   C1B42427  26.785  14.137   6.189
 3275POPC   C2B42428  26.590  13.998   6.601
 3275POPC   C3B42429  26.691  13.998   7.068
 3275POPC   C4B42430  26.550  14.090   7.497
 3276POPC   NC342431   6.208  34.361   5.551
 3276POPC   PO442432   6.736  34.772   5.503
 3276POPC   GL142433   6.451  34.745   5.844
 3276POPC   GL242434   6.588  34.404   5.900
 3276POPC   C1A42435   6.499  34.732   6.302
 3276POPC   D2A42436   6.593  34.472   6.655
 3276POPC   C3A42437   6.521  34.648   7.054
 3276POPC   C4A42438   6.783  34.656   7.420
 3276POPC   C1B42439   6.297  34.242   6.201
 3276POPC   C2B42440   6.336  34.028   6.587
 3276POPC   C3B42441   6.282  34.172   6.990
 3276POPC   C4B42442   6.326  34.331   7.407
 3277POPC   NC342443  16.755  35.073   5.429
 3277POPC   PO442444  16.870  35.714   5.214
 3277POPC   GL142445  16.774  35.591   5.654
 3277POPC   GL242446  16.997  35.419   5.850
 3277POPC   C1A42447  16.683  35.699   6.118
 3277POPC   D2A42448  16.514  35.499   6.508
 3277POPC   C3A42449  16.637  35.608   6.923
 3277POPC   C4A42450  16.525  35.423   7.335
 3277POPC   C1B42451  16.906  35.201   6.232
 3277POPC   C2B42452  16.994  35.327   6.640
 3277POPC   C3B42453  16.923  35.221   7.048
 3277POPC   C4B42454  17.027  35.585   7.339
 3278POPC   NC342455  25.826   3.192   5.392
 3278POPC   PO442456  26.221   3.666   5.063
 3278POPC   GL142457  26.148   3.552   5.552
 3278POPC   GL242458  25.773   3.621   5.657
 3278POPC   C1A42459  26.248   3.490   6.032
 3278POPC   D2A42460  26.480   3.586   6.443
 3278POPC   C3A42461  26.266   3.487   6.831
 3278POPC   C4A42462  26.132   3.363   7.257
 3278POPC   C1B42463  25.863   3.844   6.032
 3278POPC   C2B42464  25.975   3.680   6.439
 3278POPC   C3B42465  25.826   3.739   6.856
 3278POPC   C4B42466  25.953   3.844   7.271
 3279POPC   NC342467  25.106  29.486   5.377
 3279POPC   PO442468  25.470  30.103   5.473
 3279POPC   GL142469  25.195  29.962   5.808
 3279POPC   GL242470  25.360  29.642   5.813
 3279POPC   C1A42471  25.062  29.811   6.246
 3279POPC   D2A42472  24.867  29.640   6.660
 3279POPC   C3A42473  25.084  29.834   6.997
 3279POPC   C4A42474  25.406  30.158   7.140
 3279POPC   C1B42475  25.589  29.841   6.143
 3279POPC   C2B42476  25.522  29.954   6.555
 3279POPC   C3B42477  25.596  29.749   6.910
 3279POPC   C4B42478  25.464  29.682   7.309
 3280POPC   NC342479   7.341  41.137   5.322
 3280POPC   PO442480   7.667  41.785   5.505
 3280POPC   GL142481   7.480  41.440   5.707
 3280POPC   GL242482   7.146  41.530   5.720
 3280POPC   C1A42483   7.370  41.314   6.127
 3280POPC   D2A42484   7.518  41.544   6.490
 3280POPC   C3A42485   7.415  41.340   6.853
 3280POPC   C4A42486   7.598  41.438   7.210
 3280POPC   C1B42487   7.067  41.752   6.152
 3280POPC   C2B42488   7.137  41.905   6.596
 3280POPC   C3B42489   7.213  41.830   7.035
 3280POPC   C4B42490   7.528  41.917   7.338
 3281POPC   NC342491   1.951   1.594   5.417
 3281POPC   PO442492   1.707   0.965   5.450
 3281POPC   GL142493   1.921   1.090   5.818
 3281POPC   GL242494   2.015   1.420   5.880
 3281POPC   C1A42495   2.067   1.089   6.258
 3281POPC   D2A42496   1.929   0.946   6.645
 3281POPC   C3A42497   2.074   0.943   7.041
 3281POPC   C4A42498   1.944   0.991   7.481
 3281POPC   C1B42499   2.205   1.577   6.276
 3281POPC   C2B42500   2.238   1.591   6.726
 3281POPC   C3B42501   2.272   1.386   7.119
 3281POPC   C4B42502   2.289   1.354   7.584
 3282POPC   NC342503  35.658  30.916   5.569
 3282POPC   PO442504  35.188  30.473   5.335
 3282POPC   GL142505  35.232  30.552   5.762
 3282POPC   GL242506  35.560  30.511   5.894
 3282POPC   C1A42507  35.110  30.497   6.194
 3282POPC   D2A42508  35.072  30.827   6.478
 3282POPC   C3A42509  35.200  30.845   6.881
 3282POPC   C4A42510  34.987  30.973   7.260
 3282POPC   C1B42511  35.547  30.781   6.243
 3282POPC   C2B42512  35.748  30.870   6.625
 3282POPC   C3B42513  35.726  30.911   7.040
 3282POPC   C4B42514  35.448  30.687   7.283
 3283POPC   NC342515  19.610  31.092   5.282
 3283POPC   PO442516  20.042  30.533   5.408
 3283POPC   GL142517  19.852  30.535   5.818
 3283POPC   GL242518  19.677  30.844   5.785
 3283POPC   C1A42519  19.967  30.620   6.283
 3283POPC   D2A42520  19.759  30.527   6.716
 3283POPC   C3A42521  19.994  30.615   7.140
 3283POPC   C4A42522  20.260  30.398   7.489
 3283POPC   C1B42523  19.495  30.774   6.214
 3283POPC   C2B42524  19.320  30.812   6.624
 3283POPC   C3B42525  19.354  30.665   7.035
 3283POPC   C4B42526  19.545  30.732   7.435
 3284POPC   NC342527  32.273  31.105   5.513
 3284POPC   PO442528  32.138  31.800   5.385
 3284POPC   GL142529  32.274  31.645   5.766
 3284POPC   GL242530  31.953  31.485   5.790
 3284POPC   C1A42531  32.427  31.559   6.199
 3284POPC   D2A42532  32.284  31.662   6.632
 3284POPC   C3A42533  32.501  31.542   7.043
 3284POPC   C4A42534  32.478  31.256   7.436
 3284POPC   C1B42535  31.952  31.350   6.211
 3284POPC   C2B42536  31.790  31.464   6.611
 3284POPC   C3B42537  31.961  31.506   7.024
 3284POPC   C4B42538  31.960  31.236   7.429
 3285POPC   NC342539  22.690  44.166   5.361
 3285POPC   PO442540  23.031  43.643   5.488
 3285POPC   GL142541  22.876  43.902   5.770
 3285POPC   GL242542  22.550  43.769   5.668
 3285POPC   C1A42543  23.026  44.031   6.169
 3285POPC   D2A42544  23.162  43.890   6.560
 3285POPC   C3A42545  23.115  44.021   6.979
 3285POPC   C4A42546  23.218  43.728   7.287
 3285POPC   C1B42547  22.528  43.896   6.122
 3285POPC   C2B42548  22.648  43.855   6.531
 3285POPC   C3B42549  22.456  43.769   6.912
 3285POPC   C4B42550  22.687  43.715   7.310
 3286POPC   NC342551  38.301  33.977   5.496
 3286POPC   PO442552  38.772  33.613   5.506
 3286POPC   GL142553  38.535  33.729   5.877
 3286POPC   GL242554  38.202  33.581   5.849
 3286POPC   C1A42555  38.468  34.108   6.151
 3286POPC   D2A42556  38.700  34.216   6.526
 3286POPC   C3A42557  38.518  34.008   6.869
 3286POPC   C4A42558  38.447  33.793   7.239
 3286POPC   C1B42559  38.381  33.398   6.245
 3286POPC   C2B42560  38.473  33.370   6.696
 3286POPC   C3B42561  38.120  33.427   6.996
 3286POPC   C4B42562  38.078  33.512   7.455
 3287POPC   NC342563  22.112  12.463   5.558
 3287POPC   PO442564  22.215  13.074   5.239
 3287POPC   GL142565  22.205  12.998   5.663
 3287POPC   GL242566  21.877  13.056   5.682
 3287POPC   C1A42567  22.330  12.909   6.098
 3287POPC   D2A42568  22.209  12.754   6.519
 3287POPC   C3A42569  22.377  12.983   6.882
 3287POPC   C4A42570  22.368  12.892   7.311
 3287POPC   C1B42571  21.823  12.874   6.120
 3287POPC   C2B42572  21.697  12.765   6.553
 3287POPC   C3B42573  21.923  12.754   6.952
 3287POPC   C4B42574  21.935  13.121   7.243
 3288POPC   NC342575   5.037  42.715   5.610
 3288POPC   PO442576   5.094  42.077   5.354
 3288POPC   GL142577   5.121  42.221   5.790
 3288POPC   GL242578   4.765  42.276   5.871
 3288POPC   C1A42579   5.054  42.219   6.267
 3288POPC   D2A42580   4.685  42.181   6.544
 3288POPC   C3A42581   4.815  42.066   6.953
 3288POPC   C4A42582   5.190  42.066   7.197
 3288POPC   C1B42583   4.711  42.598   6.252
 3288POPC   C2B42584   4.947  42.628   6.689
 3288POPC   C3B42585   5.004  42.542   7.167
 3288POPC   C4B42586   4.776  42.676   7.571
 3289POPC   NC342587  39.359   7.121   5.412
 3289POPC   PO442588  39.187   7.772   5.434
 3289POPC   GL142589  39.400   7.563   5.765
 3289POPC   GL242590  39.151   7.330   5.830
 3289POPC   C1A42591  39.459   7.445   6.209
 3289POPC   D2A42592  39.203   7.400   6.581
 3289POPC   C3A42593  39.471   7.467   6.936
 3289POPC   C4A42594  39.409   7.481   7.359
 3289POPC   C1B42595  38.953   7.605   6.166
 3289POPC   C2B42596  38.700   7.622   6.584
 3289POPC   C3B42597  38.646   7.697   7.028
 3289POPC   C4B42598  38.914   7.489   7.363
 3290POPC   NC342599  19.601   2.541   5.566
 3290POPC   PO442600  20.260   2.671   5.363
 3290POPC   GL142601  20.051   2.736   5.790
 3290POPC   GL242602  19.766   2.954   5.832
 3290POPC   C1A42603  19.957   2.565   6.242
 3290POPC   D2A42604  19.952   2.814   6.637
 3290POPC   C3A42605  19.847   2.683   7.066
 3290POPC   C4A42606  20.070   2.344   7.280
 3290POPC   C1B42607  19.510   2.809   6.189
 3290POPC   C2B42608  19.448   2.937   6.599
 3290POPC   C3B42609  19.532   3.115   7.015
 3290POPC   C4B42610  19.813   3.125   7.394
 3291POPC   NC342611  23.880  16.059   5.525
 3291POPC   PO442612  23.244  16.282   5.745
 3291POPC   GL142613  23.599  16.092   5.942
 3291POPC   GL242614  23.689  15.726   5.879
 3291POPC   C1A42615  23.898  16.105   6.261
 3291POPC   D2A42616  23.708  15.951   6.612
 3291POPC   C3A42617  23.796  16.188   6.940
 3291POPC   C4A42618  23.556  16.122   7.280
 3291POPC   C1B42619  24.041  15.631   6.183
 3291POPC   C2B42620  24.115  15.675   6.677
 3291POPC   C3B42621  23.817  15.646   7.074
 3291POPC   C4B42622  23.822  15.777   7.525
 3292POPC   NC342623  42.145  33.755   5.301
 3292POPC   PO442624  42.667  33.517   5.666
 3292POPC   GL142625  42.437  33.895   5.851
 3292POPC   GL242626  42.098  34.053   5.803
 3292POPC   C1A42627  42.568  33.858   6.294
 3292POPC   D2A42628  42.505  33.482   6.590
 3292POPC   C3A42629  42.339  33.570   6.998
 3292POPC   C4A42630  42.229  33.482   7.421
 3292POPC   C1B42631  42.049  33.871   6.214
 3292POPC   C2B42632  42.205  33.927   6.635
 3292POPC   C3B42633  42.020  33.980   7.021
 3292POPC   C4B42634  42.140  34.370   7.195
 3293POPC   NC342635   5.243   1.847   5.424
 3293POPC   PO442636   4.580   1.896   5.391
 3293POPC   GL142637   4.836   1.891   5.757
 3293POPC   GL242638   5.021   2.228   5.700
 3293POPC   C1A42639   4.972   1.672   6.161
 3293POPC   D2A42640   5.192   1.925   6.500
 3293POPC   C3A42641   5.068   2.012   6.948
 3293POPC   C4A42642   5.018   1.693   7.271
 3293POPC   C1B42643   5.221   2.318   6.126
 3293POPC   C2B42644   5.164   2.418   6.584
 3293POPC   C3B42645   5.277   2.483   7.003
 3293POPC   C4B42646   5.236   2.370   7.424
 3294POPC   NC342647  16.279  22.606   5.424
 3294POPC   PO442648  15.890  22.017   5.469
 3294POPC   GL142649  15.904  22.247   5.878
 3294POPC   GL242650  15.580  22.388   6.009
 3294POPC   C1A42651  16.067  22.340   6.318
 3294POPC   D2A42652  16.310  22.106   6.622
 3294POPC   C3A42653  16.258  22.293   7.017
 3294POPC   C4A42654  15.917  22.323   7.227
 3294POPC   C1B42655  15.677  22.020   6.285
 3294POPC   C2B42656  15.735  22.145   6.728
 3294POPC   C3B42657  15.596  21.959   7.097
 3294POPC   C4B42658  15.820  21.732   7.417
 3295POPC   NC342659  21.498   7.393   5.296
 3295POPC   PO442660  20.892   7.353   5.150
 3295POPC   GL142661  21.173   7.280   5.650
 3295POPC   GL242662  21.503   7.079   5.718
 3295POPC   C1A42663  21.261   7.399   6.119
 3295POPC   D2A42664  21.529   7.666   6.442
 3295POPC   C3A42665  21.529   7.590   6.914
 3295POPC   C4A42666  21.334   7.229   7.102
 3295POPC   C1B42667  21.725   7.177   6.138
 3295POPC   C2B42668  21.569   7.141   6.569
 3295POPC   C3B42669  21.795   7.058   6.955
 3295POPC   C4B42670  21.842   7.331   7.293
 3296POPC   NC342671  38.852  44.664   5.571
 3296POPC   PO442672  39.519  44.776   5.466
 3296POPC   GL142673  39.308  44.720   5.808
 3296POPC   GL242674  39.184  44.383   5.873
 3296POPC   C1A42675  39.432  44.834   6.200
 3296POPC   D2A42676  39.597  44.844   6.599
 3296POPC   C3A42677  39.347  44.584   6.841
 3296POPC   C4A42678  39.400  44.421   7.231
 3296POPC   C1B42679  38.934  44.632   6.193
 3296POPC   C2B42680  38.768  44.620   6.598
 3296POPC   C3B42681  38.901  44.795   6.984
 3296POPC   C4B42682  39.019  44.790   7.414
 3297POPC   NC342683  34.983  42.129   5.345
 3297POPC   PO442684  35.317  42.640   5.612
 3297POPC   GL142685  35.337  42.334   5.891
 3297POPC   GL242686  35.124  42.091   5.826
 3297POPC   C1A42687  35.436  42.434   6.273
 3297POPC   D2A42688  35.259  42.475   6.638
 3297POPC   C3A42689  35.432  42.232   6.919
 3297POPC   C4A42690  35.467  42.560   7.238
 3297POPC   C1B42691  35.230  41.952   6.221
 3297POPC   C2B42692  35.051  41.985   6.597
 3297POPC   C3B42693  34.922  42.175   6.927
 3297POPC   C4B42694  35.119  42.204   7.306
 3298POPC   NC342695  10.294  35.937   5.426
 3298POPC   PO442696  10.869  36.245   5.533
 3298POPC   GL142697  10.534  36.136   5.834
 3298POPC   GL242698  10.185  36.268   5.772
 3298POPC   C1A42699  10.559  35.941   6.241
 3298POPC   D2A42700  10.669  36.128   6.629
 3298POPC   C3A42701  10.695  35.918   7.001
 3298POPC   C4A42702  10.831  36.025   7.396
 3298POPC   C1B42703  10.071  35.996   6.101
 3298POPC   C2B42704  10.141  35.987   6.562
 3298POPC   C3B42705  10.253  36.232   6.934
 3298POPC   C4B42706  10.321  36.078   7.312
 3299POPC   NC342707  16.683  23.071   5.356
 3299POPC   PO442708  16.579  22.627   5.792
 3299POPC   GL142709  16.777  22.999   5.905
 3299POPC   GL242710  17.067  23.188   5.763
 3299POPC   C1A42711  16.529  23.228   6.209
 3299POPC   D2A42712  16.267  23.349   6.543
 3299POPC   C3A42713  16.380  23.089   6.900
 3299POPC   C4A42714  16.505  23.215   7.295
 3299POPC   C1B42715  17.031  23.300   6.219
 3299POPC   C2B42716  16.853  23.109   6.599
 3299POPC   C3B42717  16.990  23.014   7.018
 3299POPC   C4B42718  16.784  22.815   7.363
 3300POPC   NC342719   5.069   5.043   5.429
 3300POPC   PO442720   5.352   5.731   5.450
 3300POPC   GL142721   5.271   5.375   5.810
 3300POPC   GL242722   5.221   4.986   5.908
 3300POPC   C1A42723   5.101   5.352   6.249
 3300POPC   D2A42724   4.844   5.508   6.587
 3300POPC   C3A42725   5.047   5.415   6.968
 3300POPC   C4A42726   5.187   5.074   7.196
 3300POPC   C1B42727   5.102   4.839   6.323
 3300POPC   C2B42728   5.210   4.673   6.723
 3300POPC   C3B42729   4.941   4.634   7.059
 3300POPC   C4B42730   4.735   4.858   7.357
 3301POPC   NC342731  38.437  38.527   5.407
 3301POPC   PO442732  39.018  38.890   5.559
 3301POPC   GL142733  38.744  38.686   5.802
 3301POPC   GL242734  38.846  38.340   5.750
 3301POPC   C1A42735  38.516  38.752   6.188
 3301POPC   D2A42736  38.411  38.954   6.590
 3301POPC   C3A42737  38.413  38.710   6.978
 3301POPC   C4A42738  38.273  38.806   7.407
 3301POPC   C1B42739  38.550  38.208   6.081
 3301POPC   C2B42740  38.384  38.295   6.490
 3301POPC   C3B42741  38.481  38.198   6.898
 3301POPC   C4B42742  38.635  38.120   7.299
 3302POPC   NC342743  17.961  37.112   5.453
 3302POPC   PO442744  17.322  37.065   5.303
 3302POPC   GL142745  17.377  36.815   5.700
 3302POPC   GL242746  17.550  37.087   5.786
 3302POPC   C1A42747  17.482  36.677   6.147
 3302POPC   D2A42748  17.684  36.647   6.557
 3302POPC   C3A42749  17.479  36.666   6.958
 3302POPC   C4A42750  17.356  36.828   7.392
 3302POPC   C1B42751  17.434  37.205   6.187
 3302POPC   C2B42752  17.619  37.132   6.577
 3302POPC   C3B42753  17.461  37.170   6.986
 3302POPC   C4B42754  17.171  37.284   7.292
 3303POPC   NC342755  23.289  22.416   5.522
 3303POPC   PO442756  22.678  22.035   5.506
 3303POPC   GL142757  22.985  22.098   5.820
 3303POPC   GL242758  23.262  21.897   5.703
 3303POPC   C1A42759  23.011  22.174   6.258
 3303POPC   D2A42760  22.869  22.168   6.670
 3303POPC   C3A42761  23.181  22.373   6.840
 3303POPC   C4A42762  23.173  22.500   7.225
 3303POPC   C1B42763  23.273  21.743   6.140
 3303POPC   C2B42764  23.347  21.892   6.588
 3303POPC   C3B42765  23.205  21.805   7.004
 3303POPC   C4B42766  22.906  22.050   7.173
 3304POPC   NC342767   6.424  13.899   5.326
 3304POPC   PO442768   6.643  14.529   5.397
 3304POPC   GL142769   6.654  14.239   5.766
 3304POPC   GL242770   6.463  14.537   5.886
 3304POPC   C1A42771   6.706  14.203   6.260
 3304POPC   D2A42772   6.862  14.423   6.635
 3304POPC   C3A42773   6.956  14.317   7.083
 3304POPC   C4A42774   6.928  14.721   7.326
 3304POPC   C1B42775   6.298  14.554   6.273
 3304POPC   C2B42776   6.305  14.405   6.664
 3304POPC   C3B42777   6.509  14.548   6.997
 3304POPC   C4B42778   6.348  14.752   7.342
 3305POPC   NC342779  40.989  17.408   5.418
 3305POPC   PO442780  40.319  17.343   5.455
 3305POPC   GL142781  40.612  17.278   5.769
 3305POPC   GL242782  40.707  17.637   5.777
 3305POPC   C1A42783  40.830  17.216   6.170
 3305POPC   D2A42784  40.629  17.295   6.582
 3305POPC   C3A42785  40.876  17.363   6.892
 3305POPC   C4A42786  40.919  17.108   7.229
 3305POPC   C1B42787  40.531  17.641   6.190
 3305POPC   C2B42788  40.689  17.801   6.569
 3305POPC   C3B42789  40.474  17.703   6.935
 3305POPC   C4B42790  40.593  17.526   7.286
 3306POPC   NC342791  11.649  35.087   5.523
 3306POPC   PO442792  12.269  35.318   5.296
 3306POPC   GL142793  12.218  35.241   5.768
 3306POPC   GL242794  12.086  34.902   5.822
 3306POPC   C1A42795  12.048  35.291   6.199
 3306POPC   D2A42796  11.642  35.420   6.406
 3306POPC   C3A42797  11.695  35.433   6.881
 3306POPC   C4A42798  12.016  35.564   7.204
 3306POPC   C1B42799  12.424  34.863   6.138
 3306POPC   C2B42800  12.592  34.871   6.552
 3306POPC   C3B42801  12.440  35.096   6.934
 3306POPC   C4B42802  12.183  35.089   7.341
 3307POPC   NC342803  26.093  19.520   5.376
 3307POPC   PO442804  26.213  18.856   5.164
 3307POPC   GL142805  26.218  18.859   5.655
 3307POPC   GL242806  25.888  18.848   5.870
 3307POPC   C1A42807  26.349  18.871   6.118
 3307POPC   D2A42808  26.358  19.157   6.460
 3307POPC   C3A42809  26.120  19.088   6.839
 3307POPC   C4A42810  26.164  19.299   7.221
 3307POPC   C1B42811  25.841  19.176   6.258
 3307POPC   C2B42812  25.701  19.541   6.543
 3307POPC   C3B42813  25.711  19.452   6.969
 3307POPC   C4B42814  25.683  19.030   7.155
 3308POPC   NC342815  20.149  38.270   5.225
 3308POPC   PO442816  20.180  38.720   5.683
 3308POPC   GL142817  19.851  38.433   5.765
 3308POPC   GL242818  19.541  38.600   5.734
 3308POPC   C1A42819  19.751  38.246   6.168
 3308POPC   D2A42820  19.864  38.046   6.580
 3308POPC   C3A42821  19.986  38.227   6.994
 3308POPC   C4A42822  19.851  38.366   7.398
 3308POPC   C1B42823  19.685  38.852   6.089
 3308POPC   C2B42824  19.881  38.920   6.465
 3308POPC   C3B42825  19.882  38.713   6.828
 3308POPC   C4B42826  19.798  38.832   7.213
 3309POPC   NC342827  38.543  36.607   5.257
 3309POPC   PO442828  38.175  37.148   5.262
 3309POPC   GL142829  38.539  37.018   5.600
 3309POPC   GL242830  38.627  36.676   5.747
 3309POPC   C1A42831  38.789  37.077   6.024
 3309POPC   D2A42832  38.891  37.076   6.497
 3309POPC   C3A42833  38.554  36.974   6.782
 3309POPC   C4A42834  38.309  37.178   7.114
 3309POPC   C1B42835  38.808  36.567   6.153
 3309POPC   C2B42836  38.931  36.585   6.600
 3309POPC   C3B42837  38.846  36.639   7.028
 3309POPC   C4B42838  38.781  37.014   7.251
 3310POPC   NC342839  35.353  32.620   5.343
 3310POPC   PO442840  35.030  33.161   5.507
 3310POPC   GL142841  35.251  32.908   5.806
 3310POPC   GL242842  35.575  33.069   5.778
 3310POPC   C1A42843  35.368  32.816   6.251
 3310POPC   D2A42844  35.067  32.954   6.590
 3310POPC   C3A42845  35.082  32.784   7.028
 3310POPC   C4A42846  35.386  32.730   7.340
 3310POPC   C1B42847  35.575  33.300   6.182
 3310POPC   C2B42848  35.503  33.250   6.625
 3310POPC   C3B42849  35.505  33.152   7.068
 3310POPC   C4B42850  35.442  33.186   7.530
 3311POPC   NC342851  30.897  16.246   5.569
 3311POPC   PO442852  30.356  16.634   5.564
 3311POPC   GL142853  30.543  16.635   5.911
 3311POPC   GL242854  30.855  16.763   5.811
 3311POPC   C1A42855  30.545  16.755   6.328
 3311POPC   D2A42856  30.598  16.630   6.733
 3311POPC   C3A42857  30.874  16.863   6.974
 3311POPC   C4A42858  30.874  17.122   7.301
 3311POPC   C1B42859  30.960  16.502   6.188
 3311POPC   C2B42860  31.015  16.347   6.630
 3311POPC   C3B42861  30.897  16.345   7.064
 3311POPC   C4B42862  30.897  16.613   7.423
 3312POPC   NC342863  14.285  27.603   5.325
 3312POPC   PO442864  14.354  26.940   5.339
 3312POPC   GL142865  14.438  27.267   5.707
 3312POPC   GL242866  14.391  27.648   5.822
 3312POPC   C1A42867  14.656  27.314   6.132
 3312POPC   D2A42868  14.660  27.608   6.506
 3312POPC   C3A42869  14.440  27.550   6.924
 3312POPC   C4A42870  14.527  27.212   7.183
 3312POPC   C1B42871  14.259  27.846   6.235
 3312POPC   C2B42872  14.456  28.050   6.627
 3312POPC   C3B42873  14.512  28.031   7.074
 3312POPC   C4B42874  14.242  27.864   7.411
 3313POPC   NC342875  34.470  31.191   4.820
 3313POPC   PO442876  34.565  31.635   5.391
 3313POPC   GL142877  34.709  31.299   5.708
 3313POPC   GL242878  34.436  31.246   5.974
 3313POPC   C1A42879  34.902  31.350   6.136
 3313POPC   D2A42880  34.651  31.589   6.438
 3313POPC   C3A42881  34.572  31.440   6.855
 3313POPC   C4A42882  34.699  31.390   7.256
 3313POPC   C1B42883  34.175  31.298   6.358
 3313POPC   C2B42884  34.142  31.157   6.802
 3313POPC   C3B42885  34.293  31.084   7.199
 3313POPC   C4B42886  34.316  31.307   7.587
 3314POPC   NC342887   3.483  14.277   5.295
 3314POPC   PO442888   3.141  14.839   5.350
 3314POPC   GL142889   3.383  14.582   5.741
 3314POPC   GL242890   3.617  14.263   5.773
 3314POPC   C1A42891   3.664  14.553   6.180
 3314POPC   D2A42892   3.901  14.769   6.516
 3314POPC   C3A42893   3.732  14.708   6.909
 3314POPC   C4A42894   3.723  14.492   7.272
 3314POPC   C1B42895   3.434  14.048   6.134
 3314POPC   C2B42896   3.509  13.877   6.526
 3314POPC   C3B42897   3.392  13.994   6.936
 3314POPC   C4B42898   3.574  13.994   7.318
 3315POPC   NC342899  27.427  14.791   5.684
 3315POPC   PO442900  27.498  14.182   5.411
 3315POPC   GL142901  27.650  14.320   5.849
 3315POPC   GL242902  27.450  14.536   6.099
 3315POPC   C1A42903  27.895  14.424   6.260
 3315POPC   D2A42904  27.639  14.595   6.613
 3315POPC   C3A42905  27.633  14.440   7.039
 3315POPC   C4A42906  27.861  14.538   7.414
 3315POPC   C1B42907  27.346  14.167   6.285
 3315POPC   C2B42908  27.167  14.083   6.672
 3315POPC   C3B42909  27.154  14.229   7.093
 3315POPC   C4B42910  27.337  14.064   7.443
 3316POPC   NC342911  23.506   4.602   5.286
 3316POPC   PO442912  23.592   5.221   5.493
 3316POPC   GL142913  23.760   5.157   5.870
 3316POPC   GL242914  23.718   4.807   5.844
 3316POPC   C1A42915  23.667   5.323   6.277
 3316POPC   D2A42916  23.698   5.098   6.668
 3316POPC   C3A42917  23.854   5.327   6.990
 3316POPC   C4A42918  23.640   5.322   7.339
 3316POPC   C1B42919  23.922   4.873   6.255
 3316POPC   C2B42920  24.074   4.704   6.644
 3316POPC   C3B42921  24.134   4.904   7.014
 3316POPC   C4B42922  23.964   4.922   7.442
 3317POPC   NC342923   2.557   2.800   5.458
 3317POPC   PO442924   3.212   2.785   5.730
 3317POPC   GL142925   2.787   2.894   5.918
 3317POPC   GL242926   2.449   3.099   5.844
 3317POPC   C1A42927   2.786   2.622   6.263
 3317POPC   D2A42928   3.103   2.501   6.557
 3317POPC   C3A42929   2.930   2.693   6.943
 3317POPC   C4A42930   2.617   2.488   7.204
 3317POPC   C1B42931   2.321   2.836   6.214
 3317POPC   C2B42932   2.490   2.737   6.661
 3317POPC   C3B42933   2.501   2.973   7.049
 3317POPC   C4B42934   2.478   3.251   7.409
 3318POPC   NC342935   2.085  31.223   5.474
 3318POPC   PO442936   1.593  31.674   5.476
 3318POPC   GL142937   1.618  31.564   5.894
 3318POPC   GL242938   1.771  31.244   5.869
 3318POPC   C1A42939   1.814  31.508   6.304
 3318POPC   D2A42940   2.047  31.795   6.557
 3318POPC   C3A42941   2.012  31.698   7.000
 3318POPC   C4A42942   1.676  31.618   7.288
 3318POPC   C1B42943   2.156  31.167   6.114
 3318POPC   C2B42944   2.351  31.349   6.452
 3318POPC   C3B42945   2.344  31.129   6.836
 3318POPC   C4B42946   2.198  31.279   7.220
 3319POPC   NC342947   0.692   2.771   5.479
 3319POPC   PO442948   0.183   2.370   5.680
 3319POPC   GL142949   0.399   2.719   5.889
 3319POPC   GL242950   0.317   3.076   5.855
 3319POPC   C1A42951   0.641   2.737   6.233
 3319POPC   D2A42952   0.516   2.460   6.557
 3319POPC   C3A42953   0.497   2.698   6.943
 3319POPC   C4A42954   0.482   2.620   7.392
 3319POPC   C1B42955   0.692   3.246   6.069
 3319POPC   C2B42956   0.874   3.149   6.461
 3319POPC   C3B42957   0.748   3.189   6.903
 3319POPC   C4B42958   0.466   3.126   7.256
 3320POPC   NC342959  35.144   2.337   5.376
 3320POPC   PO442960  35.171   3.029   5.455
 3320POPC   GL142961  35.369   2.932   5.796
 3320POPC   GL242962  35.439   2.597   5.731
 3320POPC   C1A42963  35.492   3.053   6.185
 3320POPC   D2A42964  35.281   3.080   6.560
 3320POPC   C3A42965  35.539   3.024   6.921
 3320POPC   C4A42966  35.294   2.937   7.280
 3320POPC   C1B42967  35.264   2.562   6.148
 3320POPC   C2B42968  35.423   2.602   6.532
 3320POPC   C3B42969  35.298   2.577   6.918
 3320POPC   C4B42970  35.487   2.477   7.327
 3321POPC   NC342971  22.477   7.214   5.473
 3321POPC   PO442972  21.886   7.436   5.540
 3321POPC   GL142973  22.140   7.430   5.897
 3321POPC   GL242974  22.274   7.091   5.931
 3321POPC   C1A42975  22.049   7.622   6.289
 3321POPC   D2A42976  21.957   7.462   6.672
 3321POPC   C3A42977  22.132   7.645   7.034
 3321POPC   C4A42978  21.907   7.806   7.433
 3321POPC   C1B42979  22.236   7.147   6.366
 3321POPC   C2B42980  22.347   7.180   6.803
 3321POPC   C3B42981  22.253   6.996   7.183
 3321POPC   C4B42982  22.179   7.070   7.600
 3322POPC   NC342983  33.224  43.889   5.325
 3322POPC   PO442984  32.498  43.697   5.321
 3322POPC   GL142985  32.670  43.917   5.726
 3322POPC   GL242986  33.046  43.963   5.800
 3322POPC   C1A42987  32.705  43.975   6.182
 3322POPC   D2A42988  32.858  44.121   6.568
 3322POPC   C3A42989  32.741  43.931   6.938
 3322POPC   C4A42990  32.887  43.953   7.344
 3322POPC   C1B42991  33.243  44.042   6.219
 3322POPC   C2B42992  33.355  43.819   6.585
 3322POPC   C3B42993  33.244  43.934   6.965
 3322POPC   C4B42994  33.386  44.119   7.322
 3323POPC   NC342995  18.842  30.494   5.508
 3323POPC   PO442996  19.166  30.959   5.310
 3323POPC   GL142997  19.164  30.790   5.749
 3323POPC   GL242998  19.293  30.483   5.866
 3323POPC   C1A42999  18.995  30.877   6.168
 3323POPC   D2A43000  18.882  31.117   6.545
 3323POPC   C3A43001  18.926  30.978   6.964
 3323POPC   C4A43002  18.771  31.087   7.386
 3323POPC   C1B43003  19.094  30.377   6.265
 3323POPC   C2B43004  18.869  30.582   6.595
 3323POPC   C3B43005  18.776  30.501   7.040
 3323POPC   C4B43006  18.999  30.654   7.398
 3324POPC   NC343007   5.000  31.191   5.657
 3324POPC   PO443008   5.545  30.746   5.514
 3324POPC   GL143009   5.275  30.779   5.819
 3324POPC   GL243010   5.433  31.088   5.910
 3324POPC   C1A43011   5.087  30.825   6.230
 3324POPC   D2A43012   4.910  30.814   6.650
 3324POPC   C3A43013   5.128  30.716   6.990
 3324POPC   C4A43014   5.383  30.342   7.072
 3324POPC   C1B43015   5.482  31.145   6.340
 3324POPC   C2B43016   5.394  31.175   6.758
 3324POPC   C3B43017   5.302  31.143   7.212
 3324POPC   C4B43018   5.096  31.156   7.628
 3325POPC   NC343019  29.491   5.333   5.472
 3325POPC   PO443020  28.764   5.437   5.372
 3325POPC   GL143021  29.026   5.195   5.708
 3325POPC   GL243022  28.923   4.906   5.924
 3325POPC   C1A43023  29.310   5.217   6.082
 3325POPC   D2A43024  29.416   5.253   6.502
 3325POPC   C3A43025  29.199   5.148   6.850
 3325POPC   C4A43026  29.157   5.322   7.225
 3325POPC   C1B43027  28.933   5.000   6.380
 3325POPC   C2B43028  28.708   4.986   6.770
 3325POPC   C3B43029  28.766   4.953   7.213
 3325POPC   C4B43030  28.718   4.859   7.698
 3326POPC   NC343031  32.013  21.046   5.482
 3326POPC   PO443032  32.464  21.535   5.525
 3326POPC   GL143033  32.208  21.400   5.919
 3326POPC   GL243034  32.094  21.020   5.971
 3326POPC   C1A43035  32.327  21.525   6.383
 3326POPC   D2A43036  32.478  21.715   6.809
 3326POPC   C3A43037  32.258  21.584   7.184
 3326POPC   C4A43038  32.205  21.387   7.625
 3326POPC   C1B43039  31.993  21.144   6.369
 3326POPC   C2B43040  32.099  21.250   6.804
 3326POPC   C3B43041  32.053  21.114   7.239
 3326POPC   C4B43042  31.954  20.912   7.695
 3327POPC   NC343043  29.703  10.714   5.426
 3327POPC   PO443044  30.330  10.856   5.391
 3327POPC   GL143045  30.132  10.686   5.794
 3327POPC   GL243046  30.145  10.340   5.884
 3327POPC   C1A43047  30.150  10.662   6.266
 3327POPC   D2A43048  30.003  10.869   6.614
 3327POPC   C3A43049  30.194  10.871   6.993
 3327POPC   C4A43050  29.861  10.849   7.295
 3327POPC   C1B43051  29.976  10.161   6.233
 3327POPC   C2B43052  30.027  10.313   6.635
 3327POPC   C3B43053  30.080  10.368   7.044
 3327POPC   C4B43054  29.978  10.371   7.464
 3328POPC   NC343055   6.794  31.820   5.523
 3328POPC   PO443056   6.345  31.330   5.440
 3328POPC   GL143057   6.514  31.501   5.810
 3328POPC   GL243058   6.549  31.181   5.954
 3328POPC   C1A43059   6.738  31.657   6.178
 3328POPC   D2A43060   6.575  31.623   6.576
 3328POPC   C3A43061   6.692  31.809   6.944
 3328POPC   C4A43062   6.847  31.666   7.313
 3328POPC   C1B43063   6.870  31.132   6.262
 3328POPC   C2B43064   6.931  31.265   6.712
 3328POPC   C3B43065   6.597  31.301   7.031
 3328POPC   C4B43066   6.190  31.200   7.240
 3329POPC   NC343067  29.001  30.863   5.499
 3329POPC   PO443068  28.910  30.228   5.752
 3329POPC   GL143069  29.096  30.559   5.974
 3329POPC   GL243070  29.246  30.876   5.946
 3329POPC   C1A43071  28.997  30.773   6.367
 3329POPC   D2A43072  29.048  30.969   6.749
 3329POPC   C3A43073  29.007  30.632   7.023
 3329POPC   C4A43074  28.969  30.257   7.224
 3329POPC   C1B43075  29.499  30.704   6.272
 3329POPC   C2B43076  29.709  30.509   6.575
 3329POPC   C3B43077  29.538  30.685   6.919
 3329POPC   C4B43078  29.355  30.959   7.202
 3330POPC   NC343079  40.022   4.714   5.008
 3330POPC   PO443080  39.847   4.109   5.289
 3330POPC   GL143081  39.813   4.332   5.682
 3330POPC   GL243082  40.143   4.390   5.851
 3330POPC   C1A43083  39.748   4.197   6.119
 3330POPC   D2A43084  40.048   4.313   6.470
 3330POPC   C3A43085  39.948   4.255   6.899
 3330POPC   C4A43086  40.128   4.376   7.338
 3330POPC   C1B43087  39.866   4.693   6.166
 3330POPC   C2B43088  39.733   4.763   6.659
 3330POPC   C3B43089  39.739   4.640   7.149
 3330POPC   C4B43090  39.856   4.780   7.591
 3331POPC   NC343091   8.915   5.097   5.310
 3331POPC   PO443092   8.873   4.492   5.500
 3331POPC   GL143093   8.853   4.915   5.796
 3331POPC   GL243094   8.704   5.260   5.743
 3331POPC   C1A43095   9.133   5.204   6.078
 3331POPC   D2A43096   9.182   5.468   6.444
 3331POPC   C3A43097   9.275   5.228   6.797
 3331POPC   C4A43098   8.993   5.010   7.060
 3331POPC   C1B43099   8.676   5.388   6.170
 3331POPC   C2B43100   8.744   5.262   6.599
 3331POPC   C3B43101   8.854   5.483   6.982
 3331POPC   C4B43102   8.773   5.356   7.377
 3332POPC   NC343103  22.459   0.712   5.699
 3332POPC   PO443104  21.865   0.455   5.425
 3332POPC   GL143105  22.056   0.402   5.871
 3332POPC   GL243106  22.387   0.338   6.040
 3332POPC   C1A43107  21.957   0.366   6.337
 3332POPC   D2A43108  21.873   0.469   6.782
 3332POPC   C3A43109  22.094   0.308   7.090
 3332POPC   C4A43110  22.479   0.160   7.201
 3332POPC   C1B43111  22.372   0.709   6.345
 3332POPC   C2B43112  22.390   0.672   6.789
 3332POPC   C3B43113  22.452   0.711   7.224
 3332POPC   C4B43114  22.556   0.828   7.641
 3333POPC   NC343115  14.311  26.471   5.415
 3333POPC   PO443116  14.721  25.974   5.285
 3333POPC   GL143117  14.623  26.105   5.717
 3333POPC   GL243118  14.276  26.051   5.723
 3333POPC   C1A43119  14.501  26.276   6.151
 3333POPC   D2A43120  14.680  26.366   6.567
 3333POPC   C3A43121  14.397  26.296   6.943
 3333POPC   C4A43122  14.415  26.242   7.411
 3333POPC   C1B43123  14.047  25.960   6.091
 3333POPC   C2B43124  13.989  26.103   6.481
 3333POPC   C3B43125  14.011  25.947   6.875
 3333POPC   C4B43126  14.299  25.815   7.192
 3334POPC   NC343127   7.976  29.967   5.368
 3334POPC   PO443128   8.521  30.165   5.636
 3334POPC   GL143129   8.231  29.898   5.837
 3334POPC   GL243130   7.897  30.099   5.867
 3334POPC   C1A43131   8.404  29.775   6.242
 3334POPC   D2A43132   8.544  30.119   6.510
 3334POPC   C3A43133   8.366  30.032   6.893
 3334POPC   C4A43134   8.377  29.667   7.146
 3334POPC   C1B43135   7.984  30.042   6.332
 3334POPC   C2B43136   8.043  29.683   6.657
 3334POPC   C3B43137   7.860  29.653   7.076
 3334POPC   C4B43138   7.636  30.005   7.186
 3335POPC   NC343139  43.226   3.202   5.426
 3335POPC   PO443140  42.717   3.648   5.552
 3335POPC   GL143141  42.928   3.417   5.880
 3335POPC   GL243142  43.307   3.373   5.894
 3335POPC   C1A43143  42.767   3.451   6.321
 3335POPC   D2A43144  42.934   3.755   6.651
 3335POPC   C3A43145  43.061   3.653   7.090
 3335POPC   C4A43146  42.866   3.768   7.505
 3335POPC   C1B43147  43.281   3.466   6.330
 3335POPC   C2B43148  43.101   3.206   6.662
 3335POPC   C3B43149  43.375   3.023   6.934
 3335POPC   C4B43150  43.405   3.298   7.262
 3336POPC   NC343151  32.739  24.352   5.440
 3336POPC   PO443152  32.135  24.625   5.283
 3336POPC   GL143153  32.347  24.571   5.698
 3336POPC   GL243154  32.578  24.845   5.740
 3336POPC   C1A43155  32.339  24.364   6.119
 3336POPC   D2A43156  32.157  24.253   6.519
 3336POPC   C3A43157  32.324  24.353   6.901
 3336POPC   C4A43158  32.180  24.577   7.283
 3336POPC   C1B43159  32.755  24.649   6.122
 3336POPC   C2B43160  32.779  24.485   6.550
 3336POPC   C3B43161  32.703  24.689   6.940
 3336POPC   C4B43162  32.646  24.417   7.291
 3337POPC   NC343163   4.688  34.720   5.482
 3337POPC   PO443164   4.005  34.503   5.286
 3337POPC   GL143165   4.330  34.443   5.713
 3337POPC   GL243166   4.307  34.758   5.854
 3337POPC   C1A43167   4.537  34.459   6.201
 3337POPC   D2A43168   4.309  34.569   6.622
 3337POPC   C3A43169   4.316  34.569   7.103
 3337POPC   C4A43170   4.541  34.343   7.464
 3337POPC   C1B43171   4.406  34.975   6.250
 3337POPC   C2B43172   4.335  35.099   6.681
 3337POPC   C3B43173   4.686  35.047   6.979
 3337POPC   C4B43174   4.773  34.786   7.332
 3338POPC   NC343175  22.154  11.475   5.407
 3338POPC   PO443176  22.114  10.754   5.506
 3338POPC   GL143177  22.262  11.100   5.824
 3338POPC   GL243178  21.981  11.290   5.868
 3338POPC   C1A43179  22.243  11.100   6.321
 3338POPC   D2A43180  21.932  11.060   6.693
 3338POPC   C3A43181  22.003  10.911   7.148
 3338POPC   C4A43182  21.912  11.018   7.585
 3338POPC   C1B43183  22.026  11.548   6.211
 3338POPC   C2B43184  22.175  11.547   6.612
 3338POPC   C3B43185  22.113  11.715   6.988
 3338POPC   C4B43186  22.033  11.426   7.300
 3339POPC   NC343187   7.416  17.854   5.537
 3339POPC   PO443188   7.201  17.127   5.448
 3339POPC   GL143189   7.445  17.385   5.755
 3339POPC   GL243190   7.696  17.223   5.953
 3339POPC   C1A43191   7.460  17.635   6.154
 3339POPC   D2A43192   7.186  17.558   6.517
 3339POPC   C3A43193   7.404  17.715   6.876
 3339POPC   C4A43194   7.198  17.724   7.246
 3339POPC   C1B43195   7.307  17.156   6.191
 3339POPC   C2B43196   7.268  17.006   6.583
 3339POPC   C3B43197   7.182  17.245   6.971
 3339POPC   C4B43198   7.534  17.340   7.237
 3340POPC   NC343199  38.259  42.014   5.118
 3340POPC   PO443200  38.255  41.416   5.470
 3340POPC   GL143201  38.454  41.467   5.891
 3340POPC   GL243202  38.621  41.833   5.994
 3340POPC   C1A43203  38.429  41.231   6.279
 3340POPC   D2A43204  38.596  41.172   6.686
 3340POPC   C3A43205  38.247  41.206   6.930
 3340POPC   C4A43206  38.213  41.541   7.227
 3340POPC   C1B43207  38.298  41.745   6.302
 3340POPC   C2B43208  38.260  41.709   6.737
 3340POPC   C3B43209  38.423  41.959   7.034
 3340POPC   C4B43210  38.759  42.137   7.152
 3341POPC   NC343211   7.322   2.683   5.311
 3341POPC   PO443212   7.864   3.085   5.523
 3341POPC   GL143213   7.497   2.830   5.813
 3341POPC   GL243214   7.129   2.675   5.797
 3341POPC   C1A43215   7.249   2.928   6.238
 3341POPC   D2A43216   7.205   2.971   6.698
 3341POPC   C3A43217   7.576   2.845   6.973
 3341POPC   C4A43218   7.728   3.102   7.315
 3341POPC   C1B43219   7.279   2.421   6.179
 3341POPC   C2B43220   7.371   2.485   6.632
 3341POPC   C3B43221   7.155   2.571   7.032
 3341POPC   C4B43222   7.434   2.693   7.454
 3342POPC   NC343223  38.982  33.209   5.376
 3342POPC   PO443224  38.357  32.821   5.417
 3342POPC   GL143225  38.573  32.932   5.803
 3342POPC   GL243226  38.260  33.069   5.872
 3342POPC   C1A43227  38.544  32.910   6.287
 3342POPC   D2A43228  38.654  32.765   6.705
 3342POPC   C3A43229  38.439  32.974   7.010
 3342POPC   C4A43230  38.501  33.283   7.279
 3342POPC   C1B43231  38.033  32.914   6.188
 3342POPC   C2B43232  38.033  33.120   6.564
 3342POPC   C3B43233  37.931  32.951   6.946
 3342POPC   C4B43234  38.052  33.013   7.342
 3343POPC   NC343235  39.584  37.101   5.418
 3343POPC   PO443236  38.996  36.733   5.358
 3343POPC   GL143237  39.167  36.780   5.764
 3343POPC   GL243238  39.260  37.142   5.802
 3343POPC   C1A43239  39.252  36.823   6.201
 3343POPC   D2A43240  39.453  36.789   6.563
 3343POPC   C3A43241  39.246  36.913   6.890
 3343POPC   C4A43242  39.257  36.867   7.294
 3343POPC   C1B43243  39.192  37.346   6.194
 3343POPC   C2B43244  39.325  37.331   6.623
 3343POPC   C3B43245  39.101  37.391   7.022
 3343POPC   C4B43246  39.087  37.385   7.465
 3344POPC   NC343247  21.999  16.202   5.095
 3344POPC   PO443248  21.349  15.948   5.261
 3344POPC   GL143249  21.215  15.911   5.682
 3344POPC   GL243250  21.205  16.225   5.763
 3344POPC   C1A43251  21.344  15.819   6.115
 3344POPC   D2A43252  21.220  15.776   6.558
 3344POPC   C3A43253  21.442  15.652   6.957
 3344POPC   C4A43254  21.531  15.919   7.304
 3344POPC   C1B43255  21.460  16.333   6.095
 3344POPC   C2B43256  21.582  16.122   6.468
 3344POPC   C3B43257  21.386  16.162   6.868
 3344POPC   C4B43258  21.626  16.396   7.143
 3345POPC   NC343259  10.645  38.269   5.044
 3345POPC   PO443260  11.083  38.635   5.341
 3345POPC   GL143261  11.125  38.534   5.755
 3345POPC   GL243262  11.439  38.342   5.793
 3345POPC   C1A43263  11.047  38.775   6.141
 3345POPC   D2A43264  11.201  38.750   6.557
 3345POPC   C3A43265  11.164  38.470   6.909
 3345POPC   C4A43266  11.112  38.569   7.358
 3345POPC   C1B43267  11.504  38.508   6.183
 3345POPC   C2B43268  11.605  38.381   6.581
 3345POPC   C3B43269  11.665  38.357   6.995
 3345POPC   C4B43270  11.439  38.192   7.368
 3346POPC   NC343271  16.446  32.348   5.475
 3346POPC   PO443272  16.953  31.931   5.503
 3346POPC   GL143273  16.769  32.155   5.832
 3346POPC   GL243274  16.441  31.995   5.892
 3346POPC   C1A43275  16.593  32.431   6.178
 3346POPC   D2A43276  16.401  32.374   6.585
 3346POPC   C3A43277  16.632  32.418   6.975
 3346POPC   C4A43278  16.952  32.155   7.155
 3346POPC   C1B43279  16.682  31.936   6.278
 3346POPC   C2B43280  16.748  31.990   6.686
 3346POPC   C3B43281  16.538  31.864   7.017
 3346POPC   C4B43282  16.467  32.081   7.375
 3347POPC   NC343283   8.042  35.402   5.494
 3347POPC   PO443284   8.206  36.085   5.430
 3347POPC   GL143285   8.228  35.736   5.823
 3347POPC   GL243286   7.890  35.536   5.936
 3347POPC   C1A43287   8.233  35.553   6.305
 3347POPC   D2A43288   8.259  35.720   6.764
 3347POPC   C3A43289   8.366  35.441   7.146
 3347POPC   C4A43290   8.264  35.070   7.391
 3347POPC   C1B43291   7.691  35.529   6.302
 3347POPC   C2B43292   7.822  35.256   6.611
 3347POPC   C3B43293   7.893  35.402   7.005
 3347POPC   C4B43294   7.881  35.476   7.442
 3348POPC   NC343295  40.095  42.961   5.388
 3348POPC   PO443296  39.428  43.242   5.448
 3348POPC   GL143297  39.770  43.300   5.745
 3348POPC   GL243298  39.746  42.971   5.789
 3348POPC   C1A43299  39.975  43.349   6.181
 3348POPC   D2A43300  40.172  43.127   6.522
 3348POPC   C3A43301  40.238  43.285   6.946
 3348POPC   C4A43302  39.922  43.414   7.250
 3348POPC   C1B43303  39.895  42.853   6.143
 3348POPC   C2B43304  39.794  42.760   6.531
 3348POPC   C3B43305  40.007  42.817   6.912
 3348POPC   C4B43306  40.123  42.969   7.349
 3349POPC   NC343307  44.114   3.316   5.395
 3349POPC   PO443308  43.533   3.584   5.463
 3349POPC   GL143309  43.649   3.786   5.855
 3349POPC   GL243310  43.940   3.578   5.845
 3349POPC   C1A43311  43.755   3.764   6.300
 3349POPC   D2A43312  43.853   3.455   6.618
 3349POPC   C3A43313  43.678   3.638   6.984
 3349POPC   C4A43314  43.776   3.839   7.359
 3349POPC   C1B43315  44.210   3.507   6.216
 3349POPC   C2B43316  44.365   3.295   6.592
 3349POPC   C3B43317  44.265   3.467   6.956
 3349POPC   C4B43318  44.011   3.373   7.283
 3350POPC   NC343319   2.937  16.612   5.551
 3350POPC   PO443320   2.608  17.145   5.454
 3350POPC   GL143321   2.648  16.871   5.878
 3350POPC   GL243322   2.919  16.636   6.039
 3350POPC   C1A43323   2.486  16.688   6.290
 3350POPC   D2A43324   2.416  16.433   6.655
 3350POPC   C3A43325   2.493  16.694   7.025
 3350POPC   C4A43326   2.536  16.739   7.466
 3350POPC   C1B43327   3.154  16.662   6.398
 3350POPC   C2B43328   2.912  16.529   6.747
 3350POPC   C3B43329   2.963  16.508   7.159
 3350POPC   C4B43330   2.974  16.540   7.564
 3351POPC   NC343331  44.711  35.449   5.446
 3351POPC   PO443332  44.838  34.830   5.613
 3351POPC   GL143333  44.533  35.137   5.862
 3351POPC   GL243334  44.357  35.490   5.840
 3351POPC   C1A43335  44.546  35.274   6.308
 3351POPC   D2A43336  44.867  35.152   6.632
 3351POPC   C3A43337  44.968  35.386   7.012
 3351POPC   C4A43338  44.692  35.259   7.387
 3351POPC   C1B43339  44.587  35.750   6.151
 3351POPC   C2B43340  44.763  35.696   6.579
 3351POPC   C3B43341  44.567  35.677   7.002
 3351POPC   C4B43342  44.338  35.650   7.388
 3352POPC   NC343343  32.317   7.077   5.610
 3352POPC   PO443344  32.286   6.428   5.400
 3352POPC   GL143345  32.196   6.612   5.796
 3352POPC   GL243346  31.881   6.848   5.779
 3352POPC   C1A43347  32.308   6.796   6.208
 3352POPC   D2A43348  32.480   7.026   6.556
 3352POPC   C3A43349  32.511   6.776   6.927
 3352POPC   C4A43350  32.305   6.701   7.362
 3352POPC   C1B43351  31.835   6.617   6.152
 3352POPC   C2B43352  32.001   6.534   6.550
 3352POPC   C3B43353  32.001   6.761   6.930
 3352POPC   C4B43354  31.814   6.776   7.321
 3353POPC   NC343355   4.338   2.180   5.687
 3353POPC   PO443356   4.708   2.526   5.308
 3353POPC   GL143357   4.604   2.792   5.713
 3353POPC   GL243358   4.252   2.684   5.735
 3353POPC   C1A43359   4.498   2.954   6.173
 3353POPC   D2A43360   4.341   3.013   6.628
 3353POPC   C3A43361   4.366   2.651   6.894
 3353POPC   C4A43362   4.420   2.728   7.330
 3353POPC   C1B43363   4.088   2.630   6.163
 3353POPC   C2B43364   3.926   2.705   6.581
 3353POPC   C3B43365   3.927   2.870   6.977
 3353POPC   C4B43366   3.811   2.618   7.248
 3354POPC   NC343367   5.172  44.352   5.284
 3354POPC   PO443368   5.282   0.076   5.330
 3354POPC   GL143369   5.264  44.733   5.680
 3354POPC   GL243370   5.377  44.359   5.737
 3354POPC   C1A43371   5.079  44.600   6.083
 3354POPC   D2A43372   4.982  44.839   6.454
 3354POPC   C3A43373   5.057  44.707   6.856
 3354POPC   C4A43374   4.941  44.751   7.265
 3354POPC   C1B43375   5.561  44.443   6.132
 3354POPC   C2B43376   5.380  44.458   6.549
 3354POPC   C3B43377   5.547  44.566   6.950
 3354POPC   C4B43378   5.424  44.725   7.373
 3355POPC   NC343379  17.321  27.193   5.492
 3355POPC   PO443380  17.665  26.632   5.295
 3355POPC   GL143381  17.534  26.755   5.717
 3355POPC   GL243382  17.892  26.713   5.792
 3355POPC   C1A43383  17.356  26.962   6.138
 3355POPC   D2A43384  17.182  27.197   6.513
 3355POPC   C3A43385  17.077  26.882   6.819
 3355POPC   C4A43386  17.249  26.738   7.215
 3355POPC   C1B43387  17.664  26.546   6.171
 3355POPC   C2B43388  17.508  26.708   6.573
 3355POPC   C3B43389  17.664  26.608   6.982
 3355POPC   C4B43390  17.807  26.760   7.385
 3356POPC   NC343391   3.187   0.609   5.357
 3356POPC   PO443392   3.740   0.223   5.376
 3356POPC   GL143393   3.733   0.434   5.773
 3356POPC   GL243394   3.389   0.440   5.788
 3356POPC   C1A43395   3.648   0.509   6.224
 3356POPC   D2A43396   3.765   0.292   6.590
 3356POPC   C3A43397   3.651   0.484   6.953
 3356POPC   C4A43398   3.733   0.727   7.291
 3356POPC   C1B43399   3.217   0.247   6.143
 3356POPC   C2B43400   3.248   0.398   6.547
 3356POPC   C3B43401   3.156   0.568   6.913
 3356POPC   C4B43402   3.266   0.419   7.326
 3357POPC   NC343403  37.349   2.494   5.558
 3357POPC   PO443404  37.879   1.988   5.477
 3357POPC   GL143405  37.758   2.165   5.806
 3357POPC   GL243406  37.481   1.960   5.811
 3357POPC   C1A43407  37.907   2.097   6.207
 3357POPC   D2A43408  37.805   2.079   6.633
 3357POPC   C3A43409  37.962   2.131   7.008
 3357POPC   C4A43410  37.774   1.812   7.259
 3357POPC   C1B43411  37.386   2.204   6.149
 3357POPC   C2B43412  37.516   2.455   6.456
 3357POPC   C3B43413  37.487   2.416   6.892
 3357POPC   C4B43414  37.301   2.280   7.268
 3358POPC   NC343415  20.336  19.393   5.501
 3358POPC   PO443416  20.558  18.786   5.443
 3358POPC   GL143417  20.502  19.012   5.814
 3358POPC   GL243418  20.821  18.850   5.950
 3358POPC   C1A43419  20.543  19.205   6.214
 3358POPC   D2A43420  20.616  19.022   6.617
 3358POPC   C3A43421  20.536  19.262   6.988
 3358POPC   C4A43422  20.632  19.265   7.441
 3358POPC   C1B43423  20.942  18.652   6.370
 3358POPC   C2B43424  20.956  18.644   6.837
 3358POPC   C3B43425  20.836  18.897   7.194
 3358POPC   C4B43426  20.751  18.794   7.648
 3359POPC   NC343427  21.747   7.846   5.724
 3359POPC   PO443428  21.933   8.434   5.586
 3359POPC   GL143429  22.087   8.273   5.933
 3359POPC   GL243430  22.428   8.275   5.853
 3359POPC   C1A43431  21.992   8.208   6.360
 3359POPC   D2A43432  21.874   7.962   6.711
 3359POPC   C3A43433  22.033   8.163   7.081
 3359POPC   C4A43434  22.347   8.421   7.292
 3359POPC   C1B43435  22.434   7.954   6.172
 3359POPC   C2B43436  22.389   7.839   6.611
 3359POPC   C3B43437  22.530   8.009   6.987
 3359POPC   C4B43438  22.384   7.914   7.382
 3360POPC   NC343439   3.226  12.574   5.414
 3360POPC   PO443440   3.452  13.206   5.623
 3360POPC   GL143441   3.336  12.914   5.903
 3360POPC   GL243442   3.498  12.606   5.838
 3360POPC   C1A43443   3.604  12.895   6.291
 3360POPC   D2A43444   3.727  13.003   6.726
 3360POPC   C3A43445   3.493  13.068   7.110
 3360POPC   C4A43446   3.662  13.162   7.510
 3360POPC   C1B43447   3.223  12.553   6.245
 3360POPC   C2B43448   3.299  12.692   6.670
 3360POPC   C3B43449   3.515  12.569   7.035
 3360POPC   C4B43450   3.463  12.396   7.433
 3361POPC   NC343451  44.300  10.430   5.621
 3361POPC   PO443452  43.918  10.827   5.251
 3361POPC   GL143453  43.855  10.659   5.719
 3361POPC   GL243454  44.141  10.794   5.939
 3361POPC   C1A43455  43.902  10.337   6.103
 3361POPC   D2A43456  44.092  10.254   6.509
 3361POPC   C3A43457  43.781  10.292   6.830
 3361POPC   C4A43458  43.773  10.559   7.214
 3361POPC   C1B43459  44.009  10.763   6.374
 3361POPC   C2B43460  44.102  10.689   6.804
 3361POPC   C3B43461  44.246  10.757   7.224
 3361POPC   C4B43462  44.067  11.034   7.576
 3362POPC   NC343463  12.589  42.607   5.596
 3362POPC   PO443464  12.921  42.219   5.160
 3362POPC   GL143465  12.801  42.139   5.637
 3362POPC   GL243466  12.943  42.387   5.866
 3362POPC   C1A43467  12.779  41.999   6.108
 3362POPC   D2A43468  12.607  42.158   6.495
 3362POPC   C3A43469  12.881  42.087   6.851
 3362POPC   C4A43470  13.243  42.046   7.115
 3362POPC   C1B43471  12.996  42.503   6.306
 3362POPC   C2B43472  12.798  42.577   6.703
 3362POPC   C3B43473  12.562  42.438   7.045
 3362POPC   C4B43474  12.882  42.447   7.337
 3363POPC   NC343475   8.639  35.939   5.463
 3363POPC   PO443476   9.321  35.775   5.340
 3363POPC   GL143477   9.147  35.983   5.769
 3363POPC   GL243478   8.849  36.228   5.882
 3363POPC   C1A43479   9.223  36.154   6.186
 3363POPC   D2A43480   9.170  35.927   6.549
 3363POPC   C3A43481   9.121  36.074   6.967
 3363POPC   C4A43482   8.755  36.206   7.196
 3363POPC   C1B43483   8.728  36.188   6.310
 3363POPC   C2B43484   8.669  36.060   6.711
 3363POPC   C3B43485   8.757  35.718   6.955
 3363POPC   C4B43486   8.791  35.617   7.375
 3364POPC   NC343487  24.740  24.368   5.441
 3364POPC   PO443488  24.261  24.824   5.593
 3364POPC   GL143489  24.133  24.493   5.870
 3364POPC   GL243490  24.447  24.344   5.974
 3364POPC   C1A43491  24.060  24.492   6.321
 3364POPC   D2A43492  24.358  24.311   6.592
 3364POPC   C3A43493  24.366  24.345   7.016
 3364POPC   C4A43494  24.233  24.723   7.243
 3364POPC   C1B43495  24.760  24.199   6.307
 3364POPC   C2B43496  24.858  24.260   6.768
 3364POPC   C3B43497  24.808  24.191   7.231
 3364POPC   C4B43498  24.821  24.148   7.667
 3365POPC   NC343499  33.423  28.120   5.448
 3365POPC   PO443500  32.849  27.740   5.452
 3365POPC   GL143501  32.976  27.574   5.897
 3365POPC   GL243502  33.256  27.305   5.956
 3365POPC   C1A43503  32.948  27.475   6.354
 3365POPC   D2A43504  32.876  27.771   6.677
 3365POPC   C3A43505  33.101  27.905   7.022
 3365POPC   C4A43506  32.866  27.647   7.229
 3365POPC   C1B43507  33.400  27.686   6.172
 3365POPC   C2B43508  33.380  27.788   6.586
 3365POPC   C3B43509  33.381  27.475   6.913
 3365POPC   C4B43510  33.341  27.541   7.349
 3366POPC   NC343511  30.330  43.202   5.518
 3366POPC   PO443512  29.768  42.961   5.303
 3366POPC   GL143513  29.842  43.214   5.674
 3366POPC   GL243514  29.956  42.901   5.810
 3366POPC   C1A43515  30.061  43.317   6.092
 3366POPC   D2A43516  30.196  43.383   6.494
 3366POPC   C3A43517  30.125  43.155   6.869
 3366POPC   C4A43518  30.262  43.280   7.273
 3366POPC   C1B43519  29.609  43.077   6.100
 3366POPC   C2B43520  29.477  43.065   6.518
 3366POPC   C3B43521  29.555  42.932   6.922
 3366POPC   C4B43522  29.757  43.135   7.232
 3367POPC   NC343523  22.018  29.502   5.219
 3367POPC   PO443524  22.243  28.880   5.400
 3367POPC   GL143525  22.131  29.116   5.754
 3367POPC   GL243526  22.330  29.372   5.656
 3367POPC   C1A43527  22.110  28.995   6.214
 3367POPC   D2A43528  21.755  28.968   6.525
 3367POPC   C3A43529  21.825  29.135   6.946
 3367POPC   C4A43530  22.170  28.882   7.081
 3367POPC   C1B43531  22.356  29.442   6.098
 3367POPC   C2B43532  22.449  29.284   6.522
 3367POPC   C3B43533  22.345  29.350   6.944
 3367POPC   C4B43534  22.409  29.717   7.192
 3368POPC   NC343535   6.194   6.896   5.402
 3368POPC   PO443536   6.759   6.446   5.448
 3368POPC   GL143537   6.821   6.645   5.849
 3368POPC   GL243538   6.516   6.869   5.820
 3368POPC   C1A43539   6.803   6.531   6.279
 3368POPC   D2A43540   6.660   6.748   6.633
 3368POPC   C3A43541   6.748   6.574   7.050
 3368POPC   C4A43542   6.789   6.745   7.476
 3368POPC   C1B43543   6.356   6.487   6.012
 3368POPC   C2B43544   6.274   6.394   6.448
 3368POPC   C3B43545   6.223   6.430   6.913
 3368POPC   C4B43546   6.314   6.735   7.262
 3369POPC   NC343547  34.343  24.679   5.518
 3369POPC   PO443548  34.869  24.325   5.617
 3369POPC   GL143549  34.591  24.441   5.925
 3369POPC   GL243550  34.691  24.758   5.941
 3369POPC   C1A43551  34.558  24.381   6.372
 3369POPC   D2A43552  34.814  24.291   6.739
 3369POPC   C3A43553  34.630  24.215   7.161
 3369POPC   C4A43554  34.749  24.217   7.602
 3369POPC   C1B43555  34.269  24.769   6.178
 3369POPC   C2B43556  34.189  24.656   6.613
 3369POPC   C3B43557  34.491  24.646   6.934
 3369POPC   C4B43558  34.560  24.801   7.328
 3370POPC   NC343559  40.202  26.797   5.443
 3370POPC   PO443560  39.986  26.200   5.184
 3370POPC   GL143561  39.799  26.510   5.620
 3370POPC   GL243562  39.809  26.902   5.722
 3370POPC   C1A43563  39.871  26.561   6.125
 3370POPC   D2A43564  39.879  26.371   6.580
 3370POPC   C3A43565  39.928  26.642   6.953
 3370POPC   C4A43566  39.857  26.478   7.369
 3370POPC   C1B43567  40.037  27.078   6.104
 3370POPC   C2B43568  40.077  27.152   6.566
 3370POPC   C3B43569  40.342  27.013   6.936
 3370POPC   C4B43570  40.539  27.081   7.353
 3371POPC   NC343571   7.876   1.883   5.545
 3371POPC   PO443572   7.304   2.257   5.543
 3371POPC   GL143573   7.335   1.942   5.862
 3371POPC   GL243574   7.057   1.692   5.805
 3371POPC   C1A43575   7.540   1.919   6.284
 3371POPC   D2A43576   7.667   2.068   6.700
 3371POPC   C3A43577   7.504   1.889   7.032
 3371POPC   C4A43578   7.435   2.226   7.260
 3371POPC   C1B43579   7.194   1.535   6.221
 3371POPC   C2B43580   7.355   1.555   6.647
 3371POPC   C3B43581   7.110   1.577   7.041
 3371POPC   C4B43582   7.155   1.813   7.435
 3372POPC   NC343583  32.783   7.942   5.422
 3372POPC   PO443584  33.480   7.996   5.420
 3372POPC   GL143585  33.374   8.242   5.781
 3372POPC   GL243586  32.989   8.280   5.832
 3372POPC   C1A43587  33.328   8.154   6.199
 3372POPC   D2A43588  33.050   8.204   6.526
 3372POPC   C3A43589  33.269   8.122   6.889
 3372POPC   C4A43590  33.151   8.122   7.319
 3372POPC   C1B43591  32.764   8.507   6.197
 3372POPC   C2B43592  32.650   8.514   6.660
 3372POPC   C3B43593  32.712   8.305   7.066
 3372POPC   C4B43594  32.414   8.366   7.395
 3373POPC   NC343595  26.006  23.221   5.415
 3373POPC   PO443596  26.131  22.614   5.730
 3373POPC   GL143597  26.126  23.049   5.908
 3373POPC   GL243598  25.763  23.133   5.871
 3373POPC   C1A43599  26.199  23.087   6.365
 3373POPC   D2A43600  26.124  22.742   6.649
 3373POPC   C3A43601  26.096  22.831   7.043
 3373POPC   C4A43602  25.832  22.659   7.296
 3373POPC   C1B43603  25.769  23.349   6.287
 3373POPC   C2B43604  25.853  23.259   6.774
 3373POPC   C3B43605  25.707  23.250   7.252
 3373POPC   C4B43606  25.597  23.446   7.706
 3374POPC   NC343607   3.901   3.047   5.444
 3374POPC   PO443608   4.381   3.443   5.536
 3374POPC   GL143609   4.382   3.374   5.912
 3374POPC   GL243610   4.102   3.123   5.918
 3374POPC   C1A43611   4.455   3.671   6.252
 3374POPC   D2A43612   4.757   3.761   6.568
 3374POPC   C3A43613   4.514   3.810   6.920
 3374POPC   C4A43614   4.377   3.621   7.233
 3374POPC   C1B43615   4.095   3.311   6.307
 3374POPC   C2B43616   4.066   3.592   6.620
 3374POPC   C3B43617   4.048   3.359   6.984
 3374POPC   C4B43618   4.178   3.172   7.379
 3375POPC   NC343619  22.400  35.652   5.406
 3375POPC   PO443620  22.375  36.340   5.377
 3375POPC   GL143621  22.263  36.237   5.785
 3375POPC   GL243622  22.511  35.992   5.786
 3375POPC   C1A43623  22.124  36.314   6.228
 3375POPC   D2A43624  22.055  36.074   6.604
 3375POPC   C3A43625  22.105  36.215   7.025
 3375POPC   C4A43626  21.965  36.042   7.430
 3375POPC   C1B43627  22.312  35.833   6.170
 3375POPC   C2B43628  22.367  35.661   6.633
 3375POPC   C3B43629  22.360  35.789   7.079
 3375POPC   C4B43630  22.448  35.864   7.533
 3376POPC   NC343631  27.904  12.117   5.500
 3376POPC   PO443632  28.503  11.738   5.356
 3376POPC   GL143633  28.415  11.977   5.725
 3376POPC   GL243634  28.225  12.270   5.875
 3376POPC   C1A43635  28.545  11.973   6.147
 3376POPC   D2A43636  28.529  12.151   6.540
 3376POPC   C3A43637  28.426  11.931   6.911
 3376POPC   C4A43638  28.677  11.759   7.202
 3376POPC   C1B43639  28.063  12.197   6.315
 3376POPC   C2B43640  28.067  12.265   6.780
 3376POPC   C3B43641  28.309  12.355   7.197
 3376POPC   C4B43642  28.122  12.372   7.631
 3377POPC   NC343643   4.706   1.090   5.048
 3377POPC   PO443644   5.145   1.410   5.545
 3377POPC   GL143645   5.127   1.120   5.832
 3377POPC   GL243646   4.813   1.011   5.776
 3377POPC   C1A43647   5.301   1.172   6.212
 3377POPC   D2A43648   5.130   1.418   6.564
 3377POPC   C3A43649   5.371   1.605   6.870
 3377POPC   C4A43650   5.480   1.453   7.232
 3377POPC   C1B43651   4.790   1.159   6.233
 3377POPC   C2B43652   4.709   1.172   6.696
 3377POPC   C3B43653   5.006   1.228   7.043
 3377POPC   C4B43654   4.905   1.143   7.477
 3378POPC   NC343655  35.486  24.843   5.601
 3378POPC   PO443656  35.563  25.530   5.411
 3378POPC   GL143657  35.399  25.324   5.808
 3378POPC   GL243658  35.118  25.092   5.837
 3378POPC   C1A43659  35.518  25.295   6.248
 3378POPC   D2A43660  35.528  25.536   6.639
 3378POPC   C3A43661  35.452  25.369   7.052
 3378POPC   C4A43662  35.665  25.644   7.310
 3378POPC   C1B43663  35.098  24.941   6.243
 3378POPC   C2B43664  35.212  25.100   6.638
 3378POPC   C3B43665  35.559  24.914   6.866
 3378POPC   C4B43666  35.461  24.845   7.266
 3379POPC   NC343667   5.365  16.267   5.114
 3379POPC   PO443668   4.968  16.678   5.474
 3379POPC   GL143669   5.107  16.824   5.851
 3379POPC   GL243670   4.781  16.971   5.907
 3379POPC   C1A43671   5.325  16.660   6.198
 3379POPC   D2A43672   5.329  16.729   6.605
 3379POPC   C3A43673   5.395  16.411   6.874
 3379POPC   C4A43674   5.226  16.548   7.246
 3379POPC   C1B43675   4.855  16.830   6.340
 3379POPC   C2B43676   4.922  16.988   6.763
 3379POPC   C3B43677   4.799  16.862   7.178
 3379POPC   C4B43678   4.921  16.796   7.584
 3380POPC   NC343679  42.704  29.257   5.596
 3380POPC   PO443680  42.069  29.265   5.366
 3380POPC   GL143681  42.237  29.187   5.865
 3380POPC   GL243682  42.519  28.940   5.930
 3380POPC   C1A43683  42.181  28.972   6.313
 3380POPC   D2A43684  42.155  28.892   6.788
 3380POPC   C3A43685  42.290  29.201   7.164
 3380POPC   C4A43686  42.027  29.405   7.527
 3380POPC   C1B43687  42.659  28.728   6.285
 3380POPC   C2B43688  42.675  28.888   6.660
 3380POPC   C3B43689  42.815  28.783   7.028
 3380POPC   C4B43690  42.720  29.006   7.355
 3381POPC   NC343691  21.008  28.269   5.498
 3381POPC   PO443692  20.398  28.207   5.520
 3381POPC   GL143693  20.613  28.347   5.896
 3381POPC   GL243694  20.915  28.590   5.886
 3381POPC   C1A43695  20.341  28.406   6.282
 3381POPC   D2A43696  20.188  28.633   6.686
 3381POPC   C3A43697  20.377  28.504   7.102
 3381POPC   C4A43698  20.481  28.147   7.378
 3381POPC   C1B43699  20.817  28.607   6.343
 3381POPC   C2B43700  20.639  28.338   6.690
 3381POPC   C3B43701  20.873  28.289   7.057
 3381POPC   C4B43702  21.106  28.635   7.156
 3382POPC   NC343703  27.947  19.985   5.561
 3382POPC   PO443704  28.578  19.815   5.673
 3382POPC   GL143705  28.250  19.927   5.958
 3382POPC   GL243706  28.236  20.250   6.040
 3382POPC   C1A43707  27.952  19.916   6.329
 3382POPC   D2A43708  27.902  20.055   6.765
 3382POPC   C3A43709  28.238  19.834   6.979
 3382POPC   C4A43710  28.572  19.572   7.182
 3382POPC   C1B43711  28.592  20.077   6.303
 3382POPC   C2B43712  28.683  19.867   6.694
 3382POPC   C3B43713  28.690  20.070   7.097
 3382POPC   C4B43714  28.563  20.186   7.512
 3383POPC   NC343715   9.590  21.681   5.450
 3383POPC   PO443716  10.008  21.142   5.308
 3383POPC   GL143717   9.856  21.271   5.744
 3383POPC   GL243718   9.896  21.621   5.860
 3383POPC   C1A43719   9.749  21.112   6.187
 3383POPC   D2A43720   9.577  20.980   6.599
 3383POPC   C3A43721   9.757  21.059   6.993
 3383POPC   C4A43722   9.653  21.202   7.429
 3383POPC   C1B43723   9.577  21.600   6.196
 3383POPC   C2B43724   9.366  21.455   6.575
 3383POPC   C3B43725   9.514  21.542   6.996
 3383POPC   C4B43726   9.631  21.711   7.393
 3384POPC   NC343727   2.457  33.518   5.129
 3384POPC   PO443728   2.699  32.939   5.370
 3384POPC   GL143729   2.830  33.014   5.793
 3384POPC   GL243730   2.723  33.280   5.957
 3384POPC   C1A43731   2.916  32.872   6.232
 3384POPC   D2A43732   2.930  33.082   6.646
 3384POPC   C3A43733   2.940  32.819   7.020
 3384POPC   C4A43734   2.848  32.914   7.486
 3384POPC   C1B43735   2.486  33.189   6.328
 3384POPC   C2B43736   2.434  33.005   6.755
 3384POPC   C3B43737   2.603  33.198   7.126
 3384POPC   C4B43738   2.531  33.315   7.557
 3385POPC   NC343739   9.167  12.473   5.526
 3385POPC   PO443740   8.830  11.953   5.102
 3385POPC   GL143741   8.909  11.955   5.583
 3385POPC   GL243742   8.691  12.245   5.635
 3385POPC   C1A43743   9.015  11.855   6.077
 3385POPC   D2A43744   8.860  12.036   6.501
 3385POPC   C3A43745   9.144  12.048   6.871
 3385POPC   C4A43746   8.945  11.927   7.262
 3385POPC   C1B43747   8.706  12.278   6.074
 3385POPC   C2B43748   8.629  12.546   6.454
 3385POPC   C3B43749   8.794  12.498   6.878
 3385POPC   C4B43750   9.065  12.411   7.231
 3386POPC   NC343751  37.350  43.782   5.261
 3386POPC   PO443752  38.040  44.037   5.307
 3386POPC   GL143753  37.686  43.913   5.634
 3386POPC   GL243754  37.531  44.181   5.839
 3386POPC   C1A43755  37.642  43.754   6.089
 3386POPC   D2A43756  37.796  43.893   6.523
 3386POPC   C3A43757  37.692  43.675   6.922
 3386POPC   C4A43758  38.019  43.526   7.199
 3386POPC   C1B43759  37.851  44.262   6.159
 3386POPC   C2B43760  37.749  44.394   6.600
 3386POPC   C3B43761  37.611  44.192   6.978
 3386POPC   C4B43762  37.846  44.050   7.338
 3387POPC   NC343763  17.052  30.151   5.518
 3387POPC   PO443764  16.484  29.651   5.440
 3387POPC   GL143765  16.717  29.782   5.808
 3387POPC   GL243766  16.640  30.123   5.857
 3387POPC   C1A43767  16.678  29.825   6.274
 3387POPC   D2A43768  16.512  29.541   6.574
 3387POPC   C3A43769  16.600  29.696   6.958
 3387POPC   C4A43770  16.957  29.701   7.214
 3387POPC   C1B43771  16.845  30.308   6.226
 3387POPC   C2B43772  16.855  30.157   6.674
 3387POPC   C3B43773  16.773  30.178   7.124
 3387POPC   C4B43774  17.097  30.240   7.474
 3388POPC   NC343775  36.635  23.325   5.380
 3388POPC   PO443776  37.204  23.674   5.667
 3388POPC   GL143777  36.743  23.662   5.758
 3388POPC   GL243778  36.530  23.979   5.737
 3388POPC   C1A43779  36.606  23.433   6.127
 3388POPC   D2A43780  36.867  23.421   6.499
 3388POPC   C3A43781  36.779  23.521   6.899
 3388POPC   C4A43782  36.985  23.655   7.243
 3388POPC   C1B43783  36.650  23.959   6.191
 3388POPC   C2B43784  36.542  23.880   6.623
 3388POPC   C3B43785  36.660  23.991   7.053
 3388POPC   C4B43786  36.551  23.819   7.465
 3389POPC   NC343787  32.121  25.010   5.537
 3389POPC   PO443788  32.587  25.479   5.424
 3389POPC   GL143789  32.527  25.573   5.865
 3389POPC   GL243790  32.282  25.337   5.918
 3389POPC   C1A43791  32.544  25.523   6.325
 3389POPC   D2A43792  32.280  25.311   6.565
 3389POPC   C3A43793  32.261  25.460   6.973
 3389POPC   C4A43794  31.982  25.280   7.220
 3389POPC   C1B43795  32.355  24.971   6.173
 3389POPC   C2B43796  32.341  24.756   6.543
 3389POPC   C3B43797  32.229  24.925   6.919
 3389POPC   C4B43798  32.452  25.002   7.276
 3390POPC   NC343799  17.584  25.191   5.346
 3390POPC   PO443800  18.120  25.500   5.531
 3390POPC   GL143801  17.681  25.433   5.797
 3390POPC   GL243802  17.306  25.239   5.764
 3390POPC   C1A43803  17.542  25.276   6.218
 3390POPC   D2A43804  17.477  25.073   6.620
 3390POPC   C3A43805  17.473  25.346   6.988
 3390POPC   C4A43806  17.647  25.375   7.420
 3390POPC   C1B43807  17.080  25.074   6.159
 3390POPC   C2B43808  17.001  25.254   6.560
 3390POPC   C3B43809  17.052  24.964   6.893
 3390POPC   C4B43810  17.223  25.026   7.293
 3391POPC   NC343811   8.114  41.636   5.489
 3391POPC   PO443812   7.857  40.961   5.369
 3391POPC   GL143813   7.929  41.201   5.728
 3391POPC   GL243814   8.261  41.256   5.815
 3391POPC   C1A43815   7.880  41.455   6.113
 3391POPC   D2A43816   8.067  41.529   6.508
 3391POPC   C3A43817   7.926  41.669   6.888
 3391POPC   C4A43818   8.178  41.552   7.226
 3391POPC   C1B43819   8.426  41.475   6.166
 3391POPC   C2B43820   8.584  41.611   6.588
 3391POPC   C3B43821   8.678  41.443   6.972
 3391POPC   C4B43822   8.655  41.624   7.348
 3392POPC   NC343823  29.246  14.123   5.463
 3392POPC   PO443824  28.850  14.603   5.653
 3392POPC   GL143825  29.049  14.302   5.881
 3392POPC   GL243826  28.805  14.037   5.862
 3392POPC   C1A43827  29.249  14.424   6.238
 3392POPC   D2A43828  28.987  14.704   6.475
 3392POPC   C3A43829  29.093  14.682   6.900
 3392POPC   C4A43830  29.467  14.490   7.059
 3392POPC   C1B43831  28.780  14.227   6.298
 3392POPC   C2B43832  29.086  14.156   6.634
 3392POPC   C3B43833  29.060  14.189   7.057
 3392POPC   C4B43834  28.909  13.998   7.378
 3393POPC   NC343835  19.837  30.124   5.384
 3393POPC   PO443836  19.820  29.503   5.188
 3393POPC   GL143837  19.747  29.704   5.659
 3393POPC   GL243838  19.561  30.044   5.784
 3393POPC   C1A43839  19.915  29.858   6.082
 3393POPC   D2A43840  20.086  30.109   6.418
 3393POPC   C3A43841  20.229  29.848   6.769
 3393POPC   C4A43842  19.949  29.640   7.091
 3393POPC   C1B43843  19.590  30.229   6.208
 3393POPC   C2B43844  19.591  29.944   6.555
 3393POPC   C3B43845  19.514  29.883   6.991
 3393POPC   C4B43846  19.644  30.252   7.231
 3394POPC   NC343847  20.611  34.961   5.384
 3394POPC   PO443848  21.009  34.458   5.320
 3394POPC   GL143849  20.816  34.543   5.730
 3394POPC   GL243850  20.484  34.632   5.809
 3394POPC   C1A43851  20.745  34.437   6.214
 3394POPC   D2A43852  20.543  34.311   6.625
 3394POPC   C3A43853  20.380  34.510   7.002
 3394POPC   C4A43854  20.614  34.447   7.352
 3394POPC   C1B43855  20.805  34.913   6.062
 3394POPC   C2B43856  20.996  34.806   6.486
 3394POPC   C3B43857  20.847  34.677   6.873
 3394POPC   C4B43858  20.929  34.836   7.255
 3395POPC   NC343859  15.823  16.751   5.420
 3395POPC   PO443860  16.140  16.276   5.475
 3395POPC   GL143861  16.010  16.295   5.867
 3395POPC   GL243862  16.032  16.662   5.887
 3395POPC   C1A43863  15.861  16.322   6.306
 3395POPC   D2A43864  15.549  16.529   6.594
 3395POPC   C3A43865  15.735  16.595   7.012
 3395POPC   C4A43866  16.183  16.600   7.165
 3395POPC   C1B43867  15.954  16.891   6.249
 3395POPC   C2B43868  15.954  16.893   6.677
 3395POPC   C3B43869  16.038  17.095   7.063
 3395POPC   C4B43870  16.445  17.066   7.231
 3396POPC   NC343871  19.152  10.594   5.410
 3396POPC   PO443872  19.577  10.175   5.763
 3396POPC   GL143873  19.113  10.258   5.822
 3396POPC   GL243874  18.972  10.624   5.871
 3396POPC   C1A43875  18.917  10.290   6.235
 3396POPC   D2A43876  18.988  10.544   6.612
 3396POPC   C3A43877  18.928  10.356   7.017
 3396POPC   C4A43878  19.190  10.417   7.386
 3396POPC   C1B43879  18.695  10.757   6.228
 3396POPC   C2B43880  18.626  10.911   6.651
 3396POPC   C3B43881  18.823  10.871   7.040
 3396POPC   C4B43882  18.804  11.072   7.453
 3397POPC   NC343883  20.644  43.382   5.429
 3397POPC   PO443884  20.559  42.740   5.289
 3397POPC   GL143885  20.429  42.973   5.659
 3397POPC   GL243886  20.713  43.134   5.857
 3397POPC   C1A43887  20.361  42.867   6.107
 3397POPC   D2A43888  20.480  43.037   6.505
 3397POPC   C3A43889  20.393  42.807   6.872
 3397POPC   C4A43890  20.428  42.911   7.290
 3397POPC   C1B43891  20.721  43.397   6.195
 3397POPC   C2B43892  20.695  43.496   6.624
 3397POPC   C3B43893  20.696  43.227   6.982
 3397POPC   C4B43894  20.931  43.105   7.358
 3398POPC   NC343895  35.447  34.491   5.255
 3398POPC   PO443896  35.059  34.949   5.540
 3398POPC   GL143897  35.416  34.775   5.816
 3398POPC   GL243898  35.527  34.408   5.808
 3398POPC   C1A43899  35.420  34.631   6.265
 3398POPC   D2A43900  35.146  34.497   6.624
 3398POPC   C3A43901  35.297  34.669   7.011
 3398POPC   C4A43902  35.174  34.814   7.425
 3398POPC   C1B43903  35.498  34.138   6.206
 3398POPC   C2B43904  35.582  34.264   6.633
 3398POPC   C3B43905  35.385  34.129   7.008
 3398POPC   C4B43906  35.546  34.359   7.335
 3399POPC   NC343907  21.130   8.316   5.185
 3399POPC   PO443908  21.340   7.779   5.515
 3399POPC   GL143909  21.405   8.250   5.668
 3399POPC   GL243910  21.086   8.438   5.725
 3399POPC   C1A43911  21.512   8.418   6.106
 3399POPC   D2A43912  21.413   8.204   6.512
 3399POPC   C3A43913  21.564   8.309   6.921
 3399POPC   C4A43914  21.527   8.095   7.304
 3399POPC   C1B43915  20.998   8.452   6.190
 3399POPC   C2B43916  20.895   8.274   6.607
 3399POPC   C3B43917  21.070   8.136   7.001
 3399POPC   C4B43918  21.159   8.444   7.288
 3400POPC   NC343919   0.994  29.137   5.441
 3400POPC   PO443920   1.681  29.384   5.470
 3400POPC   GL143921   1.365  29.170   5.814
 3400POPC   GL243922   0.968  29.178   5.933
 3400POPC   C1A43923   1.272  28.862   6.174
 3400POPC   D2A43924   1.342  28.979   6.600
 3400POPC   C3A43925   1.130  28.885   6.943
 3400POPC   C4A43926   1.082  28.893   7.358
 3400POPC   C1B43927   1.024  29.271   6.350
 3400POPC   C2B43928   1.009  29.362   6.761
 3400POPC   C3B43929   0.973  29.374   7.170
 3400POPC   C4B43930   0.805  29.416   7.568
 3401POPC   NC343931  14.474  37.862   5.052
 3401POPC   PO443932  14.151  37.735   5.593
 3401POPC   GL143933  14.171  37.453   5.918
 3401POPC   GL243934  14.506  37.318   5.773
 3401POPC   C1A43935  14.156  37.599   6.330
 3401POPC   D2A43936  14.369  37.963   6.493
 3401POPC   C3A43937  14.386  37.866   6.922
 3401POPC   C4A43938  14.523  37.842   7.328
 3401POPC   C1B43939  14.539  37.275   6.216
 3401POPC   C2B43940  14.580  37.467   6.621
 3401POPC   C3B43941  14.508  37.354   7.046
 3401POPC   C4B43942  14.791  37.376   7.368
 3402POPC   NC343943  12.220  32.253   5.428
 3402POPC   PO443944  11.521  32.195   5.636
 3402POPC   GL143945  11.891  32.154   5.807
 3402POPC   GL243946  11.958  32.501   5.784
 3402POPC   C1A43947  12.146  32.199   6.173
 3402POPC   D2A43948  12.156  31.941   6.532
 3402POPC   C3A43949  12.315  32.166   6.869
 3402POPC   C4A43950  12.264  32.024   7.270
 3402POPC   C1B43951  11.737  32.494   6.177
 3402POPC   C2B43952  11.872  32.581   6.582
 3402POPC   C3B43953  11.674  32.578   6.973
 3402POPC   C4B43954  12.013  32.453   7.226
 3403POPC   NC343955  21.743   8.846   5.616
 3403POPC   PO443956  21.174   8.755   5.299
 3403POPC   GL143957  21.245   8.943   5.727
 3403POPC   GL243958  21.489   9.218   5.860
 3403POPC   C1A43959  21.240   8.903   6.182
 3403POPC   D2A43960  21.506   8.721   6.538
 3403POPC   C3A43961  21.395   8.770   6.977
 3403POPC   C4A43962  21.144   8.986   7.292
 3403POPC   C1B43963  21.720   9.118   6.234
 3403POPC   C2B43964  21.437   9.233   6.513
 3403POPC   C3B43965  21.352   9.246   6.868
 3403POPC   C4B43966  21.620   9.166   7.222
 3404POPC   NC343967   9.601  15.403   5.687
 3404POPC   PO443968   9.686  15.938   5.325
 3404POPC   GL143969   9.981  16.040   5.687
 3404POPC   GL243970   9.979  15.725   5.842
 3404POPC   C1A43971  10.036  16.184   6.152
 3404POPC   D2A43972   9.807  16.229   6.599
 3404POPC   C3A43973   9.976  16.148   7.062
 3404POPC   C4A43974   9.956  16.249   7.547
 3404POPC   C1B43975   9.911  15.684   6.274
 3404POPC   C2B43976   9.563  15.746   6.564
 3404POPC   C3B43977   9.583  15.641   6.984
 3404POPC   C4B43978   9.954  15.647   7.205
 3405POPC   NC343979  32.609  28.140   5.388
 3405POPC   PO443980  33.192  28.546   5.402
 3405POPC   GL143981  33.224  28.421   5.819
 3405POPC   GL243982  33.028  28.104   5.808
 3405POPC   C1A43983  33.051  28.478   6.223
 3405POPC   D2A43984  33.071  28.243   6.595
 3405POPC   C3A43985  32.883  28.387   6.962
 3405POPC   C4A43986  33.189  28.350   7.275
 3405POPC   C1B43987  32.824  27.999   6.208
 3405POPC   C2B43988  32.505  28.089   6.560
 3405POPC   C3B43989  32.514  27.985   7.007
 3405POPC   C4B43990  32.737  28.090   7.393
 3406POPC   NC343991   9.620  34.487   5.493
 3406POPC   PO443992  10.299  34.580   5.546
 3406POPC   GL143993   9.976  34.575   5.856
 3406POPC   GL243994   9.674  34.771   5.911
 3406POPC   C1A43995   9.812  34.314   6.192
 3406POPC   D2A43996   9.879  34.179   6.629
 3406POPC   C3A43997   9.755  34.335   7.026
 3406POPC   C4A43998   9.734  34.374   7.483
 3406POPC   C1B43999   9.866  34.808   6.306
 3406POPC   C2B44000   9.906  35.087   6.612
 3406POPC   C3B44001   9.910  34.885   6.985
 3406POPC   C4B44002   9.623  34.832   7.288
 3407POPC   NC344003  39.376   1.352   5.409
 3407POPC   PO444004  38.692   1.492   5.500
 3407POPC   GL144005  39.015   1.352   5.822
 3407POPC   GL244006  39.323   1.123   5.881
 3407POPC   C1A44007  38.985   1.197   6.263
 3407POPC   D2A44008  38.667   1.016   6.554
 3407POPC   C3A44009  38.832   1.057   6.973
 3407POPC   C4A44010  39.115   1.391   7.151
 3407POPC   C1B44011  39.417   0.928   6.304
 3407POPC   C2B44012  39.346   1.078   6.747
 3407POPC   C3B44013  39.591   1.099   7.148
 3407POPC   C4B44014  39.683   0.970   7.587
 3408POPC   NC344015   9.183  33.652   5.384
 3408POPC   PO444016   8.647  34.038   5.264
 3408POPC   GL144017   8.967  34.049   5.658
 3408POPC   GL244018   9.190  33.820   5.873
 3408POPC   C1A44019   8.866  34.095   6.121
 3408POPC   D2A44020   8.926  33.799   6.477
 3408POPC   C3A44021   8.797  33.848   6.911
 3408POPC   C4A44022   8.914  33.529   7.228
 3408POPC   C1B44023   9.360  34.041   6.297
 3408POPC   C2B44024   9.253  34.144   6.742
 3408POPC   C3B44025   9.247  33.952   7.169
 3408POPC   C4B44026   9.301  34.135   7.606
 3409POPC   NC344027  25.265  39.530   5.521
 3409POPC   PO444028  24.941  38.846   5.360
 3409POPC   GL144029  25.135  39.072   5.707
 3409POPC   GL244030  25.441  39.219   5.871
 3409POPC   C1A44031  25.057  39.060   6.156
 3409POPC   D2A44032  25.065  38.748   6.479
 3409POPC   C3A44033  25.200  38.888   6.875
 3409POPC   C4A44034  25.042  39.160   7.217
 3409POPC   C1B44035  25.573  38.951   6.252
 3409POPC   C2B44036  25.746  39.107   6.649
 3409POPC   C3B44037  25.549  39.245   7.029
 3409POPC   C4B44038  25.523  39.012   7.382
 3410POPC   NC344039  17.114  14.687   5.361
 3410POPC   PO444040  17.628  15.142   5.394
 3410POPC   GL144041  17.673  15.304   5.818
 3410POPC   GL244042  17.848  15.005   5.898
 3410POPC   C1A44043  17.547  15.530   6.215
 3410POPC   D2A44044  17.691  15.500   6.661
 3410POPC   C3A44045  17.435  15.284   6.982
 3410POPC   C4A44046  17.284  14.907   7.206
 3410POPC   C1B44047  17.972  15.237   6.272
 3410POPC   C2B44048  18.022  15.095   6.701
 3410POPC   C3B44049  17.787  14.897   7.038
 3410POPC   C4B44050  17.850  14.752   7.461
 3411POPC   NC344051  21.966  28.511   5.341
 3411POPC   PO444052  22.511  28.179   5.418
 3411POPC   GL144053  22.199  28.278   5.760
 3411POPC   GL244054  22.074  28.612   5.829
 3411POPC   C1A44055  22.147  28.268   6.222
 3411POPC   D2A44056  22.157  28.597   6.545
 3411POPC   C3A44057  22.400  28.457   6.886
 3411POPC   C4A44058  22.321  28.201   7.250
 3411POPC   C1B44059  21.757  28.598   6.144
 3411POPC   C2B44060  21.668  28.406   6.542
 3411POPC   C3B44061  21.907  28.315   6.916
 3411POPC   C4B44062  21.920  28.505   7.296
 3412POPC   NC344063  13.789  36.225   5.357
 3412POPC   PO444064  13.678  36.869   5.454
 3412POPC   GL144065  13.788  36.830   5.851
 3412POPC   GL244066  13.872  36.454   5.825
 3412POPC   C1A44067  13.542  36.873   6.219
 3412POPC   D2A44068  13.367  37.112   6.567
 3412POPC   C3A44069  13.509  36.992   6.980
 3412POPC   C4A44070  13.650  37.114   7.385
 3412POPC   C1B44071  13.984  36.549   6.246
 3412POPC   C2B44072  13.826  36.743   6.637
 3412POPC   C3B44073  13.790  36.570   7.053
 3412POPC   C4B44074  13.516  36.617   7.425
 3413POPC   NC344075  10.764   7.849   5.492
 3413POPC   PO444076  10.656   7.137   5.524
 3413POPC   GL144077  10.334   7.286   5.835
 3413POPC   GL244078  10.487   7.569   5.823
 3413POPC   C1A44079  10.163   7.512   6.212
 3413POPC   D2A44080  10.339   7.384   6.625
 3413POPC   C3A44081  10.181   7.453   7.062
 3413POPC   C4A44082  10.266   7.765   7.424
 3413POPC   C1B44083  10.701   7.430   6.204
 3413POPC   C2B44084  10.802   7.184   6.584
 3413POPC   C3B44085  10.676   7.182   6.997
 3413POPC   C4B44086  10.883   6.919   7.258
 3414POPC   NC344087  24.551  14.054   5.472
 3414POPC   PO444088  24.739  14.694   5.413
 3414POPC   GL144089  24.707  14.442   5.768
 3414POPC   GL244090  24.348  14.412   5.813
 3414POPC   C1A44091  24.718  14.162   6.114
 3414POPC   D2A44092  24.540  14.095   6.530
 3414POPC   C3A44093  24.734  14.143   6.948
 3414POPC   C4A44094  24.542  14.206   7.360
 3414POPC   C1B44095  24.469  14.596   6.229
 3414POPC   C2B44096  24.391  14.734   6.642
 3414POPC   C3B44097  24.459  14.589   7.053
 3414POPC   C4B44098  24.502  14.673   7.504
 3415POPC   NC344099   0.687  41.377   5.419
 3415POPC   PO444100   0.311  41.865   5.625
 3415POPC   GL144101   0.624  41.664   5.860
 3415POPC   GL244102   0.464  41.372   5.928
 3415POPC   C1A44103   0.721  41.631   6.317
 3415POPC   D2A44104   0.451  41.692   6.715
 3415POPC   C3A44105   0.570  41.370   6.985
 3415POPC   C4A44106   0.970  41.417   7.150
 3415POPC   C1B44107   0.220  41.716   6.250
 3415POPC   C2B44108   0.053  42.037   6.573
 3415POPC   C3B44109   0.013  41.878   6.997
 3415POPC   C4B44110   0.276  41.658   7.279
 3416POPC   NC344111  38.786  18.535   5.236
 3416POPC   PO444112  38.303  18.165   5.338
 3416POPC   GL144113  38.439  18.372   5.733
 3416POPC   GL244114  38.780  18.437   5.723
 3416POPC   C1A44115  38.330  18.445   6.195
 3416POPC   D2A44116  38.290  18.154   6.533
 3416POPC   C3A44117  38.297  18.281   6.948
 3416POPC   C4A44118  38.191  17.970   7.265
 3416POPC   C1B44119  38.835  18.284   6.129
 3416POPC   C2B44120  38.777  18.425   6.540
 3416POPC   C3B44121  38.914  18.339   6.961
 3416POPC   C4B44122  38.638  18.249   7.305
 3417POPC   NC344123  13.562  29.229   5.418
 3417POPC   PO444124  14.055  28.804   5.530
 3417POPC   GL144125  13.945  29.209   5.759
 3417POPC   GL244126  14.080  29.065   6.017
 3417POPC   C1A44127  13.687  29.362   6.152
 3417POPC   D2A44128  13.510  29.170   6.537
 3417POPC   C3A44129  13.503  29.261   6.981
 3417POPC   C4A44130  13.747  29.307   7.352
 3417POPC   C1B44131  14.184  28.809   6.351
 3417POPC   C2B44132  13.860  28.774   6.626
 3417POPC   C3B44133  13.898  28.922   6.968
 3417POPC   C4B44134  14.174  28.829   7.253
 3418POPC   NC344135  16.334  39.779   5.009
 3418POPC   PO444136  15.915  39.801   5.506
 3418POPC   GL144137  16.006  39.926   5.899
 3418POPC   GL244138  15.735  39.695   5.978
 3418POPC   C1A44139  16.132  40.269   6.177
 3418POPC   D2A44140  16.150  40.046   6.543
 3418POPC   C3A44141  16.028  40.059   6.947
 3418POPC   C4A44142  16.119  39.801   7.280
 3418POPC   C1B44143  15.580  40.080   6.202
 3418POPC   C2B44144  15.377  40.209   6.601
 3418POPC   C3B44145  15.527  40.064   7.005
 3418POPC   C4B44146  15.734  40.113   7.387
 3419POPC   NC344147  10.977  27.015   5.478
 3419POPC   PO444148  10.446  26.597   5.491
 3419POPC   GL144149  10.342  26.770   5.841
 3419POPC   GL244150  10.706  26.794   5.923
 3419POPC   C1A44151  10.340  26.718   6.282
 3419POPC   D2A44152  10.466  26.940   6.620
 3419POPC   C3A44153  10.350  26.735   6.965
 3419POPC   C4A44154  10.548  26.564   7.313
 3419POPC   C1B44155  10.833  27.072   6.270
 3419POPC   C2B44156  10.752  27.357   6.603
 3419POPC   C3B44157  10.888  27.391   7.023
 3419POPC   C4B44158  11.039  27.068   7.287
 3420POPC   NC344159  29.467  40.072   5.629
 3420POPC   PO444160  29.712  39.880   5.074
 3420POPC   GL144161  29.950  39.995   5.550
 3420POPC   GL244162  29.798  39.745   5.832
 3420POPC   C1A44163  30.164  40.084   5.998
 3420POPC   D2A44164  30.237  40.116   6.479
 3420POPC   C3A44165  30.035  39.854   6.815
 3420POPC   C4A44166  29.870  39.788   7.258
 3420POPC   C1B44167  29.792  39.862   6.278
 3420POPC   C2B44168  29.620  40.108   6.591
 3420POPC   C3B44169  29.529  40.124   6.980
 3420POPC   C4B44170  29.759  40.277   7.282
 3421POPC   NC344171  10.682  38.882   5.363
 3421POPC   PO444172  10.392  39.484   5.148
 3421POPC   GL144173  10.267  39.390   5.575
 3421POPC   GL244174  10.268  39.030   5.687
 3421POPC   C1A44175  10.256  39.438   6.045
 3421POPC   D2A44176  10.062  39.235   6.429
 3421POPC   C3A44177  10.292  39.268   6.805
 3421POPC   C4A44178  10.463  39.201   7.196
 3421POPC   C1B44179  10.438  38.953   6.146
 3421POPC   C2B44180  10.724  39.063   6.521
 3421POPC   C3B44181  10.837  38.881   6.939
 3421POPC   C4B44182  10.902  39.023   7.356
 3422POPC   NC344183   9.974  13.269   5.442
 3422POPC   PO444184   9.461  12.834   5.385
 3422POPC   GL144185   9.632  12.721   5.777
 3422POPC   GL244186   9.985  12.851   5.759
 3422POPC   C1A44187   9.581  12.860   6.211
 3422POPC   D2A44188   9.442  13.047   6.603
 3422POPC   C3A44189   9.642  12.797   6.928
 3422POPC   C4A44190   9.546  12.667   7.306
 3422POPC   C1B44191  10.099  12.813   6.166
 3422POPC   C2B44192   9.977  12.928   6.572
 3422POPC   C3B44193  10.096  13.013   6.992
 3422POPC   C4B44194  10.149  12.843   7.413
 3423POPC   NC344195  31.039  20.819   5.300
 3423POPC   PO444196  30.514  20.452   5.523
 3423POPC   GL144197  30.767  20.667   5.816
 3423POPC   GL244198  30.946  20.376   5.874
 3423POPC   C1A44199  30.664  20.671   6.279
 3423POPC   D2A44200  30.766  20.349   6.613
 3423POPC   C3A44201  30.692  20.491   7.052
 3423POPC   C4A44202  30.349  20.322   7.283
 3423POPC   C1B44203  31.153  20.644   6.169
 3423POPC   C2B44204  31.233  20.545   6.599
 3423POPC   C3B44205  31.166  20.746   6.978
 3423POPC   C4B44206  31.025  20.746   7.394
 3424POPC   NC344207  12.782  15.604   5.176
 3424POPC   PO444208  13.002  14.996   5.144
 3424POPC   GL144209  12.775  15.071   5.579
 3424POPC   GL244210  12.793  15.411   5.699
 3424POPC   C1A44211  12.848  15.043   6.065
 3424POPC   D2A44212  13.035  15.147   6.494
 3424POPC   C3A44213  12.961  15.013   6.949
 3424POPC   C4A44214  12.754  15.000   7.387
 3424POPC   C1B44215  13.003  15.538   6.071
 3424POPC   C2B44216  12.991  15.671   6.490
 3424POPC   C3B44217  13.091  15.510   6.879
 3424POPC   C4B44218  12.739  15.434   7.153
 3425POPC   NC344219   9.496  42.567   5.437
 3425POPC   PO444220   9.936  41.986   5.270
 3425POPC   GL144221   9.824  42.236   5.642
 3425POPC   GL244222   9.542  42.164   5.751
 3425POPC   C1A44223   9.773  42.465   6.075
 3425POPC   D2A44224  10.019  42.428   6.428
 3425POPC   C3A44225   9.847  42.407   6.819
 3425POPC   C4A44226   9.777  42.342   7.252
 3425POPC   C1B44227   9.467  42.036   6.126
 3425POPC   C2B44228   9.484  42.213   6.501
 3425POPC   C3B44229   9.528  41.974   6.875
 3425POPC   C4B44230   9.485  41.946   7.299
 3426POPC   NC344231   4.941  32.999   5.311
 3426POPC   PO444232   5.409  33.347   5.749
 3426POPC   GL144233   5.044  33.071   5.813
 3426POPC   GL244234   5.076  32.693   5.691
 3426POPC   C1A44235   4.761  33.078   6.187
 3426POPC   D2A44236   4.801  32.901   6.620
 3426POPC   C3A44237   5.172  33.057   6.860
 3426POPC   C4A44238   5.204  33.283   7.247
 3426POPC   C1B44239   5.326  32.653   6.065
 3426POPC   C2B44240   5.215  32.598   6.500
 3426POPC   C3B44241   5.084  32.555   6.897
 3426POPC   C4B44242   5.378  32.690   7.213
 3427POPC   NC344243  34.579   6.267   5.492
 3427POPC   PO444244  34.599   5.593   5.405
 3427POPC   GL144245  34.634   5.842   5.750
 3427POPC   GL244246  34.943   5.752   5.825
 3427POPC   C1A44247  34.436   5.834   6.130
 3427POPC   D2A44248  34.296   5.548   6.442
 3427POPC   C3A44249  34.330   5.695   6.890
 3427POPC   C4A44250  34.296   5.859   7.315
 3427POPC   C1B44251  34.938   5.995   6.169
 3427POPC   C2B44252  34.737   6.041   6.546
 3427POPC   C3B44253  34.807   5.905   6.956
 3427POPC   C4B44254  34.872   6.079   7.312
 3428POPC   NC344255  29.274  24.274   5.371
 3428POPC   PO444256  28.590  24.158   5.302
 3428POPC   GL144257  28.862  24.272   5.748
 3428POPC   GL244258  29.171  24.548   5.790
 3428POPC   C1A44259  29.004  24.312   6.245
 3428POPC   D2A44260  29.052  24.530   6.682
 3428POPC   C3A44261  29.146  24.277   7.079
 3428POPC   C4A44262  29.043  24.182   7.543
 3428POPC   C1B44263  29.331  24.724   6.198
 3428POPC   C2B44264  29.538  24.688   6.618
 3428POPC   C3B44265  29.436  24.731   7.073
 3428POPC   C4B44266  28.990  24.735   7.203
 3429POPC   NC344267  10.270  23.838   5.430
 3429POPC   PO444268  10.811  23.491   5.407
 3429POPC   GL144269  10.606  23.649   5.783
 3429POPC   GL244270  10.582  24.043   5.784
 3429POPC   C1A44271  10.531  23.759   6.208
 3429POPC   D2A44272  10.343  23.665   6.575
 3429POPC   C3A44273  10.679  23.678   6.834
 3429POPC   C4A44274  10.498  23.676   7.223
 3429POPC   C1B44275  10.289  24.197   6.114
 3429POPC   C2B44276  10.382  24.194   6.527
 3429POPC   C3B44277  10.369  24.082   6.923
 3429POPC   C4B44278  10.289  24.130   7.336
 3430POPC   NC344279  27.452  30.030   5.277
 3430POPC   PO444280  27.937  30.382   5.587
 3430POPC   GL144281  27.592  30.130   5.780
 3430POPC   GL244282  27.569  29.747   5.688
 3430POPC   C1A44283  27.647  30.129   6.217
 3430POPC   D2A44284  27.777  29.947   6.596
 3430POPC   C3A44285  27.763  30.142   7.023
 3430POPC   C4A44286  28.091  30.198   7.351
 3430POPC   C1B44287  27.328  29.756   6.066
 3430POPC   C2B44288  27.264  29.877   6.498
 3430POPC   C3B44289  27.399  29.780   6.903
 3430POPC   C4B44290  27.396  29.664   7.315
 3431POPC   NC344291  18.299  28.152   5.320
 3431POPC   PO444292  17.712  28.451   5.388
 3431POPC   GL144293  18.006  28.268   5.752
 3431POPC   GL244294  18.384  28.372   5.780
 3431POPC   C1A44295  18.150  28.146   6.187
 3431POPC   D2A44296  18.446  28.263   6.515
 3431POPC   C3A44297  18.395  28.085   6.904
 3431POPC   C4A44298  18.224  28.042   7.288
 3431POPC   C1B44299  18.334  28.650   6.145
 3431POPC   C2B44300  18.188  28.725   6.544
 3431POPC   C3B44301  18.063  28.489   6.882
 3431POPC   C4B44302  18.074  28.552   7.298
 3432POPC   NC344303  27.267  38.291   5.571
 3432POPC   PO444304  27.878  38.404   5.263
 3432POPC   GL144305  27.713  38.416   5.740
 3432POPC   GL244306  27.833  38.194   5.985
 3432POPC   C1A44307  27.443  38.639   6.113
 3432POPC   D2A44308  27.190  38.542   6.540
 3432POPC   C3A44309  27.332  38.637   6.985
 3432POPC   C4A44310  27.804  38.612   7.091
 3432POPC   C1B44311  27.407  38.156   6.238
 3432POPC   C2B44312  27.286  38.006   6.579
 3432POPC   C3B44313  27.490  38.172   6.903
 3432POPC   C4B44314  27.403  38.207   7.323
 3433POPC   NC344315   7.032  38.564   5.500
 3433POPC   PO444316   7.695  38.349   5.704
 3433POPC   GL144317   7.334  38.506   5.916
 3433POPC   GL244318   7.148  38.184   5.838
 3433POPC   C1A44319   7.202  38.718   6.320
 3433POPC   D2A44320   7.195  38.642   6.800
 3433POPC   C3A44321   7.614  38.517   7.009
 3433POPC   C4A44322   7.985  38.726   7.169
 3433POPC   C1B44323   6.968  38.259   6.237
 3433POPC   C2B44324   6.969  38.070   6.653
 3433POPC   C3B44325   6.961  38.253   7.057
 3433POPC   C4B44326   7.229  38.486   7.341
 3434POPC   NC344327  17.306  42.999   5.497
 3434POPC   PO444328  17.944  42.733   5.426
 3434POPC   GL144329  17.702  42.880   5.815
 3434POPC   GL244330  17.669  43.228   5.797
 3434POPC   C1A44331  17.349  42.839   6.170
 3434POPC   D2A44332  17.163  43.079   6.535
 3434POPC   C3A44333  17.102  42.927   6.967
 3434POPC   C4A44334  17.386  42.624   7.185
 3434POPC   C1B44335  17.506  43.311   6.224
 3434POPC   C2B44336  17.452  43.613   6.544
 3434POPC   C3B44337  17.432  43.487   6.952
 3434POPC   C4B44338  17.541  43.103   7.136
 3435POPC   NC344339  39.043  17.769   5.229
 3435POPC   PO444340  39.652  17.965   5.242
 3435POPC   GL144341  39.487  17.671   5.600
 3435POPC   GL244342  39.142  17.602   5.708
 3435POPC   C1A44343  39.453  17.466   6.055
 3435POPC   D2A44344  39.228  17.607   6.418
 3435POPC   C3A44345  39.464  17.497   6.778
 3435POPC   C4A44346  39.342  17.437   7.203
 3435POPC   C1B44347  38.951  17.300   6.070
 3435POPC   C2B44348  38.775  17.365   6.492
 3435POPC   C3B44349  38.949  17.465   6.890
 3435POPC   C4B44350  38.851  17.271   7.308
 3436POPC   NC344351  17.460  10.806   5.607
 3436POPC   PO444352  17.844  10.257   5.371
 3436POPC   GL144353  17.639  10.318   5.762
 3436POPC   GL244354  17.853  10.609   5.857
 3436POPC   C1A44355  17.454  10.451   6.179
 3436POPC   D2A44356  17.483  10.593   6.621
 3436POPC   C3A44357  17.385  10.350   6.992
 3436POPC   C4A44358  17.339  10.533   7.376
 3436POPC   C1B44359  17.934  10.755   6.280
 3436POPC   C2B44360  17.865  10.910   6.714
 3436POPC   C3B44361  17.770  10.681   7.099
 3436POPC   C4B44362  17.743  10.766   7.578
 3437POPC   NC344363  12.422  31.567   5.376
 3437POPC   PO444364  11.913  31.952   5.229
 3437POPC   GL144365  12.012  31.664   5.688
 3437POPC   GL244366  12.252  31.368   5.816
 3437POPC   C1A44367  11.843  31.503   6.132
 3437POPC   D2A44368  11.898  31.288   6.560
 3437POPC   C3A44369  11.997  31.488   6.960
 3437POPC   C4A44370  11.879  31.706   7.342
 3437POPC   C1B44371  12.229  31.094   6.240
 3437POPC   C2B44372  12.406  31.193   6.698
 3437POPC   C3B44373  12.446  31.210   7.176
 3437POPC   C4B44374  12.205  31.359   7.508
 3438POPC   NC344375   9.062  31.353   5.197
 3438POPC   PO444376   8.482  31.287   5.170
 3438POPC   GL144377   8.727  31.477   5.567
 3438POPC   GL244378   8.950  31.767   5.573
 3438POPC   C1A44379   8.949  31.450   6.010
 3438POPC   D2A44380   8.794  31.543   6.451
 3438POPC   C3A44381   8.925  31.407   6.891
 3438POPC   C4A44382   8.808  31.384   7.347
 3438POPC   C1B44383   9.137  31.927   5.972
 3438POPC   C2B44384   9.277  31.785   6.405
 3438POPC   C3B44385   9.379  31.961   6.812
 3438POPC   C4B44386   9.199  31.795   7.190
 3439POPC   NC344387  21.172   1.544   5.286
 3439POPC   PO444388  21.664   2.068   5.432
 3439POPC   GL144389  21.486   2.150   5.812
 3439POPC   GL244390  21.142   2.174   5.729
 3439POPC   C1A44391  21.620   2.186   6.250
 3439POPC   D2A44392  21.436   2.407   6.583
 3439POPC   C3A44393  21.332   2.246   6.970
 3439POPC   C4A44394  21.546   1.905   7.185
 3439POPC   C1B44395  21.099   2.288   6.191
 3439POPC   C2B44396  20.947   2.159   6.631
 3439POPC   C3B44397  21.009   1.855   7.025
 3439POPC   C4B44398  21.082   1.795   7.475
 3440POPC   NC344399  34.172   5.259   5.652
 3440POPC   PO444400  34.691   4.897   5.350
 3440POPC   GL144401  34.609   5.012   5.791
 3440POPC   GL244402  34.579   5.363   5.913
 3440POPC   C1A44403  34.773   4.997   6.227
 3440POPC   D2A44404  34.703   4.972   6.674
 3440POPC   C3A44405  34.327   5.185   6.801
 3440POPC   C4A44406  34.273   5.297   7.237
 3440POPC   C1B44407  34.808   5.502   6.256
 3440POPC   C2B44408  34.760   5.493   6.666
 3440POPC   C3B44409  34.759   5.346   7.064
 3440POPC   C4B44410  34.726   5.580   7.440
 3441POPC   NC344411   0.026  34.453   5.782
 3441POPC   PO444412  44.465  34.271   5.455
 3441POPC   GL144413  44.436  34.293   5.891
 3441POPC   GL244414  44.503  34.619   5.937
 3441POPC   C1A44415  44.494  34.279   6.344
 3441POPC   D2A44416  44.703  34.194   6.696
 3441POPC   C3A44417  44.470  34.160   7.031
 3441POPC   C4A44418  44.509  34.341   7.502
 3441POPC   C1B44419  44.605  34.768   6.339
 3441POPC   C2B44420  44.425  34.647   6.731
 3441POPC   C3B44421  44.585  34.845   7.086
 3441POPC   C4B44422   0.049  34.919   7.172
 3442POPC   NC344423  33.255   3.559   5.268
 3442POPC   PO444424  32.754   3.797   5.665
 3442POPC   GL144425  33.099   3.516   5.827
 3442POPC   GL244426  33.211   3.730   6.096
 3442POPC   C1A44427  33.291   3.229   6.172
 3442POPC   D2A44428  33.333   3.036   6.596
 3442POPC   C3A44429  33.191   3.283   6.955
 3442POPC   C4A44430  33.335   3.426   7.358
 3442POPC   C1B44431  32.941   3.573   6.398
 3442POPC   C2B44432  32.910   3.714   6.815
 3442POPC   C3B44433  32.879   3.660   7.230
 3442POPC   C4B44434  32.863   3.430   7.620
 3443POPC   NC344435   3.348   5.376   5.586
 3443POPC   PO444436   3.922   5.120   5.606
 3443POPC   GL144437   3.554   5.045   5.923
 3443POPC   GL244438   3.426   4.700   6.002
 3443POPC   C1A44439   3.211   5.144   6.260
 3443POPC   D2A44440   3.156   4.924   6.672
 3443POPC   C3A44441   3.370   5.176   6.988
 3443POPC   C4A44442   3.567   5.365   7.357
 3443POPC   C1B44443   3.621   4.881   6.403
 3443POPC   C2B44444   3.856   5.077   6.739
 3443POPC   C3B44445   3.781   4.913   7.139
 3443POPC   C4B44446   3.454   4.563   7.140
 3444POPC   NC344447  30.449  37.457   5.603
 3444POPC   PO444448  30.912  37.905   5.474
 3444POPC   GL144449  30.862  37.672   5.893
 3444POPC   GL244450  30.506  37.750   6.015
 3444POPC   C1A44451  30.845  37.627   6.372
 3444POPC   D2A44452  30.451  37.711   6.611
 3444POPC   C3A44453  30.509  37.857   7.046
 3444POPC   C4A44454  30.911  37.670   7.198
 3444POPC   C1B44455  30.422  37.336   6.236
 3444POPC   C2B44456  30.249  37.223   6.618
 3444POPC   C3B44457  30.478  37.347   6.994
 3444POPC   C4B44458  30.562  37.352   7.430
 3445POPC   NC344459  28.815  39.432   5.382
 3445POPC   PO444460  29.347  39.039   5.284
 3445POPC   GL144461  29.234  39.270   5.690
 3445POPC   GL244462  28.911  39.139   5.810
 3445POPC   C1A44463  29.254  39.329   6.171
 3445POPC   D2A44464  29.291  39.087   6.572
 3445POPC   C3A44465  29.198  39.278   6.971
 3445POPC   C4A44466  29.088  39.399   7.394
 3445POPC   C1B44467  28.780  39.173   6.270
 3445POPC   C2B44468  28.780  39.152   6.726
 3445POPC   C3B44469  28.710  39.142   7.180
 3445POPC   C4B44470  28.701  39.294   7.691
 3446POPC   NC344471  18.133  17.146   5.255
 3446POPC   PO444472  18.384  16.507   5.250
 3446POPC   GL144473  18.282  16.711   5.683
 3446POPC   GL244474  18.371  17.056   5.732
 3446POPC   C1A44475  18.311  16.691   6.155
 3446POPC   D2A44476  18.014  16.725   6.503
 3446POPC   C3A44477  18.160  16.575   6.896
 3446POPC   C4A44478  18.334  16.735   7.293
 3446POPC   C1B44479  18.092  17.135   6.105
 3446POPC   C2B44480  17.991  17.245   6.529
 3446POPC   C3B44481  17.946  17.048   6.906
 3446POPC   C4B44482  18.086  17.182   7.248
 3447POPC   NC344483  31.214  25.484   5.284
 3447POPC   PO444484  31.698  25.060   5.393
 3447POPC   GL144485  31.577  25.224   5.798
 3447POPC   GL244486  31.233  25.191   5.726
 3447POPC   C1A44487  31.710  25.320   6.247
 3447POPC   D2A44488  31.787  25.446   6.688
 3447POPC   C3A44489  31.518  25.272   7.014
 3447POPC   C4A44490  31.347  25.527   7.321
 3447POPC   C1B44491  31.094  25.164   6.149
 3447POPC   C2B44492  31.254  25.298   6.549
 3447POPC   C3B44493  31.032  25.423   6.918
 3447POPC   C4B44494  31.030  25.113   7.224
 3448POPC   NC344495   9.567   0.854   5.369
 3448POPC   PO444496  10.217   0.572   5.428
 3448POPC   GL144497   9.865   0.540   5.699
 3448POPC   GL244498   9.715   0.199   5.651
 3448POPC   C1A44499   9.926   0.667   6.146
 3448POPC   D2A44500   9.859   0.700   6.589
 3448POPC   C3A44501   9.979   0.385   6.850
 3448POPC   C4A44502   9.785   0.282   7.237
 3448POPC   C1B44503   9.571   0.292   6.063
 3448POPC   C2B44504   9.538   0.296   6.514
 3448POPC   C3B44505   9.423   0.505   6.912
 3448POPC   C4B44506   9.267   0.272   7.269
 3449POPC   NC344507  36.566  31.599   5.455
 3449POPC   PO444508  37.140  31.284   5.309
 3449POPC   GL144509  36.912  31.321   5.742
 3449POPC   GL244510  36.737  31.000   5.778
 3449POPC   C1A44511  36.864  31.578   6.172
 3449POPC   D2A44512  36.959  31.546   6.624
 3449POPC   C3A44513  37.053  31.734   7.022
 3449POPC   C4A44514  37.006  31.644   7.478
 3449POPC   C1B44515  36.601  31.139   6.214
 3449POPC   C2B44516  36.542  31.265   6.671
 3449POPC   C3B44517  36.729  31.360   7.088
 3449POPC   C4B44518  36.800  31.177   7.499
 3450POPC   NC344519  28.123  25.628   5.359
 3450POPC   PO444520  28.203  24.952   5.399
 3450POPC   GL144521  28.280  25.060   5.840
 3450POPC   GL244522  28.374  25.390   5.752
 3450POPC   C1A44523  28.427  25.253   6.238
 3450POPC   D2A44524  28.330  25.098   6.622
 3450POPC   C3A44525  28.618  24.879   6.855
 3450POPC   C4A44526  28.500  24.802   7.265
 3450POPC   C1B44527  28.071  25.571   6.039
 3450POPC   C2B44528  27.962  25.512   6.500
 3450POPC   C3B44529  28.159  25.471   6.925
 3450POPC   C4B44530  28.372  25.602   7.305
 3451POPC   NC344531  28.863  36.368   5.409
 3451POPC   PO444532  29.247  35.719   5.374
 3451POPC   GL144533  29.141  35.930   5.773
 3451POPC   GL244534  29.352  36.207   5.716
 3451POPC   C1A44535  28.877  36.052   6.209
 3451POPC   D2A44536  28.757  36.348   6.562
 3451POPC   C3A44537  29.088  36.333   6.861
 3451POPC   C4A44538  29.235  35.988   7.108
 3451POPC   C1B44539  29.396  36.116   6.164
 3451POPC   C2B44540  29.287  35.939   6.567
 3451POPC   C3B44541  29.567  35.728   6.838
 3451POPC   C4B44542  29.672  35.724   7.286
 3452POPC   NC344543  20.176   5.321   5.193
 3452POPC   PO444544  20.057   4.711   5.412
 3452POPC   GL144545  19.953   4.933   5.784
 3452POPC   GL244546  19.624   4.866   5.758
 3452POPC   C1A44547  19.883   5.103   6.211
 3452POPC   D2A44548  20.030   4.974   6.606
 3452POPC   C3A44549  20.014   5.255   6.929
 3452POPC   C4A44550  19.773   5.411   7.246
 3452POPC   C1B44551  19.541   4.708   6.144
 3452POPC   C2B44552  19.535   4.823   6.575
 3452POPC   C3B44553  19.617   4.915   7.001
 3452POPC   C4B44554  19.789   4.934   7.398
 3453POPC   NC344555  10.488   2.201   5.468
 3453POPC   PO444556  10.597   1.497   5.425
 3453POPC   GL144557  10.724   1.828   5.761
 3453POPC   GL244558  10.378   1.926   5.903
 3453POPC   C1A44559  10.817   2.011   6.180
 3453POPC   D2A44560  10.593   1.960   6.563
 3453POPC   C3A44561  10.686   2.026   6.979
 3453POPC   C4A44562  10.317   1.907   7.200
 3453POPC   C1B44563  10.315   2.255   6.223
 3453POPC   C2B44564  10.469   2.471   6.617
 3453POPC   C3B44565  10.357   2.453   7.044
 3453POPC   C4B44566  10.328   2.667   7.442
 3454POPC   NC344567   3.011  10.156   5.611
 3454POPC   PO444568   3.665  10.446   5.422
 3454POPC   GL144569   3.637  10.599   5.835
 3454POPC   GL244570   3.320  10.492   5.848
 3454POPC   C1A44571   3.692  10.369   6.245
 3454POPC   D2A44572   3.474  10.433   6.629
 3454POPC   C3A44573   3.622  10.449   7.044
 3454POPC   C4A44574   3.568  10.783   7.302
 3454POPC   C1B44575   3.150  10.425   6.226
 3454POPC   C2B44576   2.978  10.304   6.615
 3454POPC   C3B44577   3.118  10.448   7.008
 3454POPC   C4B44578   3.305  10.120   7.251
 3455POPC   NC344579  33.216  12.754   5.321
 3455POPC   PO444580  32.732  13.279   5.238
 3455POPC   GL144581  32.827  13.195   5.704
 3455POPC   GL244582  32.915  12.824   5.757
 3455POPC   C1A44583  32.742  13.062   6.179
 3455POPC   D2A44584  32.973  12.840   6.536
 3455POPC   C3A44585  32.865  12.822   6.975
 3455POPC   C4A44586  33.228  12.926   7.251
 3455POPC   C1B44587  33.188  12.660   6.108
 3455POPC   C2B44588  33.382  12.517   6.529
 3455POPC   C3B44589  33.250  12.456   6.978
 3455POPC   C4B44590  32.984  12.489   7.347
 3456POPC   NC344591  29.925  33.615   5.256
 3456POPC   PO444592  29.876  34.249   5.414
 3456POPC   GL144593  29.867  33.881   5.739
 3456POPC   GL244594  29.860  33.512   5.763
 3456POPC   C1A44595  29.964  33.906   6.193
 3456POPC   D2A44596  30.005  34.082   6.613
 3456POPC   C3A44597  30.049  33.839   6.983
 3456POPC   C4A44598  29.716  33.834   7.289
 3456POPC   C1B44599  30.084  33.409   6.143
 3456POPC   C2B44600  29.887  33.507   6.541
 3456POPC   C3B44601  29.728  33.432   6.932
 3456POPC   C4B44602  29.888  33.378   7.311
 3457POPC   NC344603  23.943  20.918   5.489
 3457POPC   PO444604  23.468  20.450   5.354
 3457POPC   GL144605  23.671  20.577   5.786
 3457POPC   GL244606  24.043  20.576   5.854
 3457POPC   C1A44607  23.512  20.737   6.203
 3457POPC   D2A44608  23.619  20.595   6.605
 3457POPC   C3A44609  23.514  20.853   6.936
 3457POPC   C4A44610  23.331  20.705   7.292
 3457POPC   C1B44611  24.009  20.741   6.262
 3457POPC   C2B44612  24.136  20.551   6.619
 3457POPC   C3B44613  24.012  20.679   6.984
 3457POPC   C4B44614  23.835  20.748   7.356
 3458POPC   NC344615   6.034  12.213   5.456
 3458POPC   PO444616   6.342  11.654   5.650
 3458POPC   GL144617   6.018  11.899   5.907
 3458POPC   GL244618   5.828  12.252   5.924
 3458POPC   C1A44619   5.683  11.899   6.256
 3458POPC   D2A44620   5.534  12.008   6.663
 3458POPC   C3A44621   5.706  11.815   6.992
 3458POPC   C4A44622   5.993  11.774   7.327
 3458POPC   C1B44623   6.217  12.265   6.189
 3458POPC   C2B44624   6.291  12.112   6.608
 3458POPC   C3B44625   6.029  12.186   6.934
 3458POPC   C4B44626   5.758  12.239   7.299
 3459POPC   NC344627  26.997   0.111   4.987
 3459POPC   PO444628  26.469   0.246   5.445
 3459POPC   GL144629  26.630   0.391   5.810
 3459POPC   GL244630  26.825   0.618   5.712
 3459POPC   C1A44631  26.864   0.180   6.172
 3459POPC   D2A44632  26.675   0.036   6.573
 3459POPC   C3A44633  26.873   0.261   6.902
 3459POPC   C4A44634  27.217   0.169   7.127
 3459POPC   C1B44635  26.831   0.713   6.144
 3459POPC   C2B44636  27.053   0.710   6.515
 3459POPC   C3B44637  26.953   0.911   6.893
 3459POPC   C4B44638  27.033   0.669   7.235
 3460POPC   NC344639   4.454  44.270   5.375
 3460POPC   PO444640   4.893  44.724   5.300
 3460POPC   GL144641   4.698  44.596   5.720
 3460POPC   GL244642   4.319  44.616   5.755
 3460POPC   C1A44643   4.575  44.636   6.199
 3460POPC   D2A44644   4.410  44.507   6.646
 3460POPC   C3A44645   4.476  44.687   7.090
 3460POPC   C4A44646   4.558  44.585   7.551
 3460POPC   C1B44647   4.057  44.617   6.170
 3460POPC   C2B44648   3.982  44.812   6.607
 3460POPC   C3B44649   3.998  44.555   7.007
 3460POPC   C4B44650   4.055  44.628   7.463
 3461POPC   NC344651  37.538  15.505   5.383
 3461POPC   PO444652  37.763  14.915   5.158
 3461POPC   GL144653  37.896  15.127   5.598
 3461POPC   GL244654  37.751  15.427   5.834
 3461POPC   C1A44655  37.914  15.017   6.079
 3461POPC   D2A44656  37.749  15.174   6.502
 3461POPC   C3A44657  37.888  15.103   6.951
 3461POPC   C4A44658  38.056  14.893   7.337
 3461POPC   C1B44659  37.388  15.294   6.116
 3461POPC   C2B44660  37.221  15.175   6.527
 3461POPC   C3B44661  37.336  15.393   6.911
 3461POPC   C4B44662  37.589  15.374   7.297
 3462POPC   NC344663  29.546  34.430   5.126
 3462POPC   PO444664  29.935  34.891   5.461
 3462POPC   GL144665  29.939  34.700   5.891
 3462POPC   GL244666  29.953  34.352   5.911
 3462POPC   C1A44667  29.793  34.561   6.337
 3462POPC   D2A44668  29.596  34.400   6.709
 3462POPC   C3A44669  29.572  34.722   7.005
 3462POPC   C4A44670  29.927  34.930   7.120
 3462POPC   C1B44671  30.259  34.357   6.256
 3462POPC   C2B44672  30.213  34.546   6.697
 3462POPC   C3B44673  30.002  34.392   7.081
 3462POPC   C4B44674  29.562  34.290   7.224
 3463POPC   NC344675  32.124  27.291   5.565
 3463POPC   PO444676  31.836  27.705   5.156
 3463POPC   GL144677  32.247  27.842   5.551
 3463POPC   GL244678  32.466  27.598   5.756
 3463POPC   C1A44679  32.335  27.939   6.073
 3463POPC   D2A44680  32.010  27.927   6.419
 3463POPC   C3A44681  32.051  27.618   6.760
 3463POPC   C4A44682  32.165  27.636   7.200
 3463POPC   C1B44683  32.269  27.435   6.169
 3463POPC   C2B44684  32.407  27.284   6.530
 3463POPC   C3B44685  32.538  27.445   6.892
 3463POPC   C4B44686  32.528  27.263   7.270
 3464POPC   NC344687  33.196   7.165   5.432
 3464POPC   PO444688  32.659   7.517   5.264
 3464POPC   GL144689  32.843   7.483   5.690
 3464POPC   GL244690  33.144   7.707   5.720
 3464POPC   C1A44691  32.891   7.256   6.102
 3464POPC   D2A44692  33.004   7.140   6.541
 3464POPC   C3A44693  32.816   7.210   6.925
 3464POPC   C4A44694  33.022   7.171   7.309
 3464POPC   C1B44695  32.981   7.775   6.151
 3464POPC   C2B44696  33.096   7.683   6.593
 3464POPC   C3B44697  32.995   7.712   7.042
 3464POPC   C4B44698  33.070   7.641   7.506
 3465POPC   NC344699  21.048  17.369   5.284
 3465POPC   PO444700  21.748  17.615   5.325
 3465POPC   GL144701  21.538  17.456   5.755
 3465POPC   GL244702  21.143  17.336   5.781
 3465POPC   C1A44703  21.583  17.643   6.201
 3465POPC   D2A44704  21.509  17.459   6.629
 3465POPC   C3A44705  21.493  17.705   7.012
 3465POPC   C4A44706  21.254  17.655   7.392
 3465POPC   C1B44707  21.232  17.293   6.207
 3465POPC   C2B44708  21.136  17.116   6.600
 3465POPC   C3B44709  21.163  17.265   7.024
 3465POPC   C4B44710  21.243  17.128   7.412
 3466POPC   NC344711  40.926  36.664   5.348
 3466POPC   PO444712  40.535  37.069   4.963
 3466POPC   GL144713  40.545  37.017   5.572
 3466POPC   GL244714  40.489  37.374   5.780
 3466POPC   C1A44715  40.767  36.980   6.037
 3466POPC   D2A44716  40.885  37.178   6.470
 3466POPC   C3A44717  41.053  37.020   6.901
 3466POPC   C4A44718  41.155  36.855   7.334
 3466POPC   C1B44719  40.372  37.256   6.240
 3466POPC   C2B44720  40.476  36.859   6.479
 3466POPC   C3B44721  40.478  36.661   6.888
 3466POPC   C4B44722  40.681  36.866   7.203
 3467POPC   NC344723  42.508  42.674   5.288
 3467POPC   PO444724  42.489  43.301   5.460
 3467POPC   GL144725  42.272  43.082   5.746
 3467POPC   GL244726  42.125  42.812   5.590
 3467POPC   C1A44727  42.154  43.212   6.143
 3467POPC   D2A44728  42.290  43.389   6.496
 3467POPC   C3A44729  42.400  43.190   6.866
 3467POPC   C4A44730  42.224  43.309   7.242
 3467POPC   C1B44731  42.137  42.714   6.062
 3467POPC   C2B44732  42.223  42.856   6.509
 3467POPC   C3B44733  41.991  42.923   6.931
 3467POPC   C4B44734  42.275  42.814   7.277
 3468POPC   NC344735  30.536  38.268   5.507
 3468POPC   PO444736  30.924  38.881   5.510
 3468POPC   GL144737  30.708  38.671   5.822
 3468POPC   GL244738  30.446  38.853   5.963
 3468POPC   C1A44739  30.948  38.481   6.158
 3468POPC   D2A44740  31.034  38.571   6.597
 3468POPC   C3A44741  30.792  38.276   6.863
 3468POPC   C4A44742  30.807  38.202   7.301
 3468POPC   C1B44743  30.517  38.701   6.374
 3468POPC   C2B44744  30.406  38.624   6.795
 3468POPC   C3B44745  30.412  38.506   7.215
 3468POPC   C4B44746  30.302  38.777   7.532
 3469POPC   NC344747   5.664  25.935   5.139
 3469POPC   PO444748   5.578  26.479   5.476
 3469POPC   GL144749   5.715  26.208   5.789
 3469POPC   GL244750   5.920  26.400   6.004
 3469POPC   C1A44751   5.823  25.904   6.103
 3469POPC   D2A44752   5.903  26.092   6.493
 3469POPC   C3A44753   5.749  25.943   6.857
 3469POPC   C4A44754   5.978  25.787   7.184
 3469POPC   C1B44755   5.735  26.550   6.361
 3469POPC   C2B44756   5.823  26.505   6.824
 3469POPC   C3B44757   5.997  26.305   7.179
 3469POPC   C4B44758   6.042  26.485   7.572
 3470POPC   NC344759  23.103  34.940   5.425
 3470POPC   PO444760  22.597  34.502   5.417
 3470POPC   GL144761  22.907  34.567   5.730
 3470POPC   GL244762  22.752  34.822   5.896
 3470POPC   C1A44763  23.077  34.515   6.164
 3470POPC   D2A44764  22.801  34.560   6.516
 3470POPC   C3A44765  22.896  34.504   6.946
 3470POPC   C4A44766  22.527  34.454   7.213
 3470POPC   C1B44767  22.922  35.010   6.303
 3470POPC   C2B44768  22.885  35.009   6.765
 3470POPC   C3B44769  22.846  34.929   7.233
 3470POPC   C4B44770  23.116  34.943   7.632
 3471POPC   NC344771  15.572  15.271   5.394
 3471POPC   PO444772  16.169  15.280   5.553
 3471POPC   GL144773  15.825  15.185   5.837
 3471POPC   GL244774  15.708  14.848   5.812
 3471POPC   C1A44775  15.722  15.358   6.213
 3471POPC   D2A44776  15.885  15.252   6.596
 3471POPC   C3A44777  16.020  15.579   6.860
 3471POPC   C4A44778  15.965  15.547   7.300
 3471POPC   C1B44779  15.933  14.846   6.234
 3471POPC   C2B44780  16.035  14.776   6.681
 3471POPC   C3B44781  16.048  15.058   7.063
 3471POPC   C4B44782  15.756  15.075   7.409
 3472POPC   NC344783  13.325  23.523   5.522
 3472POPC   PO444784  13.965  23.831   5.457
 3472POPC   GL144785  13.746  23.707   5.829
 3472POPC   GL244786  13.407  23.841   5.917
 3472POPC   C1A44787  13.779  23.561   6.250
 3472POPC   D2A44788  13.585  23.374   6.613
 3472POPC   C3A44789  13.704  23.617   6.973
 3472POPC   C4A44790  13.596  23.618   7.395
 3472POPC   C1B44791  13.232  23.630   6.282
 3472POPC   C2B44792  13.244  23.764   6.726
 3472POPC   C3B44793  13.225  23.893   7.183
 3472POPC   C4B44794  13.224  23.863   7.664
 3473POPC   NC344795  15.031  37.068   5.293
 3473POPC   PO444796  15.059  36.374   5.244
 3473POPC   GL144797  15.170  36.655   5.676
 3473POPC   GL244798  15.267  37.010   5.744
 3473POPC   C1A44799  15.142  36.709   6.161
 3473POPC   D2A44800  15.018  36.648   6.620
 3473POPC   C3A44801  15.278  36.732   6.967
 3473POPC   C4A44802  15.331  37.051   7.297
 3473POPC   C1B44803  15.012  37.209   6.034
 3473POPC   C2B44804  14.952  37.132   6.461
 3473POPC   C3B44805  15.002  37.208   6.886
 3473POPC   C4B44806  14.833  36.913   7.140
 3474POPC   NC344807  26.563  44.103   5.354
 3474POPC   PO444808  27.098  43.822   5.620
 3474POPC   GL144809  26.685  43.845   5.786
 3474POPC   GL244810  26.696  44.225   5.855
 3474POPC   C1A44811  26.433  43.914   6.165
 3474POPC   D2A44812  26.423  43.711   6.550
 3474POPC   C3A44813  26.550  43.917   6.916
 3474POPC   C4A44814  26.665  43.650   7.235
 3474POPC   C1B44815  26.945  44.027   6.214
 3474POPC   C2B44816  26.969  43.775   6.570
 3474POPC   C3B44817  27.098  43.815   6.989
 3474POPC   C4B44818  26.909  44.079   7.286
 3475POPC   NC344819  28.031  36.863   5.567
 3475POPC   PO444820  28.436  36.492   5.246
 3475POPC   GL144821  28.531  36.651   5.697
 3475POPC   GL244822  28.453  37.019   5.810
 3475POPC   C1A44823  28.412  36.631   6.140
 3475POPC   D2A44824  28.146  36.682   6.480
 3475POPC   C3A44825  28.388  36.702   6.829
 3475POPC   C4A44826  28.296  36.742   7.250
 3475POPC   C1B44827  28.223  37.108   6.174
 3475POPC   C2B44828  28.392  37.147   6.578
 3475POPC   C3B44829  28.318  37.201   6.988
 3475POPC   C4B44830  28.557  37.210   7.357
 3476POPC   NC344831  39.129  13.826   5.156
 3476POPC   PO444832  38.725  13.504   5.553
 3476POPC   GL144833  39.109  13.666   5.697
 3476POPC   GL244834  39.111  13.382   5.924
 3476POPC   C1A44835  39.386  13.783   6.037
 3476POPC   D2A44836  39.365  13.611   6.459
 3476POPC   C3A44837  39.442  13.898   6.803
 3476POPC   C4A44838  39.438  13.738   7.216
 3476POPC   C1B44839  38.888  13.588   6.210
 3476POPC   C2B44840  38.892  13.377   6.574
 3476POPC   C3B44841  39.133  13.471   6.899
 3476POPC   C4B44842  38.960  13.493   7.257
 3477POPC   NC344843  14.651  30.522   5.376
 3477POPC   PO444844  14.020  30.796   5.307
 3477POPC   GL144845  14.246  30.824   5.736
 3477POPC   GL244846  14.575  30.999   5.771
 3477POPC   C1A44847  14.288  30.653   6.185
 3477POPC   D2A44848  14.558  30.598   6.543
 3477POPC   C3A44849  14.338  30.351   6.859
 3477POPC   C4A44850  14.348  30.243   7.274
 3477POPC   C1B44851  14.318  31.152   6.171
 3477POPC   C2B44852  14.280  31.031   6.631
 3477POPC   C3B44853  14.360  30.835   7.062
 3477POPC   C4B44854  14.241  30.984   7.510
 3478POPC   NC344855  39.645  25.097   5.390
 3478POPC   PO444856  40.282  25.520   5.515
 3478POPC   GL144857  39.945  25.373   5.702
 3478POPC   GL244858  40.067  25.044   5.680
 3478POPC   C1A44859  39.857  25.369   6.112
 3478POPC   D2A44860  39.873  25.164   6.490
 3478POPC   C3A44861  40.007  25.428   6.781
 3478POPC   C4A44862  40.038  25.365   7.212
 3478POPC   C1B44863  40.108  24.895   6.102
 3478POPC   C2B44864  40.224  24.788   6.538
 3478POPC   C3B44865  40.354  25.061   6.856
 3478POPC   C4B44866  40.275  24.921   7.248
 3479POPC   NC344867  16.002  37.235   5.459
 3479POPC   PO444868  15.630  36.761   5.485
 3479POPC   GL144869  15.776  36.911   5.858
 3479POPC   GL244870  16.126  36.996   5.900
 3479POPC   C1A44871  15.622  36.881   6.253
 3479POPC   D2A44872  15.444  37.066   6.611
 3479POPC   C3A44873  15.702  37.000   6.967
 3479POPC   C4A44874  16.066  36.808   7.113
 3479POPC   C1B44875  16.099  36.662   6.240
 3479POPC   C2B44876  16.208  36.562   6.692
 3479POPC   C3B44877  16.495  36.554   7.053
 3479POPC   C4B44878  16.472  36.788   7.434
 3480POPC   NC344879  16.459  12.050   5.495
 3480POPC   PO444880  15.855  11.763   5.347
 3480POPC   GL144881  15.882  11.967   5.750
 3480POPC   GL244882  16.102  12.220   5.881
 3480POPC   C1A44883  15.738  11.972   6.156
 3480POPC   D2A44884  15.509  12.140   6.480
 3480POPC   C3A44885  15.751  12.083   6.853
 3480POPC   C4A44886  15.878  12.030   7.270
 3480POPC   C1B44887  15.845  12.480   6.202
 3480POPC   C2B44888  15.753  12.555   6.658
 3480POPC   C3B44889  15.971  12.517   7.078
 3480POPC   C4B44890  16.144  12.415   7.520
 3481POPC   NC344891   6.934  15.772   5.336
 3481POPC   PO444892   6.535  16.364   5.434
 3481POPC   GL144893   6.636  16.038   5.752
 3481POPC   GL244894   6.467  15.796   5.958
 3481POPC   C1A44895   6.838  16.125   6.202
 3481POPC   D2A44896   6.884  16.032   6.671
 3481POPC   C3A44897   6.957  16.252   7.080
 3481POPC   C4A44898   6.712  16.090   7.420
 3481POPC   C1B44899   6.551  15.713   6.384
 3481POPC   C2B44900   6.714  15.530   6.763
 3481POPC   C3B44901   6.580  15.660   7.166
 3481POPC   C4B44902   6.373  15.650   7.565
 3482POPC   NC344903  39.787  22.614   5.565
 3482POPC   PO444904  40.049  21.994   5.352
 3482POPC   GL144905  40.213  22.052   5.769
 3482POPC   GL244906  39.867  21.992   5.859
 3482POPC   C1A44907  40.181  22.182   6.236
 3482POPC   D2A44908  40.340  22.297   6.664
 3482POPC   C3A44909  40.109  22.166   7.041
 3482POPC   C4A44910  39.890  22.473   7.362
 3482POPC   C1B44911  39.709  21.947   6.296
 3482POPC   C2B44912  39.818  22.275   6.605
 3482POPC   C3B44913  39.614  22.289   6.975
 3482POPC   C4B44914  39.729  21.996   7.349
 3483POPC   NC344915  20.281  21.769   5.563
 3483POPC   PO444916  20.788  22.188   5.518
 3483POPC   GL144917  20.717  21.916   5.853
 3483POPC   GL244918  21.045  21.831   5.960
 3483POPC   C1A44919  20.587  21.827   6.278
 3483POPC   D2A44920  20.616  22.050   6.690
 3483POPC   C3A44921  20.675  21.868   7.115
 3483POPC   C4A44922  20.440  21.909   7.501
 3483POPC   C1B44923  20.971  22.168   6.270
 3483POPC   C2B44924  21.009  22.397   6.671
 3483POPC   C3B44925  20.804  22.377   7.084
 3483POPC   C4B44926  20.993  22.172   7.411
 3484POPC   NC344927  10.376  42.895   5.619
 3484POPC   PO444928  10.742  43.445   5.383
 3484POPC   GL144929  10.647  43.333   5.789
 3484POPC   GL244930  10.322  43.461   5.855
 3484POPC   C1A44931  10.707  43.479   6.208
 3484POPC   D2A44932  10.503  43.362   6.609
 3484POPC   C3A44933  10.697  43.112   6.939
 3484POPC   C4A44934  10.648  43.091   7.384
 3484POPC   C1B44935  10.245  43.159   6.209
 3484POPC   C2B44936  10.115  42.989   6.611
 3484POPC   C3B44937  10.241  42.895   7.045
 3484POPC   C4B44938  10.001  42.768   7.380
 3485POPC   NC344939  25.610   9.233   5.292
 3485POPC   PO444940  25.328   9.789   5.572
 3485POPC   GL144941  25.189   9.618   5.944
 3485POPC   GL244942  25.455   9.353   5.871
 3485POPC   C1A44943  25.014   9.616   6.364
 3485POPC   D2A44944  25.241   9.735   6.698
 3485POPC   C3A44945  25.218   9.466   7.037
 3485POPC   C4A44946  25.032   9.773   7.208
 3485POPC   C1B44947  25.514   9.457   6.316
 3485POPC   C2B44948  25.674   9.456   6.738
 3485POPC   C3B44949  25.641   9.749   7.056
 3485POPC   C4B44950  25.481   9.749   7.463
 3486POPC   NC344951   9.479   5.514   5.444
 3486POPC   PO444952   9.875   6.136   5.374
 3486POPC   GL144953   9.856   5.946   5.748
 3486POPC   GL244954   9.523   5.949   5.719
 3486POPC   C1A44955   9.768   6.113   6.163
 3486POPC   D2A44956   9.957   6.021   6.549
 3486POPC   C3A44957   9.773   6.063   6.943
 3486POPC   C4A44958   9.743   5.763   7.281
 3486POPC   C1B44959   9.421   5.748   6.089
 3486POPC   C2B44960   9.425   5.909   6.515
 3486POPC   C3B44961   9.309   5.732   6.926
 3486POPC   C4B44962   9.336   5.434   7.266
 3487POPC   NC344963  38.241  17.752   5.538
 3487POPC   PO444964  38.831  17.332   5.381
 3487POPC   GL144965  38.642  17.528   5.727
 3487POPC   GL244966  38.724  17.910   5.671
 3487POPC   C1A44967  38.423  17.481   6.142
 3487POPC   D2A44968  38.342  17.631   6.581
 3487POPC   C3A44969  38.459  17.408   6.962
 3487POPC   C4A44970  38.338  17.377   7.378
 3487POPC   C1B44971  38.840  17.787   6.111
 3487POPC   C2B44972  38.795  17.901   6.528
 3487POPC   C3B44973  38.645  17.894   6.931
 3487POPC   C4B44974  38.661  17.743   7.340
 3488POPC   NC344975   3.966  15.141   5.437
 3488POPC   PO444976   4.665  15.090   5.465
 3488POPC   GL144977   4.379  15.044   5.773
 3488POPC   GL244978   4.360  15.380   5.765
 3488POPC   C1A44979   4.209  15.010   6.177
 3488POPC   D2A44980   4.120  15.252   6.559
 3488POPC   C3A44981   4.223  14.988   6.891
 3488POPC   C4A44982   4.034  14.925   7.293
 3488POPC   C1B44983   4.377  15.495   6.174
 3488POPC   C2B44984   4.633  15.337   6.494
 3488POPC   C3B44985   4.635  15.453   6.912
 3488POPC   C4B44986   4.301  15.369   7.235
 3489POPC   NC344987   3.690  16.032   5.513
 3489POPC   PO444988   3.771  15.476   5.161
 3489POPC   GL144989   3.433  15.602   5.629
 3489POPC   GL244990   3.235  15.910   5.730
 3489POPC   C1A44991   3.509  15.698   6.132
 3489POPC   D2A44992   3.625  15.880   6.569
 3489POPC   C3A44993   3.531  15.686   6.992
 3489POPC   C4A44994   3.865  15.625   7.313
 3489POPC   C1B44995   3.282  16.185   6.125
 3489POPC   C2B44996   3.197  16.154   6.572
 3489POPC   C3B44997   3.371  16.190   6.995
 3489POPC   C4B44998   3.347  16.198   7.448
 3490POPC   NC344999  38.255  11.632   5.350
 3490POPC   PO445000  38.325  10.942   5.410
 3490POPC   GL145001  38.274  11.226   5.764
 3490POPC   GL245002  38.609  11.359   5.667
 3490POPC   C1A45003  38.227  11.237   6.252
 3490POPC   D2A45004  38.525  11.112   6.606
 3490POPC   C3A45005  38.356  11.010   7.050
 3490POPC   C4A45006  38.198  11.059   7.500
 3490POPC   C1B45007  38.618  11.503   6.096
 3490POPC   C2B45008  38.488  11.677   6.499
 3490POPC   C3B45009  38.364  11.530   6.910
 3490POPC   C4B45010  38.448  11.475   7.344
 3491POPC   NC345011  21.862  17.132   5.421
 3491POPC   PO445012  22.374  17.520   5.137
 3491POPC   GL145013  22.240  17.511   5.599
 3491POPC   GL245014  21.994  17.729   5.786
 3491POPC   C1A45015  22.421  17.407   6.028
 3491POPC   D2A45016  22.271  17.282   6.480
 3491POPC   C3A45017  22.439  17.556   6.818
 3491POPC   C4A45018  22.549  17.496   7.243
 3491POPC   C1B45019  22.079  17.710   6.249
 3491POPC   C2B45020  21.954  17.689   6.690
 3491POPC   C3B45021  22.026  17.631   7.141
 3491POPC   C4B45022  21.760  17.674   7.501
 3492POPC   NC345023  38.749   7.543   5.405
 3492POPC   PO445024  38.105   7.292   5.571
 3492POPC   GL145025  38.366   7.535   5.797
 3492POPC   GL245026  38.644   7.332   5.858
 3492POPC   C1A45027  38.348   7.509   6.237
 3492POPC   D2A45028  38.165   7.785   6.528
 3492POPC   C3A45029  38.129   7.608   6.924
 3492POPC   C4A45030  38.006   7.558   7.328
 3492POPC   C1B45031  38.862   7.067   6.178
 3492POPC   C2B45032  38.735   6.895   6.586
 3492POPC   C3B45033  38.626   7.162   6.940
 3492POPC   C4B45034  38.446   7.335   7.306
 3493POPC   NC345035  21.224  12.892   5.425
 3493POPC   PO445036  21.656  12.420   5.504
 3493POPC   GL145037  21.482  12.708   5.808
 3493POPC   GL245038  21.412  13.098   5.860
 3493POPC   C1A45039  21.304  12.748   6.219
 3493POPC   D2A45040  21.161  12.715   6.634
 3493POPC   C3A45041  21.432  12.517   6.910
 3493POPC   C4A45042  21.487  12.840   7.177
 3493POPC   C1B45043  21.469  13.237   6.307
 3493POPC   C2B45044  21.210  13.257   6.694
 3493POPC   C3B45045  21.066  13.123   7.106
 3493POPC   C4B45046  20.756  13.143   7.466
 3494POPC   NC345047  13.651  25.201   5.227
 3494POPC   PO445048  14.115  25.675   5.391
 3494POPC   GL145049  13.905  25.349   5.697
 3494POPC   GL245050  13.545  25.314   5.711
 3494POPC   C1A45051  13.797  25.031   6.065
 3494POPC   D2A45052  13.885  25.099   6.530
 3494POPC   C3A45053  13.998  24.945   6.998
 3494POPC   C4A45054  13.945  25.032   7.496
 3494POPC   C1B45055  13.298  25.258   6.080
 3494POPC   C2B45056  13.409  25.270   6.485
 3494POPC   C3B45057  13.492  25.011   6.856
 3494POPC   C4B45058  13.471  25.209   7.262
 3495POPC   NC345059  38.013  34.934   5.534
 3495POPC   PO445060  38.622  35.206   5.295
 3495POPC   GL145061  38.456  35.337   5.736
 3495POPC   GL245062  38.395  35.080   5.824
 3495POPC   C1A45063  38.334  35.532   6.102
 3495POPC   D2A45064  38.558  35.657   6.459
 3495POPC   C3A45065  38.379  35.522   6.851
 3495POPC   C4A45066  38.379  35.752   7.213
 3495POPC   C1B45067  38.157  35.047   6.176
 3495POPC   C2B45068  38.401  35.145   6.499
 3495POPC   C3B45069  38.574  34.984   6.858
 3495POPC   C4B45070  38.410  34.802   7.231
 3496POPC   NC345071   9.489  43.309   5.412
 3496POPC   PO445072   9.930  42.758   5.488
 3496POPC   GL145073   9.658  42.926   5.794
 3496POPC   GL245074   9.856  43.226   5.811
 3496POPC   C1A45075   9.710  43.013   6.249
 3496POPC   D2A45076   9.631  43.200   6.653
 3496POPC   C3A45077   9.734  42.893   6.957
 3496POPC   C4A45078   9.474  42.822   7.287
 3496POPC   C1B45079   9.896  43.524   6.178
 3496POPC   C2B45080  10.021  43.530   6.618
 3496POPC   C3B45081  10.085  43.363   7.025
 3496POPC   C4B45082  10.181  43.237   7.456
 3497POPC   NC345083   7.037   5.155   5.320
 3497POPC   PO445084   6.369   5.128   5.111
 3497POPC   GL145085   6.603   5.192   5.597
 3497POPC   GL245086   6.985   5.289   5.785
 3497POPC   C1A45087   6.561   5.122   6.076
 3497POPC   D2A45088   6.499   4.870   6.485
 3497POPC   C3A45089   6.541   4.992   6.945
 3497POPC   C4A45090   6.443   4.840   7.388
 3497POPC   C1B45091   6.961   5.408   6.183
 3497POPC   C2B45092   6.812   5.262   6.551
 3497POPC   C3B45093   6.959   5.369   6.938
 3497POPC   C4B45094   6.715   5.630   7.145
 3498POPC   NC345095   2.173  27.095   5.502
 3498POPC   PO445096   1.868  26.530   5.234
 3498POPC   GL145097   1.919  26.647   5.711
 3498POPC   GL245098   2.274  26.547   5.805
 3498POPC   C1A45099   1.866  26.777   6.177
 3498POPC   D2A45100   2.062  26.959   6.577
 3498POPC   C3A45101   1.877  26.849   6.991
 3498POPC   C4A45102   1.822  26.990   7.426
 3498POPC   C1B45103   2.179  26.383   6.226
 3498POPC   C2B45104   1.980  26.450   6.641
 3498POPC   C3B45105   2.212  26.421   7.063
 3498POPC   C4B45106   2.205  26.414   7.557
 3499POPC   NC345107   3.514  38.936   5.487
 3499POPC   PO445108   3.642  39.590   5.384
 3499POPC   GL145109   3.444  39.402   5.730
 3499POPC   GL245110   3.755  39.241   5.814
 3499POPC   C1A45111   3.392  39.226   6.168
 3499POPC   D2A45112   3.655  39.217   6.549
 3499POPC   C3A45113   3.571  38.987   6.931
 3499POPC   C4A45114   3.327  39.123   7.307
 3499POPC   C1B45115   3.966  39.426   6.164
 3499POPC   C2B45116   4.031  39.556   6.592
 3499POPC   C3B45117   3.841  39.496   7.022
 3499POPC   C4B45118   3.943  39.442   7.488
 3500POPC   NC345119  42.637  17.673   5.480
 3500POPC   PO445120  43.359  17.785   5.367
 3500POPC   GL145121  43.110  17.529   5.664
 3500POPC   GL245122  43.191  17.174   5.732
 3500POPC   C1A45123  43.100  17.562   6.105
 3500POPC   D2A45124  42.855  17.425   6.431
 3500POPC   C3A45125  42.929  17.578   6.814
 3500POPC   C4A45126  43.139  17.731   7.144
 3500POPC   C1B45127  43.446  17.172   6.138
 3500POPC   C2B45128  43.269  17.146   6.554
 3500POPC   C3B45129  43.350  17.323   6.937
 3500POPC   C4B45130  43.283  17.239   7.342
 3501POPC   NC345131  20.754   0.151   5.475
 3501POPC   PO445132  20.336   0.634   5.478
 3501POPC   GL145133  20.477   0.448   5.825
 3501POPC   GL245134  20.373   0.119   5.818
 3501POPC   C1A45135  20.338   0.457   6.239
 3501POPC   D2A45136  20.329   0.625   6.649
 3501POPC   C3A45137  20.343   0.401   7.028
 3501POPC   C4A45138  20.567   0.593   7.382
 3501POPC   C1B45139  20.652   0.050   6.171
 3501POPC   C2B45140  20.600   0.195   6.584
 3501POPC   C3B45141  20.819   0.264   6.954
 3501POPC   C4B45142  20.702   0.103   7.377
 3502POPC   NC345143  24.889  38.362   5.338
 3502POPC   PO445144  25.475  37.916   5.417
 3502POPC   GL145145  25.230  38.095   5.803
 3502POPC   GL245146  25.078  38.474   5.814
 3502POPC   C1A45147  25.402  38.261   6.218
 3502POPC   D2A45148  25.327  38.333   6.673
 3502POPC   C3A45149  25.499  38.515   7.061
 3502POPC   C4A45150  25.160  38.679   7.336
 3502POPC   C1B45151  24.897  38.306   6.216
 3502POPC   C2B45152  24.816  38.325   6.678
 3502POPC   C3B45153  24.849  38.308   7.142
 3502POPC   C4B45154  24.788  38.466   7.591
 3503POPC   NC345155  18.116  36.310   5.421
 3503POPC   PO445156  18.711  35.987   5.430
 3503POPC   GL145157  18.369  36.011   5.784
 3503POPC   GL245158  17.999  36.163   5.886
 3503POPC   C1A45159  18.396  36.153   6.211
 3503POPC   D2A45160  18.223  36.132   6.623
 3503POPC   C3A45161  18.402  36.240   6.995
 3503POPC   C4A45162  18.465  36.077   7.389
 3503POPC   C1B45163  18.029  36.485   6.234
 3503POPC   C2B45164  18.206  36.639   6.621
 3503POPC   C3B45165  17.971  36.487   6.961
 3503POPC   C4B45166  18.016  36.323   7.372
 3504POPC   NC345167  44.893  32.444   5.566
 3504POPC   PO445168  44.501  31.989   5.369
 3504POPC   GL145169  44.541  32.134   5.784
 3504POPC   GL245170  44.818  31.975   5.850
 3504POPC   C1A45171  44.574  32.414   6.181
 3504POPC   D2A45172  44.593  32.328   6.626
 3504POPC   C3A45173  44.582  32.629   6.953
 3504POPC   C4A45174  44.276  32.675   7.259
 3504POPC   C1B45175   0.016  32.128   6.218
 3504POPC   C2B45176   0.020  32.038   6.640
 3504POPC   C3B45177  44.797  32.076   7.041
 3504POPC   C4B45178  44.960  32.396   7.301
 3505POPC   NC345179  10.106  42.411   5.252
 3505POPC   PO445180  10.703  42.595   5.471
 3505POPC   GL145181  10.542  42.307   5.771
 3505POPC   GL245182  10.231  42.451   5.849
 3505POPC   C1A45183  10.451  42.105   6.187
 3505POPC   D2A45184  10.384  42.095   6.635
 3505POPC   C3A45185  10.659  42.047   7.000
 3505POPC   C4A45186  10.569  42.108   7.422
 3505POPC   C1B45187  10.430  42.646   6.225
 3505POPC   C2B45188  10.439  42.593   6.680
 3505POPC   C3B45189  10.294  42.398   7.068
 3505POPC   C4B45190  10.585  42.596   7.307
 3506POPC   NC345191  44.268  10.646   5.026
 3506POPC   PO445192  44.739  10.469   5.489
 3506POPC   GL145193  44.743  10.547   5.900
 3506POPC   GL245194  44.678  10.885   5.874
 3506POPC   C1A45195  44.670  10.282   6.274
 3506POPC   D2A45196  44.570  10.159   6.695
 3506POPC   C3A45197  44.880  10.215   6.979
 3506POPC   C4A45198  44.731  10.439   7.298
 3506POPC   C1B45199  44.528  10.771   6.323
 3506POPC   C2B45200  44.630  10.669   6.790
 3506POPC   C3B45201  44.736  10.932   7.166
 3506POPC   C4B45202  44.590  11.146   7.546
 3507POPC   NC345203  39.243  17.103   5.496
 3507POPC   PO445204  39.130  16.406   5.582
 3507POPC   GL145205  39.496  16.566   5.846
 3507POPC   GL245206  39.601  16.952   5.846
 3507POPC   C1A45207  39.492  16.464   6.283
 3507POPC   D2A45208  39.205  16.547   6.624
 3507POPC   C3A45209  39.436  16.484   7.001
 3507POPC   C4A45210  39.285  16.361   7.387
 3507POPC   C1B45211  39.325  16.948   6.198
 3507POPC   C2B45212  39.201  17.099   6.586
 3507POPC   C3B45213  39.186  16.970   7.013
 3507POPC   C4B45214  38.991  16.788   7.385
 3508POPC   NC345215  42.503  16.585   5.389
 3508POPC   PO445216  41.892  16.751   5.377
 3508POPC   GL145217  42.199  16.790   5.764
 3508POPC   GL245218  42.586  16.798   5.848
 3508POPC   C1A45219  42.236  16.836   6.215
 3508POPC   D2A45220  42.197  16.657   6.606
 3508POPC   C3A45221  42.373  16.836   6.950
 3508POPC   C4A45222  42.457  16.968   7.355
 3508POPC   C1B45223  42.674  16.542   6.246
 3508POPC   C2B45224  42.683  16.498   6.709
 3508POPC   C3B45225  42.733  16.527   7.174
 3508POPC   C4B45226  42.614  16.481   7.620
 3509POPC   NC345227  14.504  28.814   5.371
 3509POPC   PO445228  14.638  29.469   5.348
 3509POPC   GL145229  14.464  29.211   5.679
 3509POPC   GL245230  14.424  29.446   5.908
 3509POPC   C1A45231  14.577  28.961   6.048
 3509POPC   D2A45232  14.724  29.010   6.475
 3509POPC   C3A45233  14.419  28.985   6.806
 3509POPC   C4A45234  14.633  28.999   7.185
 3509POPC   C1B45235  14.371  29.343   6.326
 3509POPC   C2B45236  14.036  29.264   6.566
 3509POPC   C3B45237  14.079  29.380   6.972
 3509POPC   C4B45238  14.258  29.330   7.356
 3510POPC   NC345239  30.257  24.452   5.417
 3510POPC   PO445240  29.705  24.049   5.422
 3510POPC   GL145241  29.840  24.361   5.747
 3510POPC   GL245242  30.054  24.674   5.808
 3510POPC   C1A45243  30.041  24.237   6.122
 3510POPC   D2A45244  29.799  24.260   6.483
 3510POPC   C3A45245  30.025  24.253   6.854
 3510POPC   C4A45246  29.955  24.381   7.258
 3510POPC   C1B45247  29.849  24.703   6.178
 3510POPC   C2B45248  30.050  24.693   6.544
 3510POPC   C3B45249  29.941  24.779   6.914
 3510POPC   C4B45250  30.069  24.860   7.262
 3511POPC   NC345251   7.920  23.835   5.611
 3511POPC   PO445252   8.251  23.338   5.194
 3511POPC   GL145253   8.393  23.665   5.702
 3511POPC   GL245254   8.207  23.854   6.005
 3511POPC   C1A45255   8.513  23.535   6.182
 3511POPC   D2A45256   8.356  23.834   6.538
 3511POPC   C3A45257   8.385  23.664   6.977
 3511POPC   C4A45258   8.582  23.592   7.360
 3511POPC   C1B45259   8.063  24.196   6.217
 3511POPC   C2B45260   7.929  24.270   6.614
 3511POPC   C3B45261   8.164  24.131   6.966
 3511POPC   C4B45262   8.199  23.956   7.393
 3512POPC   NC345263  20.018  20.029   5.017
 3512POPC   PO445264  20.585  19.782   5.362
 3512POPC   GL145265  20.460  19.952   5.756
 3512POPC   GL245266  20.767  20.170   5.706
 3512POPC   C1A45267  20.327  19.842   6.170
 3512POPC   D2A45268  20.476  19.609   6.533
 3512POPC   C3A45269  20.365  19.743   6.926
 3512POPC   C4A45270  20.571  19.760   7.325
 3512POPC   C1B45271  20.887  19.877   6.028
 3512POPC   C2B45272  20.860  19.961   6.457
 3512POPC   C3B45273  20.858  19.913   6.875
 3512POPC   C4B45274  20.769  20.203   7.176
 3513POPC   NC345275  22.701   3.089   5.485
 3513POPC   PO445276  23.158   2.583   5.277
 3513POPC   GL145277  22.969   2.662   5.689
 3513POPC   GL245278  23.259   2.531   5.833
 3513POPC   C1A45279  22.985   2.918   6.076
 3513POPC   D2A45280  22.924   2.939   6.502
 3513POPC   C3A45281  22.854   2.783   6.905
 3513POPC   C4A45282  22.983   2.970   7.303
 3513POPC   C1B45283  23.031   2.424   6.203
 3513POPC   C2B45284  23.129   2.382   6.613
 3513POPC   C3B45285  23.237   2.440   7.029
 3513POPC   C4B45286  22.978   2.476   7.354
 3514POPC   NC345287  17.549  44.937   5.461
 3514POPC   PO445288  17.964  44.319   5.428
 3514POPC   GL145289  17.687  44.521   5.766
 3514POPC   GL245290  17.296  44.542   5.767
 3514POPC   C1A45291  17.572  44.537   6.213
 3514POPC   D2A45292  17.811  44.582   6.581
 3514POPC   C3A45293  17.613  44.548   6.955
 3514POPC   C4A45294  17.491  44.290   7.300
 3514POPC   C1B45295  17.185  44.863   6.086
 3514POPC   C2B45296  17.302  44.926   6.484
 3514POPC   C3B45297  17.203  44.877   6.905
 3514POPC   C4B45298  17.330  44.793   7.298
 3515POPC   NC345299  18.089  31.882   5.599
 3515POPC   PO445300  18.343  31.394   5.185
 3515POPC   GL145301  18.420  31.487   5.668
 3515POPC   GL245302  18.234  31.272   5.916
 3515POPC   C1A45303  18.498  31.713   6.123
 3515POPC   D2A45304  18.540  31.514   6.554
 3515POPC   C3A45305  18.487  31.691   6.989
 3515POPC   C4A45306  18.393  31.412   7.323
 3515POPC   C1B45307  18.038  31.537   6.250
 3515POPC   C2B45308  18.145  31.855   6.551
 3515POPC   C3B45309  18.039  31.918   6.979
 3515POPC   C4B45310  18.173  31.853   7.402
 3516POPC   NC345311   8.448  44.903   5.527
 3516POPC   PO445312   7.841  44.811   5.321
 3516POPC   GL145313   8.025  44.692   5.746
 3516POPC   GL245314   8.350  44.479   5.785
 3516POPC   C1A45315   8.058  44.794   6.182
 3516POPC   D2A45316   8.024  44.634   6.559
 3516POPC   C3A45317   8.048  44.847   6.906
 3516POPC   C4A45318   8.048  44.790   7.337
 3516POPC   C1B45319   8.144  44.287   6.151
 3516POPC   C2B45320   8.167  44.157   6.589
 3516POPC   C3B45321   8.221  44.367   7.024
 3516POPC   C4B45322   8.285  44.348   7.506
 3517POPC   NC345323   3.920  38.347   5.372
 3517POPC   PO445324   3.315  38.516   5.468
 3517POPC   GL145325   3.616  38.606   5.855
 3517POPC   GL245326   3.841  38.323   5.873
 3517POPC   C1A45327   3.559  38.727   6.316
 3517POPC   D2A45328   3.242  38.494   6.573
 3517POPC   C3A45329   3.335  38.297   6.962
 3517POPC   C4A45330   3.583  38.520   7.261
 3517POPC   C1B45331   3.617  38.220   6.252
 3517POPC   C2B45332   3.754  38.312   6.665
 3517POPC   C3B45333   3.848  38.116   7.051
 3517POPC   C4B45334   4.229  38.081   7.243
 3518POPC   NC345335  28.310  10.305   5.480
 3518POPC   PO445336  28.551  10.955   5.392
 3518POPC   GL145337  28.626  10.673   5.754
 3518POPC   GL245338  28.284  10.654   5.848
 3518POPC   C1A45339  28.606  10.601   6.245
 3518POPC   D2A45340  28.622  10.478   6.697
 3518POPC   C3A45341  28.610  10.716   7.102
 3518POPC   C4A45342  28.624  10.553   7.527
 3518POPC   C1B45343  28.162  10.909   6.193
 3518POPC   C2B45344  28.251  10.832   6.618
 3518POPC   C3B45345  28.156  10.542   6.932
 3518POPC   C4B45346  28.052  10.617   7.326
 3519POPC   NC345347  34.321  32.068   5.329
 3519POPC   PO445348  34.864  32.534   5.212
 3519POPC   GL145349  34.915  32.528   5.687
 3519POPC   GL245350  34.947  32.152   5.741
 3519POPC   C1A45351  34.899  32.611   6.181
 3519POPC   D2A45352  35.038  32.432   6.636
 3519POPC   C3A45353  34.703  32.408   6.990
 3519POPC   C4A45354  34.277  32.217   7.042
 3519POPC   C1B45355  34.986  31.865   6.110
 3519POPC   C2B45356  35.135  31.788   6.503
 3519POPC   C3B45357  34.846  31.918   6.802
 3519POPC   C4B45358  34.767  31.896   7.206
 3520POPC   NC345359  32.605  35.584   5.428
 3520POPC   PO445360  33.175  35.443   5.180
 3520POPC   GL145361  32.965  35.347   5.690
 3520POPC   GL245362  33.120  35.399   5.983
 3520POPC   C1A45363  32.697  35.159   6.100
 3520POPC   D2A45364  32.682  35.077   6.540
 3520POPC   C3A45365  32.966  35.231   6.838
 3520POPC   C4A45366  33.156  35.260   7.210
 3520POPC   C1B45367  33.142  35.395   6.390
 3520POPC   C2B45368  33.220  35.681   6.735
 3520POPC   C3B45369  32.958  35.715   7.065
 3520POPC   C4B45370  33.201  35.792   7.394
 3521POPC   NC345371  38.798  39.268   5.369
 3521POPC   PO445372  39.492  39.208   5.224
 3521POPC   GL145373  39.286  39.353   5.657
 3521POPC   GL245374  38.959  39.307   5.846
 3521POPC   C1A45375  39.380  39.345   6.113
 3521POPC   D2A45376  39.414  39.101   6.520
 3521POPC   C3A45377  39.305  39.344   6.872
 3521POPC   C4A45378  39.512  39.563   7.171
 3521POPC   C1B45379  39.001  39.005   6.210
 3521POPC   C2B45380  38.908  39.063   6.659
 3521POPC   C3B45381  39.092  38.908   7.043
 3521POPC   C4B45382  39.492  38.981   7.218
 3522POPC   NC345383   8.185  34.081   5.244
 3522POPC   PO445384   7.776  33.561   5.382
 3522POPC   GL145385   7.947  33.753   5.742
 3522POPC   GL245386   7.876  34.116   5.700
 3522POPC   C1A45387   8.121  33.644   6.180
 3522POPC   D2A45388   8.156  33.566   6.635
 3522POPC   C3A45389   8.399  33.472   7.004
 3522POPC   C4A45390   8.012  33.576   7.214
 3522POPC   C1B45391   8.125  34.185   6.109
 3522POPC   C2B45392   8.377  34.019   6.491
 3522POPC   C3B45393   8.264  33.964   6.944
 3522POPC   C4B45394   7.977  34.104   7.284
 3523POPC   NC345395   9.533  40.723   5.431
 3523POPC   PO445396   9.852  41.260   5.169
 3523POPC   GL145397   9.909  41.130   5.613
 3523POPC   GL245398   9.953  40.791   5.721
 3523POPC   C1A45399   9.921  41.130   6.102
 3523POPC   D2A45400   9.979  41.258   6.546
 3523POPC   C3A45401   9.838  41.001   6.899
 3523POPC   C4A45402  10.103  40.771   7.163
 3523POPC   C1B45403   9.618  40.709   6.091
 3523POPC   C2B45404   9.556  40.486   6.492
 3523POPC   C3B45405   9.804  40.455   6.876
 3523POPC   C4B45406   9.689  40.487   7.292
 3524POPC   NC345407  12.376  34.147   5.481
 3524POPC   PO445408  11.815  33.646   5.381
 3524POPC   GL145409  11.759  33.764   5.816
 3524POPC   GL245410  12.138  33.867   5.879
 3524POPC   C1A45411  11.709  33.700   6.256
 3524POPC   D2A45412  12.014  33.774   6.595
 3524POPC   C3A45413  11.824  33.693   7.002
 3524POPC   C4A45414  11.892  33.928   7.359
 3524POPC   C1B45415  12.424  33.731   6.224
 3524POPC   C2B45416  12.525  33.905   6.600
 3524POPC   C3B45417  12.566  34.040   6.985
 3524POPC   C4B45418  12.381  33.800   7.272
 3525POPC   NC345419  37.463  35.387   5.433
 3525POPC   PO445420  38.122  35.359   5.385
 3525POPC   GL145421  37.926  35.361   5.819
 3525POPC   GL245422  37.597  35.215   5.925
 3525POPC   C1A45423  37.829  35.492   6.262
 3525POPC   D2A45424  37.438  35.407   6.551
 3525POPC   C3A45425  37.520  35.417   6.991
 3525POPC   C4A45426  37.883  35.676   7.136
 3525POPC   C1B45427  37.676  35.017   6.346
 3525POPC   C2B45428  37.939  35.280   6.707
 3525POPC   C3B45429  38.060  35.196   7.164
 3525POPC   C4B45430  37.827  35.065   7.574
 3526POPC   NC345431   0.685  30.030   5.375
 3526POPC   PO445432   1.179  29.540   5.255
 3526POPC   GL145433   1.085  29.614   5.702
 3526POPC   GL245434   1.060  29.953   5.855
 3526POPC   C1A45435   1.333  29.603   6.107
 3526POPC   D2A45436   1.425  29.559   6.558
 3526POPC   C3A45437   1.389  29.713   7.014
 3526POPC   C4A45438   1.215  29.752   7.455
 3526POPC   C1B45439   1.096  30.014   6.322
 3526POPC   C2B45440   1.049  29.999   6.764
 3526POPC   C3B45441   0.880  29.982   7.175
 3526POPC   C4B45442   0.965  30.162   7.585
 3527POPC   NC345443  20.754   8.762   5.493
 3527POPC   PO445444  21.034   9.370   5.517
 3527POPC   GL145445  20.789   9.143   5.854
 3527POPC   GL245446  20.436   9.139   5.832
 3527POPC   C1A45447  20.727   8.902   6.263
 3527POPC   D2A45448  20.991   8.789   6.638
 3527POPC   C3A45449  20.791   8.758   7.043
 3527POPC   C4A45450  20.644   8.891   7.476
 3527POPC   C1B45451  20.504   9.368   6.233
 3527POPC   C2B45452  20.440   9.197   6.660
 3527POPC   C3B45453  20.337   9.012   7.065
 3527POPC   C4B45454  20.119   8.994   7.464
 3528POPC   NC345455  37.549  26.021   4.970
 3528POPC   PO445456  37.709  25.714   5.500
 3528POPC   GL145457  37.499  25.979   5.797
 3528POPC   GL245458  37.619  26.324   5.781
 3528POPC   C1A45459  37.476  25.798   6.206
 3528POPC   D2A45460  37.809  25.743   6.477
 3528POPC   C3A45461  37.665  25.865   6.853
 3528POPC   C4A45462  37.828  25.758   7.227
 3528POPC   C1B45463  37.850  26.155   6.165
 3528POPC   C2B45464  38.069  26.171   6.578
 3528POPC   C3B45465  38.009  26.204   7.024
 3528POPC   C4B45466  37.606  26.224   7.260
 3529POPC   NC345467  24.391  28.735   5.597
 3529POPC   PO445468  24.866  29.099   5.204
 3529POPC   GL145469  24.852  28.994   5.695
 3529POPC   GL245470  24.562  29.143   5.865
 3529POPC   C1A45471  24.806  28.876   6.191
 3529POPC   D2A45472  24.619  29.128   6.557
 3529POPC   C3A45473  24.819  29.165   6.944
 3529POPC   C4A45474  24.673  28.958   7.299
 3529POPC   C1B45475  24.239  29.170   6.202
 3529POPC   C2B45476  24.091  29.173   6.646
 3529POPC   C3B45477  24.197  29.059   7.072
 3529POPC   C4B45478  24.084  29.154   7.496
 3530POPC   NC345479  44.278   0.011   5.588
 3530POPC   PO445480  43.734  44.672   5.290
 3530POPC   GL145481  43.809  44.573   5.770
 3530POPC   GL245482  43.917  44.906   5.931
 3530POPC   C1A45483  43.725  44.569   6.258
 3530POPC   D2A45484  43.746  44.854   6.645
 3530POPC   C3A45485  43.709  44.578   6.999
 3530POPC   C4A45486  43.696  44.262   7.312
 3530POPC   C1B45487  44.220  44.911   6.286
 3530POPC   C2B45488  44.328  44.991   6.723
 3530POPC   C3B45489  44.101  44.887   7.095
 3530POPC   C4B45490  43.956  44.674   7.476
 3531POPC   NC345491  42.592  42.039   5.372
 3531POPC   PO445492  42.050  42.427   5.251
 3531POPC   GL145493  42.134  42.308   5.692
 3531POPC   GL245494  42.472  42.441   5.736
 3531POPC   C1A45495  42.277  42.234   6.160
 3531POPC   D2A45496  42.471  42.397   6.547
 3531POPC   C3A45497  42.215  42.470   6.906
 3531POPC   C4A45498  42.173  42.319   7.342
 3531POPC   C1B45499  42.643  42.646   6.118
 3531POPC   C2B45500  42.819  42.782   6.518
 3531POPC   C3B45501  42.660  42.730   6.919
 3531POPC   C4B45502  42.660  42.425   7.212
 3532POPC   NC345503  11.504   3.528   5.497
 3532POPC   PO445504  10.929   3.222   5.144
 3532POPC   GL145505  10.997   3.449   5.632
 3532POPC   GL245506  11.192   3.756   5.809
 3532POPC   C1A45507  11.211   3.355   6.089
 3532POPC   D2A45508  11.446   3.391   6.472
 3532POPC   C3A45509  11.358   3.232   6.861
 3532POPC   C4A45510  11.403   3.374   7.241
 3532POPC   C1B45511  11.205   3.957   6.213
 3532POPC   C2B45512  11.392   3.898   6.581
 3532POPC   C3B45513  11.256   3.745   6.927
 3532POPC   C4B45514  11.293   3.868   7.340
 3533POPC   NC345515  39.318  31.150   5.453
 3533POPC   PO445516  39.093  31.796   5.428
 3533POPC   GL145517  39.358  31.590   5.749
 3533POPC   GL245518  39.087  31.364   5.855
 3533POPC   C1A45519  39.425  31.519   6.207
 3533POPC   D2A45520  39.077  31.472   6.520
 3533POPC   C3A45521  39.243  31.537   6.954
 3533POPC   C4A45522  39.339  31.473   7.422
 3533POPC   C1B45523  38.738  31.266   6.117
 3533POPC   C2B45524  38.772  31.022   6.483
 3533POPC   C3B45525  38.864  31.159   6.889
 3533POPC   C4B45526  38.853  31.378   7.258
 3534POPC   NC345527  39.533  26.329   5.222
 3534POPC   PO445528  39.130  26.281   5.694
 3534POPC   GL145529  39.532  26.140   5.878
 3534POPC   GL245530  39.579  25.783   5.874
 3534POPC   C1A45531  39.474  26.261   6.303
 3534POPC   D2A45532  39.390  26.439   6.676
 3534POPC   C3A45533  39.585  26.238   6.985
 3534POPC   C4A45534  39.406  26.028   7.302
 3534POPC   C1B45535  39.275  25.799   6.219
 3534POPC   C2B45536  39.092  25.980   6.606
 3534POPC   C3B45537  38.878  25.827   6.974
 3534POPC   C4B45538  39.108  25.627   7.295
 3535POPC   NC345539  12.659  14.677   5.228
 3535POPC   PO445540  12.937  14.081   5.422
 3535POPC   GL145541  12.903  14.163   5.833
 3535POPC   GL245542  12.546  14.201   5.809
 3535POPC   C1A45543  13.009  14.315   6.239
 3535POPC   D2A45544  13.189  14.610   6.518
 3535POPC   C3A45545  12.946  14.511   6.862
 3535POPC   C4A45546  13.007  14.276   7.211
 3535POPC   C1B45547  12.646  14.578   5.994
 3535POPC   C2B45548  12.671  14.736   6.439
 3535POPC   C3B45549  12.505  14.826   6.859
 3535POPC   C4B45550  12.565  14.584   7.206
 3536POPC   NC345551   2.190   3.319   5.424
 3536POPC   PO445552   1.855   3.837   5.615
 3536POPC   GL145553   1.710   3.576   5.949
 3536POPC   GL245554   1.988   3.374   5.888
 3536POPC   C1A45555   1.830   3.497   6.414
 3536POPC   D2A45556   2.227   3.628   6.667
 3536POPC   C3A45557   2.242   3.781   7.061
 3536POPC   C4A45558   1.841   3.772   7.218
 3536POPC   C1B45559   2.288   3.385   6.218
 3536POPC   C2B45560   2.190   3.134   6.603
 3536POPC   C3B45561   1.884   3.001   6.888
 3536POPC   C4B45562   1.993   3.256   7.204
 3537POPC   NC345563  24.447   4.317   5.469
 3537POPC   PO445564  24.797   3.733   5.762
 3537POPC   GL145565  24.851   4.088   6.016
 3537POPC   GL245566  24.616   4.364   5.953
 3537POPC   C1A45567  24.737   4.177   6.447
 3537POPC   D2A45568  24.756   4.509   6.703
 3537POPC   C3A45569  24.802   4.407   7.117
 3537POPC   C4A45570  24.888   4.585   7.546
 3537POPC   C1B45571  24.361   4.019   6.157
 3537POPC   C2B45572  24.238   4.055   6.575
 3537POPC   C3B45573  24.293   4.291   6.955
 3537POPC   C4B45574  24.207   4.136   7.381
 3538POPC   NC345575   9.914  12.492   5.407
 3538POPC   PO445576   9.417  12.095   5.639
 3538POPC   GL145577   9.818  12.183   5.795
 3538POPC   GL245578   9.905  11.839   5.855
 3538POPC   C1A45579  10.064  12.255   6.159
 3538POPC   D2A45580  10.027  12.019   6.532
 3538POPC   C3A45581   9.765  12.260   6.812
 3538POPC   C4A45582  10.000  12.462   7.125
 3538POPC   C1B45583   9.628  11.911   6.228
 3538POPC   C2B45584   9.562  11.768   6.656
 3538POPC   C3B45585   9.683  11.821   7.078
 3538POPC   C4B45586   9.515  12.162   7.263
 3539POPC   NC345587  23.946  11.225   5.290
 3539POPC   PO445588  23.512  11.673   5.337
 3539POPC   GL145589  23.641  11.377   5.682
 3539POPC   GL245590  23.995  11.317   5.777
 3539POPC   C1A45591  23.574  11.259   6.114
 3539POPC   D2A45592  23.661  11.055   6.508
 3539POPC   C3A45593  23.552  11.297   6.865
 3539POPC   C4A45594  23.423  11.202   7.269
 3539POPC   C1B45595  24.073  11.138   6.167
 3539POPC   C2B45596  24.149  11.213   6.601
 3539POPC   C3B45597  23.984  11.058   6.972
 3539POPC   C4B45598  23.890  11.397   7.237
 3540POPC   NC345599   5.948  20.460   5.398
 3540POPC   PO445600   5.296  20.302   5.333
 3540POPC   GL145601   5.564  20.417   5.725
 3540POPC   GL245602   5.786  20.739   5.800
 3540POPC   C1A45603   5.725  20.403   6.163
 3540POPC   D2A45604   5.668  20.698   6.480
 3540POPC   C3A45605   5.724  20.488   6.851
 3540POPC   C4A45606   5.679  20.452   7.261
 3540POPC   C1B45607   6.051  20.881   6.186
 3540POPC   C2B45608   6.211  21.050   6.571
 3540POPC   C3B45609   6.077  20.887   6.978
 3540POPC   C4B45610   6.137  21.088   7.363
 3541POPC   NC345611  31.014  11.058   5.063
 3541POPC   PO445612  31.600  11.446   5.118
 3541POPC   GL145613  31.590  11.514   5.631
 3541POPC   GL245614  31.260  11.656   5.788
 3541POPC   C1A45615  31.536  11.314   6.075
 3541POPC   D2A45616  31.335  11.230   6.485
 3541POPC   C3A45617  31.519  11.352   6.868
 3541POPC   C4A45618  31.363  11.234   7.235
 3541POPC   C1B45619  31.233  11.719   6.260
 3541POPC   C2B45620  31.123  11.662   6.725
 3541POPC   C3B45621  31.303  11.762   7.129
 3541POPC   C4B45622  31.271  11.644   7.562
 3542POPC   NC345623   5.175   2.547   5.282
 3542POPC   PO445624   5.217   3.200   5.339
 3542POPC   GL145625   5.337   3.145   5.748
 3542POPC   GL245626   5.187   2.803   5.746
 3542POPC   C1A45627   5.355   3.207   6.207
 3542POPC   D2A45628   5.273   2.929   6.568
 3542POPC   C3A45629   5.215   3.094   6.969
 3542POPC   C4A45630   5.077   3.016   7.402
 3542POPC   C1B45631   4.992   2.809   6.148
 3542POPC   C2B45632   4.773   2.736   6.545
 3542POPC   C3B45633   4.847   2.740   6.978
 3542POPC   C4B45634   4.734   2.359   7.157
 3543POPC   NC345635  26.145  31.873   5.350
 3543POPC   PO445636  25.856  31.310   5.251
 3543POPC   GL145637  25.801  31.593   5.631
 3543POPC   GL245638  26.138  31.557   5.781
 3543POPC   C1A45639  25.778  31.530   6.117
 3543POPC   D2A45640  25.990  31.520   6.520
 3543POPC   C3A45641  25.866  31.667   6.920
 3543POPC   C4A45642  25.778  31.377   7.212
 3543POPC   C1B45643  26.384  31.496   6.158
 3543POPC   C2B45644  26.422  31.284   6.570
 3543POPC   C3B45645  26.351  31.500   6.977
 3543POPC   C4B45646  26.154  31.639   7.386
 3544POPC   NC345647   0.915  11.785   5.468
 3544POPC   PO445648   1.228  12.384   5.415
 3544POPC   GL145649   1.355  12.233   5.829
 3544POPC   GL245650   1.341  11.866   5.815
 3544POPC   C1A45651   1.239  12.126   6.265
 3544POPC   D2A45652   1.360  12.085   6.700
 3544POPC   C3A45653   1.133  12.307   7.015
 3544POPC   C4A45654   1.363  12.480   7.358
 3544POPC   C1B45655   1.155  11.613   6.162
 3544POPC   C2B45656   0.998  11.748   6.572
 3544POPC   C3B45657   1.063  11.717   7.007
 3544POPC   C4B45658   1.274  11.918   7.325
 3545POPC   NC345659  42.608  34.817   5.422
 3545POPC   PO445660  42.292  34.232   5.329
 3545POPC   GL145661  42.322  34.494   5.684
 3545POPC   GL245662  42.691  34.391   5.702
 3545POPC   C1A45663  42.302  34.790   6.059
 3545POPC   D2A45664  42.103  34.865   6.470
 3545POPC   C3A45665  42.410  34.819   6.841
 3545POPC   C4A45666  42.342  34.810   7.271
 3545POPC   C1B45667  42.544  34.329   6.102
 3545POPC   C2B45668  42.472  34.475   6.466
 3545POPC   C3B45669  42.529  34.292   6.855
 3545POPC   C4B45670  42.699  34.430   7.233
 3546POPC   NC345671   2.563  37.000   5.432
 3546POPC   PO445672   3.198  36.691   5.509
 3546POPC   GL145673   2.894  36.970   5.825
 3546POPC   GL245674   2.527  36.805   5.897
 3546POPC   C1A45675   2.728  37.049   6.282
 3546POPC   D2A45676   2.661  36.826   6.688
 3546POPC   C3A45677   2.674  37.032   7.100
 3546POPC   C4A45678   2.380  37.084   7.443
 3546POPC   C1B45679   2.484  36.477   6.223
 3546POPC   C2B45680   2.457  36.345   6.663
 3546POPC   C3B45681   2.351  36.588   7.049
 3546POPC   C4B45682   2.400  36.604   7.519
 3547POPC   NC345683   6.140  24.301   5.233
 3547POPC   PO445684   6.860  24.450   5.331
 3547POPC   GL145685   6.705  24.401   5.776
 3547POPC   GL245686   6.589  24.114   5.931
 3547POPC   C1A45687   6.683  24.672   6.138
 3547POPC   D2A45688   6.493  24.734   6.530
 3547POPC   C3A45689   6.408  24.371   6.766
 3547POPC   C4A45690   6.493  24.409   7.190
 3547POPC   C1B45691   6.984  24.238   6.177
 3547POPC   C2B45692   6.985  24.458   6.578
 3547POPC   C3B45693   6.987  24.321   7.008
 3547POPC   C4B45694   6.933  24.456   7.440
 3548POPC   NC345695  37.203  43.106   5.423
 3548POPC   PO445696  36.644  43.417   5.528
 3548POPC   GL145697  36.890  43.149   5.826
 3548POPC   GL245698  36.874  42.794   5.697
 3548POPC   C1A45699  37.106  43.021   6.215
 3548POPC   D2A45700  37.215  43.192   6.605
 3548POPC   C3A45701  36.991  43.088   6.936
 3548POPC   C4A45702  36.754  43.208   7.252
 3548POPC   C1B45703  36.725  42.708   6.110
 3548POPC   C2B45704  36.692  42.897   6.530
 3548POPC   C3B45705  36.678  42.681   6.950
 3548POPC   C4B45706  36.714  42.721   7.396
 3549POPC   NC345707  34.295  35.751   5.229
 3549POPC   PO445708  34.206  36.400   5.473
 3549POPC   GL145709  34.453  36.072   5.671
 3549POPC   GL245710  34.305  35.757   5.756
 3549POPC   C1A45711  34.495  36.055   6.132
 3549POPC   D2A45712  34.424  35.872   6.510
 3549POPC   C3A45713  34.523  36.127   6.848
 3549POPC   C4A45714  34.749  36.396   7.145
 3549POPC   C1B45715  34.054  35.736   6.178
 3549POPC   C2B45716  33.924  35.875   6.621
 3549POPC   C3B45717  34.138  35.855   7.061
 3549POPC   C4B45718  34.538  35.941   7.323
 3550POPC   NC345719   0.350   5.377   5.401
 3550POPC   PO445720   0.416   6.076   5.396
 3550POPC   GL145721   0.726   5.944   5.706
 3550POPC   GL245722   0.678   5.593   5.753
 3550POPC   C1A45723   0.692   5.969   6.178
 3550POPC   D2A45724   0.540   5.800   6.589
 3550POPC   C3A45725   0.464   6.047   7.000
 3550POPC   C4A45726   0.326   6.062   7.437
 3550POPC   C1B45727   0.787   5.427   6.166
 3550POPC   C2B45728   0.811   5.240   6.544
 3550POPC   C3B45729   0.733   5.436   6.894
 3550POPC   C4B45730   0.663   5.661   7.267
 3551POPC   NC345731  33.638  43.002   5.398
 3551POPC   PO445732  33.441  43.634   5.648
 3551POPC   GL145733  33.700  43.401   5.875
 3551POPC   GL245734  33.924  43.172   5.775
 3551POPC   C1A45735  33.677  43.284   6.290
 3551POPC   D2A45736  33.394  43.280   6.624
 3551POPC   C3A45737  33.617  43.354   7.011
 3551POPC   C4A45738  33.963  43.425   7.292
 3551POPC   C1B45739  33.710  42.846   6.023
 3551POPC   C2B45740  33.653  42.778   6.464
 3551POPC   C3B45741  33.571  42.858   6.884
 3551POPC   C4B45742  33.782  42.901   7.253
 3552POPC   NC345743  26.108  39.128   5.162
 3552POPC   PO445744  25.756  39.593   5.422
 3552POPC   GL145745  25.995  39.279   5.701
 3552POPC   GL245746  25.868  38.975   5.814
 3552POPC   C1A45747  26.251  39.045   6.100
 3552POPC   D2A45748  26.192  38.830   6.509
 3552POPC   C3A45749  26.204  39.054   6.925
 3552POPC   C4A45750  26.187  39.205   7.360
 3552POPC   C1B45751  25.866  39.367   6.179
 3552POPC   C2B45752  26.047  39.598   6.571
 3552POPC   C3B45753  25.966  39.543   7.039
 3552POPC   C4B45754  25.752  39.459   7.473
 3553POPC   NC345755  31.609  44.345   5.432
 3553POPC   PO445756  31.351  44.965   5.563
 3553POPC   GL145757  31.399  44.598   5.810
 3553POPC   GL245758  31.724  44.649   5.833
 3553POPC   C1A45759  31.364  44.379   6.220
 3553POPC   D2A45760  31.286  44.600   6.607
 3553POPC   C3A45761  31.119  44.441   6.976
 3553POPC   C4A45762  31.291  44.276   7.387
 3553POPC   C1B45763  31.629  44.811   6.246
 3553POPC   C2B45764  31.806  44.715   6.637
 3553POPC   C3B45765  31.621  44.623   7.029
 3553POPC   C4B45766  31.784  44.766   7.435
 3554POPC   NC345767  43.308  44.901   5.371
 3554POPC   PO445768  42.752  44.534   5.415
 3554POPC   GL145769  42.951  44.552   5.779
 3554POPC   GL245770  42.827  44.241   5.886
 3554POPC   C1A45771  43.008  44.634   6.219
 3554POPC   D2A45772  43.302  44.575   6.554
 3554POPC   C3A45773  43.235  44.770   6.921
 3554POPC   C4A45774  43.028  44.894   7.259
 3554POPC   C1B45775  42.676  44.241   6.302
 3554POPC   C2B45776  42.801  44.447   6.689
 3554POPC   C3B45777  42.876  44.424   7.122
 3554POPC   C4B45778  42.765  44.527   7.568
 3555POPC   NC345779  40.782  42.387   5.253
 3555POPC   PO445780  40.460  42.041   5.756
 3555POPC   GL145781  40.534  42.480   5.803
 3555POPC   GL245782  40.873  42.633   5.750
 3555POPC   C1A45783  40.712  42.463   6.220
 3555POPC   D2A45784  40.887  42.197   6.499
 3555POPC   C3A45785  40.723  42.243   6.890
 3555POPC   C4A45786  40.848  41.950   7.163
 3555POPC   C1B45787  40.988  42.880   6.176
 3555POPC   C2B45788  40.925  42.723   6.640
 3555POPC   C3B45789  40.963  42.656   7.098
 3555POPC   C4B45790  40.769  42.629   7.505
 3556POPC   NC345791  19.516  20.281   5.446
 3556POPC   PO445792  20.074  20.490   5.097
 3556POPC   GL145793  20.015  20.572   5.606
 3556POPC   GL245794  20.059  20.881   5.796
 3556POPC   C1A45795  20.075  20.387   6.059
 3556POPC   D2A45796  20.027  20.500   6.524
 3556POPC   C3A45797  19.813  20.235   6.846
 3556POPC   C4A45798  19.831  20.419   7.285
 3556POPC   C1B45799  20.250  20.855   6.225
 3556POPC   C2B45800  20.150  21.017   6.658
 3556POPC   C3B45801  19.934  20.930   7.067
 3556POPC   C4B45802  20.046  21.021   7.509
 3557POPC   NC345803  15.895  24.396   5.299
 3557POPC   PO445804  15.497  24.874   5.562
 3557POPC   GL145805  15.893  24.648   5.756
 3557POPC   GL245806  15.937  24.269   5.786
 3557POPC   C1A45807  16.038  24.516   6.201
 3557POPC   D2A45808  15.807  24.700   6.555
 3557POPC   C3A45809  15.974  24.696   6.991
 3557POPC   C4A45810  16.297  24.454   7.207
 3557POPC   C1B45811  15.707  24.116   6.146
 3557POPC   C2B45812  15.852  24.164   6.557
 3557POPC   C3B45813  15.993  24.103   6.964
 3557POPC   C4B45814  15.784  24.263   7.260
 3558POPC   NC345815  27.838  44.744   5.403
 3558POPC   PO445816  27.357   0.080   5.282
 3558POPC   GL145817  27.455  44.992   5.707
 3558POPC   GL245818  27.793   0.064   5.800
 3558POPC   C1A45819  27.447  44.848   6.135
 3558POPC   D2A45820  27.521  44.638   6.503
 3558POPC   C3A45821  27.399  44.728   6.919
 3558POPC   C4A45822  27.703  44.617   7.235
 3558POPC   C1B45823  27.954   0.001   6.215
 3558POPC   C2B45824  27.761   0.120   6.595
 3558POPC   C3B45825  27.741   0.111   7.031
 3558POPC   C4B45826  28.009  44.993   7.337
 3559POPC   NC345827  44.058  16.573   5.350
 3559POPC   PO445828  43.529  17.031   5.337
 3559POPC   GL145829  43.755  16.873   5.728
 3559POPC   GL245830  43.839  16.482   5.811
 3559POPC   C1A45831  44.044  16.843   6.098
 3559POPC   D2A45832  44.021  16.472   6.348
 3559POPC   C3A45833  44.072  16.502   6.781
 3559POPC   C4A45834  43.966  16.816   7.035
 3559POPC   C1B45835  43.566  16.667   6.164
 3559POPC   C2B45836  43.643  16.798   6.584
 3559POPC   C3B45837  43.440  16.836   6.972
 3559POPC   C4B45838  43.605  16.863   7.379
 3560POPC   NC345839  10.350  19.345   5.476
 3560POPC   PO445840  10.971  19.506   5.700
 3560POPC   GL145841  10.663  19.180   5.872
 3560POPC   GL245842  10.321  19.235   5.974
 3560POPC   C1A45843  10.651  18.882   6.242
 3560POPC   D2A45844  10.578  18.941   6.711
 3560POPC   C3A45845  10.825  18.763   7.098
 3560POPC   C4A45846  10.718  19.017   7.499
 3560POPC   C1B45847  10.136  18.913   6.257
 3560POPC   C2B45848   9.936  18.989   6.629
 3560POPC   C3B45849  10.100  19.189   6.991
 3560POPC   C4B45850  10.344  18.870   7.180
 3561POPC   NC345851  40.205  20.834   5.426
 3561POPC   PO445852  40.077  20.199   5.459
 3561POPC   GL145853  40.127  20.512   5.812
 3561POPC   GL245854  40.415  20.683   5.903
 3561POPC   C1A45855  39.950  20.668   6.203
 3561POPC   D2A45856  39.760  20.887   6.544
 3561POPC   C3A45857  39.742  20.684   6.930
 3561POPC   C4A45858  39.858  20.581   7.344
 3561POPC   C1B45859  40.422  20.858   6.330
 3561POPC   C2B45860  40.239  20.862   6.724
 3561POPC   C3B45861  40.296  20.642   7.089
 3561POPC   C4B45862  40.292  20.803   7.552
 3562POPC   NC345863  11.773  19.816   5.397
 3562POPC   PO445864  12.260  20.206   5.205
 3562POPC   GL145865  12.249  19.882   5.592
 3562POPC   GL245866  11.971  19.895   5.835
 3562POPC   C1A45867  12.342  19.648   6.040
 3562POPC   D2A45868  12.226  19.788   6.477
 3562POPC   C3A45869  12.481  19.885   6.810
 3562POPC   C4A45870  12.347  19.990   7.220
 3562POPC   C1B45871  11.813  19.734   6.183
 3562POPC   C2B45872  11.713  19.874   6.567
 3562POPC   C3B45873  11.934  19.787   6.925
 3562POPC   C4B45874  11.864  19.899   7.344
 3563POPC   NC345875   0.765  32.451   5.279
 3563POPC   PO445876   0.247  32.070   5.505
 3563POPC   GL145877   0.448  32.192   5.880
 3563POPC   GL245878   0.776  32.284   5.780
 3563POPC   C1A45879   0.627  32.198   6.300
 3563POPC   D2A45880   0.505  32.312   6.708
 3563POPC   C3A45881   0.332  32.095   7.054
 3563POPC   C4A45882   0.424  32.174   7.480
 3563POPC   C1B45883   0.953  32.556   6.077
 3563POPC   C2B45884   0.960  32.578   6.530
 3563POPC   C3B45885   0.851  32.588   6.972
 3563POPC   C4B45886   0.784  32.592   7.484
 3564POPC   NC345887  42.097  26.663   5.416
 3564POPC   PO445888  42.600  27.002   5.307
 3564POPC   GL145889  42.549  26.814   5.746
 3564POPC   GL245890  42.219  26.743   5.908
 3564POPC   C1A45891  42.646  26.665   6.170
 3564POPC   D2A45892  42.310  26.728   6.503
 3564POPC   C3A45893  42.351  26.923   6.926
 3564POPC   C4A45894  42.644  26.918   7.277
 3564POPC   C1B45895  41.887  26.584   6.193
 3564POPC   C2B45896  41.775  26.679   6.628
 3564POPC   C3B45897  41.946  26.590   7.022
 3564POPC   C4B45898  42.281  26.564   7.340
 3565POPC   NC345899  38.339   4.771   5.300
 3565POPC   PO445900  38.877   4.310   5.431
 3565POPC   GL145901  38.581   4.500   5.755
 3565POPC   GL245902  38.235   4.319   5.746
 3565POPC   C1A45903  38.523   4.470   6.226
 3565POPC   D2A45904  38.510   4.341   6.660
 3565POPC   C3A45905  38.755   4.548   6.952
 3565POPC   C4A45906  38.493   4.513   7.294
 3565POPC   C1B45907  38.177   4.072   6.153
 3565POPC   C2B45908  38.039   4.189   6.549
 3565POPC   C3B45909  38.083   4.022   6.953
 3565POPC   C4B45910  38.263   4.020   7.398
 3566POPC   NC345911  23.994  34.504   5.550
 3566POPC   PO445912  23.557  34.993   5.365
 3566POPC   GL145913  23.527  34.744   5.755
 3566POPC   GL245914  23.271  34.921   5.906
 3566POPC   C1A45915  23.627  34.466   6.134
 3566POPC   D2A45916  23.766  34.531   6.580
 3566POPC   C3A45917  23.567  34.444   6.966
 3566POPC   C4A45918  23.741  34.322   7.334
 3566POPC   C1B45919  23.434  34.908   6.294
 3566POPC   C2B45920  23.299  34.761   6.674
 3566POPC   C3B45921  23.355  34.885   7.116
 3566POPC   C4B45922  23.783  34.843   7.298
 3567POPC   NC345923   1.615  39.198   5.599
 3567POPC   PO445924   2.287  38.896   5.402
 3567POPC   GL145925   2.046  38.940   5.763
 3567POPC   GL245926   2.111  39.302   5.827
 3567POPC   C1A45927   2.079  38.928   6.204
 3567POPC   D2A45928   2.244  39.209   6.509
 3567POPC   C3A45929   2.059  39.059   6.862
 3567POPC   C4A45930   1.890  39.038   7.263
 3567POPC   C1B45931   1.844  39.397   6.189
 3567POPC   C2B45932   1.768  39.453   6.623
 3567POPC   C3B45933   1.622  39.502   7.034
 3567POPC   C4B45934   1.764  39.478   7.458
 3568POPC   NC345935  14.063  13.393   5.359
 3568POPC   PO445936  13.487  13.758   5.283
 3568POPC   GL145937  13.701  13.679   5.703
 3568POPC   GL245938  13.736  13.320   5.757
 3568POPC   C1A45939  13.568  13.691   6.160
 3568POPC   D2A45940  13.270  13.616   6.505
 3568POPC   C3A45941  13.355  13.578   6.955
 3568POPC   C4A45942  13.341  13.899   7.284
 3568POPC   C1B45943  13.950  13.348   6.165
 3568POPC   C2B45944  13.905  13.517   6.590
 3568POPC   C3B45945  13.872  13.643   7.015
 3568POPC   C4B45946  13.989  13.433   7.392
 3569POPC   NC345947  35.179  15.815   5.505
 3569POPC   PO445948  35.751  16.107   5.504
 3569POPC   GL145949  35.435  16.162   5.843
 3569POPC   GL245950  35.060  16.258   5.931
 3569POPC   C1A45951  35.581  16.054   6.259
 3569POPC   D2A45952  35.574  16.193   6.673
 3569POPC   C3A45953  35.525  15.884   6.969
 3569POPC   C4A45954  35.315  16.103   7.278
 3569POPC   C1B45955  35.113  15.890   6.192
 3569POPC   C2B45956  35.130  15.826   6.634
 3569POPC   C3B45957  34.980  15.775   7.062
 3569POPC   C4B45958  35.154  15.644   7.488
 3570POPC   NC345959  32.894  13.701   5.321
 3570POPC   PO445960  33.582  13.649   5.346
 3570POPC   GL145961  33.240  13.554   5.733
 3570POPC   GL245962  32.893  13.750   5.821
 3570POPC   C1A45963  33.139  13.412   6.212
 3570POPC   D2A45964  32.973  13.541   6.687
 3570POPC   C3A45965  32.875  13.323   7.123
 3570POPC   C4A45966  33.124  13.332   7.546
 3570POPC   C1B45967  32.865  13.840   6.269
 3570POPC   C2B45968  33.166  14.047   6.524
 3570POPC   C3B45969  33.327  13.896   6.884
 3570POPC   C4B45970  33.105  13.771   7.233
 3571POPC   NC345971  20.652  32.804   5.371
 3571POPC   PO445972  20.598  33.501   5.399
 3571POPC   GL145973  20.399  33.329   5.819
 3571POPC   GL245974  20.493  32.969   5.853
 3571POPC   C1A45975  20.398  33.258   6.315
 3571POPC   D2A45976  20.622  33.101   6.712
 3571POPC   C3A45977  20.512  33.251   7.155
 3571POPC   C4A45978  20.514  33.055   7.578
 3571POPC   C1B45979  20.628  32.769   6.260
 3571POPC   C2B45980  20.435  32.585   6.647
 3571POPC   C3B45981  20.446  32.730   7.075
 3571POPC   C4B45982  20.823  32.745   7.298
 3572POPC   NC345983  38.634  31.646   5.471
 3572POPC   PO445984  38.449  31.004   5.498
 3572POPC   GL145985  38.203  31.295   5.799
 3572POPC   GL245986  38.215  31.666   5.800
 3572POPC   C1A45987  38.215  31.426   6.246
 3572POPC   D2A45988  38.520  31.474   6.551
 3572POPC   C3A45989  38.278  31.571   6.908
 3572POPC   C4A45990  38.258  31.363   7.256
 3572POPC   C1B45991  38.571  31.794   6.110
 3572POPC   C2B45992  38.806  31.915   6.503
 3572POPC   C3B45993  38.774  31.747   6.907
 3572POPC   C4B45994  38.567  31.784   7.316
 3573POPC   NC345995  20.384  15.214   5.441
 3573POPC   PO445996  21.025  15.153   5.353
 3573POPC   GL145997  20.807  15.112   5.770
 3573POPC   GL245998  20.460  14.983   5.884
 3573POPC   C1A45999  20.902  14.982   6.199
 3573POPC   D2A46000  20.628  15.032   6.550
 3573POPC   C3A46001  20.803  14.973   6.964
 3573POPC   C4A46002  20.504  14.857   7.257
 3573POPC   C1B46003  20.433  15.396   6.090
 3573POPC   C2B46004  20.514  15.555   6.502
 3573POPC   C3B46005  20.478  15.370   6.929
 3573POPC   C4B46006  20.489  15.486   7.365
 3574POPC   NC346007  28.762  22.800   5.386
 3574POPC   PO446008  29.351  23.121   5.303
 3574POPC   GL146009  29.233  22.920   5.667
 3574POPC   GL246010  29.337  23.197   5.849
 3574POPC   C1A46011  29.029  22.824   6.093
 3574POPC   D2A46012  28.847  22.968   6.501
 3574POPC   C3A46013  28.959  22.842   6.926
 3574POPC   C4A46014  29.111  22.742   7.351
 3574POPC   C1B46015  29.238  23.269   6.294
 3574POPC   C2B46016  29.288  23.148   6.695
 3574POPC   C3B46017  29.354  23.138   7.124
 3574POPC   C4B46018  29.510  23.471   7.360
 3575POPC   NC346019   9.384  37.522   5.437
 3575POPC   PO446020   9.129  38.074   5.402
 3575POPC   GL146021   8.956  37.812   5.789
 3575POPC   GL246022   9.161  37.526   5.934
 3575POPC   C1A46023   8.765  37.645   6.246
 3575POPC   D2A46024   8.822  37.433   6.704
 3575POPC   C3A46025   8.840  37.775   7.021
 3575POPC   C4A46026   9.160  38.100   7.026
 3575POPC   C1B46027   9.260  37.480   6.412
 3575POPC   C2B46028   9.403  37.386   6.858
 3575POPC   C3B46029   9.183  37.431   7.233
 3575POPC   C4B46030   8.736  37.324   7.251
 3576POPC   NC346031  32.067  38.102   5.481
 3576POPC   PO446032  32.282  38.804   5.547
 3576POPC   GL146033  32.468  38.608   5.863
 3576POPC   GL246034  32.504  38.289   5.703
 3576POPC   C1A46035  32.278  38.622   6.258
 3576POPC   D2A46036  32.064  38.381   6.581
 3576POPC   C3A46037  32.065  38.685   6.940
 3576POPC   C4A46038  32.160  38.890   7.367
 3576POPC   C1B46039  32.517  38.185   6.160
 3576POPC   C2B46040  32.609  38.377   6.563
 3576POPC   C3B46041  32.417  38.298   6.959
 3576POPC   C4B46042  32.588  38.167   7.371
 3577POPC   NC346043  40.572  28.708   5.167
 3577POPC   PO446044  40.876  28.157   5.415
 3577POPC   GL146045  41.017  28.171   5.850
 3577POPC   GL246046  40.941  28.493   5.966
 3577POPC   C1A46047  40.853  28.102   6.280
 3577POPC   D2A46048  40.445  28.086   6.515
 3577POPC   C3A46049  40.542  28.157   6.938
 3577POPC   C4A46050  40.907  28.218   7.153
 3577POPC   C1B46051  40.784  28.632   6.348
 3577POPC   C2B46052  40.809  28.548   6.765
 3577POPC   C3B46053  40.597  28.642   7.129
 3577POPC   C4B46054  40.665  28.958   7.431
 3578POPC   NC346055  39.149  38.038   5.424
 3578POPC   PO446056  39.566  37.555   5.380
 3578POPC   GL146057  39.494  37.785   5.743
 3578POPC   GL246058  39.162  37.672   5.794
 3578POPC   C1A46059  39.480  37.747   6.191
 3578POPC   D2A46060  39.286  37.828   6.596
 3578POPC   C3A46061  39.514  37.709   6.983
 3578POPC   C4A46062  39.527  37.649   7.448
 3578POPC   C1B46063  39.016  37.982   6.095
 3578POPC   C2B46064  38.870  38.091   6.520
 3578POPC   C3B46065  38.910  37.892   6.935
 3578POPC   C4B46066  39.091  37.895   7.348
 3579POPC   NC346067  18.061  20.641   5.302
 3579POPC   PO446068  18.668  20.354   5.540
 3579POPC   GL146069  18.277  20.514   5.754
 3579POPC   GL246070  17.895  20.430   5.733
 3579POPC   C1A46071  18.226  20.735   6.140
 3579POPC   D2A46072  18.502  20.726   6.492
 3579POPC   C3A46073  18.289  20.674   6.882
 3579POPC   C4A46074  18.072  20.853   7.207
 3579POPC   C1B46075  17.784  20.443   6.147
 3579POPC   C2B46076  17.980  20.460   6.522
 3579POPC   C3B46077  17.932  20.305   6.908
 3579POPC   C4B46078  18.163  20.288   7.277
 3580POPC   NC346079  18.586  40.918   5.234
 3580POPC   PO446080  17.954  40.844   5.307
 3580POPC   GL146081  18.278  40.975   5.672
 3580POPC   GL246082  18.642  40.843   5.757
 3580POPC   C1A46083  18.307  40.943   6.138
 3580POPC   D2A46084  18.243  40.732   6.539
 3580POPC   C3A46085  18.316  40.946   6.921
 3580POPC   C4A46086  18.206  41.023   7.362
 3580POPC   C1B46087  18.550  40.499   6.080
 3580POPC   C2B46088  18.524  40.303   6.487
 3580POPC   C3B46089  18.572  40.443   6.885
 3580POPC   C4B46090  18.585  40.660   7.269
 3581POPC   NC346091  33.572  42.261   5.413
 3581POPC   PO446092  34.050  42.756   5.376
 3581POPC   GL146093  33.938  42.480   5.741
 3581POPC   GL246094  33.919  42.120   5.781
 3581POPC   C1A46095  33.885  42.392   6.206
 3581POPC   D2A46096  33.941  42.163   6.590
 3581POPC   C3A46097  33.924  42.399   6.992
 3581POPC   C4A46098  34.141  42.489   7.395
 3581POPC   C1B46099  33.680  41.916   6.146
 3581POPC   C2B46100  33.441  42.027   6.511
 3581POPC   C3B46101  33.620  41.946   6.945
 3581POPC   C4B46102  33.426  41.879   7.327
 3582POPC   NC346103  23.243   6.912   5.626
 3582POPC   PO446104  22.871   7.431   5.338
 3582POPC   GL146105  22.974   7.403   5.772
 3582POPC   GL246106  22.661   7.447   5.895
 3582POPC   C1A46107  23.126   7.304   6.205
 3582POPC   D2A46108  23.329   7.468   6.580
 3582POPC   C3A46109  23.190   7.317   7.000
 3582POPC   C4A46110  23.005   7.368   7.414
 3582POPC   C1B46111  22.621   7.491   6.304
 3582POPC   C2B46112  22.814   7.331   6.640
 3582POPC   C3B46113  22.705   7.528   7.012
 3582POPC   C4B46114  22.487   7.412   7.341
 3583POPC   NC346115  36.551  41.740   5.200
 3583POPC   PO446116  37.155  41.473   5.366
 3583POPC   GL146117  36.917  41.709   5.681
 3583POPC   GL246118  36.629  41.939   5.674
 3583POPC   C1A46119  36.921  41.655   6.127
 3583POPC   D2A46120  37.007  41.888   6.513
 3583POPC   C3A46121  37.149  41.705   6.925
 3583POPC   C4A46122  37.017  41.561   7.351
 3583POPC   C1B46123  36.426  41.811   6.061
 3583POPC   C2B46124  36.518  41.616   6.461
 3583POPC   C3B46125  36.637  41.721   6.852
 3583POPC   C4B46126  36.470  41.665   7.243
 3584POPC   NC346127  34.878  21.001   5.504
 3584POPC   PO446128  34.589  20.386   5.409
 3584POPC   GL146129  34.539  20.519   5.815
 3584POPC   GL246130  34.324  20.831   5.813
 3584POPC   C1A46131  34.778  20.414   6.174
 3584POPC   D2A46132  34.715  20.628   6.550
 3584POPC   C3A46133  34.432  20.387   6.794
 3584POPC   C4A46134  34.575  20.355   7.221
 3584POPC   C1B46135  34.264  20.664   6.244
 3584POPC   C2B46136  34.277  20.905   6.629
 3584POPC   C3B46137  34.429  20.836   7.027
 3584POPC   C4B46138  34.106  20.594   7.187
 3585POPC   NC346139  34.612   4.025   5.305
 3585POPC   PO446140  34.537   3.421   5.382
 3585POPC   GL146141  34.624   3.483   5.787
 3585POPC   GL246142  34.458   3.784   5.758
 3585POPC   C1A46143  34.569   3.325   6.211
 3585POPC   D2A46144  34.607   3.536   6.604
 3585POPC   C3A46145  34.614   3.327   7.016
 3585POPC   C4A46146  34.514   3.493   7.449
 3585POPC   C1B46147  34.738   3.812   6.154
 3585POPC   C2B46148  34.851   3.998   6.549
 3585POPC   C3B46149  34.838   3.816   6.966
 3585POPC   C4B46150  34.898   3.832   7.390
 3586POPC   NC346151  19.571  39.729   5.328
 3586POPC   PO446152  20.258  39.580   5.429
 3586POPC   GL146153  19.900  39.737   5.727
 3586POPC   GL246154  20.002  40.041   5.916
 3586POPC   C1A46155  19.532  39.897   6.005
 3586POPC   D2A46156  19.649  40.155   6.381
 3586POPC   C3A46157  19.527  40.319   6.795
 3586POPC   C4A46158  19.790  40.131   7.144
 3586POPC   C1B46159  19.931  39.732   6.286
 3586POPC   C2B46160  19.849  39.749   6.769
 3586POPC   C3B46161  20.027  39.687   7.205
 3586POPC   C4B46162  20.400  39.603   7.535
 3587POPC   NC346163  21.882  13.394   5.273
 3587POPC   PO446164  22.415  13.770   5.438
 3587POPC   GL146165  22.154  13.525   5.715
 3587POPC   GL246166  22.414  13.408   5.952
 3587POPC   C1A46167  21.906  13.388   6.070
 3587POPC   D2A46168  21.963  13.207   6.486
 3587POPC   C3A46169  22.090  13.421   6.843
 3587POPC   C4A46170  22.059  13.651   7.212
 3587POPC   C1B46171  22.258  13.669   6.336
 3587POPC   C2B46172  22.322  13.873   6.775
 3587POPC   C3B46173  22.486  13.998   7.185
 3587POPC   C4B46174  22.669  13.892   7.600
 3588POPC   NC346175  16.316  14.604   5.443
 3588POPC   PO446176  16.952  14.288   5.514
 3588POPC   GL146177  16.555  14.208   5.749
 3588POPC   GL246178  16.591  14.526   5.865
 3588POPC   C1A46179  16.518  14.158   6.240
 3588POPC   D2A46180  16.570  14.037   6.734
 3588POPC   C3A46181  16.785  14.337   7.073
 3588POPC   C4A46182  16.957  14.572   7.474
 3588POPC   C1B46183  16.441  14.672   6.261
 3588POPC   C2B46184  16.466  14.524   6.651
 3588POPC   C3B46185  16.477  14.769   6.994
 3588POPC   C4B46186  16.468  14.600   7.380
 3589POPC   NC346187  11.956  21.206   5.570
 3589POPC   PO446188  12.424  21.581   5.526
 3589POPC   GL146189  12.303  21.385   5.908
 3589POPC   GL246190  11.948  21.430   6.018
 3589POPC   C1A46191  12.315  21.610   6.304
 3589POPC   D2A46192  12.176  21.655   6.732
 3589POPC   C3A46193  12.443  21.531   7.036
 3589POPC   C4A46194  12.265  21.156   7.067
 3589POPC   C1B46195  12.016  21.189   6.408
 3589POPC   C2B46196  11.840  21.244   6.810
 3589POPC   C3B46197  11.775  21.581   7.064
 3589POPC   C4B46198  12.075  21.761   7.269
 3590POPC   NC346199  41.433  37.777   5.459
 3590POPC   PO446200  41.830  37.277   5.554
 3590POPC   GL146201  41.613  37.520   5.877
 3590POPC   GL246202  41.567  37.885   5.970
 3590POPC   C1A46203  41.389  37.494   6.255
 3590POPC   D2A46204  41.395  37.277   6.630
 3590POPC   C3A46205  41.235  37.540   6.923
 3590POPC   C4A46206  41.560  37.733   7.119
 3590POPC   C1B46207  41.323  38.011   6.358
 3590POPC   C2B46208  41.261  38.047   6.819
 3590POPC   C3B46209  41.455  38.219   7.230
 3590POPC   C4B46210  41.470  38.265   7.715
 3591POPC   NC346211  43.779   3.983   5.407
 3591POPC   PO446212  44.123   4.637   5.502
 3591POPC   GL146213  43.885   4.343   5.739
 3591POPC   GL246214  44.112   4.070   5.859
 3591POPC   C1A46215  43.689   4.250   6.118
 3591POPC   D2A46216  43.850   4.316   6.529
 3591POPC   C3A46217  43.664   4.173   6.913
 3591POPC   C4A46218  43.713   4.364   7.311
 3591POPC   C1B46219  44.208   4.010   6.303
 3591POPC   C2B46220  44.097   3.915   6.750
 3591POPC   C3B46221  44.138   4.171   7.142
 3591POPC   C4B46222  44.089   4.152   7.609
 3592POPC   NC346223   1.085  38.171   5.148
 3592POPC   PO446224   1.306  37.522   5.545
 3592POPC   GL146225   1.354  37.602   5.918
 3592POPC   GL246226   1.000  37.600   5.950
 3592POPC   C1A46227   1.386  37.716   6.307
 3592POPC   D2A46228   1.523  37.633   6.669
 3592POPC   C3A46229   1.227  37.389   6.887
 3592POPC   C4A46230   1.334  37.465   7.296
 3592POPC   C1B46231   0.955  37.961   6.228
 3592POPC   C2B46232   1.118  37.995   6.664
 3592POPC   C3B46233   0.976  37.805   7.072
 3592POPC   C4B46234   0.972  37.954   7.532
 3593POPC   NC346235   4.258  28.236   5.074
 3593POPC   PO446236   4.134  27.656   5.442
 3593POPC   GL146237   4.205  27.956   5.791
 3593POPC   GL246238   4.239  28.331   5.728
 3593POPC   C1A46239   4.340  28.101   6.200
 3593POPC   D2A46240   4.107  28.166   6.577
 3593POPC   C3A46241   4.317  28.151   6.979
 3593POPC   C4A46242   4.105  28.420   7.271
 3593POPC   C1B46243   4.443  28.605   6.076
 3593POPC   C2B46244   4.484  28.516   6.513
 3593POPC   C3B46245   4.643  28.531   6.907
 3593POPC   C4B46246   4.640  28.370   7.328
 3594POPC   NC346247  26.503  21.965   5.491
 3594POPC   PO446248  26.904  22.488   5.611
 3594POPC   GL146249  26.826  22.140   5.836
 3594POPC   GL246250  27.128  21.960   5.763
 3594POPC   C1A46251  26.626  21.918   6.180
 3594POPC   D2A46252  26.518  21.706   6.571
 3594POPC   C3A46253  26.718  21.935   6.880
 3594POPC   C4A46254  26.725  22.031   7.295
 3594POPC   C1B46255  27.134  22.060   6.222
 3594POPC   C2B46256  26.886  22.294   6.538
 3594POPC   C3B46257  26.953  22.410   6.981
 3594POPC   C4B46258  27.195  22.260   7.363
 3595POPC   NC346259  11.998   8.430   5.123
 3595POPC   PO446260  12.166   7.805   5.353
 3595POPC   GL146261  12.033   8.169   5.579
 3595POPC   GL246262  11.838   7.915   5.776
 3595POPC   C1A46263  12.105   8.333   6.008
 3595POPC   D2A46264  12.131   8.188   6.439
 3595POPC   C3A46265  12.306   8.296   6.835
 3595POPC   C4A46266  12.434   8.258   7.269
 3595POPC   C1B46267  11.933   7.763   6.193
 3595POPC   C2B46268  12.174   7.705   6.580
 3595POPC   C3B46269  12.077   7.559   6.948
 3595POPC   C4B46270  12.137   7.811   7.268
 3596POPC   NC346271  23.794  24.758   5.598
 3596POPC   PO446272  24.082  25.210   5.211
 3596POPC   GL146273  23.955  25.200   5.746
 3596POPC   GL246274  23.648  25.189   5.851
 3596POPC   C1A46275  23.864  24.986   6.231
 3596POPC   D2A46276  23.864  25.261   6.599
 3596POPC   C3A46277  23.904  25.010   6.959
 3596POPC   C4A46278  23.858  25.061   7.401
 3596POPC   C1B46279  23.457  25.292   6.250
 3596POPC   C2B46280  23.348  25.438   6.659
 3596POPC   C3B46281  23.489  25.281   7.063
 3596POPC   C4B46282  23.409  25.421   7.482
 3597POPC   NC346283   9.060  19.241   5.196
 3597POPC   PO446284   9.071  18.729   5.549
 3597POPC   GL146285   8.914  18.966   5.876
 3597POPC   GL246286   8.839  18.673   6.029
 3597POPC   C1A46287   8.761  19.211   6.264
 3597POPC   D2A46288   8.976  19.334   6.632
 3597POPC   C3A46289   8.698  19.401   6.937
 3597POPC   C4A46290   8.700  19.290   7.326
 3597POPC   C1B46291   9.080  18.834   6.342
 3597POPC   C2B46292   8.975  18.826   6.727
 3597POPC   C3B46293   9.092  19.047   7.079
 3597POPC   C4B46294   8.926  18.820   7.396
 3598POPC   NC346295  26.023   6.251   5.359
 3598POPC   PO446296  26.155   5.557   5.396
 3598POPC   GL146297  26.005   5.805   5.730
 3598POPC   GL246298  26.242   6.058   5.782
 3598POPC   C1A46299  25.954   5.764   6.185
 3598POPC   D2A46300  26.013   5.530   6.595
 3598POPC   C3A46301  25.919   5.723   6.949
 3598POPC   C4A46302  26.022   5.986   7.282
 3598POPC   C1B46303  26.416   5.994   6.183
 3598POPC   C2B46304  26.219   6.007   6.565
 3598POPC   C3B46305  26.365   6.035   6.937
 3598POPC   C4B46306  26.426   6.331   7.221
 3599POPC   NC346307  22.685  34.012   5.458
 3599POPC   PO446308  23.279  33.773   5.352
 3599POPC   GL146309  23.065  33.776   5.751
 3599POPC   GL246310  23.127  34.105   5.836
 3599POPC   C1A46311  22.750  33.857   6.116
 3599POPC   D2A46312  22.589  33.544   6.418
 3599POPC   C3A46313  22.590  33.681   6.857
 3599POPC   C4A46314  22.793  34.015   7.111
 3599POPC   C1B46315  23.251  33.946   6.256
 3599POPC   C2B46316  23.119  33.887   6.707
 3599POPC   C3B46317  23.319  33.982   7.112
 3599POPC   C4B46318  23.214  34.342   7.345
 3600POPC   NC346319   2.710  31.845   5.500
 3600POPC   PO446320   2.536  31.183   5.516
 3600POPC   GL146321   2.501  31.449   5.846
 3600POPC   GL246322   2.155  31.624   5.824
 3600POPC   C1A46323   2.799  31.510   6.197
 3600POPC   D2A46324   3.049  31.626   6.571
 3600POPC   C3A46325   3.072  31.340   6.919
 3600POPC   C4A46326   2.890  31.245   7.301
 3600POPC   C1B46327   2.394  31.842   6.149
 3600POPC   C2B46328   2.568  31.843   6.558
 3600POPC   C3B46329   2.582  31.581   6.926
 3600POPC   C4B46330   2.455  31.713   7.333
 3601POPC   NC346331  31.148  34.963   5.395
 3601POPC   PO446332  31.364  34.380   5.169
 3601POPC   GL146333  31.399  34.557   5.648
 3601POPC   GL246334  31.204  34.417   5.880
 3601POPC   C1A46335  31.654  34.499   6.089
 3601POPC   D2A46336  31.886  34.511   6.518
 3601POPC   C3A46337  31.644  34.568   6.921
 3601POPC   C4A46338  31.731  34.410   7.349
 3601POPC   C1B46339  31.188  34.617   6.306
 3601POPC   C2B46340  31.082  34.451   6.736
 3601POPC   C3B46341  31.229  34.402   7.166
 3601POPC   C4B46342  31.235  34.307   7.596
 3602POPC   NC346343  44.857   3.418   5.448
 3602POPC   PO446344  44.230   3.773   5.440
 3602POPC   GL146345  44.427   3.434   5.756
 3602POPC   GL246346  44.627   3.656   5.827
 3602POPC   C1A46347  44.647   3.250   6.142
 3602POPC   D2A46348  44.874   3.326   6.543
 3602POPC   C3A46349  44.780   3.451   6.974
 3602POPC   C4A46350  44.959   3.274   7.354
 3602POPC   C1B46351  44.686   3.747   6.226
 3602POPC   C2B46352  44.580   3.774   6.619
 3602POPC   C3B46353  44.565   3.930   7.011
 3602POPC   C4B46354  44.353   3.771   7.359
 3603POPC   NC346355  14.548   3.212   5.430
 3603POPC   PO446356  14.130   3.685   5.461
 3603POPC   GL146357  14.001   3.566   5.884
 3603POPC   GL246358  14.271   3.320   5.887
 3603POPC   C1A46359  14.096   3.546   6.335
 3603POPC   D2A46360  14.418   3.625   6.669
 3603POPC   C3A46361  14.196   3.768   7.024
 3603POPC   C4A46362  13.951   3.579   7.334
 3603POPC   C1B46363  14.520   3.222   6.285
 3603POPC   C2B46364  14.385   3.104   6.707
 3603POPC   C3B46365  14.359   3.274   7.120
 3603POPC   C4B46366  14.390   3.104   7.520
 3604POPC   NC346367  25.249  44.267   5.154
 3604POPC   PO446368  25.390  43.714   5.524
 3604POPC   GL146369  25.219  43.861   5.922
 3604POPC   GL246370  25.448  44.117   6.091
 3604POPC   C1A46371  25.059  43.946   6.372
 3604POPC   D2A46372  25.245  44.277   6.631
 3604POPC   C3A46373  25.419  44.127   7.011
 3604POPC   C4A46374  25.161  43.828   7.195
 3604POPC   C1B46375  25.520  43.719   6.304
 3604POPC   C2B46376  25.412  43.623   6.709
 3604POPC   C3B46377  25.623  43.553   7.063
 3604POPC   C4B46378  25.693  43.824   7.354
 3605POPC   NC346379  24.733  19.444   4.940
 3605POPC   PO446380  24.588  18.925   5.374
 3605POPC   GL146381  24.649  18.998   5.814
 3605POPC   GL246382  24.282  19.019   5.811
 3605POPC   C1A46383  24.516  18.879   6.247
 3605POPC   D2A46384  24.310  18.723   6.600
 3605POPC   C3A46385  24.503  18.904   6.955
 3605POPC   C4A46386  24.803  19.205   7.119
 3605POPC   C1B46387  24.273  19.320   6.152
 3605POPC   C2B46388  24.332  19.251   6.573
 3605POPC   C3B46389  24.289  19.347   6.973
 3605POPC   C4B46390  24.499  19.605   7.248
 3606POPC   NC346391  41.995  29.754   5.365
 3606POPC   PO446392  41.630  30.187   5.534
 3606POPC   GL146393  41.378  29.976   5.807
 3606POPC   GL246394  41.556  29.660   5.715
 3606POPC   C1A46395  41.367  30.221   6.197
 3606POPC   D2A46396  41.587  30.215   6.588
 3606POPC   C3A46397  41.361  30.345   6.962
 3606POPC   C4A46398  41.615  30.218   7.279
 3606POPC   C1B46399  41.615  29.772   6.176
 3606POPC   C2B46400  41.375  29.715   6.518
 3606POPC   C3B46401  41.445  29.816   6.942
 3606POPC   C4B46402  41.801  29.757   7.184
 3607POPC   NC346403  20.963  10.300   5.454
 3607POPC   PO446404  20.391  10.448   5.791
 3607POPC   GL146405  20.561  10.842   5.925
 3607POPC   GL246406  20.232  11.014   5.938
 3607POPC   C1A46407  20.844  10.866   6.311
 3607POPC   D2A46408  20.886  10.471   6.556
 3607POPC   C3A46409  20.571  10.347   6.813
 3607POPC   C4A46410  20.683  10.551   7.159
 3607POPC   C1B46411  20.325  10.866   6.386
 3607POPC   C2B46412  20.438  10.866   6.837
 3607POPC   C3B46413  20.188  10.614   7.174
 3607POPC   C4B46414  20.034  10.719   7.612
 3608POPC   NC346415  37.444  42.167   5.342
 3608POPC   PO446416  37.399  42.772   5.663
 3608POPC   GL146417  37.683  42.552   5.916
 3608POPC   GL246418  37.782  42.282   5.726
 3608POPC   C1A46419  37.747  42.448   6.340
 3608POPC   D2A46420  37.507  42.361   6.682
 3608POPC   C3A46421  37.474  42.138   7.033
 3608POPC   C4A46422  37.674  42.391   7.320
 3608POPC   C1B46423  37.738  42.010   6.072
 3608POPC   C2B46424  37.867  41.959   6.481
 3608POPC   C3B46425  38.007  42.190   6.818
 3608POPC   C4B46426  37.940  41.974   7.183
 3609POPC   NC346427   4.355  16.073   5.400
 3609POPC   PO446428   3.932  15.589   5.643
 3609POPC   GL146429   4.229  15.877   5.841
 3609POPC   GL246430   4.605  15.839   5.811
 3609POPC   C1A46431   4.355  16.034   6.209
 3609POPC   D2A46432   4.141  16.036   6.568
 3609POPC   C3A46433   4.161  15.719   6.869
 3609POPC   C4A46434   4.081  16.047   7.165
 3609POPC   C1B46435   4.797  15.765   6.194
 3609POPC   C2B46436   4.642  15.853   6.586
 3609POPC   C3B46437   4.546  16.067   6.939
 3609POPC   C4B46438   4.555  15.813   7.259
 3610POPC   NC346439  20.589   9.397   5.409
 3610POPC   PO446440  20.476  10.104   5.334
 3610POPC   GL146441  20.553   9.957   5.748
 3610POPC   GL246442  20.773   9.669   5.845
 3610POPC   C1A46443  20.446   9.882   6.181
 3610POPC   D2A46444  20.748   9.764   6.490
 3610POPC   C3A46445  20.689   9.803   6.922
 3610POPC   C4A46446  20.487  10.058   7.229
 3610POPC   C1B46447  21.055   9.461   6.172
 3610POPC   C2B46448  20.935   9.289   6.557
 3610POPC   C3B46449  20.844   9.279   6.988
 3610POPC   C4B46450  20.559   9.440   7.262
 3611POPC   NC346451   9.142   7.715   5.515
 3611POPC   PO446452   8.779   7.341   5.229
 3611POPC   GL146453   8.786   7.395   5.705
 3611POPC   GL246454   9.014   7.132   5.762
 3611POPC   C1A46455   9.001   7.524   6.143
 3611POPC   D2A46456   9.203   7.823   6.469
 3611POPC   C3A46457   9.098   7.687   6.894
 3611POPC   C4A46458   8.901   7.530   7.253
 3611POPC   C1B46459   8.694   7.046   6.079
 3611POPC   C2B46460   8.604   7.090   6.525
 3611POPC   C3B46461   8.879   7.177   6.888
 3611POPC   C4B46462   8.900   6.996   7.323
 3612POPC   NC346463   1.083  15.486   5.308
 3612POPC   PO446464   1.345  14.827   5.210
 3612POPC   GL146465   1.300  15.011   5.654
 3612POPC   GL246466   1.289  15.372   5.757
 3612POPC   C1A46467   1.314  15.023   6.118
 3612POPC   D2A46468   1.084  14.931   6.483
 3612POPC   C3A46469   1.344  14.847   6.852
 3612POPC   C4A46470   1.307  14.995   7.307
 3612POPC   C1B46471   1.478  15.496   6.166
 3612POPC   C2B46472   1.451  15.296   6.582
 3612POPC   C3B46473   1.366  15.418   7.013
 3612POPC   C4B46474   1.536  15.502   7.415
 3613POPC   NC346475   9.364  44.951   5.321
 3613POPC   PO446476   8.813  44.626   5.469
 3613POPC   GL146477   9.050  44.869   5.753
 3613POPC   GL246478   8.750  44.814   5.939
 3613POPC   C1A46479   9.168  44.975   6.192
 3613POPC   D2A46480   8.981  44.759   6.550
 3613POPC   C3A46481   8.957  44.930   6.962
 3613POPC   C4A46482   9.059  44.744   7.344
 3613POPC   C1B46483   8.538  44.622   6.250
 3613POPC   C2B46484   8.558  44.488   6.651
 3613POPC   C3B46485   8.795  44.441   7.012
 3613POPC   C4B46486   8.555  44.709   7.286
 3614POPC   NC346487  43.255  18.353   5.411
 3614POPC   PO446488  42.576  18.202   5.546
 3614POPC   GL146489  42.932  18.290   5.813
 3614POPC   GL246490  43.192  18.030   5.816
 3614POPC   C1A46491  42.937  18.440   6.229
 3614POPC   D2A46492  42.931  18.558   6.644
 3614POPC   C3A46493  42.895  18.362   7.050
 3614POPC   C4A46494  43.106  18.520   7.470
 3614POPC   C1B46495  43.279  18.061   6.268
 3614POPC   C2B46496  43.192  18.058   6.722
 3614POPC   C3B46497  43.372  18.201   7.123
 3614POPC   C4B46498  43.461  18.086   7.549
 3615POPC   NC346499  33.140  23.798   5.326
 3615POPC   PO446500  32.487  23.943   5.480
 3615POPC   GL146501  32.856  23.913   5.753
 3615POPC   GL246502  33.052  23.589   5.784
 3615POPC   C1A46503  32.963  23.883   6.192
 3615POPC   D2A46504  33.008  23.720   6.590
 3615POPC   C3A46505  32.854  23.977   6.930
 3615POPC   C4A46506  32.817  23.945   7.374
 3615POPC   C1B46507  33.344  23.525   6.137
 3615POPC   C2B46508  33.334  23.307   6.544
 3615POPC   C3B46509  33.253  23.460   6.954
 3615POPC   C4B46510  33.180  23.541   7.370
 3616POPC   NC346511  18.768  19.122   5.424
 3616POPC   PO446512  19.351  18.848   5.207
 3616POPC   GL146513  19.210  18.888   5.648
 3616POPC   GL246514  19.143  19.224   5.823
 3616POPC   C1A46515  19.127  18.808   6.111
 3616POPC   D2A46516  19.176  19.022   6.531
 3616POPC   C3A46517  19.087  18.843   6.923
 3616POPC   C4A46518  18.814  19.105   7.156
 3616POPC   C1B46519  19.386  19.373   6.195
 3616POPC   C2B46520  19.541  19.443   6.595
 3616POPC   C3B46521  19.317  19.332   6.982
 3616POPC   C4B46522  19.307  19.286   7.448
 3617POPC   NC346523  39.013  28.164   5.434
 3617POPC   PO446524  39.492  28.641   5.513
 3617POPC   GL146525  39.280  28.528   5.863
 3617POPC   GL246526  39.292  28.200   5.855
 3617POPC   C1A46527  39.514  28.439   6.234
 3617POPC   D2A46528  39.500  28.194   6.585
 3617POPC   C3A46529  39.143  28.249   6.814
 3617POPC   C4A46530  39.119  28.563   7.137
 3617POPC   C1B46531  39.456  27.923   6.133
 3617POPC   C2B46532  39.269  27.751   6.501
 3617POPC   C3B46533  39.338  27.806   6.935
 3617POPC   C4B46534  39.035  27.981   7.236
 3618POPC   NC346535   0.997  16.478   5.397
 3618POPC   PO446536   1.683  16.763   5.408
 3618POPC   GL146537   1.629  16.742   5.823
 3618POPC   GL246538   1.360  16.527   5.768
 3618POPC   C1A46539   1.353  16.909   6.152
 3618POPC   D2A46540   1.016  16.813   6.422
 3618POPC   C3A46541   1.128  16.745   6.831
 3618POPC   C4A46542   1.088  16.930   7.210
 3618POPC   C1B46543   1.428  16.394   6.165
 3618POPC   C2B46544   1.536  16.577   6.517
 3618POPC   C3B46545   1.517  16.398   6.870
 3618POPC   C4B46546   1.422  16.531   7.224
 3619POPC   NC346547  16.222  21.666   5.425
 3619POPC   PO446548  15.806  21.258   5.434
 3619POPC   GL146549  16.019  21.349   5.810
 3619POPC   GL246550  15.901  21.688   5.845
 3619POPC   C1A46551  16.311  21.200   6.148
 3619POPC   D2A46552  16.426  21.054   6.572
 3619POPC   C3A46553  16.107  21.227   6.894
 3619POPC   C4A46554  15.929  21.235   7.326
 3619POPC   C1B46555  16.114  21.724   6.223
 3619POPC   C2B46556  15.922  21.682   6.618
 3619POPC   C3B46557  16.073  21.807   6.982
 3619POPC   C4B46558  16.315  21.581   7.220
 3620POPC   NC346559  31.138  17.691   5.304
 3620POPC   PO446560  31.738  17.318   5.433
 3620POPC   GL146561  31.545  17.325   5.824
 3620POPC   GL246562  31.368  17.648   5.794
 3620POPC   C1A46563  31.543  17.297   6.283
 3620POPC   D2A46564  31.399  17.498   6.669
 3620POPC   C3A46565  31.323  17.228   7.019
 3620POPC   C4A46566  31.691  17.220   7.292
 3620POPC   C1B46567  31.200  17.709   6.226
 3620POPC   C2B46568  31.260  17.998   6.585
 3620POPC   C3B46569  31.571  17.941   6.899
 3620POPC   C4B46570  31.453  17.688   7.218
 3621POPC   NC346571  21.920  10.365   5.689
 3621POPC   PO446572  21.301  10.663   5.410
 3621POPC   GL146573  21.422  10.490   5.811
 3621POPC   GL246574  21.691  10.619   6.055
 3621POPC   C1A46575  21.237  10.468   6.200
 3621POPC   D2A46576  21.394  10.627   6.597
 3621POPC   C3A46577  21.190  10.502   6.986
 3621POPC   C4A46578  21.103  10.691   7.400
 3621POPC   C1B46579  21.672  10.185   6.280
 3621POPC   C2B46580  21.578  10.122   6.718
 3621POPC   C3B46581  21.729  10.451   7.004
 3621POPC   C4B46582  21.604  10.623   7.399
 3622POPC   NC346583  20.931   6.692   5.398
 3622POPC   PO446584  21.543   6.552   5.222
 3622POPC   GL146585  21.526   6.483   5.649
 3622POPC   GL246586  21.178   6.461   5.764
 3622POPC   C1A46587  21.533   6.686   6.057
 3622POPC   D2A46588  21.268   6.709   6.409
 3622POPC   C3A46589  21.524   6.655   6.759
 3622POPC   C4A46590  21.431   6.732   7.160
 3622POPC   C1B46591  20.895   6.415   6.092
 3622POPC   C2B46592  20.919   6.329   6.511
 3622POPC   C3B46593  21.009   6.549   6.873
 3622POPC   C4B46594  21.050   6.393   7.273
 3623POPC   NC346595  16.374   1.968   5.516
 3623POPC   PO446596  16.969   1.925   5.356
 3623POPC   GL146597  16.892   1.947   5.773
 3623POPC   GL246598  16.771   2.273   5.858
 3623POPC   C1A46599  16.768   1.869   6.186
 3623POPC   D2A46600  16.718   2.060   6.565
 3623POPC   C3A46601  16.826   1.861   6.926
 3623POPC   C4A46602  17.117   2.079   7.167
 3623POPC   C1B46603  16.398   2.236   6.164
 3623POPC   C2B46604  16.245   2.219   6.614
 3623POPC   C3B46605  16.464   2.229   7.024
 3623POPC   C4B46606  16.558   2.453   7.445
 3624POPC   NC346607   2.077  34.385   5.452
 3624POPC   PO446608   1.816  35.029   5.571
 3624POPC   GL146609   1.983  34.742   5.870
 3624POPC   GL246610   1.912  34.376   5.912
 3624POPC   C1A46611   2.093  34.903   6.270
 3624POPC   D2A46612   2.123  34.728   6.635
 3624POPC   C3A46613   2.179  34.903   7.018
 3624POPC   C4A46614   1.892  34.733   7.293
 3624POPC   C1B46615   2.150  34.394   6.238
 3624POPC   C2B46616   2.194  34.215   6.579
 3624POPC   C3B46617   2.032  34.333   6.948
 3624POPC   C4B46618   2.022  34.209   7.330
 3625POPC   NC346619   2.955  28.939   5.698
 3625POPC   PO446620   2.488  29.218   5.233
 3625POPC   GL146621   2.584  29.362   5.709
 3625POPC   GL246622   2.922  29.477   5.774
 3625POPC   C1A46623   2.639  29.264   6.202
 3625POPC   D2A46624   2.767  28.978   6.599
 3625POPC   C3A46625   2.756  29.118   7.065
 3625POPC   C4A46626   2.546  29.208   7.496
 3625POPC   C1B46627   3.093  29.500   6.212
 3625POPC   C2B46628   2.899  29.514   6.638
 3625POPC   C3B46629   3.102  29.542   7.038
 3625POPC   C4B46630   3.025  29.361   7.431
 3626POPC   NC346631   3.763  31.450   5.481
 3626POPC   PO446632   3.106  31.595   5.474
 3626POPC   GL146633   3.351  31.321   5.789
 3626POPC   GL246634   3.735  31.174   5.886
 3626POPC   C1A46635   3.455  31.468   6.205
 3626POPC   D2A46636   3.487  31.345   6.617
 3626POPC   C3A46637   3.463  31.694   6.920
 3626POPC   C4A46638   3.286  31.555   7.326
 3626POPC   C1B46639   3.924  31.203   6.303
 3626POPC   C2B46640   3.947  31.210   6.754
 3626POPC   C3B46641   3.683  31.288   7.122
 3626POPC   C4B46642   3.645  31.294   7.572
 3627POPC   NC346643  32.787  11.122   5.401
 3627POPC   PO446644  33.412  11.365   5.361
 3627POPC   GL146645  33.221  11.167   5.763
 3627POPC   GL246646  32.885  11.067   5.896
 3627POPC   C1A46647  33.244  11.225   6.216
 3627POPC   D2A46648  33.153  11.540   6.489
 3627POPC   C3A46649  33.031  11.342   6.852
 3627POPC   C4A46650  33.263  11.452   7.219
 3627POPC   C1B46651  32.847  11.537   6.033
 3627POPC   C2B46652  32.729  11.810   6.408
 3627POPC   C3B46653  32.659  11.710   6.834
 3627POPC   C4B46654  32.761  11.557   7.220
 3628POPC   NC346655  34.569  42.773   5.531
 3628POPC   PO446656  34.206  43.322   5.360
 3628POPC   GL146657  34.429  43.187   5.779
 3628POPC   GL246658  34.283  42.827   5.928
 3628POPC   C1A46659  34.631  43.095   6.203
 3628POPC   D2A46660  34.531  43.005   6.650
 3628POPC   C3A46661  34.801  43.143   7.020
 3628POPC   C4A46662  34.756  43.088   7.495
 3628POPC   C1B46663  34.116  43.011   6.295
 3628POPC   C2B46664  33.981  43.129   6.707
 3628POPC   C3B46665  34.248  43.101   7.053
 3628POPC   C4B46666  34.495  42.776   7.185
 3629POPC   NC346667  15.441   8.408   5.391
 3629POPC   PO446668  15.017   7.973   5.343
 3629POPC   GL146669  15.317   8.035   5.718
 3629POPC   GL246670  15.716   8.066   5.635
 3629POPC   C1A46671  15.139   8.097   6.151
 3629POPC   D2A46672  14.800   8.021   6.484
 3629POPC   C3A46673  15.018   8.066   6.897
 3629POPC   C4A46674  14.916   8.165   7.318
 3629POPC   C1B46675  15.787   8.221   6.057
 3629POPC   C2B46676  15.557   8.225   6.444
 3629POPC   C3B46677  15.627   8.332   6.851
 3629POPC   C4B46678  15.435   8.192   7.196
 3630POPC   NC346679   1.617  11.203   5.491
 3630POPC   PO446680   2.270  11.295   5.568
 3630POPC   GL146681   2.144  11.373   5.989
 3630POPC   GL246682   1.847  11.134   5.959
 3630POPC   C1A46683   1.972  11.301   6.432
 3630POPC   D2A46684   1.777  11.009   6.744
 3630POPC   C3A46685   1.873  11.199   7.160
 3630POPC   C4A46686   2.208  11.523   7.183
 3630POPC   C1B46687   1.689  11.576   6.044
 3630POPC   C2B46688   1.575  11.727   6.423
 3630POPC   C3B46689   1.702  11.609   6.834
 3630POPC   C4B46690   1.732  11.702   7.260
 3631POPC   NC346691  44.751   5.936   5.423
 3631POPC   PO446692  44.909   5.240   5.477
 3631POPC   GL146693  44.917   5.641   5.810
 3631POPC   GL246694  44.553   5.780   5.887
 3631POPC   C1A46695  44.946   5.783   6.288
 3631POPC   D2A46696   0.065   6.053   6.672
 3631POPC   C3A46697  44.918   5.948   7.114
 3631POPC   C4A46698  44.508   5.829   7.282
 3631POPC   C1B46699  44.534   6.062   6.291
 3631POPC   C2B46700  44.527   6.025   6.759
 3631POPC   C3B46701  44.547   6.313   7.115
 3631POPC   C4B46702  44.713   6.241   7.528
 3632POPC   NC346703  24.537  20.113   5.464
 3632POPC   PO446704  24.384  20.745   5.503
 3632POPC   GL146705  24.545  20.761   5.859
 3632POPC   GL246706  24.565  20.392   5.888
 3632POPC   C1A46707  24.504  20.706   6.268
 3632POPC   D2A46708  24.642  20.447   6.597
 3632POPC   C3A46709  24.526  20.687   6.956
 3632POPC   C4A46710  24.361  20.859   7.313
 3632POPC   C1B46711  24.304  20.243   6.210
 3632POPC   C2B46712  24.349  20.022   6.596
 3632POPC   C3B46713  24.348  20.209   6.987
 3632POPC   C4B46714  24.214  20.385   7.358
 3633POPC   NC346715  28.735  29.436   5.453
 3633POPC   PO446716  28.181  29.002   5.572
 3633POPC   GL146717  28.339  29.286   5.883
 3633POPC   GL246718  28.714  29.243   5.936
 3633POPC   C1A46719  28.401  29.227   6.335
 3633POPC   D2A46720  28.401  28.822   6.533
 3633POPC   C3A46721  28.406  28.940   6.931
 3633POPC   C4A46722  28.224  29.280   7.152
 3633POPC   C1B46723  28.850  28.981   6.316
 3633POPC   C2B46724  28.888  29.074   6.723
 3633POPC   C3B46725  28.716  29.389   6.975
 3633POPC   C4B46726  28.701  29.132   7.289
 3634POPC   NC346727  33.340  44.392   5.689
 3634POPC   PO446728  33.709  44.929   5.381
 3634POPC   GL146729  33.949  44.813   5.763
 3634POPC   GL246730  33.651  44.723   5.940
 3634POPC   C1A46731  34.139  44.820   6.199
 3634POPC   D2A46732  34.276   0.028   6.613
 3634POPC   C3A46733  34.165  44.796   6.975
 3634POPC   C4A46734  33.926  44.777   7.324
 3634POPC   C1B46735  33.745  44.471   6.294
 3634POPC   C2B46736  33.769  44.596   6.711
 3634POPC   C3B46737  33.504  44.579   7.079
 3634POPC   C4B46738  33.487  44.558   7.526
 3635POPC   NC346739  10.038  39.764   5.087
 3635POPC   PO446740   9.825  40.363   5.380
 3635POPC   GL146741   9.809  40.325   5.817
 3635POPC   GL246742   9.447  40.318   5.776
 3635POPC   C1A46743   9.999  40.100   6.155
 3635POPC   D2A46744   9.876  40.069   6.550
 3635POPC   C3A46745  10.046  39.769   6.793
 3635POPC   C4A46746   9.964  39.660   7.214
 3635POPC   C1B46747   9.482  40.063   6.159
 3635POPC   C2B46748   9.364  40.005   6.599
 3635POPC   C3B46749   9.590  39.979   6.979
 3635POPC   C4B46750   9.445  39.788   7.319
 3636POPC   NC346751  36.365  34.794   5.508
 3636POPC   PO446752  35.894  34.474   5.261
 3636POPC   GL146753  36.037  34.449   5.741
 3636POPC   GL246754  36.322  34.639   5.980
 3636POPC   C1A46755  35.937  34.390   6.196
 3636POPC   D2A46756  36.280  34.459   6.488
 3636POPC   C3A46757  36.323  34.320   6.893
 3636POPC   C4A46758  36.385  34.491   7.285
 3636POPC   C1B46759  36.110  34.891   6.295
 3636POPC   C2B46760  35.828  34.720   6.613
 3636POPC   C3B46761  35.896  34.596   7.043
 3636POPC   C4B46762  36.079  34.869   7.360
 3637POPC   NC346763  39.587  34.715   5.375
 3637POPC   PO446764  39.051  34.308   5.397
 3637POPC   GL146765  39.295  34.382   5.782
 3637POPC   GL246766  39.242  34.717   5.786
 3637POPC   C1A46767  39.460  34.551   6.207
 3637POPC   D2A46768  39.650  34.570   6.607
 3637POPC   C3A46769  39.378  34.601   6.931
 3637POPC   C4A46770  39.412  34.461   7.304
 3637POPC   C1B46771  39.174  34.957   6.179
 3637POPC   C2B46772  39.342  35.004   6.587
 3637POPC   C3B46773  39.104  35.028   6.960
 3637POPC   C4B46774  38.952  34.810   7.308
 3638POPC   NC346775  28.990  44.048   5.354
 3638POPC   PO446776  29.553  43.694   5.451
 3638POPC   GL146777  29.461  44.007   5.803
 3638POPC   GL246778  29.149  44.177   5.815
 3638POPC   C1A46779  29.368  44.135   6.270
 3638POPC   D2A46780  29.019  44.237   6.597
 3638POPC   C3A46781  29.123  44.135   7.030
 3638POPC   C4A46782  29.488  43.885   7.122
 3638POPC   C1B46783  29.031  43.803   6.049
 3638POPC   C2B46784  28.891  43.733   6.467
 3638POPC   C3B46785  28.995  43.564   6.861
 3638POPC   C4B46786  29.022  43.702   7.312
 3639POPC   NC346787  20.160  16.113   5.443
 3639POPC   PO446788  19.578  15.716   5.282
 3639POPC   GL146789  19.864  15.735   5.641
 3639POPC   GL246790  19.712  16.065   5.742
 3639POPC   C1A46791  20.012  15.854   6.082
 3639POPC   D2A46792  19.815  15.816   6.490
 3639POPC   C3A46793  20.044  15.664   6.870
 3639POPC   C4A46794  20.044  15.771   7.315
 3639POPC   C1B46795  19.614  16.216   6.179
 3639POPC   C2B46796  19.593  16.240   6.665
 3639POPC   C3B46797  19.636  16.075   7.106
 3639POPC   C4B46798  19.694  16.066   7.571
 3640POPC   NC346799  42.565  18.650   5.678
 3640POPC   PO446800  42.375  19.181   5.511
 3640POPC   GL146801  42.209  18.993   5.867
 3640POPC   GL246802  42.508  19.050   6.035
 3640POPC   C1A46803  42.015  18.950   6.277
 3640POPC   D2A46804  41.994  19.150   6.644
 3640POPC   C3A46805  42.366  19.324   6.800
 3640POPC   C4A46806  42.349  19.137   7.171
 3640POPC   C1B46807  42.499  18.786   6.402
 3640POPC   C2B46808  42.615  18.883   6.826
 3640POPC   C3B46809  42.751  18.820   7.247
 3640POPC   C4B46810  42.675  18.730   7.699
 3641POPC   NC346811  14.312   0.850   5.217
 3641POPC   PO446812  14.306   1.498   5.347
 3641POPC   GL146813  14.333   1.236   5.721
 3641POPC   GL246814  14.508   1.500   5.868
 3641POPC   C1A46815  14.217   1.014   6.134
 3641POPC   D2A46816  14.085   1.137   6.567
 3641POPC   C3A46817  14.220   0.887   6.912
 3641POPC   C4A46818  14.446   0.861   7.291
 3641POPC   C1B46819  14.385   1.474   6.285
 3641POPC   C2B46820  14.464   1.467   6.719
 3641POPC   C3B46821  14.350   1.370   7.138
 3641POPC   C4B46822  14.286   1.655   7.476
 3642POPC   NC346823  40.759  29.311   5.371
 3642POPC   PO446824  40.660  28.717   5.622
 3642POPC   GL146825  40.725  29.103   5.857
 3642POPC   GL246826  41.007  29.316   5.837
 3642POPC   C1A46827  40.778  29.274   6.295
 3642POPC   D2A46828  40.788  29.079   6.699
 3642POPC   C3A46829  40.800  29.311   7.087
 3642POPC   C4A46830  40.662  29.453   7.537
 3642POPC   C1B46831  41.147  28.930   6.143
 3642POPC   C2B46832  41.218  28.814   6.614
 3642POPC   C3B46833  41.088  28.877   7.081
 3642POPC   C4B46834  41.128  29.171   7.456
 3643POPC   NC346835  33.544  24.460   5.448
 3643POPC   PO446836  34.184  24.232   5.461
 3643POPC   GL146837  34.006  24.451   5.836
 3643POPC   GL246838  33.641  24.436   5.938
 3643POPC   C1A46839  34.042  24.305   6.261
 3643POPC   D2A46840  33.881  24.123   6.655
 3643POPC   C3A46841  34.109  24.292   7.017
 3643POPC   C4A46842  34.043  24.707   7.191
 3643POPC   C1B46843  33.609  24.531   6.371
 3643POPC   C2B46844  33.708  24.580   6.759
 3643POPC   C3B46845  33.617  24.396   7.111
 3643POPC   C4B46846  33.413  24.538   7.447
 3644POPC   NC346847   0.457   4.104   5.640
 3644POPC   PO446848   0.491   3.345   5.452
 3644POPC   GL146849   0.348   3.610   5.752
 3644POPC   GL246850   0.700   3.705   5.827
 3644POPC   C1A46851   0.137   3.488   6.123
 3644POPC   D2A46852   0.372   3.289   6.468
 3644POPC   C3A46853   0.284   3.434   6.871
 3644POPC   C4A46854   0.452   3.651   7.195
 3644POPC   C1B46855   0.545   3.760   6.253
 3644POPC   C2B46856   0.752   3.616   6.611
 3644POPC   C3B46857   0.922   3.715   7.004
 3644POPC   C4B46858   0.836   3.891   7.435
 3645POPC   NC346859  21.483   9.451   5.420
 3645POPC   PO446860  21.432  10.126   5.452
 3645POPC   GL146861  21.257   9.958   5.812
 3645POPC   GL246862  21.558   9.760   5.836
 3645POPC   C1A46863  21.191   9.954   6.267
 3645POPC   D2A46864  21.242   9.706   6.648
 3645POPC   C3A46865  21.171   9.957   7.002
 3645POPC   C4A46866  21.311  10.175   7.345
 3645POPC   C1B46867  21.589   9.632   6.243
 3645POPC   C2B46868  21.762   9.617   6.664
 3645POPC   C3B46869  21.588   9.655   7.066
 3645POPC   C4B46870  21.235   9.493   7.272
 3646POPC   NC346871  10.658   0.448   5.524
 3646POPC   PO446872  11.040  44.987   5.704
 3646POPC   GL146873  10.665   0.152   5.945
 3646POPC   GL246874  10.306   0.279   5.854
 3646POPC   C1A46875  10.613   0.191   6.362
 3646POPC   D2A46876  10.927   0.118   6.652
 3646POPC   C3A46877  10.729  44.954   6.981
 3646POPC   C4A46878  10.850   0.226   7.299
 3646POPC   C1B46879  10.443   0.631   6.122
 3646POPC   C2B46880  10.389   0.635   6.561
 3646POPC   C3B46881  10.509   0.433   6.933
 3646POPC   C4B46882  10.270   0.466   7.291
 3647POPC   NC346883  22.895  44.911   5.575
 3647POPC   PO446884  23.133  44.318   5.334
 3647POPC   GL146885  23.099  44.400   5.795
 3647POPC   GL246886  22.752  44.446   5.818
 3647POPC   C1A46887  23.136  44.678   6.195
 3647POPC   D2A46888  23.262  44.942   6.582
 3647POPC   C3A46889  22.975  44.832   6.899
 3647POPC   C4A46890  23.003  44.503   7.160
 3647POPC   C1B46891  22.682  44.379   6.264
 3647POPC   C2B46892  22.757  44.321   6.709
 3647POPC   C3B46893  22.634  44.196   7.120
 3647POPC   C4B46894  22.522  44.566   7.369
 3648POPC   NC346895  12.974   9.897   5.318
 3648POPC   PO446896  13.050   9.305   5.241
 3648POPC   GL146897  12.870   9.547   5.669
 3648POPC   GL246898  13.111   9.707   5.799
 3648POPC   C1A46899  12.769   9.772   6.142
 3648POPC   D2A46900  12.604   9.800   6.585
 3648POPC   C3A46901  12.841   9.837   6.967
 3648POPC   C4A46902  12.879  10.039   7.359
 3648POPC   C1B46903  13.162   9.438   6.189
 3648POPC   C2B46904  12.992   9.490   6.567
 3648POPC   C3B46905  13.055   9.337   6.941
 3648POPC   C4B46906  13.352   9.373   7.238
 3649POPC   NC346907   8.395  27.184   5.143
 3649POPC   PO446908   7.992  27.733   5.355
 3649POPC   GL146909   8.156  27.441   5.709
 3649POPC   GL246910   8.475  27.205   5.692
 3649POPC   C1A46911   8.058  27.624   6.124
 3649POPC   D2A46912   8.030  27.914   6.475
 3649POPC   C3A46913   7.909  27.792   6.902
 3649POPC   C4A46914   8.223  27.724   7.217
 3649POPC   C1B46915   8.310  27.177   6.136
 3649POPC   C2B46916   8.166  27.363   6.544
 3649POPC   C3B46917   8.175  27.279   6.976
 3649POPC   C4B46918   7.848  27.363   7.268
 3650POPC   NC346919  11.547  26.202   5.364
 3650POPC   PO446920  11.060  25.826   5.513
 3650POPC   GL146921  11.202  26.206   5.811
 3650POPC   GL246922  11.552  26.364   5.860
 3650POPC   C1A46923  11.059  26.356   6.222
 3650POPC   D2A46924  11.153  26.229   6.667
 3650POPC   C3A46925  11.196  26.140   7.114
 3650POPC   C4A46926  11.226  25.701   7.203
 3650POPC   C1B46927  11.577  26.362   6.333
 3650POPC   C2B46928  11.598  26.427   6.798
 3650POPC   C3B46929  11.687  26.298   7.237
 3650POPC   C4B46930  11.493  26.373   7.676
 3651POPC   NC346931   8.799   0.760   5.484
 3651POPC   PO446932   9.425   0.415   5.272
 3651POPC   GL146933   9.192   0.423   5.717
 3651POPC   GL246934   8.810   0.324   5.798
 3651POPC   C1A46935   9.114   0.499   6.197
 3651POPC   D2A46936   9.021   0.284   6.604
 3651POPC   C3A46937   8.876   0.461   6.979
 3651POPC   C4A46938   9.047   0.784   7.182
 3651POPC   C1B46939   8.683   0.194   6.240
 3651POPC   C2B46940   8.459   0.011   6.593
 3651POPC   C3B46941   8.480   0.127   7.023
 3651POPC   C4B46942   8.785   0.157   7.391
 3652POPC   NC346943  28.070   4.478   5.007
 3652POPC   PO446944  28.384   4.351   5.640
 3652POPC   GL146945  28.675   4.418   5.911
 3652POPC   GL246946  28.835   4.116   5.741
 3652POPC   C1A46947  28.505   4.403   6.313
 3652POPC   D2A46948  28.370   4.602   6.647
 3652POPC   C3A46949  28.262   4.402   7.008
 3652POPC   C4A46950  28.414   4.608   7.354
 3652POPC   C1B46951  28.630   3.947   6.120
 3652POPC   C2B46952  28.731   4.020   6.542
 3652POPC   C3B46953  28.634   3.985   6.935
 3652POPC   C4B46954  28.585   4.136   7.321
 3653POPC   NC346955  14.581   8.124   5.419
 3653POPC   PO446956  14.644   8.785   5.566
 3653POPC   GL146957  14.455   8.455   5.852
 3653POPC   GL246958  14.333   8.095   5.903
 3653POPC   C1A46959  14.485   8.437   6.287
 3653POPC   D2A46960  14.570   8.709   6.615
 3653POPC   C3A46961  14.635   8.485   6.991
 3653POPC   C4A46962  14.421   8.463   7.399
 3653POPC   C1B46963  14.281   7.969   6.339
 3653POPC   C2B46964  14.282   8.175   6.752
 3653POPC   C3B46965  14.226   8.035   7.194
 3653POPC   C4B46966  14.200   7.688   7.492
 3654POPC   NC346967   8.745  28.784   5.530
 3654POPC   PO446968   8.820  28.066   5.662
 3654POPC   GL146969   8.922  28.311   5.981
 3654POPC   GL246970   9.019  28.606   5.912
 3654POPC   C1A46971   9.119  28.315   6.345
 3654POPC   D2A46972   8.903  28.083   6.627
 3654POPC   C3A46973   9.087  28.148   7.002
 3654POPC   C4A46974   8.881  28.156   7.378
 3654POPC   C1B46975   8.826  28.789   6.252
 3654POPC   C2B46976   8.786  28.603   6.610
 3654POPC   C3B46977   8.687  28.453   6.978
 3654POPC   C4B46978   9.034  28.628   7.185
 3655POPC   NC346979  31.043   6.016   5.396
 3655POPC   PO446980  31.652   5.665   5.481
 3655POPC   GL146981  31.581   5.713   5.889
 3655POPC   GL246982  31.613   6.081   5.824
 3655POPC   C1A46983  31.518   5.691   6.342
 3655POPC   D2A46984  31.777   5.793   6.700
 3655POPC   C3A46985  31.532   5.661   7.013
 3655POPC   C4A46986  31.203   5.406   7.153
 3655POPC   C1B46987  31.775   6.114   6.244
 3655POPC   C2B46988  31.570   6.247   6.603
 3655POPC   C3B46989  31.347   6.140   6.936
 3655POPC   C4B46990  31.565   6.084   7.295
 3656POPC   NC346991  24.959  22.677   5.344
 3656POPC   PO446992  25.603  22.962   5.378
 3656POPC   GL146993  25.281  22.963   5.712
 3656POPC   GL246994  25.206  22.624   5.832
 3656POPC   C1A46995  25.346  22.986   6.170
 3656POPC   D2A46996  25.646  22.834   6.475
 3656POPC   C3A46997  25.541  22.835   6.908
 3656POPC   C4A46998  25.219  23.067   7.104
 3656POPC   C1B46999  24.930  22.698   6.232
 3656POPC   C2B47000  25.073  22.800   6.665
 3656POPC   C3B47001  25.025  22.617   7.124
 3656POPC   C4B47002  24.988  22.671   7.603
 3657POPC   NC347003  15.746  31.782   5.448
 3657POPC   PO447004  16.213  31.288   5.568
 3657POPC   GL147005  16.065  31.606   5.810
 3657POPC   GL247006  15.737  31.450   5.817
 3657POPC   C1A47007  15.909  31.723   6.203
 3657POPC   D2A47008  15.637  31.678   6.544
 3657POPC   C3A47009  15.865  31.743   6.879
 3657POPC   C4A47010  15.919  31.597   7.234
 3657POPC   C1B47011  15.646  31.277   6.195
 3657POPC   C2B47012  15.907  31.258   6.554
 3657POPC   C3B47013  15.689  31.258   6.932
 3657POPC   C4B47014  15.619  31.042   7.319
 3658POPC   NC347015  44.590  43.490   5.134
 3658POPC   PO447016  44.984  43.888   5.609
 3658POPC   GL147017  44.787  43.910   5.996
 3658POPC   GL247018  44.520  44.094   5.827
 3658POPC   C1A47019  44.606  44.140   6.337
 3658POPC   D2A47020  44.447  44.117   6.759
 3658POPC   C3A47021  44.656  44.056   7.169
 3658POPC   C4A47022  44.884  43.746   7.460
 3658POPC   C1B47023  44.249  43.818   6.100
 3658POPC   C2B47024  44.146  43.543   6.457
 3658POPC   C3B47025  44.264  43.652   6.870
 3658POPC   C4B47026  44.441  43.601   7.263
 3659POPC   NC347027  41.400  25.623   5.425
 3659POPC   PO447028  41.927  25.217   5.564
 3659POPC   GL147029  41.535  25.278   5.798
 3659POPC   GL247030  41.419  25.004   5.958
 3659POPC   C1A47031  41.546  25.525   6.194
 3659POPC   D2A47032  41.550  25.543   6.661
 3659POPC   C3A47033  41.662  25.239   6.937
 3659POPC   C4A47034  41.283  25.358   7.158
 3659POPC   C1B47035  41.574  25.078   6.389
 3659POPC   C2B47036  41.231  25.118   6.656
 3659POPC   C3B47037  41.150  24.894   7.019
 3659POPC   C4B47038  41.549  24.969   7.355
 3660POPC   NC347039   3.105  13.425   5.410
 3660POPC   PO447040   3.699  13.875   5.344
 3660POPC   GL147041   3.606  13.736   5.740
 3660POPC   GL247042   3.266  13.777   5.751
 3660POPC   C1A47043   3.658  13.561   6.149
 3660POPC   D2A47044   3.452  13.363   6.507
 3660POPC   C3A47045   3.576  13.525   6.916
 3660POPC   C4A47046   3.371  13.538   7.319
 3660POPC   C1B47047   3.137  13.589   6.160
 3660POPC   C2B47048   3.046  13.683   6.619
 3660POPC   C3B47049   2.948  13.578   7.036
 3660POPC   C4B47050   2.909  13.714   7.493
 3661POPC   NC347051  37.659  27.438   5.413
 3661POPC   PO447052  37.383  27.964   5.576
 3661POPC   GL147053  37.457  27.733   5.883
 3661POPC   GL247054  37.791  27.717   5.828
 3661POPC   C1A47055  37.565  27.528   6.233
 3661POPC   D2A47056  37.786  27.410   6.564
 3661POPC   C3A47057  37.557  27.245   6.913
 3661POPC   C4A47058  37.495  27.465   7.246
 3661POPC   C1B47059  37.848  27.960   6.207
 3661POPC   C2B47060  37.961  27.887   6.629
 3661POPC   C3B47061  37.997  27.637   7.009
 3661POPC   C4B47062  38.046  27.878   7.393
 3662POPC   NC347063  32.024  43.486   5.400
 3662POPC   PO447064  32.436  42.943   5.380
 3662POPC   GL147065  32.228  43.149   5.738
 3662POPC   GL247066  32.403  43.460   5.753
 3662POPC   C1A47067  32.059  43.317   6.142
 3662POPC   D2A47068  31.965  43.303   6.596
 3662POPC   C3A47069  31.966  42.899   6.811
 3662POPC   C4A47070  31.980  42.825   7.248
 3662POPC   C1B47071  32.566  43.470   6.137
 3662POPC   C2B47072  32.476  43.248   6.493
 3662POPC   C3B47073  32.598  43.194   6.883
 3662POPC   C4B47074  32.397  43.136   7.235
 3663POPC   NC347075  41.101  11.229   5.499
 3663POPC   PO447076  41.699  11.164   5.174
 3663POPC   GL147077  41.589  11.201   5.651
 3663POPC   GL247078  41.418  11.554   5.728
 3663POPC   C1A47079  41.566  10.968   6.072
 3663POPC   D2A47080  41.797  10.818   6.443
 3663POPC   C3A47081  41.619  10.983   6.814
 3663POPC   C4A47082  41.679  11.000   7.244
 3663POPC   C1B47083  41.253  11.391   6.121
 3663POPC   C2B47084  41.219  11.109   6.472
 3663POPC   C3B47085  41.203  11.261   6.914
 3663POPC   C4B47086  41.161  11.058   7.305
 3664POPC   NC347087  28.209  22.580   5.640
 3664POPC   PO447088  28.479  23.166   5.361
 3664POPC   GL147089  28.428  23.069   5.770
 3664POPC   GL247090  28.093  23.115   5.752
 3664POPC   C1A47091  28.490  22.857   6.160
 3664POPC   D2A47092  28.407  22.718   6.583
 3664POPC   C3A47093  28.490  23.054   6.885
 3664POPC   C4A47094  28.594  22.879   7.266
 3664POPC   C1B47095  28.055  23.150   6.197
 3664POPC   C2B47096  28.025  23.052   6.651
 3664POPC   C3B47097  28.040  22.874   7.076
 3664POPC   C4B47098  28.180  23.152   7.357
 3665POPC   NC347099  12.814   2.535   5.316
 3665POPC   PO447100  12.367   2.917   5.448
 3665POPC   GL147101  12.524   2.673   5.789
 3665POPC   GL247102  12.881   2.607   5.810
 3665POPC   C1A47103  12.669   2.791   6.221
 3665POPC   D2A47104  12.932   2.672   6.563
 3665POPC   C3A47105  12.749   2.646   6.942
 3665POPC   C4A47106  12.680   2.914   7.244
 3665POPC   C1B47107  12.912   2.315   6.171
 3665POPC   C2B47108  13.160   2.208   6.524
 3665POPC   C3B47109  13.177   2.352   6.944
 3665POPC   C4B47110  13.062   2.568   7.335
 3666POPC   NC347111   4.771  15.529   5.436
 3666POPC   PO447112   5.178  15.124   5.141
 3666POPC   GL147113   5.138  15.208   5.650
 3666POPC   GL247114   4.848  15.302   5.908
 3666POPC   C1A47115   5.277  15.038   6.068
 3666POPC   D2A47116   5.088  15.063   6.481
 3666POPC   C3A47117   5.201  15.178   6.906
 3666POPC   C4A47118   5.122  15.556   7.114
 3666POPC   C1B47119   4.715  14.913   6.186
 3666POPC   C2B47120   4.690  14.835   6.691
 3666POPC   C3B47121   4.682  15.012   7.135
 3666POPC   C4B47122   4.787  15.387   7.448
 3667POPC   NC347123  13.496  20.988   5.318
 3667POPC   PO447124  13.443  21.581   5.434
 3667POPC   GL147125  13.635  21.355   5.799
 3667POPC   GL247126  13.704  21.009   5.845
 3667POPC   C1A47127  13.752  21.452   6.219
 3667POPC   D2A47128  13.549  21.453   6.635
 3667POPC   C3A47129  13.830  21.646   6.913
 3667POPC   C4A47130  13.781  21.815   7.291
 3667POPC   C1B47131  13.667  20.947   6.293
 3667POPC   C2B47132  13.948  21.121   6.608
 3667POPC   C3B47133  13.808  21.152   7.036
 3667POPC   C4B47134  13.770  21.044   7.441
 3668POPC   NC347135  35.120  16.629   5.581
 3668POPC   PO447136  35.723  16.944   5.463
 3668POPC   GL147137  35.579  16.698   5.798
 3668POPC   GL247138  35.353  16.972   5.916
 3668POPC   C1A47139  35.438  16.531   6.192
 3668POPC   D2A47140  35.121  16.356   6.474
 3668POPC   C3A47141  35.145  16.492   6.929
 3668POPC   C4A47142  35.247  16.779   7.298
 3668POPC   C1B47143  35.146  16.926   6.351
 3668POPC   C2B47144  35.312  17.000   6.790
 3668POPC   C3B47145  35.686  17.122   7.054
 3668POPC   C4B47146  35.721  17.187   7.549
 3669POPC   NC347147  22.743  25.181   5.534
 3669POPC   PO447148  23.410  25.005   5.455
 3669POPC   GL147149  23.158  25.286   5.802
 3669POPC   GL247150  22.930  25.030   5.980
 3669POPC   C1A47151  22.999  25.457   6.235
 3669POPC   D2A47152  23.006  25.074   6.494
 3669POPC   C3A47153  23.043  25.069   6.913
 3669POPC   C4A47154  23.005  25.390   7.156
 3669POPC   C1B47155  22.573  25.218   6.275
 3669POPC   C2B47156  22.679  25.549   6.655
 3669POPC   C3B47157  22.591  25.660   7.128
 3669POPC   C4B47158  22.520  25.273   7.410
 3670POPC   NC347159  21.325  34.135   5.442
 3670POPC   PO447160  21.690  33.587   5.306
 3670POPC   GL147161  21.576  33.770   5.733
 3670POPC   GL247162  21.786  33.972   5.880
 3670POPC   C1A47163  21.343  33.759   6.150
 3670POPC   D2A47164  21.350  33.860   6.592
 3670POPC   C3A47165  21.583  33.646   6.900
 3670POPC   C4A47166  21.327  33.654   7.287
 3670POPC   C1B47167  21.806  33.956   6.329
 3670POPC   C2B47168  21.707  34.251   6.638
 3670POPC   C3B47169  21.562  34.137   7.011
 3670POPC   C4B47170  21.768  33.911   7.338
 3671POPC   NC347171  21.908  33.996   5.363
 3671POPC   PO447172  22.487  33.577   5.431
 3671POPC   GL147173  22.233  33.758   5.705
 3671POPC   GL247174  22.004  33.487   5.733
 3671POPC   C1A47175  22.248  34.000   6.068
 3671POPC   D2A47176  22.318  33.993   6.509
 3671POPC   C3A47177  22.038  33.911   6.858
 3671POPC   C4A47178  22.278  33.982   7.199
 3671POPC   C1B47179  22.113  33.525   6.188
 3671POPC   C2B47180  22.137  33.456   6.647
 3671POPC   C3B47181  22.141  33.432   7.112
 3671POPC   C4B47182  22.139  33.633   7.524
 3672POPC   NC347183  39.448  44.308   5.424
 3672POPC   PO447184  39.242  43.719   5.217
 3672POPC   GL147185  39.260  43.881   5.678
 3672POPC   GL247186  39.582  44.010   5.832
 3672POPC   C1A47187  39.126  43.906   6.105
 3672POPC   D2A47188  39.227  43.724   6.506
 3672POPC   C3A47189  39.363  44.023   6.836
 3672POPC   C4A47190  39.193  43.977   7.283
 3672POPC   C1B47191  39.631  43.725   6.165
 3672POPC   C2B47192  39.730  43.709   6.619
 3672POPC   C3B47193  39.518  43.594   7.027
 3672POPC   C4B47194  39.520  43.638   7.485
 3673POPC   NC347195   5.773   7.798   5.103
 3673POPC   PO447196   6.249   8.309   5.272
 3673POPC   GL147197   5.954   8.239   5.637
 3673POPC   GL247198   5.761   8.504   5.779
 3673POPC   C1A47199   5.958   8.098   6.086
 3673POPC   D2A47200   6.170   8.187   6.454
 3673POPC   C3A47201   5.977   8.174   6.858
 3673POPC   C4A47202   6.108   8.321   7.276
 3673POPC   C1B47203   5.631   8.445   6.228
 3673POPC   C2B47204   5.540   8.495   6.672
 3673POPC   C3B47205   5.709   8.581   7.083
 3673POPC   C4B47206   5.611   8.160   7.238
 3674POPC   NC347207  14.966  31.337   5.007
 3674POPC   PO447208  15.187  31.765   5.457
 3674POPC   GL147209  15.241  31.558   5.821
 3674POPC   GL247210  15.276  31.208   5.742
 3674POPC   C1A47211  15.222  31.684   6.232
 3674POPC   D2A47212  14.909  31.766   6.530
 3674POPC   C3A47213  15.084  31.670   6.928
 3674POPC   C4A47214  14.913  31.490   7.280
 3674POPC   C1B47215  15.129  31.186   6.168
 3674POPC   C2B47216  15.286  31.290   6.604
 3674POPC   C3B47217  15.190  31.150   7.045
 3674POPC   C4B47218  15.180  31.133   7.550
 3675POPC   NC347219  43.529  29.315   5.461
 3675POPC   PO447220  42.935  29.015   5.277
 3675POPC   GL147221  43.052  28.974   5.790
 3675POPC   GL247222  43.081  28.687   5.957
 3675POPC   C1A47223  42.974  29.130   6.224
 3675POPC   D2A47224  43.041  29.436   6.569
 3675POPC   C3A47225  42.818  29.339   6.963
 3675POPC   C4A47226  43.000  29.415   7.393
 3675POPC   C1B47227  43.327  28.756   6.285
 3675POPC   C2B47228  43.198  28.962   6.681
 3675POPC   C3B47229  43.294  29.181   7.047
 3675POPC   C4B47230  43.294  29.020   7.466
 3676POPC   NC347231  31.657   9.324   5.423
 3676POPC   PO447232  31.574   8.651   5.455
 3676POPC   GL147233  31.466   8.850   5.816
 3676POPC   GL247234  31.659   9.132   5.885
 3676POPC   C1A47235  31.415   8.858   6.253
 3676POPC   D2A47236  31.214   8.613   6.572
 3676POPC   C3A47237  31.214   8.856   6.953
 3676POPC   C4A47238  31.282   8.987   7.412
 3676POPC   C1B47239  31.623   9.361   6.261
 3676POPC   C2B47240  31.479   9.348   6.678
 3676POPC   C3B47241  31.619   9.127   7.031
 3676POPC   C4B47242  31.782   8.865   7.336
 3677POPC   NC347243  18.681  38.499   5.457
 3677POPC   PO447244  19.336  38.286   5.365
 3677POPC   GL147245  19.075  38.336   5.754
 3677POPC   GL247246  19.031  38.692   5.792
 3677POPC   C1A47247  18.851  38.319   6.184
 3677POPC   D2A47248  18.996  38.526   6.570
 3677POPC   C3A47249  19.042  38.243   6.896
 3677POPC   C4A47250  18.815  38.268   7.261
 3677POPC   C1B47251  19.308  38.524   6.167
 3677POPC   C2B47252  19.509  38.442   6.572
 3677POPC   C3B47253  19.401  38.603   6.953
 3677POPC   C4B47254  19.314  38.421   7.301
 3678POPC   NC347255  33.913   6.856   5.309
 3678POPC   PO447256  33.398   6.476   5.479
 3678POPC   GL147257  33.636   6.728   5.760
 3678POPC   GL247258  33.537   7.073   5.811
 3678POPC   C1A47259  33.751   6.635   6.178
 3678POPC   D2A47260  33.901   6.480   6.555
 3678POPC   C3A47261  33.897   6.781   6.872
 3678POPC   C4A47262  33.870   6.577   7.256
 3678POPC   C1B47263  33.346   6.960   6.211
 3678POPC   C2B47264  33.416   6.836   6.666
 3678POPC   C3B47265  33.470   6.914   7.140
 3678POPC   C4B47266  33.610   6.845   7.586
 3679POPC   NC347267  16.523  41.276   5.432
 3679POPC   PO447268  16.914  41.747   5.388
 3679POPC   GL147269  16.786  41.598   5.756
 3679POPC   GL247270  16.438  41.749   5.823
 3679POPC   C1A47271  16.852  41.691   6.181
 3679POPC   D2A47272  16.543  41.750   6.515
 3679POPC   C3A47273  16.747  41.690   6.889
 3679POPC   C4A47274  17.046  41.409   7.044
 3679POPC   C1B47275  16.465  41.372   6.117
 3679POPC   C2B47276  16.728  41.294   6.506
 3679POPC   C3B47277  16.556  41.170   6.880
 3679POPC   C4B47278  16.482  41.412   7.211
 3680POPC   NC347279  12.506  12.376   5.230
 3680POPC   PO447280  12.045  11.849   5.285
 3680POPC   GL147281  12.071  12.047   5.692
 3680POPC   GL247282  12.365  12.275   5.721
 3680POPC   C1A47283  12.041  12.193   6.126
 3680POPC   D2A47284  11.853  12.428   6.468
 3680POPC   C3A47285  11.859  12.163   6.824
 3680POPC   C4A47286  12.132  12.037   7.152
 3680POPC   C1B47287  12.526  12.373   6.151
 3680POPC   C2B47288  12.356  12.234   6.561
 3680POPC   C3B47289  12.493  12.427   6.933
 3680POPC   C4B47290  12.265  12.517   7.304
 3681POPC   NC347291  30.362  20.879   5.584
 3681POPC   PO447292  29.710  20.722   5.383
 3681POPC   GL147293  29.935  20.583   5.733
 3681POPC   GL247294  29.821  20.877   5.859
 3681POPC   C1A47295  30.116  20.548   6.170
 3681POPC   D2A47296  29.971  20.439   6.613
 3681POPC   C3A47297  30.115  20.676   7.003
 3681POPC   C4A47298  29.959  20.682   7.447
 3681POPC   C1B47299  29.617  20.658   6.200
 3681POPC   C2B47300  29.465  20.530   6.604
 3681POPC   C3B47301  29.605  20.710   6.986
 3681POPC   C4B47302  29.478  20.979   7.301
 3682POPC   NC347303  28.706  23.585   5.300
 3682POPC   PO447304  28.101  23.705   5.356
 3682POPC   GL147305  28.364  23.590   5.695
 3682POPC   GL247306  28.652  23.798   5.743
 3682POPC   C1A47307  28.297  23.626   6.138
 3682POPC   D2A47308  28.344  23.424   6.528
 3682POPC   C3A47309  28.412  23.580   6.935
 3682POPC   C4A47310  28.231  23.647   7.328
 3682POPC   C1B47311  28.711  23.911   6.145
 3682POPC   C2B47312  28.595  23.918   6.563
 3682POPC   C3B47313  28.818  23.895   6.912
 3682POPC   C4B47314  28.698  23.846   7.320
 3683POPC   NC347315  17.437  15.632   5.463
 3683POPC   PO447316  17.090  16.156   5.186
 3683POPC   GL147317  17.286  16.090   5.684
 3683POPC   GL247318  17.629  15.944   5.907
 3683POPC   C1A47319  17.177  15.966   6.139
 3683POPC   D2A47320  17.421  15.982   6.522
 3683POPC   C3A47321  17.296  15.781   6.886
 3683POPC   C4A47322  17.355  16.008   7.234
 3683POPC   C1B47323  17.902  15.896   6.347
 3683POPC   C2B47324  17.887  15.918   6.856
 3683POPC   C3B47325  17.717  15.649   7.233
 3683POPC   C4B47326  17.926  15.586   7.682
 3684POPC   NC347327  14.738  36.435   5.577
 3684POPC   PO447328  15.160  35.913   5.523
 3684POPC   GL147329  15.225  36.169   5.854
 3684POPC   GL247330  15.538  35.998   5.827
 3684POPC   C1A47331  15.142  36.209   6.318
 3684POPC   D2A47332  15.063  36.007   6.742
 3684POPC   C3A47333  14.971  36.324   7.054
 3684POPC   C4A47334  15.151  36.545   7.424
 3684POPC   C1B47335  15.486  35.820   6.219
 3684POPC   C2B47336  15.543  35.982   6.615
 3684POPC   C3B47337  15.480  36.043   7.065
 3684POPC   C4B47338  15.790  35.829   7.310
 3685POPC   NC347339  39.309   4.162   5.313
 3685POPC   PO447340  39.430   4.887   5.384
 3685POPC   GL147341  39.334   4.536   5.732
 3685POPC   GL247342  39.335   4.146   5.810
 3685POPC   C1A47343  39.369   4.528   6.190
 3685POPC   D2A47344  39.523   4.316   6.562
 3685POPC   C3A47345  39.306   4.436   6.919
 3685POPC   C4A47346  39.295   4.154   7.224
 3685POPC   C1B47347  38.975   4.231   6.076
 3685POPC   C2B47348  38.994   4.325   6.507
 3685POPC   C3B47349  38.938   4.052   6.851
 3685POPC   C4B47350  38.787   4.115   7.260
 3686POPC   NC347351  18.830  42.578   5.408
 3686POPC   PO447352  18.371  42.103   5.497
 3686POPC   GL147353  18.494  42.110   5.895
 3686POPC   GL247354  18.574  42.492   5.879
 3686POPC   C1A47355  18.458  41.882   6.285
 3686POPC   D2A47356  18.299  42.083   6.639
 3686POPC   C3A47357  18.441  42.043   7.052
 3686POPC   C4A47358  18.143  42.201   7.311
 3686POPC   C1B47359  18.402  42.477   6.292
 3686POPC   C2B47360  18.165  42.595   6.660
 3686POPC   C3B47361  18.177  42.681   7.109
 3686POPC   C4B47362  18.365  42.601   7.507
 3687POPC   NC347363  24.117  21.917   5.428
 3687POPC   PO447364  24.521  22.479   5.485
 3687POPC   GL147365  24.388  22.430   5.893
 3687POPC   GL247366  24.280  22.084   5.895
 3687POPC   C1A47367  24.545  22.330   6.304
 3687POPC   D2A47368  24.756  22.394   6.702
 3687POPC   C3A47369  24.532  22.592   7.040
 3687POPC   C4A47370  24.484  22.591   7.488
 3687POPC   C1B47371  24.054  22.169   6.280
 3687POPC   C2B47372  24.169  22.397   6.677
 3687POPC   C3B47373  24.356  22.119   6.992
 3687POPC   C4B47374  24.613  21.764   7.102
 3688POPC   NC347375  39.513  41.119   5.433
 3688POPC   PO447376  38.956  40.706   5.528
 3688POPC   GL147377  39.214  40.742   5.888
 3688POPC   GL247378  39.174  41.090   5.829
 3688POPC   C1A47379  39.309  40.634   6.348
 3688POPC   D2A47380  39.443  40.813   6.775
 3688POPC   C3A47381  39.171  40.687   7.169
 3688POPC   C4A47382  38.834  40.598   7.532
 3688POPC   C1B47383  39.319  41.147   6.239
 3688POPC   C2B47384  39.096  41.230   6.591
 3688POPC   C3B47385  39.088  41.147   6.988
 3688POPC   C4B47386  39.470  41.096   7.233
 3689POPC   NC347387  13.843  19.728   5.339
 3689POPC   PO447388  13.118  19.821   5.256
 3689POPC   GL147389  13.362  19.810   5.697
 3689POPC   GL247390  13.690  20.045   5.747
 3689POPC   C1A47391  13.420  19.931   6.150
 3689POPC   D2A47392  13.366  19.688   6.531
 3689POPC   C3A47393  13.635  19.749   6.875
 3689POPC   C4A47394  13.532  19.825   7.297
 3689POPC   C1B47395  13.931  20.051   6.177
 3689POPC   C2B47396  14.009  20.067   6.648
 3689POPC   C3B47397  13.932  20.100   7.112
 3689POPC   C4B47398  13.809  20.183   7.561
 3690POPC   NC347399   6.185  30.125   5.274
 3690POPC   PO447400   5.765  29.594   5.147
 3690POPC   GL147401   5.761  29.962   5.536
 3690POPC   GL247402   6.085  29.967   5.738
 3690POPC   C1A47403   5.692  30.138   6.020
 3690POPC   D2A47404   5.610  30.196   6.525
 3690POPC   C3A47405   5.707  29.974   6.943
 3690POPC   C4A47406   5.539  29.624   7.198
 3690POPC   C1B47407   6.244  29.900   6.138
 3690POPC   C2B47408   6.098  30.005   6.548
 3690POPC   C3B47409   6.165  29.751   6.909
 3690POPC   C4B47410   6.151  29.917   7.323
 3691POPC   NC347411   7.889   9.244   5.456
 3691POPC   PO447412   8.324   8.825   5.422
 3691POPC   GL147413   8.310   8.835   5.853
 3691POPC   GL247414   7.981   8.913   5.876
 3691POPC   C1A47415   8.442   8.920   6.268
 3691POPC   D2A47416   8.248   9.095   6.645
 3691POPC   C3A47417   8.255   8.912   7.035
 3691POPC   C4A47418   8.224   9.218   7.337
 3691POPC   C1B47419   7.899   8.943   6.313
 3691POPC   C2B47420   7.757   8.851   6.736
 3691POPC   C3B47421   7.772   8.997   7.172
 3691POPC   C4B47422   7.913   8.960   7.624
 3692POPC   NC347423   0.130   1.944   5.459
 3692POPC   PO447424   0.625   2.369   5.280
 3692POPC   GL147425   0.645   2.253   5.810
 3692POPC   GL247426   0.568   1.899   5.781
 3692POPC   C1A47427   0.352   2.066   6.208
 3692POPC   D2A47428   0.445   1.825   6.570
 3692POPC   C3A47429   0.302   2.104   6.850
 3692POPC   C4A47430   0.167   2.286   7.198
 3692POPC   C1B47431   0.807   1.877   6.175
 3692POPC   C2B47432   0.968   1.907   6.550
 3692POPC   C3B47433   0.830   1.822   6.906
 3692POPC   C4B47434   0.544   1.885   7.231
 3693POPC   NC347435  23.445  30.214   5.113
 3693POPC   PO447436  22.917  30.080   5.620
 3693POPC   GL147437  23.074  29.854   5.906
 3693POPC   GL247438  23.237  29.609   5.663
 3693POPC   C1A47439  23.118  30.029   6.323
 3693POPC   D2A47440  23.125  30.004   6.763
 3693POPC   C3A47441  22.795  30.099   7.033
 3693POPC   C4A47442  23.113  30.182   7.338
 3693POPC   C1B47443  23.353  29.481   6.064
 3693POPC   C2B47444  23.310  29.579   6.494
 3693POPC   C3B47445  23.247  29.532   6.932
 3693POPC   C4B47446  23.269  29.399   7.358
 3694POPC   NC347447   8.698  16.539   5.462
 3694POPC   PO447448   9.033  17.086   5.300
 3694POPC   GL147449   8.927  16.951   5.750
 3694POPC   GL247450   9.139  16.626   5.829
 3694POPC   C1A47451   8.948  16.956   6.225
 3694POPC   D2A47452   8.966  16.747   6.625
 3694POPC   C3A47453   8.897  16.876   7.050
 3694POPC   C4A47454   9.153  16.723   7.385
 3694POPC   C1B47455   8.928  16.436   6.198
 3694POPC   C2B47456   8.689  16.324   6.592
 3694POPC   C3B47457   8.950  16.359   6.954
 3694POPC   C4B47458   8.996  16.178   7.326
 3695POPC   NC347459   1.744  32.099   5.549
 3695POPC   PO447460   1.042  32.083   5.379
 3695POPC   GL147461   1.277  32.160   5.773
 3695POPC   GL247462   1.405  32.507   5.779
 3695POPC   C1A47463   1.148  32.092   6.198
 3695POPC   D2A47464   0.965  31.854   6.533
 3695POPC   C3A47465   0.994  32.108   6.859
 3695POPC   C4A47466   0.866  32.146   7.250
 3695POPC   C1B47467   1.454  32.496   6.222
 3695POPC   C2B47468   1.400  32.333   6.613
 3695POPC   C3B47469   1.555  32.500   6.991
 3695POPC   C4B47470   1.255  32.493   7.270
 3696POPC   NC347471  23.026   8.900   5.221
 3696POPC   PO447472  22.469   9.034   5.540
 3696POPC   GL147473  22.708   8.760   5.809
 3696POPC   GL247474  23.082   8.789   5.738
 3696POPC   C1A47475  22.866   8.827   6.218
 3696POPC   D2A47476  23.212   8.913   6.488
 3696POPC   C3A47477  23.096   8.852   6.889
 3696POPC   C4A47478  22.829   8.934   7.227
 3696POPC   C1B47479  23.238   9.152   6.028
 3696POPC   C2B47480  23.233   9.421   6.444
 3696POPC   C3B47481  23.174   9.381   6.897
 3696POPC   C4B47482  23.325   9.151   7.260
 3697POPC   NC347483  43.526   1.094   5.622
 3697POPC   PO447484  42.871   1.197   5.323
 3697POPC   GL147485  42.974   1.293   5.736
 3697POPC   GL247486  43.034   0.951   5.756
 3697POPC   C1A47487  43.142   1.244   6.168
 3697POPC   D2A47488  42.925   1.158   6.535
 3697POPC   C3A47489  43.107   1.365   6.880
 3697POPC   C4A47490  42.954   1.339   7.281
 3697POPC   C1B47491  42.914   0.779   6.134
 3697POPC   C2B47492  42.988   0.652   6.557
 3697POPC   C3B47493  43.055   0.854   6.963
 3697POPC   C4B47494  43.349   1.014   7.273
 3698POPC   NC347495  11.803  20.428   5.166
 3698POPC   PO447496  12.277  20.891   5.435
 3698POPC   GL147497  12.062  20.729   5.758
 3698POPC   GL247498  12.064  20.380   5.705
 3698POPC   C1A47499  12.166  20.725   6.178
 3698POPC   D2A47500  12.316  20.758   6.572
 3698POPC   C3A47501  11.991  20.760   6.842
 3698POPC   C4A47502  12.014  20.790   7.285
 3698POPC   C1B47503  12.206  20.215   6.141
 3698POPC   C2B47504  12.112  20.273   6.603
 3698POPC   C3B47505  11.939  20.292   7.024
 3698POPC   C4B47506  12.057  20.337   7.471
 3699POPC   NC347507  10.985   1.386   5.644
 3699POPC   PO447508  11.641   1.513   5.482
 3699POPC   GL147509  11.535   1.248   5.853
 3699POPC   GL247510  11.217   1.220   6.058
 3699POPC   C1A47511  11.669   1.262   6.298
 3699POPC   D2A47512  11.404   1.354   6.646
 3699POPC   C3A47513  11.550   1.226   7.006
 3699POPC   C4A47514  11.347   1.154   7.391
 3699POPC   C1B47515  11.120   1.598   6.305
 3699POPC   C2B47516  11.059   1.748   6.732
 3699POPC   C3B47517  11.085   1.534   7.164
 3699POPC   C4B47518  11.088   1.486   7.681
 3700POPC   NC347519  33.902  40.021   5.218
 3700POPC   PO447520  33.395  39.609   5.111
 3700POPC   GL147521  33.538  39.796   5.567
 3700POPC   GL247522  33.746  40.119   5.692
 3700POPC   C1A47523  33.579  39.853   6.071
 3700POPC   D2A47524  33.536  39.787   6.532
 3700POPC   C3A47525  33.666  39.869   6.962
 3700POPC   C4A47526  34.065  39.868   7.113
 3700POPC   C1B47527  33.947  40.221   6.143
 3700POPC   C2B47528  33.900  40.153   6.591
 3700POPC   C3B47529  34.121  40.328   6.947
 3700POPC   C4B47530  34.298  40.260   7.365
 3701POPC   NC347531  21.459  16.462   5.382
 3701POPC   PO447532  21.408  17.095   5.399
 3701POPC   GL147533  21.423  16.906   5.790
 3701POPC   GL247534  21.149  16.753   5.799
 3701POPC   C1A47535  21.386  16.811   6.254
 3701POPC   D2A47536  21.437  16.621   6.669
 3701POPC   C3A47537  21.499  16.873   7.024
 3701POPC   C4A47538  21.697  17.247   7.090
 3701POPC   C1B47539  20.952  16.493   6.104
 3701POPC   C2B47540  20.964  16.595   6.504
 3701POPC   C3B47541  20.977  16.749   6.899
 3701POPC   C4B47542  21.133  16.548   7.221
 3702POPC   NC347543  34.144  31.166   5.558
 3702POPC   PO447544  33.576  31.507   5.470
 3702POPC   GL147545  33.616  31.432   5.900
 3702POPC   GL247546  33.653  31.092   5.762
 3702POPC   C1A47547  33.602  31.607   6.342
 3702POPC   D2A47548  33.790  31.913   6.636
 3702POPC   C3A47549  34.097  31.719   6.913
 3702POPC   C4A47550  33.948  31.456   7.215
 3702POPC   C1B47551  33.274  31.090   6.046
 3702POPC   C2B47552  33.362  31.169   6.477
 3702POPC   C3B47553  33.558  31.366   6.837
 3702POPC   C4B47554  33.426  31.337   7.266
 3703POPC   NC347555  33.933  29.490   5.160
 3703POPC   PO447556  33.418  29.192   5.522
 3703POPC   GL147557  33.735  29.129   5.872
 3703POPC   GL247558  34.082  29.204   5.840
 3703POPC   C1A47559  33.866  28.949   6.288
 3703POPC   D2A47560  33.627  29.076   6.652
 3703POPC   C3A47561  33.770  29.067   7.065
 3703POPC   C4A47562  33.525  29.159   7.413
 3703POPC   C1B47563  34.081  29.416   6.284
 3703POPC   C2B47564  34.140  29.227   6.707
 3703POPC   C3B47565  34.263  29.234   7.163
 3703POPC   C4B47566  34.287  29.393   7.636
 3704POPC   NC347567   0.013  44.338   5.503
 3704POPC   PO447568  44.675  44.896   5.404
 3704POPC   GL147569  44.664  44.646   5.767
 3704POPC   GL247570  44.321  44.563   5.824
 3704POPC   C1A47571  44.668  44.642   6.206
 3704POPC   D2A47572  44.872  44.620   6.586
 3704POPC   C3A47573  44.662  44.560   6.976
 3704POPC   C4A47574   0.030  44.442   7.205
 3704POPC   C1B47575  44.201  44.406   6.210
 3704POPC   C2B47576  44.125  44.506   6.667
 3704POPC   C3B47577  44.176  44.365   7.114
 3704POPC   C4B47578  44.434  44.438   7.460
 3705POPC   NC347579  25.966  29.046   5.458
 3705POPC   PO447580  26.288  29.633   5.517
 3705POPC   GL147581  26.133  29.380   5.815
 3705POPC   GL247582  25.815  29.405   5.827
 3705POPC   C1A47583  26.146  29.112   6.170
 3705POPC   D2A47584  26.215  29.101   6.615
 3705POPC   C3A47585  25.960  28.930   6.945
 3705POPC   C4A47586  26.323  29.003   7.172
 3705POPC   C1B47587  25.693  29.332   6.217
 3705POPC   C2B47588  25.901  29.516   6.575
 3705POPC   C3B47589  26.006  29.455   7.025
 3705POPC   C4B47590  25.753  29.286   7.350
 3706POPC   NC347591  27.981  39.261   5.411
 3706POPC   PO447592  28.616  38.965   5.347
 3706POPC   GL147593  28.395  39.233   5.721
 3706POPC   GL247594  28.033  39.177   5.900
 3706POPC   C1A47595  28.355  39.463   6.141
 3706POPC   D2A47596  28.339  39.314   6.551
 3706POPC   C3A47597  28.334  39.537   6.921
 3706POPC   C4A47598  28.380  39.473   7.335
 3706POPC   C1B47599  28.338  38.949   6.162
 3706POPC   C2B47600  28.422  38.819   6.576
 3706POPC   C3B47601  28.278  38.899   7.022
 3706POPC   C4B47602  27.974  39.082   7.328
 3707POPC   NC347603  10.531   3.324   5.385
 3707POPC   PO447604  10.459   2.667   5.397
 3707POPC   GL147605  10.361   2.609   5.817
 3707POPC   GL247606  10.622   2.886   5.892
 3707POPC   C1A47607  10.274   2.779   6.241
 3707POPC   D2A47608  10.623   2.998   6.439
 3707POPC   C3A47609  10.450   3.216   6.763
 3707POPC   C4A47610  10.163   2.951   7.035
 3707POPC   C1B47611  10.759   2.528   6.178
 3707POPC   C2B47612  10.971   2.343   6.570
 3707POPC   C3B47613  10.888   2.516   6.978
 3707POPC   C4B47614  10.688   2.885   7.080
 3708POPC   NC347615  10.155  41.551   5.343
 3708POPC   PO447616  10.812  41.602   5.513
 3708POPC   GL147617  10.556  41.580   5.897
 3708POPC   GL247618  10.185  41.522   5.875
 3708POPC   C1A47619  10.761  41.535   6.308
 3708POPC   D2A47620  10.874  41.732   6.665
 3708POPC   C3A47621  10.783  41.532   7.040
 3708POPC   C4A47622  10.449  41.636   7.312
 3708POPC   C1B47623  10.254  41.637   6.312
 3708POPC   C2B47624  10.344  41.608   6.736
 3708POPC   C3B47625  10.238  41.310   6.989
 3708POPC   C4B47626  10.118  41.237   7.355
 3709POPC   NC347627   6.781  36.118   5.265
 3709POPC   PO447628   6.282  36.495   5.560
 3709POPC   GL147629   6.565  36.128   5.764
 3709POPC   GL247630   6.912  36.003   5.723
 3709POPC   C1A47631   6.447  36.088   6.160
 3709POPC   D2A47632   6.358  36.316   6.513
 3709POPC   C3A47633   6.419  36.077   6.854
 3709POPC   C4A47634   6.425  36.312   7.190
 3709POPC   C1B47635   6.979  36.072   6.116
 3709POPC   C2B47636   6.829  36.078   6.505
 3709POPC   C3B47637   6.842  36.363   6.834
 3709POPC   C4B47638   6.954  36.266   7.251
 3710POPC   NC347639  35.627  23.856   5.555
 3710POPC   PO447640  36.246  23.591   5.450
 3710POPC   GL147641  36.066  23.706   5.835
 3710POPC   GL247642  35.784  23.486   5.900
 3710POPC   C1A47643  36.184  23.685   6.268
 3710POPC   D2A47644  36.352  23.416   6.602
 3710POPC   C3A47645  36.301  23.635   7.011
 3710POPC   C4A47646  36.013  23.593   7.295
 3710POPC   C1B47647  35.664  23.657   6.303
 3710POPC   C2B47648  35.876  23.688   6.709
 3710POPC   C3B47649  35.855  23.997   7.024
 3710POPC   C4B47650  35.679  23.991   7.433
 3711POPC   NC347651  18.073  10.712   5.109
 3711POPC   PO447652  18.699  10.480   5.407
 3711POPC   GL147653  18.522  10.304   5.826
 3711POPC   GL247654  18.145  10.170   5.846
 3711POPC   C1A47655  18.394  10.338   6.272
 3711POPC   D2A47656  18.490  10.429   6.692
 3711POPC   C3A47657  18.280  10.693   6.951
 3711POPC   C4A47658  18.198  10.742   7.357
 3711POPC   C1B47659  17.901  10.233   6.213
 3711POPC   C2B47660  17.956  10.384   6.637
 3711POPC   C3B47661  18.039  10.248   7.032
 3711POPC   C4B47662  17.764  10.231   7.398
 3712POPC   NC347663  22.258  27.816   5.542
 3712POPC   PO447664  21.648  27.425   5.310
 3712POPC   GL147665  21.887  27.511   5.710
 3712POPC   GL247666  21.827  27.224   5.855
 3712POPC   C1A47667  22.089  27.732   6.125
 3712POPC   D2A47668  22.361  27.607   6.478
 3712POPC   C3A47669  22.321  27.818   6.884
 3712POPC   C4A47670  22.216  27.685   7.314
 3712POPC   C1B47671  22.046  27.251   6.236
 3712POPC   C2B47672  22.169  27.086   6.597
 3712POPC   C3B47673  22.204  27.313   6.929
 3712POPC   C4B47674  21.950  27.223   7.200
 3713POPC   NC347675  32.522  32.066   5.390
 3713POPC   PO447676  31.878  32.333   5.425
 3713POPC   GL147677  32.055  32.146   5.776
 3713POPC   GL247678  32.345  32.329   5.783
 3713POPC   C1A47679  32.229  32.040   6.207
 3713POPC   D2A47680  32.484  32.138   6.584
 3713POPC   C3A47681  32.294  32.046   6.998
 3713POPC   C4A47682  31.882  32.179   7.146
 3713POPC   C1B47683  32.532  32.488   6.155
 3713POPC   C2B47684  32.449  32.700   6.545
 3713POPC   C3B47685  32.494  32.549   6.939
 3713POPC   C4B47686  32.667  32.321   7.231
 3714POPC   NC347687  20.033  10.173   5.626
 3714POPC   PO447688  19.694   9.610   5.368
 3714POPC   GL147689  19.860   9.701   5.755
 3714POPC   GL247690  20.201   9.594   5.757
 3714POPC   C1A47691  19.933   9.817   6.191
 3714POPC   D2A47692  19.666   9.891   6.531
 3714POPC   C3A47693  19.712   9.718   6.935
 3714POPC   C4A47694  19.684   9.895   7.333
 3714POPC   C1B47695  20.010   9.322   6.077
 3714POPC   C2B47696  19.964   9.426   6.528
 3714POPC   C3B47697  20.207   9.616   6.863
 3714POPC   C4B47698  20.130   9.683   7.288
 3715POPC   NC347699   6.349   2.893   5.220
 3715POPC   PO447700   6.866   2.515   5.231
 3715POPC   GL147701   6.628   2.600   5.622
 3715POPC   GL247702   6.670   2.966   5.673
 3715POPC   C1A47703   6.684   2.600   6.099
 3715POPC   D2A47704   6.869   2.463   6.518
 3715POPC   C3A47705   6.624   2.413   6.897
 3715POPC   C4A47706   6.589   2.620   7.327
 3715POPC   C1B47707   6.507   3.075   6.110
 3715POPC   C2B47708   6.496   2.873   6.501
 3715POPC   C3B47709   6.713   2.918   6.871
 3715POPC   C4B47710   6.522   3.113   7.186
 3716POPC   NC347711  27.282   2.180   5.459
 3716POPC   PO447712  27.889   1.797   5.515
 3716POPC   GL147713  27.782   2.094   5.854
 3716POPC   GL247714  27.448   2.289   5.954
 3716POPC   C1A47715  27.820   2.027   6.294
 3716POPC   D2A47716  27.651   1.815   6.647
 3716POPC   C3A47717  27.671   2.116   6.982
 3716POPC   C4A47718  27.961   2.192   7.337
 3716POPC   C1B47719  27.273   1.993   6.286
 3716POPC   C2B47720  27.142   1.911   6.734
 3716POPC   C3B47721  27.189   1.946   7.191
 3716POPC   C4B47722  27.192   1.868   7.684
 3717POPC   NC347723  42.406  44.209   5.462
 3717POPC   PO447724  42.143  44.865   5.516
 3717POPC   GL147725  42.427  44.659   5.784
 3717POPC   GL247726  42.318  44.344   5.925
 3717POPC   C1A47727  42.492  44.730   6.213
 3717POPC   D2A47728  42.270  44.901   6.543
 3717POPC   C3A47729  42.557  44.897   6.859
 3717POPC   C4A47730  42.531  44.850   7.271
 3717POPC   C1B47731  42.103  44.285   6.286
 3717POPC   C2B47732  42.287  44.405   6.630
 3717POPC   C3B47733  42.234  44.522   7.014
 3717POPC   C4B47734  41.976  44.292   7.227
 3718POPC   NC347735  24.162  29.621   5.479
 3718POPC   PO447736  24.662  30.058   5.402
 3718POPC   GL147737  24.597  29.830   5.777
 3718POPC   GL247738  24.850  29.564   5.815
 3718POPC   C1A47739  24.549  29.975   6.190
 3718POPC   D2A47740  24.729  30.133   6.544
 3718POPC   C3A47741  24.505  29.991   6.847
 3718POPC   C4A47742  24.613  29.929   7.218
 3718POPC   C1B47743  24.667  29.485   6.206
 3718POPC   C2B47744  24.371  29.591   6.534
 3718POPC   C3B47745  24.434  29.497   6.977
 3718POPC   C4B47746  24.603  29.464   7.420
 3719POPC   NC347747  26.158  25.586   5.481
 3719POPC   PO447748  26.103  24.925   5.345
 3719POPC   GL147749  26.067  25.112   5.710
 3719POPC   GL247750  25.779  25.277   5.698
 3719POPC   C1A47751  26.020  25.071   6.155
 3719POPC   D2A47752  26.103  24.921   6.552
 3719POPC   C3A47753  26.148  25.194   6.871
 3719POPC   C4A47754  25.956  25.090   7.240
 3719POPC   C1B47755  25.676  25.441   6.079
 3719POPC   C2B47756  25.802  25.388   6.514
 3719POPC   C3B47757  25.663  25.317   6.903
 3719POPC   C4B47758  25.646  25.501   7.284
 3720POPC   NC347759  21.845   2.527   5.429
 3720POPC   PO447760  22.269   3.025   5.393
 3720POPC   GL147761  22.247   2.778   5.761
 3720POPC   GL247762  22.443   2.453   5.760
 3720POPC   C1A47763  22.078   2.857   6.180
 3720POPC   D2A47764  22.105   3.183   6.523
 3720POPC   C3A47765  22.145   3.045   6.917
 3720POPC   C4A47766  21.979   2.807   7.228
 3720POPC   C1B47767  22.569   2.657   6.145
 3720POPC   C2B47768  22.427   2.773   6.556
 3720POPC   C3B47769  22.359   2.575   6.945
 3720POPC   C4B47770  22.511   2.764   7.297
 3721POPC   NC347771  23.190  35.552   5.486
 3721POPC   PO447772  22.656  35.092   5.449
 3721POPC   GL147773  22.918  35.280   5.808
 3721POPC   GL247774  22.785  35.572   5.829
 3721POPC   C1A47775  23.203  35.411   6.180
 3721POPC   D2A47776  23.327  35.298   6.644
 3721POPC   C3A47777  23.112  35.369   7.036
 3721POPC   C4A47778  22.655  35.378   7.017
 3721POPC   C1B47779  22.677  35.484   6.240
 3721POPC   C2B47780  22.887  35.568   6.593
 3721POPC   C3B47781  23.094  35.851   6.866
 3721POPC   C4B47782  22.864  35.827   7.241
 3722POPC   NC347783   1.475  34.769   5.399
 3722POPC   PO447784   0.831  34.722   5.540
 3722POPC   GL147785   1.174  34.555   5.829
 3722POPC   GL247786   1.486  34.639   5.888
 3722POPC   C1A47787   1.091  34.437   6.255
 3722POPC   D2A47788   0.810  34.400   6.596
 3722POPC   C3A47789   0.995  34.539   7.003
 3722POPC   C4A47790   1.099  34.242   7.322
 3722POPC   C1B47791   1.651  34.602   6.297
 3722POPC   C2B47792   1.632  34.581   6.731
 3722POPC   C3B47793   1.536  34.422   7.128
 3722POPC   C4B47794   1.438  34.584   7.541
 3723POPC   NC347795  42.713  25.961   5.475
 3723POPC   PO447796  43.243  26.272   5.406
 3723POPC   GL147797  43.140  26.034   5.781
 3723POPC   GL247798  42.937  25.737   5.851
 3723POPC   C1A47799  42.840  26.151   6.125
 3723POPC   D2A47800  42.683  26.279   6.525
 3723POPC   C3A47801  42.839  26.118   6.907
 3723POPC   C4A47802  42.773  26.376   7.285
 3723POPC   C1B47803  43.244  25.744   6.206
 3723POPC   C2B47804  43.258  25.870   6.646
 3723POPC   C3B47805  43.268  25.764   7.068
 3723POPC   C4B47806  42.931  25.858   7.346
 3724POPC   NC347807  33.022  27.272   5.491
 3724POPC   PO447808  33.413  26.767   5.184
 3724POPC   GL147809  33.163  26.715   5.624
 3724POPC   GL247810  32.790  26.723   5.803
 3724POPC   C1A47811  33.217  26.794   6.087
 3724POPC   D2A47812  33.275  27.066   6.468
 3724POPC   C3A47813  33.280  26.810   6.847
 3724POPC   C4A47814  33.345  26.593   7.235
 3724POPC   C1B47815  32.754  26.980   6.245
 3724POPC   C2B47816  32.827  27.044   6.733
 3724POPC   C3B47817  33.018  27.165   7.162
 3724POPC   C4B47818  32.958  27.348   7.613
 3725POPC   NC347819  31.717  19.368   5.417
 3725POPC   PO447820  31.083  19.631   5.547
 3725POPC   GL147821  31.294  19.956   5.788
 3725POPC   GL247822  31.579  19.753   5.777
 3725POPC   C1A47823  31.544  20.004   6.201
 3725POPC   D2A47824  31.656  19.772   6.563
 3725POPC   C3A47825  31.545  19.889   6.993
 3725POPC   C4A47826  31.684  19.919   7.411
 3725POPC   C1B47827  31.726  19.489   6.109
 3725POPC   C2B47828  31.767  19.287   6.500
 3725POPC   C3B47829  31.608  19.374   6.880
 3725POPC   C4B47830  31.760  19.373   7.235
 3726POPC   NC347831  31.106  23.948   5.256
 3726POPC   PO447832  30.775  23.390   5.395
 3726POPC   GL147833  30.838  23.579   5.809
 3726POPC   GL247834  30.958  23.924   5.769
 3726POPC   C1A47835  30.575  23.629   6.219
 3726POPC   D2A47836  30.466  23.525   6.665
 3726POPC   C3A47837  30.521  23.917   6.900
 3726POPC   C4A47838  30.676  23.918   7.312
 3726POPC   C1B47839  31.043  23.836   6.205
 3726POPC   C2B47840  30.945  23.734   6.639
 3726POPC   C3B47841  30.971  23.576   7.056
 3726POPC   C4B47842  31.162  23.855   7.338
 3727POPC   NC347843   5.551  42.005   5.291
 3727POPC   PO447844   6.034  42.415   5.308
 3727POPC   GL147845   6.021  42.166   5.700
 3727POPC   GL247846   5.654  42.197   5.772
 3727POPC   C1A47847   6.185  42.178   6.164
 3727POPC   D2A47848   5.983  42.054   6.586
 3727POPC   C3A47849   6.149  42.184   6.990
 3727POPC   C4A47850   6.043  42.207   7.438
 3727POPC   C1B47851   5.478  42.465   6.116
 3727POPC   C2B47852   5.437  42.429   6.577
 3727POPC   C3B47853   5.615  42.213   6.933
 3727POPC   C4B47854   5.582  42.421   7.328
 3728POPC   NC347855  27.269  36.792   5.492
 3728POPC   PO447856  27.838  37.264   5.463
 3728POPC   GL147857  27.610  37.116   5.797
 3728POPC   GL247858  27.688  36.760   5.944
 3728POPC   C1A47859  27.701  37.174   6.210
 3728POPC   D2A47860  27.653  36.851   6.487
 3728POPC   C3A47861  27.875  36.941   6.857
 3728POPC   C4A47862  27.777  36.738   7.217
 3728POPC   C1B47863  27.322  36.569   6.160
 3728POPC   C2B47864  27.202  36.525   6.583
 3728POPC   C3B47865  27.355  36.762   6.917
 3728POPC   C4B47866  27.213  36.749   7.327
 3729POPC   NC347867  29.386  35.407   5.065
 3729POPC   PO447868  29.009  35.134   5.580
 3729POPC   GL147869  29.217  35.396   5.861
 3729POPC   GL247870  28.936  35.554   6.054
 3729POPC   C1A47871  29.287  35.282   6.292
 3729POPC   D2A47872  29.010  35.194   6.594
 3729POPC   C3A47873  29.053  35.477   6.910
 3729POPC   C4A47874  29.189  35.512   7.312
 3729POPC   C1B47875  28.634  35.199   6.122
 3729POPC   C2B47876  28.551  34.971   6.482
 3729POPC   C3B47877  28.576  35.149   6.875
 3729POPC   C4B47878  28.762  35.217   7.260
 3730POPC   NC347879  29.561  39.467   5.271
 3730POPC   PO447880  30.170  39.537   5.557
 3730POPC   GL147881  30.054  39.193   5.822
 3730POPC   GL247882  29.726  39.053   5.677
 3730POPC   C1A47883  30.140  39.122   6.264
 3730POPC   D2A47884  29.998  38.877   6.603
 3730POPC   C3A47885  29.761  39.090   6.894
 3730POPC   C4A47886  30.049  39.303   7.168
 3730POPC   C1B47887  29.656  39.013   6.138
 3730POPC   C2B47888  29.704  39.375   6.461
 3730POPC   C3B47889  29.594  39.585   6.872
 3730POPC   C4B47890  29.570  39.369   7.300
 3731POPC   NC347891  40.536  28.288   5.703
 3731POPC   PO447892  40.105  28.518   5.204
 3731POPC   GL147893  40.030  28.517   5.665
 3731POPC   GL247894  39.789  28.289   5.804
 3731POPC   C1A47895  40.001  28.634   6.118
 3731POPC   D2A47896  39.898  28.516   6.552
 3731POPC   C3A47897  40.118  28.420   6.902
 3731POPC   C4A47898  40.050  28.707   7.196
 3731POPC   C1B47899  39.946  28.112   6.219
 3731POPC   C2B47900  39.950  27.950   6.652
 3731POPC   C3B47901  39.745  28.090   7.032
 3731POPC   C4B47902  39.619  27.939   7.441
 3732POPC   NC347903  44.468  38.008   5.456
 3732POPC   PO447904  44.814  38.566   5.578
 3732POPC   GL147905   0.031  38.342   5.878
 3732POPC   GL247906  44.727  38.122   5.908
 3732POPC   C1A47907  44.991  38.308   6.328
 3732POPC   D2A47908  44.673  38.332   6.611
 3732POPC   C3A47909  44.872  38.529   6.910
 3732POPC   C4A47910  44.792  38.599   7.276
 3732POPC   C1B47911  44.376  38.108   6.235
 3732POPC   C2B47912  44.217  38.065   6.697
 3732POPC   C3B47913  44.419  38.251   7.080
 3732POPC   C4B47914  44.463  38.349   7.541
 3733POPC   NC347915  41.079  24.768   5.017
 3733POPC   PO447916  40.542  24.627   5.392
 3733POPC   GL147917  40.737  24.596   5.784
 3733POPC   GL247918  40.842  24.254   5.823
 3733POPC   C1A47919  40.590  24.662   6.202
 3733POPC   D2A47920  40.787  24.815   6.582
 3733POPC   C3A47921  40.616  24.636   6.941
 3733POPC   C4A47922  40.735  24.692   7.339
 3733POPC   C1B47923  40.980  24.352   6.261
 3733POPC   C2B47924  40.832  24.257   6.667
 3733POPC   C3B47925  41.004  24.263   7.092
 3733POPC   C4B47926  40.908  24.267   7.551
 3734POPC   NC347927  12.442  40.244   5.320
 3734POPC   PO447928  13.138  39.910   5.350
 3734POPC   GL147929  12.955  40.132   5.696
 3734POPC   GL247930  13.066  39.870   5.893
 3734POPC   C1A47931  12.707  40.109   6.108
 3734POPC   D2A47932  12.794  39.732   6.409
 3734POPC   C3A47933  12.814  39.903   6.818
 3734POPC   C4A47934  12.747  40.249   7.126
 3734POPC   C1B47935  13.182  40.048   6.325
 3734POPC   C2B47936  13.300  40.090   6.751
 3734POPC   C3B47937  13.251  39.858   7.115
 3734POPC   C4B47938  12.866  39.708   7.292
 3735POPC   NC347939   7.953  37.238   5.428
 3735POPC   PO447940   8.223  36.700   5.157
 3735POPC   GL147941   8.208  36.836   5.660
 3735POPC   GL247942   7.944  37.007   5.908
 3735POPC   C1A47943   8.451  36.942   6.056
 3735POPC   D2A47944   8.303  36.928   6.484
 3735POPC   C3A47945   8.457  36.985   6.912
 3735POPC   C4A47946   8.180  36.740   7.169
 3735POPC   C1B47947   7.796  36.977   6.364
 3735POPC   C2B47948   7.931  37.038   6.818
 3735POPC   C3B47949   7.839  37.118   7.250
 3735POPC   C4B47950   7.958  37.332   7.600
 3736POPC   NC347951  23.509   2.941   5.264
 3736POPC   PO447952  23.957   2.486   5.379
 3736POPC   GL147953  23.735   2.718   5.689
 3736POPC   GL247954  23.960   2.969   5.812
 3736POPC   C1A47955  23.494   2.948   6.021
 3736POPC   D2A47956  23.394   2.780   6.430
 3736POPC   C3A47957  23.372   2.899   6.893
 3736POPC   C4A47958  23.455   2.774   7.373
 3736POPC   C1B47959  23.885   2.674   6.189
 3736POPC   C2B47960  24.010   2.693   6.611
 3736POPC   C3B47961  23.850   2.738   7.020
 3736POPC   C4B47962  23.982   2.832   7.414
 3737POPC   NC347963  23.489  23.255   5.425
 3737POPC   PO447964  23.696  22.627   5.387
 3737POPC   GL147965  23.719  22.895   5.738
 3737POPC   GL247966  23.431  22.766   5.884
 3737POPC   C1A47967  23.814  23.131   6.131
 3737POPC   D2A47968  23.860  23.325   6.549
 3737POPC   C3A47969  23.790  23.161   6.972
 3737POPC   C4A47970  23.775  23.133   7.417
 3737POPC   C1B47971  23.371  22.665   6.324
 3737POPC   C2B47972  23.282  22.884   6.746
 3737POPC   C3B47973  23.339  22.964   7.200
 3737POPC   C4B47974  23.554  22.690   7.520
 3738POPC   NC347975  20.229  29.417   5.375
 3738POPC   PO447976  20.905  29.425   5.329
 3738POPC   GL147977  20.629  29.464   5.748
 3738POPC   GL247978  20.277  29.570   5.853
 3738POPC   C1A47979  20.587  29.215   6.148
 3738POPC   D2A47980  20.887  29.127   6.489
 3738POPC   C3A47981  20.751  28.896   6.856
 3738POPC   C4A47982  20.799  29.142   7.226
 3738POPC   C1B47983  20.332  29.641   6.294
 3738POPC   C2B47984  20.395  29.345   6.635
 3738POPC   C3B47985  20.422  29.439   7.068
 3738POPC   C4B47986  20.221  29.463   7.490
 3739POPC   NC347987   7.033   0.898   5.469
 3739POPC   PO447988   7.601   0.507   5.400
 3739POPC   GL147989   7.365   0.446   5.798
 3739POPC   GL247990   7.133   0.723   5.922
 3739POPC   C1A47991   7.456   0.516   6.240
 3739POPC   D2A47992   7.650   0.655   6.574
 3739POPC   C3A47993   7.575   0.405   6.899
 3739POPC   C4A47994   7.579   0.503   7.306
 3739POPC   C1B47995   6.960   0.663   6.331
 3739POPC   C2B47996   7.133   0.593   6.735
 3739POPC   C3B47997   7.075   0.515   7.171
 3739POPC   C4B47998   7.235   0.808   7.503
 3740POPC   NC347999  32.391  16.004   5.498
 3740POPC   PO448000  31.878  15.610   5.238
 3740POPC   GL148001  31.974  15.770   5.710
 3740POPC   GL248002  31.995  16.131   5.830
 3740POPC   C1A48003  32.266  15.758   6.119
 3740POPC   D2A48004  32.422  15.881   6.569
 3740POPC   C3A48005  32.190  15.853   6.982
 3740POPC   C4A48006  32.331  15.789   7.412
 3740POPC   C1B48007  32.152  16.240   6.281
 3740POPC   C2B48008  32.163  16.304   6.752
 3740POPC   C3B48009  32.213  16.315   7.221
 3740POPC   C4B48010  32.279  16.299   7.680
 3741POPC   NC348011   8.002  36.313   5.086
 3741POPC   PO448012   7.762  35.846   5.546
 3741POPC   GL148013   7.867  36.038   6.002
 3741POPC   GL248014   7.750  36.410   6.088
 3741POPC   C1A48015   8.219  36.065   6.290
 3741POPC   D2A48016   8.328  36.415   6.574
 3741POPC   C3A48017   8.286  36.272   6.992
 3741POPC   C4A48018   8.288  35.927   7.271
 3741POPC   C1B48019   7.814  36.271   6.526
 3741POPC   C2B48020   7.731  35.864   6.733
 3741POPC   C3B48021   7.782  35.896   7.163
 3741POPC   C4B48022   7.913  36.320   7.356
 3742POPC   NC348023  17.977  23.344   5.404
 3742POPC   PO448024  18.416  22.820   5.330
 3742POPC   GL148025  18.292  23.016   5.729
 3742POPC   GL248026  18.030  22.808   5.840
 3742POPC   C1A48027  18.287  23.091   6.211
 3742POPC   D2A48028  18.059  23.161   6.624
 3742POPC   C3A48029  18.331  23.270   6.979
 3742POPC   C4A48030  18.557  22.945   7.164
 3742POPC   C1B48031  17.856  22.810   6.276
 3742POPC   C2B48032  17.952  22.656   6.672
 3742POPC   C3B48033  18.046  22.826   7.037
 3742POPC   C4B48034  17.805  22.694   7.349
 3743POPC   NC348035  36.120  35.750   5.286
 3743POPC   PO448036  36.540  35.210   5.488
 3743POPC   GL148037  36.264  35.161   5.850
 3743POPC   GL248038  35.937  34.969   5.785
 3743POPC   C1A48039  36.313  35.393   6.231
 3743POPC   D2A48040  36.468  35.289   6.641
 3743POPC   C3A48041  36.336  35.503   6.987
 3743POPC   C4A48042  36.175  35.359   7.365
 3743POPC   C1B48043  35.808  35.259   6.127
 3743POPC   C2B48044  35.935  35.319   6.562
 3743POPC   C3B48045  36.021  35.098   6.910
 3743POPC   C4B48046  35.644  35.034   7.138
 3744POPC   NC348047  36.937  16.169   5.356
 3744POPC   PO448048  36.612  15.638   5.701
 3744POPC   GL148049  36.879  15.977   5.826
 3744POPC   GL248050  36.765  16.333   5.826
 3744POPC   C1A48051  37.024  16.021   6.235
 3744POPC   D2A48052  37.039  15.661   6.534
 3744POPC   C3A48053  36.955  15.819   6.934
 3744POPC   C4A48054  36.955  16.216   7.168
 3744POPC   C1B48055  36.501  16.245   6.184
 3744POPC   C2B48056  36.410  16.060   6.567
 3744POPC   C3B48057  36.489  15.656   6.709
 3744POPC   C4B48058  36.529  15.655   7.137
 3745POPC   NC348059  30.900  31.743   5.407
 3745POPC   PO448060  30.375  31.322   5.554
 3745POPC   GL148061  30.699  31.418   5.788
 3745POPC   GL248062  30.988  31.197   5.742
 3745POPC   C1A48063  30.580  31.537   6.205
 3745POPC   D2A48064  30.409  31.353   6.562
 3745POPC   C3A48065  30.580  31.476   6.940
 3745POPC   C4A48066  30.428  31.651   7.291
 3745POPC   C1B48067  31.053  31.326   6.161
 3745POPC   C2B48068  30.913  31.261   6.588
 3745POPC   C3B48069  31.029  31.235   7.042
 3745POPC   C4B48070  30.871  31.303   7.482
 3746POPC   NC348071  44.858   8.404   5.542
 3746POPC   PO448072  44.392   7.948   5.615
 3746POPC   GL148073  44.509   7.982   6.016
 3746POPC   GL248074  44.839   8.093   5.968
 3746POPC   C1A48075  44.622   8.081   6.454
 3746POPC   D2A48076   0.036   8.100   6.650
 3746POPC   C3A48077  44.986   7.942   7.055
 3746POPC   C4A48078  44.757   8.113   7.404
 3746POPC   C1B48079  44.844   8.495   6.218
 3746POPC   C2B48080   0.036   8.640   6.647
 3746POPC   C3B48081  44.921   8.562   7.096
 3746POPC   C4B48082   0.080   8.516   7.527
 3747POPC   NC348083  28.297  38.591   5.309
 3747POPC   PO448084  27.761  38.889   5.563
 3747POPC   GL148085  28.138  38.667   5.803
 3747POPC   GL248086  28.369  38.369   5.766
 3747POPC   C1A48087  28.212  38.450   6.240
 3747POPC   D2A48088  28.226  38.364   6.697
 3747POPC   C3A48089  28.613  38.508   6.920
 3747POPC   C4A48090  28.550  38.484   7.323
 3747POPC   C1B48091  28.539  38.070   6.092
 3747POPC   C2B48092  28.669  38.117   6.509
 3747POPC   C3B48093  28.533  38.016   6.919
 3747POPC   C4B48094  28.801  38.029   7.238
 3748POPC   NC348095  25.168   6.440   5.385
 3748POPC   PO448096  25.342   7.096   5.377
 3748POPC   GL148097  25.283   6.773   5.751
 3748POPC   GL248098  25.498   6.455   5.786
 3748POPC   C1A48099  25.015   6.548   6.116
 3748POPC   D2A48100  24.857   6.627   6.581
 3748POPC   C3A48101  25.049   6.766   6.999
 3748POPC   C4A48102  25.477   6.869   7.221
 3748POPC   C1B48103  25.532   6.616   6.177
 3748POPC   C2B48104  25.352   6.423   6.495
 3748POPC   C3B48105  25.462   6.508   6.869
 3748POPC   C4B48106  25.306   6.398   7.293
 3749POPC   NC348107  40.536  22.015   5.281
 3749POPC   PO448108  40.878  22.536   5.212
 3749POPC   GL148109  40.665  22.380   5.634
 3749POPC   GL248110  40.743  22.023   5.744
 3749POPC   C1A48111  40.632  22.398   6.116
 3749POPC   D2A48112  40.842  22.261   6.539
 3749POPC   C3A48113  40.752  22.504   6.932
 3749POPC   C4A48114  40.410  22.521   7.234
 3749POPC   C1B48115  40.602  21.881   6.146
 3749POPC   C2B48116  40.581  21.815   6.597
 3749POPC   C3B48117  40.385  21.673   6.999
 3749POPC   C4B48118  40.477  21.724   7.441
 3750POPC   NC348119  38.325  12.580   5.178
 3750POPC   PO448120  38.641  11.882   5.277
 3750POPC   GL148121  38.511  11.859   5.758
 3750POPC   GL248122  38.661  12.140   5.953
 3750POPC   C1A48123  38.168  11.800   6.112
 3750POPC   D2A48124  37.990  11.728   6.578
 3750POPC   C3A48125  38.136  11.992   6.962
 3750POPC   C4A48126  38.407  12.332   7.180
 3750POPC   C1B48127  38.748  12.446   6.291
 3750POPC   C2B48128  38.542  12.387   6.687
 3750POPC   C3B48129  38.658  11.988   6.904
 3750POPC   C4B48130  39.013  11.753   7.038
 3751POPC   NC348131  40.323  15.955   5.367
 3751POPC   PO448132  39.751  15.728   5.417
 3751POPC   GL148133  39.948  15.938   5.745
 3751POPC   GL248134  40.201  15.668   5.766
 3751POPC   C1A48135  39.942  16.240   6.127
 3751POPC   D2A48136  39.932  16.419   6.573
 3751POPC   C3A48137  39.977  16.213   6.965
 3751POPC   C4A48138  40.012  15.935   7.331
 3751POPC   C1B48139  40.012  15.711   6.179
 3751POPC   C2B48140  39.944  15.889   6.551
 3751POPC   C3B48141  39.987  15.687   6.908
 3751POPC   C4B48142  40.344  15.555   7.140
 3752POPC   NC348143   2.671  25.029   5.311
 3752POPC   PO448144   2.855  25.705   5.402
 3752POPC   GL148145   2.649  25.401   5.702
 3752POPC   GL248146   2.717  25.057   5.826
 3752POPC   C1A48147   2.614  25.425   6.172
 3752POPC   D2A48148   2.497  25.233   6.557
 3752POPC   C3A48149   2.599  25.451   6.934
 3752POPC   C4A48150   2.654  25.302   7.331
 3752POPC   C1B48151   2.450  24.872   6.171
 3752POPC   C2B48152   2.427  24.737   6.631
 3752POPC   C3B48153   2.363  24.983   7.031
 3752POPC   C4B48154   2.401  24.889   7.506
 3753POPC   NC348155  29.153  41.214   5.243
 3753POPC   PO448156  29.461  41.694   5.602
 3753POPC   GL148157  29.234  41.426   5.842
 3753POPC   GL248158  29.059  41.150   6.004
 3753POPC   C1A48159  29.165  41.603   6.238
 3753POPC   D2A48160  29.119  41.483   6.616
 3753POPC   C3A48161  29.161  41.743   6.958
 3753POPC   C4A48162  28.837  41.521   7.202
 3753POPC   C1B48163  29.357  40.914   6.260
 3753POPC   C2B48164  29.450  41.051   6.674
 3753POPC   C3B48165  29.257  41.228   7.030
 3753POPC   C4B48166  29.365  41.296   7.439
 3754POPC   NC348167   2.398  42.472   5.507
 3754POPC   PO448168   1.668  42.297   5.293
 3754POPC   GL148169   1.817  42.452   5.746
 3754POPC   GL248170   2.148  42.372   5.917
 3754POPC   C1A48171   1.752  42.349   6.217
 3754POPC   D2A48172   1.786  42.079   6.575
 3754POPC   C3A48173   1.789  42.330   6.943
 3754POPC   C4A48174   1.552  42.353   7.309
 3754POPC   C1B48175   2.346  42.273   6.300
 3754POPC   C2B48176   2.290  42.190   6.739
 3754POPC   C3B48177   2.175  42.063   7.121
 3754POPC   C4B48178   2.370  42.395   7.308
 3755POPC   NC348179   5.953  31.020   5.410
 3755POPC   PO448180   5.812  30.390   5.190
 3755POPC   GL148181   5.992  30.461   5.643
 3755POPC   GL248182   5.924  30.757   5.849
 3755POPC   C1A48183   6.131  30.396   6.115
 3755POPC   D2A48184   5.989  30.576   6.519
 3755POPC   C3A48185   6.014  30.410   6.925
 3755POPC   C4A48186   6.033  30.714   7.253
 3755POPC   C1B48187   5.623  30.648   6.171
 3755POPC   C2B48188   5.451  30.680   6.580
 3755POPC   C3B48189   5.631  30.778   6.968
 3755POPC   C4B48190   5.518  30.702   7.391
 3756POPC   NC348191  41.442   2.683   5.405
 3756POPC   PO448192  41.829   3.191   5.611
 3756POPC   GL148193  41.763   2.857   5.872
 3756POPC   GL248194  41.513   2.602   5.913
 3756POPC   C1A48195  41.658   2.915   6.292
 3756POPC   D2A48196  41.524   2.783   6.691
 3756POPC   C3A48197  41.708   2.956   7.048
 3756POPC   C4A48198  41.713   3.139   7.472
 3756POPC   C1B48199  41.338   2.441   6.324
 3756POPC   C2B48200  41.571   2.278   6.712
 3756POPC   C3B48201  41.673   2.367   7.153
 3756POPC   C4B48202  41.530   2.683   7.444
 3757POPC   NC348203  41.320  14.848   5.232
 3757POPC   PO448204  41.621  15.332   5.558
 3757POPC   GL148205  41.463  15.012   5.784
 3757POPC   GL248206  41.732  14.807   5.917
 3757POPC   C1A48207  41.380  15.103   6.228
 3757POPC   D2A48208  41.143  15.095   6.635
 3757POPC   C3A48209  41.427  15.165   6.937
 3757POPC   C4A48210  41.469  15.284   7.323
 3757POPC   C1B48211  41.821  14.804   6.362
 3757POPC   C2B48212  41.727  14.778   6.803
 3757POPC   C3B48213  41.770  14.857   7.225
 3757POPC   C4B48214  41.748  15.008   7.635
 3758POPC   NC348215  12.560  20.416   5.537
 3758POPC   PO448216  13.042  20.813   5.354
 3758POPC   GL148217  12.894  20.770   5.785
 3758POPC   GL248218  12.563  20.874   5.881
 3758POPC   C1A48219  13.004  20.879   6.222
 3758POPC   D2A48220  12.820  20.818   6.623
 3758POPC   C3A48221  12.975  20.638   7.013
 3758POPC   C4A48222  12.975  20.812   7.426
 3758POPC   C1B48223  12.649  20.510   6.210
 3758POPC   C2B48224  12.641  20.347   6.654
 3758POPC   C3B48225  12.422  20.485   7.020
 3758POPC   C4B48226  12.516  20.538   7.446
 3759POPC   NC348227  13.999  38.958   5.391
 3759POPC   PO448228  14.613  39.032   5.425
 3759POPC   GL148229  14.327  39.217   5.765
 3759POPC   GL248230  14.024  39.018   5.892
 3759POPC   C1A48231  14.396  39.193   6.230
 3759POPC   D2A48232  14.456  39.436   6.609
 3759POPC   C3A48233  14.545  39.260   6.994
 3759POPC   C4A48234  14.325  39.094   7.321
 3759POPC   C1B48235  14.096  38.789   6.234
 3759POPC   C2B48236  14.208  38.938   6.650
 3759POPC   C3B48237  14.036  38.782   7.039
 3759POPC   C4B48238  13.992  38.750   7.493
 3760POPC   NC348239   4.710   6.753   5.441
 3760POPC   PO448240   5.347   6.469   5.397
 3760POPC   GL148241   5.130   6.663   5.731
 3760POPC   GL248242   5.393   6.644   5.948
 3760POPC   C1A48243   4.846   6.671   6.100
 3760POPC   D2A48244   4.806   6.368   6.406
 3760POPC   C3A48245   4.696   6.444   6.820
 3760POPC   C4A48246   4.806   6.653   7.181
 3760POPC   C1B48247   5.296   6.449   6.362
 3760POPC   C2B48248   5.221   6.462   6.831
 3760POPC   C3B48249   5.336   6.574   7.267
 3760POPC   C4B48250   5.469   6.484   7.700
 3761POPC   NC348251   6.181  31.764   5.457
 3761POPC   PO448252   5.672  31.377   5.273
 3761POPC   GL148253   5.755  31.445   5.729
 3761POPC   GL248254   6.036  31.255   5.863
 3761POPC   C1A48255   5.793  31.539   6.201
 3761POPC   D2A48256   6.068  31.743   6.501
 3761POPC   C3A48257   6.166  31.578   6.883
 3761POPC   C4A48258   6.319  31.683   7.267
 3761POPC   C1B48259   5.991  31.040   6.278
 3761POPC   C2B48260   5.925  31.123   6.735
 3761POPC   C3B48261   5.737  31.385   7.078
 3761POPC   C4B48262   5.750  31.830   7.129
 3762POPC   NC348263  21.753  10.396   5.238
 3762POPC   PO448264  22.373  10.325   5.727
 3762POPC   GL148265  22.461  10.404   6.092
 3762POPC   GL248266  22.204  10.660   6.057
 3762POPC   C1A48267  22.418  10.144   6.445
 3762POPC   D2A48268  22.095  10.122   6.729
 3762POPC   C3A48269  22.242  10.238   7.151
 3762POPC   C4A48270  22.070  10.476   7.478
 3762POPC   C1B48271  22.046  10.564   6.450
 3762POPC   C2B48272  22.293  10.618   6.814
 3762POPC   C3B48273  22.480  10.678   7.221
 3762POPC   C4B48274  22.391  10.834   7.612
 3763POPC   NC348275  41.103  28.565   5.497
 3763POPC   PO448276  41.756  28.619   5.459
 3763POPC   GL148277  41.476  28.507   5.829
 3763POPC   GL248278  41.535  28.153   5.852
 3763POPC   C1A48279  41.313  28.435   6.279
 3763POPC   D2A48280  41.203  28.215   6.663
 3763POPC   C3A48281  41.341  28.428   7.026
 3763POPC   C4A48282  41.284  28.264   7.484
 3763POPC   C1B48283  41.791  28.324   6.186
 3763POPC   C2B48284  41.812  28.204   6.590
 3763POPC   C3B48285  41.939  28.426   6.928
 3763POPC   C4B48286  41.758  28.337   7.290
 3764POPC   NC348287  38.079  26.886   5.556
 3764POPC   PO448288  37.517  26.666   5.250
 3764POPC   GL148289  37.521  26.871   5.657
 3764POPC   GL248290  37.474  27.202   5.841
 3764POPC   C1A48291  37.498  26.750   6.085
 3764POPC   D2A48292  37.456  27.005   6.448
 3764POPC   C3A48293  37.686  26.772   6.761
 3764POPC   C4A48294  37.577  26.735   7.189
 3764POPC   C1B48295  37.856  27.119   6.110
 3764POPC   C2B48296  38.186  27.089   6.442
 3764POPC   C3B48297  38.057  27.107   6.853
 3764POPC   C4B48298  37.951  27.168   7.252
 3765POPC   NC348299   6.068  44.222   5.305
 3765POPC   PO448300   6.204  44.942   5.247
 3765POPC   GL148301   5.983  44.855   5.645
 3765POPC   GL248302   5.870  44.515   5.693
 3765POPC   C1A48303   5.915  44.897   6.098
 3765POPC   D2A48304   5.834  44.695   6.484
 3765POPC   C3A48305   5.943  44.851   6.859
 3765POPC   C4A48306   5.910  44.756   7.272
 3765POPC   C1B48307   6.079  44.426   6.091
 3765POPC   C2B48308   6.248  44.414   6.552
 3765POPC   C3B48309   6.059  44.355   6.992
 3765POPC   C4B48310   6.144  44.390   7.497
 3766POPC   NC348311   7.432   3.723   5.331
 3766POPC   PO448312   7.550   3.115   5.091
 3766POPC   GL148313   7.409   3.290   5.594
 3766POPC   GL248314   7.341   3.635   5.801
 3766POPC   C1A48315   7.566   3.299   6.077
 3766POPC   D2A48316   7.355   3.440   6.477
 3766POPC   C3A48317   7.519   3.345   6.883
 3766POPC   C4A48318   7.353   3.427   7.292
 3766POPC   C1B48319   7.347   3.872   6.171
 3766POPC   C2B48320   7.584   3.989   6.534
 3766POPC   C3B48321   7.482   3.852   6.945
 3766POPC   C4B48322   7.494   3.944   7.365
 3767POPC   NC348323  23.630  31.970   5.313
 3767POPC   PO448324  24.057  32.391   5.693
 3767POPC   GL148325  23.620  32.233   5.778
 3767POPC   GL248326  23.320  32.441   5.829
 3767POPC   C1A48327  23.537  32.138   6.202
 3767POPC   D2A48328  23.836  32.310   6.509
 3767POPC   C3A48329  23.753  32.161   6.917
 3767POPC   C4A48330  23.860  32.357   7.292
 3767POPC   C1B48331  23.450  32.636   6.254
 3767POPC   C2B48332  23.366  32.421   6.651
 3767POPC   C3B48333  23.374  32.497   7.058
 3767POPC   C4B48334  23.381  32.242   7.370
 3768POPC   NC348335  11.449  36.923   5.307
 3768POPC   PO448336  10.894  37.063   5.801
 3768POPC   GL148337  11.325  37.003   5.779
 3768POPC   GL248338  11.609  37.238   5.715
 3768POPC   C1A48339  11.579  36.795   6.043
 3768POPC   D2A48340  11.457  36.911   6.455
 3768POPC   C3A48341  11.486  36.708   6.827
 3768POPC   C4A48342  11.226  36.659   7.150
 3768POPC   C1B48343  11.637  37.342   6.165
 3768POPC   C2B48344  11.460  37.409   6.599
 3768POPC   C3B48345  11.317  37.190   6.965
 3768POPC   C4B48346  11.487  37.128   7.357
 3769POPC   NC348347   2.451  39.330   5.401
 3769POPC   PO448348   3.102  39.153   5.349
 3769POPC   GL148349   2.964  39.214   5.828
 3769POPC   GL248350   2.652  39.418   5.869
 3769POPC   C1A48351   2.909  39.354   6.321
 3769POPC   D2A48352   2.697  39.319   6.757
 3769POPC   C3A48353   2.870  39.335   7.173
 3769POPC   C4A48354   3.063  39.475   7.581
 3769POPC   C1B48355   2.570  39.037   6.127
 3769POPC   C2B48356   2.679  38.843   6.566
 3769POPC   C3B48357   2.567  38.871   7.015
 3769POPC   C4B48358   2.379  39.195   7.244
 3770POPC   NC348359  10.960   6.103   5.341
 3770POPC   PO448360  11.594   5.938   5.464
 3770POPC   GL148361  11.298   5.769   5.744
 3770POPC   GL248362  11.527   5.502   5.869
 3770POPC   C1A48363  11.148   5.750   6.143
 3770POPC   D2A48364  11.352   5.867   6.527
 3770POPC   C3A48365  11.151   5.896   6.917
 3770POPC   C4A48366  11.275   5.943   7.321
 3770POPC   C1B48367  11.427   5.366   6.315
 3770POPC   C2B48368  11.423   5.404   6.743
 3770POPC   C3B48369  11.550   5.554   7.123
 3770POPC   C4B48370  11.439   5.501   7.553
 3771POPC   NC348371  11.079  19.932   5.576
 3771POPC   PO448372  10.449  19.844   5.353
 3771POPC   GL148373  10.547  20.006   5.746
 3771POPC   GL248374  10.597  19.708   5.946
 3771POPC   C1A48375  10.553  20.157   6.190
 3771POPC   D2A48376  10.733  19.964   6.546
 3771POPC   C3A48377  10.640  20.175   6.924
 3771POPC   C4A48378  10.525  19.929   7.278
 3771POPC   C1B48379  10.638  19.468   6.332
 3771POPC   C2B48380  10.542  19.495   6.768
 3771POPC   C3B48381  10.542  19.391   7.185
 3771POPC   C4B48382  10.586  19.517   7.602
 3772POPC   NC348383  17.251  41.404   5.476
 3772POPC   PO448384  17.766  41.770   5.326
 3772POPC   GL148385  17.530  41.863   5.744
 3772POPC   GL248386  17.317  41.592   5.953
 3772POPC   C1A48387  17.440  42.021   6.196
 3772POPC   D2A48388  17.199  41.820   6.545
 3772POPC   C3A48389  17.472  41.689   6.864
 3772POPC   C4A48390  17.372  41.735   7.280
 3772POPC   C1B48391  17.248  41.319   6.352
 3772POPC   C2B48392  17.461  41.161   6.753
 3772POPC   C3B48393  17.529  41.273   7.196
 3772POPC   C4B48394  17.191  41.298   7.537
 3773POPC   NC348395   0.723  33.386   5.182
 3773POPC   PO448396   0.346  33.998   5.069
 3773POPC   GL148397   0.381  33.734   5.508
 3773POPC   GL248398   0.724  33.729   5.666
 3773POPC   C1A48399   0.292  33.745   6.012
 3773POPC   D2A48400   0.471  33.905   6.417
 3773POPC   C3A48401   0.361  33.789   6.814
 3773POPC   C4A48402   0.238  34.080   7.114
 3773POPC   C1B48403   0.717  33.461   6.070
 3773POPC   C2B48404   0.673  33.419   6.533
 3773POPC   C3B48405   0.781  33.528   6.946
 3773POPC   C4B48406   0.852  33.416   7.332
 3774POPC   NC348407  13.099  33.622   5.490
 3774POPC   PO448408  12.385  33.685   5.431
 3774POPC   GL148409  12.648  33.634   5.780
 3774POPC   GL248410  12.683  33.985   5.876
 3774POPC   C1A48411  12.900  33.495   6.138
 3774POPC   D2A48412  13.043  33.399   6.567
 3774POPC   C3A48413  12.723  33.515   6.879
 3774POPC   C4A48414  12.894  33.720   7.208
 3774POPC   C1B48415  12.919  33.981   6.272
 3774POPC   C2B48416  13.025  33.911   6.707
 3774POPC   C3B48417  13.046  34.197   7.041
 3774POPC   C4B48418  12.979  34.131   7.496
 3775POPC   NC348419  44.389  25.511   5.340
 3775POPC   PO448420  44.684  24.991   5.613
 3775POPC   GL148421  44.684  25.399   5.801
 3775POPC   GL248422  44.660  25.183   6.087
 3775POPC   C1A48423  44.794  25.636   6.188
 3775POPC   D2A48424  44.557  25.506   6.536
 3775POPC   C3A48425  44.645  25.622   6.950
 3775POPC   C4A48426  44.350  25.661   7.275
 3775POPC   C1B48427  44.531  24.992   6.447
 3775POPC   C2B48428  44.595  25.100   6.860
 3775POPC   C3B48429  44.514  25.171   7.281
 3775POPC   C4B48430  44.492  24.918   7.617
 3776POPC   NC348431  24.267  17.620   5.198
 3776POPC   PO448432  24.461  17.073   5.442
 3776POPC   GL148433  24.441  17.432   5.760
 3776POPC   GL248434  24.260  17.762   5.698
 3776POPC   C1A48435  24.488  17.480   6.227
 3776POPC   D2A48436  24.681  17.269   6.620
 3776POPC   C3A48437  24.398  17.200   6.974
 3776POPC   C4A48438  24.445  17.230   7.405
 3776POPC   C1B48439  24.279  17.930   6.128
 3776POPC   C2B48440  24.155  17.785   6.545
 3776POPC   C3B48441  24.094  17.689   6.986
 3776POPC   C4B48442  24.321  17.711   7.381
 3777POPC   NC348443  23.777  41.841   5.388
 3777POPC   PO448444  23.584  41.181   5.496
 3777POPC   GL148445  23.801  41.497   5.787
 3777POPC   GL248446  24.022  41.821   5.829
 3777POPC   C1A48447  23.722  41.623   6.226
 3777POPC   D2A48448  23.864  41.532   6.658
 3777POPC   C3A48449  23.506  41.615   6.965
 3777POPC   C4A48450  23.312  41.550   7.381
 3777POPC   C1B48451  23.917  42.088   6.193
 3777POPC   C2B48452  23.742  42.019   6.585
 3777POPC   C3B48453  23.868  41.952   7.001
 3777POPC   C4B48454  23.588  41.988   7.355
 3778POPC   NC348455  17.689  43.942   5.562
 3778POPC   PO448456  17.274  43.469   5.520
 3778POPC   GL148457  17.401  43.674   5.899
 3778POPC   GL248458  17.754  43.686   6.012
 3778POPC   C1A48459  17.308  43.978   6.208
 3778POPC   D2A48460  17.023  43.983   6.538
 3778POPC   C3A48461  17.232  43.956   6.919
 3778POPC   C4A48462  17.312  43.816   7.337
 3778POPC   C1B48463  17.816  44.077   6.226
 3778POPC   C2B48464  17.644  44.106   6.634
 3778POPC   C3B48465  17.743  43.911   7.009
 3778POPC   C4B48466  17.854  43.904   7.424
 3779POPC   NC348467  41.161  35.040   5.514
 3779POPC   PO448468  41.855  35.113   5.511
 3779POPC   GL148469  41.718  35.157   5.916
 3779POPC   GL248470  41.407  35.315   5.874
 3779POPC   C1A48471  41.654  35.322   6.335
 3779POPC   D2A48472  41.557  35.711   6.577
 3779POPC   C3A48473  41.725  35.616   6.942
 3779POPC   C4A48474  41.630  35.196   7.084
 3779POPC   C1B48475  41.198  35.525   6.197
 3779POPC   C2B48476  41.203  35.341   6.591
 3779POPC   C3B48477  41.222  35.548   6.954
 3779POPC   C4B48478  40.938  35.592   7.230
 3780POPC   NC348479   8.006  10.949   5.523
 3780POPC   PO448480   8.143  11.582   5.409
 3780POPC   GL148481   8.244  11.402   5.803
 3780POPC   GL248482   8.416  11.117   5.832
 3780POPC   C1A48483   8.015  11.255   6.186
 3780POPC   D2A48484   7.978  11.430   6.601
 3780POPC   C3A48485   7.996  11.171   6.972
 3780POPC   C4A48486   7.740  10.954   7.266
 3780POPC   C1B48487   8.509  11.243   6.225
 3780POPC   C2B48488   8.358  11.066   6.593
 3780POPC   C3B48489   8.519  10.978   6.985
 3780POPC   C4B48490   8.300  10.939   7.362
 3781POPC   NC348491  23.210  43.226   5.463
 3781POPC   PO448492  22.670  42.834   5.446
 3781POPC   GL148493  22.843  43.038   5.791
 3781POPC   GL248494  22.786  43.369   5.850
 3781POPC   C1A48495  22.734  43.034   6.227
 3781POPC   D2A48496  22.612  42.770   6.543
 3781POPC   C3A48497  22.801  42.893   6.923
 3781POPC   C4A48498  22.649  42.813   7.311
 3781POPC   C1B48499  22.955  43.517   6.250
 3781POPC   C2B48500  23.318  43.397   6.548
 3781POPC   C3B48501  23.281  43.305   6.995
 3781POPC   C4B48502  22.928  43.261   7.263
 3782POPC   NC348503  29.734  35.934   5.390
 3782POPC   PO448504  29.671  36.581   5.529
 3782POPC   GL148505  29.820  36.330   5.924
 3782POPC   GL248506  29.833  35.995   5.878
 3782POPC   C1A48507  29.851  36.201   6.381
 3782POPC   D2A48508  29.624  36.436   6.724
 3782POPC   C3A48509  29.635  36.278   7.133
 3782POPC   C4A48510  29.894  36.157   7.455
 3782POPC   C1B48511  30.150  35.814   6.137
 3782POPC   C2B48512  30.201  35.832   6.571
 3782POPC   C3B48513  30.008  36.010   6.910
 3782POPC   C4B48514  30.209  35.833   7.247
 3783POPC   NC348515   5.179  28.467   5.397
 3783POPC   PO448516   4.540  28.468   5.351
 3783POPC   GL148517   4.778  28.425   5.744
 3783POPC   GL248518   5.071  28.618   5.876
 3783POPC   C1A48519   4.837  28.294   6.199
 3783POPC   D2A48520   5.054  28.463   6.587
 3783POPC   C3A48521   5.059  28.267   7.015
 3783POPC   C4A48522   5.119  28.414   7.445
 3783POPC   C1B48523   5.322  28.240   6.041
 3783POPC   C2B48524   5.406  28.060   6.447
 3783POPC   C3B48525   5.530  28.149   6.858
 3783POPC   C4B48526   5.422  27.966   7.256
 3784POPC   NC348527  27.534  12.631   5.451
 3784POPC   PO448528  27.361  13.354   5.473
 3784POPC   GL148529  27.430  13.031   5.807
 3784POPC   GL248530  27.726  12.816   5.879
 3784POPC   C1A48531  27.371  12.841   6.226
 3784POPC   D2A48532  27.641  12.941   6.555
 3784POPC   C3A48533  27.474  12.877   6.912
 3784POPC   C4A48534  27.640  13.018   7.258
 3784POPC   C1B48535  27.914  13.105   6.152
 3784POPC   C2B48536  28.146  12.975   6.528
 3784POPC   C3B48537  27.999  12.759   6.913
 3784POPC   C4B48538  27.820  12.514   7.232
 3785POPC   NC348539  31.279  21.681   5.314
 3785POPC   PO448540  31.926  21.483   5.355
 3785POPC   GL148541  31.696  21.383   5.746
 3785POPC   GL248542  31.352  21.233   5.641
 3785POPC   C1A48543  31.707  21.534   6.201
 3785POPC   D2A48544  31.636  21.390   6.645
 3785POPC   C3A48545  31.744  21.491   7.087
 3785POPC   C4A48546  31.697  21.338   7.524
 3785POPC   C1B48547  31.212  21.421   6.041
 3785POPC   C2B48548  31.201  21.573   6.466
 3785POPC   C3B48549  31.262  21.576   6.921
 3785POPC   C4B48550  31.306  21.197   7.214
 3786POPC   NC348551  30.388  29.185   5.358
 3786POPC   PO448552  30.974  28.898   5.391
 3786POPC   GL148553  30.682  28.926   5.762
 3786POPC   GL248554  30.607  29.309   5.813
 3786POPC   C1A48555  30.585  29.004   6.227
 3786POPC   D2A48556  30.392  29.284   6.573
 3786POPC   C3A48557  30.508  29.234   7.010
 3786POPC   C4A48558  30.871  29.000   7.105
 3786POPC   C1B48559  30.693  29.510   6.234
 3786POPC   C2B48560  30.916  29.301   6.612
 3786POPC   C3B48561  31.072  29.478   7.020
 3786POPC   C4B48562  30.839  29.544   7.413
 3787POPC   NC348563  32.933  25.420   5.121
 3787POPC   PO448564  32.915  24.790   5.372
 3787POPC   GL148565  32.962  25.178   5.625
 3787POPC   GL248566  33.219  25.457   5.537
 3787POPC   C1A48567  32.826  25.187   6.062
 3787POPC   D2A48568  32.793  25.013   6.491
 3787POPC   C3A48569  32.706  25.219   6.862
 3787POPC   C4A48570  32.859  25.280   7.268
 3787POPC   C1B48571  33.214  25.509   5.956
 3787POPC   C2B48572  33.196  25.377   6.392
 3787POPC   C3B48573  33.204  25.387   6.847
 3787POPC   C4B48574  33.366  25.358   7.264
 3788POPC   NC348575   8.293  31.663   5.352
 3788POPC   PO448576   7.940  31.083   5.537
 3788POPC   GL148577   8.277  31.313   5.777
 3788POPC   GL248578   8.576  31.116   5.911
 3788POPC   C1A48579   8.329  31.567   6.156
 3788POPC   D2A48580   8.032  31.756   6.447
 3788POPC   C3A48581   8.103  31.751   6.880
 3788POPC   C4A48582   7.887  31.885   7.258
 3788POPC   C1B48583   8.287  31.060   6.261
 3788POPC   C2B48584   8.419  31.221   6.654
 3788POPC   C3B48585   8.428  31.130   7.071
 3788POPC   C4B48586   8.085  31.141   7.413
 3789POPC   NC348587  26.759  26.286   5.456
 3789POPC   PO448588  26.540  25.681   5.182
 3789POPC   GL148589  26.536  25.809   5.720
 3789POPC   GL248590  26.798  26.063   5.918
 3789POPC   C1A48591  26.653  25.685   6.179
 3789POPC   D2A48592  26.846  25.947   6.468
 3789POPC   C3A48593  26.818  25.809   6.847
 3789POPC   C4A48594  26.664  25.751   7.234
 3789POPC   C1B48595  27.152  26.266   6.168
 3789POPC   C2B48596  27.088  26.380   6.591
 3789POPC   C3B48597  27.234  26.279   6.957
 3789POPC   C4B48598  27.058  26.143   7.320
 3790POPC   NC348599  11.089  20.877   5.598
 3790POPC   PO448600  11.361  20.255   5.332
 3790POPC   GL148601  11.263  20.411   5.773
 3790POPC   GL248602  11.536  20.664   5.817
 3790POPC   C1A48603  11.283  20.521   6.252
 3790POPC   D2A48604  11.561  20.463   6.652
 3790POPC   C3A48605  11.230  20.520   6.981
 3790POPC   C4A48606  10.835  20.577   7.249
 3790POPC   C1B48607  11.668  20.844   6.224
 3790POPC   C2B48608  11.458  20.958   6.633
 3790POPC   C3B48609  11.547  20.896   7.086
 3790POPC   C4B48610  11.247  20.812   7.423
 3791POPC   NC348611  17.143  31.492   5.529
 3791POPC   PO448612  17.816  31.501   5.641
 3791POPC   GL148613  17.478  31.659   5.873
 3791POPC   GL248614  17.258  31.362   5.995
 3791POPC   C1A48615  17.200  31.886   6.121
 3791POPC   D2A48616  17.089  31.676   6.466
 3791POPC   C3A48617  17.162  31.744   6.898
 3791POPC   C4A48618  17.395  31.424   7.137
 3791POPC   C1B48619  17.393  31.261   6.386
 3791POPC   C2B48620  17.753  31.356   6.635
 3791POPC   C3B48621  18.029  31.251   6.955
 3791POPC   C4B48622  17.878  31.473   7.279
 3792POPC   NC348623  25.279   2.866   5.258
 3792POPC   PO448624  25.135   2.223   5.455
 3792POPC   GL148625  25.406   2.600   5.678
 3792POPC   GL248626  25.138   2.820   5.747
 3792POPC   C1A48627  25.522   2.898   6.055
 3792POPC   D2A48628  25.355   2.839   6.491
 3792POPC   C3A48629  25.318   3.079   6.880
 3792POPC   C4A48630  25.583   3.238   7.228
 3792POPC   C1B48631  25.191   2.483   6.111
 3792POPC   C2B48632  25.021   2.463   6.513
 3792POPC   C3B48633  25.126   2.470   6.932
 3792POPC   C4B48634  24.799   2.341   7.221
 3793POPC   NC348635  18.837   5.715   5.372
 3793POPC   PO448636  19.235   6.229   5.285
 3793POPC   GL148637  19.084   6.039   5.703
 3793POPC   GL248638  19.153   5.718   5.824
 3793POPC   C1A48639  19.129   6.044   6.212
 3793POPC   D2A48640  19.287   6.085   6.639
 3793POPC   C3A48641  19.066   5.991   7.019
 3793POPC   C4A48642  19.113   5.674   7.327
 3793POPC   C1B48643  19.020   5.541   6.254
 3793POPC   C2B48644  18.976   5.605   6.709
 3793POPC   C3B48645  18.810   5.366   7.069
 3793POPC   C4B48646  18.789   5.342   7.553
 3794POPC   NC348647  38.272  37.558   5.402
 3794POPC   PO448648  38.683  38.020   5.393
 3794POPC   GL148649  38.653  37.773   5.773
 3794POPC   GL248650  38.312  37.773   5.895
 3794POPC   C1A48651  38.705  37.601   6.223
 3794POPC   D2A48652  38.507  37.758   6.619
 3794POPC   C3A48653  38.426  37.693   7.061
 3794POPC   C4A48654  38.131  37.643   7.416
 3794POPC   C1B48655  38.121  37.888   6.319
 3794POPC   C2B48656  38.051  37.954   6.806
 3794POPC   C3B48657  38.123  38.127   7.266
 3794POPC   C4B48658  38.033  38.060   7.732
 3795POPC   NC348659  15.914  17.717   5.659
 3795POPC   PO448660  15.608  17.179   5.406
 3795POPC   GL148661  15.843  17.191   5.815
 3795POPC   GL248662  16.203  17.245   5.734
 3795POPC   C1A48663  15.726  17.376   6.248
 3795POPC   D2A48664  15.741  17.744   6.542
 3795POPC   C3A48665  15.806  17.622   6.977
 3795POPC   C4A48666  15.656  17.793   7.350
 3795POPC   C1B48667  16.244  17.361   6.171
 3795POPC   C2B48668  16.119  17.385   6.607
 3795POPC   C3B48669  16.319  17.529   6.976
 3795POPC   C4B48670  16.378  17.573   7.367
 3796POPC   NC348671   3.218   6.884   5.408
 3796POPC   PO448672   3.588   6.411   5.574
 3796POPC   GL148673   3.322   6.388   5.900
 3796POPC   GL248674   3.331   6.761   5.918
 3796POPC   C1A48675   3.329   6.433   6.341
 3796POPC   D2A48676   3.364   6.739   6.643
 3796POPC   C3A48677   3.575   6.615   6.992
 3796POPC   C4A48678   3.895   6.774   7.223
 3796POPC   C1B48679   3.038   6.887   6.246
 3796POPC   C2B48680   2.928   6.996   6.685
 3796POPC   C3B48681   3.163   6.953   7.099
 3796POPC   C4B48682   3.366   6.730   7.453
 3797POPC   NC348683  31.833   0.036   5.461
 3797POPC   PO448684  31.364   0.538   5.332
 3797POPC   GL148685  31.472   0.470   5.780
 3797POPC   GL248686  31.662   0.185   5.897
 3797POPC   C1A48687  31.322   0.495   6.222
 3797POPC   D2A48688  31.055   0.585   6.583
 3797POPC   C3A48689  31.270   0.516   6.963
 3797POPC   C4A48690  31.547   0.606   7.309
 3797POPC   C1B48691  31.791   0.299   6.255
 3797POPC   C2B48692  31.596   0.224   6.645
 3797POPC   C3B48693  31.616   0.137   7.072
 3797POPC   C4B48694  31.962   0.292   7.267
 3798POPC   NC348695   7.303  35.759   5.405
 3798POPC   PO448696   7.594  35.149   5.408
 3798POPC   GL148697   7.456  35.208   5.878
 3798POPC   GL248698   7.341  34.887   5.927
 3798POPC   C1A48699   7.358  35.126   6.363
 3798POPC   D2A48700   7.468  34.867   6.705
 3798POPC   C3A48701   7.435  35.180   6.946
 3798POPC   C4A48702   7.426  35.485   7.228
 3798POPC   C1B48703   6.937  35.139   6.075
 3798POPC   C2B48704   6.867  35.299   6.515
 3798POPC   C3B48705   6.938  35.214   6.979
 3798POPC   C4B48706   6.970  35.297   7.450
 3799POPC   NC348707  10.740  33.292   5.342
 3799POPC   PO448708  10.320  32.815   5.202
 3799POPC   GL148709  10.425  32.975   5.661
 3799POPC   GL248710  10.795  32.926   5.738
 3799POPC   C1A48711  10.475  33.016   6.146
 3799POPC   D2A48712  10.262  33.107   6.543
 3799POPC   C3A48713  10.390  32.938   6.939
 3799POPC   C4A48714  10.234  33.105   7.328
 3799POPC   C1B48715  10.970  33.124   6.134
 3799POPC   C2B48716  10.871  33.181   6.571
 3799POPC   C3B48717  10.862  33.194   7.011
 3799POPC   C4B48718  10.799  32.834   7.274
 3800POPC   NC348719   2.239  15.027   5.112
 3800POPC   PO448720   1.679  15.452   5.394
 3800POPC   GL148721   1.781  15.214   5.833
 3800POPC   GL248722   2.059  14.921   5.841
 3800POPC   C1A48723   1.928  15.212   6.261
 3800POPC   D2A48724   1.849  14.935   6.597
 3800POPC   C3A48725   1.768  15.110   6.996
 3800POPC   C4A48726   1.977  15.449   7.180
 3800POPC   C1B48727   2.308  14.861   6.171
 3800POPC   C2B48728   2.428  14.927   6.569
 3800POPC   C3B48729   2.275  15.106   6.912
 3800POPC   C4B48730   2.217  14.959   7.297
 3801POPC   NC348731  30.461   8.857   4.911
 3801POPC   PO448732  30.339   9.251   5.376
 3801POPC   GL148733  30.112   9.082   5.719
 3801POPC   GL248734  29.934   9.369   5.836
 3801POPC   C1A48735  30.142   8.995   6.182
 3801POPC   D2A48736  30.279   8.900   6.624
 3801POPC   C3A48737  29.971   8.939   6.952
 3801POPC   C4A48738  29.852   9.028   7.386
 3801POPC   C1B48739  29.652   9.167   6.183
 3801POPC   C2B48740  29.569   8.953   6.613
 3801POPC   C3B48741  29.512   9.172   7.010
 3801POPC   C4B48742  29.522   9.585   7.230
 3802POPC   NC348743   2.257  35.136   5.689
 3802POPC   PO448744   2.008  35.648   5.342
 3802POPC   GL148745   1.955  35.564   5.796
 3802POPC   GL248746   1.641  35.409   5.865
 3802POPC   C1A48747   2.043  35.456   6.257
 3802POPC   D2A48748   2.303  35.258   6.596
 3802POPC   C3A48749   2.225  35.445   6.992
 3802POPC   C4A48750   2.224  35.339   7.431
 3802POPC   C1B48751   1.636  35.123   6.229
 3802POPC   C2B48752   1.788  35.120   6.679
 3802POPC   C3B48753   1.776  35.232   7.143
 3802POPC   C4B48754   1.623  35.070   7.546
 3803POPC   NC348755  23.725  33.716   5.237
 3803POPC   PO448756  24.155  34.234   5.212
 3803POPC   GL148757  23.838  34.041   5.629
 3803POPC   GL248758  23.600  33.761   5.751
 3803POPC   C1A48759  23.870  33.997   6.105
 3803POPC   D2A48760  23.959  33.823   6.510
 3803POPC   C3A48761  23.794  34.001   6.879
 3803POPC   C4A48762  23.780  33.812   7.274
 3803POPC   C1B48763  23.602  33.554   6.184
 3803POPC   C2B48764  23.527  33.573   6.655
 3803POPC   C3B48765  23.541  33.378   7.073
 3803POPC   C4B48766  23.426  33.525   7.512
 3804POPC   NC348767  35.713   3.077   5.404
 3804POPC   PO448768  36.307   2.650   5.472
 3804POPC   GL148769  36.217   2.895   5.785
 3804POPC   GL248770  35.882   2.846   5.821
 3804POPC   C1A48771  36.185   2.906   6.222
 3804POPC   D2A48772  35.873   2.923   6.510
 3804POPC   C3A48773  36.148   2.774   6.790
 3804POPC   C4A48774  36.091   2.837   7.215
 3804POPC   C1B48775  35.770   2.560   6.142
 3804POPC   C2B48776  35.874   2.367   6.548
 3804POPC   C3B48777  35.861   2.431   7.011
 3804POPC   C4B48778  35.948   2.462   7.527
 3805POPC   NC348779  30.763  13.949   5.545
 3805POPC   PO448780  30.803  13.324   5.351
 3805POPC   GL148781  30.529  13.515   5.714
 3805POPC   GL248782  30.242  13.785   5.687
 3805POPC   C1A48783  30.558  13.751   6.141
 3805POPC   D2A48784  30.857  13.671   6.474
 3805POPC   C3A48785  30.754  13.643   6.919
 3805POPC   C4A48786  30.724  13.721   7.381
 3805POPC   C1B48787  30.126  13.494   6.045
 3805POPC   C2B48788  30.307  13.375   6.424
 3805POPC   C3B48789  30.237  13.524   6.826
 3805POPC   C4B48790  30.423  13.353   7.181
 3806POPC   NC348791  44.125  19.590   5.562
 3806POPC   PO448792  44.601  19.229   5.307
 3806POPC   GL148793  44.631  18.985   5.749
 3806POPC   GL248794  44.397  18.694   5.833
 3806POPC   C1A48795  44.757  19.069   6.204
 3806POPC   D2A48796  44.689  19.233   6.653
 3806POPC   C3A48797  44.962  19.157   7.007
 3806POPC   C4A48798  44.888  19.002   7.403
 3806POPC   C1B48799  44.309  18.843   6.278
 3806POPC   C2B48800  44.258  18.958   6.713
 3806POPC   C3B48801  44.548  18.838   7.020
 3806POPC   C4B48802  44.436  18.795   7.471
 3807POPC   NC348803  10.938   2.713   5.398
 3807POPC   PO448804  11.425   3.154   5.213
 3807POPC   GL148805  11.330   3.045   5.672
 3807POPC   GL248806  11.582   2.839   5.846
 3807POPC   C1A48807  11.136   2.861   6.082
 3807POPC   D2A48808  11.120   2.917   6.536
 3807POPC   C3A48809  11.389   2.700   6.835
 3807POPC   C4A48810  11.285   2.745   7.260
 3807POPC   C1B48811  11.634   2.937   6.313
 3807POPC   C2B48812  11.805   3.027   6.739
 3807POPC   C3B48813  11.721   2.994   7.203
 3807POPC   C4B48814  11.467   3.036   7.633
 3808POPC   NC348815   6.197  15.720   5.530
 3808POPC   PO448816   5.519  15.887   5.378
 3808POPC   GL148817   5.637  15.778   5.802
 3808POPC   GL248818   5.656  16.133   5.905
 3808POPC   C1A48819   5.942  15.788   6.163
 3808POPC   D2A48820   5.925  16.031   6.547
 3808POPC   C3A48821   6.127  15.891   6.905
 3808POPC   C4A48822   6.236  16.044   7.278
 3808POPC   C1B48823   5.475  15.982   6.292
 3808POPC   C2B48824   5.588  15.640   6.554
 3808POPC   C3B48825   5.579  15.749   6.967
 3808POPC   C4B48826   5.651  16.115   7.216
 3809POPC   NC348827  29.761  22.824   5.414
 3809POPC   PO448828  30.250  23.201   5.735
 3809POPC   GL148829  30.044  22.816   5.863
 3809POPC   GL248830  29.670  22.749   5.919
 3809POPC   C1A48831  30.013  22.791   6.311
 3809POPC   D2A48832  29.708  22.876   6.607
 3809POPC   C3A48833  29.939  22.882   6.968
 3809POPC   C4A48834  30.039  22.717   7.343
 3809POPC   C1B48835  29.729  23.169   6.148
 3809POPC   C2B48836  29.913  23.347   6.510
 3809POPC   C3B48837  29.734  23.364   6.892
 3809POPC   C4B48838  29.989  23.314   7.251
 3810POPC   NC348839  35.027  31.686   5.487
 3810POPC   PO448840  35.558  32.156   5.470
 3810POPC   GL148841  35.406  32.369   5.790
 3810POPC   GL248842  35.636  32.569   5.819
 3810POPC   C1A48843  35.306  32.277   6.187
 3810POPC   D2A48844  35.534  32.198   6.532
 3810POPC   C3A48845  35.330  32.063   6.893
 3810POPC   C4A48846  35.149  32.275   7.205
 3810POPC   C1B48847  35.828  32.515   6.197
 3810POPC   C2B48848  35.875  32.620   6.624
 3810POPC   C3B48849  35.553  32.528   6.912
 3810POPC   C4B48850  35.676  32.272   7.251
 3811POPC   NC348851  13.776  37.985   5.459
 3811POPC   PO448852  13.302  37.521   5.406
 3811POPC   GL148853  13.607  37.355   5.748
 3811POPC   GL248854  13.693  37.677   5.850
 3811POPC   C1A48855  13.698  37.364   6.238
 3811POPC   D2A48856  13.494  37.600   6.618
 3811POPC   C3A48857  13.673  37.493   7.014
 3811POPC   C4A48858  13.618  37.618   7.445
 3811POPC   C1B48859  13.716  37.887   6.257
 3811POPC   C2B48860  13.906  37.897   6.694
 3811POPC   C3B48861  13.907  37.936   7.145
 3811POPC   C4B48862  14.061  37.838   7.561
 3812POPC   NC348863  26.216  28.315   5.347
 3812POPC   PO448864  25.622  28.736   5.300
 3812POPC   GL148865  25.884  28.540   5.655
 3812POPC   GL248866  25.897  28.155   5.744
 3812POPC   C1A48867  26.115  28.617   6.048
 3812POPC   D2A48868  25.948  28.670   6.481
 3812POPC   C3A48869  26.074  28.376   6.828
 3812POPC   C4A48870  26.168  28.510   7.273
 3812POPC   C1B48871  26.155  28.116   6.139
 3812POPC   C2B48872  26.455  28.172   6.485
 3812POPC   C3B48873  26.523  28.065   6.902
 3812POPC   C4B48874  26.331  28.016   7.297
 3813POPC   NC348875  42.302  24.948   5.546
 3813POPC   PO448876  42.641  25.510   5.467
 3813POPC   GL148877  42.450  25.357   5.837
 3813POPC   GL248878  42.573  25.055   5.996
 3813POPC   C1A48879  42.153  25.440   6.150
 3813POPC   D2A48880  42.005  25.352   6.536
 3813POPC   C3A48881  42.296  25.312   6.859
 3813POPC   C4A48882  42.145  25.378   7.258
 3813POPC   C1B48883  42.150  24.928   6.211
 3813POPC   C2B48884  41.972  24.848   6.632
 3813POPC   C3B48885  42.058  24.899   7.083
 3813POPC   C4B48886  42.275  24.617   7.396
 3814POPC   NC348887  19.162  17.505   5.264
 3814POPC   PO448888  18.473  17.488   5.423
 3814POPC   GL148889  18.854  17.587   5.690
 3814POPC   GL248890  19.214  17.510   5.771
 3814POPC   C1A48891  18.875  17.616   6.155
 3814POPC   D2A48892  18.966  17.403   6.567
 3814POPC   C3A48893  18.818  17.590   6.945
 3814POPC   C4A48894  18.720  17.649   7.361
 3814POPC   C1B48895  19.390  17.522   6.204
 3814POPC   C2B48896  19.464  17.197   6.541
 3814POPC   C3B48897  19.402  17.242   6.985
 3814POPC   C4B48898  19.306  17.600   7.196
 3815POPC   NC348899  13.028   3.941   5.416
 3815POPC   PO448900  12.593   4.466   5.316
 3815POPC   GL148901  12.656   4.180   5.661
 3815POPC   GL248902  12.952   4.295   5.796
 3815POPC   C1A48903  12.573   4.140   6.118
 3815POPC   D2A48904  12.403   4.001   6.510
 3815POPC   C3A48905  12.592   4.089   6.880
 3815POPC   C4A48906  12.788   4.295   7.160
 3815POPC   C1B48907  13.084   4.165   6.211
 3815POPC   C2B48908  13.229   4.217   6.634
 3815POPC   C3B48909  13.246   3.919   6.942
 3815POPC   C4B48910  13.101   3.973   7.360
 3816POPC   NC348911  35.140  24.541   5.317
 3816POPC   PO448912  35.683  24.371   5.653
 3816POPC   GL148913  35.513  24.515   6.007
 3816POPC   GL248914  35.182  24.580   5.893
 3816POPC   C1A48915  35.598  24.282   6.378
 3816POPC   D2A48916  35.766  24.440   6.757
 3816POPC   C3A48917  35.487  24.365   7.100
 3816POPC   C4A48918  35.463  24.431   7.552
 3816POPC   C1B48919  35.070  24.420   6.271
 3816POPC   C2B48920  35.244  24.565   6.638
 3816POPC   C3B48921  35.039  24.726   6.968
 3816POPC   C4B48922  35.024  24.518   7.324
 3817POPC   NC348923  13.531  42.896   5.444
 3817POPC   PO448924  13.353  43.511   5.471
 3817POPC   GL148925  13.713  43.348   5.751
 3817POPC   GL248926  13.893  43.000   5.777
 3817POPC   C1A48927  13.659  43.375   6.201
 3817POPC   D2A48928  13.744  43.669   6.542
 3817POPC   C3A48929  13.741  43.473   6.941
 3817POPC   C4A48930  13.385  43.331   7.170
 3817POPC   C1B48931  13.759  42.855   6.186
 3817POPC   C2B48932  13.738  43.045   6.610
 3817POPC   C3B48933  13.658  42.893   7.033
 3817POPC   C4B48934  13.880  42.610   7.283
 3818POPC   NC348935  35.355  19.510   5.273
 3818POPC   PO448936  35.546  20.119   5.303
 3818POPC   GL148937  35.325  19.936   5.689
 3818POPC   GL248938  35.192  19.600   5.739
 3818POPC   C1A48939  35.254  20.058   6.133
 3818POPC   D2A48940  35.352  20.183   6.558
 3818POPC   C3A48941  35.300  19.908   6.893
 3818POPC   C4A48942  35.143  20.152   7.206
 3818POPC   C1B48943  35.240  19.500   6.170
 3818POPC   C2B48944  35.056  19.581   6.578
 3818POPC   C3B48945  35.037  19.438   6.983
 3818POPC   C4B48946  35.170  19.656   7.333
 3819POPC   NC348947   6.365  13.395   5.642
 3819POPC   PO448948   6.878  13.837   5.379
 3819POPC   GL148949   6.780  13.689   5.779
 3819POPC   GL248950   6.971  13.397   5.928
 3819POPC   C1A48951   6.601  13.693   6.188
 3819POPC   D2A48952   6.747  13.771   6.583
 3819POPC   C3A48953   6.576  14.019   6.896
 3819POPC   C4A48954   6.324  13.850   7.199
 3819POPC   C1B48955   6.943  13.325   6.370
 3819POPC   C2B48956   6.904  13.344   6.820
 3819POPC   C3B48957   6.709  13.436   7.216
 3819POPC   C4B48958   6.885  13.369   7.642
 3820POPC   NC348959  18.845  22.644   5.329
 3820POPC   PO448960  19.436  22.729   5.401
 3820POPC   GL148961  19.127  22.718   5.836
 3820POPC   GL248962  18.740  22.728   5.842
 3820POPC   C1A48963  19.008  22.719   6.340
 3820POPC   D2A48964  19.213  22.916   6.729
 3820POPC   C3A48965  19.067  23.045   7.160
 3820POPC   C4A48966  19.115  23.083   7.621
 3820POPC   C1B48967  18.473  22.612   6.225
 3820POPC   C2B48968  18.479  22.751   6.679
 3820POPC   C3B48969  18.759  22.511   6.990
 3820POPC   C4B48970  18.993  22.605   7.372
 3821POPC   NC348971  40.027   0.887   5.070
 3821POPC   PO448972  39.809   0.302   5.348
 3821POPC   GL148973  39.846   0.441   5.788
 3821POPC   GL248974  40.178   0.353   5.839
 3821POPC   C1A48975  39.974   0.657   6.215
 3821POPC   D2A48976  40.221   0.708   6.625
 3821POPC   C3A48977  39.923   0.685   6.984
 3821POPC   C4A48978  39.600   0.417   7.163
 3821POPC   C1B48979  40.415   0.348   6.247
 3821POPC   C2B48980  40.523   0.272   6.684
 3821POPC   C3B48981  40.324   0.360   7.066
 3821POPC   C4B48982  40.197   0.069   7.379
 3822POPC   NC348983  10.778  30.158   5.469
 3822POPC   PO448984  10.582  29.611   5.262
 3822POPC   GL148985  10.435  29.832   5.689
 3822POPC   GL248986  10.665  30.039   5.955
 3822POPC   C1A48987  10.249  29.808   6.123
 3822POPC   D2A48988  10.464  29.926   6.517
 3822POPC   C3A48989  10.302  29.844   6.918
 3822POPC   C4A48990  10.476  29.915   7.306
 3822POPC   C1B48991  10.336  30.317   6.209
 3822POPC   C2B48992  10.190  30.348   6.641
 3822POPC   C3B48993  10.256  30.333   7.073
 3822POPC   C4B48994  10.254  30.354   7.513
 3823POPC   NC348995  30.240  13.097   5.543
 3823POPC   PO448996  30.674  12.708   5.212
 3823POPC   GL148997  30.560  12.689   5.650
 3823POPC   GL248998  30.818  12.944   5.692
 3823POPC   C1A48999  30.399  12.650   6.109
 3823POPC   D2A49000  30.334  12.828   6.565
 3823POPC   C3A49001  30.360  12.670   7.015
 3823POPC   C4A49002  30.608  12.762   7.412
 3823POPC   C1B49003  30.952  12.635   5.987
 3823POPC   C2B49004  30.825  12.755   6.380
 3823POPC   C3B49005  30.803  12.766   6.817
 3823POPC   C4B49006  30.878  13.085   7.121
 3824POPC   NC349007  30.459  39.089   5.497
 3824POPC   PO449008  30.768  39.633   5.136
 3824POPC   GL149009  30.863  39.435   5.617
 3824POPC   GL249010  30.590  39.341   5.905
 3824POPC   C1A49011  31.054  39.375   6.082
 3824POPC   D2A49012  31.128  39.092   6.472
 3824POPC   C3A49013  30.924  39.212   6.853
 3824POPC   C4A49014  30.798  39.494   7.164
 3824POPC   C1B49015  30.633  39.225   6.366
 3824POPC   C2B49016  30.386  39.203   6.762
 3824POPC   C3B49017  30.526  39.027   7.142
 3824POPC   C4B49018  30.867  38.735   7.072
 3825POPC   NC349019   9.917  24.652   5.447
 3825POPC   PO449020   9.239  24.349   5.465
 3825POPC   GL149021   9.347  24.548   5.876
 3825POPC   GL249022   9.620  24.829   5.846
 3825POPC   C1A49023   9.428  24.302   6.277
 3825POPC   D2A49024   9.467  24.242   6.711
 3825POPC   C3A49025   9.496  24.594   7.007
 3825POPC   C4A49026   9.415  24.636   7.435
 3825POPC   C1B49027   9.859  24.493   6.084
 3825POPC   C2B49028   9.915  24.440   6.551
 3825POPC   C3B49029   9.898  24.283   7.004
 3825POPC   C4B49030   9.918  24.489   7.432
 3826POPC   NC349031  30.238   6.760   5.440
 3826POPC   PO449032  29.663   6.609   5.365
 3826POPC   GL149033  29.919   6.557   5.779
 3826POPC   GL249034  29.896   6.245   5.911
 3826POPC   C1A49035  30.094   6.573   6.261
 3826POPC   D2A49036  30.157   6.911   6.637
 3826POPC   C3A49037  30.072   6.841   7.094
 3826POPC   C4A49038  30.185   6.720   7.506
 3826POPC   C1B49039  29.665   6.068   6.287
 3826POPC   C2B49040  29.502   6.175   6.704
 3826POPC   C3B49041  29.627   6.361   7.110
 3826POPC   C4B49042  30.048   6.317   7.217
 3827POPC   NC349043  19.416   3.379   5.420
 3827POPC   PO449044  18.808   3.730   5.442
 3827POPC   GL149045  18.869   3.795   5.877
 3827POPC   GL249046  19.243   3.827   5.862
 3827POPC   C1A49047  18.921   3.581   6.307
 3827POPC   D2A49048  19.226   3.392   6.622
 3827POPC   C3A49049  19.158   3.512   7.062
 3827POPC   C4A49050  19.084   3.732   7.448
 3827POPC   C1B49051  19.404   3.763   6.299
 3827POPC   C2B49052  19.284   3.896   6.718
 3827POPC   C3B49053  19.400   3.993   7.153
 3827POPC   C4B49054  19.368   4.146   7.593
 3828POPC   NC349055  10.910  36.707   5.521
 3828POPC   PO449056  10.306  37.054   5.336
 3828POPC   GL149057  10.358  36.978   5.778
 3828POPC   GL249058  10.499  36.660   5.803
 3828POPC   C1A49059  10.346  36.881   6.242
 3828POPC   D2A49060  10.262  37.054   6.645
 3828POPC   C3A49061  10.385  36.910   7.013
 3828POPC   C4A49062  10.823  36.959   7.133
 3828POPC   C1B49063  10.647  36.476   6.216
 3828POPC   C2B49064  10.621  36.631   6.658
 3828POPC   C3B49065  10.724  36.447   7.076
 3828POPC   C4B49066  10.873  36.559   7.501
 3829POPC   NC349067  30.396  21.491   4.934
 3829POPC   PO449068  30.954  21.278   5.238
 3829POPC   GL149069  30.778  21.338   5.690
 3829POPC   GL249070  30.500  21.602   5.765
 3829POPC   C1A49071  30.754  21.192   6.145
 3829POPC   D2A49072  31.038  21.052   6.497
 3829POPC   C3A49073  30.908  21.209   6.909
 3829POPC   C4A49074  30.849  21.587   7.195
 3829POPC   C1B49075  30.388  21.567   6.232
 3829POPC   C2B49076  30.391  21.210   6.567
 3829POPC   C3B49077  30.436  21.110   7.031
 3829POPC   C4B49078  30.393  21.425   7.364
 3830POPC   NC349079   1.469  17.171   5.510
 3830POPC   PO449080   1.352  17.862   5.586
 3830POPC   GL149081   1.235  17.502   5.830
 3830POPC   GL249082   0.860  17.373   5.783
 3830POPC   C1A49083   1.440  17.447   6.235
 3830POPC   D2A49084   1.464  17.720   6.620
 3830POPC   C3A49085   1.403  17.554   7.055
 3830POPC   C4A49086   1.487  17.670   7.493
 3830POPC   C1B49087   0.962  17.282   6.217
 3830POPC   C2B49088   1.145  17.282   6.646
 3830POPC   C3B49089   0.938  17.375   7.041
 3830POPC   C4B49090   1.094  17.330   7.509
 3831POPC   NC349091  20.811  43.886   5.236
 3831POPC   PO449092  20.309  43.642   5.641
 3831POPC   GL149093  20.551  43.983   5.672
 3831POPC   GL249094  20.841  43.781   5.732
 3831POPC   C1A49095  20.612  44.175   6.055
 3831POPC   D2A49096  20.507  43.938   6.439
 3831POPC   C3A49097  20.620  43.951   6.894
 3831POPC   C4A49098  20.387  43.792   7.245
 3831POPC   C1B49099  20.979  43.852   6.139
 3831POPC   C2B49100  21.074  43.935   6.556
 3831POPC   C3B49101  21.066  43.678   6.914
 3831POPC   C4B49102  20.868  43.614   7.265
 3832POPC   NC349103  13.529  39.652   5.384
 3832POPC   PO449104  13.547  38.999   5.296
 3832POPC   GL149105  13.592  39.225   5.697
 3832POPC   GL249106  13.870  39.466   5.714
 3832POPC   C1A49107  13.624  39.219   6.160
 3832POPC   D2A49108  13.316  39.118   6.504
 3832POPC   C3A49109  13.518  39.231   6.871
 3832POPC   C4A49110  13.643  39.036   7.253
 3832POPC   C1B49111  14.056  39.562   6.121
 3832POPC   C2B49112  13.918  39.425   6.540
 3832POPC   C3B49113  14.014  39.307   6.956
 3832POPC   C4B49114  14.175  39.562   7.241
 3833POPC   NC349115   6.966  11.870   5.342
 3833POPC   PO449116   6.418  12.235   5.193
 3833POPC   GL149117   6.534  12.154   5.656
 3833POPC   GL249118   6.760  11.891   5.813
 3833POPC   C1A49119   6.740  12.360   6.018
 3833POPC   D2A49120   6.666  12.422   6.451
 3833POPC   C3A49121   6.796  12.115   6.738
 3833POPC   C4A49122   6.844  12.163   7.187
 3833POPC   C1B49123   6.595  11.886   6.242
 3833POPC   C2B49124   6.579  11.633   6.620
 3833POPC   C3B49125   6.406  11.673   7.034
 3833POPC   C4B49126   6.463  11.652   7.489
 3834POPC   NC349127  16.537   9.609   5.294
 3834POPC   PO449128  17.236   9.539   5.388
 3834POPC   GL149129  16.860   9.531   5.721
 3834POPC   GL249130  16.568   9.790   5.748
 3834POPC   C1A49131  16.619   9.520   6.159
 3834POPC   D2A49132  16.682   9.808   6.531
 3834POPC   C3A49133  16.688   9.571   6.916
 3834POPC   C4A49134  16.528   9.539   7.359
 3834POPC   C1B49135  16.417  10.003   6.104
 3834POPC   C2B49136  16.481  10.301   6.419
 3834POPC   C3B49137  16.381  10.296   6.826
 3834POPC   C4B49138  16.532  10.005   7.127
 3835POPC   NC349139   7.823  38.793   5.598
 3835POPC   PO449140   8.288  38.359   5.386
 3835POPC   GL149141   8.280  38.483   5.792
 3835POPC   GL249142   8.526  38.776   5.778
 3835POPC   C1A49143   8.110  38.353   6.204
 3835POPC   D2A49144   8.004  38.584   6.568
 3835POPC   C3A49145   8.188  38.370   6.892
 3835POPC   C4A49146   7.984  38.185   7.221
 3835POPC   C1B49147   8.366  38.780   6.200
 3835POPC   C2B49148   8.520  38.687   6.594
 3835POPC   C3B49149   8.496  38.756   7.019
 3835POPC   C4B49150   8.452  38.553   7.395
 3836POPC   NC349151  35.063   4.808   5.605
 3836POPC   PO449152  35.523   5.219   5.336
 3836POPC   GL149153  35.391   5.177   5.765
 3836POPC   GL249154  35.065   5.265   5.820
 3836POPC   C1A49155  35.277   4.995   6.195
 3836POPC   D2A49156  35.175   5.219   6.555
 3836POPC   C3A49157  35.200   5.069   6.976
 3836POPC   C4A49158  34.911   4.756   7.121
 3836POPC   C1B49159  35.300   5.520   6.128
 3836POPC   C2B49160  35.215   5.727   6.513
 3836POPC   C3B49161  35.221   5.592   6.915
 3836POPC   C4B49162  35.190   5.451   7.331
 3837POPC   NC349163  34.419  21.606   5.522
 3837POPC   PO449164  34.955  21.401   5.300
 3837POPC   GL149165  34.674  21.313   5.813
 3837POPC   GL249166  34.579  21.607   5.999
 3837POPC   C1A49167  34.485  21.141   6.209
 3837POPC   D2A49168  34.323  21.415   6.560
 3837POPC   C3A49169  34.463  21.347   6.977
 3837POPC   C4A49170  34.350  21.183   7.390
 3837POPC   C1B49171  34.871  21.462   6.280
 3837POPC   C2B49172  34.821  21.179   6.616
 3837POPC   C3B49173  34.960  21.379   6.980
 3837POPC   C4B49174  34.784  21.445   7.398
 3838POPC   NC349175  40.802  31.811   5.441
 3838POPC   PO449176  40.524  31.208   5.241
 3838POPC   GL149177  40.610  31.393   5.638
 3838POPC   GL249178  40.947  31.418   5.737
 3838POPC   C1A49179  40.555  31.309   6.074
 3838POPC   D2A49180  40.501  31.512   6.451
 3838POPC   C3A49181  40.618  31.350   6.835
 3838POPC   C4A49182  40.741  31.234   7.256
 3838POPC   C1B49183  40.950  31.584   6.169
 3838POPC   C2B49184  41.069  31.573   6.596
 3838POPC   C3B49185  40.990  31.646   7.031
 3838POPC   C4B49186  40.925  31.678   7.458
 3839POPC   NC349187  17.016  25.618   5.376
 3839POPC   PO449188  16.588  26.092   5.309
 3839POPC   GL149189  16.637  26.012   5.760
 3839POPC   GL249190  16.345  25.803   5.803
 3839POPC   C1A49191  16.697  26.232   6.181
 3839POPC   D2A49192  16.953  26.399   6.552
 3839POPC   C3A49193  16.917  26.360   7.011
 3839POPC   C4A49194  16.977  26.056   7.338
 3839POPC   C1B49195  16.505  25.771   6.240
 3839POPC   C2B49196  16.502  26.022   6.641
 3839POPC   C3B49197  16.496  26.039   7.098
 3839POPC   C4B49198  16.586  25.681   7.345
 3840POPC   NC349199  16.986  21.293   5.453
 3840POPC   PO449200  16.615  21.823   5.597
 3840POPC   GL149201  16.837  21.523   5.906
 3840POPC   GL249202  17.016  21.186   5.947
 3840POPC   C1A49203  16.743  21.456   6.333
 3840POPC   D2A49204  16.431  21.574   6.631
 3840POPC   C3A49205  16.632  21.354   6.916
 3840POPC   C4A49206  16.888  21.482   7.183
 3840POPC   C1B49207  16.855  20.942   6.300
 3840POPC   C2B49208  16.914  20.859   6.752
 3840POPC   C3B49209  16.825  20.954   7.170
 3840POPC   C4B49210  16.414  21.051   7.291
 3841POPC   NC349211  30.464  23.023   5.371
 3841POPC   PO449212  31.098  22.799   5.362
 3841POPC   GL149213  30.834  22.784   5.744
 3841POPC   GL249214  30.508  22.601   5.696
 3841POPC   C1A49215  30.799  22.825   6.226
 3841POPC   D2A49216  30.693  23.017   6.671
 3841POPC   C3A49217  30.963  23.012   7.072
 3841POPC   C4A49218  31.187  23.212   7.450
 3841POPC   C1B49219  30.388  22.507   6.117
 3841POPC   C2B49220  30.430  22.556   6.571
 3841POPC   C3B49221  30.447  22.695   7.002
 3841POPC   C4B49222  30.439  23.107   7.162
 3842POPC   NC349223  40.181  34.945   5.534
 3842POPC   PO449224  39.900  34.367   5.382
 3842POPC   GL149225  39.804  34.485   5.814
 3842POPC   GL249226  39.766  34.832   5.832
 3842POPC   C1A49227  39.991  34.614   6.226
 3842POPC   D2A49228  40.138  34.371   6.559
 3842POPC   C3A49229  40.224  34.484   6.985
 3842POPC   C4A49230  39.892  34.634   7.287
 3842POPC   C1B49231  39.695  35.048   6.174
 3842POPC   C2B49232  39.865  35.024   6.541
 3842POPC   C3B49233  39.718  34.999   6.933
 3842POPC   C4B49234  39.478  34.964   7.302
 3843POPC   NC349235  13.154  41.076   5.450
 3843POPC   PO449236  12.567  40.725   5.369
 3843POPC   GL149237  12.796  40.834   5.747
 3843POPC   GL249238  13.079  40.639   5.703
 3843POPC   C1A49239  12.863  40.905   6.215
 3843POPC   D2A49240  12.637  40.695   6.580
 3843POPC   C3A49241  12.763  40.811   6.998
 3843POPC   C4A49242  12.594  40.953   7.379
 3843POPC   C1B49243  13.119  40.491   6.107
 3843POPC   C2B49244  13.143  40.551   6.572
 3843POPC   C3B49245  13.187  40.499   7.046
 3843POPC   C4B49246  12.994  40.638   7.429
 3844POPC   NC349247  36.384  40.255   5.511
 3844POPC   PO449248  36.965  39.972   5.418
 3844POPC   GL149249  37.121  40.040   5.808
 3844POPC   GL249250  37.142  40.409   5.732
 3844POPC   C1A49251  36.916  39.923   6.225
 3844POPC   D2A49252  36.773  39.896   6.687
 3844POPC   C3A49253  37.089  39.812   7.013
 3844POPC   C4A49254  37.248  39.780   7.442
 3844POPC   C1B49255  37.093  40.409   6.173
 3844POPC   C2B49256  37.148  40.225   6.562
 3844POPC   C3B49257  37.118  40.314   6.966
 3844POPC   C4B49258  36.737  40.227   7.113
 3845POPC   NC349259   6.677  21.049   5.203
 3845POPC   PO449260   6.399  20.496   5.544
 3845POPC   GL149261   6.668  20.558   5.911
 3845POPC   GL249262   6.737  20.257   6.042
 3845POPC   C1A49263   6.606  20.799   6.307
 3845POPC   D2A49264   6.706  20.643   6.699
 3845POPC   C3A49265   6.565  20.717   7.104
 3845POPC   C4A49266   6.894  20.611   7.390
 3845POPC   C1B49267   6.275  20.414   6.190
 3845POPC   C2B49268   6.167  20.541   6.585
 3845POPC   C3B49269   6.229  20.360   6.979
 3845POPC   C4B49270   6.508  20.266   7.353
 3846POPC   NC349271  19.582  19.432   5.554
 3846POPC   PO449272  19.947  20.083   5.486
 3846POPC   GL149273  19.959  19.723   5.746
 3846POPC   GL249274  19.628  19.861   5.854
 3846POPC   C1A49275  19.901  19.521   6.172
 3846POPC   D2A49276  19.935  19.796   6.546
 3846POPC   C3A49277  19.849  19.657   6.962
 3846POPC   C4A49278  20.023  19.952   7.229
 3846POPC   C1B49279  19.469  20.204   6.127
 3846POPC   C2B49280  19.347  20.065   6.540
 3846POPC   C3B49281  19.367  19.837   6.899
 3846POPC   C4B49282  19.521  19.998   7.227
 3847POPC   NC349283  39.584  32.950   5.329
 3847POPC   PO449284  39.669  33.556   5.625
 3847POPC   GL149285  39.521  33.108   5.835
 3847POPC   GL249286  39.164  32.968   5.815
 3847POPC   C1A49287  39.429  32.916   6.254
 3847POPC   D2A49288  39.653  32.879   6.662
 3847POPC   C3A49289  39.409  33.045   7.017
 3847POPC   C4A49290  39.436  33.298   7.382
 3847POPC   C1B49291  38.947  33.197   6.134
 3847POPC   C2B49292  39.044  33.241   6.586
 3847POPC   C3B49293  38.914  33.144   7.003
 3847POPC   C4B49294  38.891  32.750   7.193
 3848POPC   NC349295  37.260  25.571   5.600
 3848POPC   PO449296  37.576  25.126   5.226
 3848POPC   GL149297  37.575  25.170   5.705
 3848POPC   GL249298  37.576  24.832   5.746
 3848POPC   C1A49299  37.729  25.332   6.124
 3848POPC   D2A49300  37.503  25.355   6.540
 3848POPC   C3A49301  37.825  25.376   6.871
 3848POPC   C4A49302  37.999  25.259   7.272
 3848POPC   C1B49303  37.413  24.938   6.191
 3848POPC   C2B49304  37.271  24.913   6.645
 3848POPC   C3B49305  37.382  25.153   7.023
 3848POPC   C4B49306  37.540  24.911   7.400
 3849POPC   NC349307  20.374  20.273   5.387
 3849POPC   PO449308  20.970  20.609   5.371
 3849POPC   GL149309  20.881  20.665   5.838
 3849POPC   GL249310  20.518  20.613   5.844
 3849POPC   C1A49311  20.862  20.723   6.301
 3849POPC   D2A49312  20.735  20.489   6.679
 3849POPC   C3A49313  20.828  20.705   7.044
 3849POPC   C4A49314  20.422  20.829   7.199
 3849POPC   C1B49315  20.573  20.303   6.189
 3849POPC   C2B49316  20.379  20.137   6.598
 3849POPC   C3B49317  20.300  20.334   7.021
 3849POPC   C4B49318  20.366  20.275   7.498
 3850POPC   NC349319  43.395   8.301   5.440
 3850POPC   PO449320  42.774   8.128   5.253
 3850POPC   GL149321  42.826   8.178   5.728
 3850POPC   GL249322  43.075   8.414   5.826
 3850POPC   C1A49323  42.934   8.052   6.174
 3850POPC   D2A49324  43.044   7.876   6.601
 3850POPC   C3A49325  42.952   8.070   7.011
 3850POPC   C4A49326  43.007   7.891   7.431
 3850POPC   C1B49327  43.403   8.332   6.152
 3850POPC   C2B49328  43.566   8.171   6.566
 3850POPC   C3B49329  43.445   8.244   7.010
 3850POPC   C4B49330  43.581   8.550   7.303
 3851POPC   NC349331  20.029  28.471   5.470
 3851POPC   PO449332  19.361  28.635   5.380
 3851POPC   GL149333  19.596  28.411   5.727
 3851POPC   GL249334  19.439  28.134   5.846
 3851POPC   C1A49335  19.831  28.355   6.130
 3851POPC   D2A49336  19.971  28.104   6.497
 3851POPC   C3A49337  19.915  28.245   6.909
 3851POPC   C4A49338  19.998  28.193   7.322
 3851POPC   C1B49339  19.543  27.950   6.253
 3851POPC   C2B49340  19.529  27.851   6.704
 3851POPC   C3B49341  19.674  27.834   7.151
 3851POPC   C4B49342  19.711  27.906   7.620
 3852POPC   NC349343  35.063  27.986   5.695
 3852POPC   PO449344  35.122  27.399   5.341
 3852POPC   GL149345  35.319  27.357   5.798
 3852POPC   GL249346  35.424  27.690   5.878
 3852POPC   C1A49347  35.495  27.342   6.231
 3852POPC   D2A49348  35.354  27.496   6.615
 3852POPC   C3A49349  35.299  27.227   6.935
 3852POPC   C4A49350  35.331  27.378   7.338
 3852POPC   C1B49351  35.386  27.908   6.280
 3852POPC   C2B49352  35.606  27.948   6.674
 3852POPC   C3B49353  35.501  27.790   7.064
 3852POPC   C4B49354  35.266  27.869   7.433
 3853POPC   NC349355   7.365  33.251   5.378
 3853POPC   PO449356   7.448  32.638   5.179
 3853POPC   GL149357   7.442  32.837   5.668
 3853POPC   GL249358   7.289  33.128   5.884
 3853POPC   C1A49359   7.612  32.819   6.112
 3853POPC   D2A49360   7.454  33.058   6.435
 3853POPC   C3A49361   7.467  32.857   6.829
 3853POPC   C4A49362   7.236  33.002   7.166
 3853POPC   C1B49363   7.634  33.387   6.033
 3853POPC   C2B49364   7.687  33.509   6.475
 3853POPC   C3B49365   7.603  33.364   6.917
 3853POPC   C4B49366   7.405  33.454   7.310
 3854POPC   NC349367  10.848  20.131   5.182
 3854POPC   PO449368  11.359  19.700   5.256
 3854POPC   GL149369  11.470  19.746   5.791
 3854POPC   GL249370  11.427  19.459   5.994
 3854POPC   C1A49371  11.428  20.052   6.153
 3854POPC   D2A49372  11.223  20.092   6.597
 3854POPC   C3A49373  11.471  20.043   6.983
 3854POPC   C4A49374  11.424  19.670   7.208
 3854POPC   C1B49375  11.146  19.665   6.289
 3854POPC   C2B49376  11.067  19.558   6.673
 3854POPC   C3B49377  10.942  19.760   7.024
 3854POPC   C4B49378  11.049  20.128   7.241
 3855POPC   NC349379  22.738   2.310   5.346
 3855POPC   PO449380  23.217   1.861   5.422
 3855POPC   GL149381  22.991   1.801   5.800
 3855POPC   GL249382  22.902   2.137   5.798
 3855POPC   C1A49383  22.971   1.665   6.239
 3855POPC   D2A49384  22.921   1.893   6.620
 3855POPC   C3A49385  22.922   1.787   7.059
 3855POPC   C4A49386  23.281   1.970   7.189
 3855POPC   C1B49387  22.623   2.092   6.139
 3855POPC   C2B49388  22.623   2.301   6.527
 3855POPC   C3B49389  22.759   2.268   6.932
 3855POPC   C4B49390  22.571   2.163   7.257
 3856POPC   NC349391  15.643   1.485   5.662
 3856POPC   PO449392  16.048   1.159   5.204
 3856POPC   GL149393  16.029   1.096   5.713
 3856POPC   GL249394  15.750   1.087   5.949
 3856POPC   C1A49395  16.263   1.069   6.130
 3856POPC   D2A49396  16.377   1.137   6.592
 3856POPC   C3A49397  16.098   1.025   6.942
 3856POPC   C4A49398  16.080   1.173   7.354
 3856POPC   C1B49399  15.784   1.438   6.289
 3856POPC   C2B49400  15.550   1.440   6.680
 3856POPC   C3B49401  15.736   1.434   7.086
 3856POPC   C4B49402  15.780   1.529   7.567
 3857POPC   NC349403  39.462  15.370   5.441
 3857POPC   PO449404  39.329  14.693   5.464
 3857POPC   GL149405  39.388  14.992   5.791
 3857POPC   GL249406  39.701  14.863   5.921
 3857POPC   C1A49407  39.119  15.241   6.112
 3857POPC   D2A49408  38.874  15.320   6.514
 3857POPC   C3A49409  39.096  15.303   6.910
 3857POPC   C4A49410  39.137  15.633   7.207
 3857POPC   C1B49411  39.485  14.887   6.274
 3857POPC   C2B49412  39.492  15.067   6.648
 3857POPC   C3B49413  39.484  14.849   7.005
 3857POPC   C4B49414  39.288  14.726   7.357
 3858POPC   NC349415  17.292   1.594   5.382
 3858POPC   PO449416  17.742   2.128   5.421
 3858POPC   GL149417  17.411   2.001   5.713
 3858POPC   GL249418  17.516   1.675   5.829
 3858POPC   C1A49419  17.236   2.096   6.140
 3858POPC   D2A49420  17.217   2.215   6.598
 3858POPC   C3A49421  17.538   2.045   6.846
 3858POPC   C4A49422  17.787   2.190   7.179
 3858POPC   C1B49423  17.168   1.563   6.092
 3858POPC   C2B49424  17.160   1.719   6.522
 3858POPC   C3B49425  17.294   1.607   6.940
 3858POPC   C4B49426  17.497   1.793   7.327
 3859POPC   NC349427   9.620  30.109   5.334
 3859POPC   PO449428   9.807  29.476   5.431
 3859POPC   GL149429   9.734  29.667   5.821
 3859POPC   GL249430   9.592  30.013   5.830
 3859POPC   C1A49431   9.803  29.587   6.239
 3859POPC   D2A49432   9.904  29.879   6.561
 3859POPC   C3A49433   9.801  29.751   6.964
 3859POPC   C4A49434   9.944  29.980   7.301
 3859POPC   C1B49435   9.807  30.199   6.160
 3859POPC   C2B49436   9.666  30.357   6.546
 3859POPC   C3B49437   9.755  30.285   6.941
 3859POPC   C4B49438   9.598  30.347   7.323
 3860POPC   NC349439   5.100  26.865   5.551
 3860POPC   PO449440   4.808  26.629   6.089
 3860POPC   GL149441   5.256  26.809   6.142
 3860POPC   GL249442   5.302  27.106   5.952
 3860POPC   C1A49443   5.387  26.849   6.576
 3860POPC   D2A49444   4.996  26.707   6.763
 3860POPC   C3A49445   4.992  26.561   7.154
 3860POPC   C4A49446   5.246  26.598   7.503
 3860POPC   C1B49447   5.376  27.401   6.301
 3860POPC   C2B49448   5.445  27.331   6.759
 3860POPC   C3B49449   5.274  27.014   7.082
 3860POPC   C4B49450   4.948  26.999   7.432
 3861POPC   NC349451  12.477  43.763   4.884
 3861POPC   PO449452  12.923  43.936   5.311
 3861POPC   GL149453  12.937  43.890   5.766
 3861POPC   GL249454  12.982  43.543   5.821
 3861POPC   C1A49455  12.753  43.876   6.204
 3861POPC   D2A49456  12.947  44.010   6.596
 3861POPC   C3A49457  12.762  43.956   6.990
 3861POPC   C4A49458  12.871  44.234   7.341
 3861POPC   C1B49459  12.874  43.380   6.212
 3861POPC   C2B49460  12.767  43.542   6.640
 3861POPC   C3B49461  12.873  43.455   7.066
 3861POPC   C4B49462  12.679  43.717   7.425
 3862POPC   NC349463  28.168  27.698   5.206
 3862POPC   PO449464  28.539  27.352   5.604
 3862POPC   GL149465  28.348  27.688   5.820
 3862POPC   GL249466  28.079  27.864   5.679
 3862POPC   C1A49467  28.276  27.727   6.269
 3862POPC   D2A49468  28.446  27.424   6.573
 3862POPC   C3A49469  28.309  27.455   6.967
 3862POPC   C4A49470  28.612  27.656   7.181
 3862POPC   C1B49471  27.980  28.111   6.041
 3862POPC   C2B49472  27.909  28.045   6.468
 3862POPC   C3B49473  28.188  27.943   6.841
 3862POPC   C4B49474  28.122  27.825   7.282
 3863POPC   NC349475  21.802  30.206   5.541
 3863POPC   PO449476  22.350  29.833   5.321
 3863POPC   GL149477  22.237  29.900   5.709
 3863POPC   GL249478  21.958  29.710   5.686
 3863POPC   C1A49479  22.379  29.955   6.124
 3863POPC   D2A49480  22.548  30.006   6.531
 3863POPC   C3A49481  22.243  30.075   6.845
 3863POPC   C4A49482  22.328  30.213   7.255
 3863POPC   C1B49483  21.912  29.731   6.115
 3863POPC   C2B49484  22.133  29.671   6.510
 3863POPC   C3B49485  21.934  29.645   6.894
 3863POPC   C4B49486  21.903  29.899   7.219
 3864POPC   NC349487  14.006  32.868   5.547
 3864POPC   PO449488  14.467  33.264   5.266
 3864POPC   GL149489  14.585  33.335   5.717
 3864POPC   GL249490  14.755  32.989   5.779
 3864POPC   C1A49491  14.303  33.288   6.093
 3864POPC   D2A49492  14.101  32.913   6.301
 3864POPC   C3A49493  14.033  32.965   6.726
 3864POPC   C4A49494  14.143  33.104   7.120
 3864POPC   C1B49495  14.746  33.070   6.220
 3864POPC   C2B49496  14.553  33.191   6.604
 3864POPC   C3B49497  14.699  33.163   7.025
 3864POPC   C4B49498  14.843  32.800   7.242
 3865POPC   NC349499   1.599   7.172   5.707
 3865POPC   PO449500   1.992   7.641   5.412
 3865POPC   GL149501   2.064   7.419   5.780
 3865POPC   GL249502   2.310   7.164   5.807
 3865POPC   C1A49503   2.024   7.445   6.226
 3865POPC   D2A49504   2.141   7.585   6.637
 3865POPC   C3A49505   1.980   7.492   7.022
 3865POPC   C4A49506   1.940   7.485   7.455
 3865POPC   C1B49507   2.037   6.936   6.101
 3865POPC   C2B49508   1.837   6.805   6.469
 3865POPC   C3B49509   1.836   7.008   6.847
 3865POPC   C4B49510   2.018   7.017   7.242
 3866POPC   NC349511   7.925  22.886   5.281
 3866POPC   PO449512   7.962  23.392   5.719
 3866POPC   GL149513   8.092  23.003   5.822
 3866POPC   GL249514   7.824  22.745   5.791
 3866POPC   C1A49515   8.294  23.066   6.231
 3866POPC   D2A49516   8.287  23.316   6.612
 3866POPC   C3A49517   8.174  23.148   7.020
 3866POPC   C4A49518   8.334  22.749   7.187
 3866POPC   C1B49519   7.975  22.678   6.218
 3866POPC   C2B49520   8.189  22.765   6.623
 3866POPC   C3B49521   7.900  22.717   6.912
 3866POPC   C4B49522   7.869  22.579   7.294
 3867POPC   NC349523   1.691   2.301   5.493
 3867POPC   PO449524   2.044   2.908   5.543
 3867POPC   GL149525   1.834   2.888   5.931
 3867POPC   GL249526   1.551   2.701   5.824
 3867POPC   C1A49527   1.800   2.864   6.380
 3867POPC   D2A49528   2.024   2.528   6.593
 3867POPC   C3A49529   2.155   2.588   7.022
 3867POPC   C4A49530   2.187   2.807   7.407
 3867POPC   C1B49531   1.660   2.423   6.156
 3867POPC   C2B49532   1.503   2.418   6.563
 3867POPC   C3B49533   1.664   2.501   6.967
 3867POPC   C4B49534   1.748   2.496   7.430
 3868POPC   NC349535  30.594   2.232   5.333
 3868POPC   PO449536  30.542   1.536   5.348
 3868POPC   GL149537  30.620   1.698   5.789
 3868POPC   GL249538  30.655   2.066   5.800
 3868POPC   C1A49539  30.706   1.826   6.234
 3868POPC   D2A49540  30.696   2.164   6.515
 3868POPC   C3A49541  30.836   1.999   6.878
 3868POPC   C4A49542  30.688   2.030   7.263
 3868POPC   C1B49543  30.382   2.239   6.122
 3868POPC   C2B49544  30.172   2.267   6.523
 3868POPC   C3B49545  30.366   2.293   6.897
 3868POPC   C4B49546  30.250   2.272   7.275
 3869POPC   NC349547   8.246   1.558   5.244
 3869POPC   PO449548   8.288   2.101   5.629
 3869POPC   GL149549   8.070   2.044   5.995
 3869POPC   GL249550   7.767   2.228   5.913
 3869POPC   C1A49551   8.064   1.947   6.415
 3869POPC   D2A49552   7.894   1.625   6.660
 3869POPC   C3A49553   7.995   1.760   7.041
 3869POPC   C4A49554   8.411   1.835   7.121
 3869POPC   C1B49555   7.772   2.391   6.308
 3869POPC   C2B49556   7.917   2.535   6.675
 3869POPC   C3B49557   8.143   2.238   6.896
 3869POPC   C4B49558   7.951   2.225   7.283
 3870POPC   NC349559  10.526   4.170   5.505
 3870POPC   PO449560  10.359   4.806   5.428
 3870POPC   GL149561  10.323   4.569   5.814
 3870POPC   GL249562  10.643   4.440   5.919
 3870POPC   C1A49563  10.240   4.381   6.219
 3870POPC   D2A49564  10.333   4.202   6.629
 3870POPC   C3A49565  10.233   4.419   6.991
 3870POPC   C4A49566  10.475   4.218   7.279
 3870POPC   C1B49567  10.686   4.130   6.264
 3870POPC   C2B49568  10.861   3.986   6.653
 3870POPC   C3B49569  10.939   4.113   7.098
 3870POPC   C4B49570  10.898   4.197   7.574
 3871POPC   NC349571  44.987  29.317   5.299
 3871POPC   PO449572   0.488  28.859   5.494
 3871POPC   GL149573   0.457  29.100   5.862
 3871POPC   GL249574   0.286  29.371   5.707
 3871POPC   C1A49575   0.524  29.163   6.325
 3871POPC   D2A49576   0.519  29.225   6.795
 3871POPC   C3A49577   0.643  28.936   7.085
 3871POPC   C4A49578   0.497  28.619   7.336
 3871POPC   C1B49579   0.259  29.552   6.114
 3871POPC   C2B49580   0.143  29.463   6.528
 3871POPC   C3B49581   0.076  29.412   6.967
 3871POPC   C4B49582   0.346  29.259   7.366
 3872POPC   NC349583  39.713  18.476   5.076
 3872POPC   PO449584  40.161  18.170   5.496
 3872POPC   GL149585  40.033  18.289   5.944
 3872POPC   GL249586  39.760  18.583   5.968
 3872POPC   C1A49587  40.144  18.087   6.353
 3872POPC   D2A49588  40.384  18.170   6.748
 3872POPC   C3A49589  40.177  18.095   7.148
 3872POPC   C4A49590  40.305  17.847   7.538
 3872POPC   C1B49591  39.681  18.420   6.352
 3872POPC   C2B49592  39.916  18.384   6.710
 3872POPC   C3B49593  40.258  18.641   6.892
 3872POPC   C4B49594  40.438  18.556   7.296
 3873POPC   NC349595   5.853  10.662   5.186
 3873POPC   PO449596   5.916  11.370   5.168
 3873POPC   GL149597   5.909  11.393   5.705
 3873POPC   GL249598   5.598  11.625   5.815
 3873POPC   C1A49599   5.921  11.453   6.194
 3873POPC   D2A49600   6.015  11.681   6.606
 3873POPC   C3A49601   5.966  11.388   6.974
 3873POPC   C4A49602   6.158  11.254   7.358
 3873POPC   C1B49603   5.405  11.447   6.186
 3873POPC   C2B49604   5.542  11.487   6.600
 3873POPC   C3B49605   5.419  11.402   7.012
 3873POPC   C4B49606   5.610  11.465   7.424
 3874POPC   NC349607   6.533  27.605   5.432
 3874POPC   PO449608   6.350  26.985   5.419
 3874POPC   GL149609   6.500  27.264   5.796
 3874POPC   GL249610   6.891  27.298   5.889
 3874POPC   C1A49611   6.555  27.559   6.155
 3874POPC   D2A49612   6.850  27.437   6.492
 3874POPC   C3A49613   6.620  27.480   6.839
 3874POPC   C4A49614   6.540  27.701   7.181
 3874POPC   C1B49615   7.016  27.740   6.106
 3874POPC   C2B49616   6.768  27.950   6.451
 3874POPC   C3B49617   6.866  27.950   6.891
 3874POPC   C4B49618   7.019  27.978   7.344
 3875POPC   NC349619  44.032   0.849   5.278
 3875POPC   PO449620  43.823   1.428   5.523
 3875POPC   GL149621  43.898   1.228   5.936
 3875POPC   GL249622  43.990   0.913   5.807
 3875POPC   C1A49623  43.675   0.960   6.242
 3875POPC   D2A49624  43.404   0.948   6.583
 3875POPC   C3A49625  43.645   1.139   6.882
 3875POPC   C4A49626  43.857   1.200   7.258
 3875POPC   C1B49627  44.209   0.888   6.211
 3875POPC   C2B49628  44.175   1.057   6.634
 3875POPC   C3B49629  44.195   0.896   7.046
 3875POPC   C4B49630  44.201   0.933   7.534
 3876POPC   NC349631  19.840   4.324   5.274
 3876POPC   PO449632  20.453   4.191   5.434
 3876POPC   GL149633  20.186   4.192   5.785
 3876POPC   GL249634  19.901   4.416   5.800
 3876POPC   C1A49635  20.032   4.081   6.209
 3876POPC   D2A49636  19.770   3.988   6.573
 3876POPC   C3A49637  19.881   4.104   6.999
 3876POPC   C4A49638  19.744   4.379   7.344
 3876POPC   C1B49639  20.031   4.594   6.208
 3876POPC   C2B49640  19.919   4.479   6.634
 3876POPC   C3B49641  20.068   4.612   7.046
 3876POPC   C4B49642  20.147   4.635   7.563
 3877POPC   NC349643  29.719  20.188   5.428
 3877POPC   PO449644  30.087  19.548   5.521
 3877POPC   GL149645  29.869  19.565   5.867
 3877POPC   GL249646  29.729  19.904   5.843
 3877POPC   C1A49647  30.019  19.730   6.261
 3877POPC   D2A49648  30.166  19.945   6.631
 3877POPC   C3A49649  30.045  19.793   7.033
 3877POPC   C4A49650  29.882  19.647   7.443
 3877POPC   C1B49651  29.701  20.143   6.231
 3877POPC   C2B49652  29.605  20.037   6.659
 3877POPC   C3B49653  29.742  20.209   7.056
 3877POPC   C4B49654  29.908  20.172   7.483
 3878POPC   NC349655  16.020  32.742   5.394
 3878POPC   PO449656  16.160  31.995   5.436
 3878POPC   GL149657  15.960  32.124   5.808
 3878POPC   GL249658  16.051  32.454   5.825
 3878POPC   C1A49659  16.059  32.202   6.250
 3878POPC   D2A49660  15.853  32.181   6.630
 3878POPC   C3A49661  16.120  32.190   6.965
 3878POPC   C4A49662  15.960  32.148   7.333
 3878POPC   C1B49663  16.145  32.716   6.217
 3878POPC   C2B49664  15.987  32.668   6.601
 3878POPC   C3B49665  16.203  32.715   6.949
 3878POPC   C4B49666  16.263  32.545   7.338
 3879POPC   NC349667  30.386  10.379   5.442
 3879POPC   PO449668  31.087  10.625   5.369
 3879POPC   GL149669  30.744  10.693   5.651
 3879POPC   GL249670  30.929  10.566   5.879
 3879POPC   C1A49671  30.571  10.891   6.054
 3879POPC   D2A49672  30.543  10.888   6.524
 3879POPC   C3A49673  30.500  10.508   6.751
 3879POPC   C4A49674  30.542  10.538   7.190
 3879POPC   C1B49675  30.996  10.315   6.241
 3879POPC   C2B49676  30.829  10.116   6.606
 3879POPC   C3B49677  30.929  10.253   7.004
 3879POPC   C4B49678  30.877  10.247   7.452
 3880POPC   NC349679  27.069   4.459   5.440
 3880POPC   PO449680  27.750   4.296   5.320
 3880POPC   GL149681  27.701   4.300   5.773
 3880POPC   GL249682  27.336   4.236   5.828
 3880POPC   C1A49683  27.955   4.386   6.170
 3880POPC   D2A49684  27.855   4.570   6.566
 3880POPC   C3A49685  27.757   4.446   6.978
 3880POPC   C4A49686  27.903   4.701   7.305
 3880POPC   C1B49687  27.478   4.199   6.247
 3880POPC   C2B49688  27.560   4.017   6.637
 3880POPC   C3B49689  27.333   4.169   6.976
 3880POPC   C4B49690  27.196   4.239   7.378
 3881POPC   NC349691  39.619  14.550   5.117
 3881POPC   PO449692  40.150  14.241   5.478
 3881POPC   GL149693  40.107  14.335   5.902
 3881POPC   GL249694  40.186  14.684   5.791
 3881POPC   C1A49695  39.827  14.403   6.274
 3881POPC   D2A49696  39.851  14.687   6.626
 3881POPC   C3A49697  39.902  14.515   7.041
 3881POPC   C4A49698  40.143  14.590   7.405
 3881POPC   C1B49699  40.220  14.724   6.231
 3881POPC   C2B49700  40.316  14.917   6.603
 3881POPC   C3B49701  40.401  14.725   6.984
 3881POPC   C4B49702  40.655  14.708   7.360
 3882POPC   NC349703  41.409   1.705   5.200
 3882POPC   PO449704  41.690   2.265   5.355
 3882POPC   GL149705  41.502   2.096   5.740
 3882POPC   GL249706  41.241   1.847   5.720
 3882POPC   C1A49707  41.638   2.028   6.175
 3882POPC   D2A49708  41.793   1.790   6.548
 3882POPC   C3A49709  41.893   1.951   6.961
 3882POPC   C4A49710  41.739   1.807   7.374
 3882POPC   C1B49711  41.272   1.644   6.143
 3882POPC   C2B49712  41.288   1.905   6.520
 3882POPC   C3B49713  41.383   1.853   6.948
 3882POPC   C4B49714  41.217   2.095   7.279
 3883POPC   NC349715  12.365   0.313   5.181
 3883POPC   PO449716  13.025   0.498   5.447
 3883POPC   GL149717  12.818   0.412   5.840
 3883POPC   GL249718  12.984   0.138   5.968
 3883POPC   C1A49719  12.753   0.407   6.309
 3883POPC   D2A49720  12.843   0.676   6.648
 3883POPC   C3A49721  12.767   0.429   6.946
 3883POPC   C4A49722  12.533   0.494   7.283
 3883POPC   C1B49723  13.210   0.021   6.304
 3883POPC   C2B49724  13.060   0.045   6.714
 3883POPC   C3B49725  13.273   0.075   7.107
 3883POPC   C4B49726  13.020   0.316   7.379
 3884POPC   NC349727  21.174   5.009   5.339
 3884POPC   PO449728  21.834   5.203   5.313
 3884POPC   GL149729  21.545   5.197   5.718
 3884POPC   GL249730  21.218   5.058   5.851
 3884POPC   C1A49731  21.538   5.256   6.201
 3884POPC   D2A49732  21.384   5.471   6.594
 3884POPC   C3A49733  21.523   5.246   6.952
 3884POPC   C4A49734  21.519   5.134   7.381
 3884POPC   C1B49735  21.041   4.821   6.225
 3884POPC   C2B49736  21.192   4.646   6.621
 3884POPC   C3B49737  21.229   4.850   7.012
 3884POPC   C4B49738  20.826   4.907   7.176
 3885POPC   NC349739  43.650  15.084   5.403
 3885POPC   PO449740  44.165  15.451   5.337
 3885POPC   GL149741  43.925  15.404   5.767
 3885POPC   GL249742  43.725  15.129   5.904
 3885POPC   C1A49743  44.057  15.312   6.231
 3885POPC   D2A49744  43.894  15.525   6.621
 3885POPC   C3A49745  43.908  15.382   7.040
 3885POPC   C4A49746  44.153  15.048   7.176
 3885POPC   C1B49747  43.550  15.404   6.251
 3885POPC   C2B49748  43.404  15.317   6.699
 3885POPC   C3B49749  43.451  15.150   7.125
 3885POPC   C4B49750  43.561  15.117   7.561
 3886POPC   NC349751  24.863  12.565   5.381
 3886POPC   PO449752  25.400  13.035   5.371
 3886POPC   GL149753  25.232  12.866   5.752
 3886POPC   GL249754  24.905  12.990   5.763
 3886POPC   C1A49755  25.303  12.689   6.168
 3886POPC   D2A49756  25.102  12.519   6.534
 3886POPC   C3A49757  25.254  12.740   6.862
 3886POPC   C4A49758  25.526  12.587   7.108
 3886POPC   C1B49759  24.807  12.829   6.186
 3886POPC   C2B49760  24.859  12.965   6.625
 3886POPC   C3B49761  24.793  12.788   7.057
 3886POPC   C4B49762  25.073  12.646   7.396
 3887POPC   NC349763  26.071  15.689   5.329
 3887POPC   PO449764  25.907  16.404   5.292
 3887POPC   GL149765  25.979  16.127   5.690
 3887POPC   GL249766  25.898  15.751   5.791
 3887POPC   C1A49767  25.966  16.112   6.150
 3887POPC   D2A49768  26.079  15.991   6.560
 3887POPC   C3A49769  26.069  16.218   6.956
 3887POPC   C4A49770  26.305  16.114   7.322
 3887POPC   C1B49771  26.056  15.608   6.182
 3887POPC   C2B49772  25.916  15.495   6.567
 3887POPC   C3B49773  25.800  15.740   6.906
 3887POPC   C4B49774  25.846  15.700   7.314
 3888POPC   NC349775   2.059  42.068   5.197
 3888POPC   PO449776   2.044  41.430   5.327
 3888POPC   GL149777   1.960  41.564   5.745
 3888POPC   GL249778   2.314  41.467   5.803
 3888POPC   C1A49779   1.789  41.682   6.183
 3888POPC   D2A49780   1.836  41.456   6.588
 3888POPC   C3A49781   1.907  41.617   7.021
 3888POPC   C4A49782   1.784  41.876   7.391
 3888POPC   C1B49783   2.258  41.860   6.016
 3888POPC   C2B49784   2.225  41.786   6.444
 3888POPC   C3B49785   2.379  41.666   6.821
 3888POPC   C4B49786   2.384  41.561   7.234
 3889POPC   NC349787   4.541  27.905   5.401
 3889POPC   PO449788   4.853  27.225   5.358
 3889POPC   GL149789   4.521  27.386   5.689
 3889POPC   GL249790   4.167  27.377   5.851
 3889POPC   C1A49791   4.547  27.650   6.060
 3889POPC   D2A49792   4.624  27.546   6.509
 3889POPC   C3A49793   4.300  27.367   6.777
 3889POPC   C4A49794   4.123  27.511   7.171
 3889POPC   C1B49795   4.059  27.607   6.230
 3889POPC   C2B49796   3.866  27.691   6.632
 3889POPC   C3B49797   3.857  27.955   6.999
 3889POPC   C4B49798   3.988  27.932   7.433
 3890POPC   NC349799  27.375  25.906   5.283
 3890POPC   PO449800  28.005  26.096   5.390
 3890POPC   GL149801  27.697  26.049   5.730
 3890POPC   GL249802  27.376  25.943   5.793
 3890POPC   C1A49803  27.645  26.005   6.199
 3890POPC   D2A49804  27.609  26.292   6.544
 3890POPC   C3A49805  27.691  26.060   6.907
 3890POPC   C4A49806  27.549  26.125   7.344
 3890POPC   C1B49807  27.175  25.757   6.150
 3890POPC   C2B49808  27.338  25.811   6.591
 3890POPC   C3B49809  27.279  25.762   7.037
 3890POPC   C4B49810  27.413  25.613   7.399
 3891POPC   NC349811  12.827  39.606   5.187
 3891POPC   PO449812  12.671  39.012   5.370
 3891POPC   GL149813  12.937  39.141   5.709
 3891POPC   GL249814  13.112  39.439   5.630
 3891POPC   C1A49815  13.011  38.959   6.129
 3891POPC   D2A49816  12.811  38.976   6.554
 3891POPC   C3A49817  13.027  38.930   6.941
 3891POPC   C4A49818  12.796  39.152   7.239
 3891POPC   C1B49819  13.180  39.456   6.122
 3891POPC   C2B49820  13.273  39.610   6.562
 3891POPC   C3B49821  13.046  39.443   6.884
 3891POPC   C4B49822  13.235  39.337   7.279
 3892POPC   NC349823  24.050  11.892   5.378
 3892POPC   PO449824  23.787  12.432   5.186
 3892POPC   GL149825  23.851  12.184   5.722
 3892POPC   GL249826  23.698  11.880   5.771
 3892POPC   C1A49827  23.749  12.219   6.175
 3892POPC   D2A49828  23.929  12.169   6.582
 3892POPC   C3A49829  23.835  12.250   7.000
 3892POPC   C4A49830  24.066  12.387   7.325
 3892POPC   C1B49831  23.878  11.679   6.105
 3892POPC   C2B49832  23.727  11.598   6.490
 3892POPC   C3B49833  23.713  11.769   6.892
 3892POPC   C4B49834  23.452  11.712   7.274
 3893POPC   NC349835  11.187   7.077   5.508
 3893POPC   PO449836  11.412   7.787   5.455
 3893POPC   GL149837  11.422   7.547   5.831
 3893POPC   GL249838  11.063   7.475   5.838
 3893POPC   C1A49839  11.419   7.698   6.281
 3893POPC   D2A49840  11.684   7.622   6.636
 3893POPC   C3A49841  11.600   7.669   7.077
 3893POPC   C4A49842  11.592   7.429   7.441
 3893POPC   C1B49843  11.194   7.237   6.226
 3893POPC   C2B49844  11.269   7.345   6.690
 3893POPC   C3B49845  11.182   7.335   7.140
 3893POPC   C4B49846  11.159   7.205   7.579
 3894POPC   NC349847  29.192   3.486   5.141
 3894POPC   PO449848  28.953   3.141   5.659
 3894POPC   GL149849  29.164   3.387   5.957
 3894POPC   GL249850  29.104   3.750   6.002
 3894POPC   C1A49851  29.209   3.451   6.392
 3894POPC   D2A49852  29.077   3.702   6.723
 3894POPC   C3A49853  28.984   3.449   7.064
 3894POPC   C4A49854  28.764   3.527   7.453
 3894POPC   C1B49855  29.450   3.914   6.257
 3894POPC   C2B49856  29.372   4.191   6.603
 3894POPC   C3B49857  29.159   4.187   6.960
 3894POPC   C4B49858  29.037   3.909   7.245
 3895POPC   NC349859   4.563  24.577   5.441
 3895POPC   PO449860   3.896  24.386   5.395
 3895POPC   GL149861   4.183  24.465   5.762
 3895POPC   GL249862   4.361  24.167   5.808
 3895POPC   C1A49863   4.487  24.576   6.138
 3895POPC   D2A49864   4.289  24.615   6.558
 3895POPC   C3A49865   4.479  24.569   6.960
 3895POPC   C4A49866   4.276  24.614   7.410
 3895POPC   C1B49867   4.130  24.233   6.212
 3895POPC   C2B49868   3.796  24.190   6.432
 3895POPC   C3B49869   3.823  24.403   6.781
 3895POPC   C4B49870   4.106  24.269   7.067
 3896POPC   NC349871  37.239  19.676   5.396
 3896POPC   PO449872  37.758  20.088   5.342
 3896POPC   GL149873  37.736  19.913   5.768
 3896POPC   GL249874  37.613  19.569   5.744
 3896POPC   C1A49875  37.895  19.900   6.238
 3896POPC   D2A49876  37.618  19.674   6.593
 3896POPC   C3A49877  37.696  19.618   7.021
 3896POPC   C4A49878  37.931  19.957   7.114
 3896POPC   C1B49879  37.435  19.762   6.132
 3896POPC   C2B49880  37.429  20.144   6.432
 3896POPC   C3B49881  37.482  20.087   6.909
 3896POPC   C4B49882  37.453  19.900   7.388
 3897POPC   NC349883  36.614   8.905   5.588
 3897POPC   PO449884  37.165   9.167   5.317
 3897POPC   GL149885  37.100   8.991   5.717
 3897POPC   GL249886  37.058   8.624   5.754
 3897POPC   C1A49887  37.208   8.906   6.153
 3897POPC   D2A49888  37.020   8.859   6.559
 3897POPC   C3A49889  37.196   8.899   6.982
 3897POPC   C4A49890  37.023   9.331   7.099
 3897POPC   C1B49891  36.773   8.600   6.148
 3897POPC   C2B49892  36.633   8.508   6.578
 3897POPC   C3B49893  36.720   8.700   6.977
 3897POPC   C4B49894  36.849   8.938   7.370
 3898POPC   NC349895  24.514  32.463   5.619
 3898POPC   PO449896  24.122  31.955   5.354
 3898POPC   GL149897  24.407  31.984   5.760
 3898POPC   GL249898  24.217  32.057   6.055
 3898POPC   C1A49899  24.712  32.095   6.146
 3898POPC   D2A49900  24.843  32.275   6.574
 3898POPC   C3A49901  24.713  32.085   6.966
 3898POPC   C4A49902  24.376  32.339   7.163
 3898POPC   C1B49903  24.330  32.152   6.481
 3898POPC   C2B49904  24.234  31.912   6.814
 3898POPC   C3B49905  24.120  31.902   7.223
 3898POPC   C4B49906  23.982  31.792   7.595
 3899POPC   NC349907  28.746  42.507   5.375
 3899POPC   PO449908  28.473  41.925   5.637
 3899POPC   GL149909  28.448  42.297   5.875
 3899POPC   GL249910  28.134  42.457   5.893
 3899POPC   C1A49911  28.382  42.383   6.319
 3899POPC   D2A49912  28.643  42.570   6.610
 3899POPC   C3A49913  28.621  42.431   7.017
 3899POPC   C4A49914  28.721  42.545   7.415
 3899POPC   C1B49915  27.992  42.748   6.194
 3899POPC   C2B49916  27.865  42.797   6.605
 3899POPC   C3B49917  28.198  42.698   6.866
 3899POPC   C4B49918  28.209  42.620   7.281
 3900POPC   NC349919   3.083   1.410   5.331
 3900POPC   PO449920   2.411   1.384   5.431
 3900POPC   GL149921   2.626   1.149   5.795
 3900POPC   GL249922   2.967   0.952   5.721
 3900POPC   C1A49923   2.593   1.090   6.274
 3900POPC   D2A49924   2.659   1.274   6.699
 3900POPC   C3A49925   2.709   1.117   7.122
 3900POPC   C4A49926   2.440   0.877   7.387
 3900POPC   C1B49927   3.060   1.247   6.075
 3900POPC   C2B49928   3.107   1.451   6.484
 3900POPC   C3B49929   3.022   1.573   6.916
 3900POPC   C4B49930   3.134   1.412   7.286
 3901POPC   NC349931  38.572   5.727   5.434
 3901POPC   PO449932  38.415   6.428   5.524
 3901POPC   GL149933  38.551   6.096   5.833
 3901POPC   GL249934  38.342   5.816   5.874
 3901POPC   C1A49935  38.416   6.036   6.303
 3901POPC   D2A49936  38.374   5.778   6.661
 3901POPC   C3A49937  38.483   6.042   6.987
 3901POPC   C4A49938  38.610   6.010   7.411
 3901POPC   C1B49939  38.094   5.568   6.177
 3901POPC   C2B49940  38.175   5.313   6.535
 3901POPC   C3B49941  38.043   5.495   6.927
 3901POPC   C4B49942  38.218   5.711   7.307
 3902POPC   NC349943  39.336   0.259   5.427
 3902POPC   PO449944  39.149   0.942   5.439
 3902POPC   GL149945  39.055   0.577   5.719
 3902POPC   GL249946  39.352   0.596   5.901
 3902POPC   C1A49947  39.071   0.203   6.080
 3902POPC   D2A49948  39.042   0.033   6.510
 3902POPC   C3A49949  39.256   0.147   6.878
 3902POPC   C4A49950  39.122   0.271   7.302
 3902POPC   C1B49951  38.976   0.684   6.201
 3902POPC   C2B49952  38.903   0.536   6.616
 3902POPC   C3B49953  39.163   0.649   6.962
 3902POPC   C4B49954  39.210   0.815   7.358
 3903POPC   NC349955  20.520   4.666   5.530
 3903POPC   PO449956  20.640   5.281   5.225
 3903POPC   GL149957  20.766   5.188   5.634
 3903POPC   GL249958  20.879   5.485   5.800
 3903POPC   C1A49959  20.616   5.088   6.060
 3903POPC   D2A49960  20.526   4.807   6.425
 3903POPC   C3A49961  20.478   4.985   6.833
 3903POPC   C4A49962  20.311   4.997   7.244
 3903POPC   C1B49963  21.019   5.366   6.225
 3903POPC   C2B49964  20.988   5.143   6.640
 3903POPC   C3B49965  21.018   5.357   7.038
 3903POPC   C4B49966  21.030   5.245   7.475
 3904POPC   NC349967  44.360  18.149   5.335
 3904POPC   PO449968  44.957  18.471   5.365
 3904POPC   GL149969  44.778  18.279   5.791
 3904POPC   GL249970  44.415  18.156   5.835
 3904POPC   C1A49971  44.749  17.990   6.176
 3904POPC   D2A49972  44.566  17.935   6.592
 3904POPC   C3A49973  44.624  18.312   6.804
 3904POPC   C4A49974  44.702  18.406   7.214
 3904POPC   C1B49975  44.398  18.341   6.258
 3904POPC   C2B49976  44.175  18.455   6.624
 3904POPC   C3B49977  44.218  18.466   7.089
 3904POPC   C4B49978  44.313  18.301   7.507
 3905POPC   NC349979   3.829  24.061   4.999
 3905POPC   PO449980   3.517  23.565   5.493
 3905POPC   GL149981   3.513  23.745   5.901
 3905POPC   GL249982   3.666  23.445   6.039
 3905POPC   C1A49983   3.474  23.811   6.337
 3905POPC   D2A49984   3.491  23.555   6.685
 3905POPC   C3A49985   3.285  23.884   6.920
 3905POPC   C4A49986   3.480  24.237   7.126
 3905POPC   C1B49987   3.943  23.547   6.388
 3905POPC   C2B49988   4.120  23.846   6.657
 3905POPC   C3B49989   3.794  23.901   6.920
 3905POPC   C4B49990   3.618  23.668   7.260
 3906POPC   NC349991  32.427  14.262   5.448
 3906POPC   PO449992  31.912  14.658   5.375
 3906POPC   GL149993  32.074  14.479   5.801
 3906POPC   GL249994  32.440  14.450   5.917
 3906POPC   C1A49995  31.979  14.215   6.171
 3906POPC   D2A49996  31.834  14.028   6.582
 3906POPC   C3A49997  32.080  14.111   6.982
 3906POPC   C4A49998  32.178  14.137   7.439
 3906POPC   C1B49999  32.376  14.539   6.347
 3906POPC   C2B50000  32.428  14.496   6.787
 3906POPC   C3B50001  32.564  14.337   7.169
 3906POPC   C4B50002  32.668  14.238   7.596
 3907POPC   NC350003  33.138   3.061   5.562
 3907POPC   PO450004  32.681   2.602   5.371
 3907POPC   GL150005  32.978   2.603   5.741
 3907POPC   GL250006  32.798   2.849   5.899
 3907POPC   C1A50007  33.201   2.714   6.163
 3907POPC   D2A50008  33.128   2.559   6.575
 3907POPC   C3A50009  32.985   2.768   6.950
 3907POPC   C4A50010  32.844   2.575   7.357
 3907POPC   C1B50011  32.838   3.056   6.324
 3907POPC   C2B50012  32.715   3.231   6.718
 3907POPC   C3B50013  32.730   3.173   7.158
 3907POPC   C4B50014  33.060   3.020   7.410
 3908POPC   NC350015   7.057  16.752   5.176
 3908POPC   PO450016   7.549  16.581   5.458
 3908POPC   GL150017   7.445  16.779   5.826
 3908POPC   GL250018   7.118  16.827   5.866
 3908POPC   C1A50019   7.627  16.776   6.225
 3908POPC   D2A50020   7.643  16.557   6.583
 3908POPC   C3A50021   7.587  16.812   6.927
 3908POPC   C4A50022   7.540  16.608   7.290
 3908POPC   C1B50023   7.174  16.543   6.231
 3908POPC   C2B50024   7.149  16.502   6.672
 3908POPC   C3B50025   7.064  16.749   7.020
 3908POPC   C4B50026   7.090  16.789   7.461
 3909POPC   NC350027  34.582  39.814   5.470
 3909POPC   PO450028  34.283  40.259   5.099
 3909POPC   GL150029  34.311  40.294   5.601
 3909POPC   GL250030  34.242  39.988   5.820
 3909POPC   C1A50031  34.438  40.381   6.078
 3909POPC   D2A50032  34.403  40.204   6.533
 3909POPC   C3A50033  34.653  40.322   6.956
 3909POPC   C4A50034  35.047  40.142   7.172
 3909POPC   C1B50035  34.127  39.762   6.226
 3909POPC   C2B50036  34.024  39.623   6.657
 3909POPC   C3B50037  34.329  39.473   6.981
 3909POPC   C4B50038  34.585  39.834   7.158
 3910POPC   NC350039  30.758   4.094   5.431
 3910POPC   PO450040  30.496   4.640   5.478
 3910POPC   GL150041  30.797   4.487   5.816
 3910POPC   GL250042  30.977   4.175   5.878
 3910POPC   C1A50043  30.969   4.563   6.225
 3910POPC   D2A50044  30.703   4.550   6.595
 3910POPC   C3A50045  30.933   4.555   6.967
 3910POPC   C4A50046  30.775   4.479   7.345
 3910POPC   C1B50047  30.651   4.160   6.219
 3910POPC   C2B50048  30.657   4.000   6.665
 3910POPC   C3B50049  30.806   4.001   7.102
 3910POPC   C4B50050  30.590   3.994   7.521
 3911POPC   NC350051  40.330  19.035   5.306
 3911POPC   PO450052  39.760  18.743   5.486
 3911POPC   GL150053  40.044  18.957   5.733
 3911POPC   GL250054  40.291  18.689   5.704
 3911POPC   C1A50055  40.064  19.235   6.110
 3911POPC   D2A50056  40.193  19.396   6.546
 3911POPC   C3A50057  40.165  19.185   6.911
 3911POPC   C4A50058  40.142  18.969   7.274
 3911POPC   C1B50059  40.212  18.713   6.158
 3911POPC   C2B50060  39.994  18.897   6.508
 3911POPC   C3B50061  39.774  18.836   6.894
 3911POPC   C4B50062  39.867  18.518   7.199
 3912POPC   NC350063  36.998  14.017   5.513
 3912POPC   PO450064  36.820  14.594   5.248
 3912POPC   GL150065  36.792  14.445   5.697
 3912POPC   GL250066  37.124  14.483   5.804
 3912POPC   C1A50067  36.675  14.333   6.134
 3912POPC   D2A50068  36.532  14.486   6.561
 3912POPC   C3A50069  36.792  14.322   6.906
 3912POPC   C4A50070  36.693  14.084   7.260
 3912POPC   C1B50071  37.269  14.340   6.246
 3912POPC   C2B50072  37.306  14.326   6.732
 3912POPC   C3B50073  37.261  14.426   7.169
 3912POPC   C4B50074  36.910  14.576   7.439
 3913POPC   NC350075  25.132  15.418   5.542
 3913POPC   PO450076  25.353  14.841   5.408
 3913POPC   GL150077  25.572  15.182   5.644
 3913POPC   GL250078  25.591  14.968   5.865
 3913POPC   C1A50079  25.573  15.430   6.087
 3913POPC   D2A50080  25.433  15.326   6.539
 3913POPC   C3A50081  25.375  15.473   6.976
 3913POPC   C4A50082  25.045  15.349   7.240
 3913POPC   C1B50083  25.284  15.002   6.171
 3913POPC   C2B50084  25.269  14.808   6.568
 3913POPC   C3B50085  25.330  14.974   6.937
 3913POPC   C4B50086  25.335  14.932   7.346
 3914POPC   NC350087  17.123  22.083   5.312
 3914POPC   PO450088  17.602  22.557   5.447
 3914POPC   GL150089  17.479  22.218   5.665
 3914POPC   GL250090  17.669  21.932   5.550
 3914POPC   C1A50091  17.395  22.236   6.108
 3914POPC   D2A50092  17.524  22.435   6.473
 3914POPC   C3A50093  17.476  22.208   6.848
 3914POPC   C4A50094  17.489  22.271   7.275
 3914POPC   C1B50095  17.689  21.846   5.997
 3914POPC   C2B50096  17.580  21.879   6.445
 3914POPC   C3B50097  17.612  21.712   6.892
 3914POPC   C4B50098  17.760  21.844   7.295
 3915POPC   NC350099  33.242  44.871   5.135
 3915POPC   PO450100  32.889  44.368   5.489
 3915POPC   GL150101  32.973  44.723   5.788
 3915POPC   GL250102  32.930  44.424   6.011
 3915POPC   C1A50103  32.768  44.857   6.186
 3915POPC   D2A50104  32.820  44.639   6.589
 3915POPC   C3A50105  32.729  44.869   6.968
 3915POPC   C4A50106  32.702   0.144   7.319
 3915POPC   C1B50107  33.234  44.559   6.302
 3915POPC   C2B50108  33.298  44.353   6.676
 3915POPC   C3B50109  33.023  44.403   7.059
 3915POPC   C4B50110  33.049  44.766   7.367
 3916POPC   NC350111   4.753  23.608   5.613
 3916POPC   PO450112   5.316  24.016   5.543
 3916POPC   GL150113   5.195  23.714   5.847
 3916POPC   GL250114   5.230  23.373   5.709
 3916POPC   C1A50115   4.966  23.655   6.226
 3916POPC   D2A50116   4.731  23.673   6.598
 3916POPC   C3A50117   4.964  23.684   6.963
 3916POPC   C4A50118   4.676  23.637   7.282
 3916POPC   C1B50119   5.259  23.211   6.141
 3916POPC   C2B50120   5.237  23.367   6.563
 3916POPC   C3B50121   5.349  23.174   6.928
 3916POPC   C4B50122   5.460  23.312   7.299
 3917POPC   NC350123  25.054  36.717   5.505
 3917POPC   PO450124  24.771  37.309   5.472
 3917POPC   GL150125  25.030  37.081   5.856
 3917POPC   GL250126  25.352  36.834   5.889
 3917POPC   C1A50127  25.271  37.101   6.296
 3917POPC   D2A50128  25.277  36.797   6.633
 3917POPC   C3A50129  25.161  36.857   7.061
 3917POPC   C4A50130  24.994  36.857   7.492
 3917POPC   C1B50131  25.621  36.604   6.163
 3917POPC   C2B50132  25.745  36.635   6.589
 3917POPC   C3B50133  25.537  36.495   6.979
 3917POPC   C4B50134  25.388  36.528   7.396
 3918POPC   NC350135  25.383  31.999   5.447
 3918POPC   PO450136  24.849  32.403   5.313
 3918POPC   GL150137  24.939  32.151   5.681
 3918POPC   GL250138  25.211  32.384   5.769
 3918POPC   C1A50139  25.188  31.978   6.058
 3918POPC   D2A50140  25.251  31.990   6.502
 3918POPC   C3A50141  25.424  32.036   6.907
 3918POPC   C4A50142  25.191  32.118   7.248
 3918POPC   C1B50143  25.191  32.453   6.231
 3918POPC   C2B50144  25.479  32.465   6.602
 3918POPC   C3B50145  25.287  32.544   6.984
 3918POPC   C4B50146  24.840  32.558   7.090
 3919POPC   NC350147   1.624   7.163   5.174
 3919POPC   PO450148   1.056   7.533   5.313
 3919POPC   GL150149   1.193   7.554   5.769
 3919POPC   GL250150   1.035   7.879   5.731
 3919POPC   C1A50151   1.320   7.470   6.252
 3919POPC   D2A50152   1.641   7.425   6.607
 3919POPC   C3A50153   1.505   7.332   7.057
 3919POPC   C4A50154   1.122   7.175   7.252
 3919POPC   C1B50155   1.141   7.955   6.133
 3919POPC   C2B50156   1.017   7.796   6.501
 3919POPC   C3B50157   1.163   7.584   6.793
 3919POPC   C4B50158   1.149   7.684   7.198
 3920POPC   NC350159  13.939  40.939   4.901
 3920POPC   PO450160  13.558  40.813   5.434
 3920POPC   GL150161  13.572  40.683   5.854
 3920POPC   GL250162  13.846  40.453   5.823
 3920POPC   C1A50163  13.465  40.868   6.271
 3920POPC   D2A50164  13.574  41.169   6.615
 3920POPC   C3A50165  13.433  40.943   6.972
 3920POPC   C4A50166  13.544  40.920   7.398
 3920POPC   C1B50167  13.962  40.756   6.181
 3920POPC   C2B50168  14.005  40.871   6.634
 3920POPC   C3B50169  13.914  40.765   7.060
 3920POPC   C4B50170  13.923  40.544   7.439
 3921POPC   NC350171  40.221   0.817   5.595
 3921POPC   PO450172  39.760   1.234   5.186
 3921POPC   GL150173  39.801   1.235   5.670
 3921POPC   GL250174  40.108   1.276   5.832
 3921POPC   C1A50175  39.737   1.306   6.158
 3921POPC   D2A50176  39.844   1.066   6.561
 3921POPC   C3A50177  40.105   1.161   6.916
 3921POPC   C4A50178  40.059   1.231   7.356
 3921POPC   C1B50179  40.253   1.127   6.233
 3921POPC   C2B50180  40.432   1.364   6.564
 3921POPC   C3B50181  40.454   1.522   6.986
 3921POPC   C4B50182  40.563   1.303   7.406
 3922POPC   NC350183  26.361  24.573   5.539
 3922POPC   PO450184  26.991  24.880   5.343
 3922POPC   GL150185  26.870  24.765   5.795
 3922POPC   GL250186  26.686  24.450   5.932
 3922POPC   C1A50187  27.067  24.627   6.216
 3922POPC   D2A50188  26.830  24.464   6.567
 3922POPC   C3A50189  27.039  24.375   6.911
 3922POPC   C4A50190  27.036  24.397   7.351
 3922POPC   C1B50191  26.576  24.799   6.227
 3922POPC   C2B50192  26.842  24.961   6.563
 3922POPC   C3B50193  26.852  24.838   6.970
 3922POPC   C4B50194  27.104  24.886   7.306
 3923POPC   NC350195  33.312  18.767   5.560
 3923POPC   PO450196  32.720  19.055   5.336
 3923POPC   GL150197  32.919  18.997   5.752
 3923POPC   GL250198  32.754  18.697   5.772
 3923POPC   C1A50199  33.076  19.119   6.183
 3923POPC   D2A50200  32.900  19.188   6.602
 3923POPC   C3A50201  33.126  19.110   6.996
 3923POPC   C4A50202  33.263  19.486   7.251
 3923POPC   C1B50203  32.913  18.607   6.217
 3923POPC   C2B50204  33.049  18.691   6.658
 3923POPC   C3B50205  32.953  18.601   7.092
 3923POPC   C4B50206  33.019  18.626   7.554
 3924POPC   NC350207  16.376   8.064   5.311
 3924POPC   PO450208  15.897   8.484   5.326
 3924POPC   GL150209  16.182   8.384   5.684
 3924POPC   GL250210  16.223   8.047   5.828
 3924POPC   C1A50211  16.298   8.460   6.126
 3924POPC   D2A50212  16.035   8.448   6.507
 3924POPC   C3A50213  16.154   8.306   6.932
 3924POPC   C4A50214  15.915   8.375   7.288
 3924POPC   C1B50215  16.206   7.987   6.321
 3924POPC   C2B50216  15.924   7.917   6.712
 3924POPC   C3B50217  15.896   7.880   7.197
 3924POPC   C4B50218  15.904   7.641   7.609
 3925POPC   NC350219   7.758  13.552   5.393
 3925POPC   PO450220   8.176  14.010   5.187
 3925POPC   GL150221   8.204  14.052   5.616
 3925POPC   GL250222   7.907  13.909   5.735
 3925POPC   C1A50223   8.370  13.844   5.962
 3925POPC   D2A50224   8.247  13.817   6.401
 3925POPC   C3A50225   8.498  13.971   6.752
 3925POPC   C4A50226   8.428  13.889   7.218
 3925POPC   C1B50227   7.898  13.615   6.082
 3925POPC   C2B50228   7.893  13.446   6.505
 3925POPC   C3B50229   8.176  13.544   6.832
 3925POPC   C4B50230   8.063  13.543   7.231
 3926POPC   NC350231   2.881   9.397   5.069
 3926POPC   PO450232   2.623   8.918   5.492
 3926POPC   GL150233   2.640   9.006   5.912
 3926POPC   GL250234   2.980   9.028   5.987
 3926POPC   C1A50235   2.463   9.063   6.325
 3926POPC   D2A50236   2.393   9.327   6.708
 3926POPC   C3A50237   2.362   9.098   7.112
 3926POPC   C4A50238   2.539   8.721   7.251
 3926POPC   C1B50239   2.879   8.781   6.328
 3926POPC   C2B50240   2.723   8.892   6.730
 3926POPC   C3B50241   3.001   8.857   7.032
 3926POPC   C4B50242   3.196   8.778   7.377
 3927POPC   NC350243  31.687  24.647   5.187
 3927POPC   PO450244  31.044  24.387   5.139
 3927POPC   GL150245  31.269  24.318   5.578
 3927POPC   GL250246  31.658  24.302   5.619
 3927POPC   C1A50247  31.296  24.375   6.052
 3927POPC   D2A50248  31.330  24.702   6.413
 3927POPC   C3A50249  31.337  24.604   6.879
 3927POPC   C4A50250  31.359  24.352   7.246
 3927POPC   C1B50251  31.812  24.342   6.090
 3927POPC   C2B50252  31.648  24.264   6.549
 3927POPC   C3B50253  31.800  24.331   7.001
 3927POPC   C4B50254  31.833  24.315   7.501
 3928POPC   NC350255   0.267  37.656   5.239
 3928POPC   PO450256   0.923  37.738   5.211
 3928POPC   GL150257   0.603  37.707   5.647
 3928POPC   GL250258   0.296  37.924   5.677
 3928POPC   C1A50259   0.548  37.626   6.145
 3928POPC   D2A50260   0.651  37.749   6.590
 3928POPC   C3A50261   0.411  37.670   6.962
 3928POPC   C4A50262   0.496  37.985   7.167
 3928POPC   C1B50263   0.131  37.889   6.094
 3928POPC   C2B50264   0.147  37.794   6.523
 3928POPC   C3B50265   0.025  38.031   6.908
 3928POPC   C4B50266  44.847  38.049   7.329
 3929POPC   NC350267  25.535  16.455   5.617
 3929POPC   PO450268  25.397  15.794   5.561
 3929POPC   GL150269  25.482  16.009   5.939
 3929POPC   GL250270  25.132  16.021   6.013
 3929POPC   C1A50271  25.573  15.862   6.384
 3929POPC   D2A50272  25.302  15.933   6.743
 3929POPC   C3A50273  25.381  15.937   7.204
 3929POPC   C4A50274  25.104  15.797   7.540
 3929POPC   C1B50275  25.252  16.277   6.336
 3929POPC   C2B50276  25.310  16.459   6.718
 3929POPC   C3B50277  25.033  16.300   7.027
 3929POPC   C4B50278  24.832  16.318   7.395
 3930POPC   NC350279  21.021  42.649   5.422
 3930POPC   PO450280  21.484  42.136   5.319
 3930POPC   GL150281  21.421  42.426   5.700
 3930POPC   GL250282  21.676  42.283   5.848
 3930POPC   C1A50283  21.306  42.465   6.196
 3930POPC   D2A50284  21.342  42.682   6.671
 3930POPC   C3A50285  21.320  42.444   7.088
 3930POPC   C4A50286  21.061  42.174   7.353
 3930POPC   C1B50287  21.734  42.188   6.281
 3930POPC   C2B50288  21.638  42.260   6.707
 3930POPC   C3B50289  21.663  42.063   7.101
 3930POPC   C4B50290  21.964  42.031   7.423
 3931POPC   NC350291  12.707  20.008   5.098
 3931POPC   PO450292  12.935  20.174   5.667
 3931POPC   GL150293  12.653  20.001   5.864
 3931POPC   GL250294  12.744  19.679   5.690
 3931POPC   C1A50295  12.646  19.991   6.282
 3931POPC   D2A50296  13.022  20.066   6.438
 3931POPC   C3A50297  13.037  19.970   6.842
 3931POPC   C4A50298  12.817  20.165   7.154
 3931POPC   C1B50299  12.985  19.648   6.088
 3931POPC   C2B50300  12.850  19.573   6.511
 3931POPC   C3B50301  12.803  19.514   6.948
 3931POPC   C4B50302  13.049  19.696   7.280
 3932POPC   NC350303  24.396  44.301   5.352
 3932POPC   PO450304  24.562  43.648   5.368
 3932POPC   GL150305  24.523  43.906   5.736
 3932POPC   GL250306  24.240  44.114   5.817
 3932POPC   C1A50307  24.588  44.049   6.171
 3932POPC   D2A50308  24.617  44.191   6.592
 3932POPC   C3A50309  24.531  43.794   6.749
 3932POPC   C4A50310  24.669  43.566   7.093
 3932POPC   C1B50311  23.973  44.147   6.171
 3932POPC   C2B50312  24.113  44.102   6.607
 3932POPC   C3B50313  24.167  43.988   7.046
 3932POPC   C4B50314  24.611  44.056   7.180
 3933POPC   NC350315  22.017  15.385   5.474
 3933POPC   PO450316  22.690  15.266   5.415
 3933POPC   GL150317  22.388  15.342   5.829
 3933POPC   GL250318  22.096  15.064   5.880
 3933POPC   C1A50319  22.200  15.394   6.270
 3933POPC   D2A50320  22.130  15.214   6.677
 3933POPC   C3A50321  22.085  15.499   6.986
 3933POPC   C4A50322  22.297  15.463   7.359
 3933POPC   C1B50323  21.894  14.959   6.290
 3933POPC   C2B50324  21.990  14.719   6.679
 3933POPC   C3B50325  22.077  14.897   7.105
 3933POPC   C4B50326  21.693  14.936   7.371
 3934POPC   NC350327  30.825  20.040   5.482
 3934POPC   PO450328  30.627  19.469   5.171
 3934POPC   GL150329  30.579  19.563   5.677
 3934POPC   GL250330  30.806  19.803   5.924
 3934POPC   C1A50331  30.504  19.522   6.175
 3934POPC   D2A50332  30.697  19.770   6.531
 3934POPC   C3A50333  30.572  19.638   6.945
 3934POPC   C4A50334  30.338  19.467   7.286
 3934POPC   C1B50335  31.031  20.043   6.234
 3934POPC   C2B50336  31.219  20.038   6.614
 3934POPC   C3B50337  31.077  20.137   6.995
 3934POPC   C4B50338  30.788  19.958   7.284
 3935POPC   NC350339  37.888  30.107   5.428
 3935POPC   PO450340  37.357  29.722   5.452
 3935POPC   GL150341  37.603  29.850   5.819
 3935POPC   GL250342  37.817  30.155   5.928
 3935POPC   C1A50343  37.787  29.721   6.204
 3935POPC   D2A50344  37.752  29.998   6.513
 3935POPC   C3A50345  37.500  29.804   6.799
 3935POPC   C4A50346  37.630  29.758   7.242
 3935POPC   C1B50347  37.423  30.259   6.133
 3935POPC   C2B50348  37.333  30.291   6.584
 3935POPC   C3B50349  37.608  30.259   6.967
 3935POPC   C4B50350  37.493  30.398   7.357
 3936POPC   NC350351  34.392  23.087   5.311
 3936POPC   PO450352  34.932  23.413   5.582
 3936POPC   GL150353  34.766  23.230   5.947
 3936POPC   GL250354  34.449  23.099   5.817
 3936POPC   C1A50355  34.807  23.078   6.371
 3936POPC   D2A50356  34.822  22.678   6.570
 3936POPC   C3A50357  34.934  22.766   7.016
 3936POPC   C4A50358  34.740  23.113   7.267
 3936POPC   C1B50359  34.492  22.782   6.127
 3936POPC   C2B50360  34.313  22.789   6.504
 3936POPC   C3B50361  34.456  22.858   6.867
 3936POPC   C4B50362  34.407  22.694   7.224
 3937POPC   NC350363   7.159  29.632   5.175
 3937POPC   PO450364   7.552  30.173   5.390
 3937POPC   GL150365   7.463  29.844   5.663
 3937POPC   GL250366   7.118  29.887   5.746
 3937POPC   C1A50367   7.487  29.731   6.112
 3937POPC   D2A50368   7.515  29.922   6.532
 3937POPC   C3A50369   7.342  29.718   6.866
 3937POPC   C4A50370   7.175  29.820   7.262
 3937POPC   C1B50371   7.109  30.087   6.195
 3937POPC   C2B50372   7.025  30.216   6.641
 3937POPC   C3B50373   7.242  30.317   7.049
 3937POPC   C4B50374   7.375  30.322   7.507
 3938POPC   NC350375  41.196  15.531   5.606
 3938POPC   PO450376  40.861  14.960   5.336
 3938POPC   GL150377  40.853  15.125   5.742
 3938POPC   GL250378  40.652  15.419   5.740
 3938POPC   C1A50379  40.630  15.051   6.145
 3938POPC   D2A50380  40.678  15.269   6.534
 3938POPC   C3A50381  40.653  15.168   6.958
 3938POPC   C4A50382  40.997  15.134   7.210
 3938POPC   C1B50383  40.503  15.576   6.161
 3938POPC   C2B50384  40.413  15.681   6.609
 3938POPC   C3B50385  40.766  15.685   6.895
 3938POPC   C4B50386  40.816  15.597   7.351
 3939POPC   NC350387  10.242   5.861   5.377
 3939POPC   PO450388  10.909   5.637   5.336
 3939POPC   GL150389  10.699   5.882   5.730
 3939POPC   GL250390  10.380   6.113   5.808
 3939POPC   C1A50391  10.686   5.946   6.196
 3939POPC   D2A50392  10.757   6.168   6.587
 3939POPC   C3A50393  10.622   5.891   6.898
 3939POPC   C4A50394  10.754   5.891   7.314
 3939POPC   C1B50395  10.201   5.814   6.117
 3939POPC   C2B50396  10.303   5.642   6.545
 3939POPC   C3B50397  10.125   5.659   6.940
 3939POPC   C4B50398  10.230   5.962   7.240
 3940POPC   NC350399   3.517  43.920   5.363
 3940POPC   PO450400   4.080  43.689   5.694
 3940POPC   GL150401   3.660  43.731   5.839
 3940POPC   GL250402   3.520  44.068   5.872
 3940POPC   C1A50403   3.589  43.560   6.227
 3940POPC   D2A50404   3.703  43.741   6.605
 3940POPC   C3A50405   3.496  43.638   6.986
 3940POPC   C4A50406   3.613  43.670   7.409
 3940POPC   C1B50407   3.384  44.058   6.316
 3940POPC   C2B50408   3.381  44.088   6.788
 3940POPC   C3B50409   3.756  44.094   7.041
 3940POPC   C4B50410   3.840  44.164   7.472
 3941POPC   NC350411  20.109  18.649   5.444
 3941POPC   PO450412  19.693  18.085   5.516
 3941POPC   GL150413  19.724  18.220   5.861
 3941POPC   GL250414  19.706  18.571   5.752
 3941POPC   C1A50415  19.855  18.083   6.289
 3941POPC   D2A50416  20.111  17.995   6.666
 3941POPC   C3A50417  19.932  18.078   7.046
 3941POPC   C4A50418  20.237  18.316   7.234
 3941POPC   C1B50419  19.957  18.564   6.127
 3941POPC   C2B50420  19.973  18.547   6.559
 3941POPC   C3B50421  19.907  18.608   6.989
 3941POPC   C4B50422  19.785  18.479   7.404
 3942POPC   NC350423   2.020   4.650   5.444
 3942POPC   PO450424   2.280   5.263   5.503
 3942POPC   GL150425   2.045   5.060   5.823
 3942POPC   GL250426   2.205   4.725   5.900
 3942POPC   C1A50427   1.816   5.264   6.198
 3942POPC   D2A50428   1.654   5.131   6.601
 3942POPC   C3A50429   1.844   5.390   6.913
 3942POPC   C4A50430   1.918   5.237   7.318
 3942POPC   C1B50431   1.930   4.780   6.253
 3942POPC   C2B50432   1.887   4.657   6.683
 3942POPC   C3B50433   2.101   4.804   7.049
 3942POPC   C4B50434   2.130   4.820   7.533
 3943POPC   NC350435  11.253  23.486   5.502
 3943POPC   PO450436  11.652  24.030   5.366
 3943POPC   GL150437  11.479  23.876   5.780
 3943POPC   GL250438  11.089  23.848   5.830
 3943POPC   C1A50439  11.398  23.846   6.239
 3943POPC   D2A50440  11.340  23.658   6.653
 3943POPC   C3A50441  11.512  23.858   7.026
 3943POPC   C4A50442  11.499  23.490   7.241
 3943POPC   C1B50443  10.982  23.488   6.127
 3943POPC   C2B50444  10.899  23.246   6.508
 3943POPC   C3B50445  11.052  23.276   6.930
 3943POPC   C4B50446  10.991  23.582   7.246
 3944POPC   NC350447  28.887   5.839   5.199
 3944POPC   PO450448  29.488   5.798   5.389
 3944POPC   GL150449  29.261   5.667   5.810
 3944POPC   GL250450  28.905   5.704   5.784
 3944POPC   C1A50451  29.277   5.710   6.300
 3944POPC   D2A50452  29.339   5.664   6.782
 3944POPC   C3A50453  29.235   5.975   7.100
 3944POPC   C4A50454  29.277   6.226   7.498
 3944POPC   C1B50455  28.856   5.449   6.154
 3944POPC   C2B50456  28.886   5.467   6.614
 3944POPC   C3B50457  28.763   5.591   7.057
 3944POPC   C4B50458  28.540   5.810   7.426
 3945POPC   NC350459   6.900  44.367   5.517
 3945POPC   PO450460   6.449  43.973   5.251
 3945POPC   GL150461   6.655  43.858   5.636
 3945POPC   GL250462   6.437  44.110   5.786
 3945POPC   C1A50463   6.595  43.714   6.075
 3945POPC   D2A50464   6.779  43.861   6.441
 3945POPC   C3A50465   6.440  43.946   6.716
 3945POPC   C4A50466   6.505  43.740   7.081
 3945POPC   C1B50467   6.576  44.275   6.179
 3945POPC   C2B50468   6.768  44.333   6.597
 3945POPC   C3B50469   6.863  44.143   6.964
 3945POPC   C4B50470   6.511  44.228   7.206
 3946POPC   NC350471  32.080  23.741   5.343
 3946POPC   PO450472  32.168  23.065   5.141
 3946POPC   GL150473  32.119  23.252   5.632
 3946POPC   GL250474  31.838  23.468   5.698
 3946POPC   C1A50475  32.234  23.443   6.104
 3946POPC   D2A50476  32.493  23.728   6.413
 3946POPC   C3A50477  32.408  23.685   6.871
 3946POPC   C4A50478  32.085  23.443   7.090
 3946POPC   C1B50479  31.974  23.847   5.967
 3946POPC   C2B50480  31.964  23.799   6.411
 3946POPC   C3B50481  31.900  23.848   6.834
 3946POPC   C4B50482  32.132  23.991   7.206
 3947POPC   NC350483   6.243  38.496   5.455
 3947POPC   PO450484   6.782  38.069   5.497
 3947POPC   GL150485   6.639  38.368   5.782
 3947POPC   GL250486   6.347  38.192   5.868
 3947POPC   C1A50487   6.584  38.596   6.165
 3947POPC   D2A50488   6.576  38.383   6.569
 3947POPC   C3A50489   6.488  38.564   6.966
 3947POPC   C4A50490   6.826  38.770   7.160
 3947POPC   C1B50491   6.138  38.328   6.252
 3947POPC   C2B50492   6.080  38.372   6.679
 3947POPC   C3B50493   6.113  38.073   6.993
 3947POPC   C4B50494   6.332  38.235   7.355
 3948POPC   NC350495  34.925  29.385   5.238
 3948POPC   PO450496  34.305  29.121   5.386
 3948POPC   GL150497  34.647  29.159   5.755
 3948POPC   GL250498  34.518  29.404   6.018
 3948POPC   C1A50499  34.988  29.276   6.098
 3948POPC   D2A50500  34.954  29.410   6.523
 3948POPC   C3A50501  34.671  29.219   6.816
 3948POPC   C4A50502  34.754  29.104   7.247
 3948POPC   C1B50503  34.383  29.000   6.190
 3948POPC   C2B50504  34.497  28.771   6.544
 3948POPC   C3B50505  34.363  28.773   6.959
 3948POPC   C4B50506  34.116  28.791   7.356
 3949POPC   NC350507  14.262  43.635   5.523
 3949POPC   PO450508  14.752  44.186   5.441
 3949POPC   GL150509  14.657  44.097   5.851
 3949POPC   GL250510  14.324  43.977   5.892
 3949POPC   C1A50511  14.581  44.155   6.278
 3949POPC   D2A50512  14.704  44.111   6.649
 3949POPC   C3A50513  14.648  43.691   6.754
 3949POPC   C4A50514  14.581  43.807   7.169
 3949POPC   C1B50515  14.154  43.807   6.254
 3949POPC   C2B50516  14.181  43.963   6.680
 3949POPC   C3B50517  14.155  44.072   7.121
 3949POPC   C4B50518  14.157  43.849   7.502
 3950POPC   NC350519  41.943   9.176   5.721
 3950POPC   PO450520  42.512   8.917   5.328
 3950POPC   GL150521  42.369   8.898   5.769
 3950POPC   GL250522  42.574   9.160   5.876
 3950POPC   C1A50523  42.136   8.788   6.201
 3950POPC   D2A50524  42.318   8.698   6.605
 3950POPC   C3A50525  42.210   8.743   7.013
 3950POPC   C4A50526  42.621   8.815   7.222
 3950POPC   C1B50527  42.370   9.239   6.278
 3950POPC   C2B50528  42.055   9.142   6.601
 3950POPC   C3B50529  42.335   9.204   6.924
 3950POPC   C4B50530  42.489   9.400   7.237
 3951POPC   NC350531   3.149  23.846   5.559
 3951POPC   PO450532   2.485  23.959   5.325
 3951POPC   GL150533   2.654  23.746   5.777
 3951POPC   GL250534   2.969  23.459   5.813
 3951POPC   C1A50535   2.877  23.822   6.188
 3951POPC   D2A50536   2.902  24.039   6.578
 3951POPC   C3A50537   2.767  23.859   6.984
 3951POPC   C4A50538   2.796  23.580   7.315
 3951POPC   C1B50539   3.171  23.423   6.224
 3951POPC   C2B50540   2.978  23.499   6.641
 3951POPC   C3B50541   3.172  23.418   7.058
 3951POPC   C4B50542   3.228  23.444   7.512
 3952POPC   NC350543  25.506  24.087   5.386
 3952POPC   PO450544  25.147  24.712   5.143
 3952POPC   GL150545  25.262  24.518   5.574
 3952POPC   GL250546  25.593  24.635   5.709
 3952POPC   C1A50547  25.115  24.492   6.020
 3952POPC   D2A50548  25.136  24.640   6.459
 3952POPC   C3A50549  25.340  24.438   6.827
 3952POPC   C4A50550  25.116  24.576   7.210
 3952POPC   C1B50551  25.602  24.404   6.128
 3952POPC   C2B50552  25.788  24.314   6.534
 3952POPC   C3B50553  25.845  24.554   6.907
 3952POPC   C4B50554  25.607  24.670   7.265
 3953POPC   NC350555   2.007   9.745   5.275
 3953POPC   PO450556   1.718   9.139   5.466
 3953POPC   GL150557   1.830   9.514   5.767
 3953POPC   GL250558   2.073   9.818   5.759
 3953POPC   C1A50559   1.780   9.754   6.173
 3953POPC   D2A50560   1.591   9.802   6.580
 3953POPC   C3A50561   1.799   9.848   6.940
 3953POPC   C4A50562   2.035   9.503   7.061
 3953POPC   C1B50563   2.234   9.938   6.160
 3953POPC   C2B50564   2.184   9.792   6.586
 3953POPC   C3B50565   2.295   9.975   6.996
 3953POPC   C4B50566   2.317  10.275   7.344
 3954POPC   NC350567  33.354  17.433   4.899
 3954POPC   PO450568  33.065  17.685   5.453
 3954POPC   GL150569  32.830  17.488   5.784
 3954POPC   GL250570  32.718  17.726   5.943
 3954POPC   C1A50571  32.854  17.314   6.211
 3954POPC   D2A50572  33.214  17.387   6.492
 3954POPC   C3A50573  33.177  17.266   6.907
 3954POPC   C4A50574  32.971  17.329   7.306
 3954POPC   C1B50575  33.038  17.784   6.215
 3954POPC   C2B50576  32.912  17.798   6.641
 3954POPC   C3B50577  32.998  17.756   7.066
 3954POPC   C4B50578  32.754  17.797   7.469
 3955POPC   NC350579   1.199  42.178   5.206
 3955POPC   PO450580   0.994  42.595   5.605
 3955POPC   GL150581   1.295  42.285   5.711
 3955POPC   GL250582   1.354  42.542   5.958
 3955POPC   C1A50583   1.356  42.051   6.108
 3955POPC   D2A50584   1.233  42.354   6.428
 3955POPC   C3A50585   1.267  42.346   6.874
 3955POPC   C4A50586   1.050  42.254   7.274
 3955POPC   C1B50587   1.510  42.816   6.230
 3955POPC   C2B50588   1.573  42.677   6.615
 3955POPC   C3B50589   1.573  42.814   6.992
 3955POPC   C4B50590   1.465  42.839   7.402
 3956POPC   NC350591   4.923   8.459   5.392
 3956POPC   PO450592   5.472   8.017   5.379
 3956POPC   GL150593   5.366   8.155   5.774
 3956POPC   GL250594   4.997   8.201   5.839
 3956POPC   C1A50595   5.322   8.038   6.195
 3956POPC   D2A50596   5.014   8.075   6.501
 3956POPC   C3A50597   5.226   8.048   6.881
 3956POPC   C4A50598   5.033   8.066   7.253
 3956POPC   C1B50599   4.704   8.445   6.096
 3956POPC   C2B50600   4.668   8.611   6.535
 3956POPC   C3B50601   4.847   8.411   6.888
 3956POPC   C4B50602   5.219   8.524   7.118
 3957POPC   NC350603   7.315  11.118   5.282
 3957POPC   PO450604   7.337  11.704   5.564
 3957POPC   GL150605   7.613  11.361   5.643
 3957POPC   GL250606   7.771  11.553   5.845
 3957POPC   C1A50607   7.556  11.084   6.026
 3957POPC   D2A50608   7.307  11.161   6.416
 3957POPC   C3A50609   7.474  11.122   6.841
 3957POPC   C4A50610   7.232  11.060   7.222
 3957POPC   C1B50611   7.528  11.600   6.226
 3957POPC   C2B50612   7.488  11.616   6.681
 3957POPC   C3B50613   7.272  11.561   7.059
 3957POPC   C4B50614   7.603  11.438   7.313
 3958POPC   NC350615  24.784  11.735   5.484
 3958POPC   PO450616  24.300  12.268   5.495
 3958POPC   GL150617  24.563  12.087   5.788
 3958POPC   GL250618  24.312  11.824   5.814
 3958POPC   C1A50619  24.757  11.889   6.174
 3958POPC   D2A50620  24.672  12.019   6.620
 3958POPC   C3A50621  24.747  11.875   7.061
 3958POPC   C4A50622  24.449  12.014   7.399
 3958POPC   C1B50623  24.254  11.999   6.206
 3958POPC   C2B50624  24.214  11.750   6.560
 3958POPC   C3B50625  24.229  11.922   6.941
 3958POPC   C4B50626  23.987  11.879   7.300
 3959POPC   NC350627  44.363  33.195   5.171
 3959POPC   PO450628  44.766  32.872   5.700
 3959POPC   GL150629  44.864  32.916   6.088
 3959POPC   GL250630  44.783  33.288   6.065
 3959POPC   C1A50631  44.907  33.027   6.497
 3959POPC   D2A50632  44.607  33.156   6.766
 3959POPC   C3A50633  44.785  33.277   7.086
 3959POPC   C4A50634  44.594  33.048   7.369
 3959POPC   C1B50635  44.410  33.088   6.301
 3959POPC   C2B50636  44.122  33.254   6.603
 3959POPC   C3B50637  44.159  33.136   7.049
 3959POPC   C4B50638  44.139  33.177   7.488
 3960POPC   NC350639   0.408  43.728   5.518
 3960POPC   PO450640   0.911  43.504   5.735
 3960POPC   GL150641   0.562  43.713   5.989
 3960POPC   GL250642   0.439  44.100   5.905
 3960POPC   C1A50643   0.307  43.834   6.324
 3960POPC   D2A50644   0.494  44.032   6.671
 3960POPC   C3A50645   0.517  43.655   6.908
 3960POPC   C4A50646   0.244  43.474   7.201
 3960POPC   C1B50647   0.105  44.286   6.217
 3960POPC   C2B50648  44.984  44.120   6.668
 3960POPC   C3B50649   0.147  43.969   7.056
 3960POPC   C4B50650   0.290  44.072   7.455
 3961POPC   NC350651   1.451  42.792   5.523
 3961POPC   PO450652   1.219  43.382   5.273
 3961POPC   GL150653   1.202  43.117   5.788
 3961POPC   GL250654   0.879  42.997   5.911
 3961POPC   C1A50655   1.223  43.241   6.236
 3961POPC   D2A50656   1.408  43.168   6.613
 3961POPC   C3A50657   1.226  43.205   6.988
 3961POPC   C4A50658   1.334  43.389   7.370
 3961POPC   C1B50659   0.984  42.782   6.266
 3961POPC   C2B50660   1.061  42.785   6.688
 3961POPC   C3B50661   1.067  42.741   7.111
 3961POPC   C4B50662   0.994  43.009   7.410
 3962POPC   NC350663  27.275  11.407   5.543
 3962POPC   PO450664  27.475  12.148   5.305
 3962POPC   GL150665  27.443  12.093   5.758
 3962POPC   GL250666  27.165  11.873   5.714
 3962POPC   C1A50667  27.432  12.282   6.193
 3962POPC   D2A50668  27.420  12.433   6.644
 3962POPC   C3A50669  27.591  12.133   6.944
 3962POPC   C4A50670  27.971  11.966   7.203
 3962POPC   C1B50671  27.135  11.832   6.170
 3962POPC   C2B50672  27.234  11.827   6.610
 3962POPC   C3B50673  27.274  11.679   7.011
 3962POPC   C4B50674  27.494  11.854   7.351
 3963POPC   NC350675  22.881   7.046   5.068
 3963POPC   PO450676  23.022   6.517   5.535
 3963POPC   GL150677  22.854   6.609   5.904
 3963POPC   GL250678  22.756   6.933   5.798
 3963POPC   C1A50679  23.080   6.649   6.303
 3963POPC   D2A50680  23.208   6.955   6.623
 3963POPC   C3A50681  23.188   6.742   7.032
 3963POPC   C4A50682  22.823   6.543   7.244
 3963POPC   C1B50683  22.714   6.998   6.235
 3963POPC   C2B50684  22.695   6.819   6.657
 3963POPC   C3B50685  22.759   7.020   7.069
 3963POPC   C4B50686  22.670   6.970   7.508
 3964POPC   NC350687  40.104  31.412   5.279
 3964POPC   PO450688  40.382  31.865   5.626
 3964POPC   GL150689  40.133  31.503   5.840
 3964POPC   GL250690  40.174  31.146   5.704
 3964POPC   C1A50691  40.001  31.476   6.316
 3964POPC   D2A50692  40.104  31.402   6.790
 3964POPC   C3A50693  39.740  31.467   7.063
 3964POPC   C4A50694  39.603  31.895   7.222
 3964POPC   C1B50695  40.149  31.040   6.116
 3964POPC   C2B50696  40.367  31.013   6.512
 3964POPC   C3B50697  40.323  30.944   6.952
 3964POPC   C4B50698  40.241  31.182   7.333
 3965POPC   NC350699   4.455  43.686   5.444
 3965POPC   PO450700   4.007  44.261   5.321
 3965POPC   GL150701   4.040  44.189   5.782
 3965POPC   GL250702   4.402  44.083   5.839
 3965POPC   C1A50703   3.913  44.088   6.222
 3965POPC   D2A50704   4.095  44.103   6.653
 3965POPC   C3A50705   4.135  43.725   6.872
 3965POPC   C4A50706   4.073  43.751   7.282
 3965POPC   C1B50707   4.435  44.143   6.269
 3965POPC   C2B50708   4.587  43.926   6.641
 3965POPC   C3B50709   4.579  43.855   7.075
 3965POPC   C4B50710   4.318  44.202   7.238
 3966POPC   NC350711  26.989  39.198   5.524
 3966POPC   PO450712  26.447  39.439   5.183
 3966POPC   GL150713  26.481  39.175   5.667
 3966POPC   GL250714  26.666  38.903   5.791
 3966POPC   C1A50715  26.698  39.267   6.171
 3966POPC   D2A50716  26.998  39.550   6.439
 3966POPC   C3A50717  26.912  39.523   6.899
 3966POPC   C4A50718  27.159  39.437   7.291
 3966POPC   C1B50719  26.966  38.849   6.181
 3966POPC   C2B50720  27.019  39.038   6.592
 3966POPC   C3B50721  26.986  39.027   7.038
 3966POPC   C4B50722  26.715  39.172   7.379
 3967POPC   NC350723   8.243  39.756   5.517
 3967POPC   PO450724   7.846  40.249   5.774
 3967POPC   GL150725   8.233  40.023   5.941
 3967POPC   GL250726   8.103  39.671   6.018
 3967POPC   C1A50727   8.536  40.070   6.294
 3967POPC   D2A50728   8.386  40.176   6.720
 3967POPC   C3A50729   8.329  40.076   7.190
 3967POPC   C4A50730   8.508  39.915   7.585
 3967POPC   C1B50731   7.973  39.959   6.363
 3967POPC   C2B50732   7.917  39.932   6.787
 3967POPC   C3B50733   7.856  40.264   7.056
 3967POPC   C4B50734   7.853  40.264   7.479
 3968POPC   NC350735  41.427  19.783   5.196
 3968POPC   PO450736  41.733  20.335   5.200
 3968POPC   GL150737  41.759  19.978   5.573
 3968POPC   GL250738  41.441  19.879   5.698
 3968POPC   C1A50739  41.760  19.792   6.064
 3968POPC   D2A50740  41.533  19.653   6.473
 3968POPC   C3A50741  41.618  19.803   6.912
 3968POPC   C4A50742  41.508  19.587   7.319
 3968POPC   C1B50743  41.190  19.758   6.053
 3968POPC   C2B50744  41.064  19.830   6.473
 3968POPC   C3B50745  41.118  19.882   6.878
 3968POPC   C4B50746  41.293  20.052   7.242
 3969POPC   NC350747   4.206  18.764   5.137
 3969POPC   PO450748   4.591  18.216   5.357
 3969POPC   GL150749   4.489  18.206   5.860
 3969POPC   GL250750   4.255  17.972   5.989
 3969POPC   C1A50751   4.373  18.413   6.233
 3969POPC   D2A50752   4.288  18.294   6.631
 3969POPC   C3A50753   4.509  18.496   6.927
 3969POPC   C4A50754   4.322  18.292   7.243
 3969POPC   C1B50755   4.448  17.880   6.358
 3969POPC   C2B50756   4.209  17.732   6.684
 3969POPC   C3B50757   4.106  17.855   7.077
 3969POPC   C4B50758   3.884  18.078   7.380
 3970POPC   NC350759  36.684  35.585   5.244
 3970POPC   PO450760  37.169  35.112   5.209
 3970POPC   GL150761  37.028  35.344   5.662
 3970POPC   GL250762  36.747  35.349   5.939
 3970POPC   C1A50763  37.204  35.492   6.084
 3970POPC   D2A50764  36.938  35.342   6.446
 3970POPC   C3A50765  36.987  35.428   6.902
 3970POPC   C4A50766  37.086  35.644   7.304
 3970POPC   C1B50767  36.620  34.992   6.230
 3970POPC   C2B50768  36.627  34.808   6.669
 3970POPC   C3B50769  36.518  34.980   7.080
 3970POPC   C4B50770  36.689  35.328   7.324
 3971POPC   NC350771  34.999  27.840   5.179
 3971POPC   PO450772  34.465  27.512   5.442
 3971POPC   GL150773  34.568  27.731   5.787
 3971POPC   GL250774  34.846  27.519   5.805
 3971POPC   C1A50775  34.491  27.611   6.204
 3971POPC   D2A50776  34.628  27.435   6.583
 3971POPC   C3A50777  34.476  27.629   6.943
 3971POPC   C4A50778  34.343  27.431   7.299
 3971POPC   C1B50779  35.008  27.550   6.219
 3971POPC   C2B50780  34.966  27.831   6.584
 3971POPC   C3B50781  34.997  27.662   7.000
 3971POPC   C4B50782  34.768  27.813   7.339
 3972POPC   NC350783  30.246   1.214   5.476
 3972POPC   PO450784  29.573   1.421   5.568
 3972POPC   GL150785  29.867   1.260   5.899
 3972POPC   GL250786  30.233   1.346   5.961
 3972POPC   C1A50787  29.902   1.290   6.357
 3972POPC   D2A50788  29.838   1.621   6.662
 3972POPC   C3A50789  29.642   1.465   7.022
 3972POPC   C4A50790  29.783   1.235   7.394
 3972POPC   C1B50791  30.306   0.951   6.207
 3972POPC   C2B50792  30.122   0.867   6.594
 3972POPC   C3B50793  30.056   1.161   6.923
 3972POPC   C4B50794  30.279   1.156   7.308
 3973POPC   NC350795  43.246  30.003   5.217
 3973POPC   PO450796  43.108  29.454   5.605
 3973POPC   GL150797  43.025  29.824   5.875
 3973POPC   GL250798  42.999  30.175   5.764
 3973POPC   C1A50799  43.064  29.984   6.310
 3973POPC   D2A50800  42.884  29.917   6.715
 3973POPC   C3A50801  43.182  29.741   7.000
 3973POPC   C4A50802  43.569  29.621   7.170
 3973POPC   C1B50803  42.634  30.136   6.081
 3973POPC   C2B50804  42.613  30.336   6.507
 3973POPC   C3B50805  42.851  30.398   6.882
 3973POPC   C4B50806  42.988  30.202   7.259
 3974POPC   NC350807  41.167  30.300   5.496
 3974POPC   PO450808  40.736  29.739   5.531
 3974POPC   GL150809  40.780  30.073   5.761
 3974POPC   GL250810  40.447  30.194   5.663
 3974POPC   C1A50811  40.921  29.994   6.183
 3974POPC   D2A50812  41.066  30.115   6.599
 3974POPC   C3A50813  40.944  29.763   6.825
 3974POPC   C4A50814  40.629  29.778   7.108
 3974POPC   C1B50815  40.418  30.100   6.107
 3974POPC   C2B50816  40.569  30.191   6.516
 3974POPC   C3B50817  40.488  30.253   6.934
 3974POPC   C4B50818  40.327  30.125   7.308
 3975POPC   NC350819  10.385   1.068   5.562
 3975POPC   PO450820   9.943   1.269   5.115
 3975POPC   GL150821   9.730   1.317   5.542
 3975POPC   GL250822   9.964   1.486   5.778
 3975POPC   C1A50823   9.679   1.115   5.981
 3975POPC   D2A50824   9.835   1.159   6.382
 3975POPC   C3A50825   9.645   1.116   6.819
 3975POPC   C4A50826   9.830   0.810   7.110
 3975POPC   C1B50827  10.090   1.610   6.211
 3975POPC   C2B50828  10.238   1.565   6.640
 3975POPC   C3B50829  10.039   1.475   7.040
 3975POPC   C4B50830   9.881   1.740   7.374
 3976POPC   NC350831  26.080  42.482   5.383
 3976POPC   PO450832  26.589  42.176   5.584
 3976POPC   GL150833  26.222  42.310   5.847
 3976POPC   GL250834  25.849  42.399   5.825
 3976POPC   C1A50835  26.100  42.316   6.279
 3976POPC   D2A50836  26.110  42.000   6.611
 3976POPC   C3A50837  26.107  42.187   7.047
 3976POPC   C4A50838  26.090  42.121   7.528
 3976POPC   C1B50839  25.690  42.637   6.153
 3976POPC   C2B50840  25.793  42.768   6.571
 3976POPC   C3B50841  25.768  42.692   7.027
 3976POPC   C4B50842  26.028  42.610   7.358
 3977POPC   NC350843   5.462   0.916   5.509
 3977POPC   PO450844   5.943   1.359   5.281
 3977POPC   GL150845   5.927   1.257   5.719
 3977POPC   GL250846   5.679   1.485   5.788
 3977POPC   C1A50847   5.824   1.168   6.183
 3977POPC   D2A50848   5.624   1.253   6.603
 3977POPC   C3A50849   5.734   1.061   7.026
 3977POPC   C4A50850   5.831   1.184   7.468
 3977POPC   C1B50851   6.032   1.639   6.099
 3977POPC   C2B50852   6.203   1.544   6.524
 3977POPC   C3B50853   5.964   1.512   6.902
 3977POPC   C4B50854   5.942   1.671   7.266
 3978POPC   NC350855  43.259   2.522   5.195
 3978POPC   PO450856  42.769   2.947   5.372
 3978POPC   GL150857  43.000   2.904   5.764
 3978POPC   GL250858  43.342   2.836   5.752
 3978POPC   C1A50859  43.012   3.010   6.187
 3978POPC   D2A50860  43.018   2.660   6.469
 3978POPC   C3A50861  42.923   2.738   6.877
 3978POPC   C4A50862  42.958   2.997   7.223
 3978POPC   C1B50863  43.434   2.739   6.150
 3978POPC   C2B50864  43.492   2.477   6.489
 3978POPC   C3B50865  43.289   2.369   6.847
 3978POPC   C4B50866  43.280   2.590   7.231
 3979POPC   NC350867   1.094  10.139   5.373
 3979POPC   PO450868   1.432  10.766   5.438
 3979POPC   GL150869   1.557  10.672   5.856
 3979POPC   GL250870   1.327  10.378   5.789
 3979POPC   C1A50871   1.561  10.700   6.328
 3979POPC   D2A50872   1.165  10.812   6.594
 3979POPC   C3A50873   1.174  10.783   7.041
 3979POPC   C4A50874   1.488  10.870   7.353
 3979POPC   C1B50875   1.122  10.501   6.160
 3979POPC   C2B50876   0.870  10.357   6.489
 3979POPC   C3B50877   0.909  10.254   6.890
 3979POPC   C4B50878   1.226  10.283   7.187
 3980POPC   NC350879  16.326   3.896   5.498
 3980POPC   PO450880  16.324   3.218   5.341
 3980POPC   GL150881  16.473   3.420   5.725
 3980POPC   GL250882  16.840   3.336   5.772
 3980POPC   C1A50883  16.608   3.529   6.182
 3980POPC   D2A50884  16.809   3.471   6.611
 3980POPC   C3A50885  16.578   3.570   7.020
 3980POPC   C4A50886  16.538   3.977   7.278
 3980POPC   C1B50887  16.993   3.141   6.159
 3980POPC   C2B50888  17.113   3.042   6.562
 3980POPC   C3B50889  17.154   3.036   7.013
 3980POPC   C4B50890  16.875   3.222   7.334
 3981POPC   NC350891  37.606  17.081   5.405
 3981POPC   PO450892  37.773  17.765   5.452
 3981POPC   GL150893  37.814  17.452   5.784
 3981POPC   GL250894  37.496  17.296   5.863
 3981POPC   C1A50895  37.894  17.490   6.235
 3981POPC   D2A50896  37.858  17.779   6.601
 3981POPC   C3A50897  37.974  17.582   7.016
 3981POPC   C4A50898  37.920  17.578   7.508
 3981POPC   C1B50899  37.175  17.206   6.185
 3981POPC   C2B50900  37.036  17.077   6.614
 3981POPC   C3B50901  37.161  17.216   7.018
 3981POPC   C4B50902  37.574  17.337   7.221
 3982POPC   NC350903  44.962  36.263   5.338
 3982POPC   PO450904  44.473  35.848   5.473
 3982POPC   GL150905  44.658  36.113   5.774
 3982POPC   GL250906  44.471  36.373   5.870
 3982POPC   C1A50907  44.835  36.228   6.191
 3982POPC   D2A50908   0.109  36.126   6.519
 3982POPC   C3A50909  44.900  36.092   6.913
 3982POPC   C4A50910  44.948  36.352   7.246
 3982POPC   C1B50911  44.319  36.170   6.252
 3982POPC   C2B50912  44.422  36.084   6.686
 3982POPC   C3B50913  44.343  36.122   7.126
 3982POPC   C4B50914  44.486  36.416   7.423
 3983POPC   NC350915  18.371  44.604   5.392
 3983POPC   PO450916  17.989   0.112   5.329
 3983POPC   GL150917  18.106  44.901   5.739
 3983POPC   GL250918  18.482  44.780   5.853
 3983POPC   C1A50919  18.090  44.757   6.177
 3983POPC   D2A50920  18.320  44.642   6.557
 3983POPC   C3A50921  18.492  44.863   6.874
 3983POPC   C4A50922  18.323  44.740   7.267
 3983POPC   C1B50923  18.729  44.662   6.243
 3983POPC   C2B50924  18.761  44.372   6.605
 3983POPC   C3B50925  18.624  44.375   7.023
 3983POPC   C4B50926  18.619  44.381   7.507
 3984POPC   NC350927  40.316  29.793   5.359
 3984POPC   PO450928  39.863  30.222   5.318
 3984POPC   GL150929  39.939  30.173   5.759
 3984POPC   GL250930  40.094  29.829   5.818
 3984POPC   C1A50931  39.933  30.209   6.208
 3984POPC   D2A50932  40.118  29.954   6.542
 3984POPC   C3A50933  39.955  30.028   6.954
 3984POPC   C4A50934  39.819  29.966   7.383
 3984POPC   C1B50935  40.354  29.591   6.146
 3984POPC   C2B50936  40.491  29.597   6.597
 3984POPC   C3B50937  40.197  29.575   6.940
 3984POPC   C4B50938  40.207  29.634   7.365
 3985POPC   NC350939   8.308  12.757   5.521
 3985POPC   PO450940   7.808  13.091   5.245
 3985POPC   GL150941   7.897  12.939   5.717
 3985POPC   GL250942   7.786  12.648   5.864
 3985POPC   C1A50943   7.951  13.096   6.143
 3985POPC   D2A50944   8.271  13.096   6.495
 3985POPC   C3A50945   8.028  13.058   6.884
 3985POPC   C4A50946   8.146  13.040   7.313
 3985POPC   C1B50947   8.131  12.636   6.200
 3985POPC   C2B50948   8.157  12.611   6.651
 3985POPC   C3B50949   8.333  12.659   7.041
 3985POPC   C4B50950   8.538  12.420   7.344
 3986POPC   NC350951   3.149   3.605   5.412
 3986POPC   PO450952   2.623   3.277   5.304
 3986POPC   GL150953   2.673   3.526   5.664
 3986POPC   GL250954   2.367   3.707   5.745
 3986POPC   C1A50955   2.818   3.393   6.076
 3986POPC   D2A50956   2.687   3.161   6.440
 3986POPC   C3A50957   2.685   3.386   6.834
 3986POPC   C4A50958   2.990   3.222   7.140
 3986POPC   C1B50959   2.670   3.874   6.047
 3986POPC   C2B50960   2.669   3.747   6.453
 3986POPC   C3B50961   2.705   3.905   6.878
 3986POPC   C4B50962   2.753   3.678   7.281
 3987POPC   NC350963  30.198  36.730   5.001
 3987POPC   PO450964  30.583  36.992   5.538
 3987POPC   GL150965  30.477  36.815   5.898
 3987POPC   GL250966  30.855  36.808   5.932
 3987POPC   C1A50967  30.522  36.787   6.320
 3987POPC   D2A50968  30.690  36.618   6.658
 3987POPC   C3A50969  30.447  36.840   6.911
 3987POPC   C4A50970  30.320  36.924   7.289
 3987POPC   C1B50971  30.897  37.159   6.177
 3987POPC   C2B50972  30.766  37.143   6.623
 3987POPC   C3B50973  30.889  37.064   7.076
 3987POPC   C4B50974  30.953  36.998   7.517
 3988POPC   NC350975  15.526  27.634   5.325
 3988POPC   PO450976  14.767  27.588   5.409
 3988POPC   GL150977  14.922  27.655   5.843
 3988POPC   GL250978  15.191  27.400   5.806
 3988POPC   C1A50979  15.115  27.583   6.278
 3988POPC   D2A50980  15.136  27.379   6.718
 3988POPC   C3A50981  15.163  27.631   7.126
 3988POPC   C4A50982  15.158  27.884   7.509
 3988POPC   C1B50983  15.516  27.230   6.141
 3988POPC   C2B50984  15.630  27.167   6.613
 3988POPC   C3B50985  15.562  27.282   7.063
 3988POPC   C4B50986  15.591  27.291   7.526
 3989POPC   NC350987  37.197   1.555   5.691
 3989POPC   PO450988  37.249   2.094   5.354
 3989POPC   GL150989  36.971   2.027   5.768
 3989POPC   GL250990  36.582   2.117   5.740
 3989POPC   C1A50991  37.021   1.865   6.250
 3989POPC   D2A50992  37.318   1.974   6.612
 3989POPC   C3A50993  37.312   1.801   7.042
 3989POPC   C4A50994  37.041   1.854   7.411
 3989POPC   C1B50995  36.740   2.292   6.142
 3989POPC   C2B50996  36.931   2.310   6.545
 3989POPC   C3B50997  36.923   2.114   6.933
 3989POPC   C4B50998  36.773   2.271   7.294
 3990POPC   NC350999  37.871  18.134   5.194
 3990POPC   PO451000  37.568  18.635   5.467
 3990POPC   GL151001  37.657  18.241   5.700
 3990POPC   GL251002  37.370  18.238   5.926
 3990POPC   C1A51003  37.814  18.077   6.133
 3990POPC   D2A51004  37.726  18.285   6.539
 3990POPC   C3A51005  37.812  18.144   6.948
 3990POPC   C4A51006  37.646  17.905   7.259
 3990POPC   C1B51007  37.662  18.595   6.130
 3990POPC   C2B51008  37.592  18.785   6.556
 3990POPC   C3B51009  37.531  18.571   6.944
 3990POPC   C4B51010  37.671  18.413   7.379
 3991POPC   NC351011  36.225  21.677   5.403
 3991POPC   PO451012  35.888  21.120   5.075
 3991POPC   GL151013  36.003  21.198   5.589
 3991POPC   GL251014  35.955  21.518   5.792
 3991POPC   C1A51015  36.117  21.147   6.086
 3991POPC   D2A51016  36.235  21.291   6.524
 3991POPC   C3A51017  36.221  21.615   6.842
 3991POPC   C4A51018  36.141  21.545   7.237
 3991POPC   C1B51019  36.037  21.669   6.211
 3991POPC   C2B51020  35.785  21.584   6.594
 3991POPC   C3B51021  35.655  21.634   7.030
 3991POPC   C4B51022  35.677  21.701   7.477
 3992POPC   NC351023  24.859  37.049   5.103
 3992POPC   PO451024  24.274  36.916   5.362
 3992POPC   GL151025  24.556  36.857   5.704
 3992POPC   GL251026  24.273  36.939   5.891
 3992POPC   C1A51027  24.713  36.835   6.154
 3992POPC   D2A51028  24.786  36.920   6.596
 3992POPC   C3A51029  24.679  36.682   6.950
 3992POPC   C4A51030  24.499  36.765   7.350
 3992POPC   C1B51031  24.245  36.666   6.232
 3992POPC   C2B51032  24.306  36.742   6.618
 3992POPC   C3B51033  24.245  36.993   6.956
 3992POPC   C4B51034  23.948  36.848   7.247
 3993POPC   NC351035  41.446   0.913   5.368
 3993POPC   PO451036  41.566   1.487   5.578
 3993POPC   GL151037  41.373   1.179   5.810
 3993POPC   GL251038  41.683   1.045   5.864
 3993POPC   C1A51039  41.276   1.125   6.241
 3993POPC   D2A51040  41.351   1.418   6.613
 3993POPC   C3A51041  41.472   1.315   7.049
 3993POPC   C4A51042  41.404   1.092   7.468
 3993POPC   C1B51043  41.724   1.362   6.224
 3993POPC   C2B51044  41.878   1.300   6.648
 3993POPC   C3B51045  41.987   1.457   7.036
 3993POPC   C4B51046  41.878   1.251   7.403
 3994POPC   NC351047  39.567  19.154   5.313
 3994POPC   PO451048  38.831  19.006   5.226
 3994POPC   GL151049  39.043  18.948   5.681
 3994POPC   GL251050  39.404  18.966   5.779
 3994POPC   C1A51051  39.067  19.147   6.136
 3994POPC   D2A51052  39.045  19.365   6.552
 3994POPC   C3A51053  39.061  19.184   6.994
 3994POPC   C4A51054  39.260  19.341   7.391
 3994POPC   C1B51055  39.578  19.009   6.212
 3994POPC   C2B51056  39.585  19.248   6.613
 3994POPC   C3B51057  39.642  19.301   7.046
 3994POPC   C4B51058  39.653  18.998   7.405
 3995POPC   NC351059   3.678  17.948   5.374
 3995POPC   PO451060   3.522  17.277   5.505
 3995POPC   GL151061   3.503  17.539   5.881
 3995POPC   GL251062   3.836  17.719   5.810
 3995POPC   C1A51063   3.278  17.497   6.329
 3995POPC   D2A51064   3.234  17.472   6.796
 3995POPC   C3A51065   3.469  17.220   7.091
 3995POPC   C4A51066   3.456  17.205   7.560
 3995POPC   C1B51067   3.820  17.777   6.245
 3995POPC   C2B51068   3.700  17.598   6.617
 3995POPC   C3B51069   3.604  17.745   7.015
 3995POPC   C4B51070   3.707  17.607   7.401
 3996POPC   NC351071  30.530  11.262   5.297
 3996POPC   PO451072  31.175  11.279   5.439
 3996POPC   GL151073  30.880  11.188   5.724
 3996POPC   GL251074  30.617  11.451   5.796
 3996POPC   C1A51075  30.964  11.257   6.136
 3996POPC   D2A51076  30.796  11.338   6.512
 3996POPC   C3A51077  30.977  11.148   6.859
 3996POPC   C4A51078  30.699  11.012   7.179
 3996POPC   C1B51079  30.644  11.702   6.193
 3996POPC   C2B51080  30.438  11.767   6.611
 3996POPC   C3B51081  30.520  11.435   6.929
 3996POPC   C4B51082  30.887  11.482   7.228
 3997POPC   NC351083  31.072  34.137   5.431
 3997POPC   PO451084  30.732  33.573   5.338
 3997POPC   GL151085  30.693  33.831   5.724
 3997POPC   GL251086  30.706  34.191   5.799
 3997POPC   C1A51087  30.494  33.884   6.141
 3997POPC   D2A51088  30.356  33.705   6.504
 3997POPC   C3A51089  30.573  33.691   6.870
 3997POPC   C4A51090  30.370  33.464   7.195
 3997POPC   C1B51091  30.897  34.190   6.223
 3997POPC   C2B51092  31.064  33.940   6.595
 3997POPC   C3B51093  31.007  33.936   7.048
 3997POPC   C4B51094  30.651  33.921   7.337
 3998POPC   NC351095   7.828  42.580   5.328
 3998POPC   PO451096   8.410  42.327   5.321
 3998POPC   GL151097   8.145  42.460   5.727
 3998POPC   GL251098   7.964  42.147   5.751
 3998POPC   C1A51099   8.231  42.548   6.205
 3998POPC   D2A51100   8.426  42.490   6.650
 3998POPC   C3A51101   8.206  42.522   7.082
 3998POPC   C4A51102   8.375  42.769   7.449
 3998POPC   C1B51103   7.959  42.047   6.208
 3998POPC   C2B51104   8.244  42.007   6.574
 3998POPC   C3B51105   8.376  41.990   7.007
 3998POPC   C4B51106   8.028  42.027   7.310
 3999POPC   NC351107   3.882  27.273   5.426
 3999POPC   PO451108   3.333  27.725   5.351
 3999POPC   GL151109   3.537  27.562   5.716
 3999POPC   GL251110   3.390  27.246   5.645
 3999POPC   C1A51111   3.541  27.671   6.176
 3999POPC   D2A51112   3.249  27.781   6.528
 3999POPC   C3A51113   3.439  27.660   6.921
 3999POPC   C4A51114   3.502  27.813   7.338
 3999POPC   C1B51115   3.238  27.273   6.087
 3999POPC   C2B51116   3.350  27.275   6.530
 3999POPC   C3B51117   3.223  27.175   6.954
 3999POPC   C4B51118   3.374  27.330   7.332
 4000POPC   NC351119  16.342  33.568   5.392
 4000POPC   PO451120  15.655  33.403   5.509
 4000POPC   GL151121  15.896  33.598   5.836
 4000POPC   GL251122  16.181  33.818   5.805
 4000POPC   C1A51123  15.807  33.719   6.225
 4000POPC   D2A51124  15.796  33.490   6.581
 4000POPC   C3A51125  15.801  33.733   6.909
 4000POPC   C4A51126  15.890  33.626   7.300
 4000POPC   C1B51127  16.316  33.880   6.208
 4000POPC   C2B51128  16.152  34.012   6.603
 4000POPC   C3B51129  16.291  33.905   7.015
 4000POPC   C4B51130  16.181  34.025   7.438
 4001POPC   NC351131  17.544  40.646   5.369
 4001POPC   PO451132  17.611  41.225   5.715
 4001POPC   GL151133  17.479  40.854   5.893
 4001POPC   GL251134  17.820  40.758   5.797
 4001POPC   C1A51135  17.285  40.765   6.315
 4001POPC   D2A51136  17.139  40.490   6.653
 4001POPC   C3A51137  17.371  40.599   7.019
 4001POPC   C4A51138  17.338  40.841   7.358
 4001POPC   C1B51139  17.865  40.654   6.209
 4001POPC   C2B51140  17.714  40.715   6.630
 4001POPC   C3B51141  17.803  40.867   7.045
 4001POPC   C4B51142  17.813  40.634   7.414
 4002POPC   NC351143  24.025  18.531   5.441
 4002POPC   PO451144  23.507  18.149   5.625
 4002POPC   GL151145  23.686  18.456   5.835
 4002POPC   GL251146  23.983  18.223   5.837
 4002POPC   C1A51147  23.529  18.480   6.241
 4002POPC   D2A51148  23.389  18.235   6.583
 4002POPC   C3A51149  23.488  18.458   6.943
 4002POPC   C4A51150  23.660  18.406   7.366
 4002POPC   C1B51151  24.028  18.370   6.243
 4002POPC   C2B51152  23.909  18.228   6.624
 4002POPC   C3B51153  24.010  18.410   6.982
 4002POPC   C4B51154  24.161  18.192   7.294
 4003POPC   NC351155  33.174  41.512   5.369
 4003POPC   PO451156  32.783  42.013   5.505
 4003POPC   GL151157  33.000  41.773   5.800
 4003POPC   GL251158  33.372  41.818   5.745
 4003POPC   C1A51159  32.829  41.669   6.218
 4003POPC   D2A51160  32.851  41.910   6.606
 4003POPC   C3A51161  33.140  41.763   6.892
 4003POPC   C4A51162  33.003  41.529   7.242
 4003POPC   C1B51163  33.326  41.511   6.116
 4003POPC   C2B51164  33.142  41.384   6.532
 4003POPC   C3B51165  33.310  41.284   6.933
 4003POPC   C4B51166  33.458  41.350   7.381
 4004POPC   NC351167  16.026   0.724   5.372
 4004POPC   PO451168  16.118   0.090   5.297
 4004POPC   GL151169  15.827   0.318   5.644
 4004POPC   GL251170  15.975   0.595   5.867
 4004POPC   C1A51171  15.632   0.235   6.075
 4004POPC   D2A51172  15.786   0.093   6.486
 4004POPC   C3A51173  15.715   0.312   6.867
 4004POPC   C4A51174  15.787   0.154   7.248
 4004POPC   C1B51175  16.186   0.282   6.156
 4004POPC   C2B51176  16.355   0.216   6.595
 4004POPC   C3B51177  16.325   0.314   7.062
 4004POPC   C4B51178  16.195   0.649   7.373
 4005POPC   NC351179  41.030   4.092   5.527
 4005POPC   PO451180  40.611   3.630   5.222
 4005POPC   GL151181  40.765   3.573   5.721
 4005POPC   GL251182  41.082   3.614   5.767
 4005POPC   C1A51183  40.626   3.659   6.181
 4005POPC   D2A51184  40.414   3.889   6.565
 4005POPC   C3A51185  40.571   3.742   6.938
 4005POPC   C4A51186  40.779   3.941   7.276
 4005POPC   C1B51187  41.183   3.631   6.194
 4005POPC   C2B51188  41.232   3.590   6.595
 4005POPC   C3B51189  41.069   3.684   6.945
 4005POPC   C4B51190  40.890   3.417   7.225
 4006POPC   NC351191  19.081  35.879   5.190
 4006POPC   PO451192  19.236  36.505   5.425
 4006POPC   GL151193  19.144  36.444   5.830
 4006POPC   GL251194  18.974  36.106   5.858
 4006POPC   C1A51195  19.261  36.316   6.223
 4006POPC   D2A51196  19.046  36.065   6.488
 4006POPC   C3A51197  19.171  36.233   6.853
 4006POPC   C4A51198  19.329  36.204   7.263
 4006POPC   C1B51199  18.740  35.808   6.118
 4006POPC   C2B51200  18.592  35.776   6.538
 4006POPC   C3B51201  18.781  35.904   6.922
 4006POPC   C4B51202  18.797  35.708   7.304
 4007POPC   NC351203  34.374   9.034   5.325
 4007POPC   PO451204  33.689   8.877   5.370
 4007POPC   GL151205  33.957   8.929   5.694
 4007POPC   GL251206  33.768   8.626   5.831
 4007POPC   C1A51207  34.101   8.873   6.122
 4007POPC   D2A51208  33.872   8.962   6.487
 4007POPC   C3A51209  34.036   9.069   6.895
 4007POPC   C4A51210  33.804   9.298   7.210
 4007POPC   C1B51211  33.758   8.475   6.233
 4007POPC   C2B51212  33.581   8.539   6.629
 4007POPC   C3B51213  33.530   8.933   6.886
 4007POPC   C4B51214  33.689   8.776   7.274
 4008POPC   NC351215  18.659  39.498   5.429
 4008POPC   PO451216  17.993  39.296   5.202
 4008POPC   GL151217  18.237  39.247   5.628
 4008POPC   GL251218  18.328  39.565   5.803
 4008POPC   C1A51219  18.263  39.146   6.107
 4008POPC   D2A51220  18.354  39.325   6.544
 4008POPC   C3A51221  18.360  39.103   6.963
 4008POPC   C4A51222  18.438  39.125   7.408
 4008POPC   C1B51223  17.981  39.589   6.092
 4008POPC   C2B51224  17.829  39.529   6.508
 4008POPC   C3B51225  18.048  39.536   6.917
 4008POPC   C4B51226  17.987  39.827   7.243
 4009POPC   NC351227  15.187  44.003   5.436
 4009POPC   PO451228  14.694  43.539   5.657
 4009POPC   GL151229  15.019  43.747   5.877
 4009POPC   GL251230  15.363  43.661   5.802
 4009POPC   C1A51231  14.952  43.790   6.314
 4009POPC   D2A51232  15.177  43.904   6.645
 4009POPC   C3A51233  15.082  43.754   7.034
 4009POPC   C4A51234  14.989  43.932   7.462
 4009POPC   C1B51235  15.502  43.779   6.221
 4009POPC   C2B51236  15.646  44.060   6.541
 4009POPC   C3B51237  15.540  44.153   6.934
 4009POPC   C4B51238  15.492  43.905   7.302
 4010POPC   NC351239  26.550  30.440   5.410
 4010POPC   PO451240  27.015  29.943   5.431
 4010POPC   GL151241  26.889  29.903   5.834
 4010POPC   GL251242  26.544  29.959   5.832
 4010POPC   C1A51243  26.813  29.810   6.273
 4010POPC   D2A51244  26.737  30.006   6.683
 4010POPC   C3A51245  26.919  29.855   7.073
 4010POPC   C4A51246  26.813  29.689   7.489
 4010POPC   C1B51247  26.546  30.224   6.208
 4010POPC   C2B51248  26.369  30.388   6.614
 4010POPC   C3B51249  26.400  30.229   7.043
 4010POPC   C4B51250  26.663  30.160   7.398
 4011POPC   NC351251  38.708  30.396   5.212
 4011POPC   PO451252  38.299  30.027   5.656
 4011POPC   GL151253  38.600  30.024   5.914
 4011POPC   GL251254  38.875  30.203   5.722
 4011POPC   C1A51255  38.546  29.981   6.370
 4011POPC   D2A51256  38.238  30.118   6.681
 4011POPC   C3A51257  38.025  29.783   6.916
 4011POPC   C4A51258  38.106  29.602   7.329
 4011POPC   C1B51259  38.919  30.289   6.182
 4011POPC   C2B51260  38.977  30.156   6.601
 4011POPC   C3B51261  38.775  30.229   6.996
 4011POPC   C4B51262  38.442  29.981   7.144
 4012POPC   NC351263  39.710  18.292   5.560
 4012POPC   PO451264  39.134  18.229   5.158
 4012POPC   GL151265  39.208  18.134   5.604
 4012POPC   GL251266  39.283  18.464   5.765
 4012POPC   C1A51267  39.297  18.021   6.056
 4012POPC   D2A51268  39.234  18.191   6.487
 4012POPC   C3A51269  39.203  17.924   6.845
 4012POPC   C4A51270  39.123  17.922   7.278
 4012POPC   C1B51271  39.216  18.636   6.190
 4012POPC   C2B51272  39.239  18.842   6.616
 4012POPC   C3B51273  39.306  18.718   7.065
 4012POPC   C4B51274  39.420  18.300   7.141
 4013POPC   NC351275  30.687  43.969   5.390
 4013POPC   PO451276  31.006  43.348   5.291
 4013POPC   GL151277  30.951  43.610   5.778
 4013POPC   GL251278  30.771  43.940   5.876
 4013POPC   C1A51279  30.775  43.660   6.284
 4013POPC   D2A51280  30.735  43.785   6.745
 4013POPC   C3A51281  30.988  43.953   7.084
 4013POPC   C4A51282  31.037  43.836   7.521
 4013POPC   C1B51283  30.601  44.188   6.224
 4013POPC   C2B51284  30.754  44.279   6.609
 4013POPC   C3B51285  30.609  44.265   6.993
 4013POPC   C4B51286  30.417  44.253   7.400
 4014POPC   NC351287  22.754  19.952   5.385
 4014POPC   PO451288  23.355  19.581   5.331
 4014POPC   GL151289  23.226  19.836   5.712
 4014POPC   GL251290  23.115  20.184   5.634
 4014POPC   C1A51291  23.056  19.831   6.161
 4014POPC   D2A51292  22.931  19.654   6.566
 4014POPC   C3A51293  22.988  19.816   6.992
 4014POPC   C4A51294  23.189  19.707   7.383
 4014POPC   C1B51295  22.800  20.248   6.015
 4014POPC   C2B51296  22.793  20.160   6.496
 4014POPC   C3B51297  22.741  20.267   6.946
 4014POPC   C4B51298  22.624  20.195   7.397
 4015POPC   NC351299  34.278  15.751   5.453
 4015POPC   PO451300  34.847  16.236   5.460
 4015POPC   GL151301  34.602  16.048   5.696
 4015POPC   GL251302  34.310  16.248   5.613
 4015POPC   C1A51303  34.629  15.835   6.063
 4015POPC   D2A51304  34.685  16.050   6.442
 4015POPC   C3A51305  34.513  15.944   6.838
 4015POPC   C4A51306  34.492  15.741   7.255
 4015POPC   C1B51307  34.337  16.278   6.078
 4015POPC   C2B51308  34.171  16.264   6.501
 4015POPC   C3B51309  34.209  16.406   6.919
 4015POPC   C4B51310  34.443  16.256   7.253
 4016POPC   NC351311  26.763  13.188   5.428
 4016POPC   PO451312  27.062  12.670   5.486
 4016POPC   GL151313  26.681  12.793   5.746
 4016POPC   GL251314  26.923  12.994   5.879
 4016POPC   C1A51315  26.509  13.006   6.157
 4016POPC   D2A51316  26.702  13.103   6.574
 4016POPC   C3A51317  26.949  12.740   6.771
 4016POPC   C4A51318  26.826  12.596   7.173
 4016POPC   C1B51319  27.036  13.229   6.208
 4016POPC   C2B51320  27.204  13.197   6.572
 4016POPC   C3B51321  27.049  13.208   6.961
 4016POPC   C4B51322  27.140  12.964   7.285
 4017POPC   NC351323  33.317  35.937   5.135
 4017POPC   PO451324  33.361  35.704   5.675
 4017POPC   GL151325  33.100  35.897   5.892
 4017POPC   GL251326  32.799  36.064   5.792
 4017POPC   C1A51327  33.073  35.903   6.305
 4017POPC   D2A51328  32.908  36.103   6.640
 4017POPC   C3A51329  33.173  36.153   6.995
 4017POPC   C4A51330  32.879  36.217   7.266
 4017POPC   C1B51331  33.048  36.353   6.079
 4017POPC   C2B51332  33.067  36.562   6.454
 4017POPC   C3B51333  32.961  36.572   6.862
 4017POPC   C4B51334  33.182  36.623   7.241
 4018POPC   NC351335  39.781  19.854   5.476
 4018POPC   PO451336  40.390  19.518   5.436
 4018POPC   GL151337  40.174  19.802   5.805
 4018POPC   GL251338  39.902  20.070   5.913
 4018POPC   C1A51339  39.973  19.732   6.252
 4018POPC   D2A51340  39.794  19.729   6.678
 4018POPC   C3A51341  40.072  19.689   6.999
 4018POPC   C4A51342  40.019  19.466   7.347
 4018POPC   C1B51343  40.189  20.222   6.237
 4018POPC   C2B51344  40.082  20.363   6.666
 4018POPC   C3B51345  39.891  20.173   7.042
 4018POPC   C4B51346  39.955  19.989   7.458
 4019POPC   NC351347  21.143  11.173   5.395
 4019POPC   PO451348  21.728  11.542   5.226
 4019POPC   GL151349  21.527  11.373   5.655
 4019POPC   GL251350  21.551  11.011   5.724
 4019POPC   C1A51351  21.531  11.457   6.144
 4019POPC   D2A51352  21.671  11.667   6.576
 4019POPC   C3A51353  21.549  11.469   6.995
 4019POPC   C4A51354  21.388  11.069   7.185
 4019POPC   C1B51355  21.336  10.982   6.132
 4019POPC   C2B51356  21.233  11.138   6.546
 4019POPC   C3B51357  20.974  10.942   6.857
 4019POPC   C4B51358  20.801  11.058   7.232
 4020POPC   NC351359  20.370   3.122   5.301
 4020POPC   PO451360  20.840   3.703   5.381
 4020POPC   GL151361  20.993   3.571   5.756
 4020POPC   GL251362  20.795   3.282   5.738
 4020POPC   C1A51363  20.945   3.522   6.210
 4020POPC   D2A51364  20.792   3.220   6.514
 4020POPC   C3A51365  20.610   3.384   6.881
 4020POPC   C4A51366  20.829   3.555   7.201
 4020POPC   C1B51367  20.508   3.239   6.098
 4020POPC   C2B51368  20.277   3.203   6.518
 4020POPC   C3B51369  20.141   3.153   6.979
 4020POPC   C4B51370  20.324   3.352   7.353
 4021POPC   NC351371  35.485  12.637   5.500
 4021POPC   PO451372  34.962  12.920   5.213
 4021POPC   GL151373  35.166  13.039   5.661
 4021POPC   GL251374  34.931  13.072   5.945
 4021POPC   C1A51375  35.471  13.065   6.076
 4021POPC   D2A51376  35.392  13.117   6.558
 4021POPC   C3A51377  35.598  12.949   6.965
 4021POPC   C4A51378  35.453  12.627   7.263
 4021POPC   C1B51379  35.138  12.683   6.176
 4021POPC   C2B51380  34.986  12.506   6.582
 4021POPC   C3B51381  35.117  12.778   6.905
 4021POPC   C4B51382  35.155  13.246   7.012
 4022POPC   NC351383   7.938  40.503   5.408
 4022POPC   PO451384   7.246  40.685   5.389
 4022POPC   GL151385   7.337  40.855   5.788
 4022POPC   GL251386   7.646  40.755   5.786
 4022POPC   C1A51387   7.358  40.638   6.222
 4022POPC   D2A51388   7.459  40.742   6.656
 4022POPC   C3A51389   7.184  40.794   7.014
 4022POPC   C4A51390   7.231  40.567   7.408
 4022POPC   C1B51391   7.742  40.961   6.153
 4022POPC   C2B51392   7.815  41.094   6.576
 4022POPC   C3B51393   7.770  40.972   7.029
 4022POPC   C4B51394   7.949  41.138   7.405
 4023POPC   NC351395  35.460  43.007   5.382
 4023POPC   PO451396  34.774  43.147   5.301
 4023POPC   GL151397  34.991  43.020   5.732
 4023POPC   GL251398  35.345  43.141   5.856
 4023POPC   C1A51399  35.102  42.846   6.185
 4023POPC   D2A51400  35.053  42.976   6.591
 4023POPC   C3A51401  35.352  42.931   6.892
 4023POPC   C4A51402  35.236  43.038   7.305
 4023POPC   C1B51403  35.647  42.934   6.156
 4023POPC   C2B51404  35.830  42.931   6.573
 4023POPC   C3B51405  35.795  43.154   6.957
 4023POPC   C4B51406  35.733  43.000   7.361
 4024POPC   NC351407  38.411  35.609   5.134
 4024POPC   PO451408  38.222  36.237   5.295
 4024POPC   GL151409  38.480  36.168   5.626
 4024POPC   GL251410  38.267  36.318   5.868
 4024POPC   C1A51411  38.622  35.979   6.033
 4024POPC   D2A51412  38.829  36.118   6.420
 4024POPC   C3A51413  38.707  35.977   6.830
 4024POPC   C4A51414  38.619  36.204   7.179
 4024POPC   C1B51415  38.377  36.340   6.325
 4024POPC   C2B51416  38.448  36.442   6.761
 4024POPC   C3B51417  38.335  36.643   7.173
 4024POPC   C4B51418  38.097  36.550   7.565
 4025POPC   NC351419   3.279  41.407   5.026
 4025POPC   PO451420   3.529  41.850   5.415
 4025POPC   GL151421   3.381  41.612   5.744
 4025POPC   GL251422   3.160  41.845   5.914
 4025POPC   C1A51423   3.564  41.524   6.136
 4025POPC   D2A51424   3.650  41.639   6.578
 4025POPC   C3A51425   3.617  41.346   6.911
 4025POPC   C4A51426   3.719  41.498   7.303
 4025POPC   C1B51427   3.171  41.769   6.361
 4025POPC   C2B51428   3.240  42.000   6.741
 4025POPC   C3B51429   3.358  41.760   7.068
 4025POPC   C4B51430   3.224  41.622   7.480
 4026POPC   NC351431  12.226   3.356   5.544
 4026POPC   PO451432  11.791   3.870   5.355
 4026POPC   GL151433  11.886   3.806   5.776
 4026POPC   GL251434  12.258   3.831   5.826
 4026POPC   C1A51435  11.699   3.735   6.190
 4026POPC   D2A51436  11.955   3.469   6.513
 4026POPC   C3A51437  11.869   3.484   6.980
 4026POPC   C4A51438  12.103   3.274   7.351
 4026POPC   C1B51439  12.514   3.623   6.142
 4026POPC   C2B51440  12.510   3.484   6.564
 4026POPC   C3B51441  12.387   3.407   6.959
 4026POPC   C4B51442  12.296   3.752   7.246
 4027POPC   NC351443  33.802  13.337   5.089
 4027POPC   PO451444  34.236  13.762   5.519
 4027POPC   GL151445  34.094  13.835   5.882
 4027POPC   GL251446  33.719  13.794   5.848
 4027POPC   C1A51447  34.071  13.787   6.310
 4027POPC   D2A51448  33.717  13.860   6.559
 4027POPC   C3A51449  33.825  13.706   6.982
 4027POPC   C4A51450  34.263  13.815   7.118
 4027POPC   C1B51451  33.659  13.494   6.197
 4027POPC   C2B51452  33.468  13.434   6.613
 4027POPC   C3B51453  33.379  13.393   7.035
 4027POPC   C4B51454  33.606  13.435   7.393
 4028POPC   NC351455  33.707  21.805   5.440
 4028POPC   PO451456  34.086  21.241   5.534
 4028POPC   GL151457  34.129  21.366   5.917
 4028POPC   GL251458  34.025  21.691   5.874
 4028POPC   C1A51459  33.965  21.192   6.283
 4028POPC   D2A51460  33.738  21.113   6.660
 4028POPC   C3A51461  33.985  21.138   7.020
 4028POPC   C4A51462  34.035  21.560   7.132
 4028POPC   C1B51463  33.632  21.559   6.116
 4028POPC   C2B51464  33.426  21.570   6.537
 4028POPC   C3B51465  33.537  21.521   6.922
 4028POPC   C4B51466  33.532  21.242   7.233
 4029POPC   NC351467  13.978  31.193   5.063
 4029POPC   PO451468  13.500  31.518   5.473
 4029POPC   GL151469  13.708  31.569   5.831
 4029POPC   GL251470  13.423  31.806   5.915
 4029POPC   C1A51471  13.785  31.295   6.219
 4029POPC   D2A51472  13.926  31.406   6.640
 4029POPC   C3A51473  13.663  31.317   6.997
 4029POPC   C4A51474  13.330  31.555   7.094
 4029POPC   C1B51475  13.697  31.798   6.278
 4029POPC   C2B51476  13.964  31.944   6.607
 4029POPC   C3B51477  13.837  31.801   6.993
 4029POPC   C4B51478  13.636  31.856   7.387
 4030POPC   NC351479  27.850   3.003   5.470
 4030POPC   PO451480  27.384   2.622   5.551
 4030POPC   GL151481  27.393   2.879   5.890
 4030POPC   GL251482  27.720   2.954   5.946
 4030POPC   C1A51483  27.367   2.726   6.299
 4030POPC   D2A51484  27.153   2.418   6.581
 4030POPC   C3A51485  27.295   2.478   6.997
 4030POPC   C4A51486  27.673   2.587   7.204
 4030POPC   C1B51487  27.853   2.941   6.327
 4030POPC   C2B51488  27.624   2.990   6.682
 4030POPC   C3B51489  27.804   3.032   7.040
 4030POPC   C4B51490  27.985   2.892   7.458
 4031POPC   NC351491  13.311  20.217   5.417
 4031POPC   PO451492  13.689  20.608   5.149
 4031POPC   GL151493  13.703  20.549   5.589
 4031POPC   GL251494  13.385  20.628   5.716
 4031POPC   C1A51495  13.811  20.525   6.024
 4031POPC   D2A51496  13.703  20.425   6.442
 4031POPC   C3A51497  13.673  20.716   6.786
 4031POPC   C4A51498  13.783  20.587   7.207
 4031POPC   C1B51499  13.289  20.462   6.130
 4031POPC   C2B51500  13.227  20.505   6.576
 4031POPC   C3B51501  13.458  20.259   6.888
 4031POPC   C4B51502  13.328  20.274   7.297
 4032POPC   NC351503   0.521   9.322   5.407
 4032POPC   PO451504   0.101   8.815   5.486
 4032POPC   GL151505   0.236   9.037   5.805
 4032POPC   GL251506   0.594   9.064   5.843
 4032POPC   C1A51507   0.293   8.871   6.234
 4032POPC   D2A51508   0.481   9.043   6.592
 4032POPC   C3A51509   0.400   8.860   6.988
 4032POPC   C4A51510   0.355   8.955   7.420
 4032POPC   C1B51511   0.869   9.336   6.095
 4032POPC   C2B51512   0.829   9.477   6.521
 4032POPC   C3B51513   0.833   9.356   6.958
 4032POPC   C4B51514   0.694   9.405   7.412
 4033POPC   NC351515  40.544  35.449   5.393
 4033POPC   PO451516  41.225  35.592   5.491
 4033POPC   GL151517  40.866  35.571   5.799
 4033POPC   GL251518  40.878  35.240   5.900
 4033POPC   C1A51519  40.656  35.506   6.249
 4033POPC   D2A51520  40.718  35.173   6.570
 4033POPC   C3A51521  40.595  35.322   6.992
 4033POPC   C4A51522  40.466  35.750   7.172
 4033POPC   C1B51523  41.124  34.994   6.199
 4033POPC   C2B51524  41.097  34.807   6.619
 4033POPC   C3B51525  41.058  35.066   7.006
 4033POPC   C4B51526  40.887  35.140   7.426
 4034POPC   NC351527  31.380  38.795   5.409
 4034POPC   PO451528  31.618  38.172   5.296
 4034POPC   GL151529  31.672  38.207   5.798
 4034POPC   GL251530  32.032  38.265   5.959
 4034POPC   C1A51531  31.522  38.427   6.221
 4034POPC   D2A51532  31.582  38.593   6.668
 4034POPC   C3A51533  31.296  38.422   7.031
 4034POPC   C4A51534  31.238  38.347   7.495
 4034POPC   C1B51535  31.810  38.011   6.263
 4034POPC   C2B51536  31.594  38.085   6.647
 4034POPC   C3B51537  31.788  38.257   7.018
 4034POPC   C4B51538  31.701  38.645   7.279
 4035POPC   NC351539  39.183  33.857   5.454
 4035POPC   PO451540  39.400  33.353   5.215
 4035POPC   GL151541  39.205  33.477   5.758
 4035POPC   GL251542  39.368  33.831   5.915
 4035POPC   C1A51543  39.387  33.441   6.221
 4035POPC   D2A51544  39.342  33.727   6.579
 4035POPC   C3A51545  39.207  33.563   6.987
 4035POPC   C4A51546  38.914  33.595   7.321
 4035POPC   C1B51547  39.177  34.090   6.205
 4035POPC   C2B51548  39.219  34.254   6.601
 4035POPC   C3B51549  39.322  34.064   6.998
 4035POPC   C4B51550  39.268  33.951   7.455
 4036POPC   NC351551  33.770   9.938   5.498
 4036POPC   PO451552  34.226   9.474   5.396
 4036POPC   GL151553  33.901   9.485   5.752
 4036POPC   GL251554  33.553   9.595   5.808
 4036POPC   C1A51555  33.869   9.720   6.181
 4036POPC   D2A51556  33.971   9.936   6.567
 4036POPC   C3A51557  33.868   9.754   6.981
 4036POPC   C4A51558  33.997   9.897   7.421
 4036POPC   C1B51559  33.362   9.761   6.212
 4036POPC   C2B51560  33.463   9.922   6.647
 4036POPC   C3B51561  33.408   9.994   7.091
 4036POPC   C4B51562  33.543   9.705   7.426
 4037POPC   NC351563  12.395  33.232   5.531
 4037POPC   PO451564  13.011  33.105   5.384
 4037POPC   GL151565  12.852  33.089   5.827
 4037POPC   GL251566  12.522  33.120   6.017
 4037POPC   C1A51567  12.970  32.967   6.272
 4037POPC   D2A51568  13.138  32.903   6.708
 4037POPC   C3A51569  12.919  33.079   7.059
 4037POPC   C4A51570  13.048  33.284   7.428
 4037POPC   C1B51571  12.562  32.669   6.203
 4037POPC   C2B51572  12.633  32.518   6.655
 4037POPC   C3B51573  12.505  32.575   7.131
 4037POPC   C4B51574  12.590  32.797   7.556
 4038POPC   NC351575  44.326   1.652   5.399
 4038POPC   PO451576  44.769   2.103   5.201
 4038POPC   GL151577  44.679   1.904   5.670
 4038POPC   GL251578  44.547   2.127   5.900
 4038POPC   C1A51579  44.773   1.690   6.114
 4038POPC   D2A51580  44.944   1.718   6.573
 4038POPC   C3A51581  44.789   1.970   6.958
 4038POPC   C4A51582  44.419   1.899   7.241
 4038POPC   C1B51583  44.816   2.188   6.275
 4038POPC   C2B51584  44.575   2.327   6.630
 4038POPC   C3B51585  44.390   2.400   6.995
 4038POPC   C4B51586  44.666   2.478   7.294
 4039POPC   NC351587  19.394  35.130   5.630
 4039POPC   PO451588  18.796  35.169   5.293
 4039POPC   GL151589  18.873  35.222   5.736
 4039POPC   GL251590  19.012  35.570   5.758
 4039POPC   C1A51591  18.698  35.292   6.165
 4039POPC   D2A51592  18.583  35.243   6.628
 4039POPC   C3A51593  18.983  35.207   6.878
 4039POPC   C4A51594  19.099  35.317   7.287
 4039POPC   C1B51595  19.242  35.725   6.140
 4039POPC   C2B51596  19.221  35.591   6.588
 4039POPC   C3B51597  19.286  35.742   7.001
 4039POPC   C4B51598  19.325  35.744   7.452
 4040POPC   NC351599   6.217  16.711   5.391
 4040POPC   PO451600   5.575  16.628   5.343
 4040POPC   GL151601   5.658  16.691   5.811
 4040POPC   GL251602   5.983  16.852   5.859
 4040POPC   C1A51603   5.823  16.496   6.228
 4040POPC   D2A51604   6.162  16.494   6.541
 4040POPC   C3A51605   5.948  16.401   6.922
 4040POPC   C4A51606   5.711  16.709   7.161
 4040POPC   C1B51607   5.768  17.001   6.247
 4040POPC   C2B51608   5.818  16.854   6.661
 4040POPC   C3B51609   5.868  17.152   6.959
 4040POPC   C4B51610   5.764  17.196   7.322
 4041POPC   NC351611  32.169   2.226   5.177
 4041POPC   PO451612  32.262   1.717   5.574
 4041POPC   GL151613  32.266   1.972   5.895
 4041POPC   GL251614  32.018   2.238   5.935
 4041POPC   C1A51615  32.294   1.903   6.309
 4041POPC   D2A51616  32.265   2.125   6.655
 4041POPC   C3A51617  32.528   1.935   6.902
 4041POPC   C4A51618  32.421   1.676   7.216
 4041POPC   C1B51619  31.806   1.869   6.130
 4041POPC   C2B51620  31.867   1.712   6.556
 4041POPC   C3B51621  31.947   1.822   6.994
 4041POPC   C4B51622  32.157   2.160   7.172
 4042POPC   NC351623  24.731  22.083   5.642
 4042POPC   PO451624  25.284  22.308   5.422
 4042POPC   GL151625  25.238  22.065   5.812
 4042POPC   GL251626  24.992  22.215   6.050
 4042POPC   C1A51627  25.282  21.824   6.218
 4042POPC   D2A51628  25.587  21.845   6.569
 4042POPC   C3A51629  25.497  21.923   7.013
 4042POPC   C4A51630  25.435  22.333   7.242
 4042POPC   C1B51631  25.326  22.395   6.309
 4042POPC   C2B51632  25.325  22.347   6.744
 4042POPC   C3B51633  25.030  22.107   7.015
 4042POPC   C4B51634  24.755  22.211   7.322
 4043POPC   NC351635  44.895  37.161   5.544
 4043POPC   PO451636  44.850  37.814   5.293
 4043POPC   GL151637  44.838  37.643   5.728
 4043POPC   GL251638   0.138  37.448   5.874
 4043POPC   C1A51639  44.646  37.665   6.150
 4043POPC   D2A51640  44.649  37.823   6.581
 4043POPC   C3A51641  44.530  37.722   7.016
 4043POPC   C4A51642  44.319  37.878   7.413
 4043POPC   C1B51643  44.937  37.274   6.270
 4043POPC   C2B51644  44.782  37.320   6.698
 4043POPC   C3B51645  44.883  37.356   7.149
 4043POPC   C4B51646  44.696  37.570   7.513
 4044POPC   NC351647   5.577  14.200   5.481
 4044POPC   PO451648   6.041  13.702   5.517
 4044POPC   GL151649   5.953  13.653   5.921
 4044POPC   GL251650   5.760  13.954   5.938
 4044POPC   C1A51651   6.155  13.476   6.296
 4044POPC   D2A51652   6.386  13.410   6.693
 4044POPC   C3A51653   6.077  13.451   7.012
 4044POPC   C4A51654   6.005  13.443   7.446
 4044POPC   C1B51655   5.733  13.789   6.369
 4044POPC   C2B51656   5.656  13.525   6.711
 4044POPC   C3B51657   5.608  13.638   7.149
 4044POPC   C4B51658   5.646  14.029   7.334
 4045POPC   NC351659  29.019  38.723   5.308
 4045POPC   PO451660  29.364  38.167   5.441
 4045POPC   GL151661  29.164  38.427   5.724
 4045POPC   GL251662  29.290  38.768   5.740
 4045POPC   C1A51663  28.993  38.321   6.114
 4045POPC   D2A51664  29.221  38.294   6.462
 4045POPC   C3A51665  29.049  38.239   6.842
 4045POPC   C4A51666  29.149  38.384   7.217
 4045POPC   C1B51667  29.141  38.815   6.153
 4045POPC   C2B51668  28.925  38.696   6.525
 4045POPC   C3B51669  29.065  38.781   6.934
 4045POPC   C4B51670  29.426  38.863   7.215
 4046POPC   NC351671  24.958  26.792   5.635
 4046POPC   PO451672  25.448  26.395   5.428
 4046POPC   GL151673  25.438  26.643   5.824
 4046POPC   GL251674  25.517  27.012   5.822
 4046POPC   C1A51675  25.237  26.833   6.233
 4046POPC   D2A51676  24.912  26.773   6.569
 4046POPC   C3A51677  24.944  26.956   6.982
 4046POPC   C4A51678  25.012  26.815   7.406
 4046POPC   C1B51679  25.747  26.787   6.199
 4046POPC   C2B51680  25.746  26.856   6.673
 4046POPC   C3B51681  25.459  26.854   7.082
 4046POPC   C4B51682  25.464  27.007   7.513
 4047POPC   NC351683  21.209  13.890   5.466
 4047POPC   PO451684  21.427  13.301   5.383
 4047POPC   GL151685  21.618  13.582   5.682
 4047POPC   GL251686  21.347  13.609   5.898
 4047POPC   C1A51687  21.739  13.880   6.049
 4047POPC   D2A51688  21.541  13.909   6.485
 4047POPC   C3A51689  21.604  13.586   6.762
 4047POPC   C4A51690  21.559  13.454   7.179
 4047POPC   C1B51691  21.145  13.645   6.304
 4047POPC   C2B51692  21.108  13.777   6.737
 4047POPC   C3B51693  21.128  13.720   7.182
 4047POPC   C4B51694  20.868  13.655   7.548
 4048POPC   NC351695  43.755  17.821   5.125
 4048POPC   PO451696  43.963  18.486   5.200
 4048POPC   GL151697  43.949  18.351   5.656
 4048POPC   GL251698  43.597  18.424   5.767
 4048POPC   C1A51699  43.903  18.248   6.127
 4048POPC   D2A51700  43.735  18.108   6.530
 4048POPC   C3A51701  44.006  18.064   6.888
 4048POPC   C4A51702  43.989  17.958   7.304
 4048POPC   C1B51703  43.438  18.545   6.162
 4048POPC   C2B51704  43.420  18.500   6.599
 4048POPC   C3B51705  43.727  18.514   6.920
 4048POPC   C4B51706  43.788  18.423   7.345
 4049POPC   NC351707  26.460  11.443   5.536
 4049POPC   PO451708  27.013  10.969   5.496
 4049POPC   GL151709  26.745  11.093   5.796
 4049POPC   GL251710  26.891  11.424   5.896
 4049POPC   C1A51711  26.813  11.003   6.201
 4049POPC   D2A51712  27.019  11.110   6.545
 4049POPC   C3A51713  26.750  11.239   6.849
 4049POPC   C4A51714  26.869  11.215   7.262
 4049POPC   C1B51715  26.750  11.509   6.335
 4049POPC   C2B51716  26.734  11.779   6.711
 4049POPC   C3B51717  26.750  11.688   7.145
 4049POPC   C4B51718  27.070  11.627   7.483
 4050POPC   NC351719   9.760   1.688   5.088
 4050POPC   PO451720   9.947   2.213   5.447
 4050POPC   GL151721   9.826   1.984   5.822
 4050POPC   GL251722   9.512   1.791   5.738
 4050POPC   C1A51723   9.808   2.071   6.269
 4050POPC   D2A51724   9.635   2.049   6.683
 4050POPC   C3A51725   9.924   2.104   6.966
 4050POPC   C4A51726   9.985   2.279   7.356
 4050POPC   C1B51727   9.575   1.606   6.162
 4050POPC   C2B51728   9.726   1.577   6.605
 4050POPC   C3B51729   9.538   1.619   7.012
 4050POPC   C4B51730   9.466   2.022   7.192
 4051POPC   NC351731  12.524  22.009   5.388
 4051POPC   PO451732  12.159  22.525   5.329
 4051POPC   GL151733  12.290  22.277   5.735
 4051POPC   GL251734  12.195  21.916   5.867
 4051POPC   C1A51735  12.471  22.273   6.141
 4051POPC   D2A51736  12.274  22.082   6.491
 4051POPC   C3A51737  12.344  22.121   6.945
 4051POPC   C4A51738  12.195  22.413   7.272
 4051POPC   C1B51739  11.864  21.912   6.223
 4051POPC   C2B51740  11.786  21.994   6.677
 4051POPC   C3B51741  11.767  22.133   7.103
 4051POPC   C4B51742  11.595  21.896   7.457
 4052POPC   NC351743  31.552   6.889   5.356
 4052POPC   PO451744  31.242   6.420   5.287
 4052POPC   GL151745  31.239   6.445   5.740
 4052POPC   GL251746  31.287   6.793   5.794
 4052POPC   C1A51747  31.361   6.455   6.187
 4052POPC   D2A51748  31.509   6.751   6.534
 4052POPC   C3A51749  31.492   6.621   6.973
 4052POPC   C4A51750  31.392   6.540   7.434
 4052POPC   C1B51751  31.117   6.913   6.201
 4052POPC   C2B51752  30.975   6.988   6.587
 4052POPC   C3B51753  31.126   7.000   6.980
 4052POPC   C4B51754  31.355   7.024   7.360
 4053POPC   NC351755  35.100  11.139   5.566
 4053POPC   PO451756  35.546  10.635   5.534
 4053POPC   GL151757  35.659  10.589   5.939
 4053POPC   GL251758  35.277  10.581   5.986
 4053POPC   C1A51759  35.642  10.600   6.369
 4053POPC   D2A51760  35.300  10.574   6.659
 4053POPC   C3A51761  35.525  10.449   7.030
 4053POPC   C4A51762  35.611  10.525   7.440
 4053POPC   C1B51763  34.966  10.388   6.247
 4053POPC   C2B51764  34.839  10.156   6.584
 4053POPC   C3B51765  35.043  10.241   6.956
 4053POPC   C4B51766  34.861  10.214   7.309
 4054POPC   NC351767  36.727   9.390   5.179
 4054POPC   PO451768  36.907  10.014   5.476
 4054POPC   GL151769  36.879   9.874   5.906
 4054POPC   GL251770  37.160   9.756   6.060
 4054POPC   C1A51771  36.716   9.599   6.234
 4054POPC   D2A51772  36.939   9.505   6.579
 4054POPC   C3A51773  36.783   9.795   6.874
 4054POPC   C4A51774  36.928   9.804   7.267
 4054POPC   C1B51775  36.978  10.023   6.396
 4054POPC   C2B51776  37.136  10.197   6.773
 4054POPC   C3B51777  37.403  10.171   7.110
 4054POPC   C4B51778  37.222  10.129   7.520
 4055POPC   NC351779  18.207  32.433   5.071
 4055POPC   PO451780  18.498  32.126   5.554
 4055POPC   GL151781  18.329  32.340   5.894
 4055POPC   GL251782  18.097  32.597   5.779
 4055POPC   C1A51783  18.371  32.315   6.354
 4055POPC   D2A51784  18.528  32.471   6.774
 4055POPC   C3A51785  18.400  32.248   7.126
 4055POPC   C4A51786  18.405  32.323   7.542
 4055POPC   C1B51787  17.894  32.473   6.179
 4055POPC   C2B51788  17.909  32.314   6.596
 4055POPC   C3B51789  17.926  32.460   6.993
 4055POPC   C4B51790  17.891  32.247   7.369
 4056POPC   NC351791   5.965   1.778   5.458
 4056POPC   PO451792   5.514   2.250   5.429
 4056POPC   GL151793   5.618   2.024   5.776
 4056POPC   GL251794   5.349   1.864   5.913
 4056POPC   C1A51795   5.795   2.121   6.161
 4056POPC   D2A51796   6.187   2.057   6.385
 4056POPC   C3A51797   6.143   2.007   6.836
 4056POPC   C4A51798   5.946   2.158   7.210
 4056POPC   C1B51799   5.526   1.631   6.242
 4056POPC   C2B51800   5.740   1.800   6.554
 4056POPC   C3B51801   5.593   2.091   6.844
 4056POPC   C4B51802   5.476   1.960   7.262
 4057POPC   NC351803   3.344  39.916   5.590
 4057POPC   PO451804   2.685  39.754   5.390
 4057POPC   GL151805   2.848  39.900   5.800
 4057POPC   GL251806   3.096  39.698   5.984
 4057POPC   C1A51807   2.696  39.919   6.246
 4057POPC   D2A51808   2.423  39.717   6.582
 4057POPC   C3A51809   2.537  39.869   7.018
 4057POPC   C4A51810   2.654  40.274   7.226
 4057POPC   C1B51811   3.209  40.101   6.209
 4057POPC   C2B51812   3.047  40.374   6.526
 4057POPC   C3B51813   3.033  40.169   6.916
 4057POPC   C4B51814   3.016  39.816   7.193
 4058POPC   NC351815  30.827   3.101   5.408
 4058POPC   PO451816  31.040   2.401   5.390
 4058POPC   GL151817  30.987   2.479   5.816
 4058POPC   GL251818  30.643   2.608   5.723
 4058POPC   C1A51819  30.968   2.574   6.284
 4058POPC   D2A51820  31.046   2.945   6.588
 4058POPC   C3A51821  30.818   2.926   6.973
 4058POPC   C4A51822  30.743   2.533   7.139
 4058POPC   C1B51823  30.502   2.763   6.121
 4058POPC   C2B51824  30.505   2.675   6.570
 4058POPC   C3B51825  30.324   2.810   6.959
 4058POPC   C4B51826  30.303   2.758   7.384
 4059POPC   NC351827   6.757  10.297   5.411
 4059POPC   PO451828   6.295  10.703   5.345
 4059POPC   GL151829   6.491  10.586   5.751
 4059POPC   GL251830   6.347  10.314   5.976
 4059POPC   C1A51831   6.494  10.772   6.167
 4059POPC   D2A51832   6.343  10.759   6.602
 4059POPC   C3A51833   6.551  10.519   6.918
 4059POPC   C4A51834   6.578  10.100   7.103
 4059POPC   C1B51835   6.803  10.328   6.091
 4059POPC   C2B51836   7.011  10.257   6.486
 4059POPC   C3B51837   7.038  10.279   6.913
 4059POPC   C4B51838   6.961  10.600   7.219
 4060POPC   NC351839  15.597  22.443   5.495
 4060POPC   PO451840  15.127  21.990   5.381
 4060POPC   GL151841  15.196  22.178   5.733
 4060POPC   GL251842  15.439  21.929   5.839
 4060POPC   C1A51843  15.044  22.145   6.136
 4060POPC   D2A51844  15.256  22.190   6.509
 4060POPC   C3A51845  15.131  22.292   6.900
 4060POPC   C4A51846  15.461  22.506   7.083
 4060POPC   C1B51847  15.280  21.684   6.196
 4060POPC   C2B51848  15.398  21.708   6.626
 4060POPC   C3B51849  15.148  21.778   6.990
 4060POPC   C4B51850  15.127  22.001   7.350
 4061POPC   NC351851  39.890  37.892   5.412
 4061POPC   PO451852  40.036  37.238   5.548
 4061POPC   GL151853  39.896  37.491   5.856
 4061POPC   GL251854  40.108  37.788   5.855
 4061POPC   C1A51855  39.949  37.582   6.288
 4061POPC   D2A51856  40.138  37.662   6.655
 4061POPC   C3A51857  40.010  37.605   7.070
 4061POPC   C4A51858  40.225  37.903   7.371
 4061POPC   C1B51859  39.853  38.074   6.110
 4061POPC   C2B51860  39.758  37.990   6.554
 4061POPC   C3B51861  39.936  38.086   6.930
 4061POPC   C4B51862  39.755  38.101   7.309
 4062POPC   NC351863  25.151  42.556   5.344
 4062POPC   PO451864  25.651  42.035   5.267
 4062POPC   GL151865  25.377  42.258   5.667
 4062POPC   GL251866  25.394  42.104   5.973
 4062POPC   C1A51867  25.182  42.538   6.058
 4062POPC   D2A51868  25.313  42.549   6.512
 4062POPC   C3A51869  25.028  42.488   6.858
 4062POPC   C4A51870  24.830  42.205   7.100
 4062POPC   C1B51871  25.627  42.142   6.322
 4062POPC   C2B51872  25.701  42.285   6.716
 4062POPC   C3B51873  25.460  42.261   7.072
 4062POPC   C4B51874  25.611  41.983   7.403
 4063POPC   NC351875  10.619   8.632   5.550
 4063POPC   PO451876  10.300   7.992   5.419
 4063POPC   GL151877  10.502   8.065   5.879
 4063POPC   GL251878  10.833   7.924   5.997
 4063POPC   C1A51879  10.479   7.880   6.353
 4063POPC   D2A51880  10.261   7.894   6.765
 4063POPC   C3A51881  10.272   8.295   6.999
 4063POPC   C4A51882  10.420   8.268   7.421
 4063POPC   C1B51883  10.739   8.304   6.255
 4063POPC   C2B51884  10.667   8.247   6.669
 4063POPC   C3B51885  10.703   8.038   7.032
 4063POPC   C4B51886  10.937   8.347   7.225
 4064POPC   NC351887  11.866  41.941   5.411
 4064POPC   PO451888  12.293  41.454   5.298
 4064POPC   GL151889  12.172  41.609   5.723
 4064POPC   GL251890  12.372  41.893   5.784
 4064POPC   C1A51891  11.919  41.630   6.157
 4064POPC   D2A51892  12.099  41.469   6.567
 4064POPC   C3A51893  11.939  41.558   6.973
 4064POPC   C4A51894  11.756  41.529   7.418
 4064POPC   C1B51895  12.421  41.657   6.193
 4064POPC   C2B51896  12.588  41.664   6.606
 4064POPC   C3B51897  12.456  41.783   6.996
 4064POPC   C4B51898  12.233  41.671   7.377
 4065POPC   NC351899  34.768   6.970   5.092
 4065POPC   PO451900  34.248   6.543   5.353
 4065POPC   GL151901  34.179   6.723   5.771
 4065POPC   GL251902  34.524   6.705   5.833
 4065POPC   C1A51903  34.241   6.778   6.245
 4065POPC   D2A51904  34.413   6.502   6.580
 4065POPC   C3A51905  34.356   6.612   7.016
 4065POPC   C4A51906  34.523   6.452   7.387
 4065POPC   C1B51907  34.710   6.469   6.137
 4065POPC   C2B51908  34.910   6.572   6.499
 4065POPC   C3B51909  34.829   6.440   6.910
 4065POPC   C4B51910  34.969   6.645   7.268
 4066POPC   NC351911  40.007  40.332   5.371
 4066POPC   PO451912  39.965  40.984   5.433
 4066POPC   GL151913  39.732  40.788   5.796
 4066POPC   GL251914  39.660  40.417   5.746
 4066POPC   C1A51915  39.752  40.862   6.254
 4066POPC   D2A51916  39.955  41.077   6.593
 4066POPC   C3A51917  39.910  40.915   7.011
 4066POPC   C4A51918  40.142  40.870   7.397
 4066POPC   C1B51919  39.872  40.374   6.164
 4066POPC   C2B51920  39.943  40.497   6.613
 4066POPC   C3B51921  40.006  40.390   7.053
 4066POPC   C4B51922  39.681  40.569   7.313
 4067POPC   NC351923   6.085  40.200   5.141
 4067POPC   PO451924   6.033  40.820   5.139
 4067POPC   GL151925   6.044  40.727   5.622
 4067POPC   GL251926   6.022  41.046   5.775
 4067POPC   C1A51927   5.950  40.682   6.131
 4067POPC   D2A51928   5.617  40.649   6.513
 4067POPC   C3A51929   5.693  40.795   6.969
 4067POPC   C4A51930   6.117  40.772   7.124
 4067POPC   C1B51931   5.944  41.194   6.223
 4067POPC   C2B51932   5.966  41.099   6.668
 4067POPC   C3B51933   6.102  41.272   7.079
 4067POPC   C4B51934   5.913  41.459   7.437
 4068POPC   NC351935  19.275  44.237   5.610
 4068POPC   PO451936  18.810  44.015   5.184
 4068POPC   GL151937  18.922  43.860   5.620
 4068POPC   GL251938  18.625  43.680   5.663
 4068POPC   C1A51939  19.171  43.748   6.041
 4068POPC   D2A51940  19.140  43.846   6.497
 4068POPC   C3A51941  19.208  43.632   6.888
 4068POPC   C4A51942  19.253  43.854   7.329
 4068POPC   C1B51943  18.672  43.910   6.060
 4068POPC   C2B51944  18.621  43.871   6.501
 4068POPC   C3B51945  18.736  43.821   6.899
 4068POPC   C4B51946  18.768  43.956   7.288
 4069POPC   NC351947   0.117   4.408   5.215
 4069POPC   PO451948   0.598   4.568   5.645
 4069POPC   GL151949   0.427   4.478   6.023
 4069POPC   GL251950   0.120   4.409   5.859
 4069POPC   C1A51951   0.468   4.271   6.438
 4069POPC   D2A51952   0.566   4.038   6.814
 4069POPC   C3A51953   0.565   4.284   7.193
 4069POPC   C4A51954   0.678   4.334   7.625
 4069POPC   C1B51955   0.102   4.041   6.165
 4069POPC   C2B51956   0.113   3.804   6.548
 4069POPC   C3B51957   0.084   3.936   6.966
 4069POPC   C4B51958   0.049   4.290   7.259
 4070POPC   NC351959  20.274  27.780   5.399
 4070POPC   PO451960  21.001  27.829   5.350
 4070POPC   GL151961  20.734  27.843   5.711
 4070POPC   GL251962  20.810  27.528   5.870
 4070POPC   C1A51963  20.492  27.903   6.126
 4070POPC   D2A51964  20.361  27.778   6.563
 4070POPC   C3A51965  20.581  27.875   6.954
 4070POPC   C4A51966  20.673  27.686   7.373
 4070POPC   C1B51967  20.442  27.389   6.177
 4070POPC   C2B51968  20.376  27.267   6.643
 4070POPC   C3B51969  20.680  27.362   6.976
 4070POPC   C4B51970  21.005  27.313   7.311
 4071POPC   NC351971  35.483   6.635   5.274
 4071POPC   PO451972  34.826   6.650   5.437
 4071POPC   GL151973  35.147   6.729   5.755
 4071POPC   GL251974  35.512   6.695   5.780
 4071POPC   C1A51975  35.175   6.901   6.167
 4071POPC   D2A51976  35.444   6.698   6.465
 4071POPC   C3A51977  35.283   6.713   6.846
 4071POPC   C4A51978  35.485   6.687   7.217
 4071POPC   C1B51979  35.791   6.484   6.069
 4071POPC   C2B51980  35.778   6.264   6.453
 4071POPC   C3B51981  35.753   6.412   6.854
 4071POPC   C4B51982  35.762   6.257   7.259
 4072POPC   NC351983  36.811  19.394   5.466
 4072POPC   PO451984  37.112  20.095   5.513
 4072POPC   GL151985  36.874  19.796   5.767
 4072POPC   GL251986  37.080  19.550   5.874
 4072POPC   C1A51987  36.654  19.578   6.140
 4072POPC   D2A51988  36.544  19.868   6.480
 4072POPC   C3A51989  36.661  19.834   6.898
 4072POPC   C4A51990  36.576  20.112   7.210
 4072POPC   C1B51991  36.988  19.949   6.217
 4072POPC   C2B51992  37.100  19.798   6.615
 4072POPC   C3B51993  37.137  19.705   7.041
 4072POPC   C4B51994  37.234  19.352   7.281
 4073POPC   NC351995  44.426   5.199   5.105
 4073POPC   PO451996  44.803   4.695   5.422
 4073POPC   GL151997  44.820   4.926   5.886
 4073POPC   GL251998  44.668   5.238   5.956
 4073POPC   C1A51999  44.497   4.850   6.244
 4073POPC   D2A52000  44.626   4.799   6.662
 4073POPC   C3A52001  44.371   4.909   6.990
 4073POPC   C4A52002  44.567   4.994   7.341
 4073POPC   C1B52003  44.887   5.188   6.342
 4073POPC   C2B52004  44.816   5.470   6.698
 4073POPC   C3B52005  44.784   5.401   7.131
 4073POPC   C4B52006  44.663   5.446   7.570
 4074POPC   NC352007  28.978  21.140   5.258
 4074POPC   PO452008  29.350  21.625   5.468
 4074POPC   GL152009  29.208  21.346   5.792
 4074POPC   GL252010  28.892  21.212   5.765
 4074POPC   C1A52011  29.097  21.385   6.245
 4074POPC   D2A52012  29.023  21.261   6.669
 4074POPC   C3A52013  29.121  21.473   7.074
 4074POPC   C4A52014  29.153  21.306   7.500
 4074POPC   C1B52015  28.641  21.078   6.083
 4074POPC   C2B52016  28.514  21.147   6.473
 4074POPC   C3B52017  28.629  20.980   6.825
 4074POPC   C4B52018  28.784  21.082   7.217
 4075POPC   NC352019  19.978  35.322   5.290
 4075POPC   PO452020  19.406  35.637   5.444
 4075POPC   GL152021  19.640  35.552   5.831
 4075POPC   GL252022  19.860  35.263   5.806
 4075POPC   C1A52023  19.590  35.367   6.257
 4075POPC   D2A52024  19.743  35.520   6.635
 4075POPC   C3A52025  19.549  35.288   6.932
 4075POPC   C4A52026  19.592  35.281   7.332
 4075POPC   C1B52027  20.069  35.424   6.147
 4075POPC   C2B52028  20.250  35.389   6.569
 4075POPC   C3B52029  20.096  35.343   6.970
 4075POPC   C4B52030  20.007  35.021   7.186
 4076POPC   NC352031   9.865  32.832   5.187
 4076POPC   PO452032   9.477  33.291   5.454
 4076POPC   GL152033   9.775  33.050   5.686
 4076POPC   GL252034   9.757  32.701   5.712
 4076POPC   C1A52035   9.970  33.093   6.081
 4076POPC   D2A52036   9.813  33.317   6.422
 4076POPC   C3A52037   9.879  33.267   6.898
 4076POPC   C4A52038   9.756  33.259   7.357
 4076POPC   C1B52039   9.712  32.662   6.188
 4076POPC   C2B52040   9.820  32.802   6.630
 4076POPC   C3B52041   9.915  32.786   7.089
 4076POPC   C4B52042   9.840  32.787   7.516
 4077POPC   NC352043  22.077  31.163   5.451
 4077POPC   PO452044  22.468  31.762   5.597
 4077POPC   GL152045  22.189  31.580   5.818
 4077POPC   GL252046  21.853  31.596   5.701
 4077POPC   C1A52047  22.254  31.533   6.251
 4077POPC   D2A52048  22.382  31.276   6.604
 4077POPC   C3A52049  22.311  31.538   6.967
 4077POPC   C4A52050  22.401  31.569   7.398
 4077POPC   C1B52051  21.873  31.244   6.058
 4077POPC   C2B52052  21.796  31.198   6.516
 4077POPC   C3B52053  21.982  31.121   6.929
 4077POPC   C4B52054  21.949  31.314   7.322
 4078POPC   NC352055  11.521  18.314   5.415
 4078POPC   PO452056  10.862  18.122   5.461
 4078POPC   GL152057  11.178  18.105   5.759
 4078POPC   GL252058  11.136  18.432   5.926
 4078POPC   C1A52059  11.355  18.025   6.176
 4078POPC   D2A52060  11.333  18.216   6.587
 4078POPC   C3A52061  11.513  18.163   7.005
 4078POPC   C4A52062  11.229  18.366   7.305
 4078POPC   C1B52063  11.558  18.496   6.135
 4078POPC   C2B52064  11.677  18.595   6.565
 4078POPC   C3B52065  11.509  18.701   6.991
 4078POPC   C4B52066  11.643  18.661   7.445
 4079POPC   NC352067   2.435  32.682   5.676
 4079POPC   PO452068   2.862  32.290   5.344
 4079POPC   GL152069   2.742  32.285   5.766
 4079POPC   GL252070   2.998  32.532   5.823
 4079POPC   C1A52071   2.726  32.338   6.225
 4079POPC   D2A52072   2.964  32.469   6.610
 4079POPC   C3A52073   2.782  32.245   6.983
 4079POPC   C4A52074   2.352  32.192   7.165
 4079POPC   C1B52075   3.317  32.515   6.159
 4079POPC   C2B52076   3.493  32.398   6.575
 4079POPC   C3B52077   3.315  32.427   7.008
 4079POPC   C4B52078   3.043  32.470   7.379
 4080POPC   NC352079  14.941  44.905   5.446
 4080POPC   PO452080  15.406  44.432   5.400
 4080POPC   GL152081  15.133  44.440   5.747
 4080POPC   GL252082  15.202  44.782   5.871
 4080POPC   C1A52083  15.082  44.259   6.159
 4080POPC   D2A52084  15.177  44.410   6.582
 4080POPC   C3A52085  15.044  44.269   6.991
 4080POPC   C4A52086  15.254  44.363   7.326
 4080POPC   C1B52087  15.280  44.864   6.299
 4080POPC   C2B52088  15.026  44.888   6.660
 4080POPC   C3B52089  15.112  44.798   7.085
 4080POPC   C4B52090  15.342  44.919   7.450
 4081POPC   NC352091   8.022  26.596   4.847
 4081POPC   PO452092   8.323  26.790   5.400
 4081POPC   GL152093   8.253  26.757   5.825
 4081POPC   GL252094   8.591  26.680   5.831
 4081POPC   C1A52095   8.052  26.716   6.234
 4081POPC   D2A52096   8.172  26.857   6.645
 4081POPC   C3A52097   8.034  26.631   7.015
 4081POPC   C4A52098   8.185  26.692   7.449
 4081POPC   C1B52099   8.565  26.743   6.269
 4081POPC   C2B52100   8.550  26.498   6.622
 4081POPC   C3B52101   8.539  26.621   7.047
 4081POPC   C4B52102   8.536  27.016   7.239
 4082POPC   NC352103  21.315  15.486   5.235
 4082POPC   PO452104  21.722  15.019   5.458
 4082POPC   GL152105  21.505  15.181   5.814
 4082POPC   GL252106  21.221  15.411   5.778
 4082POPC   C1A52107  21.440  15.311   6.240
 4082POPC   D2A52108  21.680  15.415   6.563
 4082POPC   C3A52109  21.662  15.172   6.921
 4082POPC   C4A52110  21.276  15.156   7.145
 4082POPC   C1B52111  20.957  15.481   6.191
 4082POPC   C2B52112  21.000  15.346   6.657
 4082POPC   C3B52113  20.942  15.533   7.085
 4082POPC   C4B52114  21.236  15.548   7.467
 4083POPC   NC352115  33.933   2.593   5.418
 4083POPC   PO452116  33.559   3.235   5.472
 4083POPC   GL152117  33.580   2.929   5.832
 4083POPC   GL252118  33.523   2.570   5.763
 4083POPC   C1A52119  33.749   2.953   6.256
 4083POPC   D2A52120  33.957   3.010   6.667
 4083POPC   C3A52121  33.720   2.918   7.035
 4083POPC   C4A52122  33.978   2.796   7.374
 4083POPC   C1B52123  33.635   2.447   6.200
 4083POPC   C2B52124  33.634   2.591   6.613
 4083POPC   C3B52125  33.458   2.452   6.989
 4083POPC   C4B52126  33.353   2.600   7.344
 4084POPC   NC352127  25.595   2.219   5.392
 4084POPC   PO452128  26.217   1.873   5.454
 4084POPC   GL152129  26.203   1.663   5.844
 4084POPC   GL252130  25.878   1.802   5.876
 4084POPC   C1A52131  26.098   1.558   6.271
 4084POPC   D2A52132  26.239   1.717   6.675
 4084POPC   C3A52133  26.040   1.911   7.010
 4084POPC   C4A52134  26.384   2.103   7.182
 4084POPC   C1B52135  26.145   2.070   6.159
 4084POPC   C2B52136  26.048   2.204   6.558
 4084POPC   C3B52137  26.119   2.442   6.898
 4084POPC   C4B52138  25.938   2.373   7.283
 4085POPC   NC352139  15.955  40.274   5.525
 4085POPC   PO452140  16.238  40.900   5.476
 4085POPC   GL152141  15.995  40.773   5.844
 4085POPC   GL252142  15.747  40.501   5.951
 4085POPC   C1A52143  16.086  40.874   6.281
 4085POPC   D2A52144  15.763  41.044   6.580
 4085POPC   C3A52145  15.858  40.930   6.979
 4085POPC   C4A52146  16.229  40.977   7.241
 4085POPC   C1B52147  15.770  40.512   6.434
 4085POPC   C2B52148  16.102  40.534   6.743
 4085POPC   C3B52149  16.052  40.498   7.193
 4085POPC   C4B52150  15.629  40.609   7.319
 4086POPC   NC352151  24.962  13.322   5.302
 4086POPC   PO452152  25.060  13.965   5.507
 4086POPC   GL152153  25.218  13.721   5.858
 4086POPC   GL252154  25.242  13.391   5.737
 4086POPC   C1A52155  25.408  13.694   6.312
 4086POPC   D2A52156  25.577  13.827   6.759
 4086POPC   C3A52157  25.312  13.880   7.126
 4086POPC   C4A52158  24.948  13.921   7.370
 4086POPC   C1B52159  25.131  13.246   6.158
 4086POPC   C2B52160  25.280  13.250   6.583
 4086POPC   C3B52161  25.116  13.231   7.008
 4086POPC   C4B52162  25.488  13.105   7.197
 4087POPC   NC352163  37.167   4.103   5.290
 4087POPC   PO452164  36.574   4.426   5.457
 4087POPC   GL152165  36.832   4.146   5.717
 4087POPC   GL252166  36.846   4.433   5.929
 4087POPC   C1A52167  37.045   4.003   6.133
 4087POPC   D2A52168  37.206   4.221   6.521
 4087POPC   C3A52169  37.052   4.080   6.936
 4087POPC   C4A52170  36.711   4.131   7.226
 4087POPC   C1B52171  36.501   4.570   6.185
 4087POPC   C2B52172  36.375   4.591   6.640
 4087POPC   C3B52173  36.747   4.518   6.896
 4087POPC   C4B52174  37.133   4.537   7.160
 4088POPC   NC352175  14.098  16.803   5.512
 4088POPC   PO452176  14.746  16.682   5.513
 4088POPC   GL152177  14.433  16.528   5.816
 4088POPC   GL252178  14.424  16.880   5.904
 4088POPC   C1A52179  14.381  16.516   6.276
 4088POPC   D2A52180  14.510  16.785   6.645
 4088POPC   C3A52181  14.402  16.644   7.056
 4088POPC   C4A52182  14.549  16.533   7.478
 4088POPC   C1B52183  14.214  17.035   6.243
 4088POPC   C2B52184  14.043  17.032   6.620
 4088POPC   C3B52185  14.236  17.131   6.970
 4088POPC   C4B52186  14.165  16.981   7.358
 4089POPC   NC352187   7.922  23.868   5.091
 4089POPC   PO452188   7.416  23.634   5.488
 4089POPC   GL152189   7.261  23.638   5.888
 4089POPC   GL252190   7.611  23.667   6.009
 4089POPC   C1A52191   7.212  23.775   6.327
 4089POPC   D2A52192   7.343  23.574   6.737
 4089POPC   C3A52193   7.182  23.831   7.066
 4089POPC   C4A52194   7.332  24.140   7.368
 4089POPC   C1B52195   7.889  23.610   6.378
 4089POPC   C2B52196   7.878  23.569   6.839
 4089POPC   C3B52197   7.664  23.603   7.247
 4089POPC   C4B52198   7.726  23.871   7.645
 4090POPC   NC352199  25.410  34.680   5.337
 4090POPC   PO452200  24.768  34.550   5.309
 4090POPC   GL152201  24.886  34.582   5.735
 4090POPC   GL252202  25.186  34.409   5.759
 4090POPC   C1A52203  24.955  34.894   6.076
 4090POPC   D2A52204  25.188  35.047   6.448
 4090POPC   C3A52205  25.138  34.798   6.819
 4090POPC   C4A52206  25.039  34.770   7.248
 4090POPC   C1B52207  25.406  34.630   6.112
 4090POPC   C2B52208  25.557  34.674   6.560
 4090POPC   C3B52209  25.506  34.442   6.953
 4090POPC   C4B52210  25.574  34.470   7.387
 4091POPC   NC352211  12.718  10.867   5.203
 4091POPC   PO452212  12.804  10.281   5.470
 4091POPC   GL152213  12.959  10.239   5.884
 4091POPC   GL252214  12.605  10.259   6.005
 4091POPC   C1A52215  13.104  10.514   6.240
 4091POPC   D2A52216  13.006  10.821   6.603
 4091POPC   C3A52217  13.251  10.820   6.995
 4091POPC   C4A52218  13.138  10.486   7.280
 4091POPC   C1B52219  12.678  10.297   6.455
 4091POPC   C2B52220  12.738  10.349   6.914
 4091POPC   C3B52221  12.555  10.416   7.328
 4091POPC   C4B52222  12.514  10.239   7.751
 4092POPC   NC352223  35.087   0.259   5.456
 4092POPC   PO452224  35.805   0.342   5.436
 4092POPC   GL152225  35.547   0.363   5.850
 4092POPC   GL252226  35.207   0.530   5.873
 4092POPC   C1A52227  35.518   0.348   6.321
 4092POPC   D2A52228  35.234   0.459   6.676
 4092POPC   C3A52229  35.370   0.398   7.078
 4092POPC   C4A52230  35.460   0.418   7.515
 4092POPC   C1B52231  35.242   0.787   6.258
 4092POPC   C2B52232  35.023   0.911   6.650
 4092POPC   C3B52233  34.959   0.725   7.065
 4092POPC   C4B52234  35.016   0.726   7.549
 4093POPC   NC352235   5.213  24.140   5.112
 4093POPC   PO452236   4.992  24.715   5.366
 4093POPC   GL152237   5.036  24.442   5.721
 4093POPC   GL252238   4.830  24.139   5.612
 4093POPC   C1A52239   5.090  24.565   6.189
 4093POPC   D2A52240   4.825  24.577   6.568
 4093POPC   C3A52241   4.955  24.769   6.955
 4093POPC   C4A52242   5.250  24.621   7.270
 4093POPC   C1B52243   4.817  24.141   6.091
 4093POPC   C2B52244   5.036  24.100   6.513
 4093POPC   C3B52245   5.052  24.239   6.958
 4093POPC   C4B52246   4.930  24.066   7.361
 4094POPC   NC352247   7.780  28.986   5.363
 4094POPC   PO452248   8.283  29.488   5.347
 4094POPC   GL152249   8.174  29.358   5.780
 4094POPC   GL252250   8.099  28.992   5.825
 4094POPC   C1A52251   8.237  29.296   6.250
 4094POPC   D2A52252   8.457  29.345   6.666
 4094POPC   C3A52253   8.153  29.229   6.992
 4094POPC   C4A52254   8.129  29.345   7.456
 4094POPC   C1B52255   8.302  28.787   6.228
 4094POPC   C2B52256   8.348  28.822   6.712
 4094POPC   C3B52257   8.322  28.730   7.186
 4094POPC   C4B52258   8.648  28.586   7.509
 4095POPC   NC352259  40.606   6.662   5.626
 4095POPC   PO452260  41.112   6.286   5.364
 4095POPC   GL152261  41.124   6.500   5.783
 4095POPC   GL252262  41.060   6.855   5.778
 4095POPC   C1A52263  40.948   6.506   6.170
 4095POPC   D2A52264  41.001   6.618   6.549
 4095POPC   C3A52265  40.748   6.470   6.834
 4095POPC   C4A52266  40.754   6.495   7.253
 4095POPC   C1B52267  40.795   7.005   6.148
 4095POPC   C2B52268  40.580   6.909   6.563
 4095POPC   C3B52269  40.742   6.981   6.985
 4095POPC   C4B52270  40.585   6.923   7.427
 4096POPC   NC352271  12.646  35.162   5.504
 4096POPC   PO452272  13.324  34.978   5.581
 4096POPC   GL152273  13.101  35.319   5.879
 4096POPC   GL252274  12.740  35.364   5.942
 4096POPC   C1A52275  13.080  35.459   6.321
 4096POPC   D2A52276  12.919  35.236   6.702
 4096POPC   C3A52277  12.961  35.329   7.158
 4096POPC   C4A52278  13.049  35.183   7.647
 4096POPC   C1B52279  12.567  35.330   6.308
 4096POPC   C2B52280  12.427  35.532   6.634
 4096POPC   C3B52281  12.503  35.665   7.035
 4096POPC   C4B52282  12.538  35.452   7.404
 4097POPC   NC352283  21.091  44.561   5.410
 4097POPC   PO452284  20.474  44.766   5.441
 4097POPC   GL152285  20.629  44.661   5.832
 4097POPC   GL252286  20.974  44.806   5.843
 4097POPC   C1A52287  20.427  44.583   6.269
 4097POPC   D2A52288  20.572  44.402   6.659
 4097POPC   C3A52289  20.314  44.415   7.064
 4097POPC   C4A52290  20.321  44.257   7.510
 4097POPC   C1B52291  20.930  44.566   6.223
 4097POPC   C2B52292  20.903  44.793   6.595
 4097POPC   C3B52293  20.616  44.816   6.941
 4097POPC   C4B52294  20.760  44.600   7.266
 4098POPC   NC352295  14.797  35.959   5.239
 4098POPC   PO452296  14.164  35.997   5.483
 4098POPC   GL152297  14.403  36.092   5.823
 4098POPC   GL252298  14.731  35.961   5.784
 4098POPC   C1A52299  14.429  36.245   6.237
 4098POPC   D2A52300  14.675  36.277   6.594
 4098POPC   C3A52301  14.460  36.188   6.981
 4098POPC   C4A52302  14.168  35.890   7.156
 4098POPC   C1B52303  14.801  35.841   6.219
 4098POPC   C2B52304  14.614  35.768   6.643
 4098POPC   C3B52305  14.726  35.759   7.104
 4098POPC   C4B52306  14.537  35.705   7.526
 4099POPC   NC352307  23.849  24.035   5.370
 4099POPC   PO452308  23.972  23.333   5.462
 4099POPC   GL152309  23.858  23.665   5.741
 4099POPC   GL252310  24.041  23.982   5.830
 4099POPC   C1A52311  23.795  23.650   6.161
 4099POPC   D2A52312  23.515  23.709   6.494
 4099POPC   C3A52313  23.662  23.643   6.889
 4099POPC   C4A52314  23.613  23.868   7.219
 4099POPC   C1B52315  24.215  23.960   6.206
 4099POPC   C2B52316  24.051  23.850   6.584
 4099POPC   C3B52317  24.092  23.889   7.008
 4099POPC   C4B52318  24.006  23.554   7.288
 4100POPC   NC352319  41.525  18.798   5.336
 4100POPC   PO452320  41.568  19.408   5.409
 4100POPC   GL152321  41.352  19.350   5.761
 4100POPC   GL252322  41.157  19.062   5.624
 4100POPC   C1A52323  41.607  19.283   6.131
 4100POPC   D2A52324  41.496  19.104   6.516
 4100POPC   C3A52325  41.565  19.204   6.940
 4100POPC   C4A52326  41.871  18.928   7.093
 4100POPC   C1B52327  41.243  18.909   6.041
 4100POPC   C2B52328  41.088  18.759   6.437
 4100POPC   C3B52329  41.175  18.849   6.867
 4100POPC   C4B52330  41.325  18.895   7.299
 4101POPC   NC352331  31.693  31.857   5.490
 4101POPC   PO452332  31.175  31.364   5.308
 4101POPC   GL152333  31.418  31.471   5.686
 4101POPC   GL252334  31.526  31.169   5.832
 4101POPC   C1A52335  31.518  31.613   6.124
 4101POPC   D2A52336  31.296  31.624   6.520
 4101POPC   C3A52337  31.382  31.600   6.961
 4101POPC   C4A52338  30.993  31.720   7.193
 4101POPC   C1B52339  31.496  31.107   6.271
 4101POPC   C2B52340  31.401  31.137   6.696
 4101POPC   C3B52341  31.583  31.163   7.091
 4101POPC   C4B52342  31.424  31.220   7.488
 4102POPC   NC352343  27.320  16.334   5.586
 4102POPC   PO452344  26.799  16.604   5.337
 4102POPC   GL152345  26.682  16.813   5.755
 4102POPC   GL252346  26.669  16.490   5.940
 4102POPC   C1A52347  26.675  16.924   6.220
 4102POPC   D2A52348  26.709  16.586   6.535
 4102POPC   C3A52349  26.787  16.754   6.898
 4102POPC   C4A52350  26.818  16.839   7.285
 4102POPC   C1B52351  27.075  16.582   6.189
 4102POPC   C2B52352  27.191  16.452   6.653
 4102POPC   C3B52353  27.189  16.525   7.135
 4102POPC   C4B52354  27.128  16.588   7.613
 4103POPC   NC352355  31.992  28.838   5.412
 4103POPC   PO452356  32.511  29.277   5.361
 4103POPC   GL152357  32.250  29.187   5.714
 4103POPC   GL252358  31.872  29.235   5.716
 4103POPC   C1A52359  32.445  29.058   6.097
 4103POPC   D2A52360  32.445  29.297   6.459
 4103POPC   C3A52361  32.431  29.270   6.888
 4103POPC   C4A52362  32.613  29.174   7.285
 4103POPC   C1B52363  31.937  28.934   6.070
 4103POPC   C2B52364  32.141  28.874   6.463
 4103POPC   C3B52365  32.006  28.970   6.854
 4103POPC   C4B52366  32.111  29.087   7.244
 4104POPC   NC352367  40.322  43.935   5.396
 4104POPC   PO452368  40.979  43.887   5.427
 4104POPC   GL152369  40.671  43.769   5.739
 4104POPC   GL252370  40.641  44.123   5.779
 4104POPC   C1A52371  40.635  43.802   6.191
 4104POPC   D2A52372  40.965  43.805   6.494
 4104POPC   C3A52373  40.895  43.897   6.921
 4104POPC   C4A52374  40.564  43.761   7.168
 4104POPC   C1B52375  40.873  44.254   6.145
 4104POPC   C2B52376  40.778  44.296   6.551
 4104POPC   C3B52377  40.712  44.375   6.962
 4104POPC   C4B52378  40.792  44.211   7.346
 4105POPC   NC352379  14.004  22.570   5.393
 4105POPC   PO452380  13.616  23.122   5.589
 4105POPC   GL152381  13.731  22.764   5.814
 4105POPC   GL252382  14.078  22.872   5.808
 4105POPC   C1A52383  13.548  22.686   6.230
 4105POPC   D2A52384  13.392  22.865   6.628
 4105POPC   C3A52385  13.596  22.720   7.019
 4105POPC   C4A52386  13.453  22.648   7.509
 4105POPC   C1B52387  13.921  23.062   6.217
 4105POPC   C2B52388  13.904  22.979   6.660
 4105POPC   C3B52389  13.875  23.146   7.070
 4105POPC   C4B52390  13.930  22.825   7.385
 4106POPC   NC352391  26.462  36.044   5.611
 4106POPC   PO452392  26.915  36.436   5.400
 4106POPC   GL152393  26.854  36.385   5.863
 4106POPC   GL252394  26.512  36.506   5.860
 4106POPC   C1A52395  26.960  36.157   6.301
 4106POPC   D2A52396  26.861  35.897   6.711
 4106POPC   C3A52397  27.029  36.047   7.150
 4106POPC   C4A52398  27.073  36.280   7.564
 4106POPC   C1B52399  26.485  36.325   6.271
 4106POPC   C2B52400  26.653  36.350   6.693
 4106POPC   C3B52401  26.515  36.145   7.081
 4106POPC   C4B52402  26.553  36.153   7.554
 4107POPC   NC352403  18.755  16.620   5.490
 4107POPC   PO452404  19.225  17.038   5.357
 4107POPC   GL152405  18.923  17.071   5.733
 4107POPC   GL252406  18.773  16.780   5.961
 4107POPC   C1A52407  19.093  17.116   6.147
 4107POPC   D2A52408  18.924  16.910   6.476
 4107POPC   C3A52409  19.018  16.919   6.897
 4107POPC   C4A52410  18.848  16.731   7.254
 4107POPC   C1B52411  19.121  16.550   6.183
 4107POPC   C2B52412  19.148  16.484   6.646
 4107POPC   C3B52413  19.225  16.418   7.078
 4107POPC   C4B52414  19.186  16.254   7.509
 4108POPC   NC352415  39.331  42.757   5.567
 4108POPC   PO452416  38.823  42.246   5.361
 4108POPC   GL152417  39.077  42.292   5.769
 4108POPC   GL252418  39.452  42.287   5.722
 4108POPC   C1A52419  39.140  42.117   6.216
 4108POPC   D2A52420  38.969  42.065   6.667
 4108POPC   C3A52421  39.215  41.981   7.040
 4108POPC   C4A52422  39.130  42.016   7.496
 4108POPC   C1B52423  39.563  42.459   6.129
 4108POPC   C2B52424  39.419  42.396   6.550
 4108POPC   C3B52425  39.585  42.511   6.944
 4108POPC   C4B52426  39.559  42.265   7.279
 4109POPC   NC352427   4.606  22.629   5.479
 4109POPC   PO452428   4.731  21.991   5.354
 4109POPC   GL152429   4.449  22.178   5.692
 4109POPC   GL252430   4.134  21.993   5.740
 4109POPC   C1A52431   4.390  22.369   6.111
 4109POPC   D2A52432   4.439  22.199   6.525
 4109POPC   C3A52433   4.648  22.337   6.885
 4109POPC   C4A52434   4.447  22.141   7.211
 4109POPC   C1B52435   3.894  22.254   6.047
 4109POPC   C2B52436   3.940  22.392   6.495
 4109POPC   C3B52437   4.071  22.449   6.936
 4109POPC   C4B52438   3.851  22.304   7.325
 4110POPC   NC352439  16.918  42.192   5.500
 4110POPC   PO452440  16.272  42.429   5.520
 4110POPC   GL152441  16.485  42.301   5.806
 4110POPC   GL252442  16.700  42.584   5.814
 4110POPC   C1A52443  16.556  42.119   6.174
 4110POPC   D2A52444  16.456  42.239   6.595
 4110POPC   C3A52445  16.767  42.197   6.894
 4110POPC   C4A52446  16.637  42.196   7.299
 4110POPC   C1B52447  16.560  42.621   6.263
 4110POPC   C2B52448  16.752  42.672   6.666
 4110POPC   C3B52449  16.684  42.668   7.110
 4110POPC   C4B52450  16.914  42.623   7.493
 4111POPC   NC352451  27.357  22.485   5.510
 4111POPC   PO452452  27.688  21.922   5.315
 4111POPC   GL152453  27.648  21.965   5.752
 4111POPC   GL252454  27.547  21.642   5.816
 4111POPC   C1A52455  27.631  22.215   6.152
 4111POPC   D2A52456  27.381  22.406   6.519
 4111POPC   C3A52457  27.457  22.222   6.920
 4111POPC   C4A52458  27.744  22.311   7.271
 4111POPC   C1B52459  27.767  21.688   6.201
 4111POPC   C2B52460  27.772  21.927   6.587
 4111POPC   C3B52461  27.894  21.916   7.026
 4111POPC   C4B52462  28.022  21.889   7.464
 4112POPC   NC352463   9.297  39.278   5.268
 4112POPC   PO452464   8.691  39.623   5.421
 4112POPC   GL152465   9.004  39.398   5.715
 4112POPC   GL252466   8.975  39.040   5.820
 4112POPC   C1A52467   9.223  39.421   6.111
 4112POPC   D2A52468   9.118  39.353   6.525
 4112POPC   C3A52469   9.240  39.567   6.893
 4112POPC   C4A52470   9.106  39.404   7.283
 4112POPC   C1B52471   8.758  39.099   6.190
 4112POPC   C2B52472   8.636  39.215   6.614
 4112POPC   C3B52473   8.834  39.115   6.986
 4112POPC   C4B52474   8.649  39.061   7.418
 4113POPC   NC352475  12.409  34.977   5.016
 4113POPC   PO452476  12.070  34.502   5.429
 4113POPC   GL152477  12.046  34.369   5.835
 4113POPC   GL252478  12.358  34.444   5.885
 4113POPC   C1A52479  11.982  34.573   6.227
 4113POPC   D2A52480  12.071  34.886   6.564
 4113POPC   C3A52481  12.036  34.709   6.998
 4113POPC   C4A52482  11.726  34.423   7.218
 4113POPC   C1B52483  12.385  34.237   6.228
 4113POPC   C2B52484  12.221  34.327   6.600
 4113POPC   C3B52485  12.074  34.163   6.938
 4113POPC   C4B52486  12.223  34.316   7.287
 4114POPC   NC352487  17.578   9.858   5.344
 4114POPC   PO452488  17.800   9.319   5.714
 4114POPC   GL152489  17.715   9.740   5.831
 4114POPC   GL252490  17.350   9.819   5.808
 4114POPC   C1A52491  17.615   9.816   6.257
 4114POPC   D2A52492  17.490  10.073   6.584
 4114POPC   C3A52493  17.649   9.906   6.989
 4114POPC   C4A52494  17.599   9.683   7.378
 4114POPC   C1B52495  17.113   9.675   6.167
 4114POPC   C2B52496  17.179   9.624   6.607
 4114POPC   C3B52497  17.138   9.829   6.988
 4114POPC   C4B52498  17.048   9.579   7.331
 4115POPC   NC352499   8.931  21.585   5.190
 4115POPC   PO452500   9.419  21.230   5.387
 4115POPC   GL152501   9.132  21.396   5.696
 4115POPC   GL252502   9.348  21.261   5.909
 4115POPC   C1A52503   9.005  21.545   6.152
 4115POPC   D2A52504   8.959  21.783   6.555
 4115POPC   C3A52505   9.011  21.613   6.981
 4115POPC   C4A52506   8.811  21.539   7.413
 4115POPC   C1B52507   9.181  21.044   6.259
 4115POPC   C2B52508   9.060  21.004   6.666
 4115POPC   C3B52509   9.210  21.135   7.028
 4115POPC   C4B52510   9.068  21.075   7.425
 4116POPC   NC352511  19.050  43.467   5.299
 4116POPC   PO452512  19.605  43.075   5.405
 4116POPC   GL152513  19.220  43.061   5.709
 4116POPC   GL252514  19.000  43.345   5.778
 4116POPC   C1A52515  19.202  43.113   6.169
 4116POPC   D2A52516  19.407  43.404   6.437
 4116POPC   C3A52517  19.445  43.180   6.824
 4116POPC   C4A52518  19.169  43.025   7.154
 4116POPC   C1B52519  18.785  43.430   6.156
 4116POPC   C2B52520  18.905  43.374   6.553
 4116POPC   C3B52521  18.780  43.303   6.950
 4116POPC   C4B52522  18.935  43.479   7.274
 4117POPC   NC352523  21.619  11.975   5.361
 4117POPC   PO452524  21.047  11.627   5.494
 4117POPC   GL152525  21.376  11.830   5.811
 4117POPC   GL252526  21.780  11.784   5.815
 4117POPC   C1A52527  21.350  11.939   6.267
 4117POPC   D2A52528  21.138  12.191   6.615
 4117POPC   C3A52529  20.977  12.079   7.046
 4117POPC   C4A52530  21.026  12.242   7.479
 4117POPC   C1B52531  21.866  12.038   6.197
 4117POPC   C2B52532  21.664  12.196   6.584
 4117POPC   C3B52533  21.468  11.981   6.959
 4117POPC   C4B52534  21.300  11.823   7.368
 4118POPC   NC352535  13.394  32.892   5.241
 4118POPC   PO452536  13.808  33.318   5.541
 4118POPC   GL152537  13.398  33.243   5.704
 4118POPC   GL252538  13.318  32.873   5.763
 4118POPC   C1A52539  13.354  33.268   6.130
 4118POPC   D2A52540  13.673  33.217   6.434
 4118POPC   C3A52541  13.546  33.192   6.852
 4118POPC   C4A52542  13.691  33.287   7.244
 4118POPC   C1B52543  13.550  32.790   6.161
 4118POPC   C2B52544  13.607  32.684   6.619
 4118POPC   C3B52545  13.715  32.742   7.064
 4118POPC   C4B52546  13.379  32.911   7.298
 4119POPC   NC352547   8.701  14.894   5.435
 4119POPC   PO452548   9.285  15.265   5.377
 4119POPC   GL152549   9.119  15.024   5.755
 4119POPC   GL252550   8.777  15.148   5.885
 4119POPC   C1A52551   9.127  15.042   6.246
 4119POPC   D2A52552   8.802  14.954   6.556
 4119POPC   C3A52553   8.988  15.026   6.948
 4119POPC   C4A52554   9.240  15.294   7.190
 4119POPC   C1B52555   8.796  15.443   6.270
 4119POPC   C2B52556   8.855  15.465   6.738
 4119POPC   C3B52557   8.749  15.402   7.224
 4119POPC   C4B52558   8.718  15.412   7.705
 4120POPC   NC352559  11.118  41.282   5.301
 4120POPC   PO452560  11.415  41.893   5.489
 4120POPC   GL152561  11.221  41.844   5.887
 4120POPC   GL252562  11.289  41.488   5.868
 4120POPC   C1A52563  11.275  41.710   6.333
 4120POPC   D2A52564  11.595  41.432   6.566
 4120POPC   C3A52565  11.498  41.318   6.977
 4120POPC   C4A52566  11.260  41.473   7.289
 4120POPC   C1B52567  11.277  41.205   6.245
 4120POPC   C2B52568  11.096  41.259   6.643
 4120POPC   C3B52569  11.047  41.084   7.036
 4120POPC   C4B52570  11.078  41.040   7.473
 4121POPC   NC352571  33.894  20.825   5.504
 4121POPC   PO452572  33.857  20.271   5.623
 4121POPC   GL152573  33.877  20.497   5.945
 4121POPC   GL252574  33.571  20.309   6.053
 4121POPC   C1A52575  33.726  20.739   6.286
 4121POPC   D2A52576  33.428  20.700   6.611
 4121POPC   C3A52577  33.621  20.758   7.024
 4121POPC   C4A52578  33.788  20.860   7.463
 4121POPC   C1B52579  33.871  20.251   6.410
 4121POPC   C2B52580  33.853  20.256   6.892
 4121POPC   C3B52581  33.633  20.342   7.325
 4121POPC   C4B52582  33.536  20.246   7.773
 4122POPC   NC352583  10.138  34.974   5.370
 4122POPC   PO452584  10.800  34.747   5.328
 4122POPC   GL152585  10.815  34.659   5.796
 4122POPC   GL252586  10.520  34.808   5.923
 4122POPC   C1A52587  10.843  34.650   6.252
 4122POPC   D2A52588  10.746  34.301   6.490
 4122POPC   C3A52589  10.699  34.385   6.894
 4122POPC   C4A52590  10.719  34.706   7.154
 4122POPC   C1B52591  10.335  34.517   6.215
 4122POPC   C2B52592  10.238  34.554   6.631
 4122POPC   C3B52593  10.235  34.505   7.062
 4122POPC   C4B52594  10.147  34.111   7.251
 4123POPC   NC352595  16.544  16.071   5.559
 4123POPC   PO452596  16.751  16.725   5.265
 4123POPC   GL152597  16.499  16.827   5.641
 4123POPC   GL252598  16.505  16.519   5.764
 4123POPC   C1A52599  16.464  16.881   6.120
 4123POPC   D2A52600  16.754  16.809   6.480
 4123POPC   C3A52601  16.707  16.718   6.927
 4123POPC   C4A52602  16.952  16.942   7.207
 4123POPC   C1B52603  16.861  16.508   6.042
 4123POPC   C2B52604  16.980  16.333   6.448
 4123POPC   C3B52605  17.117  16.299   6.875
 4123POPC   C4B52606  16.976  16.396   7.287
 4124POPC   NC352607  10.500  28.632   5.592
 4124POPC   PO452608  10.484  28.005   5.431
 4124POPC   GL152609  10.429  28.156   5.819
 4124POPC   GL252610  10.789  28.268   5.817
 4124POPC   C1A52611  10.347  28.454   6.181
 4124POPC   D2A52612  10.365  28.298   6.591
 4124POPC   C3A52613  10.230  28.512   6.956
 4124POPC   C4A52614  10.352  28.486   7.372
 4124POPC   C1B52615  10.732  28.118   6.231
 4124POPC   C2B52616  10.868  28.254   6.630
 4124POPC   C3B52617  10.745  28.373   7.062
 4124POPC   C4B52618  10.721  28.141   7.493
 4125POPC   NC352619  11.123  35.033   5.091
 4125POPC   PO452620  11.441  35.510   5.405
 4125POPC   GL152621  11.380  35.620   5.836
 4125POPC   GL252622  11.405  35.288   5.941
 4125POPC   C1A52623  11.154  35.629   6.252
 4125POPC   D2A52624  11.204  35.433   6.652
 4125POPC   C3A52625  11.132  35.628   7.032
 4125POPC   C4A52626  11.359  35.386   7.286
 4125POPC   C1B52627  11.126  35.096   6.240
 4125POPC   C2B52628  10.857  35.069   6.588
 4125POPC   C3B52629  11.069  35.063   6.991
 4125POPC   C4B52630  10.956  35.070   7.406
 4126POPC   NC352631   5.524  11.355   5.393
 4126POPC   PO452632   4.929  11.623   5.387
 4126POPC   GL152633   5.080  11.503   5.782
 4126POPC   GL252634   5.089  11.830   5.938
 4126POPC   C1A52635   4.883  11.397   6.197
 4126POPC   D2A52636   5.053  11.367   6.617
 4126POPC   C3A52637   4.939  11.129   6.972
 4126POPC   C4A52638   5.250  11.053   7.339
 4126POPC   C1B52639   5.106  11.834   6.392
 4126POPC   C2B52640   5.073  11.844   6.834
 4126POPC   C3B52641   4.964  11.587   7.170
 4126POPC   C4B52642   5.126  11.514   7.572
 4127POPC   NC352643  23.142  37.204   5.425
 4127POPC   PO452644  23.340  36.599   5.410
 4127POPC   GL152645  23.114  36.813   5.754
 4127POPC   GL252646  23.278  37.099   5.911
 4127POPC   C1A52647  22.868  36.774   6.121
 4127POPC   D2A52648  22.759  36.920   6.524
 4127POPC   C3A52649  22.792  36.720   6.871
 4127POPC   C4A52650  22.766  36.872   7.243
 4127POPC   C1B52651  22.928  37.281   6.172
 4127POPC   C2B52652  22.792  37.412   6.604
 4127POPC   C3B52653  22.951  37.264   6.997
 4127POPC   C4B52654  23.259  37.357   7.313
 4128POPC   NC352655  44.020   7.769   5.389
 4128POPC   PO452656  43.739   8.367   5.141
 4128POPC   GL152657  43.870   8.229   5.633
 4128POPC   GL252658  44.174   8.363   5.794
 4128POPC   C1A52659  43.884   8.100   6.115
 4128POPC   D2A52660  44.107   7.957   6.518
 4128POPC   C3A52661  43.963   8.146   6.929
 4128POPC   C4A52662  43.781   8.010   7.315
 4128POPC   C1B52663  44.302   8.411   6.208
 4128POPC   C2B52664  44.252   8.452   6.634
 4128POPC   C3B52665  44.453   8.317   7.029
 4128POPC   C4B52666  44.224   8.232   7.415
 4129POPC   NC352667  37.340  31.704   5.380
 4129POPC   PO452668  37.652  31.133   5.589
 4129POPC   GL152669  37.705  31.459   5.843
 4129POPC   GL252670  37.371  31.525   5.834
 4129POPC   C1A52671  37.726  31.615   6.251
 4129POPC   D2A52672  37.860  31.746   6.631
 4129POPC   C3A52673  37.676  31.598   6.964
 4129POPC   C4A52674  37.844  31.608   7.342
 4129POPC   C1B52675  37.301  31.316   6.184
 4129POPC   C2B52676  37.432  31.336   6.584
 4129POPC   C3B52677  37.286  31.261   6.977
 4129POPC   C4B52678  37.395  31.328   7.373
 4130POPC   NC352679   5.421  22.930   5.469
 4130POPC   PO452680   4.810  23.165   5.428
 4130POPC   GL152681   4.914  22.941   5.769
 4130POPC   GL252682   4.786  23.208   5.950
 4130POPC   C1A52683   4.961  22.721   6.161
 4130POPC   D2A52684   5.127  22.850   6.561
 4130POPC   C3A52685   5.043  22.748   6.990
 4130POPC   C4A52686   5.260  22.836   7.384
 4130POPC   C1B52687   4.788  23.199   6.382
 4130POPC   C2B52688   4.815  23.206   6.817
 4130POPC   C3B52689   4.943  23.201   7.225
 4130POPC   C4B52690   4.847  23.060   7.648
 4131POPC   NC352691  11.936   2.718   5.459
 4131POPC   PO452692  11.819   3.294   5.747
 4131POPC   GL152693  12.091   2.956   5.910
 4131POPC   GL252694  12.017   2.584   5.931
 4131POPC   C1A52695  12.168   2.852   6.338
 4131POPC   D2A52696  12.448   2.981   6.659
 4131POPC   C3A52697  12.224   2.889   7.004
 4131POPC   C4A52698  12.170   2.760   7.398
 4131POPC   C1B52699  11.803   2.445   6.293
 4131POPC   C2B52700  11.912   2.539   6.707
 4131POPC   C3B52701  11.799   2.506   7.132
 4131POPC   C4B52702  11.714   2.600   7.557
 4132POPC   NC352703  25.838  29.778   5.447
 4132POPC   PO452704  26.137  30.353   5.185
 4132POPC   GL152705  26.043  30.243   5.672
 4132POPC   GL252706  26.039  29.896   5.899
 4132POPC   C1A52707  26.051  30.334   6.142
 4132POPC   D2A52708  26.031  30.022   6.467
 4132POPC   C3A52709  25.919  30.165   6.874
 4132POPC   C4A52710  25.873  30.003   7.255
 4132POPC   C1B52711  26.291  29.643   6.223
 4132POPC   C2B52712  26.548  29.483   6.579
 4132POPC   C3B52713  26.538  29.480   7.044
 4132POPC   C4B52714  26.326  29.779   7.278
 4133POPC   NC352715  42.605  36.303   5.138
 4133POPC   PO452716  42.223  36.806   5.396
 4133POPC   GL152717  42.432  36.842   5.784
 4133POPC   GL252718  42.116  36.973   5.908
 4133POPC   C1A52719  42.588  36.728   6.209
 4133POPC   D2A52720  42.341  36.799   6.590
 4133POPC   C3A52721  42.540  36.703   6.985
 4133POPC   C4A52722  42.444  36.873   7.361
 4133POPC   C1B52723  42.426  37.198   6.182
 4133POPC   C2B52724  42.658  37.192   6.564
 4133POPC   C3B52725  42.424  37.189   6.936
 4133POPC   C4B52726  42.588  37.359   7.257
 4134POPC   NC352727  25.743  41.563   5.175
 4134POPC   PO452728  25.910  41.891   5.750
 4134POPC   GL152729  25.922  41.466   5.762
 4134POPC   GL252730  25.636  41.269   5.604
 4134POPC   C1A52731  26.063  41.352   6.179
 4134POPC   D2A52732  26.308  41.366   6.549
 4134POPC   C3A52733  26.094  41.565   6.871
 4134POPC   C4A52734  25.972  41.642   7.283
 4134POPC   C1B52735  25.547  41.276   6.055
 4134POPC   C2B52736  25.495  41.159   6.483
 4134POPC   C3B52737  25.667  41.284   6.880
 4134POPC   C4B52738  25.527  41.420   7.294
 4135POPC   NC352739   1.237  31.675   5.200
 4135POPC   PO452740   0.941  31.097   5.277
 4135POPC   GL152741   1.217  31.302   5.629
 4135POPC   GL252742   1.137  31.663   5.697
 4135POPC   C1A52743   1.323  31.160   6.075
 4135POPC   D2A52744   1.473  31.132   6.512
 4135POPC   C3A52745   1.498  31.428   6.844
 4135POPC   C4A52746   1.305  31.199   7.214
 4135POPC   C1B52747   1.083  31.600   6.101
 4135POPC   C2B52748   0.883  31.316   6.375
 4135POPC   C3B52749   0.997  31.385   6.776
 4135POPC   C4B52750   1.123  31.669   7.108
 4136POPC   NC352751  33.436   9.265   5.392
 4136POPC   PO452752  32.746   9.209   5.380
 4136POPC   GL152753  32.937   8.922   5.740
 4136POPC   GL252754  33.315   8.895   5.757
 4136POPC   C1A52755  32.939   9.033   6.186
 4136POPC   D2A52756  33.080   9.284   6.549
 4136POPC   C3A52757  33.015   9.095   6.959
 4136POPC   C4A52758  32.771   8.818   7.227
 4136POPC   C1B52759  33.282   8.667   6.167
 4136POPC   C2B52760  33.112   8.725   6.610
 4136POPC   C3B52761  33.202   8.597   7.080
 4136POPC   C4B52762  33.231   8.806   7.513
 4137POPC   NC352763   0.346  15.861   5.305
 4137POPC   PO452764   0.503  16.579   5.317
 4137POPC   GL152765   0.547  16.343   5.743
 4137POPC   GL252766   0.535  15.961   5.749
 4137POPC   C1A52767   0.476  16.175   6.187
 4137POPC   D2A52768   0.633  16.030   6.578
 4137POPC   C3A52769   0.454  16.170   7.007
 4137POPC   C4A52770   0.221  16.108   7.399
 4137POPC   C1B52771   0.462  15.658   6.092
 4137POPC   C2B52772   0.434  15.550   6.533
 4137POPC   C3B52773   0.538  15.667   6.939
 4137POPC   C4B52774   0.291  15.602   7.301
 4138POPC   NC352775  14.503  33.709   5.335
 4138POPC   PO452776  14.140  34.154   5.583
 4138POPC   GL152777  14.315  33.839   5.854
 4138POPC   GL252778  14.677  33.860   5.801
 4138POPC   C1A52779  14.280  33.763   6.316
 4138POPC   D2A52780  14.111  33.458   6.622
 4138POPC   C3A52781  14.358  33.530   6.974
 4138POPC   C4A52782  14.367  33.942   6.953
 4138POPC   C1B52783  14.745  33.591   6.163
 4138POPC   C2B52784  14.719  33.682   6.623
 4138POPC   C3B52785  14.850  33.673   7.066
 4138POPC   C4B52786  14.601  33.605   7.457
 4139POPC   NC352787  22.966  31.224   5.263
 4139POPC   PO452788  23.112  30.480   5.302
 4139POPC   GL152789  23.033  30.619   5.731
 4139POPC   GL252790  22.710  30.736   5.683
 4139POPC   C1A52791  23.034  30.539   6.202
 4139POPC   D2A52792  22.844  30.422   6.619
 4139POPC   C3A52793  23.044  30.576   6.994
 4139POPC   C4A52794  23.273  30.956   6.999
 4139POPC   C1B52795  22.668  30.881   6.119
 4139POPC   C2B52796  22.879  30.974   6.537
 4139POPC   C3B52797  22.834  31.210   6.929
 4139POPC   C4B52798  22.893  31.004   7.353
 4140POPC   NC352799  24.753  18.492   5.245
 4140POPC   PO452800  24.185  18.083   5.256
 4140POPC   GL152801  24.461  18.244   5.635
 4140POPC   GL252802  24.724  17.993   5.771
 4140POPC   C1A52803  24.525  18.390   6.093
 4140POPC   D2A52804  24.440  18.231   6.538
 4140POPC   C3A52805  24.522  18.395   6.954
 4140POPC   C4A52806  24.504  18.582   7.362
 4140POPC   C1B52807  24.815  17.980   6.221
 4140POPC   C2B52808  24.674  17.785   6.582
 4140POPC   C3B52809  24.578  17.903   7.000
 4140POPC   C4B52810  24.652  18.099   7.438
 4141POPC   NC352811  29.475   0.942   5.655
 4141POPC   PO452812  28.846   0.913   5.354
 4141POPC   GL152813  28.980   0.936   5.812
 4141POPC   GL252814  29.113   1.268   5.824
 4141POPC   C1A52815  29.255   1.009   6.237
 4141POPC   D2A52816  29.419   1.276   6.571
 4141POPC   C3A52817  29.177   1.273   6.941
 4141POPC   C4A52818  29.118   0.950   7.258
 4141POPC   C1B52819  29.055   1.493   6.205
 4141POPC   C2B52820  28.766   1.452   6.531
 4141POPC   C3B52821  28.760   1.628   6.881
 4141POPC   C4B52822  29.004   1.790   7.195
 4142POPC   NC352823  28.884  18.764   5.351
 4142POPC   PO452824  29.319  18.258   5.174
 4142POPC   GL152825  29.243  18.240   5.644
 4142POPC   GL252826  29.226  18.589   5.727
 4142POPC   C1A52827  29.070  18.273   6.104
 4142POPC   D2A52828  29.182  18.230   6.557
 4142POPC   C3A52829  28.989  18.296   6.964
 4142POPC   C4A52830  29.239  18.163   7.312
 4142POPC   C1B52831  29.358  18.701   6.160
 4142POPC   C2B52832  29.580  18.537   6.521
 4142POPC   C3B52833  29.519  18.419   6.965
 4142POPC   C4B52834  29.690  18.637   7.334
 4143POPC   NC352835  10.359  14.305   5.149
 4143POPC   PO452836  10.726  14.663   5.653
 4143POPC   GL152837  10.475  14.346   5.839
 4143POPC   GL252838  10.136  14.423   5.736
 4143POPC   C1A52839  10.579  14.132   6.244
 4143POPC   D2A52840  10.418  14.007   6.648
 4143POPC   C3A52841  10.661  14.174   6.985
 4143POPC   C4A52842  10.666  14.310   7.394
 4143POPC   C1B52843  10.095  14.219   6.157
 4143POPC   C2B52844  10.017  14.406   6.571
 4143POPC   C3B52845  10.148  14.326   7.004
 4143POPC   C4B52846  10.059  14.277   7.472
 4144POPC   NC352847  43.260   6.367   5.416
 4144POPC   PO452848  43.367   6.945   5.129
 4144POPC   GL152849  43.260   6.909   5.642
 4144POPC   GL252850  42.946   6.717   5.788
 4144POPC   C1A52851  43.391   6.665   6.077
 4144POPC   D2A52852  43.289   6.404   6.447
 4144POPC   C3A52853  43.073   6.580   6.795
 4144POPC   C4A52854  43.231   6.505   7.177
 4144POPC   C1B52855  42.882   6.417   6.166
 4144POPC   C2B52856  42.629   6.395   6.574
 4144POPC   C3B52857  42.664   6.410   7.063
 4144POPC   C4B52858  42.706   6.748   7.363
 4145POPC   NC352859  12.253  39.251   5.367
 4145POPC   PO452860  11.646  39.457   5.425
 4145POPC   GL152861  11.988  39.400   5.782
 4145POPC   GL252862  12.285  39.125   5.846
 4145POPC   C1A52863  11.966  39.365   6.223
 4145POPC   D2A52864  11.655  39.361   6.550
 4145POPC   C3A52865  11.827  39.275   6.965
 4145POPC   C4A52866  12.064  39.581   7.203
 4145POPC   C1B52867  12.471  39.207   6.240
 4145POPC   C2B52868  12.364  39.496   6.584
 4145POPC   C3B52869  12.509  39.478   6.975
 4145POPC   C4B52870  12.314  39.118   7.165
 4146POPC   NC352871  33.713   1.571   5.401
 4146POPC   PO452872  33.943   2.155   5.308
 4146POPC   GL152873  33.955   2.217   5.798
 4146POPC   GL252874  34.029   2.596   5.916
 4146POPC   C1A52875  33.787   1.963   6.206
 4146POPC   D2A52876  33.763   1.741   6.639
 4146POPC   C3A52877  33.747   2.007   7.007
 4146POPC   C4A52878  33.571   2.109   7.420
 4146POPC   C1B52879  34.167   2.351   6.237
 4146POPC   C2B52880  34.000   2.226   6.607
 4146POPC   C3B52881  33.980   2.462   6.969
 4146POPC   C4B52882  34.027   2.295   7.327
 4147POPC   NC352883  42.573   0.032   5.343
 4147POPC   PO452884  42.107   0.608   5.420
 4147POPC   GL152885  42.350   0.354   5.689
 4147POPC   GL252886  42.650   0.587   5.660
 4147POPC   C1A52887  42.218   0.200   6.119
 4147POPC   D2A52888  41.939   0.302   6.489
 4147POPC   C3A52889  42.194   0.311   6.867
 4147POPC   C4A52890  42.543   0.344   7.148
 4147POPC   C1B52891  42.426   0.678   6.062
 4147POPC   C2B52892  42.516   0.839   6.455
 4147POPC   C3B52893  42.562   0.735   6.845
 4147POPC   C4B52894  42.650   0.875   7.260
 4148POPC   NC352895  12.181  40.997   5.318
 4148POPC   PO452896  11.932  40.351   5.341
 4148POPC   GL152897  11.908  40.706   5.651
 4148POPC   GL252898  12.241  40.834   5.794
 4148POPC   C1A52899  11.806  40.685   6.102
 4148POPC   D2A52900  11.821  40.380   6.453
 4148POPC   C3A52901  12.004  40.521   6.858
 4148POPC   C4A52902  12.321  40.535   7.204
 4148POPC   C1B52903  12.073  41.121   6.129
 4148POPC   C2B52904  12.008  40.957   6.540
 4148POPC   C3B52905  11.926  41.028   6.961
 4148POPC   C4B52906  12.108  41.172   7.312
 4149POPC   NC352907   6.974   7.516   5.488
 4149POPC   PO452908   6.317   7.342   5.485
 4149POPC   GL152909   6.625   7.377   5.829
 4149POPC   GL252910   6.955   7.154   5.830
 4149POPC   C1A52911   6.553   7.228   6.218
 4149POPC   D2A52912   6.380   7.309   6.612
 4149POPC   C3A52913   6.573   7.117   6.972
 4149POPC   C4A52914   6.457   7.399   7.266
 4149POPC   C1B52915   7.033   7.393   6.192
 4149POPC   C2B52916   6.908   7.252   6.581
 4149POPC   C3B52917   7.057   7.307   6.964
 4149POPC   C4B52918   6.911   7.221   7.381
 4150POPC   NC352919   1.974  44.301   5.318
 4150POPC   PO452920   1.941  44.998   5.553
 4150POPC   GL152921   1.926  44.683   5.862
 4150POPC   GL252922   2.117  44.368   5.819
 4150POPC   C1A52923   1.965  44.589   6.291
 4150POPC   D2A52924   2.126  44.560   6.693
 4150POPC   C3A52925   2.117  44.213   6.916
 4150POPC   C4A52926   1.750  44.341   7.121
 4150POPC   C1B52927   2.407  44.707   6.016
 4150POPC   C2B52928   2.451  44.864   6.471
 4150POPC   C3B52929   2.513  44.777   6.932
 4150POPC   C4B52930   2.209  44.615   7.226
 4151POPC   NC352931  16.499  35.982   5.101
 4151POPC   PO452932  16.914  36.352   5.435
 4151POPC   GL152933  16.861  36.114   5.810
 4151POPC   GL252934  16.508  36.025   5.692
 4151POPC   C1A52935  17.068  36.273   6.192
 4151POPC   D2A52936  17.251  36.338   6.596
 4151POPC   C3A52937  16.933  36.347   6.883
 4151POPC   C4A52938  16.777  36.116   7.263
 4151POPC   C1B52939  16.445  36.171   6.121
 4151POPC   C2B52940  16.667  36.080   6.494
 4151POPC   C3B52941  16.467  36.089   6.861
 4151POPC   C4B52942  16.322  35.867   7.219
 4152POPC   NC352943   9.648   6.526   5.285
 4152POPC   PO452944  10.026   7.063   5.435
 4152POPC   GL152945   9.807   6.773   5.749
 4152POPC   GL252946   9.976   6.450   5.798
 4152POPC   C1A52947   9.684   6.628   6.203
 4152POPC   D2A52948   9.788   6.509   6.654
 4152POPC   C3A52949   9.570   6.565   7.078
 4152POPC   C4A52950   9.387   6.755   7.450
 4152POPC   C1B52951  10.187   6.400   6.233
 4152POPC   C2B52952  10.285   6.379   6.701
 4152POPC   C3B52953  10.075   6.464   7.117
 4152POPC   C4B52954  10.231   6.358   7.543
 4153POPC   NC352955  24.094   5.076   5.490
 4153POPC   PO452956  24.704   4.705   5.547
 4153POPC   GL152957  24.461   4.937   5.821
 4153POPC   GL252958  24.215   4.702   5.856
 4153POPC   C1A52959  24.269   5.239   6.116
 4153POPC   D2A52960  24.155   5.278   6.552
 4153POPC   C3A52961  24.393   5.378   6.937
 4153POPC   C4A52962  24.386   5.198   7.359
 4153POPC   C1B52963  24.438   4.735   6.280
 4153POPC   C2B52964  24.566   4.983   6.646
 4153POPC   C3B52965  24.642   4.874   7.079
 4153POPC   C4B52966  24.388   4.615   7.358
 4154POPC   NC352967  30.765   9.453   5.448
 4154POPC   PO452968  30.741   8.721   5.281
 4154POPC   GL152969  30.681   8.979   5.688
 4154POPC   GL252970  30.534   9.310   5.880
 4154POPC   C1A52971  30.942   8.963   6.067
 4154POPC   D2A52972  31.045   9.093   6.506
 4154POPC   C3A52973  30.754   8.988   6.820
 4154POPC   C4A52974  30.801   8.979   7.276
 4154POPC   C1B52975  30.582   9.211   6.335
 4154POPC   C2B52976  30.434   9.399   6.710
 4154POPC   C3B52977  30.381   9.177   7.098
 4154POPC   C4B52978  30.373   9.113   7.543
 4155POPC   NC352979  25.063   7.464   5.388
 4155POPC   PO452980  25.711   7.727   5.374
 4155POPC   GL152981  25.433   7.592   5.714
 4155POPC   GL252982  25.233   7.290   5.837
 4155POPC   C1A52983  25.269   7.701   6.129
 4155POPC   D2A52984  25.181   7.489   6.488
 4155POPC   C3A52985  25.165   7.704   6.857
 4155POPC   C4A52986  25.345   7.639   7.248
 4155POPC   C1B52987  25.165   7.024   6.189
 4155POPC   C2B52988  25.315   6.941   6.589
 4155POPC   C3B52989  25.265   7.222   6.934
 4155POPC   C4B52990  25.087   7.179   7.338
 4156POPC   NC352991  41.949  32.346   5.512
 4156POPC   PO452992  42.534  32.592   5.501
 4156POPC   GL152993  42.332  32.432   5.843
 4156POPC   GL252994  42.330  32.095   5.827
 4156POPC   C1A52995  42.337  32.311   6.277
 4156POPC   D2A52996  42.343  32.571   6.609
 4156POPC   C3A52997  42.259  32.340   6.952
 4156POPC   C4A52998  42.320  32.142   7.316
 4156POPC   C1B52999  42.695  31.981   6.101
 4156POPC   C2B53000  42.746  31.862   6.524
 4156POPC   C3B53001  42.712  32.071   6.907
 4156POPC   C4B53002  42.778  31.934   7.315
 4157POPC   NC353003  24.060  32.805   5.481
 4157POPC   PO453004  23.622  33.259   5.236
 4157POPC   GL153005  23.817  33.295   5.664
 4157POPC   GL253006  24.164  33.353   5.667
 4157POPC   C1A53007  23.865  33.091   6.088
 4157POPC   D2A53008  23.629  33.099   6.483
 4157POPC   C3A53009  23.708  32.782   6.770
 4157POPC   C4A53010  23.726  32.874   7.189
 4157POPC   C1B53011  24.122  33.529   6.098
 4157POPC   C2B53012  24.152  33.335   6.497
 4157POPC   C3B53013  24.041  33.176   6.881
 4157POPC   C4B53014  24.009  33.322   7.285
 4158POPC   NC353015  12.962  37.861   5.404
 4158POPC   PO453016  12.474  37.297   5.510
 4158POPC   GL153017  12.794  37.525   5.746
 4158POPC   GL253018  13.079  37.394   5.822
 4158POPC   C1A53019  12.875  37.887   6.080
 4158POPC   D2A53020  13.045  38.045   6.508
 4158POPC   C3A53021  12.860  37.905   6.924
 4158POPC   C4A53022  12.950  37.891   7.384
 4158POPC   C1B53023  13.230  37.533   6.177
 4158POPC   C2B53024  12.975  37.513   6.521
 4158POPC   C3B53025  12.696  37.407   6.829
 4158POPC   C4B53026  12.798  37.420   7.255
 4159POPC   NC353027  41.732  36.822   5.452
 4159POPC   PO453028  41.021  37.103   5.440
 4159POPC   GL153029  41.216  36.865   5.781
 4159POPC   GL253030  41.534  36.714   5.892
 4159POPC   C1A53031  41.289  36.992   6.215
 4159POPC   D2A53032  41.347  36.748   6.584
 4159POPC   C3A53033  41.560  36.874   6.942
 4159POPC   C4A53034  41.581  36.505   7.120
 4159POPC   C1B53035  41.777  36.753   6.291
 4159POPC   C2B53036  41.904  36.542   6.694
 4159POPC   C3B53037  42.053  36.652   7.104
 4159POPC   C4B53038  41.990  37.071   7.237
 4160POPC   NC353039  26.324   2.324   5.379
 4160POPC   PO453040  25.728   2.732   5.298
 4160POPC   GL153041  25.948   2.692   5.696
 4160POPC   GL253042  25.959   2.318   5.753
 4160POPC   C1A53043  26.084   2.949   6.084
 4160POPC   D2A53044  26.391   3.070   6.435
 4160POPC   C3A53045  26.246   2.976   6.867
 4160POPC   C4A53046  26.066   2.856   7.245
 4160POPC   C1B53047  25.839   2.500   6.159
 4160POPC   C2B53048  25.880   2.736   6.551
 4160POPC   C3B53049  25.653   2.698   6.971
 4160POPC   C4B53050  25.614   2.732   7.444
 4161POPC   NC353051   1.825  40.805   5.007
 4161POPC   PO453052   2.315  40.492   5.412
 4161POPC   GL153053   2.112  40.751   5.784
 4161POPC   GL253054   1.867  41.059   5.748
 4161POPC   C1A53055   1.916  40.753   6.209
 4161POPC   D2A53056   1.944  40.951   6.626
 4161POPC   C3A53057   1.883  40.626   6.938
 4161POPC   C4A53058   1.604  40.355   7.233
 4161POPC   C1B53059   2.058  41.234   6.155
 4161POPC   C2B53060   2.358  41.263   6.478
 4161POPC   C3B53061   2.374  41.165   6.909
 4161POPC   C4B53062   1.983  41.098   7.143
 4162POPC   NC353063  30.804  41.568   5.359
 4162POPC   PO453064  30.321  41.189   5.524
 4162POPC   GL153065  30.565  41.430   5.845
 4162POPC   GL253066  30.939  41.529   5.838
 4162POPC   C1A53067  30.579  41.756   6.160
 4162POPC   D2A53068  30.692  41.776   6.586
 4162POPC   C3A53069  30.515  41.485   6.868
 4162POPC   C4A53070  30.578  41.544   7.291
 4162POPC   C1B53071  31.013  41.289   6.207
 4162POPC   C2B53072  31.058  41.366   6.640
 4162POPC   C3B53073  30.991  41.630   6.995
 4162POPC   C4B53074  31.063  41.331   7.309
 4163POPC   NC353075   5.995  36.736   5.269
 4163POPC   PO453076   5.537  37.212   5.364
 4163POPC   GL153077   5.643  36.843   5.659
 4163POPC   GL253078   5.961  36.953   5.770
 4163POPC   C1A53079   5.773  36.568   6.043
 4163POPC   D2A53080   5.700  36.607   6.507
 4163POPC   C3A53081   5.987  36.487   6.845
 4163POPC   C4A53082   5.831  36.440   7.248
 4163POPC   C1B53083   5.756  37.028   6.204
 4163POPC   C2B53084   5.979  37.040   6.626
 4163POPC   C3B53085   5.991  36.959   7.076
 4163POPC   C4B53086   6.060  37.164   7.489
 4164POPC   NC353087  24.493   7.885   5.662
 4164POPC   PO453088  24.365   8.473   5.292
 4164POPC   GL153089  24.561   8.535   5.781
 4164POPC   GL253090  24.765   8.275   5.865
 4164POPC   C1A53091  24.551   8.421   6.285
 4164POPC   D2A53092  24.801   8.326   6.687
 4164POPC   C3A53093  24.598   8.425   7.103
 4164POPC   C4A53094  24.131   8.471   7.135
 4164POPC   C1B53095  24.835   7.967   6.261
 4164POPC   C2B53096  24.695   7.810   6.698
 4164POPC   C3B53097  24.490   7.935   7.099
 4164POPC   C4B53098  24.702   7.936   7.547
 4165POPC   NC353099  12.147  30.895   5.447
 4165POPC   PO453100  11.667  31.269   5.511
 4165POPC   GL153101  11.877  31.029   5.878
 4165POPC   GL253102  12.063  30.731   5.911
 4165POPC   C1A53103  11.791  30.784   6.322
 4165POPC   D2A53104  12.039  30.802   6.655
 4165POPC   C3A53105  12.059  30.911   7.055
 4165POPC   C4A53106  12.392  30.646   7.177
 4165POPC   C1B53107  12.253  30.538   6.274
 4165POPC   C2B53108  12.151  30.295   6.656
 4165POPC   C3B53109  11.884  30.429   7.001
 4165POPC   C4B53110  11.723  30.204   7.332
 4166POPC   NC353111  40.032  17.701   5.356
 4166POPC   PO453112  39.681  17.177   5.388
 4166POPC   GL153113  39.882  17.392   5.755
 4166POPC   GL253114  40.165  17.645   5.839
 4166POPC   C1A53115  39.937  17.357   6.200
 4166POPC   D2A53116  40.153  17.500   6.547
 4166POPC   C3A53117  39.935  17.363   6.916
 4166POPC   C4A53118  40.059  17.572   7.229
 4166POPC   C1B53119  39.797  17.837   6.017
 4166POPC   C2B53120  39.663  17.886   6.420
 4166POPC   C3B53121  39.877  17.870   6.787
 4166POPC   C4B53122  39.649  17.848   7.129
 4167POPC   NC353123  36.021  10.749   5.574
 4167POPC   PO453124  35.891  10.092   5.652
 4167POPC   GL153125  36.066  10.278   6.007
 4167POPC   GL253126  36.321  10.513   5.912
 4167POPC   C1A53127  36.100  10.285   6.459
 4167POPC   D2A53128  35.989  10.585   6.773
 4167POPC   C3A53129  36.061  10.441   7.189
 4167POPC   C4A53130  35.848  10.068   7.267
 4167POPC   C1B53131  36.195  10.746   6.260
 4167POPC   C2B53132  36.423  10.790   6.615
 4167POPC   C3B53133  36.477  10.686   7.003
 4167POPC   C4B53134  36.325  10.914   7.317
 4168POPC   NC353135  30.127   9.653   5.415
 4168POPC   PO453136  29.927  10.267   5.442
 4168POPC   GL153137  29.865   9.922   5.764
 4168POPC   GL253138  30.215   9.817   5.905
 4168POPC   C1A53139  29.722   9.716   6.164
 4168POPC   D2A53140  29.883   9.784   6.580
 4168POPC   C3A53141  29.743   9.975   6.911
 4168POPC   C4A53142  29.915   9.909   7.282
 4168POPC   C1B53143  30.186   9.514   6.249
 4168POPC   C2B53144  29.951   9.298   6.591
 4168POPC   C3B53145  29.981   9.463   7.034
 4168POPC   C4B53146  30.351   9.593   7.365
 4169POPC   NC353147  10.335   6.815   5.660
 4169POPC   PO453148  10.517   6.257   5.330
 4169POPC   GL153149  10.751   6.468   5.693
 4169POPC   GL253150  10.842   6.829   5.866
 4169POPC   C1A53151  10.698   6.454   6.148
 4169POPC   D2A53152  10.917   6.691   6.470
 4169POPC   C3A53153  10.697   6.674   6.849
 4169POPC   C4A53154  10.568   6.345   7.130
 4169POPC   C1B53155  10.536   6.946   6.227
 4169POPC   C2B53156  10.223   6.849   6.505
 4169POPC   C3B53157  10.217   6.935   6.912
 4169POPC   C4B53158  10.367   6.864   7.299
 4170POPC   NC353159  28.921  14.803   5.248
 4170POPC   PO453160  29.068  15.443   5.157
 4170POPC   GL153161  29.056  15.217   5.601
 4170POPC   GL253162  29.312  14.935   5.704
 4170POPC   C1A53163  29.032  15.153   6.081
 4170POPC   D2A53164  29.219  15.159   6.521
 4170POPC   C3A53165  29.016  15.268   6.922
 4170POPC   C4A53166  29.210  15.595   7.181
 4170POPC   C1B53167  29.484  14.878   6.152
 4170POPC   C2B53168  29.516  14.740   6.584
 4170POPC   C3B53169  29.468  15.004   6.960
 4170POPC   C4B53170  29.339  14.863   7.378
 4171POPC   NC353171  44.755   2.426   5.519
 4171POPC   PO453172  44.518   3.055   5.382
 4171POPC   GL153173  44.540   2.884   5.778
 4171POPC   GL253174  44.331   2.593   5.792
 4171POPC   C1A53175  44.907   2.827   6.050
 4171POPC   D2A53176   0.168   2.816   6.422
 4171POPC   C3A53177   0.013   2.582   6.794
 4171POPC   C4A53178   0.041   2.793   7.203
 4171POPC   C1B53179  44.476   2.563   6.189
 4171POPC   C2B53180  44.668   2.848   6.491
 4171POPC   C3B53181  44.652   2.950   6.906
 4171POPC   C4B53182  44.481   3.126   7.270
 4172POPC   NC353183  18.364   9.979   5.439
 4172POPC   PO453184  18.204   9.346   5.232
 4172POPC   GL153185  18.275   9.512   5.693
 4172POPC   GL253186  18.590   9.477   5.883
 4172POPC   C1A53187  18.149   9.718   6.109
 4172POPC   D2A53188  18.174   9.933   6.517
 4172POPC   C3A53189  18.126   9.712   6.887
 4172POPC   C4A53190  18.076   9.820   7.312
 4172POPC   C1B53191  18.633   9.876   6.120
 4172POPC   C2B53192  18.679   9.986   6.567
 4172POPC   C3B53193  18.514  10.030   6.997
 4172POPC   C4B53194  18.554   9.661   7.209
 4173POPC   NC353195  18.077  38.043   5.288
 4173POPC   PO453196  18.646  38.066   5.626
 4173POPC   GL153197  18.484  37.662   5.752
 4173POPC   GL253198  18.147  37.675   5.656
 4173POPC   C1A53199  18.319  37.422   6.130
 4173POPC   D2A53200  18.279  37.637   6.537
 4173POPC   C3A53201  18.334  37.528   6.966
 4173POPC   C4A53202  18.597  37.808   7.210
 4173POPC   C1B53203  18.104  37.908   6.095
 4173POPC   C2B53204  18.144  38.137   6.535
 4173POPC   C3B53205  18.146  38.033   6.988
 4173POPC   C4B53206  17.772  37.981   7.248
 4174POPC   NC353207  23.760   7.421   5.165
 4174POPC   PO453208  23.648   7.974   5.517
 4174POPC   GL153209  23.864   7.660   5.790
 4174POPC   GL253210  23.922   7.291   5.702
 4174POPC   C1A53211  23.738   7.496   6.223
 4174POPC   D2A53212  23.846   7.639   6.659
 4174POPC   C3A53213  23.549   7.676   6.993
 4174POPC   C4A53214  23.508   7.547   7.379
 4174POPC   C1B53215  24.046   7.063   6.121
 4174POPC   C2B53216  23.907   7.121   6.573
 4174POPC   C3B53217  23.764   7.194   7.012
 4174POPC   C4B53218  23.472   7.042   7.345
 4175POPC   NC353219  18.921  36.853   5.351
 4175POPC   PO453220  19.439  37.261   5.534
 4175POPC   GL153221  19.193  36.943   5.771
 4175POPC   GL253222  18.812  36.932   5.846
 4175POPC   C1A53223  19.151  36.857   6.202
 4175POPC   D2A53224  19.141  36.668   6.572
 4175POPC   C3A53225  19.069  36.979   6.867
 4175POPC   C4A53226  19.003  36.842   7.257
 4175POPC   C1B53227  18.757  36.530   6.128
 4175POPC   C2B53228  18.675  36.398   6.549
 4175POPC   C3B53229  18.765  36.565   6.909
 4175POPC   C4B53230  18.856  36.348   7.242
 4176POPC   NC353231  38.025  32.434   5.374
 4176POPC   PO453232  37.385  32.253   5.299
 4176POPC   GL153233  37.650  32.331   5.697
 4176POPC   GL253234  37.643  31.991   5.868
 4176POPC   C1A53235  37.823  32.410   6.131
 4176POPC   D2A53236  37.780  32.245   6.547
 4176POPC   C3A53237  37.751  32.453   6.941
 4176POPC   C4A53238  37.915  32.078   7.158
 4176POPC   C1B53239  37.297  31.866   6.178
 4176POPC   C2B53240  37.357  31.862   6.581
 4176POPC   C3B53241  37.447  32.051   6.932
 4176POPC   C4B53242  37.433  31.866   7.332
 4177POPC   NC353243  14.857  12.249   5.403
 4177POPC   PO453244  14.158  12.183   5.421
 4177POPC   GL153245  14.460  12.215   5.733
 4177POPC   GL253246  14.555  11.918   5.763
 4177POPC   C1A53247  14.561  12.251   6.180
 4177POPC   D2A53248  14.407  12.034   6.548
 4177POPC   C3A53249  14.348  12.177   6.940
 4177POPC   C4A53250  14.578  12.057   7.306
 4177POPC   C1B53251  14.293  11.775   6.129
 4177POPC   C2B53252  14.212  11.566   6.519
 4177POPC   C3B53253  14.324  11.653   6.914
 4177POPC   C4B53254  14.162  11.795   7.252
 4178POPC   NC353255   2.382   0.092   5.443
 4178POPC   PO453256   2.588  44.442   5.375
 4178POPC   GL153257   2.824  44.389   5.757
 4178POPC   GL253258   2.590  44.214   5.904
 4178POPC   C1A53259   2.891  44.555   6.178
 4178POPC   D2A53260   3.150  44.479   6.532
 4178POPC   C3A53261   3.006  44.642   6.914
 4178POPC   C4A53262   2.977  44.564   7.353
 4178POPC   C1B53263   2.404  44.289   6.286
 4178POPC   C2B53264   2.619  44.386   6.639
 4178POPC   C3B53265   2.618  44.289   7.073
 4178POPC   C4B53266   2.346  44.129   7.411
 4179POPC   NC353267   3.328  18.404   5.453
 4179POPC   PO453268   4.070  18.113   5.539
 4179POPC   GL153269   3.859  18.288   5.841
 4179POPC   GL253270   3.547  18.156   5.825
 4179POPC   C1A53271   3.751  18.269   6.286
 4179POPC   D2A53272   3.830  18.094   6.684
 4179POPC   C3A53273   3.615  18.258   7.004
 4179POPC   C4A53274   3.286  18.438   7.109
 4179POPC   C1B53275   3.356  17.957   6.143
 4179POPC   C2B53276   3.318  17.980   6.603
 4179POPC   C3B53277   3.129  17.961   7.018
 4179POPC   C4B53278   3.358  18.013   7.409
 4180POPC   NC353279   9.289  27.234   5.398
 4180POPC   PO453280   9.634  27.811   5.565
 4180POPC   GL153281   9.804  27.708   5.961
 4180POPC   GL253282   9.935  27.383   5.929
 4180POPC   C1A53283   9.628  27.788   6.359
 4180POPC   D2A53284   9.396  27.909   6.680
 4180POPC   C3A53285   9.625  27.809   7.043
 4180POPC   C4A53286  10.026  27.642   7.113
 4180POPC   C1B53287   9.644  27.289   6.306
 4180POPC   C2B53288   9.717  27.375   6.757
 4180POPC   C3B53289   9.930  27.112   7.079
 4180POPC   C4B53290   9.919  27.051   7.525
 4181POPC   NC353291  31.554  32.451   5.139
 4181POPC   PO453292  31.246  32.036   5.522
 4181POPC   GL153293  31.518  32.276   5.776
 4181POPC   GL253294  31.519  32.628   5.638
 4181POPC   C1A53295  31.707  32.110   6.152
 4181POPC   D2A53296  31.717  31.980   6.588
 4181POPC   C3A53297  31.335  32.073   6.824
 4181POPC   C4A53298  31.392  32.031   7.268
 4181POPC   C1B53299  31.507  32.683   6.092
 4181POPC   C2B53300  31.546  32.474   6.486
 4181POPC   C3B53301  31.540  32.517   6.920
 4181POPC   C4B53302  31.209  32.485   7.234
 4182POPC   NC353303   5.866  28.086   4.984
 4182POPC   PO453304   5.773  28.656   5.297
 4182POPC   GL153305   5.690  28.470   5.750
 4182POPC   GL253306   5.912  28.151   5.806
 4182POPC   C1A53307   5.820  28.439   6.220
 4182POPC   D2A53308   6.063  28.361   6.620
 4182POPC   C3A53309   5.880  28.487   7.021
 4182POPC   C4A53310   5.616  28.414   7.379
 4182POPC   C1B53311   6.116  27.991   6.216
 4182POPC   C2B53312   6.265  27.887   6.669
 4182POPC   C3B53313   6.116  28.038   7.101
 4182POPC   C4B53314   6.132  28.362   7.476
 4183POPC   NC353315  36.162  15.345   4.773
 4183POPC   PO453316  36.082  15.207   5.432
 4183POPC   GL153317  36.285  15.135   5.852
 4183POPC   GL253318  36.317  14.756   5.893
 4183POPC   C1A53319  36.318  15.362   6.251
 4183POPC   D2A53320  36.095  15.316   6.630
 4183POPC   C3A53321  36.245  15.028   6.920
 4183POPC   C4A53322  36.142  15.342   7.214
 4183POPC   C1B53323  35.950  14.856   6.180
 4183POPC   C2B53324  35.737  14.950   6.581
 4183POPC   C3B53325  35.740  15.080   7.000
 4183POPC   C4B53326  35.936  14.921   7.390
 4184POPC   NC353327  29.451  28.994   5.095
 4184POPC   PO453328  29.149  29.262   5.645
 4184POPC   GL153329  29.223  29.124   6.003
 4184POPC   GL253330  29.058  28.810   5.896
 4184POPC   C1A53331  29.331  29.191   6.426
 4184POPC   D2A53332  29.465  29.155   6.838
 4184POPC   C3A53333  29.188  29.246   7.127
 4184POPC   C4A53334  29.387  29.536   7.368
 4184POPC   C1B53335  29.308  28.708   6.273
 4184POPC   C2B53336  29.251  28.706   6.691
 4184POPC   C3B53337  29.306  28.713   7.113
 4184POPC   C4B53338  29.044  28.791   7.452
 4185POPC   NC353339  27.855  26.515   5.540
 4185POPC   PO453340  27.193  26.428   5.305
 4185POPC   GL153341  27.349  26.477   5.743
 4185POPC   GL253342  27.658  26.483   6.012
 4185POPC   C1A53343  27.249  26.787   6.069
 4185POPC   D2A53344  27.393  26.765   6.474
 4185POPC   C3A53345  27.261  26.882   6.911
 4185POPC   C4A53346  27.489  27.079   7.281
 4185POPC   C1B53347  27.913  26.706   6.346
 4185POPC   C2B53348  27.794  26.825   6.755
 4185POPC   C3B53349  27.660  26.578   7.066
 4185POPC   C4B53350  27.850  26.705   7.436
 4186POPC   NC353351   6.043  26.531   5.529
 4186POPC   PO453352   5.508  27.070   5.459
 4186POPC   GL153353   5.720  26.871   5.794
 4186POPC   GL253354   6.014  27.054   5.800
 4186POPC   C1A53355   5.730  27.038   6.223
 4186POPC   D2A53356   5.943  26.948   6.604
 4186POPC   C3A53357   5.789  27.021   6.997
 4186POPC   C4A53358   5.681  26.721   7.295
 4186POPC   C1B53359   6.195  26.800   6.145
 4186POPC   C2B53360   6.224  26.516   6.500
 4186POPC   C3B53361   6.358  26.563   6.899
 4186POPC   C4B53362   6.220  26.836   7.207
 4187POPC   NC353363   0.127  10.756   5.525
 4187POPC   PO453364   0.682  10.407   5.367
 4187POPC   GL153365   0.535  10.525   5.740
 4187POPC   GL253366   0.724  10.291   5.923
 4187POPC   C1A53367   0.233  10.388   6.098
 4187POPC   D2A53368   0.129  10.184   6.506
 4187POPC   C3A53369   0.362  10.366   6.870
 4187POPC   C4A53370   0.182  10.664   7.153
 4187POPC   C1B53371   0.656  10.686   6.191
 4187POPC   C2B53372   0.596  10.768   6.653
 4187POPC   C3B53373   0.691  10.686   7.096
 4187POPC   C4B53374   0.665  10.288   7.330
 4188POPC   NC353375   2.770  40.512   5.346
 4188POPC   PO453376   2.959  41.201   5.280
 4188POPC   GL153377   2.945  40.937   5.667
 4188POPC   GL253378   2.599  41.011   5.787
 4188POPC   C1A53379   3.015  40.775   6.114
 4188POPC   D2A53380   2.872  40.912   6.528
 4188POPC   C3A53381   2.898  40.684   6.942
 4188POPC   C4A53382   2.883  40.809   7.402
 4188POPC   C1B53383   2.445  40.836   6.193
 4188POPC   C2B53384   2.406  40.717   6.639
 4188POPC   C3B53385   2.392  40.696   7.096
 4188POPC   C4B53386   2.066  40.639   7.422
 4189POPC   NC353387   0.682  42.159   5.608
 4189POPC   PO453388   0.641  42.706   5.196
 4189POPC   GL153389   0.498  42.722   5.631
 4189POPC   GL253390   0.233  42.484   5.714
 4189POPC   C1A53391   0.489  42.703   6.108
 4189POPC   D2A53392   0.659  42.414   6.455
 4189POPC   C3A53393   0.666  42.497   6.916
 4189POPC   C4A53394   0.629  42.653   7.352
 4189POPC   C1B53395   0.137  42.335   6.147
 4189POPC   C2B53396   0.093  42.585   6.555
 4189POPC   C3B53397   0.146  42.492   6.994
 4189POPC   C4B53398   0.373  42.180   7.225
 4190POPC   NC353399  28.009  30.804   5.381
 4190POPC   PO453400  28.664  30.593   5.340
 4190POPC   GL153401  28.577  30.643   5.813
 4190POPC   GL253402  28.728  30.958   5.926
 4190POPC   C1A53403  28.220  30.553   6.149
 4190POPC   D2A53404  27.945  30.440   6.519
 4190POPC   C3A53405  28.123  30.551   6.932
 4190POPC   C4A53406  28.501  30.413   7.105
 4190POPC   C1B53407  28.523  30.918   6.308
 4190POPC   C2B53408  28.554  30.796   6.731
 4190POPC   C3B53409  28.587  30.907   7.149
 4190POPC   C4B53410  28.492  31.177   7.478
 4191POPC   NC353411  30.371  22.031   5.442
 4191POPC   PO453412  31.040  22.020   5.509
 4191POPC   GL153413  30.892  22.269   5.833
 4191POPC   GL253414  30.574  22.094   5.906
 4191POPC   C1A53415  30.842  22.310   6.284
 4191POPC   D2A53416  30.608  22.079   6.582
 4191POPC   C3A53417  30.882  22.045   6.940
 4191POPC   C4A53418  30.800  22.379   7.230
 4191POPC   C1B53419  30.834  21.797   6.180
 4191POPC   C2B53420  30.725  21.593   6.617
 4191POPC   C3B53421  30.428  21.733   6.933
 4191POPC   C4B53422  30.510  21.962   7.297
 4192POPC   NC353423  43.065  17.016   5.239
 4192POPC   PO453424  42.904  16.396   5.477
 4192POPC   GL153425  43.094  16.654   5.791
 4192POPC   GL253426  43.339  16.364   5.799
 4192POPC   C1A53427  42.969  16.955   6.161
 4192POPC   D2A53428  42.687  16.976   6.559
 4192POPC   C3A53429  42.907  16.989   6.992
 4192POPC   C4A53430  42.947  16.889   7.473
 4192POPC   C1B53431  43.160  16.361   6.197
 4192POPC   C2B53432  43.144  16.626   6.539
 4192POPC   C3B53433  43.154  16.413   6.915
 4192POPC   C4B53434  43.231  16.502   7.322
 4193POPC   NC353435  21.234  22.062   5.491
 4193POPC   PO453436  21.830  21.652   5.561
 4193POPC   GL153437  21.577  21.945   5.862
 4193POPC   GL253438  21.490  22.344   5.859
 4193POPC   C1A53439  21.473  22.093   6.281
 4193POPC   D2A53440  21.531  21.962   6.648
 4193POPC   C3A53441  21.258  22.042   6.946
 4193POPC   C4A53442  21.489  22.033   7.271
 4193POPC   C1B53443  21.705  22.539   6.277
 4193POPC   C2B53444  21.558  22.488   6.733
 4193POPC   C3B53445  21.306  22.512   7.126
 4193POPC   C4B53446  21.061  22.667   7.503
 4194POPC   NC353447  24.960   1.776   5.453
 4194POPC   PO453448  25.603   1.768   5.430
 4194POPC   GL153449  25.354   1.829   5.784
 4194POPC   GL253450  25.462   2.126   5.869
 4194POPC   C1A53451  25.155   1.780   6.207
 4194POPC   D2A53452  25.307   1.895   6.637
 4194POPC   C3A53453  25.078   1.934   7.037
 4194POPC   C4A53454  25.066   1.624   7.383
 4194POPC   C1B53455  25.613   2.056   6.249
 4194POPC   C2B53456  25.543   2.345   6.568
 4194POPC   C3B53457  25.596   2.187   6.951
 4194POPC   C4B53458  25.419   2.282   7.314
 4195POPC   NC353459  20.091  41.548   5.460
 4195POPC   PO453460  20.753  41.462   5.420
 4195POPC   GL153461  20.840  41.754   5.768
 4195POPC   GL253462  20.919  41.530   6.023
 4195POPC   C1A53463  20.636  41.922   6.174
 4195POPC   D2A53464  20.469  41.867   6.619
 4195POPC   C3A53465  20.668  41.854   7.047
 4195POPC   C4A53466  20.545  41.707   7.475
 4195POPC   C1B53467  20.538  41.430   6.269
 4195POPC   C2B53468  20.445  41.329   6.696
 4195POPC   C3B53469  20.679  41.343   7.110
 4195POPC   C4B53470  20.771  41.247   7.554
 4196POPC   NC353471  25.759  36.719   5.389
 4196POPC   PO453472  26.227  37.161   5.355
 4196POPC   GL153473  25.918  37.089   5.695
 4196POPC   GL253474  26.000  36.768   5.824
 4196POPC   C1A53475  25.780  37.120   6.123
 4196POPC   D2A53476  25.959  37.088   6.525
 4196POPC   C3A53477  25.669  37.067   6.878
 4196POPC   C4A53478  25.844  36.828   7.209
 4196POPC   C1B53479  26.162  36.718   6.217
 4196POPC   C2B53480  26.414  36.796   6.582
 4196POPC   C3B53481  26.329  36.748   7.012
 4196POPC   C4B53482  26.206  36.471   7.359
 4197POPC   NC353483  23.482  12.145   5.383
 4197POPC   PO453484  22.825  12.063   5.167
 4197POPC   GL153485  22.855  12.037   5.637
 4197POPC   GL253486  23.155  12.235   5.762
 4197POPC   C1A53487  22.767  12.165   6.087
 4197POPC   D2A53488  22.883  11.963   6.491
 4197POPC   C3A53489  22.666  12.008   6.896
 4197POPC   C4A53490  22.940  11.882   7.235
 4197POPC   C1B53491  23.279  11.989   6.125
 4197POPC   C2B53492  23.418  12.044   6.556
 4197POPC   C3B53493  23.343  12.127   7.000
 4197POPC   C4B53494  23.154  12.365   7.323
 4198POPC   NC353495  34.054  26.187   5.463
 4198POPC   PO453496  33.523  25.775   5.235
 4198POPC   GL153497  33.595  25.804   5.701
 4198POPC   GL253498  33.342  26.008   5.842
 4198POPC   C1A53499  33.831  25.973   6.088
 4198POPC   D2A53500  34.097  26.033   6.452
 4198POPC   C3A53501  33.917  25.909   6.848
 4198POPC   C4A53502  33.946  25.948   7.322
 4198POPC   C1B53503  33.344  25.990   6.275
 4198POPC   C2B53504  33.472  25.773   6.627
 4198POPC   C3B53505  33.450  25.828   7.081
 4198POPC   C4B53506  33.524  25.763   7.543
 4199POPC   NC353507   6.004  25.280   5.385
 4199POPC   PO453508   5.439  25.591   5.342
 4199POPC   GL153509   5.683  25.449   5.757
 4199POPC   GL253510   5.834  25.090   5.811
 4199POPC   C1A53511   5.759  25.381   6.222
 4199POPC   D2A53512   5.573  25.409   6.625
 4199POPC   C3A53513   5.820  25.257   6.960
 4199POPC   C4A53514   5.749  25.374   7.351
 4199POPC   C1B53515   6.129  25.003   6.149
 4199POPC   C2B53516   6.134  25.084   6.597
 4199POPC   C3B53517   6.251  24.908   7.013
 4199POPC   C4B53518   6.494  25.090   7.342
 4200POPC   NC353519   2.250  36.066   5.444
 4200POPC   PO453520   1.558  36.251   5.393
 4200POPC   GL153521   1.733  36.229   5.814
 4200POPC   GL253522   2.105  36.302   5.889
 4200POPC   C1A53523   1.807  35.917   6.146
 4200POPC   D2A53524   1.921  35.857   6.597
 4200POPC   C3A53525   1.853  36.254   6.849
 4200POPC   C4A53526   1.582  36.487   7.160
 4200POPC   C1B53527   2.302  35.964   6.184
 4200POPC   C2B53528   2.430  35.815   6.615
 4200POPC   C3B53529   2.245  35.963   7.024
 4200POPC   C4B53530   2.110  35.840   7.454
 4201POPC   NC353531  12.426  36.826   5.497
 4201POPC   PO453532  11.895  37.050   5.334
 4201POPC   GL153533  12.046  36.985   5.787
 4201POPC   GL253534  12.104  37.308   5.904
 4201POPC   C1A53535  12.072  36.694   6.161
 4201POPC   D2A53536  11.925  36.550   6.574
 4201POPC   C3A53537  11.950  36.913   6.846
 4201POPC   C4A53538  11.958  36.933   7.285
 4201POPC   C1B53539  12.153  37.185   6.331
 4201POPC   C2B53540  11.986  37.414   6.682
 4201POPC   C3B53541  11.809  37.384   7.072
 4201POPC   C4B53542  11.904  37.404   7.527
 4202POPC   NC353543  37.483  29.194   5.479
 4202POPC   PO453544  38.145  29.276   5.441
 4202POPC   GL153545  38.006  29.095   5.813
 4202POPC   GL253546  37.774  29.354   5.855
 4202POPC   C1A53547  37.794  28.980   6.212
 4202POPC   D2A53548  37.494  28.758   6.491
 4202POPC   C3A53549  37.581  28.870   6.921
 4202POPC   C4A53550  37.880  28.969   7.240
 4202POPC   C1B53551  37.419  29.330   6.154
 4202POPC   C2B53552  37.547  29.277   6.574
 4202POPC   C3B53553  37.703  29.359   6.957
 4202POPC   C4B53554  37.403  29.244   7.259
 4203POPC   NC353555   1.614   3.150   5.539
 4203POPC   PO453556   1.144   2.591   5.516
 4203POPC   GL153557   1.035   2.689   5.913
 4203POPC   GL253558   1.137   2.357   5.954
 4203POPC   C1A53559   1.249   2.809   6.321
 4203POPC   D2A53560   1.230   2.979   6.772
 4203POPC   C3A53561   1.009   2.832   7.170
 4203POPC   C4A53562   1.459   2.894   7.254
 4203POPC   C1B53563   0.988   2.368   6.345
 4203POPC   C2B53564   0.977   2.522   6.755
 4203POPC   C3B53565   0.794   2.326   7.129
 4203POPC   C4B53566   0.908   2.397   7.605
 4204POPC   NC353567  36.029  16.480   5.459
 4204POPC   PO453568  36.504  16.910   5.621
 4204POPC   GL153569  36.373  16.675   5.950
 4204POPC   GL253570  36.067  16.799   5.907
 4204POPC   C1A53571  36.295  16.755   6.411
 4204POPC   D2A53572  36.128  16.906   6.813
 4204POPC   C3A53573  36.303  16.644   7.144
 4204POPC   C4A53574  36.432  16.182   7.108
 4204POPC   C1B53575  35.815  16.882   6.242
 4204POPC   C2B53576  35.679  16.698   6.609
 4204POPC   C3B53577  35.646  16.616   7.016
 4204POPC   C4B53578  35.851  16.714   7.389
 4205POPC   NC353579   7.634  27.289   5.322
 4205POPC   PO453580   6.991  27.534   5.453
 4205POPC   GL153581   7.337  27.499   5.769
 4205POPC   GL253582   7.668  27.619   5.757
 4205POPC   C1A53583   7.339  27.342   6.221
 4205POPC   D2A53584   7.653  27.453   6.574
 4205POPC   C3A53585   7.430  27.414   6.975
 4205POPC   C4A53586   7.034  27.488   7.156
 4205POPC   C1B53587   7.551  27.797   6.179
 4205POPC   C2B53588   7.261  27.788   6.562
 4205POPC   C3B53589   7.373  27.911   6.984
 4205POPC   C4B53590   7.492  27.760   7.398
 4206POPC   NC353591  29.764  37.624   5.110
 4206POPC   PO453592  30.251  37.899   5.559
 4206POPC   GL153593  30.014  37.650   5.821
 4206POPC   GL253594  29.717  37.768   5.645
 4206POPC   C1A53595  30.049  37.706   6.268
 4206POPC   D2A53596  29.849  37.568   6.597
 4206POPC   C3A53597  30.056  37.628   6.924
 4206POPC   C4A53598  30.042  37.345   7.244
 4206POPC   C1B53599  29.802  38.072   6.020
 4206POPC   C2B53600  29.695  38.101   6.471
 4206POPC   C3B53601  29.601  37.931   6.879
 4206POPC   C4B53602  29.747  37.774   7.279
 4207POPC   NC353603  10.071  36.662   5.431
 4207POPC   PO453604   9.520  37.107   5.282
 4207POPC   GL153605   9.810  37.087   5.634
 4207POPC   GL253606   9.702  36.786   5.813
 4207POPC   C1A53607   9.948  37.151   6.073
 4207POPC   D2A53608   9.821  36.910   6.446
 4207POPC   C3A53609   9.805  37.024   6.891
 4207POPC   C4A53610   9.510  36.985   7.222
 4207POPC   C1B53611   9.484  36.597   6.218
 4207POPC   C2B53612   9.295  36.443   6.623
 4207POPC   C3B53613   9.277  36.545   7.066
 4207POPC   C4B53614   9.354  36.489   7.495
 4208POPC   NC353615  17.174  35.973   5.432
 4208POPC   PO453616  17.821  35.930   5.449
 4208POPC   GL153617  17.533  35.873   5.797
 4208POPC   GL253618  17.423  36.235   5.814
 4208POPC   C1A53619  17.258  35.780   6.161
 4208POPC   D2A53620  17.410  35.751   6.605
 4208POPC   C3A53621  17.230  35.929   6.988
 4208POPC   C4A53622  17.317  36.287   7.246
 4208POPC   C1B53623  17.595  36.178   6.229
 4208POPC   C2B53624  17.724  36.156   6.646
 4208POPC   C3B53625  17.747  36.021   7.054
 4208POPC   C4B53626  17.845  35.650   7.256
 4209POPC   NC353627  38.640  27.626   5.372
 4209POPC   PO453628  38.040  27.242   5.241
 4209POPC   GL153629  38.168  27.416   5.697
 4209POPC   GL253630  38.324  27.779   5.773
 4209POPC   C1A53631  38.147  27.531   6.181
 4209POPC   D2A53632  38.346  27.574   6.608
 4209POPC   C3A53633  38.479  27.321   6.950
 4209POPC   C4A53634  38.349  27.458   7.365
 4209POPC   C1B53635  38.455  27.964   6.204
 4209POPC   C2B53636  38.687  27.994   6.619
 4209POPC   C3B53637  38.500  27.854   7.042
 4209POPC   C4B53638  38.566  27.905   7.506
 4210POPC   NC353639  35.836   5.446   5.065
 4210POPC   PO453640  36.232   5.122   5.520
 4210POPC   GL153641  36.103   5.049   5.902
 4210POPC   GL253642  35.816   4.922   5.845
 4210POPC   C1A53643  36.093   4.863   6.288
 4210POPC   D2A53644  36.178   5.078   6.634
 4210POPC   C3A53645  35.975   4.929   6.985
 4210POPC   C4A53646  36.215   4.940   7.355
 4210POPC   C1B53647  35.720   5.208   6.229
 4210POPC   C2B53648  35.671   5.300   6.679
 4210POPC   C3B53649  35.661   5.365   7.114
 4210POPC   C4B53650  35.698   5.044   7.424
 4211POPC   NC353651  36.113  24.358   5.458
 4211POPC   PO453652  35.876  24.938   5.373
 4211POPC   GL153653  35.955  24.780   5.803
 4211POPC   GL253654  36.275  24.651   5.864
 4211POPC   C1A53655  35.952  24.651   6.251
 4211POPC   D2A53656  36.275  24.675   6.549
 4211POPC   C3A53657  36.086  24.870   6.883
 4211POPC   C4A53658  35.924  24.632   7.216
 4211POPC   C1B53659  36.214  24.231   6.088
 4211POPC   C2B53660  36.105  24.141   6.503
 4211POPC   C3B53661  36.265  24.284   6.881
 4211POPC   C4B53662  36.257  24.199   7.299
 4212POPC   NC353663  30.385  23.613   5.563
 4212POPC   PO453664  29.966  23.212   5.220
 4212POPC   GL153665  29.797  23.379   5.689
 4212POPC   GL253666  29.594  23.666   5.750
 4212POPC   C1A53667  29.964  23.650   6.100
 4212POPC   D2A53668  30.149  23.876   6.478
 4212POPC   C3A53669  30.039  23.752   6.907
 4212POPC   C4A53670  30.182  23.929   7.300
 4212POPC   C1B53671  29.562  23.953   6.113
 4212POPC   C2B53672  29.635  23.783   6.526
 4212POPC   C3B53673  29.567  24.027   6.887
 4212POPC   C4B53674  29.687  23.948   7.266
 4213POPC   NC353675  34.239  14.140   5.252
 4213POPC   PO453676  33.802  14.618   5.235
 4213POPC   GL153677  33.848  14.322   5.599
 4213POPC   GL253678  33.924  14.610   5.801
 4213POPC   C1A53679  33.810  14.222   6.076
 4213POPC   D2A53680  34.095  14.281   6.396
 4213POPC   C3A53681  34.025  14.170   6.803
 4213POPC   C4A53682  33.884  14.188   7.206
 4213POPC   C1B53683  33.885  14.734   6.240
 4213POPC   C2B53684  33.954  14.684   6.708
 4213POPC   C3B53685  33.845  14.704   7.145
 4213POPC   C4B53686  34.014  14.606   7.559
 4214POPC   NC353687  14.879  34.210   5.440
 4214POPC   PO453688  15.526  34.324   5.531
 4214POPC   GL153689  15.245  34.579   5.762
 4214POPC   GL253690  15.492  34.532   6.018
 4214POPC   C1A53691  14.995  34.558   6.161
 4214POPC   D2A53692  15.209  34.426   6.566
 4214POPC   C3A53693  15.077  34.605   6.936
 4214POPC   C4A53694  14.714  34.648   7.132
 4214POPC   C1B53695  15.414  34.839   6.310
 4214POPC   C2B53696  15.337  34.986   6.715
 4214POPC   C3B53697  15.232  35.045   7.146
 4214POPC   C4B53698  15.037  34.858   7.480
 4215POPC   NC353699  41.335  26.243   4.924
 4215POPC   PO453700  41.765  25.901   5.321
 4215POPC   GL153701  41.652  25.954   5.727
 4215POPC   GL253702  41.839  25.678   5.804
 4215POPC   C1A53703  41.498  26.020   6.152
 4215POPC   D2A53704  41.440  26.327   6.473
 4215POPC   C3A53705  41.331  26.326   6.918
 4215POPC   C4A53706  41.627  26.284   7.265
 4215POPC   C1B53707  41.985  25.914   6.106
 4215POPC   C2B53708  41.883  25.851   6.461
 4215POPC   C3B53709  41.721  26.002   6.827
 4215POPC   C4B53710  41.602  25.763   7.196
 4216POPC   NC353711  22.963  26.115   5.301
 4216POPC   PO453712  22.664  25.609   5.675
 4216POPC   GL153713  23.060  25.800   5.836
 4216POPC   GL253714  23.061  26.156   5.928
 4216POPC   C1A53715  23.334  25.822   6.224
 4216POPC   D2A53716  23.328  26.046   6.587
 4216POPC   C3A53717  23.087  25.838   6.869
 4216POPC   C4A53718  23.195  25.844   7.288
 4216POPC   C1B53719  22.828  25.972   6.313
 4216POPC   C2B53720  22.449  26.112   6.588
 4216POPC   C3B53721  22.460  26.352   6.982
 4216POPC   C4B53722  22.792  26.124   7.168
 4217POPC   NC353723   2.911   9.298   5.569
 4217POPC   PO453724   2.499   9.698   5.188
 4217POPC   GL153725   2.546   9.626   5.714
 4217POPC   GL253726   2.860   9.746   5.875
 4217POPC   C1A53727   2.575   9.567   6.236
 4217POPC   D2A53728   2.859   9.803   6.553
 4217POPC   C3A53729   2.781   9.818   6.990
 4217POPC   C4A53730   2.472   9.592   7.283
 4217POPC   C1B53731   3.104   9.508   6.192
 4217POPC   C2B53732   2.968   9.306   6.579
 4217POPC   C3B53733   2.818   9.319   7.018
 4217POPC   C4B53734   2.800   9.121   7.435
 4218POPC   NC353735  30.151  31.703   5.420
 4218POPC   PO453736  30.143  31.050   5.156
 4218POPC   GL153737  29.939  31.132   5.674
 4218POPC   GL253738  29.869  31.483   5.775
 4218POPC   C1A53739  30.092  31.278   6.158
 4218POPC   D2A53740  29.915  31.485   6.566
 4218POPC   C3A53741  30.074  31.251   6.965
 4218POPC   C4A53742  30.387  31.130   7.308
 4218POPC   C1B53743  29.609  31.736   6.105
 4218POPC   C2B53744  29.508  31.932   6.536
 4218POPC   C3B53745  29.590  31.907   6.980
 4218POPC   C4B53746  29.937  31.711   7.189
 4219POPC   NC353747  27.692  32.624   5.304
 4219POPC   PO453748  27.433  32.025   5.429
 4219POPC   GL153749  27.629  32.254   5.680
 4219POPC   GL253750  27.275  32.422   5.737
 4219POPC   C1A53751  27.889  32.200   6.076
 4219POPC   D2A53752  27.755  31.957   6.473
 4219POPC   C3A53753  27.977  32.004   6.871
 4219POPC   C4A53754  27.860  32.009   7.291
 4219POPC   C1B53755  27.396  32.233   6.134
 4219POPC   C2B53756  27.575  32.427   6.493
 4219POPC   C3B53757  27.512  32.257   6.897
 4219POPC   C4B53758  27.548  32.399   7.311
 4220POPC   NC353759  29.686  21.953   5.457
 4220POPC   PO453760  30.164  22.442   5.343
 4220POPC   GL153761  30.026  22.287   5.757
 4220POPC   GL253762  30.053  21.916   5.806
 4220POPC   C1A53763  29.918  22.305   6.201
 4220POPC   D2A53764  29.944  22.408   6.650
 4220POPC   C3A53765  30.183  22.250   6.992
 4220POPC   C4A53766  29.786  22.292   7.211
 4220POPC   C1B53767  29.936  21.800   6.179
 4220POPC   C2B53768  30.096  21.902   6.562
 4220POPC   C3B53769  29.856  21.866   6.915
 4220POPC   C4B53770  30.028  21.806   7.298
 4221POPC   NC353771   2.335  14.076   5.406
 4221POPC   PO453772   3.032  13.969   5.331
 4221POPC   GL153773   2.701  13.728   5.578
 4221POPC   GL253774   2.776  13.844   5.885
 4221POPC   C1A53775   2.561  13.408   5.942
 4221POPC   D2A53776   2.658  13.391   6.406
 4221POPC   C3A53777   2.412  13.298   6.809
 4221POPC   C4A53778   2.491  13.464   7.243
 4221POPC   C1B53779   2.906  14.025   6.265
 4221POPC   C2B53780   2.893  14.178   6.650
 4221POPC   C3B53781   2.906  14.081   7.050
 4221POPC   C4B53782   2.683  14.146   7.373
 4222POPC   NC353783  15.544  25.341   5.581
 4222POPC   PO453784  15.911  24.889   5.191
 4222POPC   GL153785  16.030  25.159   5.598
 4222POPC   GL253786  16.288  24.998   5.813
 4222POPC   C1A53787  16.061  25.439   6.022
 4222POPC   D2A53788  15.755  25.359   6.374
 4222POPC   C3A53789  15.721  25.404   6.843
 4222POPC   C4A53790  15.711  25.117   7.171
 4222POPC   C1B53791  16.141  25.002   6.256
 4222POPC   C2B53792  16.129  25.132   6.682
 4222POPC   C3B53793  16.204  25.236   7.112
 4222POPC   C4B53794  16.313  24.922   7.429
 4223POPC   NC353795  17.240  38.330   5.196
 4223POPC   PO453796  16.588  38.474   5.053
 4223POPC   GL153797  16.769  38.407   5.537
 4223POPC   GL253798  16.620  38.129   5.698
 4223POPC   C1A53799  16.825  38.494   6.026
 4223POPC   D2A53800  16.966  38.301   6.453
 4223POPC   C3A53801  16.857  38.548   6.843
 4223POPC   C4A53802  16.962  38.688   7.269
 4223POPC   C1B53803  16.625  38.015   6.133
 4223POPC   C2B53804  16.466  38.031   6.576
 4223POPC   C3B53805  16.650  38.086   6.967
 4223POPC   C4B53806  16.541  38.066   7.381
 4224POPC   NC353807  34.132  41.257   5.500
 4224POPC   PO453808  33.757  41.821   5.385
 4224POPC   GL153809  33.854  41.605   5.767
 4224POPC   GL253810  34.183  41.686   5.772
 4224POPC   C1A53811  33.849  41.417   6.187
 4224POPC   D2A53812  33.622  41.555   6.570
 4224POPC   C3A53813  33.796  41.442   6.968
 4224POPC   C4A53814  33.883  41.625   7.382
 4224POPC   C1B53815  34.191  41.868   6.170
 4224POPC   C2B53816  34.129  41.674   6.558
 4224POPC   C3B53817  34.126  41.831   6.949
 4224POPC   C4B53818  34.256  41.975   7.311
 4225POPC   NC353819  22.118   3.506   5.377
 4225POPC   PO453820  21.744   4.054   5.657
 4225POPC   GL153821  21.912   3.632   5.849
 4225POPC   GL253822  22.155   3.299   5.847
 4225POPC   C1A53823  22.112   3.612   6.253
 4225POPC   D2A53824  22.370   3.735   6.605
 4225POPC   C3A53825  22.226   3.560   6.972
 4225POPC   C4A53826  21.854   3.569   7.209
 4225POPC   C1B53827  22.491   3.181   6.183
 4225POPC   C2B53828  22.606   3.289   6.649
 4225POPC   C3B53829  22.596   3.224   7.091
 4225POPC   C4B53830  22.258   3.232   7.390
 4226POPC   NC353831  33.957  22.611   5.349
 4226POPC   PO453832  34.161  21.969   5.400
 4226POPC   GL153833  33.897  22.176   5.743
 4226POPC   GL253834  34.012  22.494   5.826
 4226POPC   C1A53835  33.803  22.038   6.187
 4226POPC   D2A53836  33.910  21.763   6.577
 4226POPC   C3A53837  33.785  21.974   6.981
 4226POPC   C4A53838  33.632  22.410   7.129
 4226POPC   C1B53839  34.139  22.410   6.217
 4226POPC   C2B53840  33.956  22.319   6.638
 4226POPC   C3B53841  34.141  22.308   7.074
 4226POPC   C4B53842  34.032  22.470   7.520
 4227POPC   NC353843   2.019  38.422   5.404
 4227POPC   PO453844   1.509  38.760   5.739
 4227POPC   GL153845   1.798  38.541   6.022
 4227POPC   GL253846   2.028  38.272   5.935
 4227POPC   C1A53847   2.012  38.433   6.420
 4227POPC   D2A53848   2.307  38.519   6.733
 4227POPC   C3A53849   2.069  38.594   7.107
 4227POPC   C4A53850   1.583  38.640   7.142
 4227POPC   C1B53851   2.353  38.052   6.242
 4227POPC   C2B53852   2.441  38.019   6.720
 4227POPC   C3B53853   2.121  38.084   7.044
 4227POPC   C4B53854   1.764  38.212   7.301
 4228POPC   NC353855  39.014  40.255   5.496
 4228POPC   PO453856  38.689  39.763   5.199
 4228POPC   GL153857  39.027  39.758   5.578
 4228POPC   GL253858  39.346  39.887   5.687
 4228POPC   C1A53859  39.081  39.747   6.095
 4228POPC   D2A53860  39.380  39.695   6.488
 4228POPC   C3A53861  39.216  39.871   6.894
 4228POPC   C4A53862  39.020  39.812   7.310
 4228POPC   C1B53863  39.381  40.164   6.080
 4228POPC   C2B53864  39.538  40.184   6.513
 4228POPC   C3B53865  39.484  40.314   6.929
 4228POPC   C4B53866  39.292  40.228   7.341
 4229POPC   NC353867  15.144  24.090   5.306
 4229POPC   PO453868  15.318  23.417   5.255
 4229POPC   GL153869  15.082  23.536   5.649
 4229POPC   GL253870  14.919  23.872   5.724
 4229POPC   C1A53871  14.946  23.497   6.080
 4229POPC   D2A53872  14.771  23.727   6.398
 4229POPC   C3A53873  14.992  23.724   6.803
 4229POPC   C4A53874  15.224  23.532   7.147
 4229POPC   C1B53875  15.109  24.053   6.140
 4229POPC   C2B53876  14.913  24.189   6.574
 4229POPC   C3B53877  14.823  24.152   7.038
 4229POPC   C4B53878  14.948  24.055   7.493
 4230POPC   NC353879  34.665  43.614   5.397
 4230POPC   PO453880  34.426  44.248   5.326
 4230POPC   GL153881  34.400  43.986   5.719
 4230POPC   GL253882  34.133  43.709   5.734
 4230POPC   C1A53883  34.533  43.863   6.160
 4230POPC   D2A53884  34.461  43.983   6.624
 4230POPC   C3A53885  34.786  44.007   6.989
 4230POPC   C4A53886  34.640  44.009   7.430
 4230POPC   C1B53887  34.140  43.509   6.147
 4230POPC   C2B53888  34.341  43.474   6.561
 4230POPC   C3B53889  34.491  43.568   7.002
 4230POPC   C4B53890  34.878  43.578   7.284
 4231POPC   NC353891   3.509  19.052   5.202
 4231POPC   PO453892   3.778  18.486   5.326
 4231POPC   GL153893   3.572  18.707   5.744
 4231POPC   GL253894   3.430  19.025   5.701
 4231POPC   C1A53895   3.401  18.643   6.169
 4231POPC   D2A53896   3.544  18.597   6.615
 4231POPC   C3A53897   3.337  18.888   6.890
 4231POPC   C4A53898   3.606  18.822   7.211
 4231POPC   C1B53899   3.710  19.164   6.019
 4231POPC   C2B53900   3.684  19.044   6.424
 4231POPC   C3B53901   3.787  19.119   6.832
 4231POPC   C4B53902   3.518  19.312   7.176
 4232POPC   NC353903   6.545   3.841   5.437
 4232POPC   PO453904   6.261   3.250   5.489
 4232POPC   GL153905   6.527   3.458   5.764
 4232POPC   GL253906   6.879   3.470   5.681
 4232POPC   C1A53907   6.470   3.579   6.163
 4232POPC   D2A53908   6.261   3.396   6.494
 4232POPC   C3A53909   6.165   3.681   6.814
 4232POPC   C4A53910   6.539   3.619   7.067
 4232POPC   C1B53911   6.977   3.392   6.105
 4232POPC   C2B53912   6.807   3.336   6.522
 4232POPC   C3B53913   6.983   3.400   6.928
 4232POPC   C4B53914   7.025   3.779   7.173
 4233POPC   NC353915  22.549  12.451   5.195
 4233POPC   PO453916  22.073  12.014   5.453
 4233POPC   GL153917  22.261  12.031   5.841
 4233POPC   GL253918  22.375  11.679   5.866
 4233POPC   C1A53919  22.293  12.357   6.190
 4233POPC   D2A53920  22.576  12.404   6.558
 4233POPC   C3A53921  22.371  12.454   6.989
 4233POPC   C4A53922  22.292  12.189   7.368
 4233POPC   C1B53923  22.405  11.877   6.309
 4233POPC   C2B53924  22.169  12.104   6.646
 4233POPC   C3B53925  21.914  12.212   7.032
 4233POPC   C4B53926  21.805  11.892   7.362
 4234POPC   NC353927  40.322  32.320   5.635
 4234POPC   PO453928  39.921  32.000   5.141
 4234POPC   GL153929  39.882  32.014   5.661
 4234POPC   GL253930  40.098  31.986   6.005
 4234POPC   C1A53931  39.615  31.995   6.070
 4234POPC   D2A53932  39.833  31.941   6.500
 4234POPC   C3A53933  39.753  32.253   6.839
 4234POPC   C4A53934  39.859  32.530   7.177
 4234POPC   C1B53935  40.171  32.308   6.275
 4234POPC   C2B53936  40.490  32.407   6.537
 4234POPC   C3B53937  40.333  32.241   6.907
 4234POPC   C4B53938  40.190  32.149   7.273
 4235POPC   NC353939  31.290  23.202   5.453
 4235POPC   PO453940  31.556  23.829   5.291
 4235POPC   GL153941  31.461  23.834   5.727
 4235POPC   GL253942  31.356  23.522   5.881
 4235POPC   C1A53943  31.525  23.932   6.156
 4235POPC   D2A53944  31.456  23.750   6.524
 4235POPC   C3A53945  31.404  23.961   6.905
 4235POPC   C4A53946  31.648  23.900   7.287
 4235POPC   C1B53947  31.703  23.403   6.181
 4235POPC   C2B53948  31.763  23.320   6.617
 4235POPC   C3B53949  31.460  23.432   6.915
 4235POPC   C4B53950  31.608  23.392   7.266
 4236POPC   NC353951  22.054  17.853   5.040
 4236POPC   PO453952  21.995  18.417   5.364
 4236POPC   GL153953  22.130  18.237   5.736
 4236POPC   GL253954  22.337  18.475   5.906
 4236POPC   C1A53955  21.991  18.211   6.171
 4236POPC   D2A53956  21.815  18.191   6.581
 4236POPC   C3A53957  21.930  18.125   6.997
 4236POPC   C4A53958  22.018  18.471   7.258
 4236POPC   C1B53959  22.483  18.080   6.123
 4236POPC   C2B53960  22.335  18.032   6.560
 4236POPC   C3B53961  22.375  18.356   6.870
 4236POPC   C4B53962  22.616  18.421   7.228
 4237POPC   NC353963  25.853  12.434   5.327
 4237POPC   PO453964  25.866  11.880   5.037
 4237POPC   GL153965  25.968  11.965   5.565
 4237POPC   GL253966  25.986  12.305   5.785
 4237POPC   C1A53967  26.136  11.902   6.033
 4237POPC   D2A53968  26.167  12.196   6.397
 4237POPC   C3A53969  26.241  11.931   6.739
 4237POPC   C4A53970  26.154  11.914   7.169
 4237POPC   C1B53971  25.716  12.377   6.116
 4237POPC   C2B53972  25.631  12.432   6.547
 4237POPC   C3B53973  25.883  12.282   6.882
 4237POPC   C4B53974  25.861  12.301   7.327
 4238POPC   NC353975  31.539  15.481   5.529
 4238POPC   PO453976  31.204  14.943   5.488
 4238POPC   GL153977  31.305  15.173   5.863
 4238POPC   GL253978  31.133  15.470   5.852
 4238POPC   C1A53979  31.621  15.314   6.171
 4238POPC   D2A53980  31.666  15.045   6.503
 4238POPC   C3A53981  31.726  15.212   6.892
 4238POPC   C4A53982  31.478  15.340   7.252
 4238POPC   C1B53983  31.240  15.640   6.267
 4238POPC   C2B53984  31.340  15.517   6.681
 4238POPC   C3B53985  31.157  15.178   6.907
 4238POPC   C4B53986  30.950  15.225   7.292
 4239POPC   NC353987  24.521  16.636   5.312
 4239POPC   PO453988  25.078  16.502   5.725
 4239POPC   GL153989  24.709  16.705   5.885
 4239POPC   GL253990  24.347  16.769   5.835
 4239POPC   C1A53991  24.583  16.990   6.197
 4239POPC   D2A53992  24.305  16.938   6.518
 4239POPC   C3A53993  24.490  16.659   6.812
 4239POPC   C4A53994  24.597  16.764   7.258
 4239POPC   C1B53995  24.291  16.497   6.219
 4239POPC   C2B53996  23.995  16.529   6.578
 4239POPC   C3B53997  24.019  16.803   6.937
 4239POPC   C4B53998  24.188  16.472   7.186
 4240POPC   NC353999   0.667  39.551   5.507
 4240POPC   PO454000   0.628  38.870   5.368
 4240POPC   GL154001   0.479  39.116   5.734
 4240POPC   GL254002   0.177  38.969   5.847
 4240POPC   C1A54003   0.508  39.353   6.148
 4240POPC   D2A54004   0.605  39.246   6.585
 4240POPC   C3A54005   0.427  39.374   6.984
 4240POPC   C4A54006   0.438  39.270   7.429
 4240POPC   C1B54007   0.310  38.733   6.205
 4240POPC   C2B54008   0.217  38.844   6.651
 4240POPC   C3B54009   0.147  38.941   7.104
 4240POPC   C4B54010   0.146  38.853   7.537
 4241POPC   NC354011   7.750  15.193   5.359
 4241POPC   PO454012   7.179  15.474   5.081
 4241POPC   GL154013   7.288  15.428   5.563
 4241POPC   GL254014   7.539  15.595   5.791
 4241POPC   C1A54015   7.247  15.269   6.037
 4241POPC   D2A54016   7.181  15.226   6.520
 4241POPC   C3A54017   7.489  15.123   6.843
 4241POPC   C4A54018   7.414  14.920   7.243
 4241POPC   C1B54019   7.700  15.582   6.219
 4241POPC   C2B54020   7.904  15.447   6.628
 4241POPC   C3B54021   7.834  15.565   7.052
 4241POPC   C4B54022   7.448  15.456   7.229
 4242POPC   NC354023  37.403  12.961   5.444
 4242POPC   PO454024  37.902  12.507   5.370
 4242POPC   GL154025  37.689  12.662   5.765
 4242POPC   GL254026  37.626  13.016   5.906
 4242POPC   C1A54027  37.734  12.597   6.214
 4242POPC   D2A54028  37.672  12.853   6.571
 4242POPC   C3A54029  37.552  12.700   6.947
 4242POPC   C4A54030  37.338  12.970   7.203
 4242POPC   C1B54031  37.971  13.087   6.202
 4242POPC   C2B54032  38.101  13.236   6.640
 4242POPC   C3B54033  37.958  13.181   7.093
 4242POPC   C4B54034  37.973  13.248   7.563
 4243POPC   NC354035  26.915   0.112   5.507
 4243POPC   PO454036  26.521  44.576   5.326
 4243POPC   GL154037  26.622  44.750   5.745
 4243POPC   GL254038  26.990  44.669   5.741
 4243POPC   C1A54039  26.557  44.632   6.200
 4243POPC   D2A54040  26.617  44.280   6.530
 4243POPC   C3A54041  26.441  44.420   6.942
 4243POPC   C4A54042  26.637  44.811   7.044
 4243POPC   C1B54043  27.049  44.527   6.149
 4243POPC   C2B54044  27.005  44.640   6.559
 4243POPC   C3B54045  26.953  44.436   6.929
 4243POPC   C4B54046  27.030  44.571   7.354
 4244POPC   NC354047  44.744  24.599   5.375
 4244POPC   PO454048  44.515  24.018   5.455
 4244POPC   GL154049  44.641  24.328   5.800
 4244POPC   GL254050  44.950  24.571   5.838
 4244POPC   C1A54051  44.713  24.382   6.265
 4244POPC   D2A54052  44.963  24.208   6.619
 4244POPC   C3A54053  44.807  24.330   7.039
 4244POPC   C4A54054  44.531  24.674   7.151
 4244POPC   C1B54055  44.982  24.810   6.252
 4244POPC   C2B54056  44.879  24.706   6.699
 4244POPC   C3B54057   0.042  24.784   7.120
 4244POPC   C4B54058   0.304  24.578   7.447
 4245POPC   NC354059   3.633  36.521   5.576
 4245POPC   PO454060   3.345  36.007   5.159
 4245POPC   GL154061   3.407  36.071   5.611
 4245POPC   GL254062   3.770  36.052   5.732
 4245POPC   C1A54063   3.331  36.079   6.071
 4245POPC   D2A54064   3.398  36.241   6.489
 4245POPC   C3A54065   3.317  36.042   6.867
 4245POPC   C4A54066   3.127  36.164   7.248
 4245POPC   C1B54067   3.831  36.234   6.159
 4245POPC   C2B54068   3.876  36.446   6.555
 4245POPC   C3B54069   3.713  36.388   6.968
 4245POPC   C4B54070   3.611  36.072   7.280
 4246POPC   NC354071  32.517   8.817   5.472
 4246POPC   PO454072  32.167   9.448   5.352
 4246POPC   GL154073  32.148   9.311   5.764
 4246POPC   GL254074  32.472   9.175   5.842
 4246POPC   C1A54075  32.066   9.078   6.171
 4246POPC   D2A54076  31.813   8.963   6.540
 4246POPC   C3A54077  32.078   8.933   6.871
 4246POPC   C4A54078  32.263   8.820   7.230
 4246POPC   C1B54079  32.514   9.286   6.271
 4246POPC   C2B54080  32.596   9.043   6.622
 4246POPC   C3B54081  32.508   9.225   6.989
 4246POPC   C4B54082  32.500   9.239   7.411
 4247POPC   NC354083   4.801  38.008   5.482
 4247POPC   PO454084   5.026  38.705   5.501
 4247POPC   GL154085   4.881  38.641   5.880
 4247POPC   GL254086   4.996  38.306   5.849
 4247POPC   C1A54087   5.128  38.610   6.263
 4247POPC   D2A54088   5.187  38.863   6.617
 4247POPC   C3A54089   5.197  38.614   6.972
 4247POPC   C4A54090   4.922  38.700   7.251
 4247POPC   C1B54091   5.122  38.050   6.188
 4247POPC   C2B54092   5.237  38.107   6.613
 4247POPC   C3B54093   5.051  38.132   7.016
 4247POPC   C4B54094   5.239  38.107   7.404
 4248POPC   NC354095  34.638   9.683   5.369
 4248POPC   PO454096  34.967  10.170   5.620
 4248POPC   GL154097  34.638   9.957   5.896
 4248POPC   GL254098  34.427   9.662   5.831
 4248POPC   C1A54099  34.526   9.792   6.320
 4248POPC   D2A54100  34.812   9.566   6.564
 4248POPC   C3A54101  35.000   9.743   6.884
 4248POPC   C4A54102  34.811   9.694   7.250
 4248POPC   C1B54103  34.238   9.370   6.108
 4248POPC   C2B54104  34.145   9.449   6.537
 4248POPC   C3B54105  34.369   9.714   6.818
 4248POPC   C4B54106  34.304   9.563   7.212
 4249POPC   NC354107  39.564  30.572   5.347
 4249POPC   PO454108  39.050  30.832   5.631
 4249POPC   GL154109  39.399  30.745   5.820
 4249POPC   GL254110  39.566  31.078   5.898
 4249POPC   C1A54111  39.370  30.506   6.182
 4249POPC   D2A54112  39.105  30.634   6.526
 4249POPC   C3A54113  39.209  30.567   6.943
 4249POPC   C4A54114  38.934  30.664   7.267
 4249POPC   C1B54115  39.266  31.035   6.250
 4249POPC   C2B54116  39.338  31.062   6.707
 4249POPC   C3B54117  39.286  31.045   7.153
 4249POPC   C4B54118  39.459  30.907   7.526
 4250POPC   NC354119  31.259  27.087   5.581
 4250POPC   PO454120  31.856  26.847   5.406
 4250POPC   GL154121  31.729  26.808   5.834
 4250POPC   GL254122  31.383  26.673   5.867
 4250POPC   C1A54123  31.756  26.514   6.196
 4250POPC   D2A54124  32.046  26.394   6.535
 4250POPC   C3A54125  31.964  26.644   6.917
 4250POPC   C4A54126  31.670  26.786   7.254
 4250POPC   C1B54127  31.389  26.920   6.240
 4250POPC   C2B54128  31.491  26.832   6.664
 4250POPC   C3B54129  31.518  27.155   6.955
 4250POPC   C4B54130  31.312  27.191   7.344
 4251POPC   NC354131  11.281   9.210   5.411
 4251POPC   PO454132  11.753   8.716   5.383
 4251POPC   GL154133  11.483   8.784   5.763
 4251POPC   GL254134  11.121   8.865   5.789
 4251POPC   C1A54135  11.424   8.813   6.224
 4251POPC   D2A54136  11.318   9.043   6.630
 4251POPC   C3A54137  11.575   8.976   6.996
 4251POPC   C4A54138  11.638   8.688   7.333
 4251POPC   C1B54139  10.983   9.023   6.200
 4251POPC   C2B54140  10.926   8.726   6.558
 4251POPC   C3B54141  11.039   8.858   7.018
 4251POPC   C4B54142  11.149   9.297   7.101
 4252POPC   NC354143  34.821  14.948   5.340
 4252POPC   PO454144  34.242  15.295   5.221
 4252POPC   GL154145  34.560  15.321   5.641
 4252POPC   GL254146  34.633  14.965   5.810
 4252POPC   C1A54147  34.540  15.340   6.139
 4252POPC   D2A54148  34.643  15.533   6.545
 4252POPC   C3A54149  34.409  15.373   6.913
 4252POPC   C4A54150  34.314  14.986   7.136
 4252POPC   C1B54151  34.830  14.926   6.215
 4252POPC   C2B54152  34.649  14.980   6.618
 4252POPC   C3B54153  34.764  14.785   6.995
 4252POPC   C4B54154  34.829  14.999   7.392
 4253POPC   NC354155  11.789   6.523   5.682
 4253POPC   PO454156  12.042   7.039   5.246
 4253POPC   GL154157  12.217   6.933   5.699
 4253POPC   GL254158  12.277   6.614   5.799
 4253POPC   C1A54159  12.068   6.897   6.163
 4253POPC   D2A54160  11.892   6.625   6.499
 4253POPC   C3A54161  11.912   6.703   6.954
 4253POPC   C4A54162  12.279   6.759   7.194
 4253POPC   C1B54163  12.211   6.383   6.170
 4253POPC   C2B54164  12.125   6.161   6.562
 4253POPC   C3B54165  12.300   6.282   6.961
 4253POPC   C4B54166  12.087   6.279   7.313
 4254POPC   NC354167   6.384  20.101   5.325
 4254POPC   PO454168   6.631  19.529   5.431
 4254POPC   GL154169   6.395  19.745   5.752
 4254POPC   GL254170   6.726  19.711   5.901
 4254POPC   C1A54171   6.392  19.929   6.181
 4254POPC   D2A54172   6.550  20.164   6.547
 4254POPC   C3A54173   6.563  19.946   6.933
 4254POPC   C4A54174   6.401  19.775   7.329
 4254POPC   C1B54175   6.874  19.800   6.335
 4254POPC   C2B54176   6.850  19.553   6.724
 4254POPC   C3B54177   6.920  19.657   7.158
 4254POPC   C4B54178   6.963  20.087   7.254
 4255POPC   NC354179  20.769   7.566   5.565
 4255POPC   PO454180  20.697   8.305   5.373
 4255POPC   GL154181  20.529   8.306   5.793
 4255POPC   GL254182  20.318   8.008   5.727
 4255POPC   C1A54183  20.491   8.374   6.260
 4255POPC   D2A54184  20.473   8.582   6.678
 4255POPC   C3A54185  20.589   8.306   7.053
 4255POPC   C4A54186  20.709   8.364   7.516
 4255POPC   C1B54187  20.449   7.855   6.121
 4255POPC   C2B54188  20.590   7.854   6.538
 4255POPC   C3B54189  20.517   7.763   6.949
 4255POPC   C4B54190  20.679   7.880   7.349
 4256POPC   NC354191   0.875  37.332   5.440
 4256POPC   PO454192   1.266  36.802   5.296
 4256POPC   GL154193   1.256  36.763   5.741
 4256POPC   GL254194   1.165  37.113   5.839
 4256POPC   C1A54195   1.374  36.786   6.184
 4256POPC   D2A54196   1.138  36.572   6.538
 4256POPC   C3A54197   1.111  36.829   6.903
 4256POPC   C4A54198   1.109  36.622   7.286
 4256POPC   C1B54199   1.152  37.246   6.276
 4256POPC   C2B54200   0.830  37.286   6.562
 4256POPC   C3B54201   0.732  37.270   7.000
 4256POPC   C4B54202   0.968  37.132   7.373
 4257POPC   NC354203  17.930   0.951   5.461
 4257POPC   PO454204  18.451   1.423   5.436
 4257POPC   GL154205  18.262   1.253   5.784
 4257POPC   GL254206  18.003   1.469   5.867
 4257POPC   C1A54207  18.432   1.202   6.200
 4257POPC   D2A54208  18.422   1.427   6.611
 4257POPC   C3A54209  18.593   1.217   6.939
 4257POPC   C4A54210  18.596   0.838   7.186
 4257POPC   C1B54211  18.070   1.553   6.270
 4257POPC   C2B54212  18.003   1.139   6.496
 4257POPC   C3B54213  18.137   0.993   6.903
 4257POPC   C4B54214  18.165   1.276   7.253
 4258POPC   NC354215   1.465   3.979   5.409
 4258POPC   PO454216   0.800   4.142   5.344
 4258POPC   GL154217   0.931   4.194   5.805
 4258POPC   GL254218   1.259   4.300   5.763
 4258POPC   C1A54219   0.961   4.357   6.262
 4258POPC   D2A54220   0.924   4.409   6.745
 4258POPC   C3A54221   1.060   4.210   7.090
 4258POPC   C4A54222   1.194   4.520   7.335
 4258POPC   C1B54223   1.435   4.134   6.139
 4258POPC   C2B54224   1.453   4.368   6.520
 4258POPC   C3B54225   1.486   4.449   6.933
 4258POPC   C4B54226   1.612   4.232   7.328
 4259POPC   NC354227  10.258  15.685   5.409
 4259POPC   PO454228  10.338  16.348   5.384
 4259POPC   GL154229  10.485  16.185   5.799
 4259POPC   GL254230  10.478  15.850   5.834
 4259POPC   C1A54231  10.526  16.099   6.273
 4259POPC   D2A54232  10.313  16.259   6.649
 4259POPC   C3A54233  10.503  16.099   7.016
 4259POPC   C4A54234  10.395  15.996   7.453
 4259POPC   C1B54235  10.808  15.699   6.116
 4259POPC   C2B54236  10.693  15.642   6.524
 4259POPC   C3B54237  10.326  15.678   6.747
 4259POPC   C4B54238  10.436  15.609   7.151
 4260POPC   NC354239  41.630  31.926   5.222
 4260POPC   PO454240  41.538  32.560   5.590
 4260POPC   GL154241  41.551  32.095   5.717
 4260POPC   GL254242  41.266  31.853   5.722
 4260POPC   C1A54243  41.760  31.941   6.076
 4260POPC   D2A54244  41.644  32.176   6.466
 4260POPC   C3A54245  41.851  32.040   6.840
 4260POPC   C4A54246  41.799  32.232   7.225
 4260POPC   C1B54247  41.244  32.004   6.156
 4260POPC   C2B54248  41.115  32.092   6.574
 4260POPC   C3B54249  41.325  32.253   6.933
 4260POPC   C4B54250  41.294  32.013   7.285
 4261POPC   NC354251   2.567  10.892   5.502
 4261POPC   PO454252   3.130  11.292   5.432
 4261POPC   GL154253   2.810  11.312   5.766
 4261POPC   GL254254   2.823  10.981   5.940
 4261POPC   C1A54255   2.662  11.394   6.191
 4261POPC   D2A54256   2.660  11.148   6.561
 4261POPC   C3A54257   2.665  11.403   6.940
 4261POPC   C4A54258   2.827  11.467   7.356
 4261POPC   C1B54259   2.374  10.948   6.131
 4261POPC   C2B54260   2.225  10.813   6.535
 4261POPC   C3B54261   2.290  11.023   6.911
 4261POPC   C4B54262   2.411  11.098   7.320
 4262POPC   NC354263  12.908   5.632   5.543
 4262POPC   PO454264  12.546   6.109   5.476
 4262POPC   GL154265  12.651   5.951   5.860
 4262POPC   GL254266  12.564   5.561   5.920
 4262POPC   C1A54267  12.679   6.172   6.238
 4262POPC   D2A54268  12.606   6.031   6.623
 4262POPC   C3A54269  12.768   6.014   7.032
 4262POPC   C4A54270  12.661   5.626   7.235
 4262POPC   C1B54271  12.804   5.681   6.296
 4262POPC   C2B54272  13.065   5.792   6.678
 4262POPC   C3B54273  13.141   5.572   7.078
 4262POPC   C4B54274  13.331   5.501   7.490
 4263POPC   NC354275  39.179   9.876   5.429
 4263POPC   PO454276  39.576   9.323   5.587
 4263POPC   GL154277  39.358   9.579   5.861
 4263POPC   GL254278  39.025   9.486   5.865
 4263POPC   C1A54279  39.230   9.930   6.121
 4263POPC   D2A54280  39.314  10.195   6.486
 4263POPC   C3A54281  39.281   9.949   6.882
 4263POPC   C4A54282  39.570   9.921   7.227
 4263POPC   C1B54283  39.200   9.344   6.304
 4263POPC   C2B54284  39.187   9.331   6.799
 4263POPC   C3B54285  39.204   9.549   7.241
 4263POPC   C4B54286  39.089   9.344   7.680
 4264POPC   NC354287  10.836  23.042   5.216
 4264POPC   PO454288  10.495  22.552   5.539
 4264POPC   GL154289  10.394  22.876   5.837
 4264POPC   GL254290  10.291  23.222   5.721
 4264POPC   C1A54291  10.354  22.750   6.280
 4264POPC   D2A54292  10.599  22.689   6.634
 4264POPC   C3A54293  10.395  22.751   7.030
 4264POPC   C4A54294  10.381  22.716   7.473
 4264POPC   C1B54295  10.475  23.255   6.158
 4264POPC   C2B54296  10.385  23.159   6.588
 4264POPC   C3B54297  10.539  23.221   6.989
 4264POPC   C4B54298  10.329  23.220   7.379
 4265POPC   NC354299  19.433  19.292   5.084
 4265POPC   PO454300  19.937  19.084   5.521
 4265POPC   GL154301  19.966  19.020   5.907
 4265POPC   GL254302  19.620  19.044   5.917
 4265POPC   C1A54303  20.079  19.031   6.331
 4265POPC   D2A54304  20.076  19.303   6.636
 4265POPC   C3A54305  20.045  19.146   7.016
 4265POPC   C4A54306  20.173  19.446   7.313
 4265POPC   C1B54307  19.602  18.884   6.305
 4265POPC   C2B54308  19.653  18.969   6.732
 4265POPC   C3B54309  19.552  18.915   7.169
 4265POPC   C4B54310  19.827  19.098   7.466
 4266POPC   NC354311  37.832  24.645   5.272
 4266POPC   PO454312  37.449  24.148   5.392
 4266POPC   GL154313  37.590  24.295   5.762
 4266POPC   GL254314  37.924  24.440   5.776
 4266POPC   C1A54315  37.610  24.394   6.173
 4266POPC   D2A54316  37.650  24.593   6.529
 4266POPC   C3A54317  37.454  24.418   6.854
 4266POPC   C4A54318  37.678  24.373   7.237
 4266POPC   C1B54319  37.900  24.803   6.119
 4266POPC   C2B54320  37.945  25.006   6.530
 4266POPC   C3B54321  37.810  24.860   6.957
 4266POPC   C4B54322  38.038  24.754   7.348
 4267POPC   NC354323  27.696  33.283   5.508
 4267POPC   PO454324  27.655  33.958   5.455
 4267POPC   GL154325  27.624  33.900   5.894
 4267POPC   GL254326  27.531  33.563   5.906
 4267POPC   C1A54327  27.846  34.033   6.305
 4267POPC   D2A54328  27.859  33.954   6.734
 4267POPC   C3A54329  27.535  33.699   6.942
 4267POPC   C4A54330  27.337  33.613   7.367
 4267POPC   C1B54331  27.906  33.550   6.153
 4267POPC   C2B54332  27.886  33.417   6.559
 4267POPC   C3B54333  28.003  33.522   6.956
 4267POPC   C4B54334  27.795  33.419   7.329
 4268POPC   NC354335   8.112  17.955   5.575
 4268POPC   PO454336   7.868  18.455   5.104
 4268POPC   GL154337   8.196  18.487   5.521
 4268POPC   GL254338   8.511  18.384   5.683
 4268POPC   C1A54339   8.139  18.503   6.028
 4268POPC   D2A54340   7.982  18.496   6.489
 4268POPC   C3A54341   8.119  18.613   6.930
 4268POPC   C4A54342   8.015  18.348   7.319
 4268POPC   C1B54343   8.573  18.252   6.145
 4268POPC   C2B54344   8.481  18.348   6.604
 4268POPC   C3B54345   8.332  18.133   6.987
 4268POPC   C4B54346   8.433  18.088   7.468
 4269POPC   NC354347  11.925   1.066   5.527
 4269POPC   PO454348  12.415   0.574   5.557
 4269POPC   GL154349  12.311   0.998   5.850
 4269POPC   GL254350  12.037   1.349   5.908
 4269POPC   C1A54351  12.154   1.031   6.277
 4269POPC   D2A54352  11.941   1.046   6.668
 4269POPC   C3A54353  12.083   1.111   7.052
 4269POPC   C4A54354  11.827   0.983   7.385
 4269POPC   C1B54355  12.249   1.537   6.214
 4269POPC   C2B54356  12.214   1.492   6.630
 4269POPC   C3B54357  12.026   1.600   6.982
 4269POPC   C4B54358  11.826   1.485   7.334
 4270POPC   NC354359  44.907  30.141   5.469
 4270POPC   PO454360  44.596  29.613   5.265
 4270POPC   GL154361  44.592  29.769   5.693
 4270POPC   GL254362  44.920  29.759   5.801
 4270POPC   C1A54363  44.529  30.075   6.057
 4270POPC   D2A54364  44.682  30.213   6.485
 4270POPC   C3A54365  44.417  30.099   6.796
 4270POPC   C4A54366  44.398  30.012   7.208
 4270POPC   C1B54367  44.765  29.642   6.205
 4270POPC   C2B54368  44.711  29.701   6.659
 4270POPC   C3B54369  44.883  29.896   7.020
 4270POPC   C4B54370   0.043  29.675   7.400
 4271POPC   NC354371   2.482  11.708   5.534
 4271POPC   PO454372   2.879  12.260   5.423
 4271POPC   GL154373   2.818  12.045   5.773
 4271POPC   GL254374   3.033  11.777   5.657
 4271POPC   C1A54375   2.687  11.903   6.167
 4271POPC   D2A54376   2.559  11.788   6.563
 4271POPC   C3A54377   2.479  12.166   6.779
 4271POPC   C4A54378   2.594  12.184   7.186
 4271POPC   C1B54379   3.121  11.671   6.065
 4271POPC   C2B54380   3.079  11.756   6.503
 4271POPC   C3B54381   2.935  11.857   6.918
 4271POPC   C4B54382   3.049  11.943   7.334
 4272POPC   NC354383  19.747  34.260   5.514
 4272POPC   PO454384  19.760  34.939   5.425
 4272POPC   GL154385  19.979  34.742   5.782
 4272POPC   GL254386  20.009  34.376   5.918
 4272POPC   C1A54387  19.836  34.875   6.180
 4272POPC   D2A54388  19.910  35.015   6.594
 4272POPC   C3A54389  19.682  34.776   6.882
 4272POPC   C4A54390  19.733  34.612   7.290
 4272POPC   C1B54391  20.209  34.530   6.260
 4272POPC   C2B54392  20.025  34.484   6.633
 4272POPC   C3B54393  19.908  34.238   6.982
 4272POPC   C4B54394  20.112  34.265   7.364
 4273POPC   NC354395  19.448  22.280   5.350
 4273POPC   PO454396  19.809  21.688   5.461
 4273POPC   GL154397  19.866  21.911   5.852
 4273POPC   GL254398  20.098  21.669   6.015
 4273POPC   C1A54399  19.638  22.022   6.245
 4273POPC   D2A54400  19.439  21.931   6.652
 4273POPC   C3A54401  19.622  22.058   7.044
 4273POPC   C4A54402  19.865  22.419   7.098
 4273POPC   C1B54403  20.135  22.038   6.281
 4273POPC   C2B54404  19.974  22.070   6.671
 4273POPC   C3B54405  20.200  22.035   7.021
 4273POPC   C4B54406  20.316  22.347   7.327
 4274POPC   NC354407  37.980  25.242   5.426
 4274POPC   PO454408  38.530  25.558   5.350
 4274POPC   GL154409  38.402  25.289   5.718
 4274POPC   GL254410  38.672  25.079   5.850
 4274POPC   C1A54411  38.265  25.152   6.142
 4274POPC   D2A54412  38.506  25.052   6.520
 4274POPC   C3A54413  38.308  25.076   6.910
 4274POPC   C4A54414  38.526  24.966   7.274
 4274POPC   C1B54415  38.679  25.454   6.134
 4274POPC   C2B54416  38.806  25.507   6.552
 4274POPC   C3B54417  38.765  25.313   6.943
 4274POPC   C4B54418  38.595  25.471   7.330
 4275POPC   NC354419  11.292  30.958   5.442
 4275POPC   PO454420  11.889  30.445   5.513
 4275POPC   GL154421  11.539  30.654   5.837
 4275POPC   GL254422  11.170  30.753   5.879
 4275POPC   C1A54423  11.456  31.073   6.115
 4275POPC   D2A54424  11.429  31.110   6.556
 4275POPC   C3A54425  11.568  30.836   6.887
 4275POPC   C4A54426  11.539  30.711   7.326
 4275POPC   C1B54427  11.258  30.657   6.311
 4275POPC   C2B54428  11.082  30.750   6.721
 4275POPC   C3B54429  11.024  30.778   7.179
 4275POPC   C4B54430  11.116  30.664   7.628
 4276POPC   NC354431  25.482  21.712   5.361
 4276POPC   PO454432  24.827  21.634   5.617
 4276POPC   GL154433  25.257  21.507   5.771
 4276POPC   GL254434  25.331  21.140   5.707
 4276POPC   C1A54435  25.575  21.405   6.084
 4276POPC   D2A54436  25.544  21.174   6.455
 4276POPC   C3A54437  25.572  21.399   6.850
 4276POPC   C4A54438  25.400  21.448   7.271
 4276POPC   C1B54439  25.112  21.176   6.146
 4276POPC   C2B54440  25.089  21.345   6.594
 4276POPC   C3B54441  25.077  21.158   7.014
 4276POPC   C4B54442  24.914  21.282   7.428
 4277POPC   NC354443  13.908   3.283   5.475
 4277POPC   PO454444  13.367   3.606   5.408
 4277POPC   GL154445  13.495   3.408   5.789
 4277POPC   GL254446  13.496   3.059   5.750
 4277POPC   C1A54447  13.464   3.363   6.238
 4277POPC   D2A54448  13.286   3.469   6.644
 4277POPC   C3A54449  13.585   3.504   6.963
 4277POPC   C4A54450  13.478   3.680   7.326
 4277POPC   C1B54451  13.847   3.072   6.080
 4277POPC   C2B54452  13.877   3.112   6.516
 4277POPC   C3B54453  13.763   3.028   6.923
 4277POPC   C4B54454  13.924   3.066   7.325
 4278POPC   NC354455  32.326   3.679   5.572
 4278POPC   PO454456  32.838   3.310   5.338
 4278POPC   GL154457  32.610   3.302   5.778
 4278POPC   GL254458  32.241   3.218   5.806
 4278POPC   C1A54459  32.465   3.436   6.213
 4278POPC   D2A54460  32.426   3.702   6.571
 4278POPC   C3A54461  32.328   3.495   6.967
 4278POPC   C4A54462  32.423   3.497   7.409
 4278POPC   C1B54463  31.971   3.232   6.158
 4278POPC   C2B54464  31.946   3.450   6.558
 4278POPC   C3B54465  31.865   3.246   6.951
 4278POPC   C4B54466  31.908   3.520   7.309
 4279POPC   NC354467  10.645  34.270   5.528
 4279POPC   PO454468  10.406  33.599   5.446
 4279POPC   GL154469  10.760  33.716   5.693
 4279POPC   GL254470  10.686  33.424   5.860
 4279POPC   C1A54471  10.703  33.895   6.122
 4279POPC   D2A54472  10.328  34.023   6.393
 4279POPC   C3A54473  10.419  33.976   6.841
 4279POPC   C4A54474  10.766  33.755   7.065
 4279POPC   C1B54475  10.348  33.515   6.172
 4279POPC   C2B54476  10.518  33.553   6.573
 4279POPC   C3B54477  10.369  33.452   6.970
 4279POPC   C4B54478  10.153  33.607   7.325
 4280POPC   NC354479  18.914  34.089   5.410
 4280POPC   PO454480  19.521  33.751   5.327
 4280POPC   GL154481  19.275  33.834   5.722
 4280POPC   GL254482  19.293  34.166   5.793
 4280POPC   C1A54483  19.097  33.648   6.113
 4280POPC   D2A54484  19.129  33.393   6.503
 4280POPC   C3A54485  19.012  33.677   6.857
 4280POPC   C4A54486  18.815  33.683   7.278
 4280POPC   C1B54487  18.985  34.156   6.132
 4280POPC   C2B54488  18.766  34.059   6.544
 4280POPC   C3B54489  18.823  34.147   7.008
 4280POPC   C4B54490  19.114  34.114   7.351
 4281POPC   NC354491  37.201   7.755   5.190
 4281POPC   PO454492  36.798   7.238   5.465
 4281POPC   GL154493  36.946   7.423   5.844
 4281POPC   GL254494  36.713   7.656   5.843
 4281POPC   C1A54495  36.909   7.586   6.304
 4281POPC   D2A54496  37.045   7.465   6.699
 4281POPC   C3A54497  36.921   7.698   7.036
 4281POPC   C4A54498  36.873   7.545   7.434
 4281POPC   C1B54499  36.555   7.271   6.162
 4281POPC   C2B54500  36.682   7.114   6.590
 4281POPC   C3B54501  36.658   7.282   7.028
 4281POPC   C4B54502  36.458   7.214   7.470
 4282POPC   NC354503  21.144  29.027   5.271
 4282POPC   PO454504  21.554  29.575   5.193
 4282POPC   GL154505  21.664  29.291   5.577
 4282POPC   GL254506  21.636  28.905   5.668
 4282POPC   C1A54507  21.705  29.261   6.052
 4282POPC   D2A54508  21.655  29.472   6.483
 4282POPC   C3A54509  21.330  29.326   6.748
 4282POPC   C4A54510  21.291  29.111   7.126
 4282POPC   C1B54511  21.335  28.881   6.077
 4282POPC   C2B54512  21.286  28.779   6.560
 4282POPC   C3B54513  21.558  28.699   6.957
 4282POPC   C4B54514  21.532  28.792   7.434
 4283POPC   NC354515  26.301  33.444   5.505
 4283POPC   PO454516  25.931  33.947   5.172
 4283POPC   GL154517  26.039  33.918   5.637
 4283POPC   GL254518  26.423  33.969   5.681
 4283POPC   C1A54519  25.799  33.842   6.071
 4283POPC   D2A54520  25.687  33.522   6.431
 4283POPC   C3A54521  25.729  33.612   6.899
 4283POPC   C4A54522  25.736  33.981   7.185
 4283POPC   C1B54523  26.225  34.144   6.078
 4283POPC   C2B54524  26.064  33.939   6.489
 4283POPC   C3B54525  26.193  33.952   6.917
 4283POPC   C4B54526  26.153  33.641   7.225
 4284POPC   NC354527   3.041  37.871   5.362
 4284POPC   PO454528   3.645  37.576   5.380
 4284POPC   GL154529   3.600  37.457   5.785
 4284POPC   GL254530   3.229  37.505   5.811
 4284POPC   C1A54531   3.571  37.468   6.237
 4284POPC   D2A54532   3.695  37.785   6.529
 4284POPC   C3A54533   3.484  37.795   6.898
 4284POPC   C4A54534   3.437  37.909   7.324
 4284POPC   C1B54535   3.053  37.444   6.220
 4284POPC   C2B54536   3.179  37.442   6.673
 4284POPC   C3B54537   3.106  37.547   7.127
 4284POPC   C4B54538   3.210  37.520   7.610
 4285POPC   NC354539   7.654  31.541   5.599
 4285POPC   PO454540   6.996  31.406   5.602
 4285POPC   GL154541   7.210  31.588   5.894
 4285POPC   GL254542   7.392  31.261   5.922
 4285POPC   C1A54543   7.230  31.491   6.323
 4285POPC   D2A54544   7.446  31.462   6.691
 4285POPC   C3A54545   7.257  31.460   7.091
 4285POPC   C4A54546   7.399  31.749   7.442
 4285POPC   C1B54547   7.733  31.315   6.247
 4285POPC   C2B54548   7.921  31.306   6.663
 4285POPC   C3B54549   7.790  31.400   7.086
 4285POPC   C4B54550   7.570  31.183   7.394
 4286POPC   NC354551  12.288  26.135   5.409
 4286POPC   PO454552  11.720  25.749   5.310
 4286POPC   GL154553  11.874  25.988   5.689
 4286POPC   GL254554  11.555  25.835   5.790
 4286POPC   C1A54555  12.040  26.221   6.099
 4286POPC   D2A54556  12.003  26.156   6.591
 4286POPC   C3A54557  12.350  26.208   6.918
 4286POPC   C4A54558  12.469  25.941   7.311
 4286POPC   C1B54559  11.758  25.802   6.172
 4286POPC   C2B54560  11.559  25.879   6.542
 4286POPC   C3B54561  11.628  25.886   6.940
 4286POPC   C4B54562  11.996  25.904   7.152
 4287POPC   NC354563  12.365  15.855   5.512
 4287POPC   PO454564  11.851  16.181   5.711
 4287POPC   GL154565  12.165  15.920   5.986
 4287POPC   GL254566  12.382  15.627   5.946
 4287POPC   C1A54567  12.124  15.760   6.397
 4287POPC   D2A54568  11.973  16.104   6.629
 4287POPC   C3A54569  11.795  16.071   7.031
 4287POPC   C4A54570  12.137  16.162   7.289
 4287POPC   C1B54571  12.535  15.401   6.269
 4287POPC   C2B54572  12.485  15.470   6.678
 4287POPC   C3B54573  12.226  15.735   6.934
 4287POPC   C4B54574  12.400  15.747   7.328
 4288POPC   NC354575  24.291  37.363   5.500
 4288POPC   PO454576  24.678  37.939   5.388
 4288POPC   GL154577  24.638  37.709   5.813
 4288POPC   GL254578  24.588  37.348   5.935
 4288POPC   C1A54579  24.517  37.725   6.272
 4288POPC   D2A54580  24.447  37.406   6.636
 4288POPC   C3A54581  24.545  37.629   7.017
 4288POPC   C4A54582  24.464  37.986   7.262
 4288POPC   C1B54583  24.839  37.342   6.307
 4288POPC   C2B54584  24.948  37.369   6.756
 4288POPC   C3B54585  24.742  37.172   7.107
 4288POPC   C4B54586  24.754  37.446   7.453
 4289POPC   NC354587  43.724  27.161   5.317
 4289POPC   PO454588  44.246  26.727   5.401
 4289POPC   GL154589  44.159  26.780   5.844
 4289POPC   GL254590  43.775  26.844   5.877
 4289POPC   C1A54591  44.158  26.782   6.311
 4289POPC   D2A54592  43.941  26.526   6.638
 4289POPC   C3A54593  44.101  26.595   7.034
 4289POPC   C4A54594  44.023  27.006   7.168
 4289POPC   C1B54595  43.532  27.106   6.207
 4289POPC   C2B54596  43.292  27.213   6.617
 4289POPC   C3B54597  43.411  27.096   7.030
 4289POPC   C4B54598  43.600  26.665   7.089
 4290POPC   NC354599  11.500  13.393   5.585
 4290POPC   PO454600  11.367  14.050   5.571
 4290POPC   GL154601  11.501  13.798   5.887
 4290POPC   GL254602  11.164  13.632   5.896
 4290POPC   C1A54603  11.667  13.632   6.291
 4290POPC   D2A54604  11.613  13.481   6.713
 4290POPC   C3A54605  11.669  13.705   7.090
 4290POPC   C4A54606  11.627  13.679   7.570
 4290POPC   C1B54607  11.202  13.889   6.280
 4290POPC   C2B54608  11.168  13.766   6.700
 4290POPC   C3B54609  11.174  13.543   7.071
 4290POPC   C4B54610  11.253  13.882   7.313
 4291POPC   NC354611  15.215   2.305   5.283
 4291POPC   PO454612  15.293   1.655   5.376
 4291POPC   GL154613  15.228   1.853   5.771
 4291POPC   GL254614  15.140   2.212   5.802
 4291POPC   C1A54615  15.430   1.955   6.164
 4291POPC   D2A54616  15.202   1.811   6.526
 4291POPC   C3A54617  15.337   1.881   6.931
 4291POPC   C4A54618  15.505   2.200   7.168
 4291POPC   C1B54619  14.968   2.225   6.254
 4291POPC   C2B54620  14.997   2.236   6.734
 4291POPC   C3B54621  14.992   2.201   7.198
 4291POPC   C4B54622  14.865   2.499   7.542
 4292POPC   NC354623  39.461  35.564   5.424
 4292POPC   PO454624  40.102  35.346   5.329
 4292POPC   GL154625  39.972  35.346   5.781
 4292POPC   GL254626  40.342  35.329   5.863
 4292POPC   C1A54627  39.987  35.475   6.246
 4292POPC   D2A54628  40.216  35.369   6.642
 4292POPC   C3A54629  40.012  35.523   7.031
 4292POPC   C4A54630  40.099  35.586   7.495
 4292POPC   C1B54631  40.310  35.047   6.217
 4292POPC   C2B54632  40.330  34.849   6.624
 4292POPC   C3B54633  40.225  34.987   7.046
 4292POPC   C4B54634  39.948  35.132   7.355
 4293POPC   NC354635  41.047  44.378   5.527
 4293POPC   PO454636  40.555  44.793   5.436
 4293POPC   GL154637  40.655  44.631   5.834
 4293POPC   GL254638  40.950  44.720   5.921
 4293POPC   C1A54639  40.584  44.734   6.273
 4293POPC   D2A54640  40.723  44.802   6.684
 4293POPC   C3A54641  40.384  44.782   6.970
 4293POPC   C4A54642  40.483  44.643   7.372
 4293POPC   C1B54643  41.147  44.668   6.322
 4293POPC   C2B54644  41.196  44.561   6.749
 4293POPC   C3B54645  41.047  44.706   7.151
 4293POPC   C4B54646  40.947  44.716   7.571
 4294POPC   NC354647  34.229  17.423   5.383
 4294POPC   PO454648  33.655  17.691   5.138
 4294POPC   GL154649  33.612  17.530   5.594
 4294POPC   GL254650  33.930  17.461   5.798
 4294POPC   C1A54651  33.509  17.603   6.070
 4294POPC   D2A54652  33.690  17.565   6.494
 4294POPC   C3A54653  33.475  17.677   6.865
 4294POPC   C4A54654  33.604  17.830   7.232
 4294POPC   C1B54655  34.126  17.280   6.165
 4294POPC   C2B54656  34.144  17.330   6.594
 4294POPC   C3B54657  33.867  17.335   6.937
 4294POPC   C4B54658  34.044  17.398   7.332
 4295POPC   NC354659  31.183  10.159   5.466
 4295POPC   PO454660  30.535   9.879   5.449
 4295POPC   GL154661  30.736   9.838   5.814
 4295POPC   GL254662  30.633  10.163   5.877
 4295POPC   C1A54663  30.688   9.704   6.232
 4295POPC   D2A54664  30.939   9.579   6.596
 4295POPC   C3A54665  30.835   9.457   7.013
 4295POPC   C4A54666  30.838   9.802   7.241
 4295POPC   C1B54667  30.480  10.264   6.265
 4295POPC   C2B54668  30.357   9.939   6.526
 4295POPC   C3B54669  30.299   9.868   6.929
 4295POPC   C4B54670  30.405  10.077   7.297
 4296POPC   NC354671  37.064  25.278   5.136
 4296POPC   PO454672  36.747  25.488   5.652
 4296POPC   GL154673  36.946  25.447   5.973
 4296POPC   GL254674  37.081  25.127   5.834
 4296POPC   C1A54675  37.022  25.586   6.355
 4296POPC   D2A54676  36.969  25.326   6.683
 4296POPC   C3A54677  36.933  25.438   7.117
 4296POPC   C4A54678  37.122  25.196   7.457
 4296POPC   C1B54679  36.894  25.000   6.222
 4296POPC   C2B54680  36.758  24.847   6.597
 4296POPC   C3B54681  36.853  24.954   7.004
 4296POPC   C4B54682  37.151  24.718   7.149
 4297POPC   NC354683   6.420  22.976   5.459
 4297POPC   PO454684   5.797  23.123   5.271
 4297POPC   GL154685   5.912  22.952   5.704
 4297POPC   GL254686   5.698  23.174   5.857
 4297POPC   C1A54687   5.830  22.789   6.179
 4297POPC   D2A54688   5.625  22.937   6.573
 4297POPC   C3A54689   5.653  22.743   7.012
 4297POPC   C4A54690   6.051  22.744   7.264
 4297POPC   C1B54691   6.063  23.246   6.152
 4297POPC   C2B54692   6.121  23.089   6.610
 4297POPC   C3B54693   5.907  23.197   7.007
 4297POPC   C4B54694   6.069  23.304   7.415
 4298POPC   NC354695  42.798  16.001   5.283
 4298POPC   PO454696  43.341  15.729   5.071
 4298POPC   GL154697  43.262  15.897   5.587
 4298POPC   GL254698  42.956  15.957   5.756
 4298POPC   C1A54699  43.265  15.841   6.122
 4298POPC   D2A54700  43.469  15.815   6.553
 4298POPC   C3A54701  43.306  15.749   6.987
 4298POPC   C4A54702  43.115  15.982   7.300
 4298POPC   C1B54703  42.773  16.020   6.163
 4298POPC   C2B54704  42.955  16.062   6.558
 4298POPC   C3B54705  42.780  16.066   6.939
 4298POPC   C4B54706  42.553  16.054   7.319
 4299POPC   NC354707  31.781  16.070   5.256
 4299POPC   PO454708  31.210  15.836   5.503
 4299POPC   GL154709  31.224  15.990   5.880
 4299POPC   GL254710  31.524  15.860   5.905
 4299POPC   C1A54711  31.297  16.141   6.264
 4299POPC   D2A54712  31.498  16.060   6.603
 4299POPC   C3A54713  31.275  16.013   6.955
 4299POPC   C4A54714  31.311  15.821   7.360
 4299POPC   C1B54715  31.776  15.839   6.231
 4299POPC   C2B54716  31.833  15.679   6.631
 4299POPC   C3B54717  31.694  15.732   7.016
 4299POPC   C4B54718  31.840  15.932   7.365
 4300POPC   NC354719  21.043  19.728   5.321
 4300POPC   PO454720  21.633  19.935   5.047
 4300POPC   GL154721  21.656  20.041   5.567
 4300POPC   GL254722  21.366  19.846   5.752
 4300POPC   C1A54723  21.688  20.051   6.071
 4300POPC   D2A54724  21.381  19.919   6.423
 4300POPC   C3A54725  21.403  19.772   6.873
 4300POPC   C4A54726  21.184  19.860   7.272
 4300POPC   C1B54727  21.487  19.555   6.102
 4300POPC   C2B54728  21.613  19.429   6.536
 4300POPC   C3B54729  21.688  19.335   6.972
 4300POPC   C4B54730  21.462  19.379   7.357
 4301POPC   NC354731   4.371   2.246   5.141
 4301POPC   PO454732   4.083   1.812   5.622
 4301POPC   GL154733   4.343   1.785   5.992
 4301POPC   GL254734   4.522   1.517   5.986
 4301POPC   C1A54735   4.654   2.049   6.248
 4301POPC   D2A54736   4.676   2.199   6.664
 4301POPC   C3A54737   4.264   2.151   6.859
 4301POPC   C4A54738   4.199   2.280   7.283
 4301POPC   C1B54739   4.518   1.576   6.436
 4301POPC   C2B54740   4.715   1.675   6.815
 4301POPC   C3B54741   4.540   1.873   7.177
 4301POPC   C4B54742   4.333   1.882   7.578
 4302POPC   NC354743  27.103  15.960   5.040
 4302POPC   PO454744  26.529  15.756   5.403
 4302POPC   GL154745  26.530  16.006   5.748
 4302POPC   GL254746  26.893  16.047   5.724
 4302POPC   C1A54747  26.460  15.955   6.190
 4302POPC   D2A54748  26.441  15.635   6.532
 4302POPC   C3A54749  26.484  15.841   6.917
 4302POPC   C4A54750  26.853  15.795   7.221
 4302POPC   C1B54751  26.982  16.086   6.168
 4302POPC   C2B54752  26.966  15.962   6.599
 4302POPC   C3B54753  26.809  16.231   6.922
 4302POPC   C4B54754  26.782  16.310   7.331
 4303POPC   NC354755  42.785   4.092   5.393
 4303POPC   PO454756  43.466   4.317   5.304
 4303POPC   GL154757  43.330   4.200   5.703
 4303POPC   GL254758  43.042   4.429   5.698
 4303POPC   C1A54759  43.184   4.163   6.141
 4303POPC   D2A54760  43.315   4.367   6.533
 4303POPC   C3A54761  43.141   4.171   6.916
 4303POPC   C4A54762  43.285   4.074   7.312
 4303POPC   C1B54763  42.885   4.580   6.089
 4303POPC   C2B54764  42.884   4.788   6.479
 4303POPC   C3B54765  43.017   4.666   6.864
 4303POPC   C4B54766  42.899   4.522   7.259
 4304POPC   NC354767  18.738  20.876   5.647
 4304POPC   PO454768  19.087  20.406   5.233
 4304POPC   GL154769  19.185  20.624   5.663
 4304POPC   GL254770  19.525  20.713   5.746
 4304POPC   C1A54771  19.172  20.664   6.169
 4304POPC   D2A54772  19.128  20.899   6.628
 4304POPC   C3A54773  18.793  20.761   6.911
 4304POPC   C4A54774  18.641  20.360   7.090
 4304POPC   C1B54775  19.697  20.716   6.157
 4304POPC   C2B54776  19.517  20.555   6.539
 4304POPC   C3B54777  19.506  20.638   6.960
 4304POPC   C4B54778  19.175  20.753   7.228
 4305POPC   NC354779  18.871   2.479   5.468
 4305POPC   PO454780  19.349   2.929   5.528
 4305POPC   GL154781  19.165   2.663   5.842
 4305POPC   GL254782  18.861   2.851   5.851
 4305POPC   C1A54783  18.980   2.507   6.240
 4305POPC   D2A54784  18.978   2.421   6.698
 4305POPC   C3A54785  19.313   2.605   6.952
 4305POPC   C4A54786  19.377   2.780   7.371
 4305POPC   C1B54787  19.025   3.034   6.254
 4305POPC   C2B54788  18.938   2.947   6.704
 4305POPC   C3B54789  18.996   3.024   7.147
 4305POPC   C4B54790  18.835   3.259   7.528
 4306POPC   NC354791  30.932  26.224   5.286
 4306POPC   PO454792  30.360  25.925   5.371
 4306POPC   GL154793  30.682  26.030   5.698
 4306POPC   GL254794  30.801  26.372   5.778
 4306POPC   C1A54795  30.879  25.996   6.112
 4306POPC   D2A54796  30.659  25.883   6.479
 4306POPC   C3A54797  30.867  25.927   6.839
 4306POPC   C4A54798  30.689  25.990   7.223
 4306POPC   C1B54799  31.016  26.500   6.168
 4306POPC   C2B54800  31.168  26.312   6.578
 4306POPC   C3B54801  30.985  26.417   6.992
 4306POPC   C4B54802  30.580  26.640   6.989
 4307POPC   NC354803  14.152  41.037   5.490
 4307POPC   PO454804  14.511  40.537   5.311
 4307POPC   GL154805  14.565  40.806   5.706
 4307POPC   GL254806  14.312  40.622   5.816
 4307POPC   C1A54807  14.412  41.000   6.145
 4307POPC   D2A54808  14.508  40.769   6.531
 4307POPC   C3A54809  14.426  40.790   6.967
 4307POPC   C4A54810  14.772  40.775   7.288
 4307POPC   C1B54811  14.518  40.412   6.152
 4307POPC   C2B54812  14.607  40.273   6.580
 4307POPC   C3B54813  14.669  40.358   6.989
 4307POPC   C4B54814  14.414  40.410   7.350
 4308POPC   NC354815   7.828  36.332   5.597
 4308POPC   PO454816   7.223  36.237   5.342
 4308POPC   GL154817   7.401  36.075   5.809
 4308POPC   GL254818   7.405  35.724   5.888
 4308POPC   C1A54819   7.454  36.013   6.285
 4308POPC   D2A54820   7.300  36.225   6.622
 4308POPC   C3A54821   7.522  36.310   6.991
 4308POPC   C4A54822   7.435  36.168   7.427
 4308POPC   C1B54823   7.183  35.585   6.215
 4308POPC   C2B54824   7.280  35.604   6.649
 4308POPC   C3B54825   7.242  35.885   6.994
 4308POPC   C4B54826   7.054  35.795   7.372
 4309POPC   NC354827  38.763  16.076   5.554
 4309POPC   PO454828  38.089  15.740   5.553
 4309POPC   GL154829  38.401  15.843   5.841
 4309POPC   GL254830  38.369  16.177   5.946
 4309POPC   C1A54831  38.601  15.819   6.250
 4309POPC   D2A54832  38.378  15.896   6.634
 4309POPC   C3A54833  38.597  15.828   7.038
 4309POPC   C4A54834  38.551  15.693   7.515
 4309POPC   C1B54835  38.603  16.349   6.290
 4309POPC   C2B54836  38.662  16.327   6.729
 4309POPC   C3B54837  38.308  16.255   7.001
 4309POPC   C4B54838  38.269  16.089   7.404
 4310POPC   NC354839  24.483  10.883   5.370
 4310POPC   PO454840  24.303  11.497   5.402
 4310POPC   GL154841  24.525  11.361   5.788
 4310POPC   GL254842  24.451  11.036   5.843
 4310POPC   C1A54843  24.500  11.423   6.271
 4310POPC   D2A54844  24.624  11.493   6.741
 4310POPC   C3A54845  24.402  11.515   7.187
 4310POPC   C4A54846  24.276  11.581   7.616
 4310POPC   C1B54847  24.709  10.932   6.181
 4310POPC   C2B54848  24.607  10.971   6.580
 4310POPC   C3B54849  24.492  11.069   6.982
 4310POPC   C4B54850  24.646  10.879   7.283
 4311POPC   NC354851  13.861  31.124   5.592
 4311POPC   PO454852  13.392  30.530   5.584
 4311POPC   GL154853  13.579  30.786   5.826
 4311POPC   GL254854  13.377  31.112   5.781
 4311POPC   C1A54855  13.756  30.733   6.211
 4311POPC   D2A54856  13.521  30.470   6.499
 4311POPC   C3A54857  13.584  30.604   6.914
 4311POPC   C4A54858  13.861  30.863   7.142
 4311POPC   C1B54859  13.284  30.984   6.201
 4311POPC   C2B54860  13.485  31.011   6.575
 4311POPC   C3B54861  13.259  31.018   6.913
 4311POPC   C4B54862  13.343  30.993   7.287
 4312POPC   NC354863  35.457   1.638   5.346
 4312POPC   PO454864  35.595   2.318   5.313
 4312POPC   GL154865  35.506   2.089   5.745
 4312POPC   GL254866  35.164   2.152   5.854
 4312POPC   C1A54867  35.489   2.124   6.244
 4312POPC   D2A54868  35.151   2.146   6.565
 4312POPC   C3A54869  35.295   2.087   7.005
 4312POPC   C4A54870  35.698   2.026   7.259
 4312POPC   C1B54871  35.224   1.727   6.058
 4312POPC   C2B54872  35.333   1.655   6.510
 4312POPC   C3B54873  35.577   1.667   6.915
 4312POPC   C4B54874  35.302   1.657   7.276
 4313POPC   NC354875   2.482  26.000   5.456
 4313POPC   PO454876   3.117  26.283   5.443
 4313POPC   GL154877   2.830  26.176   5.789
 4313POPC   GL254878   2.871  25.829   5.890
 4313POPC   C1A54879   2.696  26.381   6.167
 4313POPC   D2A54880   2.933  26.388   6.552
 4313POPC   C3A54881   2.758  26.293   6.964
 4313POPC   C4A54882   2.700  26.467   7.382
 4313POPC   C1B54883   2.979  25.963   6.278
 4313POPC   C2B54884   2.846  25.884   6.674
 4313POPC   C3B54885   3.061  25.719   7.011
 4313POPC   C4B54886   2.894  25.732   7.352
 4314POPC   NC354887  31.234  39.677   5.266
 4314POPC   PO454888  31.642  39.172   5.319
 4314POPC   GL154889  31.373  39.247   5.679
 4314POPC   GL254890  31.392  39.592   5.757
 4314POPC   C1A54891  31.521  39.166   6.138
 4314POPC   D2A54892  31.631  39.147   6.609
 4314POPC   C3A54893  31.364  38.944   6.947
 4314POPC   C4A54894  31.250  38.826   7.385
 4314POPC   C1B54895  31.548  39.681   6.169
 4314POPC   C2B54896  31.628  39.705   6.605
 4314POPC   C3B54897  31.426  39.492   6.941
 4314POPC   C4B54898  31.245  39.301   7.273
 4315POPC   NC354899  32.744  38.847   5.483
 4315POPC   PO454900  33.090  38.287   5.319
 4315POPC   GL154901  32.984  38.484   5.753
 4315POPC   GL254902  33.284  38.578   5.909
 4315POPC   C1A54903  32.864  38.648   6.190
 4315POPC   D2A54904  33.035  38.683   6.646
 4315POPC   C3A54905  32.912  38.422   6.993
 4315POPC   C4A54906  32.629  38.681   7.235
 4315POPC   C1B54907  33.404  38.515   6.353
 4315POPC   C2B54908  33.412  38.376   6.809
 4315POPC   C3B54909  33.479  38.381   7.248
 4315POPC   C4B54910  33.440  38.155   7.645
 4316POPC   NC354911  24.161  43.468   5.273
 4316POPC   PO454912  23.631  43.084   5.325
 4316POPC   GL154913  23.628  43.345   5.738
 4316POPC   GL254914  23.310  43.501   5.881
 4316POPC   C1A54915  23.763  43.262   6.164
 4316POPC   D2A54916  23.655  42.940   6.457
 4316POPC   C3A54917  23.744  43.148   6.826
 4316POPC   C4A54918  23.723  43.144   7.251
 4316POPC   C1B54919  23.255  43.111   6.123
 4316POPC   C2B54920  23.139  42.892   6.522
 4316POPC   C3B54921  23.352  42.803   6.913
 4316POPC   C4B54922  23.281  42.888   7.337
 4317POPC   NC354923  17.687  27.902   5.547
 4317POPC   PO454924  17.218  28.284   5.192
 4317POPC   GL154925  17.308  28.277   5.658
 4317POPC   GL254926  17.317  27.972   5.896
 4317POPC   C1A54927  17.327  28.443   6.089
 4317POPC   D2A54928  17.243  28.215   6.482
 4317POPC   C3A54929  17.413  28.368   6.878
 4317POPC   C4A54930  17.280  28.536   7.255
 4317POPC   C1B54931  17.648  28.006   6.197
 4317POPC   C2B54932  17.779  28.199   6.561
 4317POPC   C3B54933  17.816  28.043   6.976
 4317POPC   C4B54934  17.664  28.195   7.331
 4318POPC   NC354935  15.433  28.620   5.188
 4318POPC   PO454936  15.448  28.042   5.629
 4318POPC   GL154937  15.119  28.203   5.914
 4318POPC   GL254938  15.222  28.555   5.840
 4318POPC   C1A54939  14.889  28.077   6.297
 4318POPC   D2A54940  15.054  28.290   6.677
 4318POPC   C3A54941  15.291  28.143   7.038
 4318POPC   C4A54942  15.155  28.369   7.386
 4318POPC   C1B54943  15.375  28.450   6.279
 4318POPC   C2B54944  15.546  28.467   6.701
 4318POPC   C3B54945  15.504  28.663   7.100
 4318POPC   C4B54946  15.459  28.708   7.567
 4319POPC   NC354947  43.697  30.302   5.555
 4319POPC   PO454948  43.847  29.690   5.280
 4319POPC   GL154949  43.803  29.787   5.751
 4319POPC   GL254950  43.511  29.992   5.908
 4319POPC   C1A54951  43.979  30.042   6.140
 4319POPC   D2A54952  43.963  30.264   6.572
 4319POPC   C3A54953  43.930  30.019   6.986
 4319POPC   C4A54954  44.061  29.646   7.282
 4319POPC   C1B54955  43.517  30.240   6.320
 4319POPC   C2B54956  43.342  30.215   6.758
 4319POPC   C3B54957  43.474  30.146   7.183
 4319POPC   C4B54958  43.768  30.026   7.477
 4320POPC   NC354959  15.517  17.611   5.220
 4320POPC   PO454960  14.927  17.439   5.262
 4320POPC   GL154961  15.035  17.530   5.729
 4320POPC   GL254962  14.879  17.845   5.876
 4320POPC   C1A54963  15.185  17.412   6.190
 4320POPC   D2A54964  15.150  17.537   6.666
 4320POPC   C3A54965  15.322  17.370   7.097
 4320POPC   C4A54966  15.461  17.367   7.561
 4320POPC   C1B54967  14.799  17.775   6.339
 4320POPC   C2B54968  14.763  17.862   6.797
 4320POPC   C3B54969  14.860  17.616   7.135
 4320POPC   C4B54970  14.944  17.374   7.505
 4321POPC   NC354971  22.714  23.225   5.366
 4321POPC   PO454972  23.175  22.772   5.237
 4321POPC   GL154973  22.957  22.830   5.625
 4321POPC   GL254974  23.060  23.142   5.775
 4321POPC   C1A54975  22.822  22.633   6.012
 4321POPC   D2A54976  22.889  22.641   6.467
 4321POPC   C3A54977  22.767  22.708   6.891
 4321POPC   C4A54978  22.718  22.721   7.318
 4321POPC   C1B54979  22.758  23.132   6.137
 4321POPC   C2B54980  22.697  23.114   6.598
 4321POPC   C3B54981  22.946  23.222   6.977
 4321POPC   C4B54982  22.778  23.567   7.226
 4322POPC   NC354983  29.738  19.270   5.456
 4322POPC   PO454984  30.173  18.735   5.382
 4322POPC   GL154985  30.044  19.000   5.758
 4322POPC   GL254986  29.704  18.840   5.766
 4322POPC   C1A54987  30.099  19.216   6.184
 4322POPC   D2A54988  30.227  19.413   6.607
 4322POPC   C3A54989  30.009  19.258   6.960
 4322POPC   C4A54990  30.084  18.840   7.103
 4322POPC   C1B54991  29.621  19.140   6.093
 4322POPC   C2B54992  29.522  19.071   6.503
 4322POPC   C3B54993  29.630  18.914   6.886
 4322POPC   C4B54994  29.602  19.130   7.260
 4323POPC   NC354995  32.011   6.052   5.386
 4323POPC   PO454996  32.346   5.434   5.314
 4323POPC   GL154997  32.360   5.652   5.734
 4323POPC   GL254998  32.096   5.888   5.874
 4323POPC   C1A54999  32.509   5.781   6.149
 4323POPC   D2A55000  32.270   5.777   6.487
 4323POPC   C3A55001  32.558   5.736   6.805
 4323POPC   C4A55002  32.407   5.845   7.181
 4323POPC   C1B55003  32.267   6.248   6.164
 4323POPC   C2B55004  32.460   6.272   6.577
 4323POPC   C3B55005  32.153   6.133   6.850
 4323POPC   C4B55006  32.018   6.298   7.209
 4324POPC   NC355007  24.048  35.077   5.292
 4324POPC   PO455008  23.633  35.550   5.563
 4324POPC   GL155009  23.662  35.261   5.882
 4324POPC   GL255010  23.938  35.058   5.815
 4324POPC   C1A55011  23.732  35.313   6.321
 4324POPC   D2A55012  23.753  35.042   6.707
 4324POPC   C3A55013  23.671  35.298   7.087
 4324POPC   C4A55014  23.398  35.330   7.466
 4324POPC   C1B55015  23.972  34.860   6.220
 4324POPC   C2B55016  24.203  34.800   6.618
 4324POPC   C3B55017  24.162  35.061   7.001
 4324POPC   C4B55018  24.154  35.522   7.073
 4325POPC   NC355019  24.759  27.766   5.528
 4325POPC   PO455020  24.195  27.490   5.325
 4325POPC   GL155021  24.340  27.462   5.737
 4325POPC   GL255022  24.232  27.808   5.812
 4325POPC   C1A55023  24.540  27.534   6.152
 4325POPC   D2A55024  24.547  27.705   6.599
 4325POPC   C3A55025  24.698  27.395   6.890
 4325POPC   C4A55026  24.571  27.213   7.292
 4325POPC   C1B55027  24.309  27.979   6.228
 4325POPC   C2B55028  24.294  28.209   6.585
 4325POPC   C3B55029  24.343  28.054   6.972
 4325POPC   C4B55030  24.553  27.745   7.206
 4326POPC   NC355031  37.914  18.946   5.502
 4326POPC   PO455032  37.277  19.222   5.474
 4326POPC   GL155033  37.519  19.072   5.870
 4326POPC   GL255034  37.875  19.154   5.945
 4326POPC   C1A55035  37.579  19.239   6.323
 4326POPC   D2A55036  37.858  19.213   6.714
 4326POPC   C3A55037  37.572  19.101   7.003
 4326POPC   C4A55038  37.456  18.879   7.344
 4326POPC   C1B55039  38.046  18.922   6.312
 4326POPC   C2B55040  38.079  18.653   6.670
 4326POPC   C3B55041  37.982  18.794   7.085
 4326POPC   C4B55042  38.001  19.253   7.254
 4327POPC   NC355043  22.078  27.531   5.158
 4327POPC   PO455044  22.172  26.920   5.311
 4327POPC   GL155045  22.172  26.876   5.728
 4327POPC   GL255046  22.336  27.174   5.832
 4327POPC   C1A55047  22.139  26.763   6.172
 4327POPC   D2A55048  22.171  26.562   6.586
 4327POPC   C3A55049  22.068  26.735   7.000
 4327POPC   C4A55050  22.072  26.502   7.404
 4327POPC   C1B55051  22.549  27.131   6.246
 4327POPC   C2B55052  22.654  27.238   6.687
 4327POPC   C3B55053  22.540  26.915   6.987
 4327POPC   C4B55054  22.349  26.926   7.387
 4328POPC   NC355055  13.880  30.408   5.549
 4328POPC   PO455056  13.680  29.728   5.471
 4328POPC   GL155057  13.515  29.852   5.914
 4328POPC   GL255058  13.603  30.212   5.929
 4328POPC   C1A55059  13.544  29.877   6.374
 4328POPC   D2A55060  13.729  29.650   6.699
 4328POPC   C3A55061  13.649  29.744   7.123
 4328POPC   C4A55062  13.595  29.765   7.585
 4328POPC   C1B55063  13.918  30.227   6.257
 4328POPC   C2B55064  13.870  30.161   6.713
 4328POPC   C3B55065  13.841  30.234   7.180
 4328POPC   C4B55066  13.992  30.292   7.635
 4329POPC   NC355067  25.333   0.071   5.433
 4329POPC   PO455068  24.896  44.512   5.324
 4329POPC   GL155069  25.138  44.637   5.737
 4329POPC   GL255070  25.144  44.989   5.890
 4329POPC   C1A55071  25.209  44.566   6.188
 4329POPC   D2A55072  25.305  44.782   6.587
 4329POPC   C3A55073  25.214  44.634   7.044
 4329POPC   C4A55074  25.120  44.321   7.410
 4329POPC   C1B55075  25.523   0.066   6.132
 4329POPC   C2B55076  25.752   0.003   6.505
 4329POPC   C3B55077  25.660  44.973   6.893
 4329POPC   C4B55078  25.472   0.073   7.196
 4330POPC   NC355079  41.636  42.680   5.353
 4330POPC   PO455080  41.374  43.279   5.418
 4330POPC   GL155081  41.681  43.333   5.739
 4330POPC   GL255082  41.757  43.013   5.861
 4330POPC   C1A55083  41.685  43.402   6.182
 4330POPC   D2A55084  41.821  43.213   6.541
 4330POPC   C3A55085  41.834  43.445   6.900
 4330POPC   C4A55086  41.584  43.190   7.134
 4330POPC   C1B55087  41.543  42.893   6.238
 4330POPC   C2B55088  41.394  42.934   6.638
 4330POPC   C3B55089  41.459  42.718   7.004
 4330POPC   C4B55090  41.767  42.668   7.308
 4331POPC   NC355091   0.676  31.823   5.549
 4331POPC   PO455092   0.193  31.328   5.423
 4331POPC   GL155093   0.344  31.284   5.843
 4331POPC   GL255094   0.702  31.380   5.841
 4331POPC   C1A55095   0.370  31.257   6.307
 4331POPC   D2A55096   0.442  31.254   6.772
 4331POPC   C3A55097   0.283  31.287   7.216
 4331POPC   C4A55098   0.317  31.683   7.404
 4331POPC   C1B55099   0.565  31.702   6.171
 4331POPC   C2B55100   0.460  31.776   6.604
 4331POPC   C3B55101   0.631  31.688   7.002
 4331POPC   C4B55102   0.788  31.321   7.225
 4332POPC   NC355103  40.924   1.256   5.315
 4332POPC   PO455104  40.236   1.206   5.355
 4332POPC   GL155105  40.591   1.234   5.713
 4332POPC   GL255106  40.916   1.418   5.788
 4332POPC   C1A55107  40.757   1.035   6.119
 4332POPC   D2A55108  40.892   1.131   6.554
 4332POPC   C3A55109  40.674   1.058   6.915
 4332POPC   C4A55110  40.976   1.079   7.225
 4332POPC   C1B55111  40.678   1.551   6.141
 4332POPC   C2B55112  40.866   1.641   6.528
 4332POPC   C3B55113  40.966   1.532   6.951
 4332POPC   C4B55114  40.777   1.767   7.292
 4333POPC   NC355115  23.702   5.649   5.377
 4333POPC   PO455116  23.909   6.290   5.501
 4333POPC   GL155117  23.736   5.961   5.808
 4333POPC   GL255118  23.906   5.646   5.840
 4333POPC   C1A55119  23.525   5.828   6.253
 4333POPC   D2A55120  23.439   5.965   6.701
 4333POPC   C3A55121  23.606   5.793   7.122
 4333POPC   C4A55122  23.508   5.985   7.529
 4333POPC   C1B55123  24.025   5.688   6.242
 4333POPC   C2B55124  23.871   5.697   6.636
 4333POPC   C3B55125  24.093   5.805   6.991
 4333POPC   C4B55126  24.089   5.605   7.359
 4334POPC   NC355127  12.699   9.013   5.364
 4334POPC   PO455128  13.297   8.826   5.649
 4334POPC   GL155129  12.914   8.739   5.785
 4334POPC   GL255130  12.888   9.086   5.851
 4334POPC   C1A55131  12.923   8.742   6.220
 4334POPC   D2A55132  12.964   8.988   6.570
 4334POPC   C3A55133  12.829   8.884   7.015
 4334POPC   C4A55134  13.021   9.023   7.432
 4334POPC   C1B55135  12.666   9.256   6.201
 4334POPC   C2B55136  12.520   9.232   6.628
 4334POPC   C3B55137  12.497   9.461   6.985
 4334POPC   C4B55138  12.741   9.434   7.313
 4335POPC   NC355139   9.417  30.966   5.595
 4335POPC   PO455140   9.943  30.467   5.423
 4335POPC   GL155141   9.815  30.615   5.800
 4335POPC   GL255142   9.932  30.938   5.730
 4335POPC   C1A55143   9.529  30.653   6.158
 4335POPC   D2A55144   9.356  30.781   6.547
 4335POPC   C3A55145   9.612  30.785   6.881
 4335POPC   C4A55146   9.451  30.811   7.264
 4335POPC   C1B55147   9.883  31.008   6.143
 4335POPC   C2B55148   9.980  30.794   6.496
 4335POPC   C3B55149  10.122  30.859   6.902
 4335POPC   C4B55150   9.963  30.705   7.292
 4336POPC   NC355151  22.570  10.745   5.574
 4336POPC   PO455152  23.104  10.308   5.378
 4336POPC   GL155153  22.904  10.410   5.786
 4336POPC   GL255154  22.985  10.770   5.861
 4336POPC   C1A55155  22.970  10.423   6.238
 4336POPC   D2A55156  22.866  10.302   6.644
 4336POPC   C3A55157  23.245  10.367   6.856
 4336POPC   C4A55158  23.326  10.419   7.270
 4336POPC   C1B55159  22.685  10.864   6.206
 4336POPC   C2B55160  22.655  10.958   6.635
 4336POPC   C3B55161  22.878  10.734   6.927
 4336POPC   C4B55162  23.029  10.848   7.285
 4337POPC   NC355163  34.184   1.026   5.600
 4337POPC   PO455164  33.635   1.152   5.213
 4337POPC   GL155165  33.681   1.133   5.698
 4337POPC   GL255166  33.927   1.331   5.920
 4337POPC   C1A55167  33.513   1.085   6.138
 4337POPC   D2A55168  33.320   1.006   6.565
 4337POPC   C3A55169  33.578   1.162   6.924
 4337POPC   C4A55170  33.614   1.524   7.201
 4337POPC   C1B55171  34.014   0.996   6.263
 4337POPC   C2B55172  34.044   1.007   6.725
 4337POPC   C3B55173  34.113   1.273   7.085
 4337POPC   C4B55174  34.090   1.700   7.219
 4338POPC   NC355175  44.036  35.674   5.412
 4338POPC   PO455176  43.801  36.349   5.381
 4338POPC   GL155177  43.959  36.326   5.799
 4338POPC   GL255178  44.113  35.993   5.818
 4338POPC   C1A55179  43.809  36.236   6.216
 4338POPC   D2A55180  43.915  36.052   6.618
 4338POPC   C3A55181  43.884  36.344   6.976
 4338POPC   C4A55182  43.564  36.591   7.156
 4338POPC   C1B55183  44.036  35.717   6.174
 4338POPC   C2B55184  44.219  35.608   6.565
 4338POPC   C3B55185  44.058  35.703   6.967
 4338POPC   C4B55186  43.838  35.929   7.267
 4339POPC   NC355187  24.392  26.053   5.457
 4339POPC   PO455188  24.838  25.764   5.071
 4339POPC   GL155189  24.862  26.008   5.612
 4339POPC   GL255190  24.741  25.796   5.825
 4339POPC   C1A55191  24.777  26.145   6.160
 4339POPC   D2A55192  24.645  25.931   6.614
 4339POPC   C3A55193  24.520  26.105   7.004
 4339POPC   C4A55194  24.145  26.425   7.045
 4339POPC   C1B55195  24.630  25.628   6.207
 4339POPC   C2B55196  24.253  25.628   6.487
 4339POPC   C3B55197  24.151  25.753   6.919
 4339POPC   C4B55198  24.322  25.753   7.357
 4340POPC   NC355199   3.156  35.644   5.412
 4340POPC   PO455200   3.721  35.270   5.453
 4340POPC   GL155201   3.417  35.307   5.735
 4340POPC   GL255202   3.521  35.616   5.806
 4340POPC   C1A55203   3.433  35.278   6.176
 4340POPC   D2A55204   3.410  35.064   6.523
 4340POPC   C3A55205   3.414  35.290   6.876
 4340POPC   C4A55206   3.174  35.186   7.193
 4340POPC   C1B55207   3.747  35.709   6.184
 4340POPC   C2B55208   3.766  35.908   6.587
 4340POPC   C3B55209   3.700  35.700   6.961
 4340POPC   C4B55210   3.677  35.466   7.329
 4341POPC   NC355211  33.072  35.007   5.332
 4341POPC   PO455212  32.897  34.387   5.383
 4341POPC   GL155213  33.015  34.511   5.771
 4341POPC   GL255214  32.816  34.801   5.774
 4341POPC   C1A55215  32.884  34.490   6.215
 4341POPC   D2A55216  32.874  34.604   6.653
 4341POPC   C3A55217  33.041  34.319   6.986
 4341POPC   C4A55218  33.039  34.065   7.363
 4341POPC   C1B55219  33.154  34.909   6.078
 4341POPC   C2B55220  33.261  34.918   6.519
 4341POPC   C3B55221  33.278  34.809   6.946
 4341POPC   C4B55222  32.890  34.801   7.118
 4342POPC   NC355223  20.492  32.128   5.507
 4342POPC   PO455224  20.915  32.529   5.641
 4342POPC   GL155225  20.762  32.319   5.971
 4342POPC   GL255226  20.758  31.969   5.949
 4342POPC   C1A55227  20.845  32.310   6.406
 4342POPC   D2A55228  20.966  32.524   6.783
 4342POPC   C3A55229  20.719  32.300   7.040
 4342POPC   C4A55230  20.498  32.275   7.393
 4342POPC   C1B55231  20.424  32.028   6.255
 4342POPC   C2B55232  20.454  32.029   6.694
 4342POPC   C3B55233  20.242  31.951   7.079
 4342POPC   C4B55234  20.337  31.799   7.497
 4343POPC   NC355235  33.160  11.755   5.242
 4343POPC   PO455236  33.056  12.333   5.254
 4343POPC   GL155237  33.077  12.319   5.754
 4343POPC   GL255238  32.834  12.105   5.963
 4343POPC   C1A55239  33.295  12.154   6.175
 4343POPC   D2A55240  33.098  12.101   6.589
 4343POPC   C3A55241  33.165  11.840   6.909
 4343POPC   C4A55242  33.222  12.019   7.291
 4343POPC   C1B55243  32.776  12.393   6.318
 4343POPC   C2B55244  32.592  12.272   6.694
 4343POPC   C3B55245  32.791  12.158   7.029
 4343POPC   C4B55246  32.701  12.009   7.435
 4344POPC   NC355247  14.920  33.216   5.338
 4344POPC   PO455248  15.172  32.702   5.522
 4344POPC   GL155249  15.265  32.890   5.881
 4344POPC   GL255250  15.217  33.252   5.796
 4344POPC   C1A55251  15.190  32.854   6.316
 4344POPC   D2A55252  14.986  32.879   6.703
 4344POPC   C3A55253  15.301  32.888   7.009
 4344POPC   C4A55254  15.308  32.795   7.436
 4344POPC   C1B55255  15.529  33.233   6.150
 4344POPC   C2B55256  15.636  33.021   6.513
 4344POPC   C3B55257  15.793  33.047   6.919
 4344POPC   C4B55258  15.637  33.183   7.291
 4345POPC   NC355259   4.418  17.826   5.518
 4345POPC   PO455260   4.536  17.220   5.422
 4345POPC   GL155261   4.459  17.390   5.839
 4345POPC   GL255262   4.665  17.642   5.940
 4345POPC   C1A55263   4.209  17.470   6.211
 4345POPC   D2A55264   4.061  17.222   6.578
 4345POPC   C3A55265   3.972  17.372   7.002
 4345POPC   C4A55266   4.148  17.369   7.432
 4345POPC   C1B55267   4.734  17.381   6.305
 4345POPC   C2B55268   4.555  17.360   6.719
 4345POPC   C3B55269   4.571  17.519   7.148
 4345POPC   C4B55270   4.433  17.826   7.464
 4346POPC   NC355271  40.154  32.403   5.152
 4346POPC   PO455272  40.760  32.306   5.436
 4346POPC   GL155273  40.963  32.268   5.788
 4346POPC   GL255274  40.790  31.998   5.909
 4346POPC   C1A55275  40.910  32.427   6.202
 4346POPC   D2A55276  41.037  32.604   6.597
 4346POPC   C3A55277  40.820  32.399   6.922
 4346POPC   C4A55278  40.798  32.104   7.203
 4346POPC   C1B55279  40.645  31.984   6.310
 4346POPC   C2B55280  40.656  31.891   6.749
 4346POPC   C3B55281  40.493  31.716   7.161
 4346POPC   C4B55282  40.479  31.906   7.599
 4347POPC   NC355283   4.051  37.350   5.421
 4347POPC   PO455284   4.636  37.579   5.545
 4347POPC   GL155285   4.322  37.618   5.843
 4347POPC   GL255286   4.070  37.867   5.744
 4347POPC   C1A55287   4.475  37.631   6.292
 4347POPC   D2A55288   4.697  37.942   6.559
 4347POPC   C3A55289   4.626  37.848   6.984
 4347POPC   C4A55290   4.396  37.583   7.239
 4347POPC   C1B55291   4.105  38.001   6.218
 4347POPC   C2B55292   4.181  37.901   6.676
 4347POPC   C3B55293   3.977  37.611   6.934
 4347POPC   C4B55294   4.029  37.229   7.147
 4348POPC   NC355295  25.321  23.344   5.338
 4348POPC   PO455296  25.026  23.962   5.417
 4348POPC   GL155297  25.293  23.885   5.807
 4348POPC   GL255298  25.442  23.538   5.809
 4348POPC   C1A55299  25.237  24.013   6.248
 4348POPC   D2A55300  25.068  23.803   6.643
 4348POPC   C3A55301  25.239  23.974   7.056
 4348POPC   C4A55302  25.561  23.771   7.333
 4348POPC   C1B55303  25.248  23.489   6.218
 4348POPC   C2B55304  25.364  23.276   6.600
 4348POPC   C3B55305  25.381  23.504   6.941
 4348POPC   C4B55306  24.968  23.535   7.156
 4349POPC   NC355307  37.277  17.931   5.483
 4349POPC   PO455308  37.190  17.290   5.431
 4349POPC   GL155309  36.890  17.336   5.781
 4349POPC   GL255310  37.088  17.628   5.851
 4349POPC   C1A55311  36.748  17.529   6.204
 4349POPC   D2A55312  36.960  17.617   6.588
 4349POPC   C3A55313  36.760  17.586   6.971
 4349POPC   C4A55314  36.714  17.503   7.396
 4349POPC   C1B55315  37.420  17.710   6.140
 4349POPC   C2B55316  37.452  17.488   6.515
 4349POPC   C3B55317  37.396  17.676   6.887
 4349POPC   C4B55318  37.177  17.669   7.273
 4350POPC   NC355319  36.411  12.716   5.131
 4350POPC   PO455320  36.971  12.724   5.462
 4350POPC   GL155321  37.168  12.745   5.870
 4350POPC   GL255322  36.818  12.762   6.019
 4350POPC   C1A55323  37.220  12.835   6.316
 4350POPC   D2A55324  36.881  12.998   6.584
 4350POPC   C3A55325  36.868  12.920   7.027
 4350POPC   C4A55326  36.721  12.739   7.400
 4350POPC   C1B55327  36.599  13.159   6.079
 4350POPC   C2B55328  36.573  13.442   6.445
 4350POPC   C3B55329  36.591  13.325   6.869
 4350POPC   C4B55330  36.438  13.208   7.257
 4351POPC   NC355331  26.659  10.621   5.491
 4351POPC   PO455332  26.761  10.002   5.483
 4351POPC   GL155333  26.675  10.291   5.873
 4351POPC   GL255334  26.947  10.592   5.901
 4351POPC   C1A55335  26.593  10.536   6.266
 4351POPC   D2A55336  26.770  10.667   6.676
 4351POPC   C3A55337  26.648  10.431   7.049
 4351POPC   C4A55338  26.830  10.037   7.196
 4351POPC   C1B55339  27.172  10.656   6.299
 4351POPC   C2B55340  27.289  10.703   6.722
 4351POPC   C3B55341  27.052  10.762   7.089
 4351POPC   C4B55342  27.110  10.822   7.511
 4352POPC   NC355343   2.996  31.142   5.394
 4352POPC   PO455344   2.598  30.617   5.148
 4352POPC   GL155345   2.781  30.535   5.588
 4352POPC   GL255346   2.908  30.838   5.780
 4352POPC   C1A55347   2.859  30.431   6.066
 4352POPC   D2A55348   3.071  30.630   6.454
 4352POPC   C3A55349   3.110  30.409   6.855
 4352POPC   C4A55350   2.808  30.477   7.201
 4352POPC   C1B55351   2.680  30.996   6.140
 4352POPC   C2B55352   2.809  31.114   6.544
 4352POPC   C3B55353   2.809  30.895   6.921
 4352POPC   C4B55354   2.515  30.902   7.268
 4353POPC   NC355355  24.557  25.358   5.357
 4353POPC   PO455356  24.030  25.797   5.583
 4353POPC   GL155357  24.336  25.509   5.804
 4353POPC   GL255358  24.678  25.263   5.842
 4353POPC   C1A55359  24.276  25.244   6.148
 4353POPC   D2A55360  24.298  24.984   6.512
 4353POPC   C3A55361  24.342  25.266   6.832
 4353POPC   C4A55362  24.270  25.277   7.219
 4353POPC   C1B55363  24.760  25.129   6.288
 4353POPC   C2B55364  24.795  25.424   6.644
 4353POPC   C3B55365  24.703  25.599   7.065
 4353POPC   C4B55366  24.659  25.401   7.504
 4354POPC   NC355367  29.713  13.744   5.153
 4354POPC   PO455368  29.097  13.695   5.313
 4354POPC   GL155369  29.143  13.652   5.750
 4354POPC   GL255370  29.209  13.308   5.860
 4354POPC   C1A55371  29.201  13.868   6.157
 4354POPC   D2A55372  29.457  13.764   6.518
 4354POPC   C3A55373  29.311  13.761   6.938
 4354POPC   C4A55374  29.316  13.515   7.334
 4354POPC   C1B55375  29.080  13.381   6.260
 4354POPC   C2B55376  28.974  13.479   6.673
 4354POPC   C3B55377  28.838  13.614   7.078
 4354POPC   C4B55378  28.854  13.543   7.574
 4355POPC   NC355379  35.427  10.203   5.698
 4355POPC   PO455380  35.356   9.808   5.158
 4355POPC   GL155381  35.376   9.700   5.634
 4355POPC   GL255382  35.043   9.643   5.776
 4355POPC   C1A55383  35.535   9.690   6.109
 4355POPC   D2A55384  35.340   9.570   6.523
 4355POPC   C3A55385  35.520   9.438   6.883
 4355POPC   C4A55386  35.335   9.517   7.231
 4355POPC   C1B55387  35.049   9.852   6.199
 4355POPC   C2B55388  35.347  10.076   6.492
 4355POPC   C3B55389  35.474   9.952   6.916
 4355POPC   C4B55390  35.342  10.039   7.334
 4356POPC   NC355391  30.679  16.803   5.302
 4356POPC   PO455392  30.705  17.466   5.326
 4356POPC   GL155393  30.518  17.453   5.744
 4356POPC   GL255394  30.396  17.115   5.728
 4356POPC   C1A55395  30.687  17.594   6.147
 4356POPC   D2A55396  30.653  17.758   6.561
 4356POPC   C3A55397  30.944  17.628   6.884
 4356POPC   C4A55398  30.919  17.623   7.324
 4356POPC   C1B55399  30.333  17.188   6.169
 4356POPC   C2B55400  30.604  17.209   6.556
 4356POPC   C3B55401  30.417  17.099   6.948
 4356POPC   C4B55402  30.298  17.330   7.281
 4357POPC   NC355403  30.959   0.515   5.539
 4357POPC   PO455404  30.493   0.059   5.445
 4357POPC   GL155405  30.499   0.198   5.856
 4357POPC   GL255406  30.550   0.562   5.889
 4357POPC   C1A55407  30.700   0.244   6.254
 4357POPC   D2A55408  30.526   0.502   6.570
 4357POPC   C3A55409  30.746   0.391   6.956
 4357POPC   C4A55410  30.666   0.137   7.297
 4357POPC   C1B55411  30.799   0.800   6.195
 4357POPC   C2B55412  30.729   0.980   6.627
 4357POPC   C3B55413  30.461   0.823   6.975
 4357POPC   C4B55414  30.475   0.665   7.416
 4358POPC   NC355415  39.982  44.865   5.404
 4358POPC   PO455416  39.881  44.125   5.423
 4358POPC   GL155417  39.825  44.469   5.747
 4358POPC   GL255418  40.146  44.637   5.836
 4358POPC   C1A55419  39.839  44.480   6.208
 4358POPC   D2A55420  40.096  44.676   6.541
 4358POPC   C3A55421  39.904  44.537   6.938
 4358POPC   C4A55422  39.900  44.487   7.378
 4358POPC   C1B55423  39.956  44.980   6.114
 4358POPC   C2B55424  39.998   0.202   6.527
 4358POPC   C3B55425  39.917   0.061   6.948
 4358POPC   C4B55426  39.571  44.888   7.196
 4359POPC   NC355427  13.992  17.795   5.575
 4359POPC   PO455428  13.405  17.575   5.301
 4359POPC   GL155429  13.561  17.433   5.744
 4359POPC   GL255430  13.409  17.106   5.824
 4359POPC   C1A55431  13.749  17.539   6.177
 4359POPC   D2A55432  13.933  17.553   6.611
 4359POPC   C3A55433  13.633  17.646   6.913
 4359POPC   C4A55434  13.439  17.906   7.211
 4359POPC   C1B55435  13.674  17.048   6.189
 4359POPC   C2B55436  13.554  17.182   6.609
 4359POPC   C3B55437  13.691  17.163   7.034
 4359POPC   C4B55438  13.471  17.425   7.353
 4360POPC   NC355439  30.978   4.751   5.424
 4360POPC   PO455440  30.834   5.510   5.368
 4360POPC   GL155441  30.581   5.366   5.725
 4360POPC   GL255442  30.671   5.013   5.774
 4360POPC   C1A55443  30.717   5.320   6.173
 4360POPC   D2A55444  30.905   5.036   6.484
 4360POPC   C3A55445  30.824   5.199   6.888
 4360POPC   C4A55446  30.870   4.995   7.291
 4360POPC   C1B55447  30.527   4.838   6.181
 4360POPC   C2B55448  30.406   5.017   6.588
 4360POPC   C3B55449  30.466   4.857   6.999
 4360POPC   C4B55450  30.271   4.596   7.267
 4361POPC   NC355451  29.999  26.247   5.328
 4361POPC   PO455452  29.579  25.679   5.369
 4361POPC   GL155453  29.772  26.009   5.715
 4361POPC   GL255454  29.744  26.431   5.740
 4361POPC   C1A55455  30.093  26.027   6.059
 4361POPC   D2A55456  30.024  26.041   6.509
 4361POPC   C3A55457  30.293  26.014   6.864
 4361POPC   C4A55458  30.113  25.851   7.243
 4361POPC   C1B55459  29.708  26.363   6.182
 4361POPC   C2B55460  29.543  26.200   6.563
 4361POPC   C3B55461  29.803  26.250   6.934
 4361POPC   C4B55462  29.691  26.135   7.331
 4362POPC   NC355463  35.405  40.344   5.526
 4362POPC   PO455464  35.048  40.860   5.330
 4362POPC   GL155465  35.251  40.855   5.733
 4362POPC   GL255466  35.609  40.750   5.797
 4362POPC   C1A55467  35.263  41.069   6.131
 4362POPC   D2A55468  35.090  40.978   6.543
 4362POPC   C3A55469  35.330  41.060   6.936
 4362POPC   C4A55470  35.532  41.000   7.341
 4362POPC   C1B55471  35.486  40.620   6.242
 4362POPC   C2B55472  35.368  40.580   6.702
 4362POPC   C3B55473  35.430  40.537   7.141
 4362POPC   C4B55474  35.628  40.187   7.363
 4363POPC   NC355475  31.505  42.089   5.485
 4363POPC   PO455476  31.455  42.753   5.345
 4363POPC   GL155477  31.619  42.515   5.745
 4363POPC   GL255478  31.426  42.276   5.958
 4363POPC   C1A55479  31.718  42.622   6.197
 4363POPC   D2A55480  31.418  42.526   6.537
 4363POPC   C3A55481  31.562  42.611   6.976
 4363POPC   C4A55482  31.677  42.449   7.382
 4363POPC   C1B55483  31.668  42.116   6.329
 4363POPC   C2B55484  31.621  42.125   6.798
 4363POPC   C3B55485  31.339  42.089   7.139
 4363POPC   C4B55486  31.369  42.111   7.590
 4364POPC   NC355487  21.982   6.519   5.332
 4364POPC   PO455488  22.563   6.801   5.286
 4364POPC   GL155489  22.364   6.628   5.683
 4364POPC   GL255490  22.000   6.664   5.811
 4364POPC   C1A55491  22.382   6.617   6.153
 4364POPC   D2A55492  22.186   6.676   6.570
 4364POPC   C3A55493  22.327   6.528   6.976
 4364POPC   C4A55494  21.945   6.598   7.213
 4364POPC   C1B55495  21.850   6.274   6.009
 4364POPC   C2B55496  22.001   6.163   6.404
 4364POPC   C3B55497  21.889   6.271   6.828
 4364POPC   C4B55498  21.961   5.984   7.164
 4365POPC   NC355499  30.741  24.715   5.271
 4365POPC   PO455500  30.566  24.106   5.464
 4365POPC   GL155501  30.739  24.394   5.750
 4365POPC   GL255502  30.580  24.711   5.753
 4365POPC   C1A55503  30.817  24.300   6.202
 4365POPC   D2A55504  31.127  24.215   6.547
 4365POPC   C3A55505  30.942  24.225   6.970
 4365POPC   C4A55506  30.887  24.624   7.181
 4365POPC   C1B55507  30.406  24.614   6.169
 4365POPC   C2B55508  30.448  24.373   6.573
 4365POPC   C3B55509  30.412  24.545   6.993
 4365POPC   C4B55510  30.470  24.388   7.390
 4366POPC   NC355511  42.444   0.969   5.358
 4366POPC   PO455512  42.272   1.587   5.301
 4366POPC   GL155513  42.448   1.351   5.688
 4366POPC   GL255514  42.212   1.064   5.804
 4366POPC   C1A55515  42.592   1.254   6.124
 4366POPC   D2A55516  42.387   1.332   6.539
 4366POPC   C3A55517  42.592   1.250   6.915
 4366POPC   C4A55518  42.430   1.362   7.322
 4366POPC   C1B55519  42.085   1.008   6.246
 4366POPC   C2B55520  42.044   0.808   6.676
 4366POPC   C3B55521  42.189   0.994   7.078
 4366POPC   C4B55522  42.243   0.947   7.581
 4367POPC   NC355523   7.073  36.716   5.289
 4367POPC   PO455524   7.728  36.794   5.487
 4367POPC   GL155525   7.463  36.816   5.809
 4367POPC   GL255526   7.294  36.551   5.744
 4367POPC   C1A55527   7.303  37.019   6.155
 4367POPC   D2A55528   7.345  37.211   6.534
 4367POPC   C3A55529   7.043  37.152   6.880
 4367POPC   C4A55530   7.139  37.018   7.293
 4367POPC   C1B55531   7.249  36.504   6.185
 4367POPC   C2B55532   7.168  36.723   6.581
 4367POPC   C3B55533   7.459  36.851   6.914
 4367POPC   C4B55534   7.568  36.697   7.315
 4368POPC   NC355535   9.179  18.256   5.320
 4368POPC   PO455536   8.513  17.940   5.311
 4368POPC   GL155537   8.820  17.973   5.715
 4368POPC   GL255538   9.009  18.272   5.786
 4368POPC   C1A55539   9.036  17.966   6.162
 4368POPC   D2A55540   8.986  18.327   6.447
 4368POPC   C3A55541   8.943  18.294   6.860
 4368POPC   C4A55542   8.680  18.428   7.189
 4368POPC   C1B55543   9.309  18.459   6.092
 4368POPC   C2B55544   9.457  18.539   6.530
 4368POPC   C3B55545   9.352  18.596   6.965
 4368POPC   C4B55546   9.167  18.388   7.331
 4369POPC   NC355547  12.465  26.948   5.247
 4369POPC   PO455548  11.945  26.476   5.373
 4369POPC   GL155549  11.999  26.634   5.761
 4369POPC   GL255550  12.206  26.896   5.688
 4369POPC   C1A55551  11.927  26.721   6.190
 4369POPC   D2A55552  12.153  26.652   6.554
 4369POPC   C3A55553  12.019  26.657   6.969
 4369POPC   C4A55554  12.347  26.774   7.216
 4369POPC   C1B55555  12.115  27.169   6.018
 4369POPC   C2B55556  12.109  27.190   6.435
 4369POPC   C3B55557  12.226  27.152   6.846
 4369POPC   C4B55558  12.012  27.126   7.203
 4370POPC   NC355559  41.871  24.052   5.435
 4370POPC   PO455560  42.056  24.608   5.380
 4370POPC   GL155561  42.113  24.518   5.817
 4370POPC   GL255562  42.418  24.545   5.993
 4370POPC   C1A55563  42.008  24.236   6.174
 4370POPC   D2A55564  41.806  24.339   6.572
 4370POPC   C3A55565  42.061  24.410   6.914
 4370POPC   C4A55566  42.235  24.130   7.195
 4370POPC   C1B55567  42.331  24.507   6.475
 4370POPC   C2B55568  42.494  24.681   6.885
 4370POPC   C3B55569  42.733  24.510   7.240
 4370POPC   C4B55570  42.609  24.171   7.545
 4371POPC   NC355571  22.681  21.687   5.209
 4371POPC   PO455572  23.203  21.282   5.110
 4371POPC   GL155573  23.124  21.376   5.586
 4371POPC   GL255574  22.834  21.583   5.701
 4371POPC   C1A55575  23.036  21.269   6.058
 4371POPC   D2A55576  22.837  21.171   6.465
 4371POPC   C3A55577  23.073  21.309   6.822
 4371POPC   C4A55578  23.040  21.140   7.218
 4371POPC   C1B55579  22.730  21.749   6.110
 4371POPC   C2B55580  22.890  21.691   6.492
 4371POPC   C3B55581  22.716  21.687   6.869
 4371POPC   C4B55582  22.773  21.571   7.261
 4372POPC   NC355583   6.041  43.575   5.179
 4372POPC   PO455584   5.617  44.134   5.298
 4372POPC   GL155585   5.922  43.977   5.739
 4372POPC   GL255586   6.185  43.675   5.742
 4372POPC   C1A55587   6.105  43.964   6.236
 4372POPC   D2A55588   5.806  44.163   6.560
 4372POPC   C3A55589   5.619  44.049   6.973
 4372POPC   C4A55590   5.667  44.273   7.356
 4372POPC   C1B55591   6.047  43.491   6.132
 4372POPC   C2B55592   6.185  43.486   6.567
 4372POPC   C3B55593   6.009  43.701   6.909
 4372POPC   C4B55594   6.051  43.936   7.270
 4373POPC   NC355595  30.849  15.567   5.381
 4373POPC   PO455596  30.410  16.030   5.511
 4373POPC   GL155597  30.418  15.786   5.881
 4373POPC   GL255598  30.756  15.816   5.820
 4373POPC   C1A55599  30.342  15.804   6.347
 4373POPC   D2A55600  30.501  16.111   6.662
 4373POPC   C3A55601  30.516  15.988   7.103
 4373POPC   C4A55602  30.608  16.207   7.484
 4373POPC   C1B55603  30.808  16.003   6.227
 4373POPC   C2B55604  30.927  15.837   6.629
 4373POPC   C3B55605  30.923  15.666   7.054
 4373POPC   C4B55606  30.828  15.730   7.529
 4374POPC   NC355607  30.957  35.855   5.609
 4374POPC   PO455608  31.474  35.388   5.404
 4374POPC   GL155609  31.354  35.521   5.771
 4374POPC   GL255610  31.543  35.223   5.905
 4374POPC   C1A55611  31.179  35.482   6.186
 4374POPC   D2A55612  31.215  35.168   6.503
 4374POPC   C3A55613  31.142  35.351   6.911
 4374POPC   C4A55614  31.280  35.277   7.312
 4374POPC   C1B55615  31.642  34.973   6.274
 4374POPC   C2B55616  31.704  35.029   6.713
 4374POPC   C3B55617  31.722  35.074   7.161
 4374POPC   C4B55618  31.714  35.241   7.600
 4375POPC   NC355619  15.410  30.489   5.317
 4375POPC   PO455620  14.996  31.007   5.340
 4375POPC   GL155621  15.018  30.730   5.676
 4375POPC   GL255622  15.337  30.703   5.757
 4375POPC   C1A55623  14.922  30.700   6.124
 4375POPC   D2A55624  15.091  30.821   6.538
 4375POPC   C3A55625  14.855  30.809   6.897
 4375POPC   C4A55626  14.767  30.510   7.206
 4375POPC   C1B55627  15.464  30.796   6.140
 4375POPC   C2B55628  15.608  30.857   6.531
 4375POPC   C3B55629  15.488  30.750   6.911
 4375POPC   C4B55630  15.246  30.685   7.271
 4376POPC   NC355631  15.651  33.870   5.491
 4376POPC   PO455632  14.964  33.679   5.393
 4376POPC   GL155633  15.203  33.781   5.750
 4376POPC   GL255634  15.130  34.103   5.894
 4376POPC   C1A55635  15.266  33.659   6.177
 4376POPC   D2A55636  15.113  33.349   6.481
 4376POPC   C3A55637  15.350  33.369   6.851
 4376POPC   C4A55638  15.372  33.662   7.168
 4376POPC   C1B55639  14.964  34.038   6.321
 4376POPC   C2B55640  15.196  33.877   6.692
 4376POPC   C3B55641  15.308  34.150   7.041
 4376POPC   C4B55642  15.112  34.362   7.396
 4377POPC   NC355643  29.333  17.813   5.296
 4377POPC   PO455644  28.939  17.335   5.227
 4377POPC   GL155645  29.184  17.344   5.681
 4377POPC   GL255646  29.276  17.693   5.824
 4377POPC   C1A55647  29.219  17.279   6.189
 4377POPC   D2A55648  29.106  17.209   6.675
 4377POPC   C3A55649  29.343  17.370   7.070
 4377POPC   C4A55650  29.188  17.661   7.434
 4377POPC   C1B55651  29.173  17.783   6.277
 4377POPC   C2B55652  29.202  17.747   6.739
 4377POPC   C3B55653  28.900  17.805   7.070
 4377POPC   C4B55654  28.757  17.962   7.501
 4378POPC   NC355655  34.389  29.578   5.566
 4378POPC   PO455656  34.780  29.960   5.119
 4378POPC   GL155657  34.668  30.002   5.670
 4378POPC   GL255658  34.321  30.003   5.830
 4378POPC   C1A55659  34.753  29.842   6.130
 4378POPC   D2A55660  34.504  29.662   6.471
 4378POPC   C3A55661  34.600  29.861   6.838
 4378POPC   C4A55662  34.582  29.616   7.193
 4378POPC   C1B55663  34.331  30.116   6.271
 4378POPC   C2B55664  34.031  29.907   6.534
 4378POPC   C3B55665  34.102  29.713   6.923
 4378POPC   C4B55666  34.268  30.034   7.195
 4379POPC   NC355667  35.908  44.692   5.383
 4379POPC   PO455668  36.500  44.692   5.441
 4379POPC   GL155669  36.217  44.917   5.821
 4379POPC   GL255670  35.837  44.929   5.833
 4379POPC   C1A55671  36.031  44.893   6.302
 4379POPC   D2A55672  35.936  44.979   6.757
 4379POPC   C3A55673  36.183  44.787   7.106
 4379POPC   C4A55674  36.533  44.468   7.137
 4379POPC   C1B55675  35.869  44.478   6.024
 4379POPC   C2B55676  35.916  44.271   6.445
 4379POPC   C3B55677  36.026  44.227   6.885
 4379POPC   C4B55678  35.770  44.461   7.153
 4380POPC   NC355679  17.362   9.180   5.660
 4380POPC   PO455680  17.678   8.654   5.245
 4380POPC   GL155681  17.640   8.708   5.729
 4380POPC   GL255682  17.893   8.515   5.964
 4380POPC   C1A55683  17.428   8.698   6.156
 4380POPC   D2A55684  17.179   8.729   6.520
 4380POPC   C3A55685  17.235   9.101   6.739
 4380POPC   C4A55686  17.407   9.357   7.045
 4380POPC   C1B55687  17.882   8.906   6.233
 4380POPC   C2B55688  17.749   9.180   6.575
 4380POPC   C3B55689  17.712   8.948   6.942
 4380POPC   C4B55690  17.377   8.662   7.022
 4381POPC   NC355691  27.021  20.204   5.508
 4381POPC   PO455692  26.515  19.803   5.405
 4381POPC   GL155693  26.799  19.617   5.695
 4381POPC   GL255694  26.779  19.923   5.851
 4381POPC   C1A55695  26.938  19.581   6.175
 4381POPC   D2A55696  26.683  19.594   6.533
 4381POPC   C3A55697  26.989  19.589   6.844
 4381POPC   C4A55698  26.986  19.780   7.215
 4381POPC   C1B55699  26.982  20.102   6.194
 4381POPC   C2B55700  26.940  20.036   6.601
 4381POPC   C3B55701  26.924  20.230   6.966
 4381POPC   C4B55702  27.203  20.263   7.282
 4382POPC   NC355703   8.585  36.929   5.332
 4382POPC   PO455704   8.882  36.348   5.415
 4382POPC   GL155705   9.178  36.611   5.739
 4382POPC   GL255706   9.250  37.016   5.718
 4382POPC   C1A55707   9.017  36.783   6.139
 4382POPC   D2A55708   8.814  36.913   6.518
 4382POPC   C3A55709   8.777  36.579   6.829
 4382POPC   C4A55710   8.713  36.704   7.264
 4382POPC   C1B55711   9.435  37.098   6.134
 4382POPC   C2B55712   9.325  36.962   6.589
 4382POPC   C3B55713   9.050  37.000   6.987
 4382POPC   C4B55714   9.082  36.961   7.489
 4383POPC   NC355715  31.766  28.051   5.463
 4383POPC   PO455716  32.285  28.476   5.353
 4383POPC   GL155717  32.208  28.344   5.787
 4383POPC   GL255718  31.922  28.134   5.921
 4383POPC   C1A55719  32.436  28.447   6.192
 4383POPC   D2A55720  32.650  28.716   6.500
 4383POPC   C3A55721  32.473  28.749   6.931
 4383POPC   C4A55722  32.114  28.575   7.190
 4383POPC   C1B55723  31.924  28.439   6.248
 4383POPC   C2B55724  32.101  28.416   6.676
 4383POPC   C3B55725  31.981  28.097   6.977
 4383POPC   C4B55726  31.772  28.026   7.370
 4384POPC   NC355727  35.009   3.496   5.433
 4384POPC   PO455728  35.638   3.545   5.450
 4384POPC   GL155729  35.498   3.454   5.824
 4384POPC   GL255730  35.225   3.676   5.869
 4384POPC   C1A55731  35.565   3.637   6.235
 4384POPC   D2A55732  35.640   3.437   6.599
 4384POPC   C3A55733  35.642   3.626   6.989
 4384POPC   C4A55734  35.551   3.366   7.323
 4384POPC   C1B55735  35.090   3.417   6.174
 4384POPC   C2B55736  35.123   3.560   6.580
 4384POPC   C3B55737  35.169   3.394   6.968
 4384POPC   C4B55738  35.006   3.339   7.349
 4385POPC   NC355739   6.529  18.145   5.474
 4385POPC   PO455740   7.019  18.608   5.391
 4385POPC   GL155741   6.724  18.474   5.785
 4385POPC   GL255742   6.394  18.578   5.847
 4385POPC   C1A55743   6.486  18.213   6.178
 4385POPC   D2A55744   6.546  18.082   6.640
 4385POPC   C3A55745   6.298  18.087   7.045
 4385POPC   C4A55746   6.398  17.900   7.445
 4385POPC   C1B55747   6.763  18.632   6.243
 4385POPC   C2B55748   6.873  18.574   6.658
 4385POPC   C3B55749   6.687  18.426   7.023
 4385POPC   C4B55750   6.790  18.013   7.150
 4386POPC   NC355751  43.505  27.888   5.387
 4386POPC   PO455752  44.122  27.475   5.337
 4386POPC   GL155753  44.024  27.268   5.699
 4386POPC   GL255754  43.728  27.456   5.739
 4386POPC   C1A55755  44.059  27.226   6.104
 4386POPC   D2A55756  44.235  27.465   6.403
 4386POPC   C3A55757  44.192  27.400   6.846
 4386POPC   C4A55758  44.125  27.500   7.273
 4386POPC   C1B55759  43.815  27.664   6.134
 4386POPC   C2B55760  43.739  27.481   6.554
 4386POPC   C3B55761  43.676  27.570   6.992
 4386POPC   C4B55762  43.807  27.896   7.277
 4387POPC   NC355763  32.431  18.676   5.314
 4387POPC   PO455764  32.132  19.189   5.356
 4387POPC   GL155765  32.208  19.007   5.707
 4387POPC   GL255766  32.471  19.203   5.802
 4387POPC   C1A55767  32.082  19.120   6.118
 4387POPC   D2A55768  32.272  19.221   6.514
 4387POPC   C3A55769  32.072  18.940   6.799
 4387POPC   C4A55770  32.064  18.947   7.231
 4387POPC   C1B55771  32.573  18.976   6.159
 4387POPC   C2B55772  32.558  18.802   6.563
 4387POPC   C3B55773  32.582  18.975   6.978
 4387POPC   C4B55774  32.575  18.796   7.382
 4388POPC   NC355775  32.114  17.101   5.608
 4388POPC   PO455776  31.983  16.465   5.410
 4388POPC   GL155777  31.895  16.693   5.802
 4388POPC   GL255778  32.221  16.642   5.935
 4388POPC   C1A55779  31.900  16.886   6.244
 4388POPC   D2A55780  32.196  16.818   6.606
 4388POPC   C3A55781  32.187  17.013   7.028
 4388POPC   C4A55782  32.181  16.789   7.446
 4388POPC   C1B55783  32.436  16.985   6.179
 4388POPC   C2B55784  32.708  16.955   6.538
 4388POPC   C3B55785  32.688  17.123   6.925
 4388POPC   C4B55786  32.626  16.960   7.298
 4389POPC   NC355787   3.660  34.158   5.209
 4389POPC   PO455788   3.317  33.722   5.440
 4389POPC   GL155789   3.643  33.848   5.700
 4389POPC   GL255790   3.542  33.561   5.905
 4389POPC   C1A55791   3.695  34.022   6.107
 4389POPC   D2A55792   3.527  33.806   6.429
 4389POPC   C3A55793   3.534  33.981   6.825
 4389POPC   C4A55794   3.858  33.870   7.140
 4389POPC   C1B55795   3.653  33.328   6.249
 4389POPC   C2B55796   3.843  33.224   6.620
 4389POPC   C3B55797   3.749  33.373   7.019
 4389POPC   C4B55798   3.584  33.301   7.432
 4390POPC   NC355799  35.588  43.999   5.376
 4390POPC   PO455800  34.980  43.937   5.512
 4390POPC   GL155801  35.300  44.122   5.782
 4390POPC   GL255802  35.554  43.824   5.845
 4390POPC   C1A55803  35.474  44.165   6.198
 4390POPC   D2A55804  35.614  43.864   6.534
 4390POPC   C3A55805  35.577  43.980   6.970
 4390POPC   C4A55806  35.254  43.945   7.273
 4390POPC   C1B55807  35.616  43.493   6.161
 4390POPC   C2B55808  35.479  43.327   6.569
 4390POPC   C3B55809  35.368  43.459   7.004
 4390POPC   C4B55810  35.689  43.555   7.293
 4391POPC   NC355811  13.044  38.664   5.411
 4391POPC   PO455812  12.565  38.140   5.374
 4391POPC   GL155813  12.806  38.314   5.726
 4391POPC   GL255814  12.714  38.678   5.785
 4391POPC   C1A55815  13.048  38.421   6.118
 4391POPC   D2A55816  13.184  38.609   6.515
 4391POPC   C3A55817  13.046  38.408   6.909
 4391POPC   C4A55818  13.109  38.408   7.352
 4391POPC   C1B55819  12.581  38.670   6.196
 4391POPC   C2B55820  12.659  38.469   6.560
 4391POPC   C3B55821  12.528  38.684   6.909
 4391POPC   C4B55822  12.674  38.666   7.283
 4392POPC   NC355823   1.093  38.795   5.471
 4392POPC   PO455824   1.155  39.441   5.501
 4392POPC   GL155825   1.213  39.452   5.908
 4392POPC   GL255826   1.377  39.155   6.043
 4392POPC   C1A55827   1.017  39.371   6.306
 4392POPC   D2A55828   1.085  39.068   6.612
 4392POPC   C3A55829   0.987  39.237   7.003
 4392POPC   C4A55830   1.095  39.571   7.242
 4392POPC   C1B55831   1.581  38.992   6.412
 4392POPC   C2B55832   1.523  39.044   6.857
 4392POPC   C3B55833   1.404  39.147   7.292
 4392POPC   C4B55834   1.444  38.927   7.670
 4393POPC   NC355835  23.891   2.071   5.578
 4393POPC   PO455836  24.516   1.934   5.382
 4393POPC   GL155837  24.413   2.139   5.791
 4393POPC   GL255838  24.176   2.412   5.851
 4393POPC   C1A55839  24.630   2.248   6.182
 4393POPC   D2A55840  24.803   2.008   6.538
 4393POPC   C3A55841  24.555   1.998   6.905
 4393POPC   C4A55842  24.624   1.863   7.328
 4393POPC   C1B55843  24.086   2.118   6.222
 4393POPC   C2B55844  24.054   2.099   6.690
 4393POPC   C3B55845  24.215   2.366   7.042
 4393POPC   C4B55846  24.340   2.243   7.488
 4394POPC   NC355847  35.520  11.825   5.563
 4394POPC   PO455848  35.107  12.392   5.575
 4394POPC   GL155849  35.392  12.235   5.901
 4394POPC   GL255850  35.240  11.911   6.010
 4394POPC   C1A55851  35.391  12.252   6.373
 4394POPC   D2A55852  35.482  12.408   6.787
 4394POPC   C3A55853  35.141  12.267   7.037
 4394POPC   C4A55854  35.041  11.859   7.151
 4394POPC   C1B55855  35.646  11.851   6.208
 4394POPC   C2B55856  35.741  11.657   6.616
 4394POPC   C3B55857  35.562  11.869   6.971
 4394POPC   C4B55858  35.788  11.798   7.304
 4395POPC   NC355859  16.131  20.888   5.506
 4395POPC   PO455860  15.625  20.423   5.469
 4395POPC   GL155861  15.824  20.611   5.798
 4395POPC   GL255862  16.123  20.414   5.780
 4395POPC   C1A55863  15.837  20.899   6.144
 4395POPC   D2A55864  15.969  20.847   6.557
 4395POPC   C3A55865  15.713  20.840   6.936
 4395POPC   C4A55866  15.981  20.744   7.239
 4395POPC   C1B55867  16.002  20.393   6.247
 4395POPC   C2B55868  16.059  20.359   6.711
 4395POPC   C3B55869  16.040  20.254   7.155
 4395POPC   C4B55870  15.899  20.391   7.609
 4396POPC   NC355871  43.579  35.051   5.473
 4396POPC   PO455872  44.261  35.248   5.395
 4396POPC   GL155873  44.039  35.092   5.734
 4396POPC   GL255874  43.825  35.363   5.810
 4396POPC   C1A55875  44.042  35.152   6.198
 4396POPC   D2A55876  44.166  35.083   6.601
 4396POPC   C3A55877  43.904  35.224   6.910
 4396POPC   C4A55878  44.231  35.213   7.174
 4396POPC   C1B55879  43.584  35.413   6.184
 4396POPC   C2B55880  43.676  35.575   6.605
 4396POPC   C3B55881  43.533  35.576   7.050
 4396POPC   C4B55882  43.451  35.535   7.511
 4397POPC   NC355883  44.857   0.285   5.224
 4397POPC   PO455884  44.213   0.406   5.347
 4397POPC   GL155885  44.577   0.451   5.611
 4397POPC   GL255886  44.469   0.783   5.646
 4397POPC   C1A55887  44.798   0.235   5.988
 4397POPC   D2A55888  44.771   0.109   6.440
 4397POPC   C3A55889  44.780   0.337   6.855
 4397POPC   C4A55890  44.803   0.262   7.335
 4397POPC   C1B55891  44.711   0.737   6.027
 4397POPC   C2B55892  44.780   0.670   6.440
 4397POPC   C3B55893  44.664   0.856   6.809
 4397POPC   C4B55894  44.647   0.791   7.254
 4398POPC   NC355895  28.980  37.893   5.522
 4398POPC   PO455896  29.375  37.477   5.328
 4398POPC   GL155897  29.248  37.572   5.798
 4398POPC   GL255898  29.327  37.954   5.915
 4398POPC   C1A55899  28.979  37.735   6.184
 4398POPC   D2A55900  29.172  37.823   6.577
 4398POPC   C3A55901  29.166  37.689   6.993
 4398POPC   C4A55902  29.109  37.341   7.291
 4398POPC   C1B55903  29.509  37.634   6.222
 4398POPC   C2B55904  29.383  37.365   6.611
 4398POPC   C3B55905  29.577  37.356   7.033
 4398POPC   C4B55906  29.592  37.344   7.516
 4399POPC   NC355907   8.527  43.549   5.340
 4399POPC   PO455908   8.116  42.961   5.404
 4399POPC   GL155909   8.100  43.149   5.778
 4399POPC   GL255910   8.433  43.255   5.751
 4399POPC   C1A55911   7.946  42.990   6.176
 4399POPC   D2A55912   8.113  42.909   6.582
 4399POPC   C3A55913   8.148  43.229   6.898
 4399POPC   C4A55914   7.934  43.002   7.202
 4399POPC   C1B55915   8.448  43.108   6.175
 4399POPC   C2B55916   8.606  43.029   6.574
 4399POPC   C3B55917   8.527  42.891   6.955
 4399POPC   C4B55918   8.631  43.146   7.251
 4400POPC   NC355919  37.686   5.266   5.487
 4400POPC   PO455920  37.921   4.599   5.398
 4400POPC   GL155921  37.840   4.856   5.770
 4400POPC   GL255922  37.470   4.907   5.831
 4400POPC   C1A55923  37.878   5.045   6.204
 4400POPC   D2A55924  37.614   4.974   6.593
 4400POPC   C3A55925  37.789   4.993   7.014
 4400POPC   C4A55926  37.888   5.282   7.352
 4400POPC   C1B55927  37.461   5.293   6.116
 4400POPC   C2B55928  37.680   5.471   6.481
 4400POPC   C3B55929  37.537   5.602   6.887
 4400POPC   C4B55930  37.390   5.355   7.250
 4401POPC   NC355931  10.164  11.185   5.268
 4401POPC   PO455932  10.778  11.475   5.409
 4401POPC   GL155933  10.691  11.136   5.757
 4401POPC   GL255934  10.303  11.034   5.768
 4401POPC   C1A55935  10.878  11.039   6.191
 4401POPC   D2A55936  10.767  11.269   6.576
 4401POPC   C3A55937  10.850  11.250   7.021
 4401POPC   C4A55938  10.610  11.604   7.236
 4401POPC   C1B55939  10.071  10.848   6.128
 4401POPC   C2B55940  10.303  10.964   6.514
 4401POPC   C3B55941  10.340  11.243   6.876
 4401POPC   C4B55942  10.437  11.131   7.295
 4402POPC   NC355943  26.947  23.557   5.463
 4402POPC   PO455944  26.665  24.202   5.489
 4402POPC   GL155945  26.717  23.898   5.817
 4402POPC   GL255946  27.072  23.952   5.836
 4402POPC   C1A55947  26.789  23.624   6.200
 4402POPC   D2A55948  26.994  23.421   6.583
 4402POPC   C3A55949  26.813  23.553   6.970
 4402POPC   C4A55950  26.517  23.625   7.300
 4402POPC   C1B55951  26.964  24.094   6.259
 4402POPC   C2B55952  26.712  23.965   6.639
 4402POPC   C3B55953  26.694  24.050   7.072
 4402POPC   C4B55954  26.961  23.884   7.383
 4403POPC   NC355955  42.169  25.681   5.429
 4403POPC   PO455956  42.481  26.353   5.451
 4403POPC   GL155957  42.263  26.163   5.752
 4403POPC   GL255958  42.422  25.861   5.870
 4403POPC   C1A55959  42.308  26.290   6.173
 4403POPC   D2A55960  42.111  26.280   6.565
 4403POPC   C3A55961  42.358  26.302   6.916
 4403POPC   C4A55962  42.088  26.089   7.171
 4403POPC   C1B55963  42.460  25.824   6.320
 4403POPC   C2B55964  42.302  25.823   6.733
 4403POPC   C3B55965  42.476  25.769   7.110
 4403POPC   C4B55966  42.541  25.575   7.506
 4404POPC   NC355967   9.233  32.880   5.541
 4404POPC   PO455968   8.637  33.069   5.514
 4404POPC   GL155969   8.889  33.034   5.899
 4404POPC   GL255970   9.151  33.290   5.853
 4404POPC   C1A55971   8.958  33.198   6.331
 4404POPC   D2A55972   8.942  33.322   6.756
 4404POPC   C3A55973   8.978  32.907   6.885
 4404POPC   C4A55974   8.837  32.615   7.189
 4404POPC   C1B55975   9.425  33.068   6.155
 4404POPC   C2B55976   9.403  33.133   6.619
 4404POPC   C3B55977   9.460  32.967   7.008
 4404POPC   C4B55978   9.195  33.094   7.310
 4405POPC   NC355979  29.615  21.182   5.476
 4405POPC   PO455980  30.145  21.619   5.313
 4405POPC   GL155981  30.032  21.376   5.705
 4405POPC   GL255982  29.709  21.518   5.840
 4405POPC   C1A55983  30.061  21.208   6.142
 4405POPC   D2A55984  29.881  21.412   6.513
 4405POPC   C3A55985  30.043  21.402   6.924
 4405POPC   C4A55986  29.962  21.133   7.244
 4405POPC   C1B55987  29.555  21.196   6.139
 4405POPC   C2B55988  29.475  21.039   6.541
 4405POPC   C3B55989  29.550  21.264   6.900
 4405POPC   C4B55990  29.597  21.519   7.281
 4406POPC   NC355991  33.337  16.322   5.438
 4406POPC   PO455992  32.841  15.925   5.473
 4406POPC   GL155993  33.026  16.183   5.855
 4406POPC   GL255994  33.386  16.128   5.918
 4406POPC   C1A55995  33.019  16.224   6.334
 4406POPC   D2A55996  32.966  16.276   6.798
 4406POPC   C3A55997  32.653  16.050   7.073
 4406POPC   C4A55998  32.715  16.076   7.559
 4406POPC   C1B55999  33.243  15.778   6.215
 4406POPC   C2B56000  33.015  15.772   6.636
 4406POPC   C3B56001  33.106  15.836   7.079
 4406POPC   C4B56002  33.343  15.535   7.312
 4407POPC   NC356003  13.347  16.296   5.626
 4407POPC   PO456004  13.645  15.744   5.316
 4407POPC   GL156005  13.621  15.876   5.795
 4407POPC   GL256006  13.286  15.955   5.994
 4407POPC   C1A56007  13.662  15.737   6.251
 4407POPC   D2A56008  13.469  15.799   6.654
 4407POPC   C3A56009  13.607  15.718   7.096
 4407POPC   C4A56010  13.897  15.880   7.447
 4407POPC   C1B56011  13.487  16.212   6.316
 4407POPC   C2B56012  13.557  16.335   6.743
 4407POPC   C3B56013  13.644  16.235   7.151
 4407POPC   C4B56014  13.436  16.058   7.508
 4408POPC   NC356015  32.079  21.846   5.039
 4408POPC   PO456016  32.090  22.306   5.546
 4408POPC   GL156017  32.157  22.469   5.920
 4408POPC   GL256018  32.360  22.183   6.015
 4408POPC   C1A56019  32.205  22.514   6.363
 4408POPC   D2A56020  32.323  22.201   6.634
 4408POPC   C3A56021  32.257  22.377   7.002
 4408POPC   C4A56022  32.364  22.084   7.280
 4408POPC   C1B56023  32.039  21.956   6.270
 4408POPC   C2B56024  31.979  21.779   6.682
 4408POPC   C3B56025  31.928  21.978   7.057
 4408POPC   C4B56026  31.954  21.835   7.508
 4409POPC   NC356027   5.396  18.143   5.686
 4409POPC   PO456028   6.067  18.226   5.516
 4409POPC   GL156029   5.851  18.272   5.879
 4409POPC   GL256030   5.666  18.593   5.953
 4409POPC   C1A56031   5.813  18.019   6.260
 4409POPC   D2A56032   6.038  17.919   6.634
 4409POPC   C3A56033   5.797  18.007   7.035
 4409POPC   C4A56034   5.943  18.155   7.446
 4409POPC   C1B56035   5.974  18.536   6.282
 4409POPC   C2B56036   5.776  18.393   6.657
 4409POPC   C3B56037   5.700  18.517   7.064
 4409POPC   C4B56038   6.064  18.629   7.298
 4410POPC   NC356039   3.829   3.892   5.452
 4410POPC   PO456040   3.515   3.319   5.344
 4410POPC   GL156041   3.525   3.605   5.745
 4410POPC   GL256042   3.885   3.569   5.837
 4410POPC   C1A56043   3.219   3.789   6.103
 4410POPC   D2A56044   3.109   3.968   6.536
 4410POPC   C3A56045   3.139   3.669   6.901
 4410POPC   C4A56046   3.278   3.611   7.327
 4410POPC   C1B56047   3.663   3.543   6.218
 4410POPC   C2B56048   3.534   3.695   6.572
 4410POPC   C3B56049   3.643   3.652   6.980
 4410POPC   C4B56050   3.817   3.604   7.405
 4411POPC   NC356051  22.118  31.908   5.337
 4411POPC   PO456052  22.306  32.603   5.300
 4411POPC   GL156053  22.345  32.289   5.712
 4411POPC   GL256054  22.042  32.105   5.787
 4411POPC   C1A56055  22.328  32.204   6.196
 4411POPC   D2A56056  22.101  32.425   6.575
 4411POPC   C3A56057  22.393  32.429   6.936
 4411POPC   C4A56058  22.429  32.030   7.156
 4411POPC   C1B56059  21.896  31.894   6.138
 4411POPC   C2B56060  21.886  31.728   6.559
 4411POPC   C3B56061  21.747  32.021   6.858
 4411POPC   C4B56062  21.953  32.308   7.144
 4412POPC   NC356063  23.376  12.976   5.522
 4412POPC   PO456064  22.676  12.806   5.478
 4412POPC   GL156065  23.003  12.754   5.829
 4412POPC   GL256066  22.849  13.036   5.996
 4412POPC   C1A56067  23.153  12.499   6.229
 4412POPC   D2A56068  23.067  12.414   6.688
 4412POPC   C3A56069  22.827  12.692   6.968
 4412POPC   C4A56070  22.860  13.038   7.269
 4412POPC   C1B56071  23.208  13.009   6.281
 4412POPC   C2B56072  23.387  13.047   6.679
 4412POPC   C3B56073  23.303  12.870   7.081
 4412POPC   C4B56074  23.341  13.113   7.446
 4413POPC   NC356075  35.933  23.253   5.463
 4413POPC   PO456076  36.495  22.837   5.385
 4413POPC   GL156077  36.214  22.914   5.731
 4413POPC   GL256078  36.085  22.569   5.787
 4413POPC   C1A56079  36.143  23.159   6.134
 4413POPC   D2A56080  36.040  23.006   6.554
 4413POPC   C3A56081  36.030  23.207   6.945
 4413POPC   C4A56082  35.795  23.127   7.300
 4413POPC   C1B56083  36.315  22.667   6.170
 4413POPC   C2B56084  36.256  22.550   6.598
 4413POPC   C3B56085  36.174  22.718   7.015
 4413POPC   C4B56086  35.855  22.590   7.306
 4414POPC   NC356087   4.756  39.806   5.488
 4414POPC   PO456088   5.378  40.116   5.424
 4414POPC   GL156089   5.133  40.013   5.772
 4414POPC   GL256090   4.856  40.244   5.824
 4414POPC   C1A56091   5.192  39.985   6.198
 4414POPC   D2A56092   5.093  40.239   6.526
 4414POPC   C3A56093   5.242  40.014   6.864
 4414POPC   C4A56094   5.239  39.835   7.267
 4414POPC   C1B56095   4.672  40.017   6.152
 4414POPC   C2B56096   4.741  39.859   6.575
 4414POPC   C3B56097   4.771  39.893   7.026
 4414POPC   C4B56098   4.795  39.771   7.483
 4415POPC   NC356099  30.333  19.181   5.366
 4415POPC   PO456100  30.816  18.698   5.536
 4415POPC   GL156101  30.597  19.016   5.811
 4415POPC   GL256102  30.871  19.249   5.945
 4415POPC   C1A56103  30.545  19.009   6.274
 4415POPC   D2A56104  30.727  19.252   6.605
 4415POPC   C3A56105  30.513  19.108   6.960
 4415POPC   C4A56106  30.500  18.931   7.373
 4415POPC   C1B56107  31.049  18.956   6.248
 4415POPC   C2B56108  30.909  18.775   6.677
 4415POPC   C3B56109  31.017  19.017   7.055
 4415POPC   C4B56110  30.810  19.335   7.328
 4416POPC   NC356111  24.768  41.719   5.333
 4416POPC   PO456112  24.134  41.500   5.359
 4416POPC   GL156113  24.321  41.399   5.755
 4416POPC   GL256114  24.521  41.697   5.798
 4416POPC   C1A56115  24.219  41.510   6.196
 4416POPC   D2A56116  24.393  41.637   6.578
 4416POPC   C3A56117  24.254  41.546   6.992
 4416POPC   C4A56118  24.538  41.332   7.234
 4416POPC   C1B56119  24.739  41.610   6.171
 4416POPC   C2B56120  24.875  41.816   6.544
 4416POPC   C3B56121  24.755  41.699   6.948
 4416POPC   C4B56122  24.802  41.763   7.369
 4417POPC   NC356123  20.984  21.059   5.533
 4417POPC   PO456124  20.315  21.312   5.613
 4417POPC   GL156125  20.696  21.409   5.907
 4417POPC   GL256126  20.658  21.102   6.031
 4417POPC   C1A56127  20.892  21.442   6.371
 4417POPC   D2A56128  20.941  21.121   6.707
 4417POPC   C3A56129  20.696  21.265   7.072
 4417POPC   C4A56130  20.684  21.455   7.510
 4417POPC   C1B56131  20.375  21.359   6.323
 4417POPC   C2B56132  20.322  21.613   6.711
 4417POPC   C3B56133  20.275  21.541   7.171
 4417POPC   C4B56134  20.199  21.486   7.632
 4418POPC   NC356135  32.010  11.436   5.311
 4418POPC   PO456136  32.701  11.579   5.278
 4418POPC   GL156137  32.415  11.644   5.692
 4418POPC   GL256138  32.078  11.468   5.792
 4418POPC   C1A56139  32.330  11.616   6.174
 4418POPC   D2A56140  32.387  11.345   6.527
 4418POPC   C3A56141  32.091  11.377   6.848
 4418POPC   C4A56142  32.251  11.508   7.235
 4418POPC   C1B56143  32.043  11.171   6.145
 4418POPC   C2B56144  31.823  11.073   6.515
 4418POPC   C3B56145  31.777  10.919   6.919
 4418POPC   C4B56146  31.928  11.106   7.255
 4419POPC   NC356147  34.574  13.039   5.422
 4419POPC   PO456148  34.037  12.823   5.593
 4419POPC   GL156149  34.316  12.856   5.880
 4419POPC   GL256150  34.644  12.662   5.787
 4419POPC   C1A56151  34.130  12.813   6.273
 4419POPC   D2A56152  34.328  12.954   6.589
 4419POPC   C3A56153  34.204  12.803   6.950
 4419POPC   C4A56154  34.295  12.918   7.336
 4419POPC   C1B56155  34.646  12.726   6.239
 4419POPC   C2B56156  34.839  13.022   6.525
 4419POPC   C3B56157  34.681  13.027   6.947
 4419POPC   C4B56158  34.673  12.619   7.143
 4420POPC   NC356159  28.093  34.016   5.671
 4420POPC   PO456160  28.535  33.526   5.260
 4420POPC   GL156161  28.457  33.665   5.657
 4420POPC   GL256162  28.634  33.962   5.720
 4420POPC   C1A56163  28.453  33.559   6.105
 4420POPC   D2A56164  28.285  33.720   6.505
 4420POPC   C3A56165  28.496  33.554   6.886
 4420POPC   C4A56166  28.383  33.688   7.287
 4420POPC   C1B56167  28.529  34.084   6.177
 4420POPC   C2B56168  28.325  34.230   6.595
 4420POPC   C3B56169  28.222  34.118   7.035
 4420POPC   C4B56170  27.892  33.924   7.285
 4421POPC   NC356171  26.968  33.123   5.298
 4421POPC   PO456172  26.297  32.996   5.321
 4421POPC   GL156173  26.586  32.979   5.724
 4421POPC   GL256174  26.958  32.999   5.781
 4421POPC   C1A56175  26.732  32.813   6.184
 4421POPC   D2A56176  26.697  32.533   6.568
 4421POPC   C3A56177  26.798  32.736   6.966
 4421POPC   C4A56178  26.707  33.147   7.071
 4421POPC   C1B56179  27.146  33.268   6.111
 4421POPC   C2B56180  27.355  33.366   6.529
 4421POPC   C3B56181  27.189  33.318   6.953
 4421POPC   C4B56182  27.133  33.151   7.368
 4422POPC   NC356183  17.369   0.791   5.344
 4422POPC   PO456184  17.715   1.358   5.457
 4422POPC   GL156185  17.492   1.104   5.756
 4422POPC   GL256186  17.796   0.982   5.957
 4422POPC   C1A56187  17.293   0.954   6.171
 4422POPC   D2A56188  17.477   1.001   6.612
 4422POPC   C3A56189  17.220   1.073   6.994
 4422POPC   C4A56190  17.287   0.918   7.413
 4422POPC   C1B56191  17.622   1.334   6.187
 4422POPC   C2B56192  17.629   1.525   6.549
 4422POPC   C3B56193  17.802   1.404   6.888
 4422POPC   C4B56194  17.617   1.310   7.217
 4423POPC   NC356195  32.843  32.960   5.416
 4423POPC   PO456196  33.367  32.645   5.586
 4423POPC   GL156197  33.039  32.903   5.856
 4423POPC   GL256198  32.944  33.276   5.805
 4423POPC   C1A56199  32.769  32.945   6.166
 4423POPC   D2A56200  32.977  32.943   6.528
 4423POPC   C3A56201  32.758  32.988   6.854
 4423POPC   C4A56202  32.858  32.857   7.256
 4423POPC   C1B56203  32.882  33.439   6.234
 4423POPC   C2B56204  33.003  33.435   6.674
 4423POPC   C3B56205  33.177  33.223   7.048
 4423POPC   C4B56206  33.103  33.219   7.511
 4424POPC   NC356207   7.536   7.807   5.412
 4424POPC   PO456208   7.305   7.199   5.432
 4424POPC   GL156209   7.497   7.384   5.756
 4424POPC   GL256210   7.314   7.622   5.854
 4424POPC   C1A56211   7.572   7.242   6.167
 4424POPC   D2A56212   7.413   7.334   6.558
 4424POPC   C3A56213   7.561   7.167   6.931
 4424POPC   C4A56214   7.407   7.263   7.347
 4424POPC   C1B56215   7.421   7.751   6.224
 4424POPC   C2B56216   7.629   7.810   6.583
 4424POPC   C3B56217   7.430   7.710   6.924
 4424POPC   C4B56218   7.593   7.710   7.291
 4425POPC   NC356219  39.842  28.912   5.345
 4425POPC   PO456220  40.321  29.367   5.198
 4425POPC   GL156221  40.103  29.318   5.637
 4425POPC   GL256222  40.212  28.989   5.755
 4425POPC   C1A56223  39.971  29.247   6.119
 4425POPC   D2A56224  40.124  29.233   6.561
 4425POPC   C3A56225  39.865  29.181   6.987
 4425POPC   C4A56226  39.778  29.379   7.432
 4425POPC   C1B56227  40.387  28.948   6.204
 4425POPC   C2B56228  40.362  28.791   6.636
 4425POPC   C3B56229  40.363  29.071   6.991
 4425POPC   C4B56230  40.208  29.139   7.387
 4426POPC   NC356231   1.266   1.155   5.448
 4426POPC   PO456232   0.715   1.442   5.592
 4426POPC   GL156233   1.049   1.258   5.879
 4426POPC   GL256234   1.458   1.393   5.838
 4426POPC   C1A56235   1.067   1.016   6.256
 4426POPC   D2A56236   0.947   0.906   6.670
 4426POPC   C3A56237   1.072   1.148   7.040
 4426POPC   C4A56238   0.853   1.468   7.254
 4426POPC   C1B56239   1.559   1.159   6.204
 4426POPC   C2B56240   1.443   1.024   6.627
 4426POPC   C3B56241   1.598   1.202   7.015
 4426POPC   C4B56242   1.441   1.132   7.420
 4427POPC   NC356243  14.569  11.587   5.038
 4427POPC   PO456244  14.369  11.223   5.539
 4427POPC   GL156245  14.537  11.418   5.881
 4427POPC   GL256246  14.882  11.554   5.893
 4427POPC   C1A56247  14.568  11.275   6.266
 4427POPC   D2A56248  14.391  11.093   6.611
 4427POPC   C3A56249  14.473  11.182   7.011
 4427POPC   C4A56250  14.242  10.918   7.244
 4427POPC   C1B56251  14.780  11.767   6.230
 4427POPC   C2B56252  14.735  11.612   6.608
 4427POPC   C3B56253  14.827  11.764   6.967
 4427POPC   C4B56254  14.673  11.561   7.296
 4428POPC   NC356255  24.866   3.410   5.448
 4428POPC   PO456256  24.305   3.808   5.357
 4428POPC   GL156257  24.308   3.623   5.826
 4428POPC   GL256258  24.512   3.295   5.845
 4428POPC   C1A56259  24.177   3.556   6.278
 4428POPC   D2A56260  23.945   3.654   6.678
 4428POPC   C3A56261  24.238   3.754   7.022
 4428POPC   C4A56262  24.409   3.674   7.442
 4428POPC   C1B56263  24.606   3.289   6.270
 4428POPC   C2B56264  24.483   3.399   6.677
 4428POPC   C3B56265  24.709   3.429   7.038
 4428POPC   C4B56266  24.546   3.202   7.338
 4429POPC   NC356267  25.793   4.691   5.335
 4429POPC   PO456268  25.249   4.315   5.417
 4429POPC   GL156269  25.206   4.442   5.831
 4429POPC   GL256270  25.533   4.604   5.793
 4429POPC   C1A56271  25.101   4.485   6.257
 4429POPC   D2A56272  25.240   4.191   6.570
 4429POPC   C3A56273  25.283   4.345   6.960
 4429POPC   C4A56274  25.198   4.201   7.369
 4429POPC   C1B56275  25.517   4.783   6.195
 4429POPC   C2B56276  25.595   4.604   6.596
 4429POPC   C3B56277  25.562   4.801   6.986
 4429POPC   C4B56278  25.202   4.817   7.230
 4430POPC   NC356279  26.465  40.883   5.291
 4430POPC   PO456280  27.132  41.006   5.390
 4430POPC   GL156281  26.875  40.926   5.794
 4430POPC   GL256282  26.559  40.733   5.767
 4430POPC   C1A56283  26.918  40.905   6.263
 4430POPC   D2A56284  27.074  40.863   6.681
 4430POPC   C3A56285  26.806  40.988   7.020
 4430POPC   C4A56286  26.724  40.812   7.431
 4430POPC   C1B56287  26.415  40.951   6.165
 4430POPC   C2B56288  26.496  40.898   6.628
 4430POPC   C3B56289  26.295  41.062   7.046
 4430POPC   C4B56290  26.239  40.959   7.516
 4431POPC   NC356291  41.264   5.661   5.466
 4431POPC   PO456292  41.961   5.732   5.442
 4431POPC   GL156293  41.785   6.044   5.706
 4431POPC   GL256294  41.419   6.082   5.731
 4431POPC   C1A56295  41.705   5.975   6.142
 4431POPC   D2A56296  41.437   5.675   6.370
 4431POPC   C3A56297  41.560   5.623   6.799
 4431POPC   C4A56298  41.346   5.846   7.126
 4431POPC   C1B56299  41.153   6.042   6.103
 4431POPC   C2B56300  41.050   6.093   6.539
 4431POPC   C3B56301  41.252   6.310   6.877
 4431POPC   C4B56302  41.489   6.335   7.249
 4432POPC   NC356303  31.923  17.815   5.300
 4432POPC   PO456304  32.473  17.336   5.442
 4432POPC   GL156305  32.279  17.580   5.733
 4432POPC   GL256306  31.947  17.656   5.774
 4432POPC   C1A56307  32.291  17.561   6.190
 4432POPC   D2A56308  32.395  17.385   6.596
 4432POPC   C3A56309  32.485  17.607   7.005
 4432POPC   C4A56310  32.437  17.413   7.417
 4432POPC   C1B56311  31.748  17.752   6.135
 4432POPC   C2B56312  31.871  17.721   6.543
 4432POPC   C3B56313  31.960  17.498   6.904
 4432POPC   C4B56314  31.984  17.613   7.305
 4433POPC   NC356315  21.291  30.825   5.350
 4433POPC   PO456316  21.404  30.157   5.319
 4433POPC   GL156317  21.436  30.515   5.704
 4433POPC   GL256318  21.137  30.771   5.832
 4433POPC   C1A56319  21.550  30.606   6.130
 4433POPC   D2A56320  21.437  30.476   6.550
 4433POPC   C3A56321  21.651  30.752   6.822
 4433POPC   C4A56322  21.742  30.745   7.262
 4433POPC   C1B56323  21.318  31.077   6.166
 4433POPC   C2B56324  21.276  31.132   6.621
 4433POPC   C3B56325  21.156  30.780   6.906
 4433POPC   C4B56326  21.235  30.724   7.341
 4434POPC   NC356327  40.367  30.787   5.365
 4434POPC   PO456328  39.772  31.063   5.377
 4434POPC   GL156329  39.894  30.714   5.733
 4434POPC   GL256330  40.212  30.619   5.824
 4434POPC   C1A56331  39.819  30.703   6.227
 4434POPC   D2A56332  39.858  30.987   6.616
 4434POPC   C3A56333  39.801  30.952   7.100
 4434POPC   C4A56334  39.957  30.814   7.524
 4434POPC   C1B56335  40.346  30.579   6.243
 4434POPC   C2B56336  40.119  30.498   6.634
 4434POPC   C3B56337  40.062  30.513   7.087
 4434POPC   C4B56338  40.390  30.622   7.345
 4435POPC   NC356339  40.851  10.279   5.517
 4435POPC   PO456340  40.765   9.545   5.428
 4435POPC   GL156341  40.656   9.790   5.773
 4435POPC   GL256342  40.982   9.788   5.902
 4435POPC   C1A56343  40.553   9.679   6.193
 4435POPC   D2A56344  40.767   9.745   6.554
 4435POPC   C3A56345  40.508   9.796   6.874
 4435POPC   C4A56346  40.598   9.671   7.249
 4435POPC   C1B56347  40.917  10.113   6.210
 4435POPC   C2B56348  40.819  10.251   6.612
 4435POPC   C3B56349  40.944  10.096   6.983
 4435POPC   C4B56350  41.082   9.722   7.102
 4436POPC   NC356351   7.431  40.332   5.609
 4436POPC   PO456352   7.130  39.780   5.319
 4436POPC   GL156353   7.471  39.890   5.794
 4436POPC   GL256354   7.226  40.079   6.003
 4436POPC   C1A56355   7.581  39.667   6.207
 4436POPC   D2A56356   7.356  39.632   6.623
 4436POPC   C3A56357   7.428  39.893   6.975
 4436POPC   C4A56358   7.387  40.074   7.361
 4436POPC   C1B56359   6.970  40.284   6.313
 4436POPC   C2B56360   7.119  40.343   6.715
 4436POPC   C3B56361   6.984  40.222   7.089
 4436POPC   C4B56362   6.856  40.232   7.517
 4437POPC   NC356363   7.855   6.820   5.512
 4437POPC   PO456364   8.410   6.427   5.251
 4437POPC   GL156365   8.293   6.504   5.720
 4437POPC   GL256366   7.963   6.420   5.856
 4437POPC   C1A56367   8.292   6.722   6.148
 4437POPC   D2A56368   8.085   6.783   6.559
 4437POPC   C3A56369   8.097   6.969   6.977
 4437POPC   C4A56370   8.135   6.869   7.444
 4437POPC   C1B56371   8.123   6.233   6.230
 4437POPC   C2B56372   8.237   6.132   6.645
 4437POPC   C3B56373   8.179   6.430   6.943
 4437POPC   C4B56374   7.979   6.405   7.295
 4438POPC   NC356375  36.910  16.938   5.429
 4438POPC   PO456376  37.459  16.622   5.411
 4438POPC   GL156377  37.300  16.821   5.820
 4438POPC   GL256378  36.920  16.821   5.914
 4438POPC   C1A56379  37.212  16.692   6.282
 4438POPC   D2A56380  36.799  16.574   6.421
 4438POPC   C3A56381  36.715  16.604   6.848
 4438POPC   C4A56382  36.993  16.740   7.168
 4438POPC   C1B56383  36.678  17.037   6.230
 4438POPC   C2B56384  36.539  17.224   6.626
 4438POPC   C3B56385  36.622  17.090   7.066
 4438POPC   C4B56386  36.730  17.006   7.520
 4439POPC   NC356387  25.010  30.363   5.492
 4439POPC   PO456388  25.350  30.792   5.206
 4439POPC   GL156389  25.278  30.767   5.673
 4439POPC   GL256390  25.413  30.469   5.824
 4439POPC   C1A56391  25.044  30.778   6.097
 4439POPC   D2A56392  25.254  30.792   6.493
 4439POPC   C3A56393  25.060  30.783   6.897
 4439POPC   C4A56394  25.306  30.644   7.216
 4439POPC   C1B56395  25.267  30.303   6.236
 4439POPC   C2B56396  25.178  30.311   6.701
 4439POPC   C3B56397  24.931  30.318   7.094
 4439POPC   C4B56398  25.080  30.305   7.552
 4440POPC   NC356399  37.912   1.049   5.299
 4440POPC   PO456400  37.228   1.258   5.326
 4440POPC   GL156401  37.550   1.190   5.636
 4440POPC   GL256402  37.768   1.500   5.685
 4440POPC   C1A56403  37.547   1.040   6.048
 4440POPC   D2A56404  37.583   1.094   6.504
 4440POPC   C3A56405  37.755   0.918   6.883
 4440POPC   C4A56406  37.533   1.031   7.266
 4440POPC   C1B56407  37.690   1.603   6.133
 4440POPC   C2B56408  37.739   1.582   6.564
 4440POPC   C3B56409  37.657   1.417   6.956
 4440POPC   C4B56410  37.961   1.318   7.284
 4441POPC   NC356411  35.045  20.211   5.346
 4441POPC   PO456412  35.339  20.884   5.452
 4441POPC   GL156413  35.523  20.700   5.839
 4441POPC   GL256414  35.661  20.357   5.747
 4441POPC   C1A56415  35.308  20.595   6.250
 4441POPC   D2A56416  35.201  20.808   6.646
 4441POPC   C3A56417  35.233  20.677   7.102
 4441POPC   C4A56418  35.331  20.881   7.500
 4441POPC   C1B56419  35.721  20.305   6.191
 4441POPC   C2B56420  35.799  20.435   6.647
 4441POPC   C3B56421  35.597  20.316   7.027
 4441POPC   C4B56422  35.472  20.392   7.492
 4442POPC   NC356423   5.623  12.621   5.211
 4442POPC   PO456424   4.959  12.622   5.377
 4442POPC   GL156425   5.077  12.807   5.789
 4442POPC   GL256426   5.234  13.110   5.917
 4442POPC   C1A56427   5.092  12.752   6.252
 4442POPC   D2A56428   4.986  13.030   6.606
 4442POPC   C3A56429   5.107  12.906   7.036
 4442POPC   C4A56430   4.975  12.568   7.279
 4442POPC   C1B56431   5.438  13.178   6.308
 4442POPC   C2B56432   5.485  12.942   6.675
 4442POPC   C3B56433   5.653  13.123   7.049
 4442POPC   C4B56434   5.532  13.193   7.466
 4443POPC   NC356435  41.750  32.878   5.272
 4443POPC   PO456436  41.120  33.174   5.362
 4443POPC   GL156437  41.440  33.079   5.708
 4443POPC   GL256438  41.695  33.338   5.771
 4443POPC   C1A56439  41.612  33.002   6.173
 4443POPC   D2A56440  41.624  33.082   6.649
 4443POPC   C3A56441  41.425  32.798   6.976
 4443POPC   C4A56442  41.573  32.669   7.393
 4443POPC   C1B56443  41.676  33.512   6.225
 4443POPC   C2B56444  41.937  33.498   6.636
 4443POPC   C3B56445  41.919  33.265   7.046
 4443POPC   C4B56446  41.722  33.216   7.465
 4444POPC   NC356447  30.179  44.738   5.371
 4444POPC   PO456448  29.635  44.555   5.541
 4444POPC   GL156449  29.779  44.391   5.929
 4444POPC   GL256450  30.095  44.537   5.850
 4444POPC   C1A56451  30.047  44.294   6.286
 4444POPC   D2A56452  30.301  44.514   6.574
 4444POPC   C3A56453  30.137  44.443   6.969
 4444POPC   C4A56454  29.823  44.592   7.286
 4444POPC   C1B56455  30.109  44.923   6.113
 4444POPC   C2B56456  30.308   0.029   6.514
 4444POPC   C3B56457  30.175  44.940   6.929
 4444POPC   C4B56458  30.294  44.785   7.335
 4445POPC   NC356459  15.535  13.704   5.369
 4445POPC   PO456460  16.078  14.175   5.434
 4445POPC   GL156461  16.061  14.413   5.856
 4445POPC   GL256462  15.691  14.355   5.958
 4445POPC   C1A56463  16.046  14.346   6.318
 4445POPC   D2A56464  15.699  14.305   6.582
 4445POPC   C3A56465  15.807  14.115   6.953
 4445POPC   C4A56466  16.198  14.303   7.084
 4445POPC   C1B56467  15.474  14.640   6.264
 4445POPC   C2B56468  15.520  14.813   6.711
 4445POPC   C3B56469  15.743  14.637   7.108
 4445POPC   C4B56470  15.684  14.579   7.589
 4446POPC   NC356471  21.946  14.385   5.387
 4446POPC   PO456472  22.565  14.481   5.441
 4446POPC   GL156473  22.232  14.451   5.800
 4446POPC   GL256474  22.203  14.068   5.865
 4446POPC   C1A56475  22.006  14.452   6.198
 4446POPC   D2A56476  21.995  14.104   6.449
 4446POPC   C3A56477  21.848  14.109   6.853
 4446POPC   C4A56478  21.723  14.495   7.092
 4446POPC   C1B56479  22.463  14.164   6.246
 4446POPC   C2B56480  22.400  14.363   6.639
 4446POPC   C3B56481  22.213  14.403   7.028
 4446POPC   C4B56482  22.035  14.144   7.332
 4447POPC   NC356483   9.329  20.000   5.463
 4447POPC   PO456484   9.031  19.395   5.617
 4447POPC   GL156485   8.904  19.855   5.761
 4447POPC   GL256486   9.147  20.126   5.915
 4447POPC   C1A56487   8.712  20.050   6.140
 4447POPC   D2A56488   8.981  20.122   6.553
 4447POPC   C3A56489   8.984  19.855   6.913
 4447POPC   C4A56490   8.735  19.810   7.275
 4447POPC   C1B56491   9.135  19.756   6.214
 4447POPC   C2B56492   9.353  19.683   6.594
 4447POPC   C3B56493   9.403  19.483   6.971
 4447POPC   C4B56494   9.155  19.542   7.301
 4448POPC   NC356495   9.278   3.149   5.450
 4448POPC   PO456496   8.620   2.994   5.601
 4448POPC   GL156497   8.945   2.862   5.893
 4448POPC   GL256498   8.777   2.541   5.924
 4448POPC   C1A56499   9.210   2.583   6.189
 4448POPC   D2A56500   9.394   2.461   6.582
 4448POPC   C3A56501   9.212   2.586   6.975
 4448POPC   C4A56502   9.327   2.871   7.290
 4448POPC   C1B56503   8.587   2.817   6.243
 4448POPC   C2B56504   8.753   3.042   6.588
 4448POPC   C3B56505   8.645   3.054   7.002
 4448POPC   C4B56506   8.724   2.664   7.142
 4449POPC   NC356507  17.816  32.934   5.399
 4449POPC   PO456508  17.135  32.789   5.421
 4449POPC   GL156509  17.364  32.988   5.780
 4449POPC   GL256510  17.675  33.163   5.814
 4449POPC   C1A56511  17.466  32.881   6.213
 4449POPC   D2A56512  17.547  32.678   6.604
 4449POPC   C3A56513  17.555  32.971   6.963
 4449POPC   C4A56514  17.398  33.090   7.388
 4449POPC   C1B56515  17.943  32.983   6.126
 4449POPC   C2B56516  17.881  33.072   6.562
 4449POPC   C3B56517  18.065  32.969   6.969
 4449POPC   C4B56518  17.915  33.176   7.336
 4450POPC   NC356519   7.553  20.516   5.412
 4450POPC   PO456520   7.082  21.055   5.421
 4450POPC   GL156521   7.363  20.864   5.744
 4450POPC   GL256522   7.177  20.536   5.790
 4450POPC   C1A56523   7.619  20.608   6.063
 4450POPC   D2A56524   7.537  20.346   6.435
 4450POPC   C3A56525   7.642  20.443   6.865
 4450POPC   C4A56526   7.347  20.417   7.202
 4450POPC   C1B56527   7.114  20.668   6.217
 4450POPC   C2B56528   7.274  20.854   6.603
 4450POPC   C3B56529   7.195  20.886   7.053
 4450POPC   C4B56530   7.123  21.054   7.480
 4451POPC   NC356531  23.817  27.433   5.582
 4451POPC   PO456532  23.424  27.885   5.138
 4451POPC   GL156533  23.456  27.836   5.626
 4451POPC   GL256534  23.723  28.037   5.814
 4451POPC   C1A56535  23.370  27.677   6.059
 4451POPC   D2A56536  23.399  27.759   6.502
 4451POPC   C3A56537  23.629  27.629   6.885
 4451POPC   C4A56538  23.474  27.644   7.324
 4451POPC   C1B56539  23.846  27.773   6.199
 4451POPC   C2B56540  24.086  27.487   6.487
 4451POPC   C3B56541  24.167  27.560   6.933
 4451POPC   C4B56542  23.949  27.844   7.252
 4452POPC   NC356543  23.949  12.843   5.086
 4452POPC   PO456544  23.556  12.567   5.627
 4452POPC   GL156545  23.524  12.764   5.962
 4452POPC   GL256546  23.753  12.990   5.899
 4452POPC   C1A56547  23.644  12.717   6.349
 4452POPC   D2A56548  23.560  12.554   6.716
 4452POPC   C3A56549  23.782  12.737   7.061
 4452POPC   C4A56550  23.600  12.651   7.460
 4452POPC   C1B56551  23.702  13.222   6.276
 4452POPC   C2B56552  23.887  13.146   6.688
 4452POPC   C3B56553  23.729  13.227   7.101
 4452POPC   C4B56554  23.835  13.098   7.513
 4453POPC   NC356555   1.491  35.731   5.445
 4453POPC   PO456556   0.946  35.359   5.204
 4453POPC   GL156557   1.131  35.338   5.671
 4453POPC   GL256558   1.247  35.061   5.750
 4453POPC   C1A56559   1.206  35.419   6.122
 4453POPC   D2A56560   1.491  35.586   6.416
 4453POPC   C3A56561   1.395  35.437   6.827
 4453POPC   C4A56562   1.323  35.539   7.251
 4453POPC   C1B56563   1.161  34.929   6.179
 4453POPC   C2B56564   1.287  34.968   6.603
 4453POPC   C3B56565   1.378  34.924   7.042
 4453POPC   C4B56566   1.161  34.991   7.412
 4454POPC   NC356567  21.668  21.176   5.540
 4454POPC   PO456568  22.246  21.553   5.209
 4454POPC   GL156569  22.334  21.416   5.655
 4454POPC   GL256570  22.056  21.261   5.840
 4454POPC   C1A56571  22.485  21.295   6.096
 4454POPC   D2A56572  22.415  21.498   6.501
 4454POPC   C3A56573  22.263  21.407   6.922
 4454POPC   C4A56574  22.397  21.253   7.342
 4454POPC   C1B56575  21.998  21.540   6.190
 4454POPC   C2B56576  21.886  21.597   6.603
 4454POPC   C3B56577  21.823  21.751   7.007
 4454POPC   C4B56578  22.057  21.639   7.337
 4455POPC   NC356579  18.418  34.920   5.425
 4455POPC   PO456580  18.476  34.250   5.370
 4455POPC   GL156581  18.644  34.504   5.751
 4455POPC   GL256582  18.526  34.855   5.911
 4455POPC   C1A56583  18.541  34.436   6.213
 4455POPC   D2A56584  18.170  34.325   6.483
 4455POPC   C3A56585  18.330  34.290   6.903
 4455POPC   C4A56586  18.451  34.336   7.345
 4455POPC   C1B56587  18.203  34.847   6.251
 4455POPC   C2B56588  18.285  34.786   6.698
 4455POPC   C3B56589  18.282  34.750   7.140
 4455POPC   C4B56590  18.510  34.782   7.572
 4456POPC   NC356591  40.822  38.240   5.308
 4456POPC   PO456592  41.401  38.203   5.605
 4456POPC   GL156593  41.087  38.116   5.906
 4456POPC   GL256594  41.149  38.430   6.075
 4456POPC   C1A56595  40.820  38.127   6.297
 4456POPC   D2A56596  40.748  38.348   6.683
 4456POPC   C3A56597  40.999  38.427   7.029
 4456POPC   C4A56598  40.728  38.595   7.291
 4456POPC   C1B56599  40.854  38.685   6.332
 4456POPC   C2B56600  40.853  38.866   6.784
 4456POPC   C3B56601  41.162  38.899   7.118
 4456POPC   C4B56602  41.218  38.673   7.514
 4457POPC   NC356603   1.587   0.629   5.162
 4457POPC   PO456604   0.990   0.777   5.322
 4457POPC   GL156605   1.174   0.555   5.698
 4457POPC   GL256606   1.379   0.830   5.844
 4457POPC   C1A56607   1.155   0.279   6.113
 4457POPC   D2A56608   1.139   0.419   6.562
 4457POPC   C3A56609   1.205   0.346   7.005
 4457POPC   C4A56610   1.130   0.701   7.269
 4457POPC   C1B56611   1.478   0.656   6.257
 4457POPC   C2B56612   1.633   0.520   6.676
 4457POPC   C3B56613   1.609   0.697   7.095
 4457POPC   C4B56614   1.556   0.659   7.565
 4458POPC   NC356615   6.725   4.527   5.529
 4458POPC   PO456616   7.003   3.909   5.355
 4458POPC   GL156617   6.915   3.961   5.824
 4458POPC   GL256618   6.708   4.229   5.963
 4458POPC   C1A56619   6.852   3.872   6.285
 4458POPC   D2A56620   6.558   3.941   6.630
 4458POPC   C3A56621   6.687   4.120   7.030
 4458POPC   C4A56622   6.494   4.306   7.407
 4458POPC   C1B56623   6.631   4.384   6.374
 4458POPC   C2B56624   6.869   4.545   6.725
 4458POPC   C3B56625   6.811   4.590   7.151
 4458POPC   C4B56626   6.868   4.611   7.609
 4459POPC   NC356627  34.723   3.033   5.541
 4459POPC   PO456628  34.365   2.472   5.546
 4459POPC   GL156629  34.558   2.676   5.878
 4459POPC   GL256630  34.914   2.625   5.790
 4459POPC   C1A56631  34.408   2.826   6.270
 4459POPC   D2A56632  34.336   2.624   6.641
 4459POPC   C3A56633  34.352   2.816   7.008
 4459POPC   C4A56634  34.496   2.508   7.271
 4459POPC   C1B56635  34.922   2.924   6.170
 4459POPC   C2B56636  34.836   2.814   6.607
 4459POPC   C3B56637  34.857   2.850   7.051
 4459POPC   C4B56638  34.997   2.528   7.321
 4460POPC   NC356639   8.981  41.146   5.391
 4460POPC   PO456640   9.112  40.526   5.338
 4460POPC   GL156641   8.854  40.719   5.644
 4460POPC   GL256642   9.157  40.754   5.826
 4460POPC   C1A56643   8.672  40.767   6.053
 4460POPC   D2A56644   8.661  40.625   6.484
 4460POPC   C3A56645   8.833  40.886   6.790
 4460POPC   C4A56646   8.921  40.741   7.166
 4460POPC   C1B56647   9.128  40.873   6.264
 4460POPC   C2B56648   9.406  40.978   6.578
 4460POPC   C3B56649   9.389  40.757   6.940
 4460POPC   C4B56650   9.378  40.871   7.340
 4461POPC   NC356651  16.446  37.652   5.187
 4461POPC   PO456652  16.954  37.995   5.315
 4461POPC   GL156653  16.773  37.653   5.613
 4461POPC   GL256654  16.388  37.629   5.708
 4461POPC   C1A56655  16.812  37.540   6.083
 4461POPC   D2A56656  16.896  37.766   6.498
 4461POPC   C3A56657  16.895  37.539   6.890
 4461POPC   C4A56658  16.904  37.722   7.281
 4461POPC   C1B56659  16.285  37.520   6.152
 4461POPC   C2B56660  16.458  37.476   6.605
 4461POPC   C3B56661  16.421  37.649   7.068
 4461POPC   C4B56662  16.477  37.604   7.550
 4462POPC   NC356663  12.946  17.658   5.388
 4462POPC   PO456664  12.981  17.015   5.373
 4462POPC   GL156665  12.891  17.269   5.781
 4462POPC   GL256666  13.083  17.539   5.852
 4462POPC   C1A56667  12.714  17.469   6.220
 4462POPC   D2A56668  12.760  17.841   6.550
 4462POPC   C3A56669  12.612  17.753   6.989
 4462POPC   C4A56670  12.536  17.342   7.165
 4462POPC   C1B56671  13.248  17.403   6.225
 4462POPC   C2B56672  13.300  17.719   6.532
 4462POPC   C3B56673  13.113  17.651   6.921
 4462POPC   C4B56674  13.132  17.234   7.011
 4463POPC   NC356675   6.747  25.862   5.436
 4463POPC   PO456676   6.027  26.039   5.408
 4463POPC   GL156677   6.270  26.049   5.846
 4463POPC   GL256678   6.562  25.826   5.900
 4463POPC   C1A56679   6.393  26.056   6.335
 4463POPC   D2A56680   6.302  26.019   6.820
 4463POPC   C3A56681   6.538  26.186   7.197
 4463POPC   C4A56682   6.525  26.353   7.609
 4463POPC   C1B56683   6.881  26.042   6.142
 4463POPC   C2B56684   6.897  26.172   6.553
 4463POPC   C3B56685   6.820  25.904   6.868
 4463POPC   C4B56686   7.024  25.759   7.196
 4464POPC   NC356687  10.722  18.561   5.538
 4464POPC   PO456688  10.476  18.036   5.116
 4464POPC   GL156689  10.381  18.087   5.647
 4464POPC   GL256690  10.671  18.162   5.907
 4464POPC   C1A56691  10.248  18.238   6.126
 4464POPC   D2A56692  10.347  18.482   6.527
 4464POPC   C3A56693  10.298  18.255   6.931
 4464POPC   C4A56694  10.246  18.396   7.354
 4464POPC   C1B56695  10.800  18.314   6.322
 4464POPC   C2B56696  10.829  18.245   6.793
 4464POPC   C3B56697  10.724  18.285   7.227
 4464POPC   C4B56698  10.789  18.514   7.606
 4465POPC   NC356699   3.235   6.130   5.444
 4465POPC   PO456700   3.912   5.931   5.397
 4465POPC   GL156701   3.651   5.954   5.783
 4465POPC   GL256702   3.325   5.844   5.841
 4465POPC   C1A56703   3.652   6.036   6.225
 4465POPC   D2A56704   3.448   6.010   6.643
 4465POPC   C3A56705   3.739   6.119   6.966
 4465POPC   C4A56706   4.053   5.895   7.159
 4465POPC   C1B56707   3.298   5.655   6.221
 4465POPC   C2B56708   3.557   5.450   6.524
 4465POPC   C3B56709   3.660   5.605   6.910
 4465POPC   C4B56710   3.273   5.688   7.087
 4466POPC   NC356711  42.537   7.824   5.504
 4466POPC   PO456712  42.539   7.251   5.463
 4466POPC   GL156713  42.302   7.285   5.855
 4466POPC   GL256714  42.449   7.585   5.960
 4466POPC   C1A56715  42.317   7.232   6.319
 4466POPC   D2A56716  42.592   7.373   6.651
 4466POPC   C3A56717  42.424   7.342   7.041
 4466POPC   C4A56718  42.007   7.293   7.055
 4466POPC   C1B56719  42.499   7.835   6.334
 4466POPC   C2B56720  42.538   7.873   6.758
 4466POPC   C3B56721  42.570   7.802   7.193
 4466POPC   C4B56722  42.701   7.462   7.479
 4467POPC   NC356723   4.511  41.107   5.438
 4467POPC   PO456724   3.890  40.924   5.520
 4467POPC   GL156725   4.242  40.811   5.776
 4467POPC   GL256726   4.596  40.660   5.635
 4467POPC   C1A56727   4.277  40.996   6.188
 4467POPC   D2A56728   4.585  40.955   6.506
 4467POPC   C3A56729   4.429  40.859   6.915
 4467POPC   C4A56730   4.167  40.780   7.271
 4467POPC   C1B56731   4.657  40.659   6.069
 4467POPC   C2B56732   4.624  40.440   6.440
 4467POPC   C3B56733   4.714  40.420   6.849
 4467POPC   C4B56734   4.546  40.458   7.253
 4468POPC   NC356735  43.665  43.316   5.471
 4468POPC   PO456736  44.330  43.251   5.477
 4468POPC   GL156737  44.035  43.044   5.728
 4468POPC   GL256738  44.064  43.345   5.938
 4468POPC   C1A56739  43.702  42.991   6.068
 4468POPC   D2A56740  43.770  43.177   6.456
 4468POPC   C3A56741  43.707  42.991   6.854
 4468POPC   C4A56742  43.850  43.002   7.294
 4468POPC   C1B56743  44.233  43.047   6.220
 4468POPC   C2B56744  44.210  42.982   6.665
 4468POPC   C3B56745  44.282  43.153   7.072
 4468POPC   C4B56746  44.373  42.977   7.484
 4469POPC   NC356747  30.499  27.828   5.639
 4469POPC   PO456748  30.931  27.351   5.393
 4469POPC   GL156749  30.769  27.413   5.805
 4469POPC   GL256750  30.424  27.312   5.779
 4469POPC   C1A56751  30.657  27.580   6.228
 4469POPC   D2A56752  30.816  27.667   6.630
 4469POPC   C3A56753  30.646  27.549   7.027
 4469POPC   C4A56754  30.556  27.855   7.364
 4469POPC   C1B56755  30.302  27.230   6.202
 4469POPC   C2B56756  30.245  27.479   6.632
 4469POPC   C3B56757  30.157  27.573   7.119
 4469POPC   C4B56758  30.382  27.382   7.472
 4470POPC   NC356759  39.565  11.390   5.398
 4470POPC   PO456760  39.952  10.931   5.212
 4470POPC   GL156761  39.962  11.190   5.652
 4470POPC   GL256762  39.614  11.167   5.828
 4470POPC   C1A56763  39.922  11.485   6.047
 4470POPC   D2A56764  39.952  11.617   6.501
 4470POPC   C3A56765  40.202  11.283   6.705
 4470POPC   C4A56766  40.312  11.131   7.088
 4470POPC   C1B56767  39.449  11.327   6.180
 4470POPC   C2B56768  39.618  11.194   6.532
 4470POPC   C3B56769  39.779  11.137   6.916
 4470POPC   C4B56770  39.907  11.474   7.089
 4471POPC   NC356771   1.036  25.442   5.367
 4471POPC   PO456772   1.483  25.068   5.579
 4471POPC   GL156773   1.136  25.156   5.811
 4471POPC   GL256774   1.301  25.472   5.812
 4471POPC   C1A56775   1.142  25.213   6.256
 4471POPC   D2A56776   1.406  25.127   6.593
 4471POPC   C3A56777   1.256  24.972   7.024
 4471POPC   C4A56778   1.435  25.232   7.365
 4471POPC   C1B56779   1.520  25.556   6.183
 4471POPC   C2B56780   1.253  25.641   6.535
 4471POPC   C3B56781   1.203  25.473   6.951
 4471POPC   C4B56782   0.929  25.307   7.295
 4472POPC   NC356783   8.269  15.789   5.263
 4472POPC   PO456784   8.295  15.124   5.351
 4472POPC   GL156785   8.255  15.069   5.775
 4472POPC   GL256786   8.015  15.370   5.787
 4472POPC   C1A56787   8.434  14.895   6.172
 4472POPC   D2A56788   8.292  14.788   6.589
 4472POPC   C3A56789   8.452  14.988   6.965
 4472POPC   C4A56790   8.061  15.089   7.161
 4472POPC   C1B56791   8.258  15.423   6.168
 4472POPC   C2B56792   8.397  15.299   6.557
 4472POPC   C3B56793   8.341  15.498   6.934
 4472POPC   C4B56794   8.273  15.509   7.359
 4473POPC   NC356795  22.050   5.338   5.692
 4473POPC   PO456796  22.508   4.856   5.516
 4473POPC   GL156797  22.274   4.905   5.865
 4473POPC   GL256798  21.940   4.817   5.714
 4473POPC   C1A56799  22.266   5.132   6.284
 4473POPC   D2A56800  22.385   5.361   6.689
 4473POPC   C3A56801  22.378   5.116   7.063
 4473POPC   C4A56802  22.019   5.016   7.303
 4473POPC   C1B56803  21.918   4.727   6.165
 4473POPC   C2B56804  21.687   4.831   6.529
 4473POPC   C3B56805  21.752   4.774   6.945
 4473POPC   C4B56806  21.644   4.647   7.363
 4474POPC   NC356807  18.582   3.315   5.468
 4474POPC   PO456808  17.956   3.579   5.589
 4474POPC   GL156809  18.273   3.645   5.898
 4474POPC   GL256810  18.138   3.916   6.055
 4474POPC   C1A56811  18.239   3.504   6.348
 4474POPC   D2A56812  18.019   3.542   6.729
 4474POPC   C3A56813  18.222   3.491   7.110
 4474POPC   C4A56814  18.639   3.586   7.209
 4474POPC   C1B56815  18.531   3.923   6.273
 4474POPC   C2B56816  18.569   3.755   6.690
 4474POPC   C3B56817  18.363   3.975   7.012
 4474POPC   C4B56818  17.929   3.926   7.108
 4475POPC   NC356819  44.610  43.607   5.612
 4475POPC   PO456820  44.697  43.032   5.131
 4475POPC   GL156821  44.756  42.881   5.613
 4475POPC   GL256822  44.620  43.133   5.864
 4475POPC   C1A56823  44.885  42.792   6.100
 4475POPC   D2A56824  44.781  43.038   6.480
 4475POPC   C3A56825  44.673  42.856   6.874
 4475POPC   C4A56826  44.730  42.678   7.243
 4475POPC   C1B56827  44.573  43.427   6.214
 4475POPC   C2B56828  44.694  43.681   6.541
 4475POPC   C3B56829  44.821  43.579   6.942
 4475POPC   C4B56830  44.784  43.221   7.248
 4476POPC   NC356831  11.973  17.431   5.337
 4476POPC   PO456832  12.513  17.767   5.538
 4476POPC   GL156833  12.267  17.520   5.838
 4476POPC   GL256834  11.903  17.567   5.828
 4476POPC   C1A56835  12.153  17.386   6.247
 4476POPC   D2A56836  12.317  17.504   6.642
 4476POPC   C3A56837  12.051  17.387   6.977
 4476POPC   C4A56838  12.079  17.375   7.411
 4476POPC   C1B56839  11.828  17.812   6.200
 4476POPC   C2B56840  11.757  17.697   6.627
 4476POPC   C3B56841  11.607  17.643   7.042
 4476POPC   C4B56842  11.344  17.826   7.361
 4477POPC   NC356843  32.504   0.542   5.125
 4477POPC   PO456844  33.104   0.313   5.325
 4477POPC   GL156845  33.106   0.412   5.752
 4477POPC   GL256846  33.339   0.142   5.844
 4477POPC   C1A56847  32.923   0.353   6.175
 4477POPC   D2A56848  32.679   0.210   6.552
 4477POPC   C3A56849  32.779   0.482   6.886
 4477POPC   C4A56850  32.950   0.619   7.254
 4477POPC   C1B56851  33.332   0.065   6.284
 4477POPC   C2B56852  33.195   0.314   6.636
 4477POPC   C3B56853  33.171   0.189   7.054
 4477POPC   C4B56854  33.482   0.024   7.295
 4478POPC   NC356855  27.342  18.691   5.358
 4478POPC   PO456856  27.754  19.302   5.419
 4478POPC   GL156857  27.484  19.145   5.706
 4478POPC   GL256858  27.787  19.131   5.909
 4478POPC   C1A56859  27.270  19.158   6.108
 4478POPC   D2A56860  27.326  19.347   6.542
 4478POPC   C3A56861  27.281  19.033   6.865
 4478POPC   C4A56862  27.365  18.927   7.291
 4478POPC   C1B56863  27.770  18.864   6.276
 4478POPC   C2B56864  27.784  18.838   6.725
 4478POPC   C3B56865  27.809  19.066   7.103
 4478POPC   C4B56866  27.832  19.102   7.557
 4479POPC   NC356867   3.974  33.231   5.413
 4479POPC   PO456868   4.510  32.868   5.377
 4479POPC   GL156869   4.320  33.049   5.751
 4479POPC   GL256870   4.551  33.310   5.760
 4479POPC   C1A56871   4.143  33.141   6.170
 4479POPC   D2A56872   4.357  33.194   6.551
 4479POPC   C3A56873   4.206  33.020   6.946
 4479POPC   C4A56874   4.407  33.020   7.337
 4479POPC   C1B56875   4.493  33.545   6.132
 4479POPC   C2B56876   4.659  33.612   6.542
 4479POPC   C3B56877   4.733  33.345   6.899
 4479POPC   C4B56878   4.678  33.456   7.295
 4480POPC   NC356879  37.101  12.044   5.376
 4480POPC   PO456880  36.445  12.261   5.281
 4480POPC   GL156881  36.683  12.079   5.638
 4480POPC   GL256882  36.907  12.305   5.788
 4480POPC   C1A56883  36.765  11.907   6.071
 4480POPC   D2A56884  37.104  11.912   6.398
 4480POPC   C3A56885  37.034  12.004   6.868
 4480POPC   C4A56886  36.711  11.958   7.201
 4480POPC   C1B56887  37.264  12.310   6.098
 4480POPC   C2B56888  37.374  12.384   6.516
 4480POPC   C3B56889  37.107  12.540   6.761
 4480POPC   C4B56890  37.126  12.489   7.166
 4481POPC   NC356891  23.125  24.727   5.214
 4481POPC   PO456892  22.612  24.379   5.469
 4481POPC   GL156893  22.853  24.543   5.812
 4481POPC   GL256894  23.201  24.606   5.752
 4481POPC   C1A56895  22.879  24.610   6.276
 4481POPC   D2A56896  23.078  24.586   6.694
 4481POPC   C3A56897  22.782  24.650   7.058
 4481POPC   C4A56898  22.752  24.760   7.526
 4481POPC   C1B56899  23.211  24.264   6.110
 4481POPC   C2B56900  23.192  24.096   6.554
 4481POPC   C3B56901  23.325  24.219   6.981
 4481POPC   C4B56902  23.148  24.444   7.321
 4482POPC   NC356903  15.150  32.246   5.419
 4482POPC   PO456904  15.644  32.546   5.247
 4482POPC   GL156905  15.531  32.421   5.734
 4482POPC   GL256906  15.454  32.054   5.797
 4482POPC   C1A56907  15.168  32.391   6.105
 4482POPC   D2A56908  14.949  32.389   6.545
 4482POPC   C3A56909  15.122  32.407   7.027
 4482POPC   C4A56910  14.997  32.391   7.530
 4482POPC   C1B56911  15.546  32.088   6.232
 4482POPC   C2B56912  15.328  32.057   6.641
 4482POPC   C3B56913  15.485  32.022   7.054
 4482POPC   C4B56914  15.472  32.287   7.399
 4483POPC   NC356915   2.470  12.510   5.414
 4483POPC   PO456916   2.975  12.978   5.319
 4483POPC   GL156917   2.726  12.882   5.696
 4483POPC   GL256918   2.892  12.598   5.819
 4483POPC   C1A56919   2.552  12.909   6.143
 4483POPC   D2A56920   2.805  12.772   6.530
 4483POPC   C3A56921   2.620  12.650   6.934
 4483POPC   C4A56922   2.508  12.941   7.242
 4483POPC   C1B56923   2.693  12.411   6.168
 4483POPC   C2B56924   2.907  12.247   6.540
 4483POPC   C3B56925   3.040  12.362   6.966
 4483POPC   C4B56926   3.057  12.793   7.143
 4484POPC   NC356927  32.957   6.351   5.513
 4484POPC   PO456928  32.751   7.018   5.461
 4484POPC   GL156929  32.733   6.756   5.804
 4484POPC   GL256930  33.100   6.761   5.811
 4484POPC   C1A56931  32.822   6.749   6.247
 4484POPC   D2A56932  32.957   6.541   6.607
 4484POPC   C3A56933  33.012   6.734   6.995
 4484POPC   C4A56934  32.802   6.694   7.403
 4484POPC   C1B56935  33.253   6.458   6.140
 4484POPC   C2B56936  33.414   6.311   6.537
 4484POPC   C3B56937  33.457   6.402   6.981
 4484POPC   C4B56938  33.265   6.525   7.391
 4485POPC   NC356939  19.418  18.400   5.319
 4485POPC   PO456940  18.950  17.933   5.256
 4485POPC   GL156941  19.094  18.046   5.703
 4485POPC   GL256942  19.227  18.380   5.791
 4485POPC   C1A56943  18.928  18.177   6.149
 4485POPC   D2A56944  18.913  18.508   6.503
 4485POPC   C3A56945  18.893  18.358   6.946
 4485POPC   C4A56946  19.043  18.039   7.230
 4485POPC   C1B56947  19.423  18.404   6.214
 4485POPC   C2B56948  19.435  18.520   6.645
 4485POPC   C3B56949  19.401  18.419   7.071
 4485POPC   C4B56950  19.141  18.587   7.388
 4486POPC   NC356951   4.754  33.710   5.498
 4486POPC   PO456952   5.272  33.334   5.248
 4486POPC   GL156953   5.239  33.770   5.581
 4486POPC   GL256954   4.995  33.604   5.914
 4486POPC   C1A56955   5.249  34.016   6.001
 4486POPC   D2A56956   5.162  33.767   6.393
 4486POPC   C3A56957   5.304  33.811   6.816
 4486POPC   C4A56958   5.210  33.770   7.235
 4486POPC   C1B56959   4.769  33.978   6.146
 4486POPC   C2B56960   4.833  34.110   6.593
 4486POPC   C3B56961   4.771  33.880   6.990
 4486POPC   C4B56962   4.808  33.930   7.460
 4487POPC   NC356963   9.626  41.668   5.129
 4487POPC   PO456964   9.380  41.221   5.595
 4487POPC   GL156965   9.642  41.478   5.862
 4487POPC   GL256966   9.761  41.713   5.662
 4487POPC   C1A56967   9.686  41.580   6.267
 4487POPC   D2A56968   9.513  41.490   6.655
 4487POPC   C3A56969   9.751  41.509   6.982
 4487POPC   C4A56970   9.631  41.305   7.333
 4487POPC   C1B56971   9.958  41.960   6.048
 4487POPC   C2B56972   9.916  41.936   6.543
 4487POPC   C3B56973  10.041  41.942   7.005
 4487POPC   C4B56974   9.948  41.729   7.399
 4488POPC   NC356975  25.283   0.738   5.299
 4488POPC   PO456976  24.763   1.248   5.402
 4488POPC   GL156977  25.203   1.344   5.616
 4488POPC   GL256978  25.270   1.034   5.748
 4488POPC   C1A56979  25.486   1.392   6.037
 4488POPC   D2A56980  25.349   1.214   6.466
 4488POPC   C3A56981  25.231   1.436   6.858
 4488POPC   C4A56982  25.534   1.687   7.094
 4488POPC   C1B56983  24.995   1.213   6.082
 4488POPC   C2B56984  24.895   0.979   6.453
 4488POPC   C3B56985  25.108   0.913   6.844
 4488POPC   C4B56986  25.027   1.132   7.249
 4489POPC   NC356987  21.389  32.571   5.513
 4489POPC   PO456988  21.667  31.963   5.341
 4489POPC   GL156989  21.528  32.028   5.778
 4489POPC   GL256990  21.199  32.116   5.728
 4489POPC   C1A56991  21.579  32.342   6.177
 4489POPC   D2A56992  21.586  32.593   6.612
 4489POPC   C3A56993  21.449  32.421   7.041
 4489POPC   C4A56994  21.508  32.030   7.312
 4489POPC   C1B56995  21.208  31.997   6.185
 4489POPC   C2B56996  21.294  32.156   6.604
 4489POPC   C3B56997  21.129  31.991   6.985
 4489POPC   C4B56998  20.806  31.856   7.293
 4490POPC   NC356999  18.555  35.563   5.492
 4490POPC   PO457000  18.011  35.130   5.471
 4490POPC   GL157001  18.214  35.325   5.817
 4490POPC   GL257002  17.997  35.624   5.856
 4490POPC   C1A57003  18.200  35.376   6.269
 4490POPC   D2A57004  17.992  35.197   6.612
 4490POPC   C3A57005  18.184  35.235   7.002
 4490POPC   C4A57006  18.602  35.153   7.219
 4490POPC   C1B57007  17.974  35.836   6.270
 4490POPC   C2B57008  17.962  35.697   6.697
 4490POPC   C3B57009  18.285  35.744   7.004
 4490POPC   C4B57010  18.318  35.538   7.391
 4491POPC   NC357011  22.971  27.915   5.355
 4491POPC   PO457012  22.504  27.443   5.401
 4491POPC   GL157013  22.647  27.587   5.852
 4491POPC   GL257014  22.931  27.814   5.841
 4491POPC   C1A57015  22.913  27.483   6.261
 4491POPC   D2A57016  23.149  27.350   6.650
 4491POPC   C3A57017  22.997  27.535   7.032
 4491POPC   C4A57018  22.612  27.360   7.249
 4491POPC   C1B57019  22.972  27.985   6.237
 4491POPC   C2B57020  22.874  27.849   6.636
 4491POPC   C3B57021  22.763  28.078   6.982
 4491POPC   C4B57022  22.688  27.857   7.281
 4492POPC   NC357023  27.749  39.783   5.245
 4492POPC   PO457024  27.288  40.260   5.279
 4492POPC   GL157025  27.358  39.977   5.630
 4492POPC   GL257026  27.689  40.103   5.761
 4492POPC   C1A57027  27.375  39.814   6.055
 4492POPC   D2A57028  27.613  40.023   6.403
 4492POPC   C3A57029  27.599  39.866   6.823
 4492POPC   C4A57030  27.666  40.052   7.234
 4492POPC   C1B57031  27.392  40.329   6.051
 4492POPC   C2B57032  27.332  40.452   6.509
 4492POPC   C3B57033  27.399  40.423   6.984
 4492POPC   C4B57034  27.289  40.293   7.459
 4493POPC   NC357035  28.148  43.953   5.699
 4493POPC   PO457036  28.678  43.691   5.364
 4493POPC   GL157037  28.590  43.700   5.790
 4493POPC   GL257038  28.648  44.055   5.780
 4493POPC   C1A57039  28.432  43.676   6.222
 4493POPC   D2A57040  28.438  43.578   6.650
 4493POPC   C3A57041  28.131  43.719   6.936
 4493POPC   C4A57042  28.140  43.720   7.381
 4493POPC   C1B57043  28.654  44.134   6.215
 4493POPC   C2B57044  28.508  44.171   6.644
 4493POPC   C3B57045  28.653  43.911   6.966
 4493POPC   C4B57046  28.573  43.499   7.149
 4494POPC   NC357047  30.902  19.212   5.430
 4494POPC   PO457048  31.483  18.873   5.383
 4494POPC   GL157049  31.639  19.009   5.785
 4494POPC   GL257050  31.371  19.269   5.823
 4494POPC   C1A57051  31.582  18.896   6.230
 4494POPC   D2A57052  31.380  18.972   6.647
 4494POPC   C3A57053  31.573  18.891   7.051
 4494POPC   C4A57054  31.369  18.724   7.387
 4494POPC   C1B57055  31.227  19.551   6.183
 4494POPC   C2B57056  31.173  19.524   6.618
 4494POPC   C3B57057  31.157  19.561   7.054
 4494POPC   C4B57058  31.302  19.261   7.405
 4495POPC   NC357059   6.154  28.590   5.582
 4495POPC   PO457060   6.519  28.056   5.427
 4495POPC   GL157061   6.468  28.210   5.840
 4495POPC   GL257062   6.692  28.486   5.807
 4495POPC   C1A57063   6.459  28.368   6.273
 4495POPC   D2A57064   6.561  28.605   6.632
 4495POPC   C3A57065   6.405  28.504   7.012
 4495POPC   C4A57066   6.572  28.207   7.248
 4495POPC   C1B57067   6.941  28.305   6.112
 4495POPC   C2B57068   7.048  28.381   6.523
 4495POPC   C3B57069   7.104  28.395   6.947
 4495POPC   C4B57070   6.967  28.508   7.348
 4496POPC   NC357071   3.893  28.993   5.356
 4496POPC   PO457072   3.325  29.303   5.507
 4496POPC   GL157073   3.617  29.132   5.792
 4496POPC   GL257074   3.850  29.392   5.746
 4496POPC   C1A57075   3.557  29.192   6.232
 4496POPC   D2A57076   3.413  29.396   6.627
 4496POPC   C3A57077   3.244  29.070   6.881
 4496POPC   C4A57078   3.196  28.885   7.271
 4496POPC   C1B57079   3.961  29.516   6.166
 4496POPC   C2B57080   3.930  29.284   6.557
 4496POPC   C3B57081   3.773  29.176   6.919
 4496POPC   C4B57082   4.052  29.153   7.216
 4497POPC   NC357083  40.694  37.385   5.279
 4497POPC   PO457084  41.080  37.878   5.183
 4497POPC   GL157085  40.890  37.742   5.608
 4497POPC   GL257086  40.602  37.917   5.796
 4497POPC   C1A57087  40.909  37.588   6.061
 4497POPC   D2A57088  40.961  37.676   6.519
 4497POPC   C3A57089  40.739  37.433   6.901
 4497POPC   C4A57090  40.921  37.317   7.340
 4497POPC   C1B57091  40.459  37.778   6.258
 4497POPC   C2B57092  40.566  37.889   6.740
 4497POPC   C3B57093  40.616  38.113   7.145
 4497POPC   C4B57094  40.547  38.249   7.615
 4498POPC   NC357095  43.055  37.968   5.460
 4498POPC   PO457096  43.706  37.870   5.481
 4498POPC   GL157097  43.433  37.653   5.808
 4498POPC   GL257098  43.097  37.497   5.751
 4498POPC   C1A57099  43.196  37.792   6.198
 4498POPC   D2A57100  43.285  38.087   6.555
 4498POPC   C3A57101  43.278  37.996   6.998
 4498POPC   C4A57102  43.000  37.861   7.324
 4498POPC   C1B57103  42.980  37.323   6.162
 4498POPC   C2B57104  43.107  37.469   6.590
 4498POPC   C3B57105  43.048  37.439   7.026
 4498POPC   C4B57106  43.088  37.405   7.476
 4499POPC   NC357107   8.579  19.397   5.684
 4499POPC   PO457108   8.116  19.069   5.348
 4499POPC   GL157109   8.112  19.024   5.812
 4499POPC   GL257110   8.414  18.886   5.839
 4499POPC   C1A57111   8.195  19.240   6.241
 4499POPC   D2A57112   8.240  19.438   6.663
 4499POPC   C3A57113   8.145  19.191   7.022
 4499POPC   C4A57114   7.863  19.334   7.317
 4499POPC   C1B57115   8.444  18.790   6.299
 4499POPC   C2B57116   8.488  18.994   6.654
 4499POPC   C3B57117   8.566  18.894   7.039
 4499POPC   C4B57118   8.398  18.837   7.438
 4500POPC   NC357119   1.950  27.830   5.346
 4500POPC   PO457120   1.739  27.174   5.647
 4500POPC   GL157121   1.959  27.544   5.768
 4500POPC   GL257122   1.779  27.879   5.819
 4500POPC   C1A57123   2.088  27.655   6.167
 4500POPC   D2A57124   1.818  27.693   6.528
 4500POPC   C3A57125   2.008  27.626   6.895
 4500POPC   C4A57126   2.147  27.295   7.144
 4500POPC   C1B57127   1.836  28.100   6.203
 4500POPC   C2B57128   1.708  28.175   6.648
 4500POPC   C3B57129   1.834  28.081   7.085
 4500POPC   C4B57130   1.780  28.073   7.553
 4501POPC   NC357131   7.066  37.694   5.498
 4501POPC   PO457132   7.723  37.643   5.419
 4501POPC   GL157133   7.483  37.773   5.804
 4501POPC   GL257134   7.225  37.499   5.943
 4501POPC   C1A57135   7.345  37.900   6.236
 4501POPC   D2A57136   7.434  37.797   6.664
 4501POPC   C3A57137   7.434  37.998   7.077
 4501POPC   C4A57138   7.153  37.931   7.423
 4501POPC   C1B57139   7.630  37.436   6.163
 4501POPC   C2B57140   7.804  37.465   6.577
 4501POPC   C3B57141   7.554  37.391   6.946
 4501POPC   C4B57142   7.371  37.457   7.304
 4502POPC   NC357143  40.531  14.236   5.189
 4502POPC   PO457144  41.118  13.997   5.421
 4502POPC   GL157145  40.960  14.147   5.839
 4502POPC   GL257146  40.609  14.277   5.773
 4502POPC   C1A57147  40.967  14.281   6.299
 4502POPC   D2A57148  40.770  14.666   6.493
 4502POPC   C3A57149  40.922  14.710   6.906
 4502POPC   C4A57150  41.293  14.710   7.144
 4502POPC   C1B57151  40.476  14.284   6.223
 4502POPC   C2B57152  40.319  14.380   6.627
 4502POPC   C3B57153  40.351  14.211   7.063
 4502POPC   C4B57154  40.712  13.956   7.194
 4503POPC   NC357155  12.047  37.463   5.424
 4503POPC   PO457156  11.761  38.031   5.473
 4503POPC   GL157157  11.997  37.820   5.811
 4503POPC   GL257158  12.345  37.764   5.723
 4503POPC   C1A57159  12.005  37.717   6.261
 4503POPC   D2A57160  11.941  37.987   6.631
 4503POPC   C3A57161  11.849  37.885   7.063
 4503POPC   C4A57162  12.170  37.821   7.384
 4503POPC   C1B57163  12.481  37.570   6.140
 4503POPC   C2B57164  12.512  37.801   6.524
 4503POPC   C3B57165  12.325  37.733   6.920
 4503POPC   C4B57166  12.301  37.346   7.200
 4504POPC   NC357167  28.052  42.114   5.535
 4504POPC   PO457168  27.482  42.614   5.497
 4504POPC   GL157169  27.650  42.372   5.816
 4504POPC   GL257170  27.534  42.581   6.066
 4504POPC   C1A57171  27.857  42.239   6.241
 4504POPC   D2A57172  27.579  42.339   6.579
 4504POPC   C3A57173  27.730  42.291   6.970
 4504POPC   C4A57174  27.562  42.548   7.243
 4504POPC   C1B57175  27.374  42.088   6.163
 4504POPC   C2B57176  27.227  41.836   6.550
 4504POPC   C3B57177  27.303  41.971   6.976
 4504POPC   C4B57178  27.122  42.157   7.362
 4505POPC   NC357179  18.355   6.892   5.436
 4505POPC   PO457180  17.745   6.629   5.586
 4505POPC   GL157181  18.171   6.568   5.802
 4505POPC   GL257182  18.466   6.796   5.907
 4505POPC   C1A57183  18.254   6.503   6.236
 4505POPC   D2A57184  18.086   6.633   6.625
 4505POPC   C3A57185  18.294   6.433   6.954
 4505POPC   C4A57186  18.327   6.548   7.348
 4505POPC   C1B57187  18.619   6.875   6.293
 4505POPC   C2B57188  18.543   6.844   6.710
 4505POPC   C3B57189  18.645   6.895   7.126
 4505POPC   C4B57190  18.675   6.829   7.562
 4506POPC   NC357191  32.487   7.128   5.093
 4506POPC   PO457192  31.892   7.196   5.406
 4506POPC   GL157193  31.964   7.444   5.751
 4506POPC   GL257194  32.289   7.599   5.639
 4506POPC   C1A57195  32.069   7.298   6.166
 4506POPC   D2A57196  31.940   7.058   6.501
 4506POPC   C3A57197  32.107   7.285   6.823
 4506POPC   C4A57198  32.313   7.171   7.173
 4506POPC   C1B57199  32.485   7.626   6.050
 4506POPC   C2B57200  32.614   7.523   6.472
 4506POPC   C3B57201  32.514   7.610   6.888
 4506POPC   C4B57202  32.627   7.517   7.318
 4507POPC   NC357203  16.267  38.312   5.364
 4507POPC   PO457204  15.621  38.277   5.216
 4507POPC   GL157205  15.773  38.253   5.685
 4507POPC   GL257206  16.095  38.068   5.774
 4507POPC   C1A57207  15.689  38.389   6.128
 4507POPC   D2A57208  15.667  38.709   6.497
 4507POPC   C3A57209  15.764  38.579   6.924
 4507POPC   C4A57210  15.736  38.423   7.349
 4507POPC   C1B57211  16.155  38.202   6.201
 4507POPC   C2B57212  15.952  38.213   6.617
 4507POPC   C3B57213  16.145  38.237   7.047
 4507POPC   C4B57214  16.453  38.534   7.190
 4508POPC   NC357215   8.669  29.738   5.530
 4508POPC   PO457216   9.158  30.200   5.288
 4508POPC   GL157217   9.078  29.992   5.711
 4508POPC   GL257218   9.212  29.648   5.827
 4508POPC   C1A57219   8.883  29.884   6.136
 4508POPC   D2A57220   8.894  29.727   6.544
 4508POPC   C3A57221   8.899  30.007   6.883
 4508POPC   C4A57222   8.831  29.868   7.257
 4508POPC   C1B57223   9.371  29.848   6.273
 4508POPC   C2B57224   9.386  29.958   6.729
 4508POPC   C3B57225   9.360  29.914   7.215
 4508POPC   C4B57226   9.344  30.074   7.672
 4509POPC   NC357227  41.848  34.388   5.432
 4509POPC   PO457228  41.190  34.589   5.401
 4509POPC   GL157229  41.433  34.703   5.807
 4509POPC   GL257230  41.633  34.386   5.907
 4509POPC   C1A57231  41.600  34.784   6.249
 4509POPC   D2A57232  41.559  34.533   6.624
 4509POPC   C3A57233  41.383  34.650   7.042
 4509POPC   C4A57234  41.339  34.950   7.410
 4509POPC   C1B57235  41.972  34.379   6.241
 4509POPC   C2B57236  42.035  34.410   6.697
 4509POPC   C3B57237  41.907  34.757   6.949
 4509POPC   C4B57238  41.788  34.741   7.349
 4510POPC   NC357239   5.759  17.599   5.416
 4510POPC   PO457240   6.296  17.306   5.199
 4510POPC   GL157241   6.089  17.349   5.700
 4510POPC   GL257242   5.693  17.284   5.822
 4510POPC   C1A57243   6.119  17.577   6.129
 4510POPC   D2A57244   5.987  17.412   6.549
 4510POPC   C3A57245   6.186  17.553   6.979
 4510POPC   C4A57246   5.960  17.650   7.382
 4510POPC   C1B57247   5.615  17.526   6.217
 4510POPC   C2B57248   5.562  17.715   6.661
 4510POPC   C3B57249   5.517  17.576   7.109
 4510POPC   C4B57250   5.433  17.470   7.576
 4511POPC   NC357251  39.678  10.371   5.564
 4511POPC   PO457252  40.435  10.537   5.450
 4511POPC   GL157253  40.135  10.523   5.772
 4511POPC   GL257254  39.865  10.734   5.857
 4511POPC   C1A57255  40.216  10.626   6.204
 4511POPC   D2A57256  39.996  10.852   6.496
 4511POPC   C3A57257  40.000  10.683   6.905
 4511POPC   C4A57258  40.258  10.662   7.255
 4511POPC   C1B57259  39.726  10.462   6.196
 4511POPC   C2B57260  39.854  10.281   6.543
 4511POPC   C3B57261  39.672  10.289   6.899
 4511POPC   C4B57262  39.923  10.281   7.231
 4512POPC   NC357263  14.006  28.358   5.629
 4512POPC   PO457264  13.336  28.109   5.542
 4512POPC   GL157265  13.501  28.447   5.809
 4512POPC   GL257266  13.548  28.785   5.692
 4512POPC   C1A57267  13.642  28.558   6.216
 4512POPC   D2A57268  13.545  28.322   6.584
 4512POPC   C3A57269  13.728  28.382   6.958
 4512POPC   C4A57270  13.813  28.255   7.376
 4512POPC   C1B57271  13.312  28.934   6.059
 4512POPC   C2B57272  13.207  28.772   6.466
 4512POPC   C3B57273  13.402  28.759   6.872
 4512POPC   C4B57274  13.600  28.730   7.303
 4513POPC   NC357275  11.373  32.591   5.472
 4513POPC   PO457276  10.929  32.118   5.306
 4513POPC   GL157277  10.972  32.088   5.745
 4513POPC   GL257278  11.212  31.844   5.843
 4513POPC   C1A57279  11.105  32.246   6.160
 4513POPC   D2A57280  10.937  32.351   6.542
 4513POPC   C3A57281  11.214  32.222   6.884
 4513POPC   C4A57282  11.146  32.424   7.283
 4513POPC   C1B57283  11.515  31.921   6.199
 4513POPC   C2B57284  11.643  32.127   6.551
 4513POPC   C3B57285  11.808  32.046   6.939
 4513POPC   C4B57286  11.538  32.089   7.263
 4514POPC   NC357287  30.940  44.725   5.501
 4514POPC   PO457288  30.343  44.307   5.414
 4514POPC   GL157289  30.593  44.440   5.771
 4514POPC   GL257290  30.937  44.426   5.925
 4514POPC   C1A57291  30.562  44.706   6.145
 4514POPC   D2A57292  30.760  44.773   6.530
 4514POPC   C3A57293  30.643  44.765   6.923
 4514POPC   C4A57294  30.784  44.617   7.307
 4514POPC   C1B57295  31.091  44.829   6.154
 4514POPC   C2B57296  31.133   0.091   6.534
 4514POPC   C3B57297  31.120  44.976   6.978
 4514POPC   C4B57298  31.276  44.788   7.374
 4515POPC   NC357299  32.824  29.587   5.172
 4515POPC   PO457300  33.302  30.061   5.381
 4515POPC   GL157301  33.134  30.092   5.807
 4515POPC   GL257302  32.754  30.075   5.880
 4515POPC   C1A57303  33.099  29.958   6.246
 4515POPC   D2A57304  32.961  30.057   6.677
 4515POPC   C3A57305  33.197  29.889   6.964
 4515POPC   C4A57306  33.088  29.769   7.335
 4515POPC   C1B57307  32.646  29.742   6.250
 4515POPC   C2B57308  32.810  29.576   6.670
 4515POPC   C3B57309  32.663  29.692   7.079
 4515POPC   C4B57310  32.659  29.617   7.543
 4516POPC   NC357311  34.861   1.150   5.375
 4516POPC   PO457312  34.242   1.480   5.518
 4516POPC   GL157313  34.483   1.448   5.888
 4516POPC   GL257314  34.853   1.386   5.824
 4516POPC   C1A57315  34.431   1.373   6.321
 4516POPC   D2A57316  34.516   0.977   6.509
 4516POPC   C3A57317  34.558   1.024   6.940
 4516POPC   C4A57318  34.543   0.839   7.354
 4516POPC   C1B57319  34.913   1.201   6.213
 4516POPC   C2B57320  34.894   1.402   6.601
 4516POPC   C3B57321  34.787   1.762   6.816
 4516POPC   C4B57322  34.585   1.598   7.181
 4517POPC   NC357323  30.102  14.694   5.453
 4517POPC   PO457324  29.721  14.171   5.323
 4517POPC   GL157325  29.758  14.339   5.747
 4517POPC   GL257326  30.103  14.297   5.841
 4517POPC   C1A57327  29.758  14.394   6.228
 4517POPC   D2A57328  29.639  14.243   6.648
 4517POPC   C3A57329  29.928  14.286   7.075
 4517POPC   C4A57330  29.784  14.495   7.460
 4517POPC   C1B57331  30.291  14.239   6.285
 4517POPC   C2B57332  30.336  14.087   6.739
 4517POPC   C3B57333  30.317  13.958   7.175
 4517POPC   C4B57334  30.050  14.000   7.541
 4518POPC   NC357335  33.435  40.694   5.518
 4518POPC   PO457336  34.086  40.808   5.413
 4518POPC   GL157337  33.815  40.938   5.774
 4518POPC   GL257338  33.791  40.602   5.867
 4518POPC   C1A57339  33.580  40.924   6.202
 4518POPC   D2A57340  33.654  41.044   6.629
 4518POPC   C3A57341  33.618  40.916   7.072
 4518POPC   C4A57342  33.981  41.105   7.300
 4518POPC   C1B57343  33.492  40.406   6.173
 4518POPC   C2B57344  33.532  40.517   6.600
 4518POPC   C3B57345  33.593  40.383   7.002
 4518POPC   C4B57346  33.428  40.535   7.397
 4519POPC   NC357347   3.240   2.927   5.305
 4519POPC   PO457348   3.861   2.591   5.399
 4519POPC   GL157349   3.718   2.726   5.819
 4519POPC   GL257350   3.594   3.098   5.837
 4519POPC   C1A57351   3.593   2.491   6.225
 4519POPC   D2A57352   3.592   2.292   6.639
 4519POPC   C3A57353   3.460   2.628   6.894
 4519POPC   C4A57354   3.307   2.771   7.274
 4519POPC   C1B57355   3.679   3.018   6.267
 4519POPC   C2B57356   3.637   3.195   6.707
 4519POPC   C3B57357   3.584   3.188   7.195
 4519POPC   C4B57358   3.751   3.024   7.602
 4520POPC   NC357359  31.074  28.523   5.653
 4520POPC   PO457360  31.393  28.121   5.150
 4520POPC   GL157361  31.355  28.100   5.720
 4520POPC   GL257362  31.503  28.400   5.905
 4520POPC   C1A57363  31.498  27.975   6.200
 4520POPC   D2A57364  31.627  28.221   6.605
 4520POPC   C3A57365  31.436  28.167   7.027
 4520POPC   C4A57366  31.396  28.344   7.490
 4520POPC   C1B57367  31.305  28.449   6.283
 4520POPC   C2B57368  31.201  28.558   6.698
 4520POPC   C3B57369  31.131  28.569   7.122
 4520POPC   C4B57370  31.038  28.699   7.547
 4521POPC   NC357371  20.227  39.048   5.351
 4521POPC   PO457372  19.528  39.260   5.239
 4521POPC   GL157373  19.635  39.126   5.656
 4521POPC   GL257374  19.954  39.217   5.727
 4521POPC   C1A57375  19.606  39.358   6.061
 4521POPC   D2A57376  19.619  39.365   6.506
 4521POPC   C3A57377  19.825  39.238   6.893
 4521POPC   C4A57378  19.660  39.343   7.277
 4521POPC   C1B57379  20.103  39.252   6.140
 4521POPC   C2B57380  20.187  39.377   6.566
 4521POPC   C3B57381  20.353  39.380   6.981
 4521POPC   C4B57382  20.150  39.207   7.338
 4522POPC   NC357383  19.955  21.180   5.360
 4522POPC   PO457384  19.333  21.089   5.401
 4522POPC   GL157385  19.657  21.209   5.760
 4522POPC   GL257386  19.586  21.501   5.926
 4522POPC   C1A57387  19.894  21.218   6.182
 4522POPC   D2A57388  19.846  21.591   6.447
 4522POPC   C3A57389  19.822  21.596   6.877
 4522POPC   C4A57390  19.799  21.406   7.263
 4522POPC   C1B57391  19.336  21.607   6.265
 4522POPC   C2B57392  19.291  21.449   6.681
 4522POPC   C3B57393  19.352  21.627   7.083
 4522POPC   C4B57394  19.447  21.758   7.513
 4523POPC   NC357395  26.022  17.324   5.531
 4523POPC   PO457396  25.899  18.004   5.406
 4523POPC   GL157397  25.830  17.750   5.781
 4523POPC   GL257398  26.195  17.772   5.872
 4523POPC   C1A57399  25.944  17.497   6.177
 4523POPC   D2A57400  26.211  17.364   6.483
 4523POPC   C3A57401  25.973  17.262   6.841
 4523POPC   C4A57402  25.884  17.583   7.117
 4523POPC   C1B57403  26.363  17.825   6.286
 4523POPC   C2B57404  26.128  17.837   6.686
 4523POPC   C3B57405  26.225  17.950   7.116
 4523POPC   C4B57406  26.181  17.726   7.525
 4524POPC   NC357407   8.045   6.177   5.408
 4524POPC   PO457408   8.571   6.053   5.697
 4524POPC   GL157409   8.203   5.907   5.854
 4524POPC   GL257410   8.245   5.561   5.909
 4524POPC   C1A57411   7.883   5.764   6.195
 4524POPC   D2A57412   7.887   5.665   6.624
 4524POPC   C3A57413   7.951   5.913   7.048
 4524POPC   C4A57414   8.055   5.884   7.529
 4524POPC   C1B57415   8.373   5.751   6.325
 4524POPC   C2B57416   8.388   5.603   6.749
 4524POPC   C3B57417   8.422   5.709   7.167
 4524POPC   C4B57418   8.421   6.137   7.293
 4525POPC   NC357419  26.365  16.409   5.387
 4525POPC   PO457420  25.868  16.870   5.580
 4525POPC   GL157421  26.141  16.609   5.834
 4525POPC   GL257422  25.853  16.561   6.005
 4525POPC   C1A57423  26.265  16.548   6.295
 4525POPC   D2A57424  26.310  16.896   6.620
 4525POPC   C3A57425  26.356  16.984   7.060
 4525POPC   C4A57426  26.390  16.588   7.203
 4525POPC   C1B57427  25.912  16.940   6.281
 4525POPC   C2B57428  25.814  16.777   6.702
 4525POPC   C3B57429  25.910  16.731   7.140
 4525POPC   C4B57430  25.671  16.859   7.489
 4526POPC   NC357431  30.815  14.700   5.599
 4526POPC   PO457432  30.557  15.222   5.317
 4526POPC   GL157433  30.629  15.309   5.766
 4526POPC   GL257434  30.810  15.055   5.949
 4526POPC   C1A57435  30.752  15.495   6.190
 4526POPC   D2A57436  30.796  15.348   6.579
 4526POPC   C3A57437  30.486  15.534   6.818
 4526POPC   C4A57438  30.483  15.462   7.253
 4526POPC   C1B57439  30.418  15.123   6.190
 4526POPC   C2B57440  30.387  15.030   6.624
 4526POPC   C3B57441  30.573  14.996   7.033
 4526POPC   C4B57442  30.691  14.796   7.444
 4527POPC   NC357443   3.394  15.239   5.295
 4527POPC   PO457444   3.780  14.629   5.409
 4527POPC   GL157445   3.794  14.881   5.827
 4527POPC   GL257446   3.508  15.099   5.759
 4527POPC   C1A57447   3.732  15.177   6.204
 4527POPC   D2A57448   3.564  15.347   6.577
 4527POPC   C3A57449   3.776  15.236   6.953
 4527POPC   C4A57450   3.578  15.209   7.338
 4527POPC   C1B57451   3.297  14.936   6.116
 4527POPC   C2B57452   3.393  14.864   6.537
 4527POPC   C3B57453   3.299  15.013   6.953
 4527POPC   C4B57454   3.248  14.825   7.371
 4528POPC   NC357455  42.957  35.379   5.286
 4528POPC   PO457456  43.568  35.539   5.423
 4528POPC   GL157457  43.262  35.519   5.723
 4528POPC   GL257458  43.208  35.194   5.800
 4528POPC   C1A57459  43.078  35.542   6.147
 4528POPC   D2A57460  42.923  35.444   6.562
 4528POPC   C3A57461  42.975  35.656   6.965
 4528POPC   C4A57462  43.113  35.331   7.207
 4528POPC   C1B57463  42.874  35.008   6.047
 4528POPC   C2B57464  42.857  34.833   6.458
 4528POPC   C3B57465  42.952  34.983   6.859
 4528POPC   C4B57466  42.824  34.937   7.267
 4529POPC   NC357467  11.733  16.613   5.541
 4529POPC   PO457468  12.237  16.896   5.128
 4529POPC   GL157469  12.221  16.857   5.605
 4529POPC   GL257470  12.443  17.133   5.560
 4529POPC   C1A57471  12.071  16.778   6.092
 4529POPC   D2A57472  11.779  16.585   6.423
 4529POPC   C3A57473  11.950  16.565   6.847
 4529POPC   C4A57474  11.813  16.544   7.259
 4529POPC   C1B57475  12.488  17.061   6.008
 4529POPC   C2B57476  12.470  17.018   6.448
 4529POPC   C3B57477  12.476  16.899   6.882
 4529POPC   C4B57478  12.149  16.909   7.173
 4530POPC   NC357479  41.151  33.673   5.374
 4530POPC   PO457480  41.755  33.941   5.454
 4530POPC   GL157481  41.495  33.857   5.818
 4530POPC   GL257482  41.239  33.595   5.888
 4530POPC   C1A57483  41.466  34.012   6.229
 4530POPC   D2A57484  41.703  34.022   6.579
 4530POPC   C3A57485  41.488  34.103   6.935
 4530POPC   C4A57486  41.654  34.238   7.272
 4530POPC   C1B57487  41.175  33.609   6.360
 4530POPC   C2B57488  41.445  33.595   6.694
 4530POPC   C3B57489  41.542  33.635   7.134
 4530POPC   C4B57490  41.383  33.563   7.559
 4531POPC   NC357491  13.982  26.898   5.598
 4531POPC   PO457492  14.697  26.615   5.607
 4531POPC   GL157493  14.408  26.769   5.863
 4531POPC   GL257494  14.077  26.682   6.051
 4531POPC   C1A57495  14.534  26.809   6.268
 4531POPC   D2A57496  14.324  26.738   6.624
 4531POPC   C3A57497  14.630  26.760   6.951
 4531POPC   C4A57498  14.535  26.718   7.378
 4531POPC   C1B57499  14.170  27.148   6.138
 4531POPC   C2B57500  14.239  27.291   6.537
 4531POPC   C3B57501  14.084  27.072   6.923
 4531POPC   C4B57502  14.122  26.979   7.369
 4532POPC   NC357503  39.501  32.127   5.340
 4532POPC   PO457504  39.153  32.737   5.373
 4532POPC   GL157505  39.118  32.414   5.767
 4532POPC   GL257506  38.833  32.120   5.752
 4532POPC   C1A57507  39.177  32.417   6.260
 4532POPC   D2A57508  39.170  32.698   6.672
 4532POPC   C3A57509  39.353  32.537   7.076
 4532POPC   C4A57510  39.150  32.358   7.440
 4532POPC   C1B57511  39.098  31.907   6.084
 4532POPC   C2B57512  39.315  31.943   6.506
 4532POPC   C3B57513  39.193  32.068   6.926
 4532POPC   C4B57514  39.061  31.878   7.308
 4533POPC   NC357515   8.452  27.828   5.519
 4533POPC   PO457516   8.829  27.285   5.321
 4533POPC   GL157517   8.957  27.524   5.733
 4533POPC   GL257518   8.671  27.618   5.925
 4533POPC   C1A57519   9.114  27.603   6.210
 4533POPC   D2A57520   9.194  27.394   6.648
 4533POPC   C3A57521   9.150  27.646   7.054
 4533POPC   C4A57522   9.301  27.913   7.415
 4533POPC   C1B57523   8.532  27.875   6.255
 4533POPC   C2B57524   8.475  27.772   6.677
 4533POPC   C3B57525   8.662  27.867   7.030
 4533POPC   C4B57526   8.751  27.613   7.379
 4534POPC   NC357527   2.390  24.489   5.456
 4534POPC   PO457528   1.787  24.135   5.389
 4534POPC   GL157529   1.984  24.336   5.712
 4534POPC   GL257530   2.253  24.097   5.763
 4534POPC   C1A57531   1.994  24.608   6.084
 4534POPC   D2A57532   1.989  24.505   6.517
 4534POPC   C3A57533   1.797  24.637   6.874
 4534POPC   C4A57534   2.062  24.616   7.217
 4534POPC   C1B57535   2.060  24.115   6.168
 4534POPC   C2B57536   1.939  24.000   6.571
 4534POPC   C3B57537   1.959  24.148   6.979
 4534POPC   C4B57538   2.176  23.921   7.283
 4535POPC   NC357539  35.611  14.913   5.487
 4535POPC   PO457540  35.038  15.359   5.472
 4535POPC   GL157541  35.040  15.265   5.889
 4535POPC   GL257542  35.151  14.927   5.815
 4535POPC   C1A57543  35.105  15.373   6.334
 4535POPC   D2A57544  35.479  15.428   6.619
 4535POPC   C3A57545  35.345  15.410   7.043
 4535POPC   C4A57546  35.517  15.262   7.422
 4535POPC   C1B57547  35.347  14.921   6.235
 4535POPC   C2B57548  35.210  14.971   6.684
 4535POPC   C3B57549  35.258  14.906   7.130
 4535POPC   C4B57550  35.502  14.691   7.451
 4536POPC   NC357551  33.199   1.265   5.140
 4536POPC   PO457552  32.659   0.950   5.287
 4536POPC   GL157553  32.857   1.143   5.653
 4536POPC   GL257554  33.187   0.970   5.622
 4536POPC   C1A57555  32.796   1.310   6.101
 4536POPC   D2A57556  32.739   1.646   6.456
 4536POPC   C3A57557  32.850   1.527   6.910
 4536POPC   C4A57558  32.844   1.458   7.366
 4536POPC   C1B57559  33.063   0.850   6.060
 4536POPC   C2B57560  32.862   0.776   6.472
 4536POPC   C3B57561  32.882   0.991   6.890
 4536POPC   C4B57562  33.167   1.090   7.234
 4537POPC   NC357563  24.684  23.637   5.294
 4537POPC   PO457564  24.283  24.236   5.305
 4537POPC   GL157565  24.510  23.953   5.645
 4537POPC   GL257566  24.366  23.617   5.679
 4537POPC   C1A57567  24.703  23.755   6.049
 4537POPC   D2A57568  24.565  23.727   6.496
 4537POPC   C3A57569  24.606  23.835   6.922
 4537POPC   C4A57570  24.453  23.860   7.358
 4537POPC   C1B57571  24.265  23.438   6.064
 4537POPC   C2B57572  24.347  23.279   6.449
 4537POPC   C3B57573  24.268  23.424   6.843
 4537POPC   C4B57574  24.471  23.404   7.192
 4538POPC   NC357575  25.062  18.963   5.479
 4538POPC   PO457576  25.684  19.302   5.644
 4538POPC   GL157577  25.381  19.014   5.902
 4538POPC   GL257578  25.230  18.662   5.849
 4538POPC   C1A57579  25.016  18.973   6.192
 4538POPC   D2A57580  24.862  19.178   6.567
 4538POPC   C3A57581  25.230  19.263   6.832
 4538POPC   C4A57582  25.284  19.394   7.264
 4538POPC   C1B57583  25.042  18.454   6.241
 4538POPC   C2B57584  24.831  18.650   6.605
 4538POPC   C3B57585  24.935  18.669   7.052
 4538POPC   C4B57586  25.212  18.881   7.264
 4539POPC   NC357587  36.275  26.581   5.424
 4539POPC   PO457588  35.967  27.158   5.386
 4539POPC   GL157589  36.133  27.033   5.816
 4539POPC   GL257590  36.393  26.762   5.894
 4539POPC   C1A57591  36.072  27.015   6.269
 4539POPC   D2A57592  36.326  27.038   6.600
 4539POPC   C3A57593  36.223  26.811   6.928
 4539POPC   C4A57594  36.352  26.664   7.306
 4539POPC   C1B57595  36.013  26.558   6.027
 4539POPC   C2B57596  35.862  26.517   6.422
 4539POPC   C3B57597  35.989  26.375   6.804
 4539POPC   C4B57598  35.892  26.510   7.193
 4540POPC   NC357599   5.744  33.564   5.503
 4540POPC   PO457600   5.750  34.239   5.437
 4540POPC   GL157601   5.944  33.993   5.800
 4540POPC   GL257602   5.681  33.803   5.942
 4540POPC   C1A57603   6.132  33.734   6.163
 4540POPC   D2A57604   6.332  33.515   6.546
 4540POPC   C3A57605   6.120  33.654   6.945
 4540POPC   C4A57606   5.690  33.614   7.118
 4540POPC   C1B57607   5.697  34.245   6.158
 4540POPC   C2B57608   5.890  34.276   6.555
 4540POPC   C3B57609   5.776  34.109   6.936
 4540POPC   C4B57610   5.544  34.126   7.289
 4541POPC   NC357611  14.161   8.740   5.520
 4541POPC   PO457612  14.046   9.413   5.358
 4541POPC   GL157613  14.254   9.192   5.751
 4541POPC   GL257614  14.598   9.232   5.828
 4541POPC   C1A57615  14.287   8.952   6.174
 4541POPC   D2A57616  14.091   9.064   6.593
 4541POPC   C3A57617  14.264   8.883   6.998
 4541POPC   C4A57618  14.411   8.961   7.411
 4541POPC   C1B57619  14.710   9.292   6.241
 4541POPC   C2B57620  14.586   9.224   6.649
 4541POPC   C3B57621  14.774   9.050   7.020
 4541POPC   C4B57622  14.856   9.181   7.455
 4542POPC   NC357623  38.467  15.474   5.455
 4542POPC   PO457624  38.443  14.807   5.497
 4542POPC   GL157625  38.517  15.089   5.843
 4542POPC   GL257626  38.267  15.338   5.889
 4542POPC   C1A57627  38.489  15.044   6.293
 4542POPC   D2A57628  38.501  14.755   6.658
 4542POPC   C3A57629  38.421  15.040   7.009
 4542POPC   C4A57630  38.655  15.340   7.179
 4542POPC   C1B57631  38.180  15.509   6.259
 4542POPC   C2B57632  38.245  15.401   6.690
 4542POPC   C3B57633  38.174  15.539   7.118
 4542POPC   C4B57634  37.987  15.691   7.512
 4543POPC   NC357635  18.642  21.707   5.496
 4543POPC   PO457636  18.333  21.053   5.423
 4543POPC   GL157637  18.387  21.349   5.743
 4543POPC   GL257638  18.117  21.204   5.879
 4543POPC   C1A57639  18.438  21.517   6.166
 4543POPC   D2A57640  18.360  21.225   6.522
 4543POPC   C3A57641  18.424  21.182   6.973
 4543POPC   C4A57642  18.509  21.470   7.300
 4543POPC   C1B57643  17.923  21.439   6.186
 4543POPC   C2B57644  18.030  21.638   6.549
 4543POPC   C3B57645  18.120  21.615   6.970
 4543POPC   C4B57646  18.005  21.400   7.336
 4544POPC   NC357647  28.839   4.574   5.454
 4544POPC   PO457648  29.287   4.032   5.351
 4544POPC   GL157649  29.336   4.159   5.796
 4544POPC   GL257650  29.224   4.498   5.784
 4544POPC   C1A57651  29.060   4.243   6.196
 4544POPC   D2A57652  28.959   4.526   6.560
 4544POPC   C3A57653  28.766   4.496   6.967
 4544POPC   C4A57654  28.929   4.489   7.390
 4544POPC   C1B57655  29.320   4.701   6.189
 4544POPC   C2B57656  29.449   4.739   6.643
 4544POPC   C3B57657  29.266   4.708   7.084
 4544POPC   C4B57658  29.182   4.906   7.517
 4545POPC   NC357659  30.311  25.451   5.417
 4545POPC   PO457660  30.900  25.135   5.333
 4545POPC   GL157661  30.714  25.281   5.709
 4545POPC   GL257662  30.400  25.171   5.849
 4545POPC   C1A57663  30.691  25.517   6.097
 4545POPC   D2A57664  30.719  25.364   6.513
 4545POPC   C3A57665  30.528  25.550   6.880
 4545POPC   C4A57666  30.663  25.472   7.298
 4545POPC   C1B57667  30.177  25.094   6.233
 4545POPC   C2B57668  30.272  25.133   6.676
 4545POPC   C3B57669  30.592  25.043   6.941
 4545POPC   C4B57670  30.539  24.972   7.342
 4546POPC   NC357671  14.512  42.104   5.443
 4546POPC   PO457672  13.857  42.088   5.487
 4546POPC   GL157673  14.164  42.307   5.816
 4546POPC   GL257674  14.526  42.299   5.910
 4546POPC   C1A57675  14.212  42.553   6.209
 4546POPC   D2A57676  14.245  42.286   6.542
 4546POPC   C3A57677  14.226  42.460   6.944
 4546POPC   C4A57678  14.141  42.183   7.297
 4546POPC   C1B57679  14.726  42.404   6.293
 4546POPC   C2B57680  14.712  42.350   6.735
 4546POPC   C3B57681  14.580  42.116   7.082
 4546POPC   C4B57682  14.577  42.217   7.564
 4547POPC   NC357683  27.478  38.685   5.266
 4547POPC   PO457684  27.585  39.357   5.187
 4547POPC   GL157685  27.490  39.329   5.621
 4547POPC   GL257686  27.706  39.571   5.728
 4547POPC   C1A57687  27.368  39.289   6.071
 4547POPC   D2A57688  27.528  39.507   6.437
 4547POPC   C3A57689  27.374  39.362   6.819
 4547POPC   C4A57690  27.500  39.087   7.133
 4547POPC   C1B57691  27.910  39.737   6.075
 4547POPC   C2B57692  28.012  39.693   6.505
 4547POPC   C3B57693  27.876  39.392   6.822
 4547POPC   C4B57694  27.738  39.540   7.200
 4548POPC   NC357695  10.265  16.811   5.394
 4548POPC   PO457696  10.789  17.240   5.398
 4548POPC   GL157697  10.606  16.922   5.761
 4548POPC   GL257698  10.252  17.043   5.828
 4548POPC   C1A57699  10.472  16.595   6.141
 4548POPC   D2A57700  10.758  16.478   6.536
 4548POPC   C3A57701  10.637  16.606   6.959
 4548POPC   C4A57702  10.316  16.524   7.267
 4548POPC   C1B57703  10.419  17.086   6.221
 4548POPC   C2B57704  10.349  16.882   6.601
 4548POPC   C3B57705  10.377  17.051   7.007
 4548POPC   C4B57706  10.297  17.089   7.428
 4549POPC   NC357707  37.422   8.410   5.432
 4549POPC   PO457708  36.893   8.112   5.280
 4549POPC   GL157709  36.939   8.118   5.725
 4549POPC   GL257710  37.191   7.887   5.709
 4549POPC   C1A57711  36.794   8.083   6.168
 4549POPC   D2A57712  36.638   8.007   6.591
 4549POPC   C3A57713  36.824   8.187   6.963
 4549POPC   C4A57714  37.056   8.448   7.254
 4549POPC   C1B57715  37.290   7.891   6.151
 4549POPC   C2B57716  37.150   7.948   6.591
 4549POPC   C3B57717  37.301   8.011   7.032
 4549POPC   C4B57718  37.138   7.994   7.451
 4550POPC   NC357719  10.236  22.394   5.178
 4550POPC   PO457720  10.657  21.864   5.365
 4550POPC   GL157721  10.530  22.082   5.724
 4550POPC   GL257722  10.238  21.997   5.775
 4550POPC   C1A57723  10.647  22.286   6.153
 4550POPC   D2A57724  10.871  22.245   6.584
 4550POPC   C3A57725  10.670  22.309   6.989
 4550POPC   C4A57726  10.283  22.289   7.186
 4550POPC   C1B57727  10.331  21.868   6.173
 4550POPC   C2B57728  10.214  21.816   6.599
 4550POPC   C3B57729  10.416  21.824   6.991
 4550POPC   C4B57730  10.315  21.794   7.404
 4551POPC   NC357731   9.077  24.789   5.449
 4551POPC   PO457732   9.052  25.433   5.302
 4551POPC   GL157733   9.065  25.357   5.771
 4551POPC   GL257734   9.137  25.036   5.875
 4551POPC   C1A57735   8.951  25.501   6.193
 4551POPC   D2A57736   9.174  25.451   6.593
 4551POPC   C3A57737   8.928  25.479   6.975
 4551POPC   C4A57738   8.660  25.800   7.126
 4551POPC   C1B57739   8.905  24.988   6.234
 4551POPC   C2B57740   8.703  24.831   6.588
 4551POPC   C3B57741   8.926  24.939   6.952
 4551POPC   C4B57742   9.175  25.110   7.274
 4552POPC   NC357743   7.701  22.203   5.438
 4552POPC   PO457744   7.012  22.053   5.439
 4552POPC   GL157745   7.311  22.237   5.736
 4552POPC   GL257746   7.439  21.903   5.813
 4552POPC   C1A57747   7.605  22.349   6.092
 4552POPC   D2A57748   7.593  22.499   6.554
 4552POPC   C3A57749   7.638  22.257   6.940
 4552POPC   C4A57750   7.485  22.275   7.378
 4552POPC   C1B57751   7.258  21.999   6.220
 4552POPC   C2B57752   7.263  21.995   6.660
 4552POPC   C3B57753   7.168  22.056   7.067
 4552POPC   C4B57754   7.140  21.942   7.517
 4553POPC   NC357755  39.545  21.949   5.264
 4553POPC   PO457756  39.361  22.492   5.705
 4553POPC   GL157757  39.392  22.172   5.967
 4553POPC   GL257758  39.675  22.416   6.117
 4553POPC   C1A57759  39.009  22.029   6.211
 4553POPC   D2A57760  38.791  22.316   6.512
 4553POPC   C3A57761  38.918  22.360   6.975
 4553POPC   C4A57762  38.881  22.185   7.418
 4553POPC   C1B57763  39.339  22.336   6.448
 4553POPC   C2B57764  39.204  21.984   6.704
 4553POPC   C3B57765  39.252  21.961   7.141
 4553POPC   C4B57766  39.357  22.367   7.411
 4554POPC   NC357767  13.374  11.914   5.044
 4554POPC   PO457768  13.292  11.788   5.685
 4554POPC   GL157769  13.581  12.095   5.948
 4554POPC   GL257770  13.957  12.095   5.897
 4554POPC   C1A57771  13.429  12.204   6.339
 4554POPC   D2A57772  13.327  11.973   6.685
 4554POPC   C3A57773  13.476  12.178   7.051
 4554POPC   C4A57774  13.900  12.232   7.169
 4554POPC   C1B57775  13.867  11.931   6.349
 4554POPC   C2B57776  13.862  11.867   6.800
 4554POPC   C3B57777  13.663  11.742   7.188
 4554POPC   C4B57778  13.368  11.709   7.535
 4555POPC   NC357779   0.074  11.491   5.014
 4555POPC   PO457780   0.410  11.105   5.380
 4555POPC   GL157781   0.590  11.088   5.812
 4555POPC   GL257782   0.817  11.385   5.826
 4555POPC   C1A57783   0.423  11.116   6.248
 4555POPC   D2A57784   0.231  11.160   6.652
 4555POPC   C3A57785   0.410  11.120   7.057
 4555POPC   C4A57786   0.294  11.186   7.503
 4555POPC   C1B57787   0.649  11.560   6.263
 4555POPC   C2B57788   0.530  11.600   6.763
 4555POPC   C3B57789   0.583  11.585   7.236
 4555POPC   C4B57790   0.920  11.602   7.526
 4556POPC   NC357791  18.061  15.267   5.475
 4556POPC   PO457792  18.660  15.551   5.351
 4556POPC   GL157793  18.483  15.426   5.790
 4556POPC   GL257794  18.351  15.089   5.875
 4556POPC   C1A57795  18.468  15.371   6.269
 4556POPC   D2A57796  18.233  15.562   6.617
 4556POPC   C3A57797  18.309  15.364   7.005
 4556POPC   C4A57798  18.061  15.242   7.309
 4556POPC   C1B57799  18.297  14.838   6.272
 4556POPC   C2B57800  18.294  14.643   6.683
 4556POPC   C3B57801  18.301  14.833   7.097
 4556POPC   C4B57802  18.481  14.963   7.505
 4557POPC   NC357803  11.040  44.647   5.403
 4557POPC   PO457804  10.603  44.160   5.349
 4557POPC   GL157805  10.547  44.415   5.747
 4557POPC   GL257806  10.416  44.770   5.715
 4557POPC   C1A57807  10.661  44.618   6.150
 4557POPC   D2A57808  10.830  44.622   6.560
 4557POPC   C3A57809  10.616  44.436   6.898
 4557POPC   C4A57810  10.792  44.479   7.301
 4557POPC   C1B57811  10.223  44.881   6.160
 4557POPC   C2B57812  10.235  44.965   6.630
 4557POPC   C3B57813  10.240  44.999   7.088
 4557POPC   C4B57814  10.500  44.862   7.458
 4558POPC   NC357815  28.334  28.676   5.300
 4558POPC   PO457816  28.520  27.973   5.392
 4558POPC   GL157817  28.353  28.304   5.694
 4558POPC   GL257818  28.486  28.130   5.989
 4558POPC   C1A57819  28.247  28.554   6.099
 4558POPC   D2A57820  28.345  28.301   6.473
 4558POPC   C3A57821  28.334  28.438   6.898
 4558POPC   C4A57822  28.136  28.347   7.307
 4558POPC   C1B57823  28.746  28.002   6.354
 4558POPC   C2B57824  28.717  28.020   6.815
 4558POPC   C3B57825  28.619  28.155   7.240
 4558POPC   C4B57826  28.420  28.023   7.645
 4559POPC   NC357827  30.129   3.421   5.486
 4559POPC   PO457828  30.836   3.628   5.460
 4559POPC   GL157829  30.622   3.773   5.840
 4559POPC   GL257830  30.269   3.679   5.907
 4559POPC   C1A57831  30.702   3.660   6.276
 4559POPC   D2A57832  31.048   3.475   6.489
 4559POPC   C3A57833  31.000   3.581   6.892
 4559POPC   C4A57834  30.864   3.387   7.227
 4559POPC   C1B57835  30.510   3.283   6.011
 4559POPC   C2B57836  30.586   3.171   6.446
 4559POPC   C3B57837  30.527   3.341   6.842
 4559POPC   C4B57838  30.371   3.242   7.244
 4560POPC   NC357839   4.288  20.686   5.320
 4560POPC   PO457840   4.651  20.914   5.790
 4560POPC   GL157841   4.575  20.491   5.897
 4560POPC   GL257842   4.265  20.350   5.839
 4560POPC   C1A57843   4.724  20.399   6.306
 4560POPC   D2A57844   4.576  20.203   6.677
 4560POPC   C3A57845   4.509  20.541   6.983
 4560POPC   C4A57846   4.425  20.731   7.398
 4560POPC   C1B57847   4.209  20.384   6.324
 4560POPC   C2B57848   4.066  20.366   6.788
 4560POPC   C3B57849   4.082  20.362   7.272
 4560POPC   C4B57850   4.085  20.366   7.745
 4561POPC   NC357851  14.085  15.638   5.473
 4561POPC   PO457852  14.639  15.900   5.517
 4561POPC   GL157853  14.410  15.964   5.907
 4561POPC   GL257854  14.107  15.752   5.966
 4561POPC   C1A57855  14.396  15.983   6.369
 4561POPC   D2A57856  14.530  16.250   6.707
 4561POPC   C3A57857  14.648  16.025   7.050
 4561POPC   C4A57858  14.406  15.817   7.349
 4561POPC   C1B57859  13.968  16.138   6.127
 4561POPC   C2B57860  13.924  16.048   6.561
 4561POPC   C3B57861  14.098  16.015   6.966
 4561POPC   C4B57862  14.133  16.303   7.308
 4562POPC   NC357863  10.689   5.140   5.370
 4562POPC   PO457864   9.978   5.394   5.395
 4562POPC   GL157865  10.334   5.326   5.734
 4562POPC   GL257866  10.558   5.028   5.834
 4562POPC   C1A57867  10.510   5.376   6.178
 4562POPC   D2A57868  10.466   5.123   6.571
 4562POPC   C3A57869  10.652   5.044   6.961
 4562POPC   C4A57870  10.531   5.435   7.156
 4562POPC   C1B57871  10.710   4.857   6.186
 4562POPC   C2B57872  10.614   4.615   6.494
 4562POPC   C3B57873  10.736   4.513   6.868
 4562POPC   C4B57874  10.916   4.611   7.244
 4563POPC   NC357875  13.039   0.041   5.484
 4563POPC   PO457876  13.153  44.476   5.385
 4563POPC   GL157877  13.456  44.393   5.818
 4563POPC   GL257878  13.858  44.436   5.855
 4563POPC   C1A57879  13.553  44.572   6.267
 4563POPC   D2A57880  13.492  44.755   6.677
 4563POPC   C3A57881  13.494  44.487   7.032
 4563POPC   C4A57882  13.791  44.430   7.344
 4563POPC   C1B57883  14.010  44.806   6.181
 4563POPC   C2B57884  13.985  44.957   6.633
 4563POPC   C3B57885  13.810  44.904   7.061
 4563POPC   C4B57886  14.050  44.898   7.465
 4564POPC   NC357887  20.582  17.008   5.302
 4564POPC   PO457888  20.966  16.492   5.411
 4564POPC   GL157889  20.642  16.674   5.715
 4564POPC   GL257890  20.688  17.003   5.793
 4564POPC   C1A57891  20.462  16.657   6.161
 4564POPC   D2A57892  20.486  16.490   6.592
 4564POPC   C3A57893  20.493  16.592   7.037
 4564POPC   C4A57894  20.678  16.433   7.436
 4564POPC   C1B57895  20.841  16.988   6.178
 4564POPC   C2B57896  20.623  16.988   6.566
 4564POPC   C3B57897  20.667  17.162   6.942
 4564POPC   C4B57898  20.761  16.935   7.322
 4565POPC   NC357899  25.604  16.831   5.206
 4565POPC   PO457900  24.974  16.632   5.217
 4565POPC   GL157901  25.351  16.918   5.644
 4565POPC   GL257902  25.509  16.912   5.912
 4565POPC   C1A57903  25.085  17.022   6.125
 4565POPC   D2A57904  24.926  16.701   6.455
 4565POPC   C3A57905  24.961  16.806   6.895
 4565POPC   C4A57906  24.938  17.206   7.075
 4565POPC   C1B57907  25.453  16.742   6.301
 4565POPC   C2B57908  25.344  17.013   6.616
 4565POPC   C3B57909  25.431  16.910   7.033
 4565POPC   C4B57910  25.455  16.510   7.195
 4566POPC   NC357911  15.034  24.828   5.474
 4566POPC   PO457912  15.438  24.401   5.129
 4566POPC   GL157913  15.455  24.372   5.610
 4566POPC   GL257914  15.115  24.375   5.724
 4566POPC   C1A57915  15.445  24.527   6.081
 4566POPC   D2A57916  15.376  24.372   6.489
 4566POPC   C3A57917  15.482  24.487   6.904
 4566POPC   C4A57918  15.288  24.353   7.273
 4566POPC   C1B57919  14.912  24.553   6.091
 4566POPC   C2B57920  14.770  24.705   6.484
 4566POPC   C3B57921  14.956  24.626   6.867
 4566POPC   C4B57922  14.838  24.596   7.288
 4567POPC   NC357923   4.264  30.702   5.409
 4567POPC   PO457924   4.936  30.815   5.417
 4567POPC   GL157925   4.573  30.944   5.774
 4567POPC   GL257926   4.190  30.883   5.893
 4567POPC   C1A57927   4.565  30.888   6.239
 4567POPC   D2A57928   4.511  30.537   6.558
 4567POPC   C3A57929   4.504  30.655   7.025
 4567POPC   C4A57930   4.551  30.523   7.483
 4567POPC   C1B57931   4.042  30.685   6.292
 4567POPC   C2B57932   4.067  30.706   6.746
 4567POPC   C3B57933   3.858  30.826   7.118
 4567POPC   C4B57934   3.754  30.798   7.575
 4568POPC   NC357935  29.042   2.696   5.539
 4568POPC   PO457936  29.401   3.058   5.157
 4568POPC   GL157937  29.480   2.808   5.707
 4568POPC   GL257938  29.213   2.868   5.992
 4568POPC   C1A57939  29.519   2.508   6.101
 4568POPC   D2A57940  29.257   2.495   6.469
 4568POPC   C3A57941  29.393   2.587   6.894
 4568POPC   C4A57942  29.345   2.884   7.240
 4568POPC   C1B57943  28.829   2.884   6.236
 4568POPC   C2B57944  28.756   3.127   6.592
 4568POPC   C3B57945  28.946   2.958   6.921
 4568POPC   C4B57946  28.746   3.051   7.274
 4569POPC   NC357947  32.767   5.410   5.513
 4569POPC   PO457948  33.147   5.933   5.519
 4569POPC   GL157949  32.841   5.878   5.794
 4569POPC   GL257950  32.568   6.145   5.777
 4569POPC   C1A57951  33.028   5.746   6.188
 4569POPC   D2A57952  33.321   5.612   6.516
 4569POPC   C3A57953  33.065   5.503   6.872
 4569POPC   C4A57954  32.926   5.724   7.199
 4569POPC   C1B57955  32.802   6.212   6.197
 4569POPC   C2B57956  32.980   6.022   6.618
 4569POPC   C3B57957  32.966   6.204   7.027
 4569POPC   C4B57958  32.551   6.323   7.139
 4570POPC   NC357959  10.093  22.498   5.731
 4570POPC   PO457960   9.959  21.975   5.360
 4570POPC   GL157961   9.734  22.119   5.759
 4570POPC   GL257962   9.453  22.370   5.820
 4570POPC   C1A57963   9.833  22.052   6.206
 4570POPC   D2A57964   9.698  21.872   6.623
 4570POPC   C3A57965   9.894  22.000   7.016
 4570POPC   C4A57966   9.930  22.094   7.471
 4570POPC   C1B57967   9.602  22.582   6.183
 4570POPC   C2B57968   9.745  22.414   6.573
 4570POPC   C3B57969   9.889  22.555   6.958
 4570POPC   C4B57970   9.616  22.487   7.273
 4571POPC   NC357971  17.632  39.032   5.466
 4571POPC   PO457972  17.479  39.693   5.443
 4571POPC   GL157973  17.538  39.428   5.836
 4571POPC   GL257974  17.419  39.059   5.915
 4571POPC   C1A57975  17.390  39.384   6.272
 4571POPC   D2A57976  17.380  39.103   6.626
 4571POPC   C3A57977  17.382  39.271   7.019
 4571POPC   C4A57978  17.707  39.388   7.283
 4571POPC   C1B57979  17.774  39.055   6.255
 4571POPC   C2B57980  17.919  39.071   6.706
 4571POPC   C3B57981  17.826  38.910   7.125
 4571POPC   C4B57982  17.448  38.904   7.388
 4572POPC   NC357983  27.435   3.910   5.398
 4572POPC   PO457984  27.993   3.440   5.511
 4572POPC   GL157985  27.625   3.452   5.801
 4572POPC   GL257986  27.673   3.796   5.950
 4572POPC   C1A57987  27.452   3.288   6.233
 4572POPC   D2A57988  27.335   3.427   6.677
 4572POPC   C3A57989  27.313   3.205   7.083
 4572POPC   C4A57990  27.521   3.071   7.458
 4572POPC   C1B57991  27.990   3.893   6.288
 4572POPC   C2B57992  28.143   3.988   6.708
 4572POPC   C3B57993  27.876   3.952   7.067
 4572POPC   C4B57994  27.464   3.701   7.100
 4573POPC   NC357995  13.264  37.071   5.452
 4573POPC   PO457996  12.803  36.556   5.507
 4573POPC   GL157997  12.851  36.946   5.759
 4573POPC   GL257998  12.568  37.086   5.946
 4573POPC   C1A57999  13.022  37.042   6.177
 4573POPC   D2A58000  12.938  36.820   6.548
 4573POPC   C3A58001  12.993  37.016   6.935
 4573POPC   C4A58002  13.150  37.065   7.347
 4573POPC   C1B58003  12.593  36.734   6.175
 4573POPC   C2B58004  12.421  36.692   6.563
 4573POPC   C3B58005  12.462  36.952   6.901
 4573POPC   C4B58006  12.630  36.910   7.292
 4574POPC   NC358007   4.024   6.307   5.665
 4574POPC   PO458008   4.403   6.693   5.068
 4574POPC   GL158009   4.185   6.803   5.541
 4574POPC   GL258010   3.840   6.864   5.714
 4574POPC   C1A58011   4.289   6.861   6.018
 4574POPC   D2A58012   4.376   6.650   6.447
 4574POPC   C3A58013   4.307   6.784   6.902
 4574POPC   C4A58014   4.370   6.856   7.361
 4574POPC   C1B58015   3.781   6.699   6.171
 4574POPC   C2B58016   3.863   6.405   6.526
 4574POPC   C3B58017   4.208   6.263   6.793
 4574POPC   C4B58018   4.192   6.383   7.211
 4575POPC   NC358019  38.457  44.252   5.305
 4575POPC   PO458020  38.093  44.741   5.513
 4575POPC   GL158021  38.404  44.798   5.825
 4575POPC   GL258022  38.481  44.425   5.818
 4575POPC   C1A58023  38.401  44.666   6.258
 4575POPC   D2A58024  38.269  44.299   6.504
 4575POPC   C3A58025  38.439  44.384   6.897
 4575POPC   C4A58026  38.450  44.701   7.212
 4575POPC   C1B58027  38.664  44.182   6.157
 4575POPC   C2B58028  38.742  44.039   6.569
 4575POPC   C3B58029  38.938  44.251   6.890
 4575POPC   C4B58030  38.832  44.363   7.244
 4576POPC   NC358031   5.352  43.525   5.359
 4576POPC   PO458032   4.835  44.000   5.356
 4576POPC   GL158033   4.937  43.982   5.772
 4576POPC   GL258034   5.292  43.843   5.819
 4576POPC   C1A58035   4.776  43.771   6.145
 4576POPC   D2A58036   4.988  43.650   6.519
 4576POPC   C3A58037   5.148  43.965   6.743
 4576POPC   C4A58038   5.131  43.812   7.119
 4576POPC   C1B58039   5.177  44.093   6.217
 4576POPC   C2B58040   4.877  44.322   6.490
 4576POPC   C3B58041   4.796  44.295   6.939
 4576POPC   C4B58042   5.187  44.304   7.169
 4577POPC   NC358043   1.395  39.815   5.411
 4577POPC   PO458044   0.844  40.225   5.428
 4577POPC   GL158045   1.006  39.917   5.739
 4577POPC   GL258046   1.370  39.952   5.902
 4577POPC   C1A58047   0.930  39.850   6.161
 4577POPC   D2A58048   1.073  40.048   6.535
 4577POPC   C3A58049   0.865  39.943   6.914
 4577POPC   C4A58050   0.957  40.084   7.299
 4577POPC   C1B58051   1.430  39.699   6.290
 4577POPC   C2B58052   1.255  39.606   6.704
 4577POPC   C3B58053   1.359  39.939   7.006
 4577POPC   C4B58054   1.425  39.892   7.434
 4578POPC   NC358055   0.958  13.554   5.628
 4578POPC   PO458056   1.091  13.948   5.054
 4578POPC   GL158057   1.294  13.944   5.527
 4578POPC   GL258058   1.063  14.054   5.794
 4578POPC   C1A58059   1.461  13.821   5.988
 4578POPC   D2A58060   1.466  14.049   6.435
 4578POPC   C3A58061   1.530  13.815   6.857
 4578POPC   C4A58062   1.295  13.680   7.262
 4578POPC   C1B58063   1.003  13.826   6.222
 4578POPC   C2B58064   1.049  13.880   6.666
 4578POPC   C3B58065   1.030  14.058   7.057
 4578POPC   C4B58066   0.808  13.867   7.428
 4579POPC   NC358067  11.915  44.136   5.061
 4579POPC   PO458068  11.891  44.724   5.507
 4579POPC   GL158069  12.115  44.631   5.840
 4579POPC   GL258070  11.809  44.562   5.993
 4579POPC   C1A58071  12.256  44.671   6.251
 4579POPC   D2A58072  12.114  44.546   6.654
 4579POPC   C3A58073  12.205  44.703   7.064
 4579POPC   C4A58074  12.017  44.646   7.453
 4579POPC   C1B58075  11.781  44.895   6.304
 4579POPC   C2B58076  11.884  44.999   6.733
 4579POPC   C3B58077  11.706  44.925   7.151
 4579POPC   C4B58078  11.511  44.676   7.503
 4580POPC   NC358079  21.413  20.549   5.248
 4580POPC   PO458080  21.367  20.897   5.737
 4580POPC   GL158081  21.515  20.506   5.843
 4580POPC   GL258082  21.254  20.335   5.700
 4580POPC   C1A58083  21.588  20.519   6.287
 4580POPC   D2A58084  21.331  20.825   6.520
 4580POPC   C3A58085  21.369  20.860   6.962
 4580POPC   C4A58086  21.218  21.196   7.170
 4580POPC   C1B58087  21.131  20.311   6.147
 4580POPC   C2B58088  21.198  20.345   6.608
 4580POPC   C3B58089  21.237  20.355   7.047
 4580POPC   C4B58090  21.597  20.149   7.155
 4581POPC   NC358091  20.091  42.637   5.055
 4581POPC   PO458092  20.001  42.051   5.453
 4581POPC   GL158093  19.850  42.275   5.807
 4581POPC   GL258094  19.507  42.195   5.856
 4581POPC   C1A58095  19.839  42.431   6.240
 4581POPC   D2A58096  19.714  42.193   6.618
 4581POPC   C3A58097  19.943  42.186   7.004
 4581POPC   C4A58098  20.055  42.571   7.224
 4581POPC   C1B58099  19.337  42.282   6.250
 4581POPC   C2B58100  19.205  42.208   6.671
 4581POPC   C3B58101  19.424  42.147   7.056
 4581POPC   C4B58102  19.605  42.363   7.385
 4582POPC   NC358103  20.871  35.676   5.568
 4582POPC   PO458104  20.424  35.360   5.228
 4582POPC   GL158105  20.373  35.451   5.685
 4582POPC   GL258106  20.356  35.130   5.805
 4582POPC   C1A58107  20.563  35.503   6.139
 4582POPC   D2A58108  20.593  35.751   6.557
 4582POPC   C3A58109  20.581  35.555   7.007
 4582POPC   C4A58110  20.697  35.658   7.475
 4582POPC   C1B58111  20.340  35.011   6.227
 4582POPC   C2B58112  20.424  34.850   6.617
 4582POPC   C3B58113  20.502  35.027   7.020
 4582POPC   C4B58114  20.456  35.181   7.432
 4583POPC   NC358115  44.962  18.947   5.352
 4583POPC   PO458116   0.614  18.993   5.371
 4583POPC   GL158117   0.323  18.971   5.753
 4583POPC   GL258118   0.079  18.706   5.815
 4583POPC   C1A58119   0.270  19.039   6.222
 4583POPC   D2A58120   0.311  18.954   6.677
 4583POPC   C3A58121   0.602  19.157   6.976
 4583POPC   C4A58122   0.756  19.058   7.416
 4583POPC   C1B58123  44.875  18.561   6.196
 4583POPC   C2B58124  44.821  18.727   6.596
 4583POPC   C3B58125   0.045  18.646   6.969
 4583POPC   C4B58126   0.361  18.796   7.235
 4584POPC   NC358127  33.293  32.275   5.313
 4584POPC   PO458128  32.619  32.558   5.308
 4584POPC   GL158129  32.852  32.457   5.732
 4584POPC   GL258130  33.128  32.246   5.822
 4584POPC   C1A58131  33.069  32.541   6.197
 4584POPC   D2A58132  32.887  32.438   6.558
 4584POPC   C3A58133  33.032  32.538   6.918
 4584POPC   C4A58134  33.160  32.370   7.295
 4584POPC   C1B58135  32.869  32.060   6.175
 4584POPC   C2B58136  32.967  31.937   6.620
 4584POPC   C3B58137  32.962  31.943   7.067
 4584POPC   C4B58138  33.157  31.902   7.490
 4585POPC   NC358139  10.741  31.711   5.419
 4585POPC   PO458140  10.163  31.256   5.392
 4585POPC   GL158141  10.436  31.316   5.754
 4585POPC   GL258142  10.467  31.688   5.845
 4585POPC   C1A58143  10.562  31.355   6.208
 4585POPC   D2A58144  10.577  31.563   6.603
 4585POPC   C3A58145  10.515  31.245   6.920
 4585POPC   C4A58146  10.299  31.224   7.281
 4585POPC   C1B58147  10.815  31.794   6.155
 4585POPC   C2B58148  11.027  31.844   6.563
 4585POPC   C3B58149  10.877  31.803   6.989
 4585POPC   C4B58150  10.586  31.644   7.301
 4586POPC   NC358151  25.844  14.722   5.444
 4586POPC   PO458152  26.199  15.246   5.323
 4586POPC   GL158153  26.320  15.399   5.738
 4586POPC   GL258154  26.035  15.227   5.863
 4586POPC   C1A58155  26.441  15.256   6.180
 4586POPC   D2A58156  26.281  15.113   6.614
 4586POPC   C3A58157  26.204  15.382   6.980
 4586POPC   C4A58158  26.353  15.602   7.347
 4586POPC   C1B58159  25.892  15.067   6.275
 4586POPC   C2B58160  25.789  14.826   6.661
 4586POPC   C3B58161  25.783  14.793   7.087
 4586POPC   C4B58162  25.787  15.195   7.230
 4587POPC   NC358163   0.132  28.583   5.641
 4587POPC   PO458164   0.606  28.041   5.498
 4587POPC   GL158165   0.561  28.298   5.874
 4587POPC   GL258166   0.242  28.164   5.923
 4587POPC   C1A58167   0.757  28.657   6.124
 4587POPC   D2A58168   0.807  28.800   6.558
 4587POPC   C3A58169   0.591  28.484   6.818
 4587POPC   C4A58170   0.527  28.144   7.126
 4587POPC   C1B58171   0.328  28.325   6.350
 4587POPC   C2B58172   0.091  28.470   6.719
 4587POPC   C3B58173   0.097  28.406   7.131
 4587POPC   C4B58174   0.023  28.391   7.568
 4588POPC   NC358175  26.670   4.484   5.107
 4588POPC   PO458176  26.831   4.153   5.688
 4588POPC   GL158177  26.888   4.083   6.106
 4588POPC   GL258178  26.725   4.375   6.173
 4588POPC   C1A58179  27.027   4.206   6.537
 4588POPC   D2A58180  26.816   4.591   6.665
 4588POPC   C3A58181  26.552   4.487   6.963
 4588POPC   C4A58182  26.713   4.407   7.353
 4588POPC   C1B58183  27.128   4.604   6.240
 4588POPC   C2B58184  27.348   4.596   6.661
 4588POPC   C3B58185  27.293   4.665   7.135
 4588POPC   C4B58186  27.084   4.684   7.582
 4589POPC   NC358187  14.214  29.629   5.483
 4589POPC   PO458188  14.326  30.328   5.637
 4589POPC   GL158189  14.361  29.970   5.855
 4589POPC   GL258190  14.016  29.919   5.839
 4589POPC   C1A58191  14.569  29.817   6.210
 4589POPC   D2A58192  14.731  29.652   6.581
 4589POPC   C3A58193  14.645  29.913   6.918
 4589POPC   C4A58194  14.539  29.765   7.316
 4589POPC   C1B58195  14.039  29.721   6.224
 4589POPC   C2B58196  14.225  29.766   6.614
 4589POPC   C3B58197  14.141  29.865   7.019
 4589POPC   C4B58198  14.066  29.808   7.456
 4590POPC   NC358199  32.377  36.409   4.942
 4590POPC   PO458200  32.289  36.801   5.449
 4590POPC   GL158201  32.108  36.700   5.825
 4590POPC   GL258202  32.245  36.975   5.952
 4590POPC   C1A58203  32.183  36.565   6.246
 4590POPC   D2A58204  32.120  36.817   6.573
 4590POPC   C3A58205  32.288  36.713   6.945
 4590POPC   C4A58206  32.176  36.930   7.269
 4590POPC   C1B58207  32.544  37.209   6.217
 4590POPC   C2B58208  32.600  37.366   6.637
 4590POPC   C3B58209  32.421  37.353   7.048
 4590POPC   C4B58210  32.553  37.168   7.478
 4591POPC   NC358211  12.045   5.806   5.375
 4591POPC   PO458212  12.065   6.443   5.336
 4591POPC   GL158213  12.110   6.133   5.747
 4591POPC   GL258214  11.789   6.040   5.923
 4591POPC   C1A58215  12.248   5.883   6.140
 4591POPC   D2A58216  12.290   5.588   6.486
 4591POPC   C3A58217  12.289   5.771   6.900
 4591POPC   C4A58218  12.174   5.739   7.299
 4591POPC   C1B58219  11.789   5.716   6.260
 4591POPC   C2B58220  11.823   5.729   6.697
 4591POPC   C3B58221  11.745   6.019   7.028
 4591POPC   C4B58222  11.750   5.914   7.464
 4592POPC   NC358223  34.373   0.213   5.544
 4592POPC   PO458224  34.850   0.686   5.483
 4592POPC   GL158225  34.633   0.541   5.842
 4592POPC   GL258226  34.779   0.230   5.868
 4592POPC   C1A58227  34.382   0.348   6.210
 4592POPC   D2A58228  34.157   0.547   6.551
 4592POPC   C3A58229  34.333   0.545   6.962
 4592POPC   C4A58230  34.412   0.168   7.211
 4592POPC   C1B58231  34.893   0.417   6.257
 4592POPC   C2B58232  34.703   0.504   6.605
 4592POPC   C3B58233  34.793   0.248   6.892
 4592POPC   C4B58234  34.940   0.264   7.289
 4593POPC   NC358235  24.447  36.153   4.941
 4593POPC   PO458236  24.504  35.803   5.510
 4593POPC   GL158237  24.620  35.994   5.882
 4593POPC   GL258238  24.535  36.361   5.940
 4593POPC   C1A58239  24.815  36.070   6.277
 4593POPC   D2A58240  24.604  36.307   6.607
 4593POPC   C3A58241  24.404  35.994   6.873
 4593POPC   C4A58242  24.485  36.068   7.281
 4593POPC   C1B58243  24.273  36.162   6.260
 4593POPC   C2B58244  24.056  36.294   6.650
 4593POPC   C3B58245  24.202  36.447   7.052
 4593POPC   C4B58246  24.095  36.440   7.508
 4594POPC   NC358247   3.090   4.437   5.498
 4594POPC   PO458248   2.422   4.418   5.376
 4594POPC   GL158249   2.672   4.238   5.714
 4594POPC   GL258250   2.684   4.546   5.823
 4594POPC   C1A58251   2.971   4.282   6.141
 4594POPC   D2A58252   2.814   4.392   6.578
 4594POPC   C3A58253   2.968   4.369   7.000
 4594POPC   C4A58254   3.090   4.075   7.323
 4594POPC   C1B58255   2.468   4.399   6.182
 4594POPC   C2B58256   2.371   4.649   6.519
 4594POPC   C3B58257   2.598   4.789   6.867
 4594POPC   C4B58258   2.542   4.679   7.272
 4595POPC   NC358259   2.390  17.547   5.412
 4595POPC   PO458260   1.704  17.549   5.314
 4595POPC   GL158261   1.768  17.549   5.783
 4595POPC   GL258262   2.153  17.449   5.862
 4595POPC   C1A58263   1.878  17.701   6.207
 4595POPC   D2A58264   2.082  17.455   6.507
 4595POPC   C3A58265   1.839  17.397   6.854
 4595POPC   C4A58266   1.904  17.521   7.252
 4595POPC   C1B58267   2.352  17.173   6.165
 4595POPC   C2B58268   2.482  17.124   6.591
 4595POPC   C3B58269   2.270  17.161   6.970
 4595POPC   C4B58270   2.414  17.214   7.357
 4596POPC   NC358271  18.814  26.671   5.465
 4596POPC   PO458272  19.434  26.840   5.430
 4596POPC   GL158273  19.250  27.116   5.783
 4596POPC   GL258274  18.879  27.051   5.816
 4596POPC   C1A58275  19.198  27.003   6.246
 4596POPC   D2A58276  19.065  26.721   6.595
 4596POPC   C3A58277  19.150  26.826   7.041
 4596POPC   C4A58278  19.540  26.912   7.294
 4596POPC   C1B58279  18.743  26.780   6.166
 4596POPC   C2B58280  18.546  26.734   6.554
 4596POPC   C3B58281  18.678  26.602   6.917
 4596POPC   C4B58282  18.685  26.779   7.287
 4597POPC   NC358283  38.345   8.549   5.531
 4597POPC   PO458284  38.596   7.990   5.294
 4597POPC   GL158285  38.748   7.941   5.745
 4597POPC   GL258286  38.779   8.301   5.817
 4597POPC   C1A58287  38.582   7.967   6.185
 4597POPC   D2A58288  38.662   8.146   6.605
 4597POPC   C3A58289  38.335   8.097   6.900
 4597POPC   C4A58290  38.274   7.995   7.331
 4597POPC   C1B58291  38.639   8.500   6.182
 4597POPC   C2B58292  38.636   8.679   6.589
 4597POPC   C3B58293  38.589   8.532   6.987
 4597POPC   C4B58294  38.762   8.170   7.188
 4598POPC   NC358295  29.476  34.212   5.648
 4598POPC   PO458296  29.211  34.724   5.269
 4598POPC   GL158297  29.134  34.661   5.751
 4598POPC   GL258298  29.439  34.642   5.952
 4598POPC   C1A58299  29.031  34.829   6.203
 4598POPC   D2A58300  29.181  34.714   6.641
 4598POPC   C3A58301  29.096  34.921   7.030
 4598POPC   C4A58302  28.907  34.763   7.418
 4598POPC   C1B58303  29.258  34.340   6.280
 4598POPC   C2B58304  29.123  34.208   6.707
 4598POPC   C3B58305  29.076  34.399   7.103
 4598POPC   C4B58306  29.152  34.288   7.536
 4599POPC   NC358307  10.816  27.712   5.307
 4599POPC   PO458308  11.374  27.291   5.475
 4599POPC   GL158309  11.275  27.615   5.784
 4599POPC   GL258310  10.953  27.784   5.787
 4599POPC   C1A58311  11.384  27.580   6.220
 4599POPC   D2A58312  11.300  27.311   6.606
 4599POPC   C3A58313  11.375  27.563   6.998
 4599POPC   C4A58314  11.586  27.976   7.098
 4599POPC   C1B58315  10.885  27.629   6.194
 4599POPC   C2B58316  11.054  27.765   6.590
 4599POPC   C3B58317  10.959  27.907   6.993
 4599POPC   C4B58318  11.059  27.750   7.371
 4600POPC   NC358319  34.145  19.900   5.165
 4600POPC   PO458320  34.856  19.741   5.342
 4600POPC   GL158321  34.751  19.876   5.762
 4600POPC   GL258322  34.443  19.723   5.900
 4600POPC   C1A58323  34.818  19.822   6.210
 4600POPC   D2A58324  34.819  20.076   6.587
 4600POPC   C3A58325  34.796  19.882   6.983
 4600POPC   C4A58326  34.733  19.913   7.431
 4600POPC   C1B58327  34.368  20.049   6.259
 4600POPC   C2B58328  34.218  19.932   6.650
 4600POPC   C3B58329  34.315  19.955   7.059
 4600POPC   C4B58330  34.098  20.127   7.366
 4601POPC   NC358331   6.762  39.527   5.480
 4601POPC   PO458332   6.514  38.893   5.388
 4601POPC   GL158333   6.567  39.125   5.750
 4601POPC   GL258334   6.247  39.085   5.878
 4601POPC   C1A58335   6.792  39.073   6.147
 4601POPC   D2A58336   6.774  38.892   6.579
 4601POPC   C3A58337   6.875  39.208   6.878
 4601POPC   C4A58338   6.848  39.271   7.323
 4601POPC   C1B58339   6.413  39.455   6.138
 4601POPC   C2B58340   6.429  39.627   6.594
 4601POPC   C3B58341   6.480  39.510   7.034
 4601POPC   C4B58342   6.402  39.078   7.117
 4602POPC   NC358343  26.564  37.496   5.407
 4602POPC   PO458344  26.931  38.090   5.332
 4602POPC   GL158345  26.949  37.918   5.747
 4602POPC   GL258346  26.595  37.844   5.792
 4602POPC   C1A58347  27.033  37.781   6.172
 4602POPC   D2A58348  26.916  37.570   6.590
 4602POPC   C3A58349  27.107  37.722   6.978
 4602POPC   C4A58350  26.897  37.615   7.351
 4602POPC   C1B58351  26.537  37.679   6.225
 4602POPC   C2B58352  26.369  37.797   6.627
 4602POPC   C3B58353  26.521  37.749   7.046
 4602POPC   C4B58354  26.478  37.868   7.523
 4603POPC   NC358355   7.811  19.652   5.277
 4603POPC   PO458356   8.473  19.835   5.493
 4603POPC   GL158357   8.288  20.021   5.833
 4603POPC   GL258358   8.024  20.280   5.705
 4603POPC   C1A58359   8.284  19.779   6.230
 4603POPC   D2A58360   8.645  19.702   6.498
 4603POPC   C3A58361   8.477  19.860   6.846
 4603POPC   C4A58362   8.251  19.672   7.194
 4603POPC   C1B58363   7.913  20.164   6.129
 4603POPC   C2B58364   7.996  20.069   6.564
 4603POPC   C3B58365   8.107  20.165   6.977
 4603POPC   C4B58366   8.103  20.172   7.401
 4604POPC   NC358367   3.340  32.324   5.374
 4604POPC   PO458368   3.935  32.076   5.173
 4604POPC   GL158369   3.793  32.325   5.624
 4604POPC   GL258370   3.527  32.144   5.831
 4604POPC   C1A58371   3.899  32.388   6.098
 4604POPC   D2A58372   4.005  32.261   6.550
 4604POPC   C3A58373   3.783  32.152   6.951
 4604POPC   C4A58374   3.709  32.385   7.338
 4604POPC   C1B58375   3.616  31.978   6.276
 4604POPC   C2B58376   3.875  31.712   6.562
 4604POPC   C3B58377   4.015  31.682   6.995
 4604POPC   C4B58378   3.747  31.761   7.364
 4605POPC   NC358379   1.845  13.290   5.446
 4605POPC   PO458380   2.023  12.680   5.383
 4605POPC   GL158381   2.188  12.769   5.752
 4605POPC   GL258382   2.265  13.107   5.661
 4605POPC   C1A58383   2.088  12.640   6.167
 4605POPC   D2A58384   2.315  12.595   6.532
 4605POPC   C3A58385   2.128  12.776   6.892
 4605POPC   C4A58386   1.712  12.733   7.079
 4605POPC   C1B58387   2.078  13.143   6.056
 4605POPC   C2B58388   2.051  13.081   6.476
 4605POPC   C3B58389   1.831  13.180   6.845
 4605POPC   C4B58390   2.034  13.176   7.214
 4606POPC   NC358391  40.093  42.053   5.471
 4606POPC   PO458392  39.743  42.637   5.394
 4606POPC   GL158393  39.982  42.470   5.766
 4606POPC   GL258394  39.883  42.108   5.922
 4606POPC   C1A58395  40.162  42.429   6.187
 4606POPC   D2A58396  39.979  42.296   6.542
 4606POPC   C3A58397  40.209  42.286   6.882
 4606POPC   C4A58398  40.043  42.431   7.234
 4606POPC   C1B58399  39.651  41.987   6.304
 4606POPC   C2B58400  39.649  42.000   6.791
 4606POPC   C3B58401  39.957  41.929   7.112
 4606POPC   C4B58402  40.371  41.742   7.108
 4607POPC   NC358403  13.508  16.161   5.152
 4607POPC   PO458404  12.763  16.041   5.319
 4607POPC   GL158405  12.826  15.923   5.737
 4607POPC   GL258406  12.878  16.246   5.818
 4607POPC   C1A58407  12.696  15.948   6.174
 4607POPC   D2A58408  12.524  16.012   6.551
 4607POPC   C3A58409  12.719  15.884   6.897
 4607POPC   C4A58410  12.758  16.094   7.247
 4607POPC   C1B58411  13.003  16.392   6.227
 4607POPC   C2B58412  13.059  16.173   6.615
 4607POPC   C3B58413  13.200  16.029   7.012
 4607POPC   C4B58414  13.117  15.726   7.332
 4608POPC   NC358415   7.805  34.782   5.232
 4608POPC   PO458416   8.261  34.453   5.487
 4608POPC   GL158417   7.995  34.612   5.805
 4608POPC   GL258418   7.896  34.959   5.779
 4608POPC   C1A58419   8.243  34.717   6.169
 4608POPC   D2A58420   8.383  34.815   6.574
 4608POPC   C3A58421   8.324  34.456   6.785
 4608POPC   C4A58422   8.373  34.402   7.178
 4608POPC   C1B58423   7.763  34.867   6.213
 4608POPC   C2B58424   7.875  34.595   6.563
 4608POPC   C3B58425   7.988  34.822   6.962
 4608POPC   C4B58426   7.747  35.005   7.297
 4609POPC   NC358427  39.517  16.141   5.508
 4609POPC   PO458428  39.000  15.637   5.493
 4609POPC   GL158429  39.165  15.913   5.818
 4609POPC   GL258430  39.454  15.745   5.842
 4609POPC   C1A58431  39.065  16.092   6.239
 4609POPC   D2A58432  39.004  15.857   6.627
 4609POPC   C3A58433  39.061  16.107   6.982
 4609POPC   C4A58434  38.893  16.051   7.378
 4609POPC   C1B58435  39.544  15.932   6.232
 4609POPC   C2B58436  39.490  16.100   6.657
 4609POPC   C3B58437  39.548  15.945   7.082
 4609POPC   C4B58438  39.487  15.911   7.530
 4610POPC   NC358439  31.310  13.216   5.342
 4610POPC   PO458440  31.694  13.746   5.520
 4610POPC   GL158441  31.443  13.473   5.823
 4610POPC   GL258442  31.069  13.409   5.786
 4610POPC   C1A58443  31.310  13.499   6.268
 4610POPC   D2A58444  31.344  13.824   6.604
 4610POPC   C3A58445  31.631  13.730   6.977
 4610POPC   C4A58446  31.791  13.351   7.173
 4610POPC   C1B58447  30.834  13.250   6.154
 4610POPC   C2B58448  31.004  13.191   6.593
 4610POPC   C3B58449  31.240  13.398   6.906
 4610POPC   C4B58450  31.146  13.449   7.347
 4611POPC   NC358451  30.067  40.824   5.355
 4611POPC   PO458452  29.443  40.506   5.482
 4611POPC   GL158453  29.738  40.713   5.741
 4611POPC   GL258454  30.029  40.510   5.763
 4611POPC   C1A58455  29.878  40.893   6.126
 4611POPC   D2A58456  30.215  40.787   6.429
 4611POPC   C3A58457  30.167  40.918   6.867
 4611POPC   C4A58458  30.136  40.605   7.182
 4611POPC   C1B58459  29.775  40.387   6.140
 4611POPC   C2B58460  29.696  40.604   6.517
 4611POPC   C3B58461  29.690  40.661   6.936
 4611POPC   C4B58462  29.727  41.027   7.172
 4612POPC   NC358463  38.185   6.837   5.508
 4612POPC   PO458464  38.871   7.040   5.438
 4612POPC   GL158465  38.641   6.829   5.780
 4612POPC   GL258466  38.783   6.536   5.941
 4612POPC   C1A58467  38.397   6.830   6.172
 4612POPC   D2A58468  38.272   6.526   6.493
 4612POPC   C3A58469  38.282   6.620   6.932
 4612POPC   C4A58470  38.202   6.342   7.289
 4612POPC   C1B58471  38.787   6.412   6.369
 4612POPC   C2B58472  38.851   6.399   6.808
 4612POPC   C3B58473  38.703   6.498   7.225
 4612POPC   C4B58474  38.436   6.813   7.401
 4613POPC   NC358475  28.304   5.336   5.376
 4613POPC   PO458476  28.420   4.667   5.247
 4613POPC   GL158477  28.483   4.891   5.681
 4613POPC   GL258478  28.519   5.257   5.822
 4613POPC   C1A58479  28.434   4.888   6.176
 4613POPC   D2A58480  28.108   5.016   6.526
 4613POPC   C3A58481  28.225   4.970   6.999
 4613POPC   C4A58482  28.311   5.078   7.466
 4613POPC   C1B58483  28.349   5.389   6.251
 4613POPC   C2B58484  28.381   5.401   6.728
 4613POPC   C3B58485  28.253   5.482   7.160
 4613POPC   C4B58486  27.929   5.671   7.460
 4614POPC   NC358487  10.880  41.216   5.760
 4614POPC   PO458488  11.435  40.958   5.437
 4614POPC   GL158489  11.315  40.851   5.853
 4614POPC   GL258490  10.985  40.738   5.898
 4614POPC   C1A58491  11.328  40.689   6.292
 4614POPC   D2A58492  11.499  40.912   6.632
 4614POPC   C3A58493  11.468  40.800   7.046
 4614POPC   C4A58494  11.591  41.057   7.422
 4614POPC   C1B58495  10.852  40.869   6.323
 4614POPC   C2B58496  10.962  40.677   6.727
 4614POPC   C3B58497  11.019  40.577   7.174
 4614POPC   C4B58498  11.335  40.622   7.511
 4615POPC   NC358499  27.279  13.806   5.595
 4615POPC   PO458500  26.676  13.618   5.346
 4615POPC   GL158501  26.717  13.775   5.776
 4615POPC   GL258502  26.936  13.514   5.818
 4615POPC   C1A58503  26.609  13.590   6.230
 4615POPC   D2A58504  26.372  13.520   6.613
 4615POPC   C3A58505  26.591  13.476   7.011
 4615POPC   C4A58506  26.584  13.569   7.454
 4615POPC   C1B58507  27.082  13.731   6.211
 4615POPC   C2B58508  26.940  13.627   6.638
 4615POPC   C3B58509  27.118  13.708   7.042
 4615POPC   C4B58510  27.058  13.470   7.404
 4616POPC   NC358511   7.910   3.376   5.168
 4616POPC   PO458512   8.545   3.217   5.088
 4616POPC   GL158513   8.247   3.414   5.534
 4616POPC   GL258514   7.886   3.613   5.609
 4616POPC   C1A58515   8.165   3.377   6.022
 4616POPC   D2A58516   8.276   3.202   6.454
 4616POPC   C3A58517   8.403   3.471   6.828
 4616POPC   C4A58518   8.336   3.783   7.177
 4616POPC   C1B58519   7.819   3.774   6.021
 4616POPC   C2B58520   7.864   3.559   6.423
 4616POPC   C3B58521   7.932   3.652   6.827
 4616POPC   C4B58522   7.859   3.588   7.227
 4617POPC   NC358523  39.874  12.150   5.266
 4617POPC   PO458524  40.176  12.496   5.729
 4617POPC   GL158525  39.935  12.181   5.851
 4617POPC   GL258526  39.986  11.856   5.695
 4617POPC   C1A58527  39.844  12.233   6.280
 4617POPC   D2A58528  39.657  12.126   6.664
 4617POPC   C3A58529  39.821  12.291   7.070
 4617POPC   C4A58530  39.827  12.517   7.460
 4617POPC   C1B58531  40.233  11.890   6.122
 4617POPC   C2B58532  40.248  12.062   6.554
 4617POPC   C3B58533  40.170  11.908   6.981
 4617POPC   C4B58534  40.168  11.732   7.413
 4618POPC   NC358535  10.389  43.744   5.381
 4618POPC   PO458536   9.902  44.059   5.670
 4618POPC   GL158537  10.290  43.976   5.890
 4618POPC   GL258538  10.659  43.898   5.819
 4618POPC   C1A58539  10.314  43.793   6.303
 4618POPC   D2A58540  10.360  43.992   6.705
 4618POPC   C3A58541  10.120  43.868   7.064
 4618POPC   C4A58542  10.148  43.964   7.520
 4618POPC   C1B58543  10.703  44.093   6.251
 4618POPC   C2B58544  10.817  43.783   6.604
 4618POPC   C3B58545  10.631  43.671   6.999
 4618POPC   C4B58546  10.569  44.032   7.262
 4619POPC   NC358547  23.983  16.883   5.476
 4619POPC   PO458548  23.798  16.320   5.140
 4619POPC   GL158549  23.689  16.507   5.617
 4619POPC   GL258550  23.447  16.773   5.751
 4619POPC   C1A58551  23.774  16.565   6.085
 4619POPC   D2A58552  23.507  16.400   6.440
 4619POPC   C3A58553  23.494  16.611   6.847
 4619POPC   C4A58554  23.697  16.591   7.245
 4619POPC   C1B58555  23.341  16.840   6.227
 4619POPC   C2B58556  23.086  16.909   6.647
 4619POPC   C3B58557  23.290  17.050   7.034
 4619POPC   C4B58558  23.575  17.049   7.370
 4620POPC   NC358559   8.643  25.343   5.495
 4620POPC   PO458560   8.067  25.569   5.405
 4620POPC   GL158561   7.950  25.264   5.704
 4620POPC   GL258562   8.252  25.088   5.747
 4620POPC   C1A58563   7.956  25.122   6.144
 4620POPC   D2A58564   8.137  25.255   6.521
 4620POPC   C3A58565   7.940  25.267   6.935
 4620POPC   C4A58566   8.133  25.201   7.345
 4620POPC   C1B58567   8.477  25.245   6.129
 4620POPC   C2B58568   8.643  25.333   6.561
 4620POPC   C3B58569   8.462  25.166   6.943
 4620POPC   C4B58570   8.533  24.892   7.292
 4621POPC   NC358571  16.593  11.351   5.271
 4621POPC   PO458572  17.065  10.884   5.373
 4621POPC   GL158573  16.759  11.063   5.660
 4621POPC   GL258574  16.871  11.395   5.721
 4621POPC   C1A58575  16.496  11.159   6.023
 4621POPC   D2A58576  16.617  11.177   6.459
 4621POPC   C3A58577  16.407  11.238   6.831
 4621POPC   C4A58578  16.474  11.137   7.247
 4621POPC   C1B58579  17.018  11.257   6.129
 4621POPC   C2B58580  17.010  11.479   6.549
 4621POPC   C3B58581  16.920  11.260   6.923
 4621POPC   C4B58582  16.980  11.211   7.356
 4622POPC   NC358583  11.294  35.957   5.432
 4622POPC   PO458584  11.172  36.586   5.164
 4622POPC   GL158585  11.339  36.469   5.657
 4622POPC   GL258586  11.493  36.157   5.854
 4622POPC   C1A58587  11.185  36.423   6.139
 4622POPC   D2A58588  11.097  36.438   6.619
 4622POPC   C3A58589  11.164  36.164   7.000
 4622POPC   C4A58590  11.306  36.237   7.442
 4622POPC   C1B58591  11.585  35.927   6.249
 4622POPC   C2B58592  11.485  35.871   6.706
 4622POPC   C3B58593  11.572  35.868   7.182
 4622POPC   C4B58594  11.745  35.757   7.596
 4623POPC   NC358595  25.124  10.779   5.125
 4623POPC   PO458596  25.125  11.409   5.378
 4623POPC   GL158597  25.314  11.131   5.699
 4623POPC   GL258598  24.984  10.975   5.750
 4623POPC   C1A58599  25.394  11.097   6.169
 4623POPC   D2A58600  25.583  11.236   6.561
 4623POPC   C3A58601  25.419  11.375   6.945
 4623POPC   C4A58602  25.470  11.151   7.314
 4623POPC   C1B58603  24.968  11.350   6.051
 4623POPC   C2B58604  25.038  11.290   6.501
 4623POPC   C3B58605  24.996  11.089   6.905
 4623POPC   C4B58606  24.912  11.346   7.228
 4624POPC   NC358607  13.552  41.937   5.163
 4624POPC   PO458608  13.895  41.295   5.197
 4624POPC   GL158609  13.574  41.364   5.627
 4624POPC   GL258610  13.605  41.760   5.828
 4624POPC   C1A58611  13.547  41.362   6.115
 4624POPC   D2A58612  13.619  41.724   6.413
 4624POPC   C3A58613  13.505  41.706   6.840
 4624POPC   C4A58614  13.499  41.407   7.180
 4624POPC   C1B58615  14.016  41.841   6.111
 4624POPC   C2B58616  14.162  41.757   6.539
 4624POPC   C3B58617  13.979  41.515   6.852
 4624POPC   C4B58618  13.882  41.747   7.194
 4625POPC   NC358619  43.444  42.516   5.604
 4625POPC   PO458620  42.875  42.389   5.319
 4625POPC   GL158621  42.981  42.461   5.780
 4625POPC   GL258622  43.187  42.212   5.938
 4625POPC   C1A58623  43.177  42.724   6.145
 4625POPC   D2A58624  43.482  42.685   6.476
 4625POPC   C3A58625  43.235  42.714   6.868
 4625POPC   C4A58626  43.214  42.447   7.235
 4625POPC   C1B58627  42.961  42.300   6.344
 4625POPC   C2B58628  42.911  42.278   6.799
 4625POPC   C3B58629  42.939  42.002   7.184
 4625POPC   C4B58630  43.276  41.874   7.472
 4626POPC   NC358631   4.672   1.441   5.521
 4626POPC   PO458632   4.285   0.972   5.285
 4626POPC   GL158633   4.309   1.110   5.737
 4626POPC   GL258634   3.998   1.277   5.835
 4626POPC   C1A58635   4.285   1.156   6.239
 4626POPC   D2A58636   4.003   1.358   6.531
 4626POPC   C3A58637   4.199   1.488   6.928
 4626POPC   C4A58638   4.538   1.366   7.206
 4626POPC   C1B58639   3.977   0.837   6.019
 4626POPC   C2B58640   4.001   0.774   6.483
 4626POPC   C3B58641   3.885   0.975   6.869
 4626POPC   C4B58642   4.112   1.075   7.248
 4627POPC   NC358643  11.348   0.681   5.229
 4627POPC   PO458644  11.037   0.074   5.121
 4627POPC   GL158645  11.257   0.398   5.607
 4627POPC   GL258646  11.291   0.770   5.732
 4627POPC   C1A58647  11.455   0.308   6.085
 4627POPC   D2A58648  11.525   0.333   6.573
 4627POPC   C3A58649  11.304   0.278   7.005
 4627POPC   C4A58650  11.376   0.177   7.466
 4627POPC   C1B58651  11.527   0.808   6.130
 4627POPC   C2B58652  11.485   0.848   6.592
 4627POPC   C3B58653  11.546   0.725   7.029
 4627POPC   C4B58654  11.239   0.658   7.362
 4628POPC   NC358655  40.166  21.576   5.529
 4628POPC   PO458656  39.782  21.053   5.391
 4628POPC   GL158657  39.951  21.158   5.779
 4628POPC   GL258658  39.824  21.490   5.901
 4628POPC   C1A58659  40.041  21.165   6.200
 4628POPC   D2A58660  39.826  21.402   6.505
 4628POPC   C3A58661  40.019  21.326   6.895
 4628POPC   C4A58662  40.013  21.049   7.195
 4628POPC   C1B58663  40.132  21.677   6.189
 4628POPC   C2B58664  40.079  21.829   6.620
 4628POPC   C3B58665  39.723  21.761   6.894
 4628POPC   C4B58666  39.732  21.490   7.283
 4629POPC   NC358667  15.388  20.045   5.546
 4629POPC   PO458668  14.921  19.634   5.416
 4629POPC   GL158669  15.149  19.633   5.777
 4629POPC   GL258670  14.999  19.940   5.831
 4629POPC   C1A58671  15.151  19.674   6.251
 4629POPC   D2A58672  14.971  19.455   6.612
 4629POPC   C3A58673  15.101  19.572   7.029
 4629POPC   C4A58674  15.245  19.570   7.462
 4629POPC   C1B58675  15.106  20.179   6.142
 4629POPC   C2B58676  15.149  20.231   6.538
 4629POPC   C3B58677  14.985  20.067   6.879
 4629POPC   C4B58678  15.210  20.054   7.257
 4630POPC   NC358679  38.168  20.018   5.537
 4630POPC   PO458680  38.685  19.729   5.234
 4630POPC   GL158681  38.473  19.680   5.762
 4630POPC   GL258682  38.134  19.580   5.856
 4630POPC   C1A58683  38.431  19.779   6.229
 4630POPC   D2A58684  38.358  20.168   6.473
 4630POPC   C3A58685  38.356  20.237   6.954
 4630POPC   C4A58686  38.573  20.113   7.364
 4630POPC   C1B58687  38.058  19.448   6.314
 4630POPC   C2B58688  38.122  19.729   6.685
 4630POPC   C3B58689  38.388  19.729   7.051
 4630POPC   C4B58690  38.372  19.564   7.481
 4631POPC   NC358691   6.842  42.733   5.402
 4631POPC   PO458692   6.809  42.105   5.597
 4631POPC   GL158693   6.707  42.459   5.847
 4631POPC   GL258694   6.430  42.712   5.775
 4631POPC   C1A58695   6.715  42.320   6.259
 4631POPC   D2A58696   6.956  42.383   6.587
 4631POPC   C3A58697   6.817  42.191   6.941
 4631POPC   C4A58698   6.773  42.023   7.348
 4631POPC   C1B58699   6.374  42.678   6.245
 4631POPC   C2B58700   6.429  42.498   6.710
 4631POPC   C3B58701   6.478  42.471   7.221
 4631POPC   C4B58702   6.343  42.561   7.678
 4632POPC   NC358703  37.325  14.762   5.198
 4632POPC   PO458704  37.651  14.200   5.435
 4632POPC   GL158705  37.640  14.442   5.765
 4632POPC   GL258706  37.571  14.743   5.649
 4632POPC   C1A58707  37.846  14.493   6.144
 4632POPC   D2A58708  37.799  14.290   6.528
 4632POPC   C3A58709  37.813  14.550   6.897
 4632POPC   C4A58710  37.832  14.421   7.305
 4632POPC   C1B58711  37.435  14.802   6.067
 4632POPC   C2B58712  37.508  14.730   6.489
 4632POPC   C3B58713  37.417  14.870   6.897
 4632POPC   C4B58714  37.561  14.847   7.316
 4633POPC   NC358715   9.184  35.257   5.473
 4633POPC   PO458716   8.517  35.418   5.463
 4633POPC   GL158717   8.849  35.533   5.781
 4633POPC   GL258718   8.712  35.762   5.995
 4633POPC   C1A58719   9.160  35.557   6.161
 4633POPC   D2A58720   9.176  35.435   6.629
 4633POPC   C3A58721   9.113  35.348   7.064
 4633POPC   C4A58722   9.149  34.915   7.107
 4633POPC   C1B58723   8.725  35.641   6.431
 4633POPC   C2B58724   8.608  35.288   6.706
 4633POPC   C3B58725   8.668  35.033   7.094
 4633POPC   C4B58726   8.802  35.144   7.543
 4634POPC   NC358727  32.116  10.380   5.424
 4634POPC   PO458728  32.124  10.994   5.466
 4634POPC   GL158729  31.961  10.690   5.807
 4634POPC   GL258730  32.261  10.443   5.901
 4634POPC   C1A58731  31.955  10.639   6.261
 4634POPC   D2A58732  32.305  10.820   6.489
 4634POPC   C3A58733  32.283  10.870   6.926
 4634POPC   C4A58734  32.057  10.575   7.205
 4634POPC   C1B58735  32.547  10.386   6.257
 4634POPC   C2B58736  32.535  10.086   6.592
 4634POPC   C3B58737  32.405  10.188   7.003
 4634POPC   C4B58738  32.574  10.542   7.191
 4635POPC   NC358739  31.122  12.671   5.342
 4635POPC   PO458740  31.708  13.092   5.120
 4635POPC   GL158741  31.703  13.059   5.663
 4635POPC   GL258742  31.340  12.954   5.769
 4635POPC   C1A58743  31.722  12.799   6.071
 4635POPC   D2A58744  31.736  12.970   6.514
 4635POPC   C3A58745  31.773  12.724   6.914
 4635POPC   C4A58746  31.926  12.859   7.312
 4635POPC   C1B58747  31.272  12.974   6.202
 4635POPC   C2B58748  31.299  12.682   6.541
 4635POPC   C3B58749  31.284  12.828   6.905
 4635POPC   C4B58750  31.425  13.017   7.208
 4636POPC   NC358751  33.852  15.057   5.115
 4636POPC   PO458752  34.062  15.411   5.683
 4636POPC   GL158753  33.802  15.171   5.883
 4636POPC   GL258754  33.621  14.975   5.660
 4636POPC   C1A58755  33.770  15.244   6.303
 4636POPC   D2A58756  34.119  15.140   6.551
 4636POPC   C3A58757  33.899  15.191   6.925
 4636POPC   C4A58758  33.855  15.524   7.211
 4636POPC   C1B58759  33.397  14.943   6.072
 4636POPC   C2B58760  33.472  14.843   6.527
 4636POPC   C3B58761  33.265  14.833   6.918
 4636POPC   C4B58762  33.474  15.065   7.195
 4637POPC   NC358763  37.181   6.979   5.514
 4637POPC   PO458764  37.592   6.507   5.223
 4637POPC   GL158765  37.492   6.554   5.642
 4637POPC   GL258766  37.188   6.386   5.633
 4637POPC   C1A58767  37.739   6.592   6.049
 4637POPC   D2A58768  37.730   6.462   6.499
 4637POPC   C3A58769  37.775   6.791   6.804
 4637POPC   C4A58770  37.841   6.705   7.250
 4637POPC   C1B58771  37.328   6.290   6.080
 4637POPC   C2B58772  37.205   6.491   6.480
 4637POPC   C3B58773  37.346   6.547   6.933
 4637POPC   C4B58774  37.330   6.661   7.384
 4638POPC   NC358775  39.517   3.188   5.401
 4638POPC   PO458776  39.061   3.618   5.319
 4638POPC   GL158777  39.150   3.510   5.700
 4638POPC   GL258778  39.508   3.590   5.732
 4638POPC   C1A58779  39.165   3.736   6.097
 4638POPC   D2A58780  39.314   3.851   6.507
 4638POPC   C3A58781  39.229   3.611   6.873
 4638POPC   C4A58782  39.065   3.696   7.259
 4638POPC   C1B58783  39.422   3.273   6.062
 4638POPC   C2B58784  39.420   3.286   6.491
 4638POPC   C3B58785  39.621   3.273   6.869
 4638POPC   C4B58786  39.479   3.368   7.280
 4639POPC   NC358787   7.276  26.244   5.374
 4639POPC   PO458788   7.340  26.936   5.286
 4639POPC   GL158789   7.377  26.990   5.730
 4639POPC   GL258790   7.766  26.965   5.703
 4639POPC   C1A58791   7.191  26.816   6.138
 4639POPC   D2A58792   7.324  26.493   6.469
 4639POPC   C3A58793   7.357  26.674   6.876
 4639POPC   C4A58794   7.157  26.973   7.148
 4639POPC   C1B58795   7.791  27.154   6.096
 4639POPC   C2B58796   7.638  26.950   6.474
 4639POPC   C3B58797   7.732  27.020   6.895
 4639POPC   C4B58798   7.658  26.853   7.302
 4640POPC   NC358799  17.798  40.014   5.551
 4640POPC   PO458800  18.412  39.959   5.403
 4640POPC   GL158801  18.390  40.094   5.793
 4640POPC   GL258802  18.137  40.357   5.775
 4640POPC   C1A58803  18.474  39.911   6.168
 4640POPC   D2A58804  18.240  39.831   6.520
 4640POPC   C3A58805  18.383  39.962   6.918
 4640POPC   C4A58806  18.484  39.647   7.225
 4640POPC   C1B58807  18.002  40.140   6.155
 4640POPC   C2B58808  18.006  40.275   6.552
 4640POPC   C3B58809  18.067  40.453   6.923
 4640POPC   C4B58810  18.210  40.312   7.276
 4641POPC   NC358811  28.264  41.477   5.618
 4641POPC   PO458812  28.795  41.524   5.270
 4641POPC   GL158813  28.736  41.465   5.766
 4641POPC   GL258814  28.756  41.760   6.005
 4641POPC   C1A58815  28.594  41.328   6.206
 4641POPC   D2A58816  28.609  41.434   6.650
 4641POPC   C3A58817  28.291  41.557   6.942
 4641POPC   C4A58818  28.346  41.408   7.360
 4641POPC   C1B58819  28.351  41.820   6.287
 4641POPC   C2B58820  28.228  42.060   6.676
 4641POPC   C3B58821  28.196  42.130   7.102
 4641POPC   C4B58822  28.175  41.868   7.441
 4642POPC   NC358823  17.882   9.051   5.354
 4642POPC   PO458824  18.541   8.738   5.465
 4642POPC   GL158825  18.429   9.002   5.785
 4642POPC   GL258826  18.129   8.935   5.797
 4642POPC   C1A58827  18.313   9.194   6.209
 4642POPC   D2A58828  18.234   9.004   6.633
 4642POPC   C3A58829  18.299   9.207   7.038
 4642POPC   C4A58830  17.918   9.351   7.181
 4642POPC   C1B58831  18.340   8.674   6.170
 4642POPC   C2B58832  18.357   8.507   6.627
 4642POPC   C3B58833  18.210   8.683   7.053
 4642POPC   C4B58834  17.835   8.618   7.318
 4643POPC   NC358835  15.465  18.605   5.593
 4643POPC   PO458836  15.733  18.024   5.352
 4643POPC   GL158837  15.940  18.211   5.748
 4643POPC   GL258838  16.267  18.023   5.904
 4643POPC   C1A58839  15.789  18.118   6.163
 4643POPC   D2A58840  15.793  18.294   6.554
 4643POPC   C3A58841  15.733  18.135   6.939
 4643POPC   C4A58842  15.812  18.408   7.262
 4643POPC   C1B58843  16.214  17.870   6.340
 4643POPC   C2B58844  16.212  17.995   6.790
 4643POPC   C3B58845  16.112  17.983   7.259
 4643POPC   C4B58846  16.246  17.886   7.737
 4644POPC   NC358847  26.882  25.331   5.187
 4644POPC   PO458848  26.984  25.866   5.512
 4644POPC   GL158849  26.875  25.423   5.702
 4644POPC   GL258850  26.576  25.179   5.559
 4644POPC   C1A58851  26.962  25.235   6.124
 4644POPC   D2A58852  26.983  25.447   6.517
 4644POPC   C3A58853  27.136  25.267   6.900
 4644POPC   C4A58854  26.988  25.367   7.301
 4644POPC   C1B58855  26.467  25.256   5.988
 4644POPC   C2B58856  26.470  25.271   6.442
 4644POPC   C3B58857  26.626  25.338   6.868
 4644POPC   C4B58858  26.540  25.136   7.225
 4645POPC   NC358859  15.122   0.751   5.368
 4645POPC   PO458860  15.361   0.132   5.473
 4645POPC   GL158861  15.218   0.411   5.774
 4645POPC   GL258862  15.436   0.702   5.791
 4645POPC   C1A58863  15.042   0.312   6.176
 4645POPC   D2A58864  15.319   0.340   6.510
 4645POPC   C3A58865  15.187   0.297   6.914
 4645POPC   C4A58866  15.349   0.411   7.283
 4645POPC   C1B58867  15.144   0.816   6.153
 4645POPC   C2B58868  15.052   0.790   6.635
 4645POPC   C3B58869  15.302   0.876   7.025
 4645POPC   C4B58870  15.710   0.776   7.225
 4646POPC   NC358871  10.649  24.803   5.392
 4646POPC   PO458872  10.238  24.309   5.462
 4646POPC   GL158873  10.347  24.609   5.809
 4646POPC   GL258874  10.155  24.936   5.844
 4646POPC   C1A58875  10.675  24.560   6.147
 4646POPC   D2A58876  10.948  24.555   6.517
 4646POPC   C3A58877  10.777  24.384   6.909
 4646POPC   C4A58878  10.699  24.431   7.369
 4646POPC   C1B58879  10.059  24.892   6.304
 4646POPC   C2B58880  10.351  24.695   6.627
 4646POPC   C3B58881  10.311  24.587   7.060
 4646POPC   C4B58882  10.381  24.819   7.439
 4647POPC   NC358883  40.881   5.071   5.375
 4647POPC   PO458884  41.225   5.419   5.849
 4647POPC   GL158885  40.794   5.259   5.835
 4647POPC   GL258886  40.913   4.904   5.861
 4647POPC   C1A58887  40.653   5.207   6.225
 4647POPC   D2A58888  41.039   5.286   6.506
 4647POPC   C3A58889  40.964   5.275   6.966
 4647POPC   C4A58890  40.548   5.229   7.139
 4647POPC   C1B58891  40.872   4.741   6.282
 4647POPC   C2B58892  40.685   4.934   6.657
 4647POPC   C3B58893  40.680   4.748   7.016
 4647POPC   C4B58894  40.956   4.829   7.280
 4648POPC   NC358895  27.343  11.725   5.161
 4648POPC   PO458896  27.597  11.156   5.312
 4648POPC   GL158897  27.663  11.228   5.800
 4648POPC   GL258898  27.529  11.576   5.969
 4648POPC   C1A58899  27.385  11.145   6.171
 4648POPC   D2A58900  27.480  11.370   6.565
 4648POPC   C3A58901  27.343  11.173   6.938
 4648POPC   C4A58902  27.368  11.225   7.355
 4648POPC   C1B58903  27.662  11.830   6.346
 4648POPC   C2B58904  27.841  11.737   6.753
 4648POPC   C3B58905  27.756  11.463   7.126
 4648POPC   C4B58906  27.697  11.482   7.619
 4649POPC   NC358907  10.800  22.309   5.293
 4649POPC   PO458908  11.365  22.115   5.486
 4649POPC   GL158909  11.034  22.127   5.817
 4649POPC   GL258910  10.872  21.781   5.945
 4649POPC   C1A58911  11.165  22.366   6.181
 4649POPC   D2A58912  11.514  22.403   6.461
 4649POPC   C3A58913  11.310  22.370   6.845
 4649POPC   C4A58914  11.345  22.494   7.226
 4649POPC   C1B58915  11.297  21.820   6.143
 4649POPC   C2B58916  11.294  21.953   6.544
 4649POPC   C3B58917  11.341  21.876   6.982
 4649POPC   C4B58918  11.053  22.090   7.229
 4650POPC   NC358919  39.449  24.443   5.276
 4650POPC   PO458920  39.211  24.953   5.498
 4650POPC   GL158921  39.227  24.518   5.759
 4650POPC   GL258922  38.952  24.271   5.890
 4650POPC   C1A58923  39.309  24.386   6.215
 4650POPC   D2A58924  39.072  24.178   6.570
 4650POPC   C3A58925  39.215  24.422   6.919
 4650POPC   C4A58926  39.574  24.541   7.132
 4650POPC   C1B58927  38.837  24.620   6.099
 4650POPC   C2B58928  38.775  24.608   6.529
 4650POPC   C3B58929  38.779  24.739   6.911
 4650POPC   C4B58930  38.921  24.646   7.318
 4651POPC   NC358931   1.544  26.339   5.522
 4651POPC   PO458932   1.422  25.685   5.261
 4651POPC   GL158933   1.235  25.931   5.617
 4651POPC   GL258934   1.556  25.933   5.830
 4651POPC   C1A58935   1.035  25.823   6.043
 4651POPC   D2A58936   0.914  26.030   6.421
 4651POPC   C3A58937   0.981  25.931   6.863
 4651POPC   C4A58938   0.895  26.135   7.234
 4651POPC   C1B58939   1.430  26.073   6.251
 4651POPC   C2B58940   1.387  26.200   6.666
 4651POPC   C3B58941   1.478  26.122   7.085
 4651POPC   C4B58942   1.730  26.445   7.295
 4652POPC   NC358943  29.518  15.597   5.138
 4652POPC   PO458944  29.977  15.132   5.432
 4652POPC   GL158945  29.823  15.091   5.819
 4652POPC   GL258946  29.935  14.793   5.924
 4652POPC   C1A58947  29.911  15.202   6.242
 4652POPC   D2A58948  29.881  15.081   6.645
 4652POPC   C3A58949  30.105  15.226   6.994
 4652POPC   C4A58950  29.779  15.290   7.230
 4652POPC   C1B58951  30.122  14.728   6.307
 4652POPC   C2B58952  30.036  14.585   6.683
 4652POPC   C3B58953  29.914  14.780   7.069
 4652POPC   C4B58954  30.182  14.900   7.410
 4653POPC   NC358955  28.526  15.665   5.035
 4653POPC   PO458956  28.356  16.151   5.381
 4653POPC   GL158957  28.468  15.957   5.764
 4653POPC   GL258958  28.783  16.088   5.802
 4653POPC   C1A58959  28.321  15.938   6.197
 4653POPC   D2A58960  28.028  15.858   6.566
 4653POPC   C3A58961  28.165  16.144   6.911
 4653POPC   C4A58962  28.410  15.954   7.229
 4653POPC   C1B58963  28.781  15.700   6.109
 4653POPC   C2B58964  28.900  15.594   6.515
 4653POPC   C3B58965  28.655  15.667   6.870
 4653POPC   C4B58966  28.709  15.538   7.262
 4654POPC   NC358967  11.451   1.938   5.407
 4654POPC   PO458968  10.944   2.262   5.512
 4654POPC   GL158969  11.211   2.074   5.853
 4654POPC   GL258970  11.297   1.726   5.848
 4654POPC   C1A58971  11.336   2.064   6.293
 4654POPC   D2A58972  11.481   2.202   6.676
 4654POPC   C3A58973  11.222   2.140   7.020
 4654POPC   C4A58974  11.391   2.262   7.357
 4654POPC   C1B58975  11.660   1.718   6.104
 4654POPC   C2B58976  11.741   1.735   6.555
 4654POPC   C3B58977  11.527   1.739   6.978
 4654POPC   C4B58978  11.430   1.764   7.455
 4655POPC   NC358979  39.475  38.908   5.574
 4655POPC   PO458980  39.608  38.263   5.423
 4655POPC   GL158981  39.390  38.277   5.838
 4655POPC   GL258982  39.270  38.602   5.925
 4655POPC   C1A58983  39.395  38.240   6.292
 4655POPC   D2A58984  39.279  38.427   6.644
 4655POPC   C3A58985  39.343  38.190   6.990
 4655POPC   C4A58986  39.280  38.443   7.342
 4655POPC   C1B58987  38.961  38.496   6.224
 4655POPC   C2B58988  38.784  38.580   6.613
 4655POPC   C3B58989  38.898  38.444   6.997
 4655POPC   C4B58990  38.748  38.619   7.355
 4656POPC   NC358991   1.691  18.138   5.440
 4656POPC   PO458992   2.248  18.320   5.108
 4656POPC   GL158993   2.186  18.257   5.612
 4656POPC   GL258994   2.107  17.924   5.685
 4656POPC   C1A58995   1.930  18.240   6.066
 4656POPC   D2A58996   1.732  18.158   6.508
 4656POPC   C3A58997   1.893  18.395   6.908
 4656POPC   C4A58998   1.856  18.579   7.345
 4656POPC   C1B58999   2.318  17.926   6.089
 4656POPC   C2B59000   2.229  17.957   6.518
 4656POPC   C3B59001   1.988  17.883   6.876
 4656POPC   C4B59002   2.002  18.052   7.279
 4657POPC   NC359003  43.566  19.845   5.281
 4657POPC   PO459004  44.090  20.056   5.542
 4657POPC   GL159005  43.773  19.851   5.812
 4657POPC   GL259006  43.543  20.087   5.723
 4657POPC   C1A59007  43.796  19.731   6.285
 4657POPC   D2A59008  43.960  19.964   6.680
 4657POPC   C3A59009  43.926  19.812   7.101
 4657POPC   C4A59010  43.867  19.388   7.205
 4657POPC   C1B59011  43.548  20.173   6.165
 4657POPC   C2B59012  43.465  20.012   6.574
 4657POPC   C3B59013  43.513  20.117   6.996
 4657POPC   C4B59014  43.637  20.158   7.449
 4658POPC   NC359015  29.160  13.213   5.369
 4658POPC   PO459016  28.924  12.595   5.344
 4658POPC   GL159017  29.081  12.800   5.730
 4658POPC   GL259018  28.822  12.938   5.957
 4658POPC   C1A59019  29.167  12.566   6.123
 4658POPC   D2A59020  28.955  12.447   6.525
 4658POPC   C3A59021  29.206  12.552   6.897
 4658POPC   C4A59022  29.330  12.549   7.354
 4658POPC   C1B59023  28.922  12.924   6.379
 4658POPC   C2B59024  28.874  12.940   6.771
 4658POPC   C3B59025  29.003  13.127   7.116
 4658POPC   C4B59026  28.795  13.067   7.496
 4659POPC   NC359027  34.351   2.004   5.476
 4659POPC   PO459028  35.033   1.892   5.395
 4659POPC   GL159029  34.750   1.878   5.793
 4659POPC   GL259030  34.561   2.164   5.927
 4659POPC   C1A59031  34.773   1.827   6.273
 4659POPC   D2A59032  34.592   2.188   6.503
 4659POPC   C3A59033  34.788   2.339   6.876
 4659POPC   C4A59034  34.828   2.065   7.229
 4659POPC   C1B59035  34.286   1.860   6.162
 4659POPC   C2B59036  34.284   1.791   6.630
 4659POPC   C3B59037  34.359   2.068   7.002
 4659POPC   C4B59038  34.409   1.995   7.498
 4660POPC   NC359039  36.396  33.154   5.341
 4660POPC   PO459040  35.817  32.804   5.350
 4660POPC   GL159041  36.068  32.839   5.751
 4660POPC   GL259042  36.373  32.639   5.723
 4660POPC   C1A59043  36.019  33.002   6.198
 4660POPC   D2A59044  36.021  33.356   6.535
 4660POPC   C3A59045  36.017  33.207   6.974
 4660POPC   C4A59046  35.890  32.806   7.165
 4660POPC   C1B59047  36.532  32.908   6.056
 4660POPC   C2B59048  36.472  33.068   6.471
 4660POPC   C3B59049  36.339  32.852   6.824
 4660POPC   C4B59050  36.427  32.969   7.245
 4661POPC   NC359051   8.536  11.317   5.352
 4661POPC   PO459052   9.232  11.123   5.489
 4661POPC   GL159053   9.104  11.370   5.829
 4661POPC   GL259054   8.766  11.497   5.792
 4661POPC   C1A59055   9.010  11.277   6.243
 4661POPC   D2A59056   8.820  11.276   6.626
 4661POPC   C3A59057   8.943  11.561   6.893
 4661POPC   C4A59058   8.801  11.421   7.269
 4661POPC   C1B59059   8.524  11.749   6.097
 4661POPC   C2B59060   8.430  11.706   6.531
 4661POPC   C3B59061   8.421  11.491   6.910
 4661POPC   C4B59062   8.285  11.423   7.317
 4662POPC   NC359063  38.099   8.463   5.030
 4662POPC   PO459064  37.597   8.013   5.268
 4662POPC   GL159065  37.672   8.052   5.746
 4662POPC   GL259066  37.474   8.323   5.925
 4662POPC   C1A59067  37.796   7.986   6.203
 4662POPC   D2A59068  37.644   8.027   6.652
 4662POPC   C3A59069  37.840   8.050   7.062
 4662POPC   C4A59070  38.066   8.471   7.132
 4662POPC   C1B59071  37.214   8.395   6.297
 4662POPC   C2B59072  37.208   8.432   6.735
 4662POPC   C3B59073  37.525   8.449   7.018
 4662POPC   C4B59074  37.532   8.328   7.473
 4663POPC   NC359075  37.997  12.078   5.510
 4663POPC   PO459076  37.424  11.849   5.631
 4663POPC   GL159077  37.708  12.156   5.905
 4663POPC   GL259078  38.083  12.356   5.913
 4663POPC   C1A59079  37.705  12.058   6.305
 4663POPC   D2A59080  37.519  11.918   6.672
 4663POPC   C3A59081  37.514  12.146   7.027
 4663POPC   C4A59082  37.780  11.973   7.374
 4663POPC   C1B59083  38.164  12.271   6.342
 4663POPC   C2B59084  37.874  12.347   6.702
 4663POPC   C3B59085  37.921  12.427   7.149
 4663POPC   C4B59086  38.051  12.415   7.583
 4664POPC   NC359087   8.744  30.413   5.320
 4664POPC   PO459088   8.954  31.018   5.495
 4664POPC   GL159089   9.003  30.652   5.738
 4664POPC   GL259090   9.327  30.458   5.703
 4664POPC   C1A59091   9.008  30.773   6.172
 4664POPC   D2A59092   8.876  31.003   6.557
 4664POPC   C3A59093   8.972  30.882   7.019
 4664POPC   C4A59094   9.034  30.947   7.492
 4664POPC   C1B59095   9.180  30.295   6.100
 4664POPC   C2B59096   9.042  30.361   6.524
 4664POPC   C3B59097   9.231  30.419   6.934
 4664POPC   C4B59098   9.074  30.337   7.339
 4665POPC   NC359099  28.942  10.757   5.242
 4665POPC   PO459100  28.751  10.206   5.513
 4665POPC   GL159101  29.113  10.468   5.649
 4665POPC   GL259102  29.474  10.342   5.709
 4665POPC   C1A59103  29.159  10.689   6.054
 4665POPC   D2A59104  29.078  10.767   6.499
 4665POPC   C3A59105  29.114  10.497   6.866
 4665POPC   C4A59106  29.123  10.556   7.317
 4665POPC   C1B59107  29.659  10.559   6.113
 4665POPC   C2B59108  29.581  10.559   6.592
 4665POPC   C3B59109  29.588  10.478   7.057
 4665POPC   C4B59110  29.423  10.118   7.289
 4666POPC   NC359111  12.995  30.751   5.644
 4666POPC   PO459112  12.573  31.134   5.425
 4666POPC   GL159113  12.539  30.932   5.839
 4666POPC   GL259114  12.550  30.547   5.858
 4666POPC   C1A59115  12.697  30.901   6.265
 4666POPC   D2A59116  12.547  30.708   6.656
 4666POPC   C3A59117  12.779  30.889   6.974
 4666POPC   C4A59118  12.838  30.836   7.421
 4666POPC   C1B59119  12.747  30.403   6.280
 4666POPC   C2B59120  13.048  30.614   6.622
 4666POPC   C3B59121  13.119  30.528   7.105
 4666POPC   C4B59122  13.044  30.399   7.566
 4667POPC   NC359123   0.750  28.477   5.433
 4667POPC   PO459124   1.278  28.781   5.492
 4667POPC   GL159125   1.472  28.546   5.812
 4667POPC   GL259126   1.119  28.418   5.824
 4667POPC   C1A59127   1.423  28.385   6.244
 4667POPC   D2A59128   1.220  28.486   6.623
 4667POPC   C3A59129   1.461  28.468   6.998
 4667POPC   C4A59130   1.356  28.068   7.197
 4667POPC   C1B59131   0.991  28.094   6.081
 4667POPC   C2B59132   0.831  28.163   6.458
 4667POPC   C3B59133   0.962  28.099   6.872
 4667POPC   C4B59134   0.976  28.445   7.144
 4668POPC   NC359135  20.823   4.125   5.177
 4668POPC   PO459136  20.979   4.670   5.593
 4668POPC   GL159137  20.808   4.379   5.849
 4668POPC   GL259138  20.762   4.033   5.804
 4668POPC   C1A59139  20.492   4.366   6.149
 4668POPC   D2A59140  20.384   4.235   6.550
 4668POPC   C3A59141  20.599   4.473   6.846
 4668POPC   C4A59142  20.522   4.513   7.265
 4668POPC   C1B59143  20.553   3.860   6.181
 4668POPC   C2B59144  20.707   3.785   6.571
 4668POPC   C3B59145  20.573   3.937   6.933
 4668POPC   C4B59146  20.688   4.034   7.296
 4669POPC   NC359147  16.544  15.507   5.404
 4669POPC   PO459148  16.683  14.848   5.279
 4669POPC   GL159149  16.607  15.044   5.735
 4669POPC   GL259150  16.282  14.932   5.879
 4669POPC   C1A59151  16.754  15.202   6.198
 4669POPC   D2A59152  16.954  15.407   6.635
 4669POPC   C3A59153  16.912  15.243   7.091
 4669POPC   C4A59154  16.991  15.120   7.568
 4669POPC   C1B59155  16.248  15.259   6.225
 4669POPC   C2B59156  16.407  15.276   6.666
 4669POPC   C3B59157  16.442  15.431   7.094
 4669POPC   C4B59158  16.498  15.113   7.377
 4670POPC   NC359159   0.383  40.425   5.391
 4670POPC   PO459160   0.211  39.761   5.508
 4670POPC   GL159161   0.491  39.993   5.813
 4670POPC   GL259162   0.578  40.349   5.850
 4670POPC   C1A59163   0.474  40.043   6.271
 4670POPC   D2A59164   0.510  39.763   6.603
 4670POPC   C3A59165   0.357  39.897   7.023
 4670POPC   C4A59166   0.612  39.717   7.333
 4670POPC   C1B59167   0.843  40.385   6.204
 4670POPC   C2B59168   0.678  40.357   6.641
 4670POPC   C3B59169   0.584  40.364   7.079
 4670POPC   C4B59170   0.515  40.612   7.449
 4671POPC   NC359171  44.685  26.258   5.429
 4671POPC   PO459172  44.840  25.619   5.358
 4671POPC   GL159173  44.883  25.900   5.745
 4671POPC   GL259174  44.537  25.975   5.875
 4671POPC   C1A59175  44.922  26.118   6.164
 4671POPC   D2A59176  44.701  26.042   6.525
 4671POPC   C3A59177  44.940  26.097   6.876
 4671POPC   C4A59178  44.803  25.984   7.284
 4671POPC   C1B59179  44.456  26.375   6.140
 4671POPC   C2B59180  44.466  26.508   6.606
 4671POPC   C3B59181  44.568  26.396   7.032
 4671POPC   C4B59182  44.446  26.360   7.471
 4672POPC   NC359183  17.896  29.602   5.072
 4672POPC   PO459184  17.349  29.804   5.452
 4672POPC   GL159185  17.479  30.018   5.796
 4672POPC   GL259186  17.816  30.176   5.741
 4672POPC   C1A59187  17.262  29.936   6.199
 4672POPC   D2A59188  17.186  29.768   6.622
 4672POPC   C3A59189  17.269  30.034   6.989
 4672POPC   C4A59190  17.444  29.895   7.373
 4672POPC   C1B59191  17.791  30.025   6.201
 4672POPC   C2B59192  17.674  29.975   6.662
 4672POPC   C3B59193  17.800  30.156   7.091
 4672POPC   C4B59194  17.752  30.246   7.573
 4673POPC   NC359195  32.930  17.243   5.342
 4673POPC   PO459196  33.368  16.750   5.268
 4673POPC   GL159197  33.182  16.720   5.719
 4673POPC   GL259198  32.899  16.958   5.821
 4673POPC   C1A59199  33.277  16.637   6.156
 4673POPC   D2A59200  33.220  16.875   6.533
 4673POPC   C3A59201  33.069  16.766   6.956
 4673POPC   C4A59202  33.107  16.855   7.415
 4673POPC   C1B59203  32.754  16.594   6.078
 4673POPC   C2B59204  32.576  16.462   6.483
 4673POPC   C3B59205  32.555  16.599   6.919
 4673POPC   C4B59206  32.780  16.484   7.273
 4674POPC   NC359207   5.975  23.557   5.263
 4674POPC   PO459208   5.693  24.174   5.130
 4674POPC   GL159209   5.844  23.996   5.567
 4674POPC   GL259210   5.698  23.674   5.679
 4674POPC   C1A59211   5.943  24.008   6.017
 4674POPC   D2A59212   5.768  23.977   6.461
 4674POPC   C3A59213   6.055  23.948   6.804
 4674POPC   C4A59214   6.058  24.158   7.184
 4674POPC   C1B59215   5.618  23.598   6.118
 4674POPC   C2B59216   5.737  23.446   6.512
 4674POPC   C3B59217   5.597  23.626   6.869
 4674POPC   C4B59218   5.829  23.693   7.208
 4675POPC   NC359219   5.048  37.293   5.360
 4675POPC   PO459220   4.865  36.591   5.302
 4675POPC   GL159221   4.893  36.804   5.649
 4675POPC   GL259222   5.165  36.601   5.776
 4675POPC   C1A59223   4.745  36.862   6.054
 4675POPC   D2A59224   4.907  36.768   6.434
 4675POPC   C3A59225   4.906  36.984   6.809
 4675POPC   C4A59226   4.993  36.894   7.252
 4675POPC   C1B59227   5.267  36.958   6.045
 4675POPC   C2B59228   5.344  37.008   6.498
 4675POPC   C3B59229   5.397  36.793   6.896
 4675POPC   C4B59230   5.536  36.911   7.292
 4676POPC   NC359231  18.255   4.902   5.382
 4676POPC   PO459232  18.867   4.654   5.547
 4676POPC   GL159233  18.553   4.820   5.804
 4676POPC   GL259234  18.476   5.207   5.788
 4676POPC   C1A59235  18.425   4.882   6.209
 4676POPC   D2A59236  18.668   5.009   6.545
 4676POPC   C3A59237  18.431   4.976   6.884
 4676POPC   C4A59238  18.543   4.984   7.256
 4676POPC   C1B59239  18.509   5.406   6.243
 4676POPC   C2B59240  18.450   5.482   6.727
 4676POPC   C3B59241  18.267   5.422   7.191
 4676POPC   C4B59242  17.917   5.491   7.533
 4677POPC   NC359243   9.518  14.833   5.276
 4677POPC   PO459244  10.034  15.293   5.546
 4677POPC   GL159245   9.989  15.162   5.932
 4677POPC   GL259246   9.825  14.869   5.746
 4677POPC   C1A59247   9.702  15.184   6.297
 4677POPC   D2A59248   9.453  15.235   6.687
 4677POPC   C3A59249   9.713  15.156   7.086
 4677POPC   C4A59250   9.517  14.961   7.450
 4677POPC   C1B59251   9.964  14.706   6.130
 4677POPC   C2B59252  10.110  14.915   6.492
 4677POPC   C3B59253  10.122  14.875   6.919
 4677POPC   C4B59254  10.185  15.165   7.300
 4678POPC   NC359255   4.060  42.824   5.609
 4678POPC   PO459256   4.556  43.244   5.309
 4678POPC   GL159257   4.372  43.253   5.761
 4678POPC   GL259258   4.510  42.978   5.952
 4678POPC   C1A59259   4.195  43.265   6.227
 4678POPC   D2A59260   4.329  42.929   6.521
 4678POPC   C3A59261   4.311  43.022   6.978
 4678POPC   C4A59262   4.403  43.385   7.245
 4678POPC   C1B59263   4.690  43.265   6.248
 4678POPC   C2B59264   4.541  43.419   6.646
 4678POPC   C3B59265   4.824  43.406   6.970
 4678POPC   C4B59266   4.815  43.010   7.169
 4679POPC   NC359267  15.440  42.475   5.450
 4679POPC   PO459268  14.683  42.553   5.492
 4679POPC   GL159269  14.989  42.238   5.672
 4679POPC   GL259270  15.051  42.502   5.878
 4679POPC   C1A59271  15.116  42.070   6.119
 4679POPC   D2A59272  15.182  42.293   6.518
 4679POPC   C3A59273  15.113  42.137   6.949
 4679POPC   C4A59274  14.931  42.404   7.257
 4679POPC   C1B59275  15.453  42.462   6.116
 4679POPC   C2B59276  15.693  42.243   6.458
 4679POPC   C3B59277  15.557  42.385   6.859
 4679POPC   C4B59278  15.429  42.424   7.258
 4680POPC   NC359279  26.318  34.444   5.471
 4680POPC   PO459280  25.837  34.805   5.456
 4680POPC   GL159281  25.962  34.558   5.832
 4680POPC   GL259282  25.713  34.290   5.824
 4680POPC   C1A59283  26.189  34.689   6.220
 4680POPC   D2A59284  26.016  34.924   6.572
 4680POPC   C3A59285  26.207  34.826   6.959
 4680POPC   C4A59286  25.976  34.846   7.352
 4680POPC   C1B59287  25.791  34.324   6.281
 4680POPC   C2B59288  26.046  34.418   6.664
 4680POPC   C3B59289  26.021  34.392   7.116
 4680POPC   C4B59290  26.180  34.164   7.446
 4681POPC   NC359291   7.503  10.137   5.226
 4681POPC   PO459292   7.588  10.750   5.401
 4681POPC   GL159293   7.400  10.491   5.745
 4681POPC   GL259294   7.647  10.213   5.739
 4681POPC   C1A59295   7.252  10.633   6.207
 4681POPC   D2A59296   7.121  10.742   6.668
 4681POPC   C3A59297   7.425  10.631   7.001
 4681POPC   C4A59298   7.401  10.640   7.484
 4681POPC   C1B59299   7.758  10.538   6.092
 4681POPC   C2B59300   7.817  10.587   6.537
 4681POPC   C3B59301   7.784  10.267   6.845
 4681POPC   C4B59302   7.653  10.259   7.253
 4682POPC   NC359303   3.442   7.771   5.449
 4682POPC   PO459304   3.550   7.181   5.253
 4682POPC   GL159305   3.447   7.251   5.729
 4682POPC   GL259306   3.591   7.550   5.881
 4682POPC   C1A59307   3.253   7.348   6.180
 4682POPC   D2A59308   3.155   7.536   6.601
 4682POPC   C3A59309   3.333   7.455   7.009
 4682POPC   C4A59310   3.631   7.187   7.188
 4682POPC   C1B59311   3.821   7.649   6.251
 4682POPC   C2B59312   3.666   7.653   6.672
 4682POPC   C3B59313   3.828   7.633   7.086
 4682POPC   C4B59314   3.971   7.486   7.518
 4683POPC   NC359315  18.817  32.524   5.429
 4683POPC   PO459316  19.454  32.234   5.525
 4683POPC   GL159317  19.104  32.350   5.798
 4683POPC   GL259318  19.264  32.620   5.939
 4683POPC   C1A59319  18.873  32.235   6.219
 4683POPC   D2A59320  18.704  32.004   6.621
 4683POPC   C3A59321  18.879  32.046   7.060
 4683POPC   C4A59322  18.877  32.408   7.350
 4683POPC   C1B59323  19.395  32.218   6.178
 4683POPC   C2B59324  19.263  32.099   6.585
 4683POPC   C3B59325  19.266  32.364   6.923
 4683POPC   C4B59326  19.391  32.365   7.311
 4684POPC   NC359327   7.889   5.190   5.364
 4684POPC   PO459328   7.334   4.838   5.151
 4684POPC   GL159329   7.472   5.077   5.619
 4684POPC   GL259330   7.512   4.801   5.889
 4684POPC   C1A59331   7.483   5.241   6.104
 4684POPC   D2A59332   7.657   5.027   6.487
 4684POPC   C3A59333   7.637   5.083   6.937
 4684POPC   C4A59334   7.346   5.243   7.265
 4684POPC   C1B59335   7.205   4.843   6.272
 4684POPC   C2B59336   7.188   4.958   6.710
 4684POPC   C3B59337   7.275   4.768   7.096
 4684POPC   C4B59338   7.369   4.564   7.473
 4685POPC   NC359339  34.838   7.087   5.610
 4685POPC   PO459340  34.367   7.536   5.371
 4685POPC   GL159341  34.516   7.510   5.780
 4685POPC   GL259342  34.405   7.201   5.893
 4685POPC   C1A59343  34.814   7.583   6.121
 4685POPC   D2A59344  35.023   7.464   6.521
 4685POPC   C3A59345  34.672   7.441   6.804
 4685POPC   C4A59346  34.515   7.564   7.195
 4685POPC   C1B59347  34.672   7.073   6.250
 4685POPC   C2B59348  34.502   6.989   6.638
 4685POPC   C3B59349  34.293   7.127   6.969
 4685POPC   C4B59350  34.575   7.020   7.238
 4686POPC   NC359351  11.543   8.250   5.516
 4686POPC   PO459352  10.899   8.266   5.623
 4686POPC   GL159353  11.182   8.354   5.932
 4686POPC   GL259354  11.321   8.037   5.912
 4686POPC   C1A59355  11.226   8.355   6.385
 4686POPC   D2A59356  11.372   8.542   6.769
 4686POPC   C3A59357  11.440   8.232   7.091
 4686POPC   C4A59358  11.160   7.868   7.190
 4686POPC   C1B59359  11.639   8.178   6.166
 4686POPC   C2B59360  11.639   8.121   6.589
 4686POPC   C3B59361  11.885   8.045   6.900
 4686POPC   C4B59362  11.930   8.273   7.281
 4687POPC   NC359363   2.536  41.420   5.347
 4687POPC   PO459364   2.522  42.113   5.245
 4687POPC   GL159365   2.669  41.831   5.697
 4687POPC   GL259366   2.856  41.477   5.728
 4687POPC   C1A59367   2.670  41.616   6.178
 4687POPC   D2A59368   2.829  41.431   6.574
 4687POPC   C3A59369   2.875  41.565   7.003
 4687POPC   C4A59370   2.810  41.328   7.379
 4687POPC   C1B59371   3.088  41.301   6.084
 4687POPC   C2B59372   3.300  41.256   6.486
 4687POPC   C3B59373   3.151  41.136   6.898
 4687POPC   C4B59374   3.263  41.146   7.301
 4688POPC   NC359375  38.294  13.628   5.410
 4688POPC   PO459376  38.529  12.964   5.346
 4688POPC   GL159377  38.345  13.261   5.792
 4688POPC   GL259378  38.366  13.652   5.902
 4688POPC   C1A59379  38.454  13.301   6.252
 4688POPC   D2A59380  38.449  13.695   6.488
 4688POPC   C3A59381  38.653  13.724   6.887
 4688POPC   C4A59382  38.604  13.836   7.300
 4688POPC   C1B59383  38.011  13.597   6.167
 4688POPC   C2B59384  37.957  13.784   6.559
 4688POPC   C3B59385  38.139  13.654   6.934
 4688POPC   C4B59386  37.961  13.691   7.293
 4689POPC   NC359387   6.943  23.739   5.434
 4689POPC   PO459388   6.290  23.882   5.362
 4689POPC   GL159389   6.310  23.681   5.795
 4689POPC   GL259390   6.665  23.618   5.842
 4689POPC   C1A59391   6.435  23.748   6.274
 4689POPC   D2A59392   6.771  23.953   6.565
 4689POPC   C3A59393   6.641  23.940   6.993
 4689POPC   C4A59394   6.342  23.728   7.242
 4689POPC   C1B59395   6.853  23.446   6.168
 4689POPC   C2B59396   6.869  23.419   6.579
 4689POPC   C3B59397   6.638  23.417   6.932
 4689POPC   C4B59398   6.851  23.507   7.291
 4690POPC   NC359399  17.007  39.804   5.422
 4690POPC   PO459400  16.420  40.159   5.274
 4690POPC   GL159401  16.461  40.178   5.752
 4690POPC   GL259402  16.826  40.125   5.812
 4690POPC   C1A59403  16.527  39.969   6.199
 4690POPC   D2A59404  16.548  39.711   6.553
 4690POPC   C3A59405  16.511  39.898   6.933
 4690POPC   C4A59406  16.471  40.191   7.242
 4690POPC   C1B59407  17.042  40.091   6.244
 4690POPC   C2B59408  16.953  40.017   6.700
 4690POPC   C3B59409  16.970  40.033   7.165
 4690POPC   C4B59410  16.975  39.726   7.522
 4691POPC   NC359411   6.210  39.216   5.263
 4691POPC   PO459412   5.638  39.024   5.480
 4691POPC   GL159413   5.711  39.164   5.874
 4691POPC   GL259414   5.888  39.457   5.817
 4691POPC   C1A59415   5.949  39.238   6.265
 4691POPC   D2A59416   6.257  39.140   6.561
 4691POPC   C3A59417   6.039  39.373   6.846
 4691POPC   C4A59418   5.883  39.251   7.203
 4691POPC   C1B59419   5.552  39.575   6.145
 4691POPC   C2B59420   5.523  39.631   6.588
 4691POPC   C3B59421   5.642  39.675   7.028
 4691POPC   C4B59422   5.603  39.550   7.503
 4692POPC   NC359423  23.573  13.872   5.572
 4692POPC   PO459424  23.826  13.145   5.420
 4692POPC   GL159425  23.820  13.479   5.782
 4692POPC   GL259426  24.092  13.406   5.967
 4692POPC   C1A59427  23.721  13.734   6.208
 4692POPC   D2A59428  23.621  13.595   6.676
 4692POPC   C3A59429  23.900  13.700   7.056
 4692POPC   C4A59430  23.912  13.582   7.546
 4692POPC   C1B59431  24.138  13.527   6.399
 4692POPC   C2B59432  24.041  13.929   6.605
 4692POPC   C3B59433  24.184  14.145   6.979
 4692POPC   C4B59434  24.086  14.019   7.398
 4693POPC   NC359435  36.578  43.886   5.464
 4693POPC   PO459436  35.911  43.711   5.220
 4693POPC   GL159437  36.052  43.825   5.637
 4693POPC   GL259438  36.253  43.559   5.816
 4693POPC   C1A59439  35.989  43.874   6.112
 4693POPC   D2A59440  36.209  43.718   6.486
 4693POPC   C3A59441  35.966  43.632   6.837
 4693POPC   C4A59442  36.121  43.814   7.198
 4693POPC   C1B59443  36.572  43.449   6.174
 4693POPC   C2B59444  36.740  43.445   6.604
 4693POPC   C3B59445  36.583  43.644   6.993
 4693POPC   C4B59446  36.501  43.572   7.466
 4694POPC   NC359447   5.214  19.054   5.429
 4694POPC   PO459448   4.519  18.994   5.391
 4694POPC   GL159449   4.823  18.896   5.729
 4694POPC   GL259450   4.523  18.788   5.899
 4694POPC   C1A59451   5.218  18.934   6.085
 4694POPC   D2A59452   5.487  18.986   6.499
 4694POPC   C3A59453   5.319  18.931   6.930
 4694POPC   C4A59454   5.208  18.726   7.322
 4694POPC   C1B59455   4.732  19.064   6.181
 4694POPC   C2B59456   4.947  19.015   6.543
 4694POPC   C3B59457   4.829  19.120   6.941
 4694POPC   C4B59458   4.720  18.844   7.241
 4695POPC   NC359459  20.800   5.703   5.338
 4695POPC   PO459460  20.121   5.768   5.332
 4695POPC   GL159461  20.456   5.825   5.713
 4695POPC   GL259462  20.824   6.019   5.745
 4695POPC   C1A59463  20.526   5.637   6.143
 4695POPC   D2A59464  20.551   5.363   6.497
 4695POPC   C3A59465  20.496   5.499   6.929
 4695POPC   C4A59466  20.441   5.788   7.259
 4695POPC   C1B59467  20.965   5.891   6.178
 4695POPC   C2B59468  20.787   5.841   6.619
 4695POPC   C3B59469  20.696   6.138   6.983
 4695POPC   C4B59470  20.639   6.186   7.486
 4696POPC   NC359471  18.073  31.131   5.447
 4696POPC   PO459472  17.624  30.635   5.180
 4696POPC   GL159473  17.513  30.635   5.619
 4696POPC   GL259474  17.461  31.025   5.627
 4696POPC   C1A59475  17.487  30.454   6.063
 4696POPC   D2A59476  17.302  30.355   6.476
 4696POPC   C3A59477  17.472  30.469   6.837
 4696POPC   C4A59478  17.453  30.529   7.263
 4696POPC   C1B59479  17.679  30.936   6.022
 4696POPC   C2B59480  17.610  30.796   6.446
 4696POPC   C3B59481  17.471  30.975   6.831
 4696POPC   C4B59482  17.662  30.997   7.223
 4697POPC   NC359483  13.474  14.956   5.167
 4697POPC   PO459484  13.790  14.851   5.743
 4697POPC   GL159485  13.505  14.921   6.065
 4697POPC   GL259486  13.490  15.291   6.071
 4697POPC   C1A59487  13.537  14.994   6.497
 4697POPC   D2A59488  13.662  15.308   6.752
 4697POPC   C3A59489  13.624  15.176   7.134
 4697POPC   C4A59490  13.235  15.227   7.333
 4697POPC   C1B59491  13.921  15.314   6.297
 4697POPC   C2B59492  14.081  15.572   6.674
 4697POPC   C3B59493  14.059  15.497   7.150
 4697POPC   C4B59494  14.154  15.501   7.646
 4698POPC   NC359495  14.109  20.661   5.304
 4698POPC   PO459496  14.746  20.587   5.391
 4698POPC   GL159497  14.426  20.476   5.688
 4698POPC   GL259498  14.189  20.744   5.780
 4698POPC   C1A59499  14.373  20.383   6.144
 4698POPC   D2A59500  14.659  20.365   6.525
 4698POPC   C3A59501  14.611  20.523   6.964
 4698POPC   C4A59502  14.297  20.439   7.319
 4698POPC   C1B59503  14.188  20.872   6.193
 4698POPC   C2B59504  14.160  20.623   6.562
 4698POPC   C3B59505  14.174  20.792   6.944
 4698POPC   C4B59506  14.252  20.971   7.308
 4699POPC   NC359507  18.129  43.145   5.519
 4699POPC   PO459508  18.810  43.040   5.403
 4699POPC   GL159509  18.574  43.043   5.829
 4699POPC   GL259510  18.331  43.350   5.934
 4699POPC   C1A59511  18.515  43.022   6.298
 4699POPC   D2A59512  18.398  43.369   6.579
 4699POPC   C3A59513  18.292  43.179   6.971
 4699POPC   C4A59514  18.306  43.085   7.403
 4699POPC   C1B59515  18.010  43.250   6.264
 4699POPC   C2B59516  17.838  43.234   6.725
 4699POPC   C3B59517  17.905  43.438   7.181
 4699POPC   C4B59518  18.025  43.479   7.620
 4700POPC   NC359519  19.335   6.693   5.438
 4700POPC   PO459520  18.628   6.534   5.511
 4700POPC   GL159521  18.967   6.737   5.832
 4700POPC   GL259522  19.223   6.474   5.896
 4700POPC   C1A59523  19.113   6.691   6.327
 4700POPC   D2A59524  19.471   6.590   6.627
 4700POPC   C3A59525  19.317   6.449   7.010
 4700POPC   C4A59526  19.074   6.675   7.263
 4700POPC   C1B59527  18.765   6.365   6.103
 4700POPC   C2B59528  18.661   6.382   6.520
 4700POPC   C3B59529  18.808   6.436   6.914
 4700POPC   C4B59530  18.771   6.280   7.333
 4701POPC   NC359531  24.879  16.055   5.572
 4701POPC   PO459532  24.222  16.382   5.564
 4701POPC   GL159533  24.283  16.045   5.907
 4701POPC   GL259534  24.614  15.828   5.947
 4701POPC   C1A59535  24.406  15.987   6.361
 4701POPC   D2A59536  24.780  16.083   6.612
 4701POPC   C3A59537  24.539  16.161   6.981
 4701POPC   C4A59538  24.177  15.973   7.202
 4701POPC   C1B59539  24.956  15.578   6.195
 4701POPC   C2B59540  24.953  15.540   6.657
 4701POPC   C3B59541  24.901  15.788   7.038
 4701POPC   C4B59542  24.629  15.857   7.380
 4702POPC   NC359543  25.088   9.412   5.498
 4702POPC   PO459544  25.303   8.809   5.376
 4702POPC   GL159545  25.268   8.634   5.787
 4702POPC   GL259546  25.009   8.775   5.892
 4702POPC   C1A59547  25.449   8.776   6.200
 4702POPC   D2A59548  25.660   8.968   6.579
 4702POPC   C3A59549  25.468   9.009   7.009
 4702POPC   C4A59550  25.502   9.238   7.430
 4702POPC   C1B59551  25.082   9.138   6.163
 4702POPC   C2B59552  25.176   9.180   6.593
 4702POPC   C3B59553  24.926   9.051   6.923
 4702POPC   C4B59554  24.730   9.330   7.198
 4703POPC   NC359555  31.948  15.121   5.269
 4703POPC   PO459556  32.363  15.544   5.486
 4703POPC   GL159557  32.574  15.235   5.747
 4703POPC   GL259558  32.352  14.938   5.767
 4703POPC   C1A59559  32.478  15.247   6.177
 4703POPC   D2A59560  32.116  15.352   6.393
 4703POPC   C3A59561  32.219  15.380   6.832
 4703POPC   C4A59562  32.026  15.405   7.255
 4703POPC   C1B59563  32.070  14.895   6.153
 4703POPC   C2B59564  32.135  14.911   6.623
 4703POPC   C3B59565  32.211  14.919   7.036
 4703POPC   C4B59566  32.114  14.580   7.216
 4704POPC   NC359567  23.249   9.874   5.255
 4704POPC   PO459568  23.902   9.994   5.315
 4704POPC   GL159569  23.921   9.836   5.758
 4704POPC   GL259570  24.174   9.583   5.907
 4704POPC   C1A59571  23.821   9.926   6.184
 4704POPC   D2A59572  23.684   9.740   6.541
 4704POPC   C3A59573  23.651   9.988   6.870
 4704POPC   C4A59574  23.491   9.895   7.248
 4704POPC   C1B59575  24.138   9.549   6.383
 4704POPC   C2B59576  24.145   9.729   6.804
 4704POPC   C3B59577  23.989   9.808   7.228
 4704POPC   C4B59578  24.072   9.683   7.668
 4705POPC   NC359579  12.383  24.402   5.454
 4705POPC   PO459580  12.925  24.763   5.406
 4705POPC   GL159581  12.853  24.482   5.757
 4705POPC   GL259582  12.679  24.138   5.784
 4705POPC   C1A59583  13.010  24.669   6.148
 4705POPC   D2A59584  13.018  24.949   6.472
 4705POPC   C3A59585  13.007  24.778   6.850
 4705POPC   C4A59586  12.733  24.662   7.166
 4705POPC   C1B59587  12.701  24.279   6.231
 4705POPC   C2B59588  12.943  24.310   6.609
 4705POPC   C3B59589  12.800  24.173   7.013
 4705POPC   C4B59590  12.908  24.218   7.432
 4706POPC   NC359591  27.506  28.186   5.143
 4706POPC   PO459592  27.906  28.711   5.113
 4706POPC   GL159593  27.790  28.546   5.588
 4706POPC   GL259594  27.649  28.165   5.651
 4706POPC   C1A59595  27.717  28.564   6.076
 4706POPC   D2A59596  27.908  28.590   6.515
 4706POPC   C3A59597  27.832  28.330   6.883
 4706POPC   C4A59598  27.634  28.219   7.267
 4706POPC   C1B59599  27.452  28.109   6.104
 4706POPC   C2B59600  27.421  28.264   6.564
 4706POPC   C3B59601  27.413  28.626   6.889
 4706POPC   C4B59602  27.507  28.749   7.343
 4707POPC   NC359603  30.008  16.333   5.479
 4707POPC   PO459604  29.831  16.984   5.271
 4707POPC   GL159605  29.926  16.861   5.689
 4707POPC   GL259606  29.649  16.657   5.724
 4707POPC   C1A59607  30.040  16.694   6.129
 4707POPC   D2A59608  30.155  16.484   6.509
 4707POPC   C3A59609  30.082  16.701   6.903
 4707POPC   C4A59610  30.425  16.614   7.208
 4707POPC   C1B59611  29.637  16.993   6.071
 4707POPC   C2B59612  29.819  17.035   6.478
 4707POPC   C3B59613  29.519  16.936   6.811
 4707POPC   C4B59614  29.573  16.866   7.243
 4708POPC   NC359615  42.677  10.537   5.384
 4708POPC   PO459616  42.067  10.401   5.367
 4708POPC   GL159617  42.231  10.287   5.775
 4708POPC   GL259618  42.584  10.159   5.726
 4708POPC   C1A59619  42.290  10.525   6.190
 4708POPC   D2A59620  42.216  10.419   6.630
 4708POPC   C3A59621  42.335  10.509   7.105
 4708POPC   C4A59622  42.150  10.855   7.376
 4708POPC   C1B59623  42.651  10.148   6.170
 4708POPC   C2B59624  42.699  10.233   6.644
 4708POPC   C3B59625  42.788  10.217   7.091
 4708POPC   C4B59626  42.657  10.232   7.511
 4709POPC   NC359627  34.216  33.771   5.455
 4709POPC   PO459628  34.819  34.091   5.469
 4709POPC   GL159629  34.685  33.873   5.846
 4709POPC   GL259630  34.314  33.841   5.949
 4709POPC   C1A59631  34.695  33.749   6.295
 4709POPC   D2A59632  34.554  33.736   6.729
 4709POPC   C3A59633  34.807  33.844   7.073
 4709POPC   C4A59634  34.875  33.441   7.249
 4709POPC   C1B59635  34.245  33.996   6.390
 4709POPC   C2B59636  34.104  33.960   6.812
 4709POPC   C3B59637  34.314  33.798   7.207
 4709POPC   C4B59638  34.336  34.032   7.622
 4710POPC   NC359639  32.336  41.904   5.599
 4710POPC   PO459640  31.999  41.457   5.230
 4710POPC   GL159641  32.057  41.456   5.677
 4710POPC   GL259642  32.415  41.406   5.683
 4710POPC   C1A59643  32.131  41.561   6.137
 4710POPC   D2A59644  32.356  41.682   6.527
 4710POPC   C3A59645  32.117  41.683   6.931
 4710POPC   C4A59646  32.336  41.578   7.305
 4710POPC   C1B59647  32.624  41.217   6.025
 4710POPC   C2B59648  32.651  41.234   6.479
 4710POPC   C3B59649  32.614  41.388   6.909
 4710POPC   C4B59650  32.667  41.172   7.341
 4711POPC   NC359651  22.534   0.785   5.145
 4711POPC   PO459652  22.542   0.248   5.539
 4711POPC   GL159653  22.866   0.341   5.841
 4711POPC   GL259654  22.973   0.642   5.783
 4711POPC   C1A59655  22.956   0.219   6.264
 4711POPC   D2A59656  22.851   0.400   6.690
 4711POPC   C3A59657  22.962   0.284   7.134
 4711POPC   C4A59658  22.875  44.924   7.427
 4711POPC   C1B59659  22.915   0.736   6.212
 4711POPC   C2B59660  22.996   0.891   6.604
 4711POPC   C3B59661  22.867   0.828   6.993
 4711POPC   C4B59662  23.011   0.717   7.409
 4712POPC   NC359663  43.608  17.427   5.548
 4712POPC   PO459664  44.167  17.722   5.298
 4712POPC   GL159665  44.009  17.711   5.745
 4712POPC   GL259666  43.697  17.905   5.748
 4712POPC   C1A59667  43.999  17.368   6.119
 4712POPC   D2A59668  44.008  17.144   6.564
 4712POPC   C3A59669  43.863  17.321   6.988
 4712POPC   C4A59670  44.081  17.460   7.388
 4712POPC   C1B59671  43.642  17.723   6.153
 4712POPC   C2B59672  43.454  17.639   6.535
 4712POPC   C3B59673  43.600  17.775   6.924
 4712POPC   C4B59674  43.604  17.640   7.333
 4713POPC   NC359675   8.706  42.060   5.092
 4713POPC   PO459676   9.338  41.965   5.343
 4713POPC   GL159677   9.046  42.143   5.706
 4713POPC   GL259678   9.109  42.505   5.768
 4713POPC   C1A59679   9.007  42.234   6.186
 4713POPC   D2A59680   8.754  42.107   6.540
 4713POPC   C3A59681   8.834  42.277   6.933
 4713POPC   C4A59682   8.642  42.370   7.295
 4713POPC   C1B59683   9.298  42.688   6.151
 4713POPC   C2B59684   9.444  42.710   6.585
 4713POPC   C3B59685   9.349  42.442   6.953
 4713POPC   C4B59686   9.214  42.415   7.383
 4714POPC   NC359687   5.737   4.365   5.528
 4714POPC   PO459688   6.378   4.238   5.593
 4714POPC   GL159689   6.069   4.300   5.956
 4714POPC   GL259690   5.735   4.520   6.009
 4714POPC   C1A59691   6.111   4.372   6.408
 4714POPC   D2A59692   6.337   4.490   6.803
 4714POPC   C3A59693   6.193   4.158   7.015
 4714POPC   C4A59694   5.828   4.070   7.179
 4714POPC   C1B59695   5.659   4.117   6.234
 4714POPC   C2B59696   5.780   4.040   6.657
 4714POPC   C3B59697   5.799   4.460   6.843
 4714POPC   C4B59698   5.556   4.729   7.131
 4715POPC   NC359699   5.860  18.663   5.493
 4715POPC   PO459700   5.598  19.343   5.365
 4715POPC   GL159701   5.719  19.135   5.739
 4715POPC   GL259702   5.832  19.465   5.884
 4715POPC   C1A59703   5.873  19.035   6.164
 4715POPC   D2A59704   6.092  19.143   6.581
 4715POPC   C3A59705   5.865  18.976   6.919
 4715POPC   C4A59706   5.681  18.964   7.328
 4715POPC   C1B59707   6.181  19.462   6.169
 4715POPC   C2B59708   6.366  19.604   6.565
 4715POPC   C3B59709   6.370  19.428   6.949
 4715POPC   C4B59710   5.979  19.413   7.167
 4716POPC   NC359711  25.713  37.465   5.417
 4716POPC   PO459712  26.264  37.907   5.372
 4716POPC   GL159713  26.032  37.778   5.733
 4716POPC   GL259714  26.200  37.489   5.850
 4716POPC   C1A59715  25.836  38.000   6.099
 4716POPC   D2A59716  25.680  37.959   6.543
 4716POPC   C3A59717  25.963  38.027   6.878
 4716POPC   C4A59718  26.055  37.763   7.233
 4716POPC   C1B59719  26.040  37.564   6.300
 4716POPC   C2B59720  25.946  37.525   6.760
 4716POPC   C3B59721  26.133  37.250   7.072
 4716POPC   C4B59722  26.360  37.399   7.421
 4717POPC   NC359723   7.291  24.665   5.283
 4717POPC   PO459724   7.854  24.279   5.271
 4717POPC   GL159725   7.718  24.277   5.760
 4717POPC   GL259726   7.397  24.484   5.789
 4717POPC   C1A59727   7.541  24.187   6.217
 4717POPC   D2A59728   7.369  24.116   6.663
 4717POPC   C3A59729   7.661  24.057   6.999
 4717POPC   C4A59730   7.819  24.310   7.359
 4717POPC   C1B59731   7.314  24.666   6.209
 4717POPC   C2B59732   7.510  24.604   6.626
 4717POPC   C3B59733   7.451  24.550   7.081
 4717POPC   C4B59734   7.419  24.609   7.558
 4718POPC   NC359735  11.873  43.423   5.449
 4718POPC   PO459736  12.259  42.895   5.484
 4718POPC   GL159737  12.034  42.985   5.867
 4718POPC   GL259738  11.920  43.363   5.950
 4718POPC   C1A59739  11.789  42.980   6.253
 4718POPC   D2A59740  12.002  42.937   6.599
 4718POPC   C3A59741  11.782  42.895   6.950
 4718POPC   C4A59742  12.124  42.967   7.169
 4718POPC   C1B59743  12.368  43.321   6.033
 4718POPC   C2B59744  12.367  43.289   6.452
 4718POPC   C3B59745  12.205  43.359   6.834
 4718POPC   C4B59746  12.385  43.397   7.207
 4719POPC   NC359747   0.388  26.939   5.408
 4719POPC   PO459748   0.978  26.473   5.686
 4719POPC   GL159749   0.626  26.646   5.761
 4719POPC   GL259750   0.760  26.957   5.772
 4719POPC   C1A59751   0.394  26.807   6.106
 4719POPC   D2A59752   0.249  26.925   6.513
 4719POPC   C3A59753   0.416  26.637   6.831
 4719POPC   C4A59754   0.453  26.753   7.275
 4719POPC   C1B59755   0.863  27.050   6.171
 4719POPC   C2B59756   0.772  26.875   6.536
 4719POPC   C3B59757   0.833  26.915   6.955
 4719POPC   C4B59758   0.860  27.064   7.334
 4720POPC   NC359759  30.749  41.017   5.603
 4720POPC   PO459760  30.439  40.486   5.397
 4720POPC   GL159761  30.534  40.619   5.841
 4720POPC   GL259762  30.362  40.919   5.947
 4720POPC   C1A59763  30.770  40.747   6.248
 4720POPC   D2A59764  31.024  40.633   6.636
 4720POPC   C3A59765  30.830  40.563   7.063
 4720POPC   C4A59766  30.972  40.457   7.497
 4720POPC   C1B59767  30.502  41.200   6.307
 4720POPC   C2B59768  30.669  41.019   6.711
 4720POPC   C3B59769  30.627  41.037   7.180
 4720POPC   C4B59770  30.420  41.111   7.591
 4721POPC   NC359771  29.407   3.662   5.607
 4721POPC   PO459772  29.757   3.170   5.540
 4721POPC   GL159773  29.762   3.415   5.881
 4721POPC   GL259774  29.622   3.168   6.051
 4721POPC   C1A59775  29.882   3.635   6.236
 4721POPC   D2A59776  30.219   3.621   6.529
 4721POPC   C3A59777  30.065   3.576   6.963
 4721POPC   C4A59778  30.208   3.718   7.353
 4721POPC   C1B59779  29.596   3.126   6.467
 4721POPC   C2B59780  29.643   3.503   6.678
 4721POPC   C3B59781  29.501   3.748   7.011
 4721POPC   C4B59782  29.438   3.416   7.272
 4722POPC   NC359783  43.971  34.131   5.496
 4722POPC   PO459784  44.120  33.477   5.447
 4722POPC   GL159785  43.829  33.552   5.787
 4722POPC   GL259786  43.836  33.914   5.919
 4722POPC   C1A59787  43.654  33.549   6.211
 4722POPC   D2A59788  43.688  33.863   6.541
 4722POPC   C3A59789  43.587  33.696   6.945
 4722POPC   C4A59790  43.897  33.553   7.262
 4722POPC   C1B59791  44.031  34.140   6.218
 4722POPC   C2B59792  44.029  34.278   6.651
 4722POPC   C3B59793  43.995  33.986   6.994
 4722POPC   C4B59794  44.177  33.963   7.424
 4723POPC   NC359795  24.713  31.262   5.537
 4723POPC   PO459796  24.041  31.393   5.637
 4723POPC   GL159797  24.390  31.484   5.920
 4723POPC   GL259798  24.758  31.637   5.895
 4723POPC   C1A59799  24.455  31.666   6.307
 4723POPC   D2A59800  24.799  31.738   6.550
 4723POPC   C3A59801  24.622  31.588   6.906
 4723POPC   C4A59802  24.361  31.445   7.249
 4723POPC   C1B59803  24.854  31.310   6.218
 4723POPC   C2B59804  25.022  31.235   6.642
 4723POPC   C3B59805  24.875  31.218   7.107
 4723POPC   C4B59806  24.868  31.631   7.353
 4724POPC   NC359807  22.283  20.396   5.229
 4724POPC   PO459808  21.794  20.835   5.216
 4724POPC   GL159809  21.932  20.757   5.680
 4724POPC   GL259810  22.047  20.416   5.813
 4724POPC   C1A59811  21.999  20.838   6.146
 4724POPC   D2A59812  22.238  21.031   6.506
 4724POPC   C3A59813  22.145  20.908   6.962
 4724POPC   C4A59814  22.354  20.599   7.180
 4724POPC   C1B59815  22.087  20.321   6.295
 4724POPC   C2B59816  22.246  20.198   6.756
 4724POPC   C3B59817  22.094  20.175   7.221
 4724POPC   C4B59818  21.843  20.122   7.644
 4725POPC   NC359819  13.650  38.613   5.073
 4725POPC   PO459820  13.290  38.228   5.422
 4725POPC   GL159821  13.593  38.504   5.681
 4725POPC   GL259822  13.804  38.290   5.922
 4725POPC   C1A59823  13.558  38.708   6.128
 4725POPC   D2A59824  13.713  38.832   6.565
 4725POPC   C3A59825  13.500  38.688   6.922
 4725POPC   C4A59826  13.690  38.404   7.203
 4725POPC   C1B59827  13.857  38.355   6.401
 4725POPC   C2B59828  13.519  38.228   6.701
 4725POPC   C3B59829  13.379  38.002   7.082
 4725POPC   C4B59830  13.426  38.066   7.548
 4726POPC   NC359831   0.497  31.007   5.274
 4726POPC   PO459832   0.194  30.433   5.245
 4726POPC   GL159833   0.371  30.689   5.631
 4726POPC   GL259834   0.385  30.484   5.877
 4726POPC   C1A59835   0.647  30.893   6.013
 4726POPC   D2A59836   0.565  30.812   6.465
 4726POPC   C3A59837   0.809  30.918   6.847
 4726POPC   C4A59838   0.583  30.864   7.247
 4726POPC   C1B59839   0.145  30.831   6.103
 4726POPC   C2B59840   0.013  30.961   6.538
 4726POPC   C3B59841   0.084  30.884   6.982
 4726POPC   C4B59842  44.852  31.015   7.357
 4727POPC   NC359843   2.460  28.410   5.382
 4727POPC   PO459844   3.156  28.545   5.552
 4727POPC   GL159845   3.010  28.264   5.849
 4727POPC   GL259846   2.675  28.369   5.843
 4727POPC   C1A59847   2.906  28.275   6.298
 4727POPC   D2A59848   2.692  28.394   6.674
 4727POPC   C3A59849   2.774  28.114   7.017
 4727POPC   C4A59850   3.064  28.098   7.318
 4727POPC   C1B59851   2.494  28.591   6.215
 4727POPC   C2B59852   2.288  28.747   6.557
 4727POPC   C3B59853   2.443  28.725   6.962
 4727POPC   C4B59854   2.784  28.591   7.197
 4728POPC   NC359855   8.733   3.449   5.592
 4728POPC   PO459856   9.344   3.687   5.431
 4728POPC   GL159857   9.215   3.714   5.831
 4728POPC   GL259858   9.147   3.370   5.903
 4728POPC   C1A59859   9.130   3.766   6.288
 4728POPC   D2A59860   8.920   3.521   6.630
 4728POPC   C3A59861   8.836   3.610   7.068
 4728POPC   C4A59862   8.949   3.830   7.473
 4728POPC   C1B59863   9.365   3.071   6.161
 4728POPC   C2B59864   9.269   2.940   6.581
 4728POPC   C3B59865   9.142   3.171   6.935
 4728POPC   C4B59866   9.212   3.391   7.307
 4729POPC   NC359867  34.775  19.251   5.426
 4729POPC   PO459868  34.187  19.479   5.402
 4729POPC   GL159869  34.446  19.214   5.814
 4729POPC   GL259870  34.786  19.348   5.933
 4729POPC   C1A59871  34.660  18.941   6.200
 4729POPC   D2A59872  34.870  19.090   6.610
 4729POPC   C3A59873  34.776  19.003   7.061
 4729POPC   C4A59874  34.431  18.797   7.212
 4729POPC   C1B59875  34.508  19.412   6.308
 4729POPC   C2B59876  34.546  19.538   6.715
 4729POPC   C3B59877  34.519  19.453   7.143
 4729POPC   C4B59878  34.739  19.424   7.533
 4730POPC   NC359879  42.296  17.389   4.906
 4730POPC   PO459880  42.560  17.203   5.518
 4730POPC   GL159881  42.606  17.351   5.906
 4730POPC   GL259882  42.316  17.590   5.860
 4730POPC   C1A59883  42.368  17.317   6.284
 4730POPC   D2A59884  42.182  17.204   6.642
 4730POPC   C3A59885  42.472  17.328   6.950
 4730POPC   C4A59886  42.293  17.458   7.308
 4730POPC   C1B59887  42.572  17.781   6.208
 4730POPC   C2B59888  42.465  17.753   6.666
 4730POPC   C3B59889  42.609  17.828   7.137
 4730POPC   C4B59890  42.579  17.776   7.617
 4731POPC   NC359891  37.263  30.882   5.526
 4731POPC   PO459892  36.665  30.440   5.391
 4731POPC   GL159893  36.913  30.508   5.754
 4731POPC   GL259894  36.717  30.221   5.849
 4731POPC   C1A59895  36.994  30.736   6.162
 4731POPC   D2A59896  37.004  31.046   6.503
 4731POPC   C3A59897  36.918  30.929   6.907
 4731POPC   C4A59898  37.133  30.818   7.320
 4731POPC   C1B59899  36.915  30.228   6.219
 4731POPC   C2B59900  36.787  30.451   6.567
 4731POPC   C3B59901  36.868  30.443   6.987
 4731POPC   C4B59902  36.624  30.711   7.265
 4732POPC   NC359903  25.001  40.889   5.350
 4732POPC   PO459904  25.497  40.422   5.286
 4732POPC   GL159905  25.342  40.641   5.664
 4732POPC   GL259906  24.979  40.576   5.769
 4732POPC   C1A59907  25.374  40.779   6.107
 4732POPC   D2A59908  25.576  40.636   6.503
 4732POPC   C3A59909  25.437  40.832   6.885
 4732POPC   C4A59910  25.496  40.609   7.218
 4732POPC   C1B59911  24.875  40.712   6.222
 4732POPC   C2B59912  24.977  40.800   6.689
 4732POPC   C3B59913  24.996  40.843   7.186
 4732POPC   C4B59914  24.871  40.922   7.659
 4733POPC   NC359915  39.957  33.207   5.599
 4733POPC   PO459916  39.808  32.549   5.446
 4733POPC   GL159917  39.935  32.802   5.894
 4733POPC   GL259918  40.263  33.046   5.956
 4733POPC   C1A59919  39.880  33.179   6.252
 4733POPC   D2A59920  40.275  33.294   6.520
 4733POPC   C3A59921  40.278  33.175   6.954
 4733POPC   C4A59922  39.914  33.025   7.099
 4733POPC   C1B59923  40.206  32.808   6.345
 4733POPC   C2B59924  40.128  32.688   6.765
 4733POPC   C3B59925  40.374  32.695   7.152
 4733POPC   C4B59926  40.303  32.989   7.475
 4734POPC   NC359927   3.234  43.224   5.213
 4734POPC   PO459928   2.692  43.509   5.618
 4734POPC   GL159929   2.536  43.206   5.890
 4734POPC   GL259930   2.642  42.856   5.769
 4734POPC   C1A59931   2.709  43.266   6.296
 4734POPC   D2A59932   2.747  43.512   6.665
 4734POPC   C3A59933   3.043  43.364   6.907
 4734POPC   C4A59934   2.847  43.188   7.276
 4734POPC   C1B59935   2.530  42.747   6.170
 4734POPC   C2B59936   2.451  42.917   6.563
 4734POPC   C3B59937   2.619  42.848   6.955
 4734POPC   C4B59938   2.415  42.918   7.311
 4735POPC   NC359939  27.833  24.017   5.525
 4735POPC   PO459940  27.414  23.546   5.398
 4735POPC   GL159941  27.519  23.677   5.825
 4735POPC   GL259942  27.864  23.578   5.828
 4735POPC   C1A59943  27.334  23.722   6.275
 4735POPC   D2A59944  27.207  23.862   6.720
 4735POPC   C3A59945  27.304  23.593   7.107
 4735POPC   C4A59946  27.350  23.580   7.595
 4735POPC   C1B59947  27.858  23.860   6.194
 4735POPC   C2B59948  28.068  23.888   6.609
 4735POPC   C3B59949  27.853  23.976   6.976
 4735POPC   C4B59950  27.739  23.755   7.330
 4736POPC   NC359951  13.190  11.334   5.477
 4736POPC   PO459952  12.520  11.285   5.296
 4736POPC   GL159953  12.711  11.193   5.690
 4736POPC   GL259954  12.553  10.994   5.928
 4736POPC   C1A59955  12.951  11.289   6.102
 4736POPC   D2A59956  13.056  11.561   6.466
 4736POPC   C3A59957  12.998  11.312   6.844
 4736POPC   C4A59958  12.907  11.349   7.269
 4736POPC   C1B59959  12.403  11.353   6.123
 4736POPC   C2B59960  12.396  11.363   6.571
 4736POPC   C3B59961  12.502  11.187   6.988
 4736POPC   C4B59962  12.772  10.853   7.173
 4737POPC   NC359963  40.857  16.319   5.555
 4737POPC   PO459964  40.976  16.934   5.380
 4737POPC   GL159965  40.854  16.803   5.808
 4737POPC   GL259966  40.528  16.723   5.664
 4737POPC   C1A59967  40.865  16.710   6.291
 4737POPC   D2A59968  40.796  16.837   6.766
 4737POPC   C3A59969  40.815  16.590   7.180
 4737POPC   C4A59970  40.753  16.409   7.623
 4737POPC   C1B59971  40.435  16.562   6.076
 4737POPC   C2B59972  40.415  16.577   6.502
 4737POPC   C3B59973  40.364  16.566   6.940
 4737POPC   C4B59974  40.303  16.433   7.359
 4738POPC   NC359975  15.733   9.179   5.534
 4738POPC   PO459976  16.289   9.128   5.128
 4738POPC   GL159977  16.129   8.899   5.614
 4738POPC   GL259978  16.028   9.186   5.949
 4738POPC   C1A59979  15.890   8.730   6.027
 4738POPC   D2A59980  15.919   8.975   6.455
 4738POPC   C3A59981  15.988   8.797   6.898
 4738POPC   C4A59982  16.033   8.867   7.362
 4738POPC   C1B59983  15.652   9.389   6.200
 4738POPC   C2B59984  15.603   9.433   6.681
 4738POPC   C3B59985  15.752   9.236   7.088
 4738POPC   C4B59986  15.710   9.218   7.560
 4739POPC   NC359987  16.893  10.581   5.027
 4739POPC   PO459988  16.447  10.106   5.265
 4739POPC   GL159989  16.555  10.303   5.701
 4739POPC   GL259990  16.470  10.654   5.804
 4739POPC   C1A59991  16.867  10.247   6.056
 4739POPC   D2A59992  17.036  10.396   6.454
 4739POPC   C3A59993  16.888  10.244   6.813
 4739POPC   C4A59994  16.918  10.313   7.230
 4739POPC   C1B59995  16.710  10.728   6.203
 4739POPC   C2B59996  16.690  10.710   6.663
 4739POPC   C3B59997  16.600  10.671   7.072
 4739POPC   C4B59998  16.482  10.400   7.465
 4740POPC   NC359999  43.750   9.401   5.433
 4740POPC   PO460000  44.030  10.078   5.457
 4740POPC   GL160001  43.863   9.901   5.823
 4740POPC   GL260002  44.025   9.588   5.830
 4740POPC   C1A60003  43.981   9.801   6.281
 4740POPC   D2A60004  44.272   9.753   6.625
 4740POPC   C3A60005  44.154   9.977   6.997
 4740POPC   C4A60006  43.807  10.058   7.273
 4740POPC   C1B60007  43.600   9.526   6.078
 4740POPC   C2B60008  43.629   9.438   6.533
 4740POPC   C3B60009  43.525   9.383   6.957
 4740POPC   C4B60010  43.839   9.553   7.193
 4741POPC   NC360011  34.254   5.386   5.147
 4741POPC   PO460012  33.908   4.874   5.477
 4741POPC   GL160013  33.911   4.896   5.907
 4741POPC   GL260014  33.730   5.219   5.909
 4741POPC   C1A60015  34.038   5.032   6.336
 4741POPC   D2A60016  33.825   4.896   6.714
 4741POPC   C3A60017  33.839   5.045   7.113
 4741POPC   C4A60018  33.496   4.953   7.396
 4741POPC   C1B60019  33.798   5.481   6.284
 4741POPC   C2B60020  33.874   5.441   6.732
 4741POPC   C3B60021  33.875   5.588   7.151
 4741POPC   C4B60022  33.840   5.328   7.545
 4742POPC   NC360023  13.375  34.822   5.147
 4742POPC   PO460024  13.593  34.219   5.339
 4742POPC   GL160025  13.669  34.238   5.813
 4742POPC   GL260026  13.709  34.609   5.859
 4742POPC   C1A60027  13.416  34.293   6.229
 4742POPC   D2A60028  13.452  34.181   6.676
 4742POPC   C3A60029  13.457  34.501   6.995
 4742POPC   C4A60030  13.771  34.569   7.284
 4742POPC   C1B60031  13.902  34.502   6.206
 4742POPC   C2B60032  13.705  34.656   6.567
 4742POPC   C3B60033  13.859  35.008   6.790
 4742POPC   C4B60034  13.860  35.055   7.234
 4743POPC   NC360035  11.797   7.512   5.413
 4743POPC   PO460036  11.634   6.932   5.569
 4743POPC   GL160037  11.831   7.235   5.839
 4743POPC   GL260038  12.131   7.469   5.806
 4743POPC   C1A60039  11.737   7.289   6.243
 4743POPC   D2A60040  11.941   7.165   6.600
 4743POPC   C3A60041  11.700   7.185   6.941
 4743POPC   C4A60042  11.961   7.147   7.272
 4743POPC   C1B60043  12.290   7.348   6.248
 4743POPC   C2B60044  12.450   7.274   6.728
 4743POPC   C3B60045  12.436   7.375   7.229
 4743POPC   C4B60046  12.532   7.702   7.575
 4744POPC   NC360047  25.717  22.498   5.512
 4744POPC   PO460048  26.100  21.943   5.268
 4744POPC   GL160049  25.862  21.996   5.665
 4744POPC   GL260050  26.159  22.031   5.881
 4744POPC   C1A60051  25.700  22.107   6.102
 4744POPC   D2A60052  25.803  22.325   6.523
 4744POPC   C3A60053  25.966  22.068   6.872
 4744POPC   C4A60054  25.915  22.150   7.306
 4744POPC   C1B60055  26.139  21.976   6.345
 4744POPC   C2B60056  26.376  22.251   6.635
 4744POPC   C3B60057  26.389  22.387   7.072
 4744POPC   C4B60058  26.362  22.287   7.518
 4745POPC   NC360059  39.070   2.294   5.383
 4745POPC   PO460060  39.569   1.848   5.398
 4745POPC   GL160061  39.352   1.845   5.808
 4745POPC   GL260062  39.111   2.126   5.864
 4745POPC   C1A60063  39.108   1.739   6.207
 4745POPC   D2A60064  38.937   1.897   6.624
 4745POPC   C3A60065  39.247   2.103   6.891
 4745POPC   C4A60066  39.464   1.876   7.206
 4745POPC   C1B60067  39.071   2.291   6.298
 4745POPC   C2B60068  38.996   2.505   6.689
 4745POPC   C3B60069  38.836   2.377   7.095
 4745POPC   C4B60070  39.097   2.179   7.381
 4746POPC   NC360071   0.732   6.448   5.512
 4746POPC   PO460072   1.376   6.855   5.454
 4746POPC   GL160073   1.180   6.765   5.849
 4746POPC   GL260074   0.822   6.858   5.845
 4746POPC   C1A60075   1.092   6.987   6.262
 4746POPC   D2A60076   1.246   7.077   6.683
 4746POPC   C3A60077   1.258   6.695   6.918
 4746POPC   C4A60078   1.125   6.585   7.335
 4746POPC   C1B60079   0.852   6.503   6.178
 4746POPC   C2B60080   1.051   6.319   6.567
 4746POPC   C3B60081   0.876   6.349   6.976
 4746POPC   C4B60082   0.604   6.450   7.307
 4747POPC   NC360083  26.382  13.982   5.384
 4747POPC   PO460084  25.924  14.334   5.697
 4747POPC   GL160085  25.986  14.672   5.943
 4747POPC   GL260086  26.309  14.802   5.780
 4747POPC   C1A60087  25.632  14.615   6.226
 4747POPC   D2A60088  25.638  14.260   6.473
 4747POPC   C3A60089  25.833  14.310   6.872
 4747POPC   C4A60090  25.765  14.092   7.257
 4747POPC   C1B60091  26.440  14.553   6.154
 4747POPC   C2B60092  26.230  14.570   6.543
 4747POPC   C3B60093  26.267  14.713   6.958
 4747POPC   C4B60094  26.185  14.396   7.263
 4748POPC   NC360095  42.275   6.079   5.500
 4748POPC   PO460096  42.492   5.414   5.492
 4748POPC   GL160097  42.533   5.745   5.787
 4748POPC   GL260098  42.173   5.776   5.914
 4748POPC   C1A60099  42.538   6.018   6.157
 4748POPC   D2A60100  42.325   5.923   6.524
 4748POPC   C3A60101  42.543   5.933   6.907
 4748POPC   C4A60102  42.316   6.022   7.246
 4748POPC   C1B60103  41.924   5.508   6.206
 4748POPC   C2B60104  42.049   5.397   6.607
 4748POPC   C3B60105  42.078   5.681   6.917
 4748POPC   C4B60106  41.829   5.945   7.152
 4749POPC   NC360107  10.072  20.084   5.491
 4749POPC   PO460108   9.546  19.589   5.364
 4749POPC   GL160109   9.745  19.778   5.759
 4749POPC   GL260110  10.110  19.679   5.771
 4749POPC   C1A60111   9.661  19.883   6.219
 4749POPC   D2A60112   9.567  20.161   6.592
 4749POPC   C3A60113   9.470  20.020   7.019
 4749POPC   C4A60114   9.609  19.773   7.385
 4749POPC   C1B60115  10.167  19.801   6.177
 4749POPC   C2B60116  10.224  19.889   6.592
 4749POPC   C3B60117  10.128  20.152   6.916
 4749POPC   C4B60118   9.967  20.117   7.326
 4750POPC   NC360119  16.350  24.888   5.300
 4750POPC   PO460120  16.941  25.154   5.378
 4750POPC   GL160121  16.774  25.158   5.779
 4750POPC   GL260122  16.749  25.491   5.796
 4750POPC   C1A60123  16.587  25.271   6.217
 4750POPC   D2A60124  16.551  25.462   6.665
 4750POPC   C3A60125  16.709  25.284   7.051
 4750POPC   C4A60126  16.772  25.231   7.502
 4750POPC   C1B60127  17.017  25.598   6.133
 4750POPC   C2B60128  16.999  25.852   6.502
 4750POPC   C3B60129  16.907  25.770   6.917
 4750POPC   C4B60130  17.095  25.553   7.258
 4751POPC   NC360131  35.911  25.348   5.180
 4751POPC   PO460132  36.602  25.351   5.163
 4751POPC   GL160133  36.245  25.443   5.558
 4751POPC   GL260134  36.334  25.631   5.884
 4751POPC   C1A60135  36.009  25.271   5.986
 4751POPC   D2A60136  36.015  25.389   6.457
 4751POPC   C3A60137  35.976  25.392   6.913
 4751POPC   C4A60138  35.875  25.161   7.272
 4751POPC   C1B60139  36.505  25.370   6.272
 4751POPC   C2B60140  36.446  25.230   6.718
 4751POPC   C3B60141  36.430  25.194   7.161
 4751POPC   C4B60142  36.637  25.367   7.536
 4752POPC   NC360143  33.394  29.671   5.649
 4752POPC   PO460144  34.035  29.881   5.389
 4752POPC   GL160145  33.798  29.988   5.770
 4752POPC   GL260146  33.854  29.650   5.881
 4752POPC   C1A60147  33.620  29.955   6.201
 4752POPC   D2A60148  33.467  30.094   6.565
 4752POPC   C3A60149  33.695  30.028   6.914
 4752POPC   C4A60150  33.774  29.985   7.310
 4752POPC   C1B60151  33.576  29.440   6.233
 4752POPC   C2B60152  33.608  29.594   6.645
 4752POPC   C3B60153  33.564  29.553   7.079
 4752POPC   C4B60154  33.892  29.505   7.346
 4753POPC   NC360155  31.051  14.699   5.137
 4753POPC   PO460156  30.478  14.345   5.489
 4753POPC   GL160157  30.618  14.345   5.894
 4753POPC   GL260158  30.438  14.676   5.920
 4753POPC   C1A60159  30.861  14.201   6.247
 4753POPC   D2A60160  30.910  14.124   6.688
 4753POPC   C3A60161  30.960  14.413   7.007
 4753POPC   C4A60162  30.746  14.231   7.321
 4753POPC   C1B60163  30.657  14.677   6.299
 4753POPC   C2B60164  30.569  14.545   6.695
 4753POPC   C3B60165  30.380  14.520   7.084
 4753POPC   C4B60166  30.302  14.418   7.494
 4754POPC   NC360167  34.596  34.993   5.409
 4754POPC   PO460168  34.753  35.609   5.199
 4754POPC   GL160169  34.696  35.444   5.680
 4754POPC   GL260170  34.819  35.173   5.927
 4754POPC   C1A60171  34.501  35.489   6.135
 4754POPC   D2A60172  34.670  35.330   6.538
 4754POPC   C3A60173  34.577  35.574   6.889
 4754POPC   C4A60174  34.435  35.434   7.234
 4754POPC   C1B60175  34.470  34.971   6.215
 4754POPC   C2B60176  34.252  34.931   6.648
 4754POPC   C3B60177  34.322  34.942   7.108
 4754POPC   C4B60178  34.323  35.089   7.582
 4755POPC   NC360179  17.190  38.098   5.684
 4755POPC   PO460180  17.211  38.730   5.454
 4755POPC   GL160181  17.317  38.561   5.873
 4755POPC   GL260182  17.395  38.260   6.094
 4755POPC   C1A60183  17.356  38.704   6.306
 4755POPC   D2A60184  17.696  38.635   6.584
 4755POPC   C3A60185  17.703  38.324   6.876
 4755POPC   C4A60186  17.491  38.407   7.268
 4755POPC   C1B60187  17.658  38.082   6.370
 4755POPC   C2B60188  17.368  38.009   6.652
 4755POPC   C3B60189  17.149  38.143   6.987
 4755POPC   C4B60190  17.033  38.192   7.403
 4756POPC   NC360191  35.729  42.448   5.595
 4756POPC   PO460192  36.263  42.085   5.350
 4756POPC   GL160193  36.141  42.183   5.762
 4756POPC   GL260194  36.177  42.556   5.816
 4756POPC   C1A60195  35.900  42.187   6.210
 4756POPC   D2A60196  35.812  42.406   6.616
 4756POPC   C3A60197  35.926  42.291   7.038
 4756POPC   C4A60198  35.896  42.469   7.465
 4756POPC   C1B60199  36.379  42.334   6.167
 4756POPC   C2B60200  36.328  42.089   6.522
 4756POPC   C3B60201  36.433  42.176   6.934
 4756POPC   C4B60202  36.373  42.393   7.282
 4757POPC   NC360203  31.185  42.987   5.045
 4757POPC   PO460204  31.622  43.244   5.489
 4757POPC   GL160205  31.597  43.013   5.865
 4757POPC   GL260206  31.283  42.792   6.000
 4757POPC   C1A60207  31.547  43.170   6.274
 4757POPC   D2A60208  31.467  43.017   6.665
 4757POPC   C3A60209  31.560  43.277   6.978
 4757POPC   C4A60210  31.949  43.311   7.118
 4757POPC   C1B60211  30.982  42.671   6.286
 4757POPC   C2B60212  30.971  42.901   6.671
 4757POPC   C3B60213  31.165  42.961   7.086
 4757POPC   C4B60214  31.492  42.929   7.397
 4758POPC   NC360215  38.009  10.714   5.142
 4758POPC   PO460216  37.445  10.856   5.510
 4758POPC   GL160217  37.516  10.571   5.869
 4758POPC   GL260218  37.796  10.327   5.829
 4758POPC   C1A60219  37.738  10.556   6.289
 4758POPC   D2A60220  37.651  10.358   6.682
 4758POPC   C3A60221  37.569  10.670   7.034
 4758POPC   C4A60222  37.705  10.946   7.467
 4758POPC   C1B60223  38.025  10.142   6.179
 4758POPC   C2B60224  38.012   9.961   6.606
 4758POPC   C3B60225  37.923  10.119   7.044
 4758POPC   C4B60226  38.129  10.195   7.449
 4759POPC   NC360227  22.684  28.741   5.464
 4759POPC   PO460228  23.139  28.245   5.608
 4759POPC   GL160229  22.943  28.491   5.846
 4759POPC   GL260230  22.675  28.261   5.921
 4759POPC   C1A60231  23.003  28.533   6.254
 4759POPC   D2A60232  22.758  28.349   6.543
 4759POPC   C3A60233  22.960  28.542   6.894
 4759POPC   C4A60234  23.072  28.398   7.285
 4759POPC   C1B60235  22.505  28.628   6.133
 4759POPC   C2B60236  22.640  28.831   6.515
 4759POPC   C3B60237  22.660  28.942   6.952
 4759POPC   C4B60238  22.632  28.639   7.290
 4760POPC   NC360239  26.155  24.695   4.929
 4760POPC   PO460240  25.978  24.271   5.420
 4760POPC   GL160241  25.998  24.323   5.825
 4760POPC   GL260242  26.264  24.166   5.883
 4760POPC   C1A60243  26.114  24.546   6.197
 4760POPC   D2A60244  26.328  24.464   6.586
 4760POPC   C3A60245  26.335  24.710   6.976
 4760POPC   C4A60246  26.102  24.623   7.362
 4760POPC   C1B60247  26.422  24.082   6.239
 4760POPC   C2B60248  26.183  23.964   6.595
 4760POPC   C3B60249  26.191  24.179   6.988
 4760POPC   C4B60250  26.290  24.062   7.381
 4761POPC   NC360251  12.661  18.189   5.600
 4761POPC   PO460252  12.178  18.554   5.367
 4761POPC   GL160253  12.203  18.395   5.804
 4761POPC   GL260254  12.174  18.031   5.833
 4761POPC   C1A60255  12.088  18.338   6.256
 4761POPC   D2A60256  12.227  18.538   6.661
 4761POPC   C3A60257  11.961  18.426   6.966
 4761POPC   C4A60258  11.997  18.310   7.364
 4761POPC   C1B60259  12.332  17.869   6.234
 4761POPC   C2B60260  12.271  18.021   6.650
 4761POPC   C3B60261  12.035  17.913   7.013
 4761POPC   C4B60262  11.846  17.830   7.436
 4762POPC   NC360263  29.669   1.917   5.546
 4762POPC   PO460264  30.119   2.280   5.286
 4762POPC   GL160265  30.057   2.209   5.745
 4762POPC   GL260266  30.131   1.851   5.835
 4762POPC   C1A60267  29.833   2.110   6.169
 4762POPC   D2A60268  29.649   2.134   6.602
 4762POPC   C3A60269  29.921   2.034   6.967
 4762POPC   C4A60270  29.758   2.236   7.382
 4762POPC   C1B60271  30.201   1.766   6.297
 4762POPC   C2B60272  30.348   1.808   6.746
 4762POPC   C3B60273  30.279   1.711   7.206
 4762POPC   C4B60274  30.182   1.512   7.631
 4763POPC   NC360275  37.065  24.118   5.639
 4763POPC   PO460276  36.572  24.536   5.472
 4763POPC   GL160277  36.788  24.669   5.830
 4763POPC   GL260278  37.135  24.606   5.869
 4763POPC   C1A60279  36.645  24.512   6.215
 4763POPC   D2A60280  36.785  24.304   6.584
 4763POPC   C3A60281  36.750  24.469   6.952
 4763POPC   C4A60282  36.439  24.680   7.187
 4763POPC   C1B60283  37.147  24.525   6.310
 4763POPC   C2B60284  37.240  24.103   6.439
 4763POPC   C3B60285  37.117  23.904   6.798
 4763POPC   C4B60286  37.166  24.129   7.173
 4764POPC   NC360287  23.028  16.586   5.476
 4764POPC   PO460288  22.305  16.729   5.645
 4764POPC   GL160289  22.705  16.567   5.878
 4764POPC   GL260290  22.944  16.840   5.889
 4764POPC   C1A60291  22.911  16.571   6.304
 4764POPC   D2A60292  23.039  16.369   6.663
 4764POPC   C3A60293  22.963  16.564   7.051
 4764POPC   C4A60294  23.218  16.671   7.379
 4764POPC   C1B60295  22.611  16.962   6.183
 4764POPC   C2B60296  22.493  16.810   6.578
 4764POPC   C3B60297  22.593  17.060   6.902
 4764POPC   C4B60298  22.837  17.033   7.251
 4765POPC   NC360299   6.852  22.531   5.432
 4765POPC   PO460300   6.762  23.283   5.479
 4765POPC   GL160301   6.619  23.091   5.891
 4765POPC   GL260302   6.769  22.753   5.931
 4765POPC   C1A60303   6.536  23.052   6.307
 4765POPC   D2A60304   6.720  22.922   6.666
 4765POPC   C3A60305   6.473  22.942   7.032
 4765POPC   C4A60306   6.540  23.143   7.409
 4765POPC   C1B60307   6.598  22.520   6.307
 4765POPC   C2B60308   6.348  22.566   6.690
 4765POPC   C3B60309   6.414  22.420   7.106
 4765POPC   C4B60310   6.534  22.647   7.463
 4766POPC   NC360311  23.343  43.968   5.559
 4766POPC   PO460312  23.952  44.149   5.412
 4766POPC   GL160313  23.826  43.827   5.733
 4766POPC   GL260314  24.105  43.583   5.783
 4766POPC   C1A60315  23.629  43.764   6.141
 4766POPC   D2A60316  23.663  43.911   6.519
 4766POPC   C3A60317  23.568  43.735   6.873
 4766POPC   C4A60318  23.663  44.131   7.047
 4766POPC   C1B60319  24.140  43.676   6.233
 4766POPC   C2B60320  24.038  43.575   6.665
 4766POPC   C3B60321  24.083  43.480   7.094
 4766POPC   C4B60322  23.733  43.633   7.339
 4767POPC   NC360323   6.064   7.731   5.581
 4767POPC   PO460324   5.655   7.372   5.267
 4767POPC   GL160325   5.785   7.309   5.712
 4767POPC   GL260326   6.104   7.297   5.918
 4767POPC   C1A60327   5.684   7.158   6.153
 4767POPC   D2A60328   5.863   7.241   6.545
 4767POPC   C3A60329   5.604   7.258   6.934
 4767POPC   C4A60330   5.744   7.518   7.301
 4767POPC   C1B60331   6.157   7.601   6.225
 4767POPC   C2B60332   5.901   7.758   6.514
 4767POPC   C3B60333   6.012   7.610   6.881
 4767POPC   C4B60334   6.163   7.811   7.196
 4768POPC   NC360335  27.271  41.433   5.509
 4768POPC   PO460336  27.856  41.692   5.594
 4768POPC   GL160337  27.630  41.471   5.876
 4768POPC   GL260338  27.744  41.157   5.782
 4768POPC   C1A60339  27.579  41.594   6.277
 4768POPC   D2A60340  27.763  41.872   6.590
 4768POPC   C3A60341  27.816  41.767   7.012
 4768POPC   C4A60342  27.490  41.529   7.162
 4768POPC   C1B60343  27.912  41.182   6.223
 4768POPC   C2B60344  27.862  41.366   6.656
 4768POPC   C3B60345  27.899  41.245   7.080
 4768POPC   C4B60346  28.035  41.015   7.429
 4769POPC   NC360347  40.417  15.075   5.413
 4769POPC   PO460348  39.881  14.832   5.378
 4769POPC   GL160349  40.022  15.173   5.696
 4769POPC   GL260350  39.789  15.372   5.817
 4769POPC   C1A60351  40.122  15.209   6.156
 4769POPC   D2A60352  39.958  15.318   6.569
 4769POPC   C3A60353  39.974  15.075   6.961
 4769POPC   C4A60354  40.260  15.084   7.305
 4769POPC   C1B60355  39.592  15.404   6.221
 4769POPC   C2B60356  39.496  15.581   6.645
 4769POPC   C3B60357  39.579  15.402   7.057
 4769POPC   C4B60358  39.896  15.444   7.355
 4770POPC   NC360359   6.501  33.476   5.206
 4770POPC   PO460360   6.942  33.031   5.537
 4770POPC   GL160361   6.753  32.913   5.909
 4770POPC   GL260362   6.497  32.615   5.824
 4770POPC   C1A60363   6.795  33.136   6.328
 4770POPC   D2A60364   7.042  33.196   6.731
 4770POPC   C3A60365   6.844  33.338   7.128
 4770POPC   C4A60366   6.557  33.311   7.472
 4770POPC   C1B60367   6.644  32.552   6.245
 4770POPC   C2B60368   6.823  32.706   6.623
 4770POPC   C3B60369   6.730  32.851   7.025
 4770POPC   C4B60370   6.702  32.612   7.379
 4771POPC   NC360371  11.786  44.225   5.571
 4771POPC   PO460372  12.191  43.804   5.255
 4771POPC   GL160373  12.133  43.798   5.748
 4771POPC   GL260374  12.166  44.122   5.894
 4771POPC   C1A60375  12.194  43.745   6.251
 4771POPC   D2A60376  12.350  43.841   6.691
 4771POPC   C3A60377  12.076  43.788   7.089
 4771POPC   C4A60378  12.192  43.791   7.530
 4771POPC   C1B60379  11.999  44.210   6.290
 4771POPC   C2B60380  11.875  44.016   6.664
 4771POPC   C3B60381  11.911  44.264   7.033
 4771POPC   C4B60382  11.760  44.172   7.425
 4772POPC   NC360383  36.200   4.665   5.573
 4772POPC   PO460384  35.908   4.141   5.494
 4772POPC   GL160385  36.022   4.272   5.878
 4772POPC   GL260386  36.331   4.174   5.837
 4772POPC   C1A60387  36.072   4.324   6.307
 4772POPC   D2A60388  35.773   4.351   6.603
 4772POPC   C3A60389  35.889   4.426   6.969
 4772POPC   C4A60390  35.934   4.102   7.224
 4772POPC   C1B60391  36.541   4.026   6.173
 4772POPC   C2B60392  36.645   4.019   6.605
 4772POPC   C3B60393  36.338   4.158   6.894
 4772POPC   C4B60394  36.330   4.464   7.219
 4773POPC   NC360395  37.758  44.425   5.464
 4773POPC   PO460396  37.264  44.875   5.334
 4773POPC   GL160397  37.392  44.677   5.737
 4773POPC   GL260398  37.708  44.819   5.852
 4773POPC   C1A60399  37.437  44.554   6.198
 4773POPC   D2A60400  37.497  44.864   6.571
 4773POPC   C3A60401  37.571  44.722   6.999
 4773POPC   C4A60402  37.658  44.738   7.486
 4773POPC   C1B60403  37.909  44.774   6.276
 4773POPC   C2B60404  38.072  44.759   6.747
 4773POPC   C3B60405  37.994  44.501   7.146
 4773POPC   C4B60406  38.025  44.441   7.635
 4774POPC   NC360407   4.074  10.809   5.494
 4774POPC   PO460408   4.660  10.410   5.339
 4774POPC   GL160409   4.479  10.426   5.756
 4774POPC   GL260410   4.126  10.457   5.863
 4774POPC   C1A60411   4.570  10.586   6.169
 4774POPC   D2A60412   4.412  10.520   6.569
 4774POPC   C3A60413   4.606  10.611   6.967
 4774POPC   C4A60414   4.597  10.324   7.333
 4774POPC   C1B60415   4.055  10.729   6.246
 4774POPC   C2B60416   3.945  10.649   6.705
 4774POPC   C3B60417   4.079  10.619   7.159
 4774POPC   C4B60418   3.989  10.859   7.546
 4775POPC   NC360419  34.942  13.356   5.066
 4775POPC   PO460420  35.474  13.743   5.235
 4775POPC   GL160421  35.268  13.603   5.628
 4775POPC   GL260422  35.591  13.649   5.745
 4775POPC   C1A60423  35.202  13.501   6.098
 4775POPC   D2A60424  35.020  13.504   6.541
 4775POPC   C3A60425  35.176  13.744   6.885
 4775POPC   C4A60426  35.414  13.710   7.246
 4775POPC   C1B60427  35.713  13.619   6.130
 4775POPC   C2B60428  35.522  13.619   6.501
 4775POPC   C3B60429  35.693  13.566   6.865
 4775POPC   C4B60430  35.886  13.850   7.169
 4776POPC   NC360431  19.581  36.816   5.467
 4776POPC   PO460432  20.176  37.084   5.272
 4776POPC   GL160433  19.965  37.106   5.685
 4776POPC   GL260434  19.922  36.793   5.849
 4776POPC   C1A60435  19.936  37.212   6.128
 4776POPC   D2A60436  20.184  37.187   6.513
 4776POPC   C3A60437  19.946  37.066   6.881
 4776POPC   C4A60438  19.942  36.681   7.113
 4776POPC   C1B60439  19.642  36.713   6.181
 4776POPC   C2B60440  19.656  36.594   6.622
 4776POPC   C3B60441  19.444  36.641   7.028
 4776POPC   C4B60442  19.553  36.614   7.479
 4777POPC   NC360443  19.920   0.843   5.476
 4777POPC   PO460444  19.652   0.264   5.521
 4777POPC   GL160445  19.942   0.458   5.866
 4777POPC   GL260446  20.097   0.810   5.942
 4777POPC   C1A60447  19.849   0.520   6.326
 4777POPC   D2A60448  19.979   0.263   6.671
 4777POPC   C3A60449  19.792   0.359   7.049
 4777POPC   C4A60450  19.476   0.629   7.212
 4777POPC   C1B60451  20.075   0.982   6.375
 4777POPC   C2B60452  19.962   0.900   6.854
 4777POPC   C3B60453  20.053   0.737   7.287
 4777POPC   C4B60454  20.194   0.755   7.733
 4778POPC   NC360455  42.727  30.341   5.316
 4778POPC   PO460456  42.223  30.892   5.426
 4778POPC   GL160457  42.456  30.745   5.753
 4778POPC   GL260458  42.666  31.066   5.808
 4778POPC   C1A60459  42.293  30.513   6.144
 4778POPC   D2A60460  42.107  30.379   6.593
 4778POPC   C3A60461  42.341  30.566   6.921
 4778POPC   C4A60462  42.570  30.497   7.294
 4778POPC   C1B60463  42.351  31.070   6.144
 4778POPC   C2B60464  42.191  30.864   6.497
 4778POPC   C3B60465  42.096  31.002   6.885
 4778POPC   C4B60466  42.371  31.237   7.114
 4779POPC   NC360467  17.216  16.583   5.248
 4779POPC   PO460468  17.671  17.029   5.281
 4779POPC   GL160469  17.826  17.058   5.697
 4779POPC   GL260470  17.664  17.349   5.884
 4779POPC   C1A60471  17.800  16.710   6.033
 4779POPC   D2A60472  17.513  16.497   6.367
 4779POPC   C3A60473  17.646  16.413   6.801
 4779POPC   C4A60474  17.515  16.488   7.225
 4779POPC   C1B60475  17.581  17.123   6.228
 4779POPC   C2B60476  17.530  16.975   6.609
 4779POPC   C3B60477  17.426  16.938   7.009
 4779POPC   C4B60478  17.649  16.964   7.376
 4780POPC   NC360479  21.855   5.553   5.008
 4780POPC   PO460480  22.131   6.086   5.390
 4780POPC   GL160481  22.284   6.136   5.802
 4780POPC   GL260482  22.236   5.792   5.919
 4780POPC   C1A60483  22.505   6.122   6.194
 4780POPC   D2A60484  22.599   5.794   6.492
 4780POPC   C3A60485  22.380   5.826   6.898
 4780POPC   C4A60486  22.546   5.582   7.250
 4780POPC   C1B60487  22.108   5.627   6.327
 4780POPC   C2B60488  21.895   5.314   6.605
 4780POPC   C3B60489  21.982   5.458   7.040
 4780POPC   C4B60490  22.045   5.578   7.470
 4781POPC   NC360491  32.691  12.115   5.470
 4781POPC   PO460492  31.941  11.940   5.454
 4781POPC   GL160493  32.148  12.067   5.860
 4781POPC   GL260494  31.948  12.331   6.042
 4781POPC   C1A60495  32.334  12.109   6.279
 4781POPC   D2A60496  32.219  11.854   6.644
 4781POPC   C3A60497  32.296  11.996   7.088
 4781POPC   C4A60498  32.118  11.906   7.526
 4781POPC   C1B60499  31.848  12.161   6.417
 4781POPC   C2B60500  31.935  12.252   6.821
 4781POPC   C3B60501  31.965  12.349   7.260
 4781POPC   C4B60502  31.919  12.378   7.699
 4782POPC   NC360503  36.293   3.815   5.421
 4782POPC   PO460504  36.127   3.155   5.188
 4782POPC   GL160505  36.076   3.375   5.654
 4782POPC   GL260506  35.959   3.729   5.796
 4782POPC   C1A60507  35.937   3.319   6.099
 4782POPC   D2A60508  36.136   3.387   6.512
 4782POPC   C3A60509  36.013   3.240   6.914
 4782POPC   C4A60510  36.423   3.254   7.141
 4782POPC   C1B60511  36.060   3.822   6.207
 4782POPC   C2B60512  35.954   3.871   6.639
 4782POPC   C3B60513  36.163   3.699   6.984
 4782POPC   C4B60514  36.306   3.763   7.359
 4783POPC   NC360515  25.869  38.164   5.352
 4783POPC   PO460516  26.125  38.667   5.201
 4783POPC   GL160517  26.233  38.627   5.665
 4783POPC   GL260518  26.187  38.272   5.726
 4783POPC   C1A60519  26.005  38.557   6.102
 4783POPC   D2A60520  25.790  38.484   6.505
 4783POPC   C3A60521  26.016  38.542   6.898
 4783POPC   C4A60522  25.962  38.734   7.281
 4783POPC   C1B60523  26.330  38.129   6.115
 4783POPC   C2B60524  26.271  38.286   6.504
 4783POPC   C3B60525  26.441  38.235   6.890
 4783POPC   C4B60526  26.285  38.260   7.260
 4784POPC   NC360527  10.760  11.944   5.464
 4784POPC   PO460528  10.177  12.132   5.358
 4784POPC   GL160529  10.353  12.111   5.768
 4784POPC   GL260530  10.645  12.323   5.825
 4784POPC   C1A60531  10.356  11.816   6.127
 4784POPC   D2A60532  10.556  11.752   6.541
 4784POPC   C3A60533  10.341  11.903   6.917
 4784POPC   C4A60534  10.169  12.010   7.322
 4784POPC   C1B60535  10.663  12.201   6.268
 4784POPC   C2B60536  10.755  12.213   6.734
 4784POPC   C3B60537  10.609  12.266   7.181
 4784POPC   C4B60538  10.828  12.387   7.599
 4785POPC   NC360539  32.464  29.658   5.615
 4785POPC   PO460540  32.308  30.252   5.408
 4785POPC   GL160541  32.231  30.075   5.834
 4785POPC   GL260542  32.004  29.765   5.800
 4785POPC   C1A60543  32.157  29.946   6.269
 4785POPC   D2A60544  32.287  29.744   6.654
 4785POPC   C3A60545  32.155  29.991   7.003
 4785POPC   C4A60546  32.436  30.081   7.343
 4785POPC   C1B60547  32.070  29.458   6.131
 4785POPC   C2B60548  31.931  29.356   6.524
 4785POPC   C3B60549  31.951  29.483   6.944
 4785POPC   C4B60550  32.200  29.592   7.298
 4786POPC   NC360551   9.138   9.981   5.017
 4786POPC   PO460552   9.100   9.455   5.461
 4786POPC   GL160553   9.025   9.624   5.882
 4786POPC   GL260554   8.866   9.900   5.853
 4786POPC   C1A60555   9.101   9.872   6.290
 4786POPC   D2A60556   8.940   9.605   6.587
 4786POPC   C3A60557   9.018   9.539   7.039
 4786POPC   C4A60558   9.109   9.623   7.491
 4786POPC   C1B60559   8.640  10.151   6.140
 4786POPC   C2B60560   8.716  10.143   6.561
 4786POPC   C3B60561   9.026  10.025   6.885
 4786POPC   C4B60562   8.892  10.047   7.315
 4787POPC   NC360563  35.091  23.553   5.175
 4787POPC   PO460564  35.321  24.108   5.322
 4787POPC   GL160565  35.299  24.070   5.861
 4787POPC   GL260566  35.292  23.676   5.881
 4787POPC   C1A60567  35.214  23.931   6.312
 4787POPC   D2A60568  35.392  23.915   6.730
 4787POPC   C3A60569  35.112  24.022   7.061
 4787POPC   C4A60570  35.179  24.016   7.480
 4787POPC   C1B60571  35.201  23.413   6.202
 4787POPC   C2B60572  35.125  23.375   6.618
 4787POPC   C3B60573  35.115  23.517   7.005
 4787POPC   C4B60574  35.512  23.598   7.159
 4788POPC   NC360575  30.142  29.703   5.238
 4788POPC   PO460576  29.812  30.241   5.445
 4788POPC   GL160577  29.934  29.890   5.760
 4788POPC   GL260578  30.262  29.694   5.737
 4788POPC   C1A60579  29.794  29.771   6.197
 4788POPC   D2A60580  29.743  30.013   6.601
 4788POPC   C3A60581  29.674  29.793   6.989
 4788POPC   C4A60582  29.854  29.824   7.421
 4788POPC   C1B60583  30.301  29.872   6.148
 4788POPC   C2B60584  30.171  29.750   6.572
 4788POPC   C3B60585  30.168  29.664   7.015
 4788POPC   C4B60586  30.294  29.526   7.429
 4789POPC   NC360587   4.215   5.563   5.457
 4789POPC   PO460588   4.609   5.071   5.340
 4789POPC   GL160589   4.430   5.009   5.810
 4789POPC   GL260590   4.137   4.728   5.843
 4789POPC   C1A60591   4.631   5.085   6.267
 4789POPC   D2A60592   4.790   5.009   6.720
 4789POPC   C3A60593   4.587   5.235   7.065
 4789POPC   C4A60594   4.360   5.227   7.475
 4789POPC   C1B60595   4.131   4.941   6.250
 4789POPC   C2B60596   4.341   4.778   6.597
 4789POPC   C3B60597   4.292   4.829   7.029
 4789POPC   C4B60598   4.257   4.750   7.460
 4790POPC   NC360599  16.305  42.886   5.428
 4790POPC   PO460600  16.936  43.037   5.219
 4790POPC   GL160601  16.804  43.079   5.657
 4790POPC   GL260602  17.084  43.209   5.908
 4790POPC   C1A60603  16.633  43.062   6.055
 4790POPC   D2A60604  16.655  43.156   6.479
 4790POPC   C3A60605  16.385  43.002   6.813
 4790POPC   C4A60606  16.614  43.168   7.188
 4790POPC   C1B60607  17.013  43.512   6.243
 4790POPC   C2B60608  16.962  43.516   6.691
 4790POPC   C3B60609  16.902  43.600   7.074
 4790POPC   C4B60610  17.106  43.348   7.318
 4791POPC   NC360611   2.884  38.665   5.346
 4791POPC   PO460612   2.384  38.195   5.575
 4791POPC   GL160613   2.437  38.585   5.790
 4791POPC   GL260614   2.807  38.675   5.848
 4791POPC   C1A60615   2.471  38.546   6.216
 4791POPC   D2A60616   2.781  38.301   6.438
 4791POPC   C3A60617   2.810  38.411   6.853
 4791POPC   C4A60618   2.546  38.367   7.169
 4791POPC   C1B60619   3.054  38.837   6.200
 4791POPC   C2B60620   3.166  39.017   6.611
 4791POPC   C3B60621   3.079  38.819   6.998
 4791POPC   C4B60622   3.044  38.507   7.318
 4792POPC   NC360623   6.002  42.897   5.252
 4792POPC   PO460624   5.769  43.507   5.537
 4792POPC   GL160625   5.953  43.131   5.772
 4792POPC   GL260626   5.708  42.860   5.691
 4792POPC   C1A60627   5.985  43.013   6.247
 4792POPC   D2A60628   6.219  42.972   6.641
 4792POPC   C3A60629   5.993  43.160   6.986
 4792POPC   C4A60630   6.176  43.419   7.314
 4792POPC   C1B60631   5.944  42.601   5.969
 4792POPC   C2B60632   5.924  42.541   6.440
 4792POPC   C3B60633   5.916  42.626   6.881
 4792POPC   C4B60634   6.012  42.711   7.291
 4793POPC   NC360635   8.442   7.619   5.382
 4793POPC   PO460636   8.280   6.991   5.509
 4793POPC   GL160637   8.268   7.337   5.803
 4793POPC   GL260638   7.986   7.546   5.689
 4793POPC   C1A60639   8.485   7.534   6.167
 4793POPC   D2A60640   8.664   7.634   6.594
 4793POPC   C3A60641   8.427   7.417   6.900
 4793POPC   C4A60642   8.438   7.248   7.285
 4793POPC   C1B60643   7.921   7.621   6.123
 4793POPC   C2B60644   7.957   7.405   6.526
 4793POPC   C3B60645   7.925   7.526   6.945
 4793POPC   C4B60646   7.903   7.298   7.304
 4794POPC   NC360647  23.439   6.309   5.449
 4794POPC   PO460648  23.617   6.988   5.357
 4794POPC   GL160649  23.733   6.809   5.780
 4794POPC   GL260650  23.637   6.473   5.902
 4794POPC   C1A60651  23.584   6.862   6.234
 4794POPC   D2A60652  23.634   6.631   6.626
 4794POPC   C3A60653  23.997   6.706   6.899
 4794POPC   C4A60654  23.928   6.782   7.337
 4794POPC   C1B60655  23.840   6.222   6.233
 4794POPC   C2B60656  23.923   6.204   6.665
 4794POPC   C3B60657  23.755   6.281   7.071
 4794POPC   C4B60658  23.970   6.112   7.399
 4795POPC   NC360659   5.472  19.823   5.293
 4795POPC   PO460660   4.816  19.693   5.437
 4795POPC   GL160661   4.979  19.761   5.844
 4795POPC   GL260662   4.900  20.082   5.934
 4795POPC   C1A60663   5.034  19.478   6.221
 4795POPC   D2A60664   5.129  19.466   6.680
 4795POPC   C3A60665   5.107  19.862   6.886
 4795POPC   C4A60666   5.288  20.154   7.201
 4795POPC   C1B60667   4.934  19.951   6.374
 4795POPC   C2B60668   4.657  19.663   6.584
 4795POPC   C3B60669   4.663  19.618   6.999
 4795POPC   C4B60670   4.752  19.991   7.235
 4796POPC   NC360671  17.699  35.480   5.440
 4796POPC   PO460672  17.218  35.135   5.511
 4796POPC   GL160673  17.507  35.302   5.859
 4796POPC   GL260674  17.772  35.050   5.946
 4796POPC   C1A60675  17.654  35.438   6.257
 4796POPC   D2A60676  17.489  35.238   6.609
 4796POPC   C3A60677  17.422  35.419   7.011
 4796POPC   C4A60678  17.697  35.177   7.234
 4796POPC   C1B60679  17.368  34.902   6.159
 4796POPC   C2B60680  17.183  34.842   6.566
 4796POPC   C3B60681  17.335  34.899   6.998
 4796POPC   C4B60682  17.213  35.093   7.425
 4797POPC   NC360683   2.145   8.933   5.447
 4797POPC   PO460684   2.425   8.359   5.632
 4797POPC   GL160685   2.215   8.701   5.914
 4797POPC   GL260686   2.122   9.093   5.918
 4797POPC   C1A60687   2.021   8.792   6.329
 4797POPC   D2A60688   2.185   8.820   6.726
 4797POPC   C3A60689   2.077   8.556   7.085
 4797POPC   C4A60690   2.064   8.798   7.474
 4797POPC   C1B60691   2.057   9.352   6.282
 4797POPC   C2B60692   1.861   9.228   6.653
 4797POPC   C3B60693   1.829   9.030   7.064
 4797POPC   C4B60694   1.756   9.304   7.450
 4798POPC   NC360695   7.904  16.311   5.269
 4798POPC   PO460696   7.805  15.663   5.383
 4798POPC   GL160697   7.978  15.918   5.698
 4798POPC   GL260698   7.837  16.246   5.760
 4798POPC   C1A60699   8.197  15.936   6.095
 4798POPC   D2A60700   7.983  15.930   6.487
 4798POPC   C3A60701   8.163  15.977   6.893
 4798POPC   C4A60702   8.142  15.982   7.310
 4798POPC   C1B60703   7.937  16.366   6.197
 4798POPC   C2B60704   8.131  16.415   6.628
 4798POPC   C3B60705   7.983  16.424   7.105
 4798POPC   C4B60706   7.807  16.257   7.556
 4799POPC   NC360707  17.225   8.521   5.185
 4799POPC   PO460708  17.699   8.207   5.564
 4799POPC   GL160709  17.487   8.225   5.944
 4799POPC   GL260710  17.152   8.390   5.887
 4799POPC   C1A60711  17.648   8.234   6.350
 4799POPC   D2A60712  17.498   8.026   6.713
 4799POPC   C3A60713  17.709   8.230   7.046
 4799POPC   C4A60714  17.721   8.159   7.512
 4799POPC   C1B60715  17.132   8.236   6.319
 4799POPC   C2B60716  17.060   8.304   6.755
 4799POPC   C3B60717  17.202   8.197   7.136
 4799POPC   C4B60718  17.265   8.468   7.484
 4800POPC   NC360719  31.810  20.213   5.498
 4800POPC   PO460720  31.146  20.386   5.408
 4800POPC   GL160721  31.454  20.474   5.777
 4800POPC   GL260722  31.642  20.782   5.715
 4800POPC   C1A60723  31.625  20.503   6.225
 4800POPC   D2A60724  31.705  20.292   6.638
 4800POPC   C3A60725  31.547  20.403   7.060
 4800POPC   C4A60726  31.288  20.283   7.428
 4800POPC   C1B60727  31.555  21.009   6.102
 4800POPC   C2B60728  31.568  20.905   6.544
 4800POPC   C3B60729  31.669  20.915   6.979
 4800POPC   C4B60730  31.543  20.787   7.415
 4801POPC   NC360731  13.475   8.400   5.515
 4801POPC   PO460732  14.145   8.273   5.471
 4801POPC   GL160733  13.895   8.391   5.844
 4801POPC   GL260734  13.508   8.342   6.001
 4801POPC   C1A60735  13.920   8.347   6.293
 4801POPC   D2A60736  13.594   8.240   6.598
 4801POPC   C3A60737  13.749   8.077   7.004
 4801POPC   C4A60738  13.675   8.347   7.355
 4801POPC   C1B60739  13.125   8.245   6.269
 4801POPC   C2B60740  13.120   8.040   6.676
 4801POPC   C3B60741  13.271   8.208   7.066
 4801POPC   C4B60742  13.256   8.094   7.499
 4802POPC   NC360743   6.583   0.128   5.017
 4802POPC   PO460744   6.864  44.844   5.534
 4802POPC   GL160745   6.750  44.697   5.867
 4802POPC   GL260746   6.424  44.608   5.763
 4802POPC   C1A60747   6.930  44.664   6.247
 4802POPC   D2A60748   6.803  44.825   6.612
 4802POPC   C3A60749   6.929  44.667   7.006
 4802POPC   C4A60750   6.918  44.471   7.392
 4802POPC   C1B60751   6.408  44.786   6.208
 4802POPC   C2B60752   6.322  44.986   6.570
 4802POPC   C3B60753   6.419  44.715   6.936
 4802POPC   C4B60754   6.477  44.749   7.350
 4803POPC   NC360755  10.588  32.429   5.258
 4803POPC   PO460756  10.222  31.886   5.395
 4803POPC   GL160757  10.422  32.182   5.690
 4803POPC   GL260758  10.229  32.486   5.622
 4803POPC   C1A60759  10.565  32.244   6.154
 4803POPC   D2A60760  10.522  32.085   6.615
 4803POPC   C3A60761  10.717  32.293   7.010
 4803POPC   C4A60762  10.487  32.140   7.358
 4803POPC   C1B60763  10.197  32.601   6.051
 4803POPC   C2B60764  10.284  32.574   6.511
 4803POPC   C3B60765  10.243  32.432   6.952
 4803POPC   C4B60766  10.318  32.612   7.391
 4804POPC   NC360767  23.840  36.664   5.335
 4804POPC   PO460768  23.594  37.335   5.447
 4804POPC   GL160769  23.779  37.010   5.748
 4804POPC   GL260770  23.611  36.704   5.827
 4804POPC   C1A60771  23.818  36.942   6.233
 4804POPC   D2A60772  23.796  36.821   6.706
 4804POPC   C3A60773  23.648  37.165   7.010
 4804POPC   C4A60774  23.772  37.302   7.456
 4804POPC   C1B60775  23.357  36.695   6.228
 4804POPC   C2B60776  23.264  36.837   6.669
 4804POPC   C3B60777  23.274  36.820   7.132
 4804POPC   C4B60778  23.088  36.600   7.505
 4805POPC   NC360779   3.182  39.610   5.212
 4805POPC   PO460780   3.590  40.170   5.296
 4805POPC   GL160781   3.798  40.091   5.714
 4805POPC   GL260782   3.815  39.767   5.818
 4805POPC   C1A60783   3.755  40.166   6.160
 4805POPC   D2A60784   3.779  40.268   6.601
 4805POPC   C3A60785   3.583  39.971   6.886
 4805POPC   C4A60786   3.410  40.096   7.251
 4805POPC   C1B60787   3.557  39.707   6.204
 4805POPC   C2B60788   3.265  39.668   6.539
 4805POPC   C3B60789   3.319  39.479   6.936
 4805POPC   C4B60790   3.480  39.608   7.354
 4806POPC   NC360791   6.058   8.717   5.376
 4806POPC   PO460792   5.754   9.297   5.487
 4806POPC   GL160793   5.662   9.026   5.807
 4806POPC   GL260794   6.030   8.944   5.834
 4806POPC   C1A60795   5.720   8.932   6.230
 4806POPC   D2A60796   5.579   9.015   6.589
 4806POPC   C3A60797   5.865   9.149   6.857
 4806POPC   C4A60798   5.731   9.123   7.243
 4806POPC   C1B60799   6.112   8.604   6.148
 4806POPC   C2B60800   6.021   8.651   6.606
 4806POPC   C3B60801   6.181   8.764   7.010
 4806POPC   C4B60802   6.329   9.164   7.151
 4807POPC   NC360803  13.084   3.214   5.381
 4807POPC   PO460804  12.588   3.696   5.437
 4807POPC   GL160805  12.880   3.528   5.745
 4807POPC   GL260806  12.725   3.167   5.739
 4807POPC   C1A60807  13.030   3.627   6.179
 4807POPC   D2A60808  12.896   3.825   6.570
 4807POPC   C3A60809  12.824   3.663   7.026
 4807POPC   C4A60810  12.695   3.399   7.375
 4807POPC   C1B60811  13.044   3.112   6.043
 4807POPC   C2B60812  12.910   3.187   6.445
 4807POPC   C3B60813  12.881   3.186   6.865
 4807POPC   C4B60814  13.170   3.295   7.190
 4808POPC   NC360815  27.863  35.221   5.362
 4808POPC   PO460816  27.732  35.866   5.317
 4808POPC   GL160817  27.678  35.546   5.708
 4808POPC   GL260818  27.416  35.260   5.689
 4808POPC   C1A60819  27.584  35.422   6.161
 4808POPC   D2A60820  27.323  35.542   6.525
 4808POPC   C3A60821  27.522  35.517   6.932
 4808POPC   C4A60822  27.792  35.217   7.124
 4808POPC   C1B60823  27.251  35.031   6.085
 4808POPC   C2B60824  27.438  35.015   6.523
 4808POPC   C3B60825  27.302  35.055   6.944
 4808POPC   C4B60826  27.377  35.040   7.382
 4809POPC   NC360827  38.925  22.640   5.603
 4809POPC   PO460828  38.491  22.239   5.237
 4809POPC   GL160829  38.419  22.163   5.676
 4809POPC   GL260830  38.665  21.907   5.774
 4809POPC   C1A60831  38.418  22.285   6.113
 4809POPC   D2A60832  38.228  22.179   6.493
 4809POPC   C3A60833  38.390  22.379   6.850
 4809POPC   C4A60834  38.415  22.200   7.234
 4809POPC   C1B60835  38.527  21.774   6.193
 4809POPC   C2B60836  38.620  21.867   6.616
 4809POPC   C3B60837  38.758  21.860   7.005
 4809POPC   C4B60838  38.488  21.704   7.264
 4810POPC   NC360839  14.991  13.029   5.445
 4810POPC   PO460840  15.281  12.441   5.429
 4810POPC   GL160841  15.002  12.582   5.782
 4810POPC   GL260842  15.252  12.816   5.850
 4810POPC   C1A60843  14.850  12.731   6.221
 4810POPC   D2A60844  14.711  12.788   6.683
 4810POPC   C3A60845  15.025  12.822   7.036
 4810POPC   C4A60846  15.229  12.823   7.432
 4810POPC   C1B60847  15.374  12.699   6.274
 4810POPC   C2B60848  15.228  12.541   6.659
 4810POPC   C3B60849  15.426  12.490   7.067
 4810POPC   C4B60850  15.644  12.482   7.470
 4811POPC   NC360851   4.557  23.385   5.113
 4811POPC   PO460852   4.211  22.850   5.406
 4811POPC   GL160853   4.320  22.956   5.787
 4811POPC   GL260854   4.067  22.719   5.916
 4811POPC   C1A60855   4.465  22.869   6.188
 4811POPC   D2A60856   4.326  22.706   6.566
 4811POPC   C3A60857   4.522  22.815   6.945
 4811POPC   C4A60858   4.474  23.050   7.296
 4811POPC   C1B60859   3.951  23.040   6.193
 4811POPC   C2B60860   3.799  23.048   6.597
 4811POPC   C3B60861   4.053  22.996   6.967
 4811POPC   C4B60862   4.045  23.298   7.281
 4812POPC   NC360863   4.517   9.256   5.354
 4812POPC   PO460864   4.052   8.736   5.423
 4812POPC   GL160865   4.256   8.966   5.721
 4812POPC   GL260866   4.547   8.772   5.731
 4812POPC   C1A60867   4.131   9.134   6.123
 4812POPC   D2A60868   3.845   9.039   6.459
 4812POPC   C3A60869   4.062   8.967   6.842
 4812POPC   C4A60870   4.071   8.981   7.294
 4812POPC   C1B60871   4.648   8.972   6.153
 4812POPC   C2B60872   4.534   9.132   6.592
 4812POPC   C3B60873   4.435   9.252   7.052
 4812POPC   C4B60874   4.632   9.081   7.449
 4813POPC   NC360875   6.960  28.001   5.520
 4813POPC   PO460876   7.418  28.425   5.301
 4813POPC   GL160877   7.327  28.291   5.726
 4813POPC   GL260878   7.215  28.611   5.805
 4813POPC   C1A60879   7.447  28.304   6.185
 4813POPC   D2A60880   7.605  28.155   6.571
 4813POPC   C3A60881   7.646  28.330   6.947
 4813POPC   C4A60882   7.431  28.304   7.336
 4813POPC   C1B60883   7.292  28.787   6.218
 4813POPC   C2B60884   7.445  28.691   6.647
 4813POPC   C3B60885   7.354  28.812   7.099
 4813POPC   C4B60886   7.396  28.795   7.577
 4814POPC   NC360887   8.232  17.842   4.960
 4814POPC   PO460888   7.877  17.526   5.475
 4814POPC   GL160889   8.159  17.347   5.774
 4814POPC   GL260890   8.383  17.039   5.725
 4814POPC   C1A60891   8.099  17.537   6.165
 4814POPC   D2A60892   8.192  17.894   6.460
 4814POPC   C3A60893   8.001  17.773   6.849
 4814POPC   C4A60894   8.149  17.678   7.255
 4814POPC   C1B60895   8.534  17.228   6.127
 4814POPC   C2B60896   8.417  17.408   6.538
 4814POPC   C3B60897   8.430  17.204   6.941
 4814POPC   C4B60898   8.383  17.236   7.347
 4815POPC   NC360899  18.786  20.050   5.174
 4815POPC   PO460900  19.117  19.473   5.391
 4815POPC   GL160901  19.145  19.756   5.712
 4815POPC   GL260902  19.098  20.117   5.726
 4815POPC   C1A60903  19.130  19.804   6.151
 4815POPC   D2A60904  19.047  19.611   6.550
 4815POPC   C3A60905  18.856  19.856   6.881
 4815POPC   C4A60906  18.938  19.594   7.255
 4815POPC   C1B60907  18.880  20.245   6.155
 4815POPC   C2B60908  18.955  20.398   6.578
 4815POPC   C3B60909  19.138  20.300   6.967
 4815POPC   C4B60910  19.012  20.081   7.311
 4816POPC   NC360911   1.885   5.490   5.578
 4816POPC   PO460912   2.036   6.147   5.452
 4816POPC   GL160913   2.060   5.984   5.851
 4816POPC   GL260914   2.311   5.749   5.730
 4816POPC   C1A60915   2.010   5.982   6.317
 4816POPC   D2A60916   2.061   5.844   6.741
 4816POPC   C3A60917   1.985   6.113   7.048
 4816POPC   C4A60918   1.957   6.219   7.472
 4816POPC   C1B60919   2.245   5.575   6.136
 4816POPC   C2B60920   2.420   5.563   6.532
 4816POPC   C3B60921   2.535   5.697   6.940
 4816POPC   C4B60922   2.204   5.642   7.226
 4817POPC   NC360923  21.333   3.966   5.466
 4817POPC   PO460924  21.335   4.563   5.194
 4817POPC   GL160925  21.378   4.417   5.720
 4817POPC   GL260926  21.252   4.103   5.937
 4817POPC   C1A60927  21.445   4.498   6.182
 4817POPC   D2A60928  21.575   4.282   6.573
 4817POPC   C3A60929  21.434   4.364   6.990
 4817POPC   C4A60930  21.009   4.431   7.162
 4817POPC   C1B60931  20.972   4.206   6.301
 4817POPC   C2B60932  21.021   4.150   6.742
 4817POPC   C3B60933  21.159   3.959   7.136
 4817POPC   C4B60934  21.058   3.839   7.576
 4818POPC   NC360935  39.687   7.867   5.442
 4818POPC   PO460936  40.375   7.983   5.357
 4818POPC   GL160937  40.157   8.081   5.771
 4818POPC   GL260938  39.788   8.088   5.890
 4818POPC   C1A60939  40.153   8.106   6.237
 4818POPC   D2A60940  40.241   7.962   6.653
 4818POPC   C3A60941  40.024   8.173   6.986
 4818POPC   C4A60942  40.047   8.026   7.404
 4818POPC   C1B60943  39.565   7.959   6.259
 4818POPC   C2B60944  39.624   7.929   6.715
 4818POPC   C3B60945  39.598   7.934   7.165
 4818POPC   C4B60946  39.618   7.866   7.607
 4819POPC   NC360947  21.894  44.205   5.031
 4819POPC   PO460948  22.032  43.611   5.458
 4819POPC   GL160949  22.095  43.866   5.857
 4819POPC   GL260950  22.310  44.192   5.786
 4819POPC   C1A60951  21.995  43.738   6.247
 4819POPC   D2A60952  21.962  43.565   6.649
 4819POPC   C3A60953  21.950  43.844   7.004
 4819POPC   C4A60954  22.181  43.676   7.352
 4819POPC   C1B60955  22.174  44.275   6.166
 4819POPC   C2B60956  22.198  44.098   6.548
 4819POPC   C3B60957  22.206  44.298   6.891
 4819POPC   C4B60958  22.149  44.222   7.290
 4820POPC   NC360959   9.516  38.306   5.368
 4820POPC   PO460960  10.074  38.586   5.439
 4820POPC   GL160961   9.821  38.405   5.764
 4820POPC   GL260962   9.599  38.653   5.742
 4820POPC   C1A60963   9.600  38.419   6.176
 4820POPC   D2A60964   9.461  38.579   6.566
 4820POPC   C3A60965   9.559  38.423   6.972
 4820POPC   C4A60966   9.820  38.508   7.345
 4820POPC   C1B60967   9.919  38.829   6.053
 4820POPC   C2B60968  10.022  38.717   6.480
 4820POPC   C3B60969   9.836  38.835   6.857
 4820POPC   C4B60970   9.968  38.976   7.230
 4821POPC   NC360971  35.321  28.630   5.328
 4821POPC   PO460972  35.409  27.947   5.403
 4821POPC   GL160973  35.466  28.292   5.747
 4821POPC   GL260974  35.141  28.495   5.803
 4821POPC   C1A60975  35.565  28.402   6.193
 4821POPC   D2A60976  35.585  28.691   6.569
 4821POPC   C3A60977  35.442  28.583   6.990
 4821POPC   C4A60978  35.497  28.315   7.347
 4821POPC   C1B60979  35.057  28.341   6.233
 4821POPC   C2B60980  35.236  28.290   6.626
 4821POPC   C3B60981  35.097  28.167   7.036
 4821POPC   C4B60982  34.979  28.274   7.475
 4822POPC   NC360983  27.378  43.604   5.331
 4822POPC   PO460984  28.038  43.505   5.632
 4822POPC   GL160985  27.612  43.663   5.813
 4822POPC   GL260986  27.575  44.021   5.791
 4822POPC   C1A60987  27.405  43.699   6.236
 4822POPC   D2A60988  27.672  43.742   6.636
 4822POPC   C3A60989  27.645  43.798   7.105
 4822POPC   C4A60990  27.818  44.133   7.383
 4822POPC   C1B60991  27.450  44.209   6.207
 4822POPC   C2B60992  27.305  44.182   6.654
 4822POPC   C3B60993  27.375  44.235   7.125
 4822POPC   C4B60994  27.361  43.966   7.508
 4823POPC   NC360995  20.585   1.027   5.454
 4823POPC   PO460996  20.845   1.638   5.625
 4823POPC   GL160997  20.640   1.314   5.863
 4823POPC   GL260998  20.315   1.299   5.902
 4823POPC   C1A60999  20.555   0.948   6.145
 4823POPC   D2A61000  20.682   0.958   6.570
 4823POPC   C3A61001  20.840   1.293   6.829
 4823POPC   C4A61002  20.887   1.378   7.272
 4823POPC   C1B61003  20.402   1.403   6.333
 4823POPC   C2B61004  20.303   1.275   6.739
 4823POPC   C3B61005  20.465   1.000   7.060
 4823POPC   C4B61006  20.456   1.113   7.494
 4824POPC   NC361007   9.207   4.144   5.389
 4824POPC   PO461008   8.658   3.987   5.717
 4824POPC   GL161009   8.997   4.180   5.916
 4824POPC   GL261010   8.769   4.456   6.012
 4824POPC   C1A61011   9.158   4.288   6.336
 4824POPC   D2A61012   8.851   4.364   6.669
 4824POPC   C3A61013   8.941   4.106   7.037
 4824POPC   C4A61014   9.354   4.054   7.240
 4824POPC   C1B61015   8.925   4.774   6.317
 4824POPC   C2B61016   9.249   4.730   6.631
 4824POPC   C3B61017   9.195   4.555   7.030
 4824POPC   C4B61018   8.759   4.566   7.130
 4825POPC   NC361019  39.806   2.493   5.420
 4825POPC   PO461020  39.996   3.209   5.416
 4825POPC   GL161021  39.766   2.982   5.795
 4825POPC   GL261022  39.922   2.665   5.871
 4825POPC   C1A61023  39.669   2.858   6.259
 4825POPC   D2A61024  39.972   2.702   6.582
 4825POPC   C3A61025  40.036   2.953   6.928
 4825POPC   C4A61026  39.744   2.924   7.227
 4825POPC   C1B61027  40.099   2.408   6.178
 4825POPC   C2B61028  40.409   2.423   6.517
 4825POPC   C3B61029  40.382   2.561   6.923
 4825POPC   C4B61030  40.124   2.548   7.283
 4826POPC   NC361031  36.216  15.709   5.465
 4826POPC   PO461032  36.501  16.368   5.377
 4826POPC   GL161033  36.260  16.143   5.761
 4826POPC   GL261034  35.946  16.306   5.934
 4826POPC   C1A61035  36.128  15.883   6.160
 4826POPC   D2A61036  35.899  15.798   6.566
 4826POPC   C3A61037  36.065  15.806   6.973
 4826POPC   C4A61038  36.142  15.832   7.429
 4826POPC   C1B61039  35.991  16.352   6.367
 4826POPC   C2B61040  36.043  16.341   6.812
 4826POPC   C3B61041  35.840  16.198   7.206
 4826POPC   C4B61042  35.650  16.285   7.618
 4827POPC   NC361043  22.394  43.238   5.447
 4827POPC   PO461044  21.822  42.897   5.290
 4827POPC   GL161045  22.014  43.122   5.741
 4827POPC   GL261046  22.244  43.391   5.897
 4827POPC   C1A61047  22.209  42.979   6.168
 4827POPC   D2A61048  22.213  43.100   6.607
 4827POPC   C3A61049  22.276  42.815   6.948
 4827POPC   C4A61050  22.136  42.880   7.386
 4827POPC   C1B61051  22.432  43.441   6.301
 4827POPC   C2B61052  22.667  43.338   6.682
 4827POPC   C3B61053  22.440  43.276   7.084
 4827POPC   C4B61054  22.460  43.250   7.529
 4828POPC   NC361055  24.762  39.271   5.315
 4828POPC   PO461056  24.905  39.753   5.735
 4828POPC   GL161057  24.711  39.352   5.870
 4828POPC   GL261058  24.653  38.979   5.813
 4828POPC   C1A61059  24.605  39.234   6.319
 4828POPC   D2A61060  24.804  39.184   6.744
 4828POPC   C3A61061  24.545  39.292   7.123
 4828POPC   C4A61062  24.274  39.413   7.483
 4828POPC   C1B61063  24.613  38.736   6.223
 4828POPC   C2B61064  24.539  38.754   6.691
 4828POPC   C3B61065  24.694  38.797   7.121
 4828POPC   C4B61066  24.534  38.955   7.521
 4829POPC   NC361067  31.915   9.850   5.389
 4829POPC   PO461068  31.272   9.604   5.438
 4829POPC   GL161069  31.396   9.803   5.809
 4829POPC   GL261070  31.729   9.663   5.833
 4829POPC   C1A61071  31.196   9.856   6.233
 4829POPC   D2A61072  31.319  10.049   6.653
 4829POPC   C3A61073  31.285   9.740   6.956
 4829POPC   C4A61074  31.267   9.498   7.313
 4829POPC   C1B61075  31.691   9.860   6.243
 4829POPC   C2B61076  31.762   9.802   6.676
 4829POPC   C3B61077  31.775   9.602   7.067
 4829POPC   C4B61078  32.056   9.316   7.204
 4830POPC   NC361079  32.975  29.008   5.339
 4830POPC   PO461080  32.925  29.644   5.624
 4830POPC   GL161081  33.096  29.318   5.918
 4830POPC   GL261082  33.098  28.941   5.840
 4830POPC   C1A61083  32.935  29.170   6.326
 4830POPC   D2A61084  32.907  29.059   6.775
 4830POPC   C3A61085  33.080  29.328   7.089
 4830POPC   C4A61086  33.069  29.315   7.552
 4830POPC   C1B61087  33.367  28.899   6.198
 4830POPC   C2B61088  33.471  28.605   6.530
 4830POPC   C3B61089  33.321  28.715   6.931
 4830POPC   C4B61090  32.999  28.835   7.237
 4831POPC   NC361091   3.098  17.492   5.538
 4831POPC   PO461092   2.601  17.942   5.516
 4831POPC   GL161093   2.729  17.723   5.877
 4831POPC   GL261094   2.737  17.374   5.885
 4831POPC   C1A61095   2.624  17.596   6.317
 4831POPC   D2A61096   2.829  17.729   6.656
 4831POPC   C3A61097   2.711  17.480   6.997
 4831POPC   C4A61098   2.374  17.699   7.199
 4831POPC   C1B61099   2.900  17.127   6.258
 4831POPC   C2B61100   2.985  17.039   6.718
 4831POPC   C3B61101   2.934  17.024   7.181
 4831POPC   C4B61102   2.884  17.177   7.614
 4832POPC   NC361103  42.566  36.310   5.652
 4832POPC   PO461104  41.976  35.971   5.487
 4832POPC   GL161105  42.143  36.092   5.877
 4832POPC   GL261106  42.079  36.464   5.808
 4832POPC   C1A61107  42.370  35.932   6.269
 4832POPC   D2A61108  42.520  35.771   6.691
 4832POPC   C3A61109  42.278  35.723   7.098
 4832POPC   C4A61110  42.463  35.861   7.517
 4832POPC   C1B61111  42.178  36.429   6.259
 4832POPC   C2B61112  42.398  36.295   6.639
 4832POPC   C3B61113  42.487  36.194   7.064
 4832POPC   C4B61114  42.353  36.360   7.460
 4833POPC   NC361115  29.668  42.516   5.216
 4833POPC   PO461116  30.163  42.124   5.040
 4833POPC   GL161117  30.030  42.151   5.539
 4833POPC   GL261118  29.757  42.391   5.701
 4833POPC   C1A61119  30.064  42.125   6.029
 4833POPC   D2A61120  29.819  42.104   6.454
 4833POPC   C3A61121  29.961  42.252   6.904
 4833POPC   C4A61122  30.220  42.399   7.292
 4833POPC   C1B61123  29.728  42.564   6.130
 4833POPC   C2B61124  29.527  42.522   6.531
 4833POPC   C3B61125  29.475  42.433   6.942
 4833POPC   C4B61126  29.700  42.593   7.279
 4834POPC   NC361127  36.282  11.827   5.385
 4834POPC   PO461128  35.814  12.310   5.555
 4834POPC   GL161129  35.959  11.956   5.824
 4834POPC   GL261130  36.254  12.042   5.863
 4834POPC   C1A61131  36.129  11.899   6.311
 4834POPC   D2A61132  35.966  12.113   6.696
 4834POPC   C3A61133  36.198  11.972   7.062
 4834POPC   C4A61134  36.282  11.771   7.473
 4834POPC   C1B61135  36.480  12.320   6.176
 4834POPC   C2B61136  36.633  12.546   6.527
 4834POPC   C3B61137  36.658  12.397   6.952
 4834POPC   C4B61138  36.363  12.402   7.269
 4835POPC   NC361139  18.023   1.714   5.431
 4835POPC   PO461140  18.486   2.187   5.472
 4835POPC   GL161141  18.289   1.922   5.818
 4835POPC   GL261142  17.925   1.987   5.877
 4835POPC   C1A61143  18.253   2.067   6.263
 4835POPC   D2A61144  18.542   2.140   6.611
 4835POPC   C3A61145  18.328   2.146   7.012
 4835POPC   C4A61146  18.218   2.164   7.451
 4835POPC   C1B61147  17.746   1.959   6.312
 4835POPC   C2B61148  18.007   1.857   6.714
 4835POPC   C3B61149  18.023   1.753   7.186
 4835POPC   C4B61150  17.862   1.552   7.585
 4836POPC   NC361151   2.700  15.960   5.390
 4836POPC   PO461152   2.982  15.438   5.368
 4836POPC   GL161153   2.823  15.613   5.749
 4836POPC   GL261154   2.493  15.666   5.766
 4836POPC   C1A61155   2.872  15.881   6.143
 4836POPC   D2A61156   2.731  15.929   6.601
 4836POPC   C3A61157   2.877  16.033   7.021
 4836POPC   C4A61158   2.634  16.199   7.411
 4836POPC   C1B61159   2.547  15.483   6.183
 4836POPC   C2B61160   2.564  15.430   6.616
 4836POPC   C3B61161   2.468  15.560   7.016
 4836POPC   C4B61162   2.662  15.703   7.350
 4837POPC   NC361163  40.700  22.944   5.322
 4837POPC   PO461164  41.044  23.420   5.514
 4837POPC   GL161165  40.740  23.225   5.787
 4837POPC   GL261166  40.414  23.375   5.781
 4837POPC   C1A61167  40.553  22.978   6.118
 4837POPC   D2A61168  40.579  22.739   6.497
 4837POPC   C3A61169  40.521  22.953   6.877
 4837POPC   C4A61170  40.808  22.954   7.209
 4837POPC   C1B61171  40.581  23.487   6.215
 4837POPC   C2B61172  40.785  23.258   6.530
 4837POPC   C3B61173  40.849  23.378   6.922
 4837POPC   C4B61174  40.538  23.410   7.179
 4838POPC   NC361175  31.471  18.426   5.190
 4838POPC   PO461176  32.213  18.193   5.321
 4838POPC   GL161177  32.363  18.356   5.705
 4838POPC   GL261178  32.351  18.064   5.857
 4838POPC   C1A61179  32.374  18.516   6.139
 4838POPC   D2A61180  32.196  18.436   6.559
 4838POPC   C3A61181  32.355  18.521   6.948
 4838POPC   C4A61182  32.201  18.464   7.301
 4838POPC   C1B61183  32.162  18.046   6.227
 4838POPC   C2B61184  32.338  17.929   6.609
 4838POPC   C3B61185  32.138  18.017   6.966
 4838POPC   C4B61186  32.307  17.979   7.349
 4839POPC   NC361187  17.814  26.214   5.465
 4839POPC   PO461188  17.480  25.651   5.354
 4839POPC   GL161189  17.311  25.814   5.766
 4839POPC   GL261190  17.615  25.975   5.883
 4839POPC   C1A61191  17.201  26.140   6.121
 4839POPC   D2A61192  17.443  26.210   6.523
 4839POPC   C3A61193  17.349  26.089   6.952
 4839POPC   C4A61194  17.430  26.279   7.351
 4839POPC   C1B61195  17.515  25.773   6.270
 4839POPC   C2B61196  17.636  25.743   6.704
 4839POPC   C3B61197  17.743  25.804   7.165
 4839POPC   C4B61198  17.896  25.820   7.631
 4840POPC   NC361199  23.421   0.510   5.515
 4840POPC   PO461200  23.975   0.686   5.147
 4840POPC   GL161201  23.929   0.504   5.598
 4840POPC   GL261202  23.800   0.776   5.794
 4840POPC   C1A61203  23.844   0.326   6.044
 4840POPC   D2A61204  23.753   0.086   6.453
 4840POPC   C3A61205  23.779   0.342   6.833
 4840POPC   C4A61206  24.010   0.378   7.222
 4840POPC   C1B61207  23.455   0.743   6.123
 4840POPC   C2B61208  23.340   0.491   6.475
 4840POPC   C3B61209  23.304   0.575   6.897
 4840POPC   C4B61210  23.513   0.546   7.242
 4841POPC   NC361211   9.015  10.728   5.385
 4841POPC   PO461212   8.823  10.000   5.366
 4841POPC   GL161213   8.821  10.376   5.693
 4841POPC   GL261214   8.811  10.767   5.834
 4841POPC   C1A61215   9.081  10.396   6.078
 4841POPC   D2A61216   9.204  10.354   6.507
 4841POPC   C3A61217   8.922  10.519   6.851
 4841POPC   C4A61218   9.125  10.513   7.243
 4841POPC   C1B61219   8.790  10.787   6.285
 4841POPC   C2B61220   9.137  10.868   6.565
 4841POPC   C3B61221   9.064  11.003   7.011
 4841POPC   C4B61222   8.831  10.896   7.397
 4842POPC   NC361223  44.252  28.671   5.505
 4842POPC   PO461224  43.658  28.352   5.465
 4842POPC   GL161225  43.825  28.487   5.884
 4842POPC   GL261226  44.040  28.784   5.941
 4842POPC   C1A61227  43.947  28.159   6.188
 4842POPC   D2A61228  44.020  27.922   6.566
 4842POPC   C3A61229  43.693  28.073   6.817
 4842POPC   C4A61230  43.741  28.390   7.139
 4842POPC   C1B61231  44.275  28.538   6.232
 4842POPC   C2B61232  44.057  28.470   6.612
 4842POPC   C3B61233  44.154  28.673   6.972
 4842POPC   C4B61234  44.246  28.375   7.217
 4843POPC   NC361235   5.721  41.116   5.308
 4843POPC   PO461236   6.243  41.412   5.481
 4843POPC   GL161237   5.945  41.612   5.754
 4843POPC   GL261238   5.674  41.393   5.822
 4843POPC   C1A61239   5.999  41.697   6.208
 4843POPC   D2A61240   6.176  41.568   6.625
 4843POPC   C3A61241   5.949  41.742   7.014
 4843POPC   C4A61242   5.646  41.880   7.335
 4843POPC   C1B61243   5.506  41.527   6.230
 4843POPC   C2B61244   5.627  41.592   6.661
 4843POPC   C3B61245   5.594  41.358   7.070
 4843POPC   C4B61246   5.485  41.189   7.534
 4844POPC   NC361247   6.900  27.007   5.428
 4844POPC   PO461248   6.847  26.312   5.547
 4844POPC   GL161249   6.549  26.496   5.818
 4844POPC   GL261250   6.709  26.805   5.849
 4844POPC   C1A61251   6.658  26.518   6.256
 4844POPC   D2A61252   6.885  26.718   6.578
 4844POPC   C3A61253   6.880  26.504   6.959
 4844POPC   C4A61254   6.789  26.678   7.352
 4844POPC   C1B61255   6.637  27.037   6.231
 4844POPC   C2B61256   6.453  26.999   6.609
 4844POPC   C3B61257   6.662  26.985   6.964
 4844POPC   C4B61258   6.602  27.199   7.297
 4845POPC   NC361259  25.049  37.685   5.491
 4845POPC   PO461260  25.418  37.055   5.443
 4845POPC   GL161261  25.426  37.386   5.817
 4845POPC   GL261262  25.120  37.569   5.962
 4845POPC   C1A61263  25.541  37.577   6.219
 4845POPC   D2A61264  25.424  37.501   6.638
 4845POPC   C3A61265  25.540  37.712   7.023
 4845POPC   C4A61266  25.708  37.392   7.292
 4845POPC   C1B61267  25.083  37.824   6.336
 4845POPC   C2B61268  25.095  37.888   6.780
 4845POPC   C3B61269  25.000  37.811   7.197
 4845POPC   C4B61270  24.845  37.947   7.609
 4846POPC   NC361271   5.545  24.402   5.519
 4846POPC   PO461272   6.060  24.811   5.416
 4846POPC   GL161273   6.156  24.466   5.726
 4846POPC   GL261274   5.861  24.573   5.898
 4846POPC   C1A61275   6.239  24.404   6.184
 4846POPC   D2A61276   5.960  24.611   6.450
 4846POPC   C3A61277   5.916  24.536   6.868
 4846POPC   C4A61278   5.748  24.755   7.210
 4846POPC   C1B61279   5.579  24.373   6.183
 4846POPC   C2B61280   5.456  24.391   6.610
 4846POPC   C3B61281   5.576  24.156   6.967
 4846POPC   C4B61282   5.574  24.258   7.396
 4847POPC   NC361283  30.244  34.526   5.517
 4847POPC   PO461284  30.886  34.590   5.529
 4847POPC   GL161285  30.773  34.667   5.973
 4847POPC   GL261286  30.450  34.725   5.952
 4847POPC   C1A61287  30.672  34.601   6.423
 4847POPC   D2A61288  30.589  34.192   6.643
 4847POPC   C3A61289  30.539  34.329   7.056
 4847POPC   C4A61290  30.782  34.457   7.396
 4847POPC   C1B61291  30.215  34.900   6.301
 4847POPC   C2B61292  30.247  35.072   6.720
 4847POPC   C3B61293  30.453  34.866   7.065
 4847POPC   C4B61294  30.312  34.738   7.424
 4848POPC   NC361295  29.206  11.466   5.510
 4848POPC   PO461296  29.361  10.909   5.148
 4848POPC   GL161297  29.039  11.001   5.667
 4848POPC   GL261298  29.210  11.223   5.997
 4848POPC   C1A61299  28.764  11.058   6.105
 4848POPC   D2A61300  28.862  11.214   6.570
 4848POPC   C3A61301  29.045  10.993   6.989
 4848POPC   C4A61302  28.905  10.987   7.479
 4848POPC   C1B61303  28.918  11.562   6.139
 4848POPC   C2B61304  28.808  11.725   6.531
 4848POPC   C3B61305  29.015  11.584   6.885
 4848POPC   C4B61306  29.076  11.420   7.270
 4849POPC   NC361307   6.520  24.735   5.456
 4849POPC   PO461308   6.710  25.353   5.301
 4849POPC   GL161309   6.634  25.224   5.738
 4849POPC   GL261310   6.307  25.361   5.804
 4849POPC   C1A61311   6.603  25.212   6.220
 4849POPC   D2A61312   6.600  25.507   6.593
 4849POPC   C3A61313   6.810  25.308   6.976
 4849POPC   C4A61314   6.848  24.828   7.060
 4849POPC   C1B61315   6.230  25.577   6.199
 4849POPC   C2B61316   6.072  25.594   6.621
 4849POPC   C3B61317   6.286  25.436   6.990
 4849POPC   C4B61318   6.525  25.675   7.229
 4850POPC   NC361319   5.660   3.383   5.353
 4850POPC   PO461320   5.731   4.046   5.198
 4850POPC   GL161321   5.855   3.894   5.695
 4850POPC   GL261322   5.931   3.540   5.746
 4850POPC   C1A61323   5.993   3.761   6.186
 4850POPC   D2A61324   5.751   3.499   6.519
 4850POPC   C3A61325   5.648   3.619   6.972
 4850POPC   C4A61326   5.736   3.558   7.432
 4850POPC   C1B61327   5.956   3.241   6.089
 4850POPC   C2B61328   5.953   2.980   6.447
 4850POPC   C3B61329   6.136   3.029   6.840
 4850POPC   C4B61330   6.049   3.316   7.129
 4851POPC   NC361331  11.888  24.279   5.050
 4851POPC   PO461332  12.056  24.744   5.476
 4851POPC   GL161333  12.022  24.557   5.817
 4851POPC   GL261334  12.339  24.537   5.950
 4851POPC   C1A61335  11.844  24.419   6.175
 4851POPC   D2A61336  12.049  24.467   6.564
 4851POPC   C3A61337  11.836  24.323   6.940
 4851POPC   C4A61338  11.919  24.338   7.363
 4851POPC   C1B61339  12.518  24.791   6.280
 4851POPC   C2B61340  12.538  24.614   6.681
 4851POPC   C3B61341  12.333  24.402   7.011
 4851POPC   C4B61342  12.285  24.676   7.376
 4852POPC   NC361343  14.517  17.664   5.223
 4852POPC   PO461344  13.972  17.315   5.483
 4852POPC   GL161345  14.159  17.374   5.852
 4852POPC   GL261346  14.453  17.562   5.743
 4852POPC   C1A61347  14.274  17.558   6.233
 4852POPC   D2A61348  14.475  17.453   6.615
 4852POPC   C3A61349  14.302  17.663   6.966
 4852POPC   C4A61350  13.991  17.503   7.258
 4852POPC   C1B61351  14.682  17.313   6.050
 4852POPC   C2B61352  14.839  17.128   6.438
 4852POPC   C3B61353  14.840  17.158   6.885
 4852POPC   C4B61354  14.754  16.952   7.256
 4853POPC   NC361355  18.080  33.978   5.428
 4853POPC   PO461356  18.713  33.659   5.412
 4853POPC   GL161357  18.411  33.713   5.745
 4853POPC   GL261358  18.372  34.068   5.857
 4853POPC   C1A61359  18.482  33.712   6.205
 4853POPC   D2A61360  18.592  33.484   6.572
 4853POPC   C3A61361  18.489  33.763   6.866
 4853POPC   C4A61362  18.330  33.871   7.212
 4853POPC   C1B61363  17.976  33.983   6.103
 4853POPC   C2B61364  17.749  34.006   6.499
 4853POPC   C3B61365  17.903  33.986   6.908
 4853POPC   C4B61366  17.967  34.219   7.283
 4854POPC   NC361367  26.446   3.962   5.539
 4854POPC   PO461368  26.266   4.635   5.306
 4854POPC   GL161369  26.106   4.623   5.740
 4854POPC   GL261370  26.323   4.355   5.851
 4854POPC   C1A61371  25.879   4.385   6.096
 4854POPC   D2A61372  25.776   4.143   6.456
 4854POPC   C3A61373  25.909   4.240   6.858
 4854POPC   C4A61374  25.708   4.365   7.229
 4854POPC   C1B61375  26.311   4.058   6.203
 4854POPC   C2B61376  26.506   4.081   6.599
 4854POPC   C3B61377  26.359   3.979   6.989
 4854POPC   C4B61378  26.215   4.271   7.283
 4855POPC   NC361379  42.434   3.313   5.384
 4855POPC   PO461380  42.337   3.937   5.278
 4855POPC   GL161381  42.228   3.703   5.674
 4855POPC   GL261382  42.180   3.990   5.812
 4855POPC   C1A61383  42.240   3.471   6.080
 4855POPC   D2A61384  42.204   3.446   6.546
 4855POPC   C3A61385  42.590   3.384   6.808
 4855POPC   C4A61386  42.652   3.392   7.243
 4855POPC   C1B61387  41.973   4.087   6.192
 4855POPC   C2B61388  42.077   4.049   6.633
 4855POPC   C3B61389  42.334   3.828   6.914
 4855POPC   C4B61390  42.256   3.705   7.305
 4856POPC   NC361391  34.289  20.102   5.624
 4856POPC   PO461392  33.692  19.990   5.212
 4856POPC   GL161393  33.642  19.847   5.734
 4856POPC   GL261394  33.944  19.743   5.794
 4856POPC   C1A61395  33.565  19.822   6.181
 4856POPC   D2A61396  33.697  19.819   6.622
 4856POPC   C3A61397  33.506  19.888   7.028
 4856POPC   C4A61398  33.659  19.829   7.448
 4856POPC   C1B61399  34.045  19.646   6.231
 4856POPC   C2B61400  34.034  19.434   6.626
 4856POPC   C3B61401  33.951  19.631   7.027
 4856POPC   C4B61402  34.124  19.629   7.418
 4857POPC   NC361403   3.781  16.886   5.492
 4857POPC   PO461404   3.311  16.355   5.474
 4857POPC   GL161405   3.386  16.680   5.798
 4857POPC   GL261406   3.163  17.019   5.789
 4857POPC   C1A61407   3.622  16.581   6.178
 4857POPC   D2A61408   3.617  16.456   6.623
 4857POPC   C3A61409   3.365  16.706   6.904
 4857POPC   C4A61410   3.372  16.766   7.336
 4857POPC   C1B61411   3.440  17.058   6.145
 4857POPC   C2B61412   3.549  17.066   6.581
 4857POPC   C3B61413   3.837  16.884   6.891
 4857POPC   C4B61414   3.894  16.930   7.310
 4858POPC   NC361415   3.337  10.834   5.431
 4858POPC   PO461416   3.838  11.271   5.423
 4858POPC   GL161417   3.745  11.457   5.843
 4858POPC   GL261418   3.394  11.298   5.868
 4858POPC   C1A61419   3.699  11.329   6.273
 4858POPC   D2A61420   3.568  10.898   6.402
 4858POPC   C3A61421   3.513  10.933   6.828
 4858POPC   C4A61422   3.737  11.238   7.102
 4858POPC   C1B61423   3.160  11.210   6.278
 4858POPC   C2B61424   3.152  11.309   6.739
 4858POPC   C3B61425   3.300  11.528   7.130
 4858POPC   C4B61426   3.277  11.556   7.599
 4859POPC   NC361427  25.713  43.375   5.459
 4859POPC   PO461428  25.139  42.972   5.543
 4859POPC   GL161429  25.344  43.022   5.930
 4859POPC   GL261430  25.429  43.354   5.918
 4859POPC   C1A61431  25.361  43.047   6.388
 4859POPC   D2A61432  25.109  42.973   6.750
 4859POPC   C3A61433  25.292  42.826   7.169
 4859POPC   C4A61434  25.095  42.686   7.575
 4859POPC   C1B61435  25.071  43.439   6.211
 4859POPC   C2B61436  24.942  43.460   6.662
 4859POPC   C3B61437  25.127  43.334   7.096
 4859POPC   C4B61438  25.367  43.443   7.493
 4860POPC   NC361439  34.514  40.640   5.252
 4860POPC   PO461440  34.963  40.101   5.551
 4860POPC   GL161441  34.807  40.560   5.723
 4860POPC   GL261442  34.494  40.795   5.732
 4860POPC   C1A61443  34.749  40.800   6.168
 4860POPC   D2A61444  34.549  40.696   6.602
 4860POPC   C3A61445  34.815  40.848   6.967
 4860POPC   C4A61446  34.725  41.056   7.396
 4860POPC   C1B61447  34.210  40.847   6.096
 4860POPC   C2B61448  34.013  40.657   6.452
 4860POPC   C3B61449  34.071  40.816   6.862
 4860POPC   C4B61450  34.375  40.744   7.189
 4861POPC   NC361451   8.656   6.876   5.270
 4861POPC   PO461452   9.192   6.543   5.252
 4861POPC   GL161453   9.136   6.619   5.698
 4861POPC   GL261454   8.786   6.649   5.739
 4861POPC   C1A61455   9.166   6.791   6.144
 4861POPC   D2A61456   9.356   6.809   6.570
 4861POPC   C3A61457   9.089   6.714   6.917
 4861POPC   C4A61458   9.003   6.461   7.269
 4861POPC   C1B61459   8.751   6.477   6.163
 4861POPC   C2B61460   8.590   6.558   6.596
 4861POPC   C3B61461   8.566   6.762   7.014
 4861POPC   C4B61462   8.554   6.609   7.447
 4862POPC   NC361463  13.422  40.354   5.461
 4862POPC   PO461464  13.931  39.886   5.406
 4862POPC   GL161465  13.665  39.930   5.795
 4862POPC   GL261466  13.456  40.169   5.920
 4862POPC   C1A61467  13.611  39.785   6.217
 4862POPC   D2A61468  13.763  39.986   6.590
 4862POPC   C3A61469  13.742  39.760   6.949
 4862POPC   C4A61470  13.671  39.562   7.323
 4862POPC   C1B61471  13.600  40.371   6.286
 4862POPC   C2B61472  13.637  40.507   6.704
 4862POPC   C3B61473  13.647  40.288   7.084
 4862POPC   C4B61474  13.595  40.041   7.445
 4863POPC   NC361475   8.409  11.934   5.291
 4863POPC   PO461476   8.009  12.394   5.465
 4863POPC   GL161477   8.211  12.269   5.852
 4863POPC   GL261478   8.157  11.926   5.804
 4863POPC   C1A61479   8.286  12.176   6.331
 4863POPC   D2A61480   8.402  12.180   6.772
 4863POPC   C3A61481   8.128  12.180   7.134
 4863POPC   C4A61482   8.435  11.897   7.289
 4863POPC   C1B61483   8.009  11.782   6.216
 4863POPC   C2B61484   7.920  11.950   6.643
 4863POPC   C3B61485   7.959  11.709   7.032
 4863POPC   C4B61486   7.952  11.776   7.484
 4864POPC   NC361487  22.645   6.229   5.434
 4864POPC   PO461488  23.219   5.810   5.389
 4864POPC   GL161489  23.232   5.850   5.819
 4864POPC   GL261490  23.419   5.547   5.854
 4864POPC   C1A61491  23.047   6.079   6.205
 4864POPC   D2A61492  22.814   6.255   6.584
 4864POPC   C3A61493  22.892   5.952   6.919
 4864POPC   C4A61494  23.218   6.127   7.138
 4864POPC   C1B61495  23.133   5.457   6.161
 4864POPC   C2B61496  23.107   5.593   6.547
 4864POPC   C3B61497  23.346   5.439   6.867
 4864POPC   C4B61498  23.141   5.549   7.221
 4865POPC   NC361499  16.494  22.182   5.850
 4865POPC   PO461500  16.847  22.522   5.342
 4865POPC   GL161501  16.995  22.335   5.793
 4865POPC   GL261502  17.055  21.980   5.814
 4865POPC   C1A61503  16.935  22.401   6.281
 4865POPC   D2A61504  16.557  22.606   6.497
 4865POPC   C3A61505  16.639  22.617   6.928
 4865POPC   C4A61506  17.022  22.434   7.123
 4865POPC   C1B61507  17.031  21.886   6.249
 4865POPC   C2B61508  17.145  21.703   6.652
 4865POPC   C3B61509  17.097  21.912   7.043
 4865POPC   C4B61510  16.639  21.968   7.094
 4866POPC   NC361511  28.816  35.573   5.555
 4866POPC   PO461512  28.310  35.103   5.404
 4866POPC   GL161513  28.184  35.373   5.765
 4866POPC   GL261514  28.192  35.740   5.676
 4866POPC   C1A61515  28.090  35.330   6.223
 4866POPC   D2A61516  27.914  35.196   6.604
 4866POPC   C3A61517  28.138  35.461   6.867
 4866POPC   C4A61518  28.438  35.575   7.149
 4866POPC   C1B61519  28.431  35.690   6.116
 4866POPC   C2B61520  28.672  35.599   6.507
 4866POPC   C3B61521  28.780  35.896   6.847
 4866POPC   C4B61522  28.793  35.904   7.313
 4867POPC   NC361523  12.086  14.906   5.357
 4867POPC   PO461524  12.413  15.427   5.372
 4867POPC   GL161525  12.137  15.248   5.738
 4867POPC   GL261526  11.928  14.956   5.829
 4867POPC   C1A61527  11.998  15.308   6.201
 4867POPC   D2A61528  11.954  15.328   6.674
 4867POPC   C3A61529  12.209  15.220   7.046
 4867POPC   C4A61530  11.991  15.451   7.357
 4867POPC   C1B61531  12.306  14.932   6.087
 4867POPC   C2B61532  12.165  14.868   6.492
 4867POPC   C3B61533  11.862  14.826   6.811
 4867POPC   C4B61534  11.712  15.090   7.128
 4868POPC   NC361535   9.511  44.037   5.441
 4868POPC   PO461536   8.929  43.751   5.450
 4868POPC   GL161537   8.896  43.893   5.882
 4868POPC   GL261538   8.821  44.275   5.940
 4868POPC   C1A61539   9.045  43.850   6.298
 4868POPC   D2A61540   9.177  44.162   6.615
 4868POPC   C3A61541   9.109  43.955   6.985
 4868POPC   C4A61542   9.286  43.704   7.280
 4868POPC   C1B61543   8.599  44.097   6.290
 4868POPC   C2B61544   8.647  43.993   6.721
 4868POPC   C3B61545   8.578  44.002   7.151
 4868POPC   C4B61546   8.901  44.111   7.429
 4869POPC   NC361547  42.167  20.356   5.015
 4869POPC   PO461548  42.462  20.649   5.509
 4869POPC   GL161549  42.344  20.629   5.928
 4869POPC   GL261550  42.352  20.317   5.921
 4869POPC   C1A61551  42.211  20.515   6.357
 4869POPC   D2A61552  42.268  20.810   6.680
 4869POPC   C3A61553  42.505  20.598   7.026
 4869POPC   C4A61554  42.307  20.310   7.299
 4869POPC   C1B61555  42.664  20.196   6.230
 4869POPC   C2B61556  42.714  20.278   6.673
 4869POPC   C3B61557  42.719  20.137   7.096
 4869POPC   C4B61558  42.758  20.420   7.491
 4870POPC   NC361559   4.399  36.565   5.314
 4870POPC   PO461560   4.394  37.259   5.091
 4870POPC   GL161561   4.445  37.071   5.587
 4870POPC   GL261562   4.335  36.728   5.790
 4870POPC   C1A61563   4.321  37.164   6.046
 4870POPC   D2A61564   4.504  37.106   6.451
 4870POPC   C3A61565   4.419  37.329   6.796
 4870POPC   C4A61566   4.494  37.037   7.125
 4870POPC   C1B61567   4.227  36.710   6.266
 4870POPC   C2B61568   4.157  36.849   6.739
 4870POPC   C3B61569   4.075  36.725   7.177
 4870POPC   C4B61570   3.818  36.484   7.482
 4871POPC   NC361571  41.930  14.991   5.472
 4871POPC   PO461572  42.505  15.255   5.258
 4871POPC   GL161573  42.398  15.121   5.670
 4871POPC   GL261574  42.168  15.396   5.763
 4871POPC   C1A61575  42.435  15.117   6.139
 4871POPC   D2A61576  42.290  15.324   6.504
 4871POPC   C3A61577  42.458  15.259   6.901
 4871POPC   C4A61578  42.298  14.985   7.187
 4871POPC   C1B61579  41.914  15.286   6.143
 4871POPC   C2B61580  41.769  15.264   6.566
 4871POPC   C3B61581  41.939  15.264   6.955
 4871POPC   C4B61582  41.932  15.469   7.344
 4872POPC   NC361583  16.944  29.566   5.374
 4872POPC   PO461584  16.810  28.877   5.416
 4872POPC   GL161585  16.696  29.235   5.688
 4872POPC   GL261586  16.953  29.133   5.917
 4872POPC   C1A61587  16.532  29.372   6.081
 4872POPC   D2A61588  16.591  29.044   6.404
 4872POPC   C3A61589  16.488  29.065   6.838
 4872POPC   C4A61590  16.593  29.246   7.212
 4872POPC   C1B61591  16.986  29.406   6.293
 4872POPC   C2B61592  16.956  29.321   6.741
 4872POPC   C3B61593  17.060  29.093   7.108
 4872POPC   C4B61594  17.061  29.317   7.517
 4873POPC   NC361595  29.344  44.933   5.579
 4873POPC   PO461596  28.844  44.466   5.504
 4873POPC   GL161597  28.946  44.801   5.852
 4873POPC   GL261598  29.256  44.631   5.993
 4873POPC   C1A61599  29.081   0.022   6.249
 4873POPC   D2A61600  29.263  44.724   6.573
 4873POPC   C3A61601  29.128  44.670   7.019
 4873POPC   C4A61602  29.082  44.506   7.447
 4873POPC   C1B61603  29.612  44.816   6.189
 4873POPC   C2B61604  29.833  44.816   6.565
 4873POPC   C3B61605  29.616  44.895   6.943
 4873POPC   C4B61606  29.427  44.896   7.363
 4874POPC   NC361607  42.782  27.433   5.335
 4874POPC   PO461608  43.451  27.500   5.142
 4874POPC   GL161609  43.221  27.501   5.595
 4874POPC   GL261610  43.305  27.745   5.836
 4874POPC   C1A61611  42.903  27.446   5.972
 4874POPC   D2A61612  42.875  27.461   6.440
 4874POPC   C3A61613  42.713  27.401   6.838
 4874POPC   C4A61614  42.921  27.351   7.193
 4874POPC   C1B61615  43.325  27.589   6.248
 4874POPC   C2B61616  43.282  27.741   6.678
 4874POPC   C3B61617  43.188  27.795   7.129
 4874POPC   C4B61618  43.407  27.671   7.498
 4875POPC   NC361619  36.396   7.019   5.348
 4875POPC   PO461620  36.021   7.644   5.364
 4875POPC   GL161621  36.215   7.608   5.771
 4875POPC   GL261622  36.251   7.266   5.774
 4875POPC   C1A61623  36.385   7.748   6.204
 4875POPC   D2A61624  36.452   7.549   6.609
 4875POPC   C3A61625  36.403   7.783   6.984
 4875POPC   C4A61626  36.239   7.685   7.368
 4875POPC   C1B61627  36.036   7.380   6.180
 4875POPC   C2B61628  36.032   7.262   6.590
 4875POPC   C3B61629  36.144   7.302   7.013
 4875POPC   C4B61630  35.798   7.428   7.227
 4876POPC   NC361631  44.248   2.642   5.286
 4876POPC   PO461632  43.565   2.870   5.294
 4876POPC   GL161633  43.850   2.720   5.669
 4876POPC   GL261634  44.031   3.026   5.805
 4876POPC   C1A61635  43.915   2.595   6.147
 4876POPC   D2A61636  43.754   2.897   6.528
 4876POPC   C3A61637  43.719   2.651   6.940
 4876POPC   C4A61638  43.764   2.920   7.326
 4876POPC   C1B61639  44.212   2.990   6.215
 4876POPC   C2B61640  44.209   2.731   6.610
 4876POPC   C3B61641  44.159   2.862   7.015
 4876POPC   C4B61642  44.206   2.672   7.449
 4877POPC   NC361643  22.439  16.321   5.518
 4877POPC   PO461644  22.046  15.817   5.327
 4877POPC   GL161645  22.068  15.983   5.735
 4877POPC   GL261646  21.711  16.012   5.780
 4877POPC   C1A61647  22.303  15.917   6.136
 4877POPC   D2A61648  22.353  16.164   6.534
 4877POPC   C3A61649  22.383  15.949   6.936
 4877POPC   C4A61650  22.639  16.188   7.245
 4877POPC   C1B61651  21.830  15.723   6.133
 4877POPC   C2B61652  21.999  15.799   6.549
 4877POPC   C3B61653  21.871  15.985   6.919
 4877POPC   C4B61654  22.029  15.918   7.337
 4878POPC   NC361655  32.860  24.798   4.922
 4878POPC   PO461656  33.148  24.287   5.221
 4878POPC   GL161657  33.146  24.335   5.738
 4878POPC   GL261658  33.144  24.664   5.809
 4878POPC   C1A61659  33.172  24.341   6.227
 4878POPC   D2A61660  33.302  24.221   6.689
 4878POPC   C3A61661  33.099  24.394   7.094
 4878POPC   C4A61662  33.009  24.333   7.634
 4878POPC   C1B61663  33.219  24.861   6.224
 4878POPC   C2B61664  33.215  24.742   6.662
 4878POPC   C3B61665  33.143  24.912   7.055
 4878POPC   C4B61666  32.946  24.806   7.425
 4879POPC   NC361667   5.220  39.084   5.317
 4879POPC   PO461668   4.609  39.367   5.394
 4879POPC   GL161669   4.970  39.337   5.690
 4879POPC   GL261670   4.879  39.572   5.959
 4879POPC   C1A61671   5.203  39.180   6.091
 4879POPC   D2A61672   5.009  39.357   6.491
 4879POPC   C3A61673   5.242  39.332   6.899
 4879POPC   C4A61674   5.438  39.013   7.154
 4879POPC   C1B61675   4.706  39.125   6.061
 4879POPC   C2B61676   4.682  38.847   6.412
 4879POPC   C3B61677   4.589  38.859   6.852
 4879POPC   C4B61678   4.777  39.193   7.093
 4880POPC   NC361679  34.689  32.957   5.275
 4880POPC   PO461680  34.595  33.603   5.188
 4880POPC   GL161681  34.601  33.387   5.679
 4880POPC   GL261682  34.630  33.001   5.783
 4880POPC   C1A61683  34.864  33.296   6.117
 4880POPC   D2A61684  34.652  33.271   6.513
 4880POPC   C3A61685  34.686  33.101   6.910
 4880POPC   C4A61686  34.401  33.217   7.198
 4880POPC   C1B61687  34.435  32.922   6.192
 4880POPC   C2B61688  34.492  32.734   6.600
 4880POPC   C3B61689  34.299  32.747   7.003
 4880POPC   C4B61690  34.505  32.753   7.386
 4881POPC   NC361691  44.441   4.998   5.577
 4881POPC   PO461692  43.965   5.170   5.154
 4881POPC   GL161693  43.717   5.185   5.612
 4881POPC   GL261694  43.745   4.849   5.750
 4881POPC   C1A61695  43.696   5.164   6.129
 4881POPC   D2A61696  43.614   5.322   6.583
 4881POPC   C3A61697  43.917   5.210   6.927
 4881POPC   C4A61698  44.265   5.382   7.187
 4881POPC   C1B61699  43.943   4.702   6.140
 4881POPC   C2B61700  43.935   4.825   6.561
 4881POPC   C3B61701  43.954   4.629   6.948
 4881POPC   C4B61702  43.849   4.863   7.307
 4882POPC   NC361703  35.983   6.110   5.395
 4882POPC   PO461704  35.941   6.751   5.295
 4882POPC   GL161705  36.112   6.746   5.703
 4882POPC   GL261706  36.237   6.414   5.701
 4882POPC   C1A61707  36.150   6.883   6.124
 4882POPC   D2A61708  35.947   6.770   6.502
 4882POPC   C3A61709  36.269   6.834   6.791
 4882POPC   C4A61710  36.503   6.834   7.136
 4882POPC   C1B61711  36.348   6.419   6.102
 4882POPC   C2B61712  36.270   6.381   6.520
 4882POPC   C3B61713  36.490   6.370   6.886
 4882POPC   C4B61714  36.215   6.438   7.189
 4883POPC   NC361715   4.663  42.823   5.174
 4883POPC   PO461716   5.277  43.058   5.421
 4883POPC   GL161717   5.012  43.217   5.751
 4883POPC   GL261718   5.027  42.946   6.043
 4883POPC   C1A61719   5.173  43.411   6.119
 4883POPC   D2A61720   5.124  43.155   6.522
 4883POPC   C3A61721   5.331  43.349   6.857
 4883POPC   C4A61722   5.244  43.329   7.276
 4883POPC   C1B61723   5.473  42.978   6.173
 4883POPC   C2B61724   5.618  42.950   6.621
 4883POPC   C3B61725   5.456  42.858   7.063
 4883POPC   C4B61726   5.271  42.881   7.513
 4884POPC   NC361727   3.099  26.731   5.351
 4884POPC   PO461728   2.629  27.155   5.409
 4884POPC   GL161729   2.641  26.943   5.795
 4884POPC   GL261730   2.989  26.952   5.790
 4884POPC   C1A61731   2.452  26.851   6.208
 4884POPC   D2A61732   2.476  26.618   6.587
 4884POPC   C3A61733   2.587  26.760   6.966
 4884POPC   C4A61734   2.329  26.852   7.322
 4884POPC   C1B61735   3.003  26.803   6.184
 4884POPC   C2B61736   2.975  26.889   6.598
 4884POPC   C3B61737   3.117  26.666   6.943
 4884POPC   C4B61738   3.017  26.844   7.304
 4885POPC   NC361739  41.723  10.705   5.275
 4885POPC   PO461740  41.346  10.131   5.388
 4885POPC   GL161741  41.595  10.369   5.679
 4885POPC   GL261742  41.354  10.646   5.736
 4885POPC   C1A61743  41.748  10.417   6.112
 4885POPC   D2A61744  41.529  10.387   6.531
 4885POPC   C3A61745  41.781  10.479   6.882
 4885POPC   C4A61746  41.785  10.494   7.299
 4885POPC   C1B61747  41.198  10.586   6.188
 4885POPC   C2B61748  41.113  10.657   6.669
 4885POPC   C3B61749  41.319  10.629   7.067
 4885POPC   C4B61750  41.370  10.667   7.536
 4886POPC   NC361751   1.360  23.923   5.427
 4886POPC   PO461752   0.690  23.820   5.416
 4886POPC   GL161753   1.014  23.896   5.796
 4886POPC   GL261754   1.288  23.632   5.839
 4886POPC   C1A61755   1.185  23.944   6.245
 4886POPC   D2A61756   1.007  23.702   6.614
 4886POPC   C3A61757   0.924  23.850   7.037
 4886POPC   C4A61758   1.064  24.089   7.364
 4886POPC   C1B61759   1.330  23.440   6.275
 4886POPC   C2B61760   1.502  23.639   6.654
 4886POPC   C3B61761   1.443  23.786   7.085
 4886POPC   C4B61762   1.508  23.857   7.507
 4887POPC   NC361763  33.634  39.280   5.342
 4887POPC   PO461764  34.133  39.679   5.442
 4887POPC   GL161765  33.876  39.499   5.813
 4887POPC   GL261766  33.700  39.143   5.836
 4887POPC   C1A61767  33.759  39.413   6.263
 4887POPC   D2A61768  33.594  39.284   6.669
 4887POPC   C3A61769  33.806  39.372   7.063
 4887POPC   C4A61770  33.796  39.597   7.445
 4887POPC   C1B61771  33.737  38.909   6.266
 4887POPC   C2B61772  33.706  38.790   6.727
 4887POPC   C3B61773  33.691  38.874   7.189
 4887POPC   C4B61774  33.571  38.732   7.616
 4888POPC   NC361775  40.149  39.557   5.457
 4888POPC   PO461776  39.655  40.041   5.313
 4888POPC   GL161777  39.856  39.909   5.695
 4888POPC   GL261778  40.121  40.097   5.816
 4888POPC   C1A61779  39.787  39.860   6.144
 4888POPC   D2A61780  40.021  39.984   6.503
 4888POPC   C3A61781  39.822  39.903   6.886
 4888POPC   C4A61782  39.735  40.012   7.297
 4888POPC   C1B61783  40.333  39.823   6.089
 4888POPC   C2B61784  40.499  39.772   6.505
 4888POPC   C3B61785  40.349  39.780   6.904
 4888POPC   C4B61786  40.210  39.881   7.279
 4889POPC   NC361787   8.531  20.316   5.476
 4889POPC   PO461788   7.980  20.737   5.443
 4889POPC   GL161789   8.335  20.723   5.717
 4889POPC   GL261790   8.389  21.061   5.759
 4889POPC   C1A61791   8.319  20.516   6.105
 4889POPC   D2A61792   8.000  20.580   6.413
 4889POPC   C3A61793   8.111  20.634   6.798
 4889POPC   C4A61794   8.295  20.612   7.173
 4889POPC   C1B61795   8.089  20.996   6.083
 4889POPC   C2B61796   8.162  21.064   6.495
 4889POPC   C3B61797   8.189  21.108   6.934
 4889POPC   C4B61798   7.987  21.033   7.307
 4890POPC   NC361799   9.641  20.893   5.137
 4890POPC   PO461800   9.668  20.339   5.532
 4890POPC   GL161801   9.874  20.559   5.859
 4890POPC   GL261802  10.213  20.404   5.890
 4890POPC   C1A61803   9.626  20.616   6.231
 4890POPC   D2A61804   9.266  20.566   6.477
 4890POPC   C3A61805   9.363  20.603   6.891
 4890POPC   C4A61806   9.447  20.766   7.277
 4890POPC   C1B61807  10.013  20.283   6.301
 4890POPC   C2B61808   9.882  20.554   6.665
 4890POPC   C3B61809   9.847  20.543   7.084
 4890POPC   C4B61810  10.006  20.815   7.373
 4891POPC   NC361811  37.847   2.433   5.378
 4891POPC   PO461812  38.259   3.021   5.312
 4891POPC   GL161813  38.271   2.886   5.739
 4891POPC   GL261814  38.256   2.529   5.674
 4891POPC   C1A61815  38.588   2.883   6.084
 4891POPC   D2A61816  38.542   2.764   6.516
 4891POPC   C3A61817  38.683   2.847   6.936
 4891POPC   C4A61818  38.455   2.884   7.287
 4891POPC   C1B61819  38.332   2.426   6.106
 4891POPC   C2B61820  38.119   2.460   6.501
 4891POPC   C3B61821  38.252   2.561   6.902
 4891POPC   C4B61822  38.356   2.356   7.275
 4892POPC   NC361823  31.463  11.900   5.320
 4892POPC   PO461824  31.571  12.672   5.410
 4892POPC   GL161825  31.432  12.430   5.779
 4892POPC   GL261826  31.566  12.075   5.793
 4892POPC   C1A61827  31.386  12.301   6.217
 4892POPC   D2A61828  31.399  12.078   6.638
 4892POPC   C3A61829  31.473  12.244   7.062
 4892POPC   C4A61830  31.619  12.036   7.466
 4892POPC   C1B61831  31.765  11.778   6.082
 4892POPC   C2B61832  31.746  11.643   6.511
 4892POPC   C3B61833  31.789  11.789   6.953
 4892POPC   C4B61834  31.746  11.564   7.323
 4893POPC   NC361835  25.056  10.064   5.326
 4893POPC   PO461836  25.515  10.539   5.236
 4893POPC   GL161837  25.409  10.408   5.674
 4893POPC   GL261838  25.138  10.187   5.808
 4893POPC   C1A61839  25.235  10.603   6.080
 4893POPC   D2A61840  25.095  10.774   6.489
 4893POPC   C3A61841  25.412  10.801   6.816
 4893POPC   C4A61842  25.481  10.621   7.210
 4893POPC   C1B61843  25.189  10.078   6.228
 4893POPC   C2B61844  25.161  10.271   6.618
 4893POPC   C3B61845  25.343  10.167   7.001
 4893POPC   C4B61846  25.191  10.222   7.382
 4894POPC   NC361847   9.292   8.321   5.615
 4894POPC   PO461848   8.737   7.926   5.564
 4894POPC   GL161849   9.002   8.008   5.918
 4894POPC   GL261850   9.133   8.325   6.123
 4894POPC   C1A61851   8.775   8.004   6.263
 4894POPC   D2A61852   8.889   8.233   6.591
 4894POPC   C3A61853   8.762   8.103   6.949
 4894POPC   C4A61854   8.989   8.043   7.311
 4894POPC   C1B61855   8.933   8.698   6.374
 4894POPC   C2B61856   8.741   8.674   6.798
 4894POPC   C3B61857   9.033   8.522   7.117
 4894POPC   C4B61858   9.084   8.498   7.568
 4895POPC   NC361859  36.489  11.318   5.281
 4895POPC   PO461860  35.896  11.560   5.461
 4895POPC   GL161861  36.231  11.440   5.728
 4895POPC   GL261862  36.129  11.128   5.914
 4895POPC   C1A61863  36.427  11.511   6.112
 4895POPC   D2A61864  36.328  11.274   6.487
 4895POPC   C3A61865  36.267  11.484   6.887
 4895POPC   C4A61866  36.068  11.353   7.265
 4895POPC   C1B61867  35.832  11.119   6.298
 4895POPC   C2B61868  35.918  11.113   6.759
 4895POPC   C3B61869  35.839  10.901   7.137
 4895POPC   C4B61870  35.742  10.995   7.535
 4896POPC   NC361871  41.692  28.993   5.200
 4896POPC   PO461872  41.018  28.925   5.214
 4896POPC   GL161873  41.356  29.006   5.638
 4896POPC   GL261874  41.732  29.082   5.708
 4896POPC   C1A61875  41.465  29.299   6.057
 4896POPC   D2A61876  41.557  29.205   6.488
 4896POPC   C3A61877  41.275  29.302   6.827
 4896POPC   C4A61878  41.513  29.334   7.183
 4896POPC   C1B61879  41.708  28.851   6.113
 4896POPC   C2B61880  41.722  28.709   6.534
 4896POPC   C3B61881  41.620  28.863   6.943
 4896POPC   C4B61882  41.867  28.963   7.285
 4897POPC   NC361883  27.234  42.986   5.311
 4897POPC   PO461884  26.781  43.538   5.164
 4897POPC   GL161885  26.990  43.349   5.602
 4897POPC   GL261886  26.851  43.132   5.758
 4897POPC   C1A61887  26.933  43.440   6.141
 4897POPC   D2A61888  26.859  43.266   6.620
 4897POPC   C3A61889  26.496  43.244   6.989
 4897POPC   C4A61890  26.492  43.292   7.531
 4897POPC   C1B61891  26.699  42.956   6.139
 4897POPC   C2B61892  26.808  42.759   6.524
 4897POPC   C3B61893  26.816  42.836   6.938
 4897POPC   C4B61894  26.915  43.151   7.283
 4898POPC   NC361895  11.630  11.788   5.466
 4898POPC   PO461896  11.159  12.272   5.479
 4898POPC   GL161897  11.110  12.043   5.866
 4898POPC   GL261898  11.451  11.919   5.933
 4898POPC   C1A61899  11.153  12.101   6.315
 4898POPC   D2A61900  11.367  12.317   6.644
 4898POPC   C3A61901  11.371  12.118   7.031
 4898POPC   C4A61902  11.025  12.030   7.289
 4898POPC   C1B61903  11.635  11.961   6.355
 4898POPC   C2B61904  11.596  11.714   6.711
 4898POPC   C3B61905  11.695  11.714   7.120
 4898POPC   C4B61906  11.489  11.860   7.480
 4899POPC   NC361907  13.234  13.086   5.523
 4899POPC   PO461908  12.706  12.662   5.528
 4899POPC   GL161909  12.936  12.844   5.848
 4899POPC   GL261910  12.763  13.173   5.778
 4899POPC   C1A61911  13.060  12.791   6.280
 4899POPC   D2A61912  12.791  12.754   6.651
 4899POPC   C3A61913  12.982  12.767   7.044
 4899POPC   C4A61914  12.829  12.568   7.372
 4899POPC   C1B61915  12.579  12.991   6.180
 4899POPC   C2B61916  12.493  13.163   6.603
 4899POPC   C3B61917  12.492  12.996   7.030
 4899POPC   C4B61918  12.542  13.331   7.352
 4900POPC   NC361919  17.303  28.713   5.330
 4900POPC   PO461920  17.698  29.227   5.256
 4900POPC   GL161921  17.609  29.010   5.657
 4900POPC   GL261922  17.766  28.721   5.800
 4900POPC   C1A61923  17.454  28.999   6.091
 4900POPC   D2A61924  17.480  29.336   6.389
 4900POPC   C3A61925  17.510  29.217   6.802
 4900POPC   C4A61926  17.430  29.443   7.155
 4900POPC   C1B61927  17.816  28.572   6.207
 4900POPC   C2B61928  17.669  28.735   6.611
 4900POPC   C3B61929  17.696  28.812   7.073
 4900POPC   C4B61930  17.910  29.042   7.423
 4901POPC   NC361931  34.193  14.984   5.574
 4901POPC   PO461932  34.590  14.423   5.429
 4901POPC   GL161933  34.680  14.453   5.875
 4901POPC   GL261934  34.330  14.337   5.926
 4901POPC   C1A61935  34.675  14.198   6.287
 4901POPC   D2A61936  34.768  14.002   6.701
 4901POPC   C3A61937  34.684  14.154   7.140
 4901POPC   C4A61938  34.775  14.136   7.620
 4901POPC   C1B61939  34.408  14.651   6.268
 4901POPC   C2B61940  34.456  14.489   6.691
 4901POPC   C3B61941  34.302  14.484   7.084
 4901POPC   C4B61942  34.523  14.587   7.418
 4902POPC   NC361943  30.441   8.517   5.574
 4902POPC   PO461944  31.006   8.100   5.424
 4902POPC   GL161945  30.830   8.151   5.778
 4902POPC   GL261946  30.534   7.968   5.749
 4902POPC   C1A61947  30.889   8.400   6.148
 4902POPC   D2A61948  30.706   8.670   6.427
 4902POPC   C3A61949  30.758   8.459   6.809
 4902POPC   C4A61950  30.942   8.503   7.187
 4902POPC   C1B61951  30.675   7.864   6.178
 4902POPC   C2B61952  30.541   7.766   6.589
 4902POPC   C3B61953  30.587   7.800   7.019
 4902POPC   C4B61954  30.978   7.885   7.209
 4903POPC   NC361955   4.952  41.586   5.348
 4903POPC   PO461956   5.578  41.555   5.318
 4903POPC   GL161957   5.295  41.702   5.705
 4903POPC   GL261958   5.167  41.345   5.779
 4903POPC   C1A61959   5.030  41.699   6.135
 4903POPC   D2A61960   5.163  41.833   6.575
 4903POPC   C3A61961   5.099  41.605   6.941
 4903POPC   C4A61962   5.217  41.560   7.351
 4903POPC   C1B61963   4.965  41.121   6.124
 4903POPC   C2B61964   4.982  41.287   6.535
 4903POPC   C3B61965   4.732  41.260   6.901
 4903POPC   C4B61966   4.540  41.200   7.280
 4904POPC   NC361967  41.849   0.228   5.524
 4904POPC   PO461968  41.266   0.496   5.433
 4904POPC   GL161969  41.519   0.534   5.826
 4904POPC   GL261970  41.901   0.581   5.923
 4904POPC   C1A61971  41.480   0.289   6.221
 4904POPC   D2A61972  41.447   0.457   6.641
 4904POPC   C3A61973  41.678   0.343   6.967
 4904POPC   C4A61974  41.450   0.024   7.134
 4904POPC   C1B61975  41.643   0.768   6.285
 4904POPC   C2B61976  41.514   0.943   6.692
 4904POPC   C3B61977  41.712   0.859   7.092
 4904POPC   C4B61978  42.038   0.573   7.276
 4905POPC   NC361979   9.274  22.581   5.378
 4905POPC   PO461980   8.959  22.005   5.369
 4905POPC   GL161981   9.021  22.070   5.787
 4905POPC   GL261982   9.297  21.856   5.848
 4905POPC   C1A61983   8.793  22.070   6.170
 4905POPC   D2A61984   8.806  22.305   6.563
 4905POPC   C3A61985   8.869  22.109   6.957
 4905POPC   C4A61986   8.702  22.380   7.205
 4905POPC   C1B61987   9.317  22.073   6.240
 4905POPC   C2B61988   9.293  22.157   6.663
 4905POPC   C3B61989   9.384  22.053   7.073
 4905POPC   C4B61990   9.148  21.910   7.401
 4906POPC   NC361991  39.604  29.833   5.266
 4906POPC   PO461992  39.168  30.331   5.266
 4906POPC   GL161993  39.404  30.179   5.718
 4906POPC   GL261994  39.570  29.813   5.778
 4906POPC   C1A61995  39.337  29.983   6.194
 4906POPC   D2A61996  39.262  29.689   6.576
 4906POPC   C3A61997  39.198  29.908   6.979
 4906POPC   C4A61998  39.193  30.198   7.310
 4906POPC   C1B61999  39.788  29.721   6.197
 4906POPC   C2B62000  39.761  29.579   6.626
 4906POPC   C3B62001  39.614  29.631   7.035
 4906POPC   C4B62002  39.376  29.717   7.435
 4907POPC   NC362003  37.459  23.717   5.261
 4907POPC   PO462004  38.125  23.740   5.386
 4907POPC   GL162005  37.792  23.760   5.721
 4907POPC   GL262006  37.858  23.465   5.957
 4907POPC   C1A62007  37.629  23.891   6.141
 4907POPC   D2A62008  37.745  24.064   6.566
 4907POPC   C3A62009  37.619  23.907   6.965
 4907POPC   C4A62010  37.463  23.540   7.122
 4907POPC   C1B62011  37.828  23.503   6.394
 4907POPC   C2B62012  37.902  23.344   6.767
 4907POPC   C3B62013  37.964  23.513   7.129
 4907POPC   C4B62014  37.911  23.818   7.431
 4908POPC   NC362015  17.751   4.294   5.152
 4908POPC   PO462016  17.876   4.773   5.602
 4908POPC   GL162017  17.709   4.419   5.876
 4908POPC   GL262018  17.387   4.246   5.810
 4908POPC   C1A62019  17.687   4.087   6.221
 4908POPC   D2A62020  17.676   3.898   6.612
 4908POPC   C3A62021  17.517   4.175   6.898
 4908POPC   C4A62022  17.643   4.350   7.273
 4908POPC   C1B62023  17.193   4.220   6.273
 4908POPC   C2B62024  17.036   4.306   6.729
 4908POPC   C3B62025  17.126   4.440   7.188
 4908POPC   C4B62026  17.340   4.639   7.580
 4909POPC   NC362027   5.762  21.447   5.261
 4909POPC   PO462028   6.092  20.907   5.375
 4909POPC   GL162029   5.965  21.220   5.719
 4909POPC   GL262030   5.592  21.269   5.719
 4909POPC   C1A62031   5.997  21.444   6.141
 4909POPC   D2A62032   5.818  21.403   6.566
 4909POPC   C3A62033   6.058  21.405   6.943
 4909POPC   C4A62034   5.946  21.589   7.352
 4909POPC   C1B62035   5.609  21.113   6.142
 4909POPC   C2B62036   5.395  21.136   6.554
 4909POPC   C3B62037   5.558  20.994   6.897
 4909POPC   C4B62038   5.668  21.176   7.244
 4910POPC   NC362039  32.484   5.097   5.028
 4910POPC   PO462040  32.197   4.831   5.565
 4910POPC   GL162041  32.388   5.121   5.762
 4910POPC   GL262042  32.476   4.899   5.996
 4910POPC   C1A62043  32.282   5.339   6.161
 4910POPC   D2A62044  32.324   5.274   6.606
 4910POPC   C3A62045  32.120   5.473   6.980
 4910POPC   C4A62046  32.164   5.267   7.433
 4910POPC   C1B62047  32.115   4.856   6.258
 4910POPC   C2B62048  32.043   4.811   6.670
 4910POPC   C3B62049  32.259   4.981   7.012
 4910POPC   C4B62050  32.582   4.830   7.256
 4911POPC   NC362051  25.158   4.812   5.492
 4911POPC   PO462052  25.491   5.210   5.045
 4911POPC   GL162053  25.228   5.331   5.535
 4911POPC   GL262054  24.895   5.207   5.718
 4911POPC   C1A62055  25.272   5.263   6.047
 4911POPC   D2A62056  25.292   5.149   6.505
 4911POPC   C3A62057  25.517   5.392   6.826
 4911POPC   C4A62058  25.556   5.274   7.240
 4911POPC   C1B62059  24.784   5.229   6.205
 4911POPC   C2B62060  24.848   5.433   6.646
 4911POPC   C3B62061  24.971   5.252   7.078
 4911POPC   C4B62062  24.864   5.103   7.536
 4912POPC   NC362063   6.389  35.152   5.442
 4912POPC   PO462064   6.826  35.669   5.333
 4912POPC   GL162065   6.675  35.532   5.742
 4912POPC   GL262066   6.407  35.312   5.911
 4912POPC   C1A62067   6.686  35.645   6.164
 4912POPC   D2A62068   6.502  35.673   6.545
 4912POPC   C3A62069   6.786  35.697   6.854
 4912POPC   C4A62070   6.615  35.608   7.207
 4912POPC   C1B62071   6.358  35.222   6.349
 4912POPC   C2B62072   6.470  35.089   6.778
 4912POPC   C3B62073   6.514  35.110   7.250
 4912POPC   C4B62074   6.597  35.029   7.688
 4913POPC   NC362075   4.644  28.899   5.438
 4913POPC   PO462076   4.203  29.369   5.344
 4913POPC   GL162077   4.331  29.219   5.714
 4913POPC   GL262078   4.216  28.857   5.708
 4913POPC   C1A62079   4.452  29.409   6.132
 4913POPC   D2A62080   4.340  29.590   6.562
 4913POPC   C3A62081   4.458  29.283   6.886
 4913POPC   C4A62082   4.720  29.275   7.248
 4913POPC   C1B62083   4.076  29.009   6.098
 4913POPC   C2B62084   4.335  29.000   6.462
 4913POPC   C3B62085   4.219  28.820   6.864
 4913POPC   C4B62086   4.416  28.821   7.255
 4914POPC   NC362087  41.844   9.985   5.431
 4914POPC   PO462088  42.296   9.450   5.571
 4914POPC   GL162089  42.286   9.760   5.885
 4914POPC   GL262090  41.946   9.737   5.867
 4914POPC   C1A62091  42.143  10.040   6.237
 4914POPC   D2A62092  41.884  10.035   6.603
 4914POPC   C3A62093  42.161  10.049   6.965
 4914POPC   C4A62094  42.354   9.893   7.328
 4914POPC   C1B62095  41.986   9.563   6.265
 4914POPC   C2B62096  42.186   9.632   6.659
 4914POPC   C3B62097  42.020   9.563   7.074
 4914POPC   C4B62098  41.856   9.132   7.151
 4915POPC   NC362099   5.310   9.381   5.374
 4915POPC   PO462100   4.846   8.913   5.341
 4915POPC   GL162101   5.045   8.895   5.789
 4915POPC   GL262102   5.275   8.649   5.885
 4915POPC   C1A62103   5.190   9.043   6.228
 4915POPC   D2A62104   5.064   9.304   6.583
 4915POPC   C3A62105   5.298   9.233   6.957
 4915POPC   C4A62106   5.188   9.007   7.319
 4915POPC   C1B62107   5.148   8.546   6.319
 4915POPC   C2B62108   5.130   8.800   6.688
 4915POPC   C3B62109   4.847   8.941   6.960
 4915POPC   C4B62110   4.488   8.745   7.049
 4916POPC   NC362111  15.633   1.407   5.148
 4916POPC   PO462112  16.121   1.576   5.590
 4916POPC   GL162113  15.960   1.859   5.848
 4916POPC   GL262114  15.695   2.013   5.660
 4916POPC   C1A62115  15.960   1.959   6.261
 4916POPC   D2A62116  15.726   1.910   6.612
 4916POPC   C3A62117  15.910   1.895   7.024
 4916POPC   C4A62118  16.179   1.859   7.403
 4916POPC   C1B62119  15.759   2.331   5.959
 4916POPC   C2B62120  15.668   2.393   6.407
 4916POPC   C3B62121  15.814   2.371   6.818
 4916POPC   C4B62122  16.019   2.345   7.214
 4917POPC   NC362123  27.976  14.398   5.438
 4917POPC   PO462124  28.558  14.533   5.222
 4917POPC   GL162125  28.426  14.327   5.675
 4917POPC   GL262126  28.146  14.156   5.858
 4917POPC   C1A62127  28.379  14.537   6.120
 4917POPC   D2A62128  28.452  14.715   6.526
 4917POPC   C3A62129  28.664  14.439   6.787
 4917POPC   C4A62130  28.560  14.289   7.162
 4917POPC   C1B62131  28.286  14.068   6.289
 4917POPC   C2B62132  28.199  14.270   6.683
 4917POPC   C3B62133  28.082  14.190   7.101
 4917POPC   C4B62134  28.225  14.203   7.566
 4918POPC   NC362135   4.404  19.467   5.365
 4918POPC   PO462136   4.310  20.131   5.344
 4918POPC   GL162137   4.440  19.879   5.738
 4918POPC   GL262138   4.527  19.521   5.856
 4918POPC   C1A62139   4.459  19.950   6.191
 4918POPC   D2A62140   4.180  19.903   6.570
 4918POPC   C3A62141   4.285  19.965   7.024
 4918POPC   C4A62142   4.251  19.910   7.484
 4918POPC   C1B62143   4.122  19.581   6.058
 4918POPC   C2B62144   4.011  19.435   6.480
 4918POPC   C3B62145   4.153  19.485   6.907
 4918POPC   C4B62146   3.893  19.668   7.216
 4919POPC   NC362147  22.884  14.084   5.474
 4919POPC   PO462148  23.235  14.614   5.197
 4919POPC   GL162149  23.006  14.571   5.730
 4919POPC   GL262150  22.723  14.439   5.910
 4919POPC   C1A62151  23.116  14.357   6.181
 4919POPC   D2A62152  22.880  14.486   6.522
 4919POPC   C3A62153  23.094  14.435   6.888
 4919POPC   C4A62154  22.944  14.253   7.238
 4919POPC   C1B62155  22.480  14.703   6.215
 4919POPC   C2B62156  22.498  14.858   6.637
 4919POPC   C3B62157  22.645  14.642   7.019
 4919POPC   C4B62158  22.500  14.457   7.448
 4920POPC   NC362159  14.050  35.547   5.524
 4920POPC   PO462160  13.461  35.894   5.400
 4920POPC   GL162161  13.693  35.921   5.780
 4920POPC   GL262162  13.435  36.144   5.894
 4920POPC   C1A62163  13.908  36.042   6.178
 4920POPC   D2A62164  14.067  36.152   6.612
 4920POPC   C3A62165  13.754  36.041   6.926
 4920POPC   C4A62166  13.417  36.156   7.199
 4920POPC   C1B62167  13.283  35.946   6.263
 4920POPC   C2B62168  13.301  36.022   6.700
 4920POPC   C3B62169  13.296  35.698   7.015
 4920POPC   C4B62170  13.158  35.732   7.439
 4921POPC   NC362171   9.253   4.586   5.740
 4921POPC   PO462172   9.666   4.220   5.401
 4921POPC   GL162173   9.820   4.443   5.745
 4921POPC   GL262174  10.023   4.131   5.820
 4921POPC   C1A62175   9.770   4.586   6.175
 4921POPC   D2A62176   9.850   4.338   6.532
 4921POPC   C3A62177   9.620   4.332   6.881
 4921POPC   C4A62178   9.679   4.492   7.279
 4921POPC   C1B62179   9.616   4.063   6.077
 4921POPC   C2B62180   9.593   3.911   6.516
 4921POPC   C3B62181   9.932   3.926   6.844
 4921POPC   C4B62182   9.948   4.074   7.238
 4922POPC   NC362183  21.321  34.807   5.365
 4922POPC   PO462184  21.693  34.377   5.596
 4922POPC   GL162185  21.320  34.490   5.802
 4922POPC   GL262186  21.112  34.158   5.898
 4922POPC   C1A62187  21.332  34.789   6.114
 4922POPC   D2A62188  21.531  34.720   6.506
 4922POPC   C3A62189  21.347  34.794   6.903
 4922POPC   C4A62190  21.452  34.566   7.240
 4922POPC   C1B62191  21.309  34.281   6.280
 4922POPC   C2B62192  21.178  34.340   6.697
 4922POPC   C3B62193  21.054  34.265   7.134
 4922POPC   C4B62194  21.326  34.119   7.463
 4923POPC   NC362195  33.148   4.022   5.692
 4923POPC   PO462196  33.188   4.686   5.525
 4923POPC   GL162197  32.975   4.493   5.895
 4923POPC   GL262198  32.689   4.268   5.864
 4923POPC   C1A62199  33.127   4.330   6.301
 4923POPC   D2A62200  33.292   4.086   6.657
 4923POPC   C3A62201  33.378   4.381   7.013
 4923POPC   C4A62202  33.061   4.668   7.218
 4923POPC   C1B62203  32.732   4.018   6.247
 4923POPC   C2B62204  32.731   4.143   6.611
 4923POPC   C3B62205  32.867   4.262   6.963
 4923POPC   C4B62206  32.993   4.168   7.328
 4924POPC   NC362207  24.342   6.116   5.479
 4924POPC   PO462208  24.166   5.536   5.407
 4924POPC   GL162209  24.402   5.707   5.799
 4924POPC   GL262210  24.236   6.036   5.958
 4924POPC   C1A62211  24.554   5.701   6.229
 4924POPC   D2A62212  24.380   5.898   6.579
 4924POPC   C3A62213  24.629   5.875   6.956
 4924POPC   C4A62214  24.687   5.605   7.317
 4924POPC   C1B62215  24.565   6.243   6.172
 4924POPC   C2B62216  24.895   6.119   6.454
 4924POPC   C3B62217  25.047   6.202   6.855
 4924POPC   C4B62218  24.785   6.347   7.148
 4925POPC   NC362219  35.971  19.936   5.416
 4925POPC   PO462220  36.619  19.795   5.341
 4925POPC   GL162221  36.334  19.763   5.754
 4925POPC   GL262222  36.059  20.035   5.904
 4925POPC   C1A62223  36.153  19.666   6.202
 4925POPC   D2A62224  36.027  20.000   6.450
 4925POPC   C3A62225  36.245  20.177   6.798
 4925POPC   C4A62226  36.064  20.185   7.190
 4925POPC   C1B62227  35.685  19.793   6.042
 4925POPC   C2B62228  35.579  19.734   6.482
 4925POPC   C3B62229  35.808  19.845   6.885
 4925POPC   C4B62230  35.633  19.901   7.317
 4926POPC   NC362231  28.231  11.309   5.359
 4926POPC   PO462232  27.663  11.701   5.507
 4926POPC   GL162233  28.036  11.613   5.715
 4926POPC   GL262234  27.992  11.807   5.979
 4926POPC   C1A62235  28.376  11.492   6.042
 4926POPC   D2A62236  28.286  11.672   6.470
 4926POPC   C3A62237  28.458  11.439   6.811
 4926POPC   C4A62238  28.628  11.234   7.121
 4926POPC   C1B62239  27.911  11.390   6.246
 4926POPC   C2B62240  27.998  11.265   6.685
 4926POPC   C3B62241  28.148  11.070   7.074
 4926POPC   C4B62242  27.894  11.060   7.469
 4927POPC   NC362243  21.783  19.559   5.450
 4927POPC   PO462244  22.309  20.003   5.464
 4927POPC   GL162245  22.152  19.904   5.858
 4927POPC   GL262246  22.111  19.529   5.841
 4927POPC   C1A62247  22.392  19.907   6.266
 4927POPC   D2A62248  22.410  19.665   6.650
 4927POPC   C3A62249  22.461  19.826   7.076
 4927POPC   C4A62250  22.259  19.810   7.520
 4927POPC   C1B62251  21.968  19.625   6.239
 4927POPC   C2B62252  21.890  19.886   6.547
 4927POPC   C3B62253  21.969  19.762   6.935
 4927POPC   C4B62254  21.803  19.729   7.314
 4928POPC   NC362255  10.168  38.138   5.506
 4928POPC   PO462256  10.418  38.657   5.044
 4928POPC   GL162257  10.572  38.445   5.567
 4928POPC   GL262258  10.332  38.539   5.852
 4928POPC   C1A62259  10.717  38.361   6.089
 4928POPC   D2A62260  10.662  38.550   6.567
 4928POPC   C3A62261  10.681  38.340   7.035
 4928POPC   C4A62262  10.744  38.263   7.523
 4928POPC   C1B62263  10.110  38.296   6.171
 4928POPC   C2B62264   9.880  38.212   6.555
 4928POPC   C3B62265  10.065  38.349   6.915
 4928POPC   C4B62266  10.335  38.720   6.979
 4929POPC   NC362267   1.423   8.712   5.507
 4929POPC   PO462268   0.877   9.039   5.407
 4929POPC   GL162269   1.108   8.991   5.795
 4929POPC   GL262270   1.396   9.194   5.868
 4929POPC   C1A62271   1.160   8.825   6.212
 4929POPC   D2A62272   0.945   8.845   6.597
 4929POPC   C3A62273   0.926   8.601   6.983
 4929POPC   C4A62274   0.849   8.947   7.264
 4929POPC   C1B62275   1.620   9.071   6.206
 4929POPC   C2B62276   1.544   8.815   6.581
 4929POPC   C3B62277   1.315   8.939   6.935
 4929POPC   C4B62278   1.393   8.975   7.326
 4930POPC   NC362279  43.874  44.185   5.194
 4930POPC   PO462280  44.419  43.909   5.305
 4930POPC   GL162281  44.047  43.997   5.638
 4930POPC   GL262282  43.818  43.733   5.710
 4930POPC   C1A62283  43.819  44.090   6.065
 4930POPC   D2A62284  43.996  44.037   6.492
 4930POPC   C3A62285  43.859  44.017   6.901
 4930POPC   C4A62286  44.022  43.873   7.307
 4930POPC   C1B62287  43.620  43.609   6.141
 4930POPC   C2B62288  43.666  43.646   6.611
 4930POPC   C3B62289  43.816  43.477   7.034
 4930POPC   C4B62290  43.602  43.440   7.438
 4931POPC   NC362291   3.723  30.454   5.391
 4931POPC   PO462292   3.474  31.053   5.358
 4931POPC   GL162293   3.424  30.798   5.735
 4931POPC   GL262294   3.290  30.452   5.723
 4931POPC   C1A62295   3.375  30.953   6.176
 4931POPC   D2A62296   3.594  30.824   6.560
 4931POPC   C3A62297   3.352  30.888   6.923
 4931POPC   C4A62298   3.311  30.961   7.355
 4931POPC   C1B62299   3.457  30.456   6.153
 4931POPC   C2B62300   3.608  30.272   6.526
 4931POPC   C3B62301   3.751  30.336   6.928
 4931POPC   C4B62302   3.498  30.491   7.256
 4932POPC   NC362303   3.952   8.249   5.479
 4932POPC   PO462304   4.700   8.056   5.440
 4932POPC   GL162305   4.347   8.000   5.741
 4932POPC   GL262306   4.259   8.361   5.857
 4932POPC   C1A62307   4.325   7.849   6.171
 4932POPC   D2A62308   4.500   8.132   6.462
 4932POPC   C3A62309   4.437   8.052   6.887
 4932POPC   C4A62310   4.518   8.266   7.261
 4932POPC   C1B62311   4.225   8.607   6.250
 4932POPC   C2B62312   4.189   8.483   6.702
 4932POPC   C3B62313   4.059   8.503   7.143
 4932POPC   C4B62314   3.873   8.557   7.527
 4933POPC   NC362315   9.952  33.550   5.508
 4933POPC   PO462316   9.472  34.024   5.467
 4933POPC   GL162317   9.689  33.880   5.849
 4933POPC   GL262318   9.623  33.508   5.908
 4933POPC   C1A62319   9.841  33.803   6.271
 4933POPC   D2A62320  10.036  33.693   6.655
 4933POPC   C3A62321   9.808  33.805   6.990
 4933POPC   C4A62322   9.700  33.883   7.393
 4933POPC   C1B62323   9.359  33.545   6.270
 4933POPC   C2B62324   9.421  33.658   6.676
 4933POPC   C3B62325   9.409  33.485   7.073
 4933POPC   C4B62326   9.372  33.527   7.557
 4934POPC   NC362327  11.351  33.602   5.473
 4934POPC   PO462328  11.161  33.012   5.364
 4934POPC   GL162329  11.316  33.045   5.773
 4934POPC   GL262330  11.587  33.251   5.754
 4934POPC   C1A62331  11.304  32.751   6.132
 4934POPC   D2A62332  11.373  32.584   6.534
 4934POPC   C3A62333  11.118  32.741   6.857
 4934POPC   C4A62334  11.308  32.920   7.201
 4934POPC   C1B62335  11.621  33.157   6.214
 4934POPC   C2B62336  11.488  33.087   6.680
 4934POPC   C3B62337  11.730  33.156   7.090
 4934POPC   C4B62338  11.703  33.044   7.556
 4935POPC   NC362339  23.797  44.593   5.383
 4935POPC   PO462340  23.338   0.066   5.609
 4935POPC   GL162341  23.539  44.699   5.847
 4935POPC   GL262342  23.634  44.327   5.799
 4935POPC   C1A62343  23.835  44.643   6.185
 4935POPC   D2A62344  23.798  44.503   6.615
 4935POPC   C3A62345  23.896  44.840   6.919
 4935POPC   C4A62346  24.139  44.875   7.272
 4935POPC   C1B62347  23.465  44.279   6.221
 4935POPC   C2B62348  23.287  44.386   6.635
 4935POPC   C3B62349  23.448  44.617   6.981
 4935POPC   C4B62350  23.427   0.058   7.089
 4936POPC   NC362351   6.834  19.064   5.427
 4936POPC   PO462352   6.187  18.973   5.565
 4936POPC   GL162353   6.471  19.229   5.816
 4936POPC   GL262354   6.694  18.996   5.899
 4936POPC   C1A62355   6.674  19.340   6.249
 4936POPC   D2A62356   6.677  19.070   6.614
 4936POPC   C3A62357   6.815  19.162   7.051
 4936POPC   C4A62358   6.611  19.334   7.399
 4936POPC   C1B62359   6.362  18.919   6.217
 4936POPC   C2B62360   6.344  18.676   6.610
 4936POPC   C3B62361   6.376  18.893   7.000
 4936POPC   C4B62362   6.576  18.810   7.380
 4937POPC   NC362363  19.662  16.944   5.310
 4937POPC   PO462364  20.183  16.560   5.349
 4937POPC   GL162365  20.137  16.762   5.747
 4937POPC   GL262366  20.102  16.414   5.886
 4937POPC   C1A62367  19.834  16.842   6.074
 4937POPC   D2A62368  19.565  16.698   6.431
 4937POPC   C3A62369  19.593  16.769   6.896
 4937POPC   C4A62370  19.788  17.014   7.251
 4937POPC   C1B62371  20.027  16.447   6.347
 4937POPC   C2B62372  20.017  16.501   6.782
 4937POPC   C3B62373  20.020  16.421   7.211
 4937POPC   C4B62374  20.199  16.263   7.586
 4938POPC   NC362375  28.401  30.243   5.510
 4938POPC   PO462376  28.303  29.590   5.363
 4938POPC   GL162377  28.399  29.785   5.768
 4938POPC   GL262378  28.060  29.904   5.795
 4938POPC   C1A62379  28.368  30.056   6.170
 4938POPC   D2A62380  28.433  30.300   6.566
 4938POPC   C3A62381  28.237  30.032   6.872
 4938POPC   C4A62382  28.387  29.759   7.195
 4938POPC   C1B62383  28.022  29.619   6.162
 4938POPC   C2B62384  28.123  29.566   6.608
 4938POPC   C3B62385  27.884  29.608   6.964
 4938POPC   C4B62386  27.909  29.699   7.371
 4939POPC   NC362387   4.877   0.105   5.579
 4939POPC   PO462388   4.946   0.723   5.293
 4939POPC   GL162389   5.099   0.584   5.720
 4939POPC   GL262390   5.207   0.270   5.910
 4939POPC   C1A62391   5.048   0.711   6.174
 4939POPC   D2A62392   5.143   0.898   6.612
 4939POPC   C3A62393   4.966   0.715   7.008
 4939POPC   C4A62394   5.010   0.626   7.465
 4939POPC   C1B62395   5.424  44.978   6.208
 4939POPC   C2B62396   5.455  44.987   6.669
 4939POPC   C3B62397   5.242   0.143   7.047
 4939POPC   C4B62398   5.203   0.160   7.475
 4940POPC   NC362399  33.920  13.410   5.594
 4940POPC   PO462400  33.664  12.918   5.225
 4940POPC   GL162401  33.552  12.812   5.724
 4940POPC   GL262402  33.764  13.044   5.955
 4940POPC   C1A62403  33.703  12.538   6.112
 4940POPC   D2A62404  33.906  12.424   6.538
 4940POPC   C3A62405  33.756  12.562   6.919
 4940POPC   C4A62406  33.893  12.602   7.323
 4940POPC   C1B62407  33.504  12.999   6.327
 4940POPC   C2B62408  33.460  12.954   6.775
 4940POPC   C3B62409  33.752  13.042   7.116
 4940POPC   C4B62410  33.627  12.962   7.564
 4941POPC   NC362411  28.444  40.805   5.093
 4941POPC   PO462412  28.850  41.004   5.542
 4941POPC   GL162413  28.558  40.955   5.861
 4941POPC   GL262414  28.313  40.711   5.829
 4941POPC   C1A62415  28.396  40.834   6.299
 4941POPC   D2A62416  28.150  40.951   6.642
 4941POPC   C3A62417  28.368  41.015   7.019
 4941POPC   C4A62418  28.466  40.724   7.341
 4941POPC   C1B62419  28.106  40.394   6.062
 4941POPC   C2B62420  28.055  40.397   6.503
 4941POPC   C3B62421  28.245  40.508   6.887
 4941POPC   C4B62422  28.078  40.395   7.264
 4942POPC   NC362423  15.944  27.962   5.716
 4942POPC   PO462424  16.286  28.495   5.376
 4942POPC   GL162425  16.043  28.501   5.758
 4942POPC   GL262426  15.706  28.532   5.647
 4942POPC   C1A62427  15.910  28.349   6.202
 4942POPC   D2A62428  15.868  28.076   6.544
 4942POPC   C3A62429  15.932  28.256   6.959
 4942POPC   C4A62430  15.707  28.278   7.338
 4942POPC   C1B62431  15.696  28.781   6.055
 4942POPC   C2B62432  15.902  28.773   6.479
 4942POPC   C3B62433  15.925  28.871   6.914
 4942POPC   C4B62434  15.990  28.721   7.342
 4943POPC   NC362435  15.816  11.313   5.286
 4943POPC   PO462436  16.379  10.926   5.194
 4943POPC   GL162437  16.205  11.096   5.608
 4943POPC   GL262438  16.175  11.472   5.669
 4943POPC   C1A62439  15.979  11.137   6.039
 4943POPC   D2A62440  15.820  10.983   6.460
 4943POPC   C3A62441  15.910  11.179   6.868
 4943POPC   C4A62442  15.644  11.141   7.212
 4943POPC   C1B62443  16.137  11.648   6.108
 4943POPC   C2B62444  15.918  11.663   6.528
 4943POPC   C3B62445  16.077  11.691   6.910
 4943POPC   C4B62446  16.109  11.503   7.237
 4944POPC   NC362447  28.719  16.536   5.498
 4944POPC   PO462448  28.170  16.925   5.397
 4944POPC   GL162449  28.365  16.800   5.784
 4944POPC   GL262450  28.356  16.442   5.852
 4944POPC   C1A62451  28.377  16.782   6.230
 4944POPC   D2A62452  28.740  16.845   6.473
 4944POPC   C3A62453  28.650  16.874   6.885
 4944POPC   C4A62454  28.516  16.921   7.297
 4944POPC   C1B62455  28.682  16.371   6.200
 4944POPC   C2B62456  28.667  16.313   6.658
 4944POPC   C3B62457  28.602  16.406   7.091
 4944POPC   C4B62458  28.839  16.530   7.414
 4945POPC   NC362459   8.293  26.306   5.551
 4945POPC   PO462460   7.707  26.009   5.300
 4945POPC   GL162461   7.898  25.918   5.763
 4945POPC   GL262462   8.201  25.689   5.885
 4945POPC   C1A62463   7.976  26.069   6.203
 4945POPC   D2A62464   8.058  26.312   6.584
 4945POPC   C3A62465   8.298  26.152   6.933
 4945POPC   C4A62466   8.066  26.208   7.294
 4945POPC   C1B62467   8.334  25.703   6.335
 4945POPC   C2B62468   8.314  25.646   6.799
 4945POPC   C3B62469   8.134  25.695   7.204
 4945POPC   C4B62470   8.370  25.824   7.544
 4946POPC   NC362471  12.664  16.723   5.192
 4946POPC   PO462472  13.332  16.579   5.263
 4946POPC   GL162473  13.091  16.706   5.728
 4946POPC   GL262474  12.736  16.729   5.720
 4946POPC   C1A62475  12.999  16.920   6.138
 4946POPC   D2A62476  12.954  16.969   6.602
 4946POPC   C3A62477  12.890  16.590   6.871
 4946POPC   C4A62478  13.095  16.472   7.251
 4946POPC   C1B62479  12.521  16.522   6.071
 4946POPC   C2B62480  12.333  16.501   6.491
 4946POPC   C3B62481  12.419  16.356   6.912
 4946POPC   C4B62482  12.532  16.555   7.285
 4947POPC   NC362483   6.310  14.881   5.477
 4947POPC   PO462484   5.672  14.626   5.614
 4947POPC   GL162485   5.947  14.426   5.882
 4947POPC   GL262486   6.132  14.203   5.651
 4947POPC   C1A62487   5.856  14.301   6.329
 4947POPC   D2A62488   5.806  14.562   6.701
 4947POPC   C3A62489   5.585  14.439   7.069
 4947POPC   C4A62490   5.722  14.512   7.516
 4947POPC   C1B62491   6.250  14.053   6.080
 4947POPC   C2B62492   6.216  13.920   6.524
 4947POPC   C3B62493   5.935  14.025   6.869
 4947POPC   C4B62494   6.074  14.328   7.184
 4948POPC   NC362495   2.239  30.481   5.400
 4948POPC   PO462496   1.740  30.922   5.468
 4948POPC   GL162497   2.000  30.756   5.768
 4948POPC   GL262498   1.716  30.528   5.863
 4948POPC   C1A62499   2.266  30.647   6.139
 4948POPC   D2A62500   2.544  30.659   6.524
 4948POPC   C3A62501   2.348  30.558   6.932
 4948POPC   C4A62502   2.030  30.687   7.243
 4948POPC   C1B62503   1.756  30.843   6.191
 4948POPC   C2B62504   1.946  30.898   6.592
 4948POPC   C3B62505   1.786  31.048   6.992
 4948POPC   C4B62506   1.766  31.154   7.446
 4949POPC   NC362507  42.416   8.418   5.272
 4949POPC   PO462508  41.933   8.745   5.526
 4949POPC   GL162509  42.138   8.417   5.848
 4949POPC   GL262510  42.312   8.085   5.883
 4949POPC   C1A62511  42.234   8.287   6.321
 4949POPC   D2A62512  42.072   8.239   6.738
 4949POPC   C3A62513  42.411   8.286   7.018
 4949POPC   C4A62514  42.579   8.296   7.398
 4949POPC   C1B62515  42.029   7.830   6.168
 4949POPC   C2B62516  42.104   7.624   6.599
 4949POPC   C3B62517  42.093   7.805   7.012
 4949POPC   C4B62518  42.141   8.048   7.384
 4950POPC   NC362519  37.460  33.884   4.947
 4950POPC   PO462520  37.913  33.722   5.430
 4950POPC   GL162521  37.723  33.759   5.857
 4950POPC   GL262522  37.683  34.091   6.025
 4950POPC   C1A62523  37.877  33.607   6.258
 4950POPC   D2A62524  38.171  33.767   6.562
 4950POPC   C3A62525  38.006  33.917   6.947
 4950POPC   C4A62526  37.636  33.818   7.172
 4950POPC   C1B62527  37.735  34.062   6.456
 4950POPC   C2B62528  37.432  33.914   6.719
 4950POPC   C3B62529  37.198  34.097   7.044
 4950POPC   C4B62530  37.290  34.518   7.214
 4951POPC   NC362531  20.406   3.741   5.567
 4951POPC   PO462532  19.835   3.576   5.349
 4951POPC   GL162533  19.788   3.484   5.777
 4951POPC   GL262534  20.123   3.325   5.779
 4951POPC   C1A62535  19.625   3.316   6.182
 4951POPC   D2A62536  19.791   3.333   6.599
 4951POPC   C3A62537  19.651   3.603   6.903
 4951POPC   C4A62538  19.693   3.623   7.333
 4951POPC   C1B62539  20.092   3.563   6.181
 4951POPC   C2B62540  20.204   3.723   6.567
 4951POPC   C3B62541  20.150   3.654   6.964
 4951POPC   C4B62542  20.196   3.842   7.323
 4952POPC   NC362543  32.658  17.911   5.467
 4952POPC   PO462544  33.115  18.360   5.464
 4952POPC   GL162545  33.102  18.100   5.793
 4952POPC   GL262546  32.831  18.212   5.882
 4952POPC   C1A62547  33.259  18.233   6.176
 4952POPC   D2A62548  33.404  18.024   6.509
 4952POPC   C3A62549  33.184  18.185   6.855
 4952POPC   C4A62550  33.187  18.179   7.302
 4952POPC   C1B62551  32.680  18.134   6.271
 4952POPC   C2B62552  32.713  18.299   6.653
 4952POPC   C3B62553  32.685  18.148   7.058
 4952POPC   C4B62554  32.658  18.302   7.481
 4953POPC   NC362555  44.202  29.439   5.520
 4953POPC   PO462556  44.540  28.975   5.196
 4953POPC   GL162557  44.639  28.980   5.650
 4953POPC   GL262558  44.779  29.275   5.785
 4953POPC   C1A62559  44.508  28.980   6.103
 4953POPC   D2A62560  44.660  29.214   6.467
 4953POPC   C3A62561  44.635  29.149   6.890
 4953POPC   C4A62562  44.546  29.525   7.139
 4953POPC   C1B62563   0.029  29.087   6.145
 4953POPC   C2B62564   0.103  28.965   6.613
 4953POPC   C3B62565   0.088  28.915   7.078
 4953POPC   C4B62566  44.837  29.186   7.367
 4954POPC   NC362567  32.610  22.867   5.156
 4954POPC   PO462568  33.119  23.326   5.312
 4954POPC   GL162569  33.043  23.081   5.716
 4954POPC   GL262570  33.177  22.758   5.819
 4954POPC   C1A62571  33.010  23.136   6.153
 4954POPC   D2A62572  32.763  23.249   6.480
 4954POPC   C3A62573  32.962  23.029   6.797
 4954POPC   C4A62574  32.957  23.120   7.214
 4954POPC   C1B62575  33.342  22.503   6.177
 4954POPC   C2B62576  33.125  22.422   6.548
 4954POPC   C3B62577  33.155  22.541   6.941
 4954POPC   C4B62578  33.169  22.653   7.336
 4955POPC   NC362579   9.468  18.971   5.513
 4955POPC   PO462580  10.233  18.893   5.571
 4955POPC   GL162581   9.875  18.948   5.829
 4955POPC   GL262582   9.831  19.267   5.708
 4955POPC   C1A62583   9.594  18.940   6.220
 4955POPC   D2A62584   9.431  19.081   6.644
 4955POPC   C3A62585   9.624  19.010   7.064
 4955POPC   C4A62586   9.434  18.806   7.428
 4955POPC   C1B62587   9.864  19.380   6.147
 4955POPC   C2B62588   9.822  19.489   6.576
 4955POPC   C3B62589   9.881  19.698   6.949
 4955POPC   C4B62590  10.101  19.624   7.318
 4956POPC   NC362591  40.259  24.359   5.667
 4956POPC   PO462592  39.856  24.662   5.228
 4956POPC   GL162593  39.801  24.602   5.693
 4956POPC   GL262594  39.619  24.829   5.818
 4956POPC   C1A62595  39.848  24.454   6.153
 4956POPC   D2A62596  40.161  24.250   6.428
 4956POPC   C3A62597  40.026  24.200   6.843
 4956POPC   C4A62598  40.077  24.485   7.145
 4956POPC   C1B62599  39.544  24.858   6.224
 4956POPC   C2B62600  39.704  24.685   6.622
 4956POPC   C3B62601  39.843  24.941   6.961
 4956POPC   C4B62602  39.791  24.953   7.403
 4957POPC   NC362603  18.619  19.883   5.639
 4957POPC   PO462604  18.029  20.104   5.342
 4957POPC   GL162605  18.147  19.991   5.764
 4957POPC   GL262606  18.088  19.649   5.767
 4957POPC   C1A62607  18.261  20.182   6.170
 4957POPC   D2A62608  18.454  20.223   6.589
 4957POPC   C3A62609  18.326  19.968   6.915
 4957POPC   C4A62610  18.513  19.896   7.298
 4957POPC   C1B62611  18.256  19.639   6.165
 4957POPC   C2B62612  18.519  19.680   6.528
 4957POPC   C3B62613  18.508  19.478   6.947
 4957POPC   C4B62614  18.147  19.556   7.177
 4958POPC   NC362615  41.437  16.895   5.255
 4958POPC   PO462616  41.335  16.239   5.357
 4958POPC   GL162617  41.404  16.656   5.693
 4958POPC   GL262618  41.629  17.029   5.706
 4958POPC   C1A62619  41.315  16.921   6.094
 4958POPC   D2A62620  41.307  16.757   6.532
 4958POPC   C3A62621  41.292  16.965   6.903
 4958POPC   C4A62622  41.430  16.666   7.205
 4958POPC   C1B62623  41.817  17.170   6.107
 4958POPC   C2B62624  41.666  17.138   6.534
 4958POPC   C3B62625  41.802  16.871   6.869
 4958POPC   C4B62626  41.949  16.888   7.273
 4959POPC   NC362627  15.479  12.021   5.428
 4959POPC   PO462628  14.854  11.787   5.341
 4959POPC   GL162629  15.093  11.994   5.765
 4959POPC   GL262630  15.398  12.243   5.885
 4959POPC   C1A62631  15.271  11.794   6.140
 4959POPC   D2A62632  15.235  11.715   6.593
 4959POPC   C3A62633  15.258  12.025   6.936
 4959POPC   C4A62634  15.376  12.075   7.363
 4959POPC   C1B62635  15.086  12.270   6.197
 4959POPC   C2B62636  14.917  12.129   6.566
 4959POPC   C3B62637  14.837  12.328   6.942
 4959POPC   C4B62638  14.931  12.412   7.354
 4960POPC   NC362639   7.360   6.009   5.419
 4960POPC   PO462640   8.000   5.657   5.413
 4960POPC   GL162641   7.722   5.886   5.733
 4960POPC   GL262642   7.488   5.600   5.731
 4960POPC   C1A62643   7.594   6.160   6.126
 4960POPC   D2A62644   7.467   5.980   6.563
 4960POPC   C3A62645   7.492   6.159   7.006
 4960POPC   C4A62646   7.612   6.097   7.442
 4960POPC   C1B62647   7.347   5.720   6.137
 4960POPC   C2B62648   7.331   5.480   6.549
 4960POPC   C3B62649   7.498   5.600   6.942
 4960POPC   C4B62650   7.302   5.738   7.303
 4961POPC   NC362651  36.262  30.135   5.407
 4961POPC   PO462652  35.703  29.713   5.401
 4961POPC   GL162653  35.896  29.945   5.779
 4961POPC   GL262654  36.264  29.972   5.870
 4961POPC   C1A62655  35.930  29.886   6.221
 4961POPC   D2A62656  35.829  30.027   6.616
 4961POPC   C3A62657  36.019  29.824   6.947
 4961POPC   C4A62658  36.070  29.977   7.355
 4961POPC   C1B62659  36.391  30.127   6.263
 4961POPC   C2B62660  36.431  30.016   6.701
 4961POPC   C3B62661  36.381  30.271   7.070
 4961POPC   C4B62662  36.435  30.310   7.512
 4962POPC   NC362663   5.746  39.892   5.594
 4962POPC   PO462664   6.294  39.748   5.266
 4962POPC   GL162665   6.235  39.837   5.759
 4962POPC   GL262666   6.124  40.181   5.914
 4962POPC   C1A62667   6.029  39.787   6.207
 4962POPC   D2A62668   6.109  40.087   6.531
 4962POPC   C3A62669   6.104  39.883   6.909
 4962POPC   C4A62670   6.074  39.711   7.304
 4962POPC   C1B62671   5.716  40.221   6.141
 4962POPC   C2B62672   5.603  40.136   6.524
 4962POPC   C3B62673   5.770  40.288   6.890
 4962POPC   C4B62674   5.522  40.256   7.216
 4963POPC   NC362675  35.471   3.983   5.517
 4963POPC   PO462676  34.922   4.420   5.365
 4963POPC   GL162677  35.220   4.353   5.764
 4963POPC   GL262678  35.554   4.479   5.761
 4963POPC   C1A62679  35.364   4.141   6.158
 4963POPC   D2A62680  35.420   3.976   6.586
 4963POPC   C3A62681  35.230   4.173   6.929
 4963POPC   C4A62682  35.421   4.003   7.268
 4963POPC   C1B62683  35.627   4.627   6.210
 4963POPC   C2B62684  35.536   4.794   6.679
 4963POPC   C3B62685  35.461   4.653   7.159
 4963POPC   C4B62686  35.424   4.606   7.642
 4964POPC   NC362687   6.710   9.534   5.210
 4964POPC   PO462688   6.355  10.048   5.528
 4964POPC   GL162689   6.499   9.800   5.848
 4964POPC   GL262690   6.797   9.587   5.785
 4964POPC   C1A62691   6.365   9.640   6.251
 4964POPC   D2A62692   6.167   9.527   6.651
 4964POPC   C3A62693   6.469   9.618   6.967
 4964POPC   C4A62694   6.528   9.662   7.400
 4964POPC   C1B62695   6.868   9.822   6.204
 4964POPC   C2B62696   6.910   9.790   6.678
 4964POPC   C3B62697   6.971   9.780   7.109
 4964POPC   C4B62698   7.102  10.142   7.392
 4965POPC   NC362699  32.473  34.592   5.443
 4965POPC   PO462700  31.862  34.803   5.568
 4965POPC   GL162701  32.176  34.544   5.875
 4965POPC   GL262702  32.516  34.329   5.864
 4965POPC   C1A62703  32.407  34.701   6.254
 4965POPC   D2A62704  32.214  34.907   6.649
 4965POPC   C3A62705  32.096  34.736   7.056
 4965POPC   C4A62706  31.989  34.821   7.537
 4965POPC   C1B62707  32.447  34.190   6.273
 4965POPC   C2B62708  32.413  34.385   6.657
 4965POPC   C3B62709  32.527  34.424   7.051
 4965POPC   C4B62710  32.266  34.405   7.405
 4966POPC   NC362711  39.513  10.772   5.137
 4966POPC   PO462712  39.195  10.350   5.508
 4966POPC   GL162713  39.233  10.446   5.920
 4966POPC   GL262714  39.338  10.752   5.793
 4966POPC   C1A62715  38.912  10.611   6.225
 4966POPC   D2A62716  38.724  10.566   6.629
 4966POPC   C3A62717  39.112  10.513   6.836
 4966POPC   C4A62718  39.253  10.342   7.185
 4966POPC   C1B62719  39.388  10.829   6.233
 4966POPC   C2B62720  39.533  10.706   6.644
 4966POPC   C3B62721  39.511  10.762   7.104
 4966POPC   C4B62722  39.553  10.785   7.556
 4967POPC   NC362723  41.959   5.267   5.425
 4967POPC   PO462724  41.315   5.124   5.224
 4967POPC   GL162725  41.407   4.974   5.711
 4967POPC   GL262726  41.728   5.063   5.853
 4967POPC   C1A62727  41.370   4.893   6.188
 4967POPC   D2A62728  41.572   5.178   6.499
 4967POPC   C3A62729  41.584   5.097   6.944
 4967POPC   C4A62730  41.448   5.363   7.256
 4967POPC   C1B62731  41.964   4.985   6.232
 4967POPC   C2B62732  41.996   4.902   6.678
 4967POPC   C3B62733  42.097   5.058   7.075
 4967POPC   C4B62734  41.854   4.782   7.308
 4968POPC   NC362735  43.673  33.406   5.308
 4968POPC   PO462736  43.158  33.017   5.394
 4968POPC   GL162737  43.116  33.000   5.841
 4968POPC   GL262738  43.457  33.064   5.927
 4968POPC   C1A62739  42.912  32.964   6.262
 4968POPC   D2A62740  42.874  33.110   6.702
 4968POPC   C3A62741  43.073  32.933   7.083
 4968POPC   C4A62742  42.904  32.827   7.512
 4968POPC   C1B62743  43.365  32.675   6.152
 4968POPC   C2B62744  43.216  32.681   6.570
 4968POPC   C3B62745  43.330  32.501   6.931
 4968POPC   C4B62746  43.379  32.606   7.318
 4969POPC   NC362747  28.046   4.646   5.544
 4969POPC   PO462748  27.823   5.290   5.393
 4969POPC   GL162749  27.735   5.012   5.721
 4969POPC   GL262750  28.042   5.039   5.883
 4969POPC   C1A62751  27.644   4.796   6.131
 4969POPC   D2A62752  27.585   5.034   6.504
 4969POPC   C3A62753  27.655   4.954   6.908
 4969POPC   C4A62754  27.302   5.180   7.101
 4969POPC   C1B62755  27.842   5.308   6.158
 4969POPC   C2B62756  27.880   5.495   6.573
 4969POPC   C3B62757  27.742   5.470   6.986
 4969POPC   C4B62758  27.851   5.208   7.302
 4970POPC   NC362759   6.182  36.040   5.463
 4970POPC   PO462760   5.674  36.408   5.197
 4970POPC   GL162761   5.752  36.292   5.619
 4970POPC   GL262762   5.555  35.980   5.632
 4970POPC   C1A62763   5.915  36.081   6.040
 4970POPC   D2A62764   6.053  35.854   6.399
 4970POPC   C3A62765   5.916  35.972   6.801
 4970POPC   C4A62766   6.067  35.946   7.200
 4970POPC   C1B62767   5.423  36.216   6.010
 4970POPC   C2B62768   5.546  36.126   6.450
 4970POPC   C3B62769   5.501  36.260   6.883
 4970POPC   C4B62770   5.536  35.982   7.256
 4971POPC   NC362771  21.829  22.773   5.253
 4971POPC   PO462772  22.263  23.154   5.382
 4971POPC   GL162773  22.358  22.919   5.820
 4971POPC   GL262774  22.040  22.753   5.936
 4971POPC   C1A62775  22.391  22.766   6.306
 4971POPC   D2A62776  22.052  22.745   6.666
 4971POPC   C3A62777  22.242  22.746   7.084
 4971POPC   C4A62778  22.482  23.141   7.129
 4971POPC   C1B62779  22.004  23.087   6.244
 4971POPC   C2B62780  22.172  23.257   6.645
 4971POPC   C3B62781  21.987  23.169   7.037
 4971POPC   C4B62782  21.715  22.824   7.105
 4972POPC   NC362783   3.018  43.173   5.662
 4972POPC   PO462784   3.589  42.820   5.631
 4972POPC   GL162785   3.487  43.182   5.872
 4972POPC   GL262786   3.839  43.239   5.880
 4972POPC   C1A62787   3.240  43.159   6.289
 4972POPC   D2A62788   2.988  42.931   6.608
 4972POPC   C3A62789   3.164  42.886   7.029
 4972POPC   C4A62790   3.425  43.194   7.249
 4972POPC   C1B62791   3.738  43.029   6.298
 4972POPC   C2B62792   3.606  43.199   6.714
 4972POPC   C3B62793   3.887  43.304   7.084
 4972POPC   C4B62794   3.924  43.288   7.547
 4973POPC   NC362795  23.550  20.011   5.340
 4973POPC   PO462796  24.168  19.737   5.396
 4973POPC   GL162797  23.828  19.763   5.725
 4973POPC   GL262798  23.861  20.098   5.778
 4973POPC   C1A62799  23.560  19.835   6.103
 4973POPC   D2A62800  23.455  19.618   6.488
 4973POPC   C3A62801  23.501  19.829   6.877
 4973POPC   C4A62802  23.661  19.792   7.280
 4973POPC   C1B62803  23.795  20.279   6.191
 4973POPC   C2B62804  23.836  20.122   6.566
 4973POPC   C3B62805  23.824  20.221   6.956
 4973POPC   C4B62806  23.642  20.293   7.298
 4974POPC   NC362807  14.336  40.105   5.309
 4974POPC   PO462808  14.930  39.844   5.414
 4974POPC   GL162809  14.682  40.032   5.801
 4974POPC   GL262810  14.284  40.079   5.804
 4974POPC   C1A62811  14.506  39.877   6.230
 4974POPC   D2A62812  14.260  39.896   6.630
 4974POPC   C3A62813  14.524  39.859   7.006
 4974POPC   C4A62814  14.494  39.870   7.471
 4974POPC   C1B62815  14.038  40.111   6.160
 4974POPC   C2B62816  14.102  40.380   6.496
 4974POPC   C3B62817  14.148  40.333   6.913
 4974POPC   C4B62818  14.069  40.057   7.246
 4975POPC   NC362819   9.355  11.666   5.474
 4975POPC   PO462820   9.727  11.256   5.183
 4975POPC   GL162821   9.827  11.347   5.639
 4975POPC   GL262822   9.603  11.165   5.849
 4975POPC   C1A62823  10.002  11.368   6.090
 4975POPC   D2A62824   9.837  11.155   6.478
 4975POPC   C3A62825   9.841  11.375   6.872
 4975POPC   C4A62826  10.075  11.509   7.240
 4975POPC   C1B62827   9.490  11.414   6.219
 4975POPC   C2B62828   9.359  11.305   6.665
 4975POPC   C3B62829   9.379  11.393   7.111
 4975POPC   C4B62830   9.336  11.695   7.452
 4976POPC   NC362831  19.532   7.665   5.369
 4976POPC   PO462832  20.284   7.533   5.483
 4976POPC   GL162833  19.953   7.647   5.753
 4976POPC   GL262834  19.696   7.418   5.783
 4976POPC   C1A62835  19.977   7.620   6.199
 4976POPC   D2A62836  19.950   7.412   6.585
 4976POPC   C3A62837  19.986   7.685   6.916
 4976POPC   C4A62838  19.814   7.729   7.330
 4976POPC   C1B62839  19.495   7.410   6.187
 4976POPC   C2B62840  19.468   7.259   6.611
 4976POPC   C3B62841  19.489   7.482   6.994
 4976POPC   C4B62842  19.484   7.354   7.447
 4977POPC   NC362843  19.667  32.640   5.430
 4977POPC   PO462844  20.063  32.087   5.362
 4977POPC   GL162845  19.930  32.041   5.759
 4977POPC   GL262846  19.918  32.387   5.787
 4977POPC   C1A62847  19.906  32.111   6.215
 4977POPC   D2A62848  20.006  32.268   6.612
 4977POPC   C3A62849  19.723  32.072   6.880
 4977POPC   C4A62850  19.766  31.972   7.288
 4977POPC   C1B62851  19.744  32.612   6.122
 4977POPC   C2B62852  19.567  32.533   6.529
 4977POPC   C3B62853  19.747  32.596   6.932
 4977POPC   C4B62854  20.048  32.415   7.187
 4978POPC   NC362855   5.070   7.782   5.480
 4978POPC   PO462856   4.697   7.214   5.505
 4978POPC   GL162857   4.997   7.341   5.821
 4978POPC   GL262858   5.303   7.146   5.793
 4978POPC   C1A62859   4.975   7.596   6.210
 4978POPC   D2A62860   4.670   7.654   6.565
 4978POPC   C3A62861   4.880   7.643   6.972
 4978POPC   C4A62862   5.245   7.514   7.218
 4978POPC   C1B62863   5.186   7.024   6.221
 4978POPC   C2B62864   5.005   6.871   6.611
 4978POPC   C3B62865   5.150   7.006   7.043
 4978POPC   C4B62866   4.974   7.145   7.468
 4979POPC   NC362867  35.859   5.414   5.601
 4979POPC   PO462868  36.377   5.858   5.405
 4979POPC   GL162869  36.153   5.824   5.795
 4979POPC   GL262870  36.316   5.517   5.834
 4979POPC   C1A62871  36.171   5.952   6.244
 4979POPC   D2A62872  36.467   5.932   6.617
 4979POPC   C3A62873  36.285   5.925   7.040
 4979POPC   C4A62874  35.970   5.799   7.319
 4979POPC   C1B62875  36.164   5.443   6.257
 4979POPC   C2B62876  36.111   5.574   6.706
 4979POPC   C3B62877  36.173   5.383   7.103
 4979POPC   C4B62878  36.097   5.385   7.571
 4980POPC   NC362879   9.777  31.897   5.530
 4980POPC   PO462880   9.419  32.483   5.370
 4980POPC   GL162881   9.495  32.255   5.781
 4980POPC   GL262882   9.855  32.229   5.910
 4980POPC   C1A62883   9.439  32.244   6.246
 4980POPC   D2A62884   9.800  32.263   6.521
 4980POPC   C3A62885   9.740  32.330   6.945
 4980POPC   C4A62886   9.935  32.272   7.351
 4980POPC   C1B62887   9.734  31.848   6.163
 4980POPC   C2B62888   9.800  31.721   6.576
 4980POPC   C3B62889   9.841  31.835   7.023
 4980POPC   C4B62890   9.658  31.628   7.354
 4981POPC   NC362891  33.663   8.415   5.376
 4981POPC   PO462892  34.225   8.123   5.215
 4981POPC   GL162893  34.060   8.191   5.629
 4981POPC   GL262894  34.244   8.503   5.680
 4981POPC   C1A62895  33.859   7.978   6.001
 4981POPC   D2A62896  33.748   8.012   6.441
 4981POPC   C3A62897  33.749   7.904   6.842
 4981POPC   C4A62898  33.672   8.155   7.221
 4981POPC   C1B62899  34.228   8.338   6.105
 4981POPC   C2B62900  34.226   8.199   6.527
 4981POPC   C3B62901  34.030   8.351   6.886
 4981POPC   C4B62902  34.106   8.442   7.306
 4982POPC   NC362903  38.540  16.912   5.333
 4982POPC   PO462904  38.360  16.277   5.446
 4982POPC   GL162905  38.359  16.679   5.778
 4982POPC   GL262906  38.362  17.081   5.782
 4982POPC   C1A62907  38.623  16.855   6.167
 4982POPC   D2A62908  38.745  16.858   6.624
 4982POPC   C3A62909  38.518  16.750   7.006
 4982POPC   C4A62910  38.605  16.463   7.355
 4982POPC   C1B62911  38.160  17.044   6.202
 4982POPC   C2B62912  38.197  17.109   6.646
 4982POPC   C3B62913  38.103  17.044   7.098
 4982POPC   C4B62914  38.366  16.897   7.494
 4983POPC   NC362915  43.538  36.662   5.152
 4983POPC   PO462916  42.977  36.427   5.419
 4983POPC   GL162917  43.273  36.691   5.720
 4983POPC   GL262918  43.362  37.048   5.552
 4983POPC   C1A62919  43.236  36.612   6.216
 4983POPC   D2A62920  43.359  36.651   6.674
 4983POPC   C3A62921  43.056  36.954   6.850
 4983POPC   C4A62922  42.921  36.963   7.264
 4983POPC   C1B62923  43.437  37.154   5.980
 4983POPC   C2B62924  43.372  37.079   6.407
 4983POPC   C3B62925  43.507  37.202   6.816
 4983POPC   C4B62926  43.409  37.066   7.224
 4984POPC   NC362927   6.623  12.638   5.236
 4984POPC   PO462928   6.747  13.231   5.460
 4984POPC   GL162929   6.776  12.879   5.763
 4984POPC   GL262930   6.454  12.668   5.723
 4984POPC   C1A62931   6.900  12.826   6.208
 4984POPC   D2A62932   6.631  12.938   6.585
 4984POPC   C3A62933   6.662  12.957   7.032
 4984POPC   C4A62934   6.862  12.935   7.396
 4984POPC   C1B62935   6.379  12.753   6.157
 4984POPC   C2B62936   6.215  12.633   6.578
 4984POPC   C3B62937   6.450  12.493   6.953
 4984POPC   C4B62938   6.457  12.634   7.400
 4985POPC   NC362939   8.828   6.270   5.381
 4985POPC   PO462940   8.994   5.568   5.351
 4985POPC   GL162941   8.988   5.738   5.785
 4985POPC   GL262942   9.059   6.108   5.790
 4985POPC   C1A62943   8.945   5.895   6.231
 4985POPC   D2A62944   8.823   5.839   6.628
 4985POPC   C3A62945   8.853   6.005   7.041
 4985POPC   C4A62946   9.001   5.804   7.395
 4985POPC   C1B62947   9.277   6.284   6.107
 4985POPC   C2B62948   9.117   6.350   6.504
 4985POPC   C3B62949   9.267   6.237   6.868
 4985POPC   C4B62950   9.383   6.114   7.264
 4986POPC   NC362951  26.973  20.851   4.947
 4986POPC   PO462952  26.719  20.565   5.502
 4986POPC   GL162953  26.809  20.469   5.886
 4986POPC   GL262954  26.485  20.329   5.922
 4986POPC   C1A62955  26.774  20.590   6.293
 4986POPC   D2A62956  26.773  20.962   6.542
 4986POPC   C3A62957  26.859  20.870   6.951
 4986POPC   C4A62958  27.116  20.749   7.263
 4986POPC   C1B62959  26.477  20.062   6.290
 4986POPC   C2B62960  26.436  20.038   6.740
 4986POPC   C3B62961  26.426  20.158   7.162
 4986POPC   C4B62962  26.674  20.523   7.291
 4987POPC   NC362963  14.745   2.557   5.609
 4987POPC   PO462964  14.170   2.904   5.494
 4987POPC   GL162965  14.391   2.830   5.876
 4987POPC   GL262966  14.731   2.999   5.868
 4987POPC   C1A62967  14.245   2.790   6.310
 4987POPC   D2A62968  14.082   2.668   6.723
 4987POPC   C3A62969  14.299   2.754   7.108
 4987POPC   C4A62970  14.366   2.586   7.524
 4987POPC   C1B62971  14.743   2.714   6.235
 4987POPC   C2B62972  14.611   2.579   6.638
 4987POPC   C3B62973  14.814   2.652   7.021
 4987POPC   C4B62974  14.824   2.956   7.339
 4988POPC   NC362975  38.764  34.755   5.372
 4988POPC   PO462976  38.134  34.401   5.564
 4988POPC   GL162977  38.315  34.595   5.904
 4988POPC   GL262978  38.669  34.637   5.853
 4988POPC   C1A62979  38.417  34.610   6.336
 4988POPC   D2A62980  38.186  34.296   6.582
 4988POPC   C3A62981  38.197  34.405   6.987
 4988POPC   C4A62982  38.416  34.299   7.343
 4988POPC   C1B62983  38.920  34.529   6.180
 4988POPC   C2B62984  38.925  34.695   6.592
 4988POPC   C3B62985  38.754  34.498   6.959
 4988POPC   C4B62986  38.876  34.148   7.199
 4989POPC   NC362987  26.647  15.305   5.326
 4989POPC   PO462988  27.274  14.959   5.287
 4989POPC   GL162989  27.032  15.137   5.660
 4989POPC   GL262990  26.914  15.506   5.716
 4989POPC   C1A62991  26.990  15.126   6.123
 4989POPC   D2A62992  26.728  14.928   6.463
 4989POPC   C3A62993  26.867  14.914   6.886
 4989POPC   C4A62994  27.185  14.739   7.161
 4989POPC   C1B62995  26.832  15.606   6.140
 4989POPC   C2B62996  26.921  15.433   6.539
 4989POPC   C3B62997  26.723  15.393   6.917
 4989POPC   C4B62998  26.987  15.268   7.228
 4990POPC   NC362999   1.508  43.711   5.132
 4990POPC   PO463000   2.150  43.843   5.328
 4990POPC   GL163001   1.990  43.701   5.685
 4990POPC   GL263002   2.300  43.761   5.853
 4990POPC   C1A63003   1.842  43.804   6.084
 4990POPC   D2A63004   1.937  44.058   6.427
 4990POPC   C3A63005   1.921  43.763   6.751
 4990POPC   C4A63006   1.862  43.802   7.162
 4990POPC   C1B63007   2.249  43.510   6.246
 4990POPC   C2B63008   2.268  43.389   6.705
 4990POPC   C3B63009   2.223  43.367   7.168
 4990POPC   C4B63010   2.138  43.655   7.542
 4991POPC   NC363011  11.766  29.182   5.471
 4991POPC   PO463012  12.422  28.901   5.518
 4991POPC   GL163013  12.378  29.110   5.886
 4991POPC   GL263014  12.147  29.365   5.813
 4991POPC   C1A63015  12.135  29.103   6.253
 4991POPC   D2A63016  12.178  28.979   6.637
 4991POPC   C3A63017  11.860  29.032   6.912
 4991POPC   C4A63018  11.869  29.156   7.315
 4991POPC   C1B63019  11.888  29.522   6.189
 4991POPC   C2B63020  11.949  29.483   6.614
 4991POPC   C3B63021  12.113  29.474   7.006
 4991POPC   C4B63022  12.372  29.590   7.354
 4992POPC   NC363023   8.739  24.182   5.574
 4992POPC   PO463024   8.629  24.869   5.495
 4992POPC   GL163025   8.722  24.614   5.872
 4992POPC   GL263026   8.531  24.291   6.016
 4992POPC   C1A63027   8.946  24.481   6.241
 4992POPC   D2A63028   9.186  24.654   6.579
 4992POPC   C3A63029   9.022  24.424   6.927
 4992POPC   C4A63030   8.923  24.575   7.318
 4992POPC   C1B63031   8.783  23.976   6.222
 4992POPC   C2B63032   9.005  24.010   6.598
 4992POPC   C3B63033   8.915  23.897   7.025
 4992POPC   C4B63034   8.706  24.115   7.336
 4993POPC   NC363035  21.143  41.703   5.279
 4993POPC   PO463036  21.669  41.235   5.582
 4993POPC   GL163037  21.364  41.524   5.772
 4993POPC   GL263038  21.347  41.887   5.753
 4993POPC   C1A63039  21.379  41.553   6.256
 4993POPC   D2A63040  21.549  41.760   6.651
 4993POPC   C3A63041  21.588  41.550   7.096
 4993POPC   C4A63042  21.852  41.461   7.490
 4993POPC   C1B63043  21.149  41.983   6.159
 4993POPC   C2B63044  21.006  41.838   6.563
 4993POPC   C3B63045  21.177  41.846   6.990
 4993POPC   C4B63046  21.038  41.666   7.384
 4994POPC   NC363047  33.763  36.334   5.576
 4994POPC   PO463048  33.773  35.805   5.196
 4994POPC   GL163049  33.824  35.869   5.737
 4994POPC   GL263050  34.028  36.168   5.949
 4994POPC   C1A63051  33.610  35.992   6.192
 4994POPC   D2A63052  33.480  36.200   6.587
 4994POPC   C3A63053  33.656  36.055   7.019
 4994POPC   C4A63054  33.757  36.333   7.363
 4994POPC   C1B63055  34.017  36.331   6.381
 4994POPC   C2B63056  34.043  36.341   6.835
 4994POPC   C3B63057  34.242  36.383   7.232
 4994POPC   C4B63058  34.130  36.543   7.664
 4995POPC   NC363059  38.846  14.551   5.383
 4995POPC   PO463060  38.308  14.062   5.241
 4995POPC   GL163061  38.402  14.280   5.646
 4995POPC   GL263062  38.082  14.187   5.748
 4995POPC   C1A63063  38.603  14.393   6.092
 4995POPC   D2A63064  38.863  14.328   6.507
 4995POPC   C3A63065  38.659  14.278   6.922
 4995POPC   C4A63066  38.364  14.555   7.124
 4995POPC   C1B63067  38.185  14.080   6.158
 4995POPC   C2B63068  38.320  14.236   6.532
 4995POPC   C3B63069  38.143  14.154   6.910
 4995POPC   C4B63070  38.218  14.113   7.323
 4996POPC   NC363071   4.192  32.435   5.338
 4996POPC   PO463072   3.950  31.853   5.687
 4996POPC   GL163073   4.275  32.167   5.794
 4996POPC   GL263074   4.408  32.520   5.780
 4996POPC   C1A63075   4.393  32.196   6.204
 4996POPC   D2A63076   4.369  31.903   6.536
 4996POPC   C3A63077   4.320  32.108   6.953
 4996POPC   C4A63078   4.136  32.076   7.392
 4996POPC   C1B63079   4.407  32.708   6.171
 4996POPC   C2B63080   4.367  32.641   6.595
 4996POPC   C3B63081   4.551  32.592   6.997
 4996POPC   C4B63082   4.194  32.545   7.224
 4997POPC   NC363083  40.941  27.779   5.169
 4997POPC   PO463084  40.372  27.876   5.547
 4997POPC   GL163085  40.600  27.745   5.906
 4997POPC   GL263086  40.923  27.656   5.796
 4997POPC   C1A63087  40.714  27.611   6.340
 4997POPC   D2A63088  40.848  27.810   6.719
 4997POPC   C3A63089  40.739  27.719   7.130
 4997POPC   C4A63090  40.993  27.841   7.500
 4997POPC   C1B63091  40.980  27.275   6.059
 4997POPC   C2B63092  41.045  27.253   6.512
 4997POPC   C3B63093  40.829  27.244   6.911
 4997POPC   C4B63094  40.990  27.315   7.322
 4998POPC   NC363095   0.067  25.214   5.457
 4998POPC   PO463096   0.650  25.655   5.484
 4998POPC   GL163097   0.548  25.457   5.860
 4998POPC   GL263098   0.188  25.497   5.871
 4998POPC   C1A63099   0.693  25.453   6.281
 4998POPC   D2A63100   0.609  25.575   6.692
 4998POPC   C3A63101   0.495  25.270   6.999
 4998POPC   C4A63102   0.377  25.338   7.436
 4998POPC   C1B63103   0.187  25.284   6.269
 4998POPC   C2B63104   0.093  25.161   6.693
 4998POPC   C3B63105  44.986  25.281   7.119
 4998POPC   C4B63106  44.840  25.520   7.490
 4999POPC   NC363107  38.692   9.159   5.434
 4999POPC   PO463108  38.117   8.867   5.258
 4999POPC   GL163109  38.098   8.933   5.732
 4999POPC   GL263110  38.466   8.950   5.833
 4999POPC   C1A63111  38.168   8.740   6.173
 4999POPC   D2A63112  38.122   8.627   6.619
 4999POPC   C3A63113  38.288   8.961   6.890
 4999POPC   C4A63114  38.392   8.902   7.314
 4999POPC   C1B63115  38.662   9.226   6.125
 4999POPC   C2B63116  38.730   9.242   6.561
 4999POPC   C3B63117  38.806   9.020   6.929
 4999POPC   C4B63118  38.810   9.228   7.275
 5000POPC   NC363119  36.348  22.367   5.368
 5000POPC   PO463120  35.831  21.922   5.495
 5000POPC   GL163121  36.084  22.039   5.827
 5000POPC   GL263122  36.427  22.131   5.806
 5000POPC   C1A63123  36.034  22.243   6.208
 5000POPC   D2A63124  36.105  22.048   6.572
 5000POPC   C3A63125  35.984  22.241   6.919
 5000POPC   C4A63126  35.986  22.024   7.245
 5000POPC   C1B63127  36.533  22.213   6.245
 5000POPC   C2B63128  36.743  22.441   6.521
 5000POPC   C3B63129  36.665  22.526   6.910
 5000POPC   C4B63130  36.407  22.293   7.194
 5001POPC   NC363131  38.729  32.525   5.436
 5001POPC   PO463132  38.348  32.021   5.434
 5001POPC   GL163133  38.159  32.183   5.804
 5001POPC   GL263134  38.214  32.545   5.830
 5001POPC   C1A63135  38.075  31.980   6.193
 5001POPC   D2A63136  38.309  31.939   6.540
 5001POPC   C3A63137  38.381  32.081   6.938
 5001POPC   C4A63138  38.701  32.272   7.204
 5001POPC   C1B63139  38.324  32.441   6.249
 5001POPC   C2B63140  38.167  32.601   6.631
 5001POPC   C3B63141  38.233  32.534   7.070
 5001POPC   C4B63142  37.999  32.510   7.409
 5002POPC   NC363143  28.577  12.873   5.502
 5002POPC   PO463144  28.003  12.589   5.519
 5002POPC   GL163145  28.248  12.795   5.886
 5002POPC   GL263146  28.326  13.161   5.863
 5002POPC   C1A63147  28.476  12.660   6.259
 5002POPC   D2A63148  28.455  12.609   6.711
 5002POPC   C3A63149  28.497  12.815   7.077
 5002POPC   C4A63150  28.839  12.631   7.253
 5002POPC   C1B63151  28.526  13.210   6.280
 5002POPC   C2B63152  28.496  13.305   6.732
 5002POPC   C3B63153  28.477  13.296   7.196
 5002POPC   C4B63154  28.373  13.297   7.676
 5003POPC   NC363155  40.230  24.358   5.142
 5003POPC   PO463156  39.719  24.140   5.520
 5003POPC   GL163157  39.941  24.016   5.877
 5003POPC   GL263158  39.703  23.770   5.931
 5003POPC   C1A63159  40.117  23.761   6.227
 5003POPC   D2A63160  39.934  23.707   6.650
 5003POPC   C3A63161  40.156  23.752   7.057
 5003POPC   C4A63162  40.094  24.045   7.403
 5003POPC   C1B63163  39.625  23.450   6.256
 5003POPC   C2B63164  39.695  23.253   6.658
 5003POPC   C3B63165  39.647  23.488   7.041
 5003POPC   C4B63166  39.813  23.600   7.421
 5004POPC   NC363167   0.210  27.635   5.415
 5004POPC   PO463168   0.775  27.306   5.418
 5004POPC   GL163169   0.549  27.456   5.800
 5004POPC   GL263170   0.214  27.635   5.905
 5004POPC   C1A63171   0.422  27.309   6.210
 5004POPC   D2A63172   0.581  27.340   6.601
 5004POPC   C3A63173   0.377  27.180   6.948
 5004POPC   C4A63174   0.478  27.383   7.318
 5004POPC   C1B63175   0.483  27.826   6.236
 5004POPC   C2B63176   0.514  27.843   6.685
 5004POPC   C3B63177   0.275  27.707   7.009
 5004POPC   C4B63178   0.152  27.934   7.393
 5005POPC   NC363179  31.689  14.225   5.495
 5005POPC   PO463180  30.973  14.314   5.367
 5005POPC   GL163181  31.147  14.288   5.779
 5005POPC   GL263182  31.154  14.612   5.970
 5005POPC   C1A63183  31.377  14.146   6.164
 5005POPC   D2A63184  31.331  14.396   6.538
 5005POPC   C3A63185  31.436  14.214   6.922
 5005POPC   C4A63186  31.160  13.905   7.090
 5005POPC   C1B63187  31.613  14.610   6.116
 5005POPC   C2B63188  31.818  14.542   6.524
 5005POPC   C3B63189  31.649  14.688   6.911
 5005POPC   C4B63190  31.678  14.880   7.302
 5006POPC   NC363191  41.894  44.515   5.682
 5006POPC   PO463192  41.275  44.789   5.548
 5006POPC   GL163193  41.452  44.614   5.911
 5006POPC   GL263194  41.356  44.257   5.940
 5006POPC   C1A63195  41.694  44.822   6.243
 5006POPC   D2A63196  41.560  44.931   6.632
 5006POPC   C3A63197  41.891  44.884   6.895
 5006POPC   C4A63198  41.906  44.832   7.310
 5006POPC   C1B63199  41.575  44.338   6.341
 5006POPC   C2B63200  41.752  44.409   6.752
 5006POPC   C3B63201  41.536  44.516   7.140
 5006POPC   C4B63202  41.285  44.334   7.461
 5007POPC   NC363203  15.948  20.164   5.261
 5007POPC   PO463204  15.549  19.663   5.349
 5007POPC   GL163205  15.862  19.868   5.669
 5007POPC   GL263206  15.719  20.123   5.907
 5007POPC   C1A63207  16.068  19.797   6.082
 5007POPC   D2A63208  15.898  19.654   6.489
 5007POPC   C3A63209  16.124  19.851   6.825
 5007POPC   C4A63210  16.230  19.690   7.205
 5007POPC   C1B63211  15.584  20.047   6.324
 5007POPC   C2B63212  15.416  19.810   6.677
 5007POPC   C3B63213  15.603  19.715   7.063
 5007POPC   C4B63214  15.801  19.894   7.394
 5008POPC   NC363215  28.911  19.572   5.454
 5008POPC   PO463216  29.336  19.045   5.453
 5008POPC   GL163217  29.209  19.088   5.814
 5008POPC   GL263218  28.894  19.084   5.759
 5008POPC   C1A63219  29.135  19.297   6.177
 5008POPC   D2A63220  29.010  19.156   6.536
 5008POPC   C3A63221  29.225  19.235   6.914
 5008POPC   C4A63222  28.939  19.214   7.222
 5008POPC   C1B63223  28.850  18.771   6.072
 5008POPC   C2B63224  28.869  18.643   6.490
 5008POPC   C3B63225  29.161  18.737   6.781
 5008POPC   C4B63226  29.209  18.755   7.212
 5009POPC   NC363227   5.285   4.076   5.293
 5009POPC   PO463228   4.930   4.577   5.477
 5009POPC   GL163229   4.993   4.176   5.745
 5009POPC   GL263230   5.358   4.152   5.810
 5009POPC   C1A63231   4.818   4.093   6.177
 5009POPC   D2A63232   4.786   4.392   6.534
 5009POPC   C3A63233   4.867   4.160   6.914
 5009POPC   C4A63234   4.971   4.211   7.352
 5009POPC   C1B63235   5.236   4.375   6.175
 5009POPC   C2B63236   5.262   4.179   6.578
 5009POPC   C3B63237   5.364   4.250   7.005
 5009POPC   C4B63238   5.375   3.942   7.293
 5010POPC   NC363239  27.745   0.419   5.341
 5010POPC   PO463240  27.027   0.493   5.251
 5010POPC   GL163241  27.316   0.484   5.660
 5010POPC   GL263242  27.674   0.568   5.809
 5010POPC   C1A63243  27.351   0.345   6.117
 5010POPC   D2A63244  27.247   0.163   6.538
 5010POPC   C3A63245  27.422   0.491   6.813
 5010POPC   C4A63246  27.562   0.547   7.230
 5010POPC   C1B63247  27.898   0.513   6.201
 5010POPC   C2B63248  27.938   0.627   6.644
 5010POPC   C3B63249  27.932   0.914   7.005
 5010POPC   C4B63250  27.870   0.887   7.470
 5011POPC   NC363251  30.448  33.243   5.488
 5011POPC   PO463252  31.008  32.894   5.473
 5011POPC   GL163253  30.787  32.997   5.824
 5011POPC   GL263254  30.864  33.340   5.790
 5011POPC   C1A63255  30.600  32.889   6.233
 5011POPC   D2A63256  30.785  32.930   6.626
 5011POPC   C3A63257  30.569  33.026   7.014
 5011POPC   C4A63258  30.548  33.072   7.464
 5011POPC   C1B63259  30.651  33.388   6.178
 5011POPC   C2B63260  30.916  33.442   6.516
 5011POPC   C3B63261  30.967  33.337   6.897
 5011POPC   C4B63262  30.869  33.461   7.256
 5012POPC   NC363263  19.562  42.683   5.643
 5012POPC   PO463264  19.120  42.201   5.451
 5012POPC   GL163265  18.998  42.227   5.855
 5012POPC   GL263266  19.100  42.570   5.879
 5012POPC   C1A63267  18.840  42.198   6.291
 5012POPC   D2A63268  18.711  42.387   6.712
 5012POPC   C3A63269  18.915  42.244   7.109
 5012POPC   C4A63270  19.140  42.190   7.502
 5012POPC   C1B63271  18.930  42.692   6.277
 5012POPC   C2B63272  18.930  42.870   6.692
 5012POPC   C3B63273  18.698  42.796   7.088
 5012POPC   C4B63274  18.864  42.608   7.455
 5013POPC   NC363275  12.838  32.656   5.466
 5013POPC   PO463276  12.906  32.036   5.152
 5013POPC   GL163277  12.944  32.172   5.627
 5013POPC   GL263278  12.670  32.343   5.833
 5013POPC   C1A63279  13.118  32.183   6.064
 5013POPC   D2A63280  13.134  32.487   6.410
 5013POPC   C3A63281  13.097  32.410   6.869
 5013POPC   C4A63282  12.984  32.619   7.260
 5013POPC   C1B63283  12.649  32.142   6.262
 5013POPC   C2B63284  12.951  32.017   6.553
 5013POPC   C3B63285  12.966  31.910   6.978
 5013POPC   C4B63286  12.765  32.145   7.282
 5014POPC   NC363287  14.989  28.007   5.474
 5014POPC   PO463288  14.331  28.073   5.456
 5014POPC   GL163289  14.590  28.165   5.818
 5014POPC   GL263290  14.713  28.523   5.774
 5014POPC   C1A63291  14.405  28.350   6.189
 5014POPC   D2A63292  14.061  28.330   6.498
 5014POPC   C3A63293  14.223  28.444   6.928
 5014POPC   C4A63294  14.303  28.376   7.410
 5014POPC   C1B63295  14.864  28.578   6.220
 5014POPC   C2B63296  14.624  28.541   6.622
 5014POPC   C3B63297  14.735  28.504   7.072
 5014POPC   C4B63298  14.737  28.621   7.518
 5015POPC   NC363299  33.730  30.303   5.367
 5015POPC   PO463300  33.308  30.771   5.411
 5015POPC   GL163301  33.581  30.590   5.755
 5015POPC   GL263302  33.940  30.593   5.753
 5015POPC   C1A63303  33.667  30.791   6.156
 5015POPC   D2A63304  33.827  30.942   6.477
 5015POPC   C3A63305  33.676  30.866   6.862
 5015POPC   C4A63306  33.786  30.975   7.257
 5015POPC   C1B63307  33.911  30.364   6.164
 5015POPC   C2B63308  33.848  30.428   6.638
 5015POPC   C3B63309  33.849  30.457   7.141
 5015POPC   C4B63310  34.073  30.303   7.572
 5016POPC   NC363311  40.875  19.492   5.504
 5016POPC   PO463312  40.753  18.829   5.404
 5016POPC   GL163313  40.601  19.109   5.781
 5016POPC   GL263314  40.857  19.309   5.963
 5016POPC   C1A63315  40.530  19.091   6.272
 5016POPC   D2A63316  40.740  19.047   6.673
 5016POPC   C3A63317  40.620  18.991   7.075
 5016POPC   C4A63318  40.836  18.869   7.442
 5016POPC   C1B63319  41.099  19.320   6.307
 5016POPC   C2B63320  41.133  19.387   6.735
 5016POPC   C3B63321  41.044  19.278   7.132
 5016POPC   C4B63322  41.074  19.296   7.579
 5017POPC   NC363323  38.388  29.574   5.673
 5017POPC   PO463324  38.735  28.986   5.554
 5017POPC   GL163325  38.515  28.907   5.896
 5017POPC   GL263326  38.820  28.768   6.021
 5017POPC   C1A63327  38.305  29.079   6.247
 5017POPC   D2A63328  38.054  29.349   6.544
 5017POPC   C3A63329  38.221  29.266   6.966
 5017POPC   C4A63330  38.595  29.383   7.190
 5017POPC   C1B63331  38.852  29.192   6.200
 5017POPC   C2B63332  38.914  29.289   6.630
 5017POPC   C3B63333  38.892  28.979   6.951
 5017POPC   C4B63334  38.555  28.801   7.224
 5018POPC   NC363335  36.745   5.470   5.492
 5018POPC   PO463336  37.205   5.888   5.528
 5018POPC   GL163337  36.963   5.985   5.891
 5018POPC   GL263338  36.610   6.056   5.864
 5018POPC   C1A63339  36.903   6.089   6.329
 5018POPC   D2A63340  36.961   5.810   6.641
 5018POPC   C3A63341  36.849   5.994   7.010
 5018POPC   C4A63342  37.019   5.717   7.283
 5018POPC   C1B63343  36.622   5.702   6.170
 5018POPC   C2B63344  36.588   5.449   6.540
 5018POPC   C3B63345  36.640   5.524   6.952
 5018POPC   C4B63346  36.535   5.601   7.383
 5019POPC   NC363347   1.477  29.838   5.478
 5019POPC   PO463348   2.157  30.015   5.398
 5019POPC   GL163349   2.006  30.088   5.830
 5019POPC   GL263350   1.809  29.774   5.872
 5019POPC   C1A63351   2.027  30.010   6.314
 5019POPC   D2A63352   1.898  29.717   6.667
 5019POPC   C3A63353   1.864  29.916   7.101
 5019POPC   C4A63354   1.973  30.194   7.440
 5019POPC   C1B63355   1.556  30.084   6.115
 5019POPC   C2B63356   1.551  30.098   6.579
 5019POPC   C3B63357   1.633  30.348   6.956
 5019POPC   C4B63358   1.373  30.217   7.274
 5020POPC   NC363359  17.896   4.026   5.623
 5020POPC   PO463360  18.181   4.465   5.183
 5020POPC   GL163361  18.245   4.414   5.679
 5020POPC   GL263362  18.525   4.201   5.815
 5020POPC   C1A63363  18.144   4.406   6.155
 5020POPC   D2A63364  18.138   4.135   6.552
 5020POPC   C3A63365  18.077   4.392   6.944
 5020POPC   C4A63366  18.164   4.301   7.386
 5020POPC   C1B63367  18.643   4.424   6.201
 5020POPC   C2B63368  18.500   4.516   6.638
 5020POPC   C3B63369  18.593   4.496   7.109
 5020POPC   C4B63370  18.498   4.609   7.592
 5021POPC   NC363371  12.014   9.128   5.428
 5021POPC   PO463372  12.405   8.543   5.297
 5021POPC   GL163373  12.194   8.709   5.668
 5021POPC   GL263374  12.392   8.952   5.833
 5021POPC   C1A63375  11.917   8.827   6.045
 5021POPC   D2A63376  11.805   8.579   6.429
 5021POPC   C3A63377  11.867   8.563   6.862
 5021POPC   C4A63378  12.186   8.700   7.128
 5021POPC   C1B63379  12.355   8.849   6.289
 5021POPC   C2B63380  12.065   8.980   6.642
 5021POPC   C3B63381  12.077   9.178   7.038
 5021POPC   C4B63382  12.390   9.081   7.407
 5022POPC   NC363383  33.555  28.758   5.582
 5022POPC   PO463384  33.880  28.225   5.484
 5022POPC   GL163385  33.781  28.397   5.857
 5022POPC   GL263386  34.013  28.682   5.854
 5022POPC   C1A63387  33.548  28.227   6.184
 5022POPC   D2A63388  33.751  28.140   6.550
 5022POPC   C3A63389  33.512  28.207   6.893
 5022POPC   C4A63390  33.640  28.085   7.275
 5022POPC   C1B63391  34.172  28.463   6.229
 5022POPC   C2B63392  34.194  28.363   6.670
 5022POPC   C3B63393  33.863  28.584   6.906
 5022POPC   C4B63394  33.641  28.604   7.308
 5023POPC   NC363395  10.910  16.050   5.464
 5023POPC   PO463396  11.308  16.582   5.322
 5023POPC   GL163397  11.323  16.310   5.702
 5023POPC   GL263398  11.367  15.937   5.739
 5023POPC   C1A63399  11.278  16.303   6.149
 5023POPC   D2A63400  11.449  16.184   6.563
 5023POPC   C3A63401  11.128  16.227   6.894
 5023POPC   C4A63402  11.317  16.278   7.287
 5023POPC   C1B63403  11.323  15.770   6.178
 5023POPC   C2B63404  11.190  15.748   6.621
 5023POPC   C3B63405  10.969  15.547   6.959
 5023POPC   C4B63406  10.871  15.808   7.299
 5024POPC   NC363407  28.985  28.059   5.330
 5024POPC   PO463408  29.108  28.748   5.296
 5024POPC   GL163409  29.234  28.411   5.617
 5024POPC   GL263410  28.886  28.337   5.742
 5024POPC   C1A63411  29.251  28.255   6.078
 5024POPC   D2A63412  29.440  28.224   6.510
 5024POPC   C3A63413  29.190  28.232   6.878
 5024POPC   C4A63414  29.120  28.281   7.310
 5024POPC   C1B63415  28.774  28.496   6.164
 5024POPC   C2B63416  28.809  28.487   6.593
 5024POPC   C3B63417  28.820  28.611   7.001
 5024POPC   C4B63418  28.561  28.649   7.331
 5025POPC   NC363419  38.246  41.861   5.643
 5025POPC   PO463420  38.116  42.430   5.296
 5025POPC   GL163421  38.221  42.513   5.731
 5025POPC   GL263422  38.513  42.323   5.758
 5025POPC   C1A63423  38.208  42.306   6.169
 5025POPC   D2A63424  38.470  42.177   6.533
 5025POPC   C3A63425  38.492  42.466   6.874
 5025POPC   C4A63426  38.290  42.396   7.263
 5025POPC   C1B63427  38.730  42.426   6.140
 5025POPC   C2B63428  38.893  42.536   6.545
 5025POPC   C3B63429  39.059  42.505   6.959
 5025POPC   C4B63430  38.794  42.598   7.312
 5026POPC   NC363431   7.687  43.265   5.336
 5026POPC   PO463432   7.134  43.051   5.567
 5026POPC   GL163433   7.303  42.984   5.934
 5026POPC   GL263434   7.626  42.939   5.758
 5026POPC   C1A63435   7.162  43.242   6.307
 5026POPC   D2A63436   7.098  43.170   6.756
 5026POPC   C3A63437   7.435  43.040   6.993
 5026POPC   C4A63438   7.392  43.309   7.314
 5026POPC   C1B63439   7.619  43.356   6.040
 5026POPC   C2B63440   7.631  43.281   6.512
 5026POPC   C3B63441   7.676  43.479   6.910
 5026POPC   C4B63442   7.861  43.491   7.288
 5027POPC   NC363443  32.011  37.259   5.493
 5027POPC   PO463444  32.441  37.829   5.391
 5027POPC   GL163445  32.365  37.813   5.845
 5027POPC   GL263446  32.309  37.476   5.866
 5027POPC   C1A63447  32.233  37.751   6.307
 5027POPC   D2A63448  32.041  37.855   6.735
 5027POPC   C3A63449  32.278  37.835   7.115
 5027POPC   C4A63450  32.546  37.670   7.463
 5027POPC   C1B63451  31.991  37.322   6.204
 5027POPC   C2B63452  32.078  37.328   6.641
 5027POPC   C3B63453  31.893  37.307   7.040
 5027POPC   C4B63454  32.103  37.438   7.415
 5028POPC   NC363455  12.688  25.192   5.375
 5028POPC   PO463456  13.296  25.568   5.336
 5028POPC   GL163457  13.039  25.394   5.662
 5028POPC   GL263458  12.939  25.649   5.860
 5028POPC   C1A63459  12.792  25.199   6.039
 5028POPC   D2A63460  12.778  25.395   6.444
 5028POPC   C3A63461  12.611  25.129   6.767
 5028POPC   C4A63462  12.438  25.120   7.172
 5028POPC   C1B63463  13.168  25.750   6.257
 5028POPC   C2B63464  13.117  25.694   6.693
 5028POPC   C3B63465  13.093  25.318   6.872
 5028POPC   C4B63466  12.942  25.136   7.191
 5029POPC   NC363467  42.034   4.272   5.360
 5029POPC   PO463468  42.664   4.544   5.327
 5029POPC   GL163469  42.493   4.422   5.741
 5029POPC   GL263470  42.140   4.497   5.795
 5029POPC   C1A63471  42.557   4.182   6.142
 5029POPC   D2A63472  42.807   4.269   6.528
 5029POPC   C3A63473  42.610   4.263   6.946
 5029POPC   C4A63474  42.522   4.144   7.402
 5029POPC   C1B63475  42.222   4.557   6.198
 5029POPC   C2B63476  42.342   4.504   6.570
 5029POPC   C3B63477  42.144   4.486   6.952
 5029POPC   C4B63478  42.347   4.603   7.293
 5030POPC   NC363479  38.980   4.817   5.499
 5030POPC   PO463480  38.495   5.179   5.183
 5030POPC   GL163481  38.546   5.054   5.673
 5030POPC   GL263482  38.546   5.352   5.823
 5030POPC   C1A63483  38.380   4.961   6.128
 5030POPC   D2A63484  38.569   4.879   6.567
 5030POPC   C3A63485  38.310   5.015   6.931
 5030POPC   C4A63486  38.184   4.886   7.348
 5030POPC   C1B63487  38.597   5.528   6.232
 5030POPC   C2B63488  38.702   5.372   6.632
 5030POPC   C3B63489  38.551   5.450   7.029
 5030POPC   C4B63490  38.745   5.522   7.405
 5031POPC   NC363491  21.507   0.806   5.408
 5031POPC   PO463492  21.221   0.094   5.486
 5031POPC   GL163493  21.124   0.336   5.811
 5031POPC   GL263494  20.942   0.669   5.729
 5031POPC   C1A63495  21.198   0.202   6.240
 5031POPC   D2A63496  21.369   0.027   6.615
 5031POPC   C3A63497  21.344   0.340   6.901
 5031POPC   C4A63498  21.601   0.446   7.232
 5031POPC   C1B63499  20.838   0.545   6.170
 5031POPC   C2B63500  20.987   0.550   6.570
 5031POPC   C3B63501  20.982   0.755   6.974
 5031POPC   C4B63502  21.082   0.473   7.320
 5032POPC   NC363503  13.626  32.000   5.479
 5032POPC   PO463504  13.266  32.488   5.405
 5032POPC   GL163505  13.538  32.372   5.820
 5032POPC   GL263506  13.858  32.126   5.903
 5032POPC   C1A63507  13.595  32.296   6.281
 5032POPC   D2A63508  13.453  32.084   6.627
 5032POPC   C3A63509  13.585  32.250   6.976
 5032POPC   C4A63510  13.311  32.239   7.309
 5032POPC   C1B63511  14.120  32.343   6.215
 5032POPC   C2B63512  14.067  32.452   6.644
 5032POPC   C3B63513  14.117  32.281   7.043
 5032POPC   C4B63514  13.857  32.356   7.398
 5033POPC   NC363515  39.194  28.986   5.604
 5033POPC   PO463516  39.635  29.383   5.379
 5033POPC   GL163517  39.585  29.276   5.791
 5033POPC   GL263518  39.624  28.925   5.916
 5033POPC   C1A63519  39.463  29.336   6.209
 5033POPC   D2A63520  39.637  29.077   6.518
 5033POPC   C3A63521  39.379  29.204   6.816
 5033POPC   C4A63522  39.131  29.409   7.114
 5033POPC   C1B63523  39.262  28.874   6.238
 5033POPC   C2B63524  39.261  28.705   6.624
 5033POPC   C3B63525  39.577  28.720   6.916
 5033POPC   C4B63526  39.454  28.980   7.255
 5034POPC   NC363527  28.285  24.482   5.429
 5034POPC   PO463528  28.711  24.751   5.866
 5034POPC   GL163529  28.331  24.541   5.919
 5034POPC   GL263530  28.275  24.142   5.799
 5034POPC   C1A63531  28.115  24.651   6.273
 5034POPC   D2A63532  27.956  24.413   6.569
 5034POPC   C3A63533  28.159  24.566   6.903
 5034POPC   C4A63534  28.076  24.502   7.313
 5034POPC   C1B63535  28.284  24.168   6.240
 5034POPC   C2B63536  28.536  24.449   6.517
 5034POPC   C3B63537  28.633  24.371   6.938
 5034POPC   C4B63538  28.329  24.082   7.061
 5035POPC   NC363539  12.728  27.611   5.316
 5035POPC   PO463540  13.212  27.175   5.578
 5035POPC   GL163541  12.879  27.482   5.789
 5035POPC   GL263542  12.491  27.439   5.734
 5035POPC   C1A63543  12.939  27.804   6.136
 5035POPC   D2A63544  13.244  27.881   6.506
 5035POPC   C3A63545  13.125  27.622   6.866
 5035POPC   C4A63546  12.900  27.596   7.255
 5035POPC   C1B63547  12.583  27.326   6.169
 5035POPC   C2B63548  12.789  27.404   6.545
 5035POPC   C3B63549  12.725  27.228   6.949
 5035POPC   C4B63550  12.487  27.269   7.362
 5036POPC   NC363551  10.099  44.347   5.375
 5036POPC   PO463552   9.780  43.697   5.278
 5036POPC   GL163553   9.610  43.666   5.769
 5036POPC   GL263554   9.288  43.572   5.808
 5036POPC   C1A63555   9.556  43.923   6.183
 5036POPC   D2A63556   9.855  44.010   6.528
 5036POPC   C3A63557   9.689  44.162   6.918
 5036POPC   C4A63558   9.692  44.010   7.331
 5036POPC   C1B63559   9.401  43.442   6.223
 5036POPC   C2B63560   9.426  43.682   6.614
 5036POPC   C3B63561   9.657  43.650   6.952
 5036POPC   C4B63562   9.598  43.306   7.197
 5037POPC   NC363563  41.791  31.075   5.428
 5037POPC   PO463564  41.272  31.530   5.317
 5037POPC   GL163565  41.455  31.367   5.692
 5037POPC   GL263566  41.725  31.594   5.674
 5037POPC   C1A63567  41.436  31.510   6.121
 5037POPC   D2A63568  41.602  31.676   6.495
 5037POPC   C3A63569  41.468  31.714   6.901
 5037POPC   C4A63570  41.707  31.733   7.298
 5037POPC   C1B63571  41.911  31.355   6.031
 5037POPC   C2B63572  41.907  31.277   6.473
 5037POPC   C3B63573  41.914  31.468   6.897
 5037POPC   C4B63574  41.884  31.242   7.304
 5038POPC   NC363575  32.825  21.284   5.404
 5038POPC   PO463576  33.246  21.760   5.378
 5038POPC   GL163577  33.217  21.459   5.771
 5038POPC   GL263578  33.051  21.099   5.795
 5038POPC   C1A63579  33.132  21.334   6.216
 5038POPC   D2A63580  32.834  21.446   6.531
 5038POPC   C3A63581  32.989  21.550   6.937
 5038POPC   C4A63582  32.803  21.806   7.244
 5038POPC   C1B63583  32.667  21.102   6.108
 5038POPC   C2B63584  32.481  21.044   6.530
 5038POPC   C3B63585  32.590  21.212   6.943
 5038POPC   C4B63586  32.656  21.342   7.370
 5039POPC   NC363587   2.657  19.331   5.335
 5039POPC   PO463588   3.085  18.820   5.330
 5039POPC   GL163589   3.021  18.717   5.776
 5039POPC   GL263590   2.912  19.071   5.855
 5039POPC   C1A63591   2.870  18.742   6.231
 5039POPC   D2A63592   2.620  18.813   6.630
 5039POPC   C3A63593   2.814  19.050   6.987
 5039POPC   C4A63594   2.672  19.018   7.409
 5039POPC   C1B63595   2.724  19.239   6.283
 5039POPC   C2B63596   2.488  19.341   6.690
 5039POPC   C3B63597   2.389  19.356   7.146
 5039POPC   C4B63598   2.555  19.500   7.558
 5040POPC   NC363599  18.708   7.628   5.407
 5040POPC   PO463600  19.252   7.215   5.447
 5040POPC   GL163601  19.024   7.423   5.747
 5040POPC   GL263602  18.715   7.239   5.816
 5040POPC   C1A63603  18.897   7.669   6.103
 5040POPC   D2A63604  19.130   7.652   6.499
 5040POPC   C3A63605  18.889   7.585   6.870
 5040POPC   C4A63606  19.097   7.675   7.261
 5040POPC   C1B63607  19.014   7.184   6.204
 5040POPC   C2B63608  18.994   7.087   6.665
 5040POPC   C3B63609  19.075   7.174   7.109
 5040POPC   C4B63610  18.763   7.306   7.421
 5041POPC   NC363611  14.596  25.517   5.317
 5041POPC   PO463612  14.589  24.807   5.543
 5041POPC   GL163613  14.369  25.120   5.800
 5041POPC   GL263614  14.418  25.499   5.775
 5041POPC   C1A63615  14.181  25.333   6.170
 5041POPC   D2A63616  14.112  25.589   6.472
 5041POPC   C3A63617  14.043  25.440   6.865
 5041POPC   C4A63618  14.255  25.326   7.231
 5041POPC   C1B63619  14.506  25.755   6.118
 5041POPC   C2B63620  14.482  25.899   6.559
 5041POPC   C3B63621  14.552  25.552   6.839
 5041POPC   C4B63622  14.734  25.501   7.242
 5042POPC   NC363623   2.187   4.027   5.373
 5042POPC   PO463624   1.618   4.434   5.404
 5042POPC   GL163625   1.825   4.330   5.814
 5042POPC   GL263626   2.165   4.196   5.837
 5042POPC   C1A63627   1.907   4.290   6.266
 5042POPC   D2A63628   1.821   3.992   6.568
 5042POPC   C3A63629   1.932   4.188   6.931
 5042POPC   C4A63630   2.102   4.364   7.304
 5042POPC   C1B63631   2.198   3.897   6.205
 5042POPC   C2B63632   2.322   4.118   6.580
 5042POPC   C3B63633   2.430   4.318   6.930
 5042POPC   C4B63634   2.590   4.164   7.322
 5043POPC   NC363635  40.680   2.324   5.455
 5043POPC   PO463636  40.958   1.725   5.291
 5043POPC   GL163637  40.731   1.877   5.701
 5043POPC   GL263638  40.385   1.750   5.738
 5043POPC   C1A63639  40.930   2.004   6.115
 5043POPC   D2A63640  40.885   2.217   6.494
 5043POPC   C3A63641  40.889   2.050   6.870
 5043POPC   C4A63642  40.742   2.289   7.193
 5043POPC   C1B63643  40.433   2.021   6.146
 5043POPC   C2B63644  40.441   1.909   6.611
 5043POPC   C3B63645  40.314   2.052   7.052
 5043POPC   C4B63646  40.368   2.179   7.543
 5044POPC   NC363647  21.186   3.190   5.274
 5044POPC   PO463648  21.636   3.693   5.233
 5044POPC   GL163649  21.479   3.479   5.610
 5044POPC   GL263650  21.641   3.164   5.709
 5044POPC   C1A63651  21.428   3.619   6.052
 5044POPC   D2A63652  21.311   3.842   6.424
 5044POPC   C3A63653  21.159   3.600   6.765
 5044POPC   C4A63654  21.345   3.511   7.189
 5044POPC   C1B63655  21.728   3.227   6.158
 5044POPC   C2B63656  21.675   3.464   6.545
 5044POPC   C3B63657  21.649   3.218   6.911
 5044POPC   C4B63658  21.612   3.108   7.360
 5045POPC   NC363659  30.376   5.796   5.448
 5045POPC   PO463660  30.765   6.278   5.634
 5045POPC   GL163661  30.751   5.855   5.806
 5045POPC   GL263662  31.060   5.634   5.809
 5045POPC   C1A63663  30.682   5.831   6.245
 5045POPC   D2A63664  30.573   6.143   6.569
 5045POPC   C3A63665  30.721   6.083   6.975
 5045POPC   C4A63666  30.642   5.631   7.163
 5045POPC   C1B63667  31.173   5.985   6.072
 5045POPC   C2B63668  31.113   6.010   6.485
 5045POPC   C3B63669  31.043   5.734   6.811
 5045POPC   C4B63670  31.076   5.870   7.260
 5046POPC   NC363671   1.722  28.907   5.493
 5046POPC   PO463672   1.992  28.316   5.347
 5046POPC   GL163673   2.077  28.517   5.730
 5046POPC   GL263674   2.191  28.198   5.811
 5046POPC   C1A63675   1.965  28.598   6.157
 5046POPC   D2A63676   1.755  28.688   6.536
 5046POPC   C3A63677   1.967  28.544   6.898
 5046POPC   C4A63678   1.886  28.535   7.320
 5046POPC   C1B63679   2.368  28.097   6.161
 5046POPC   C2B63680   2.215  28.236   6.517
 5046POPC   C3B63681   2.282  28.100   6.875
 5046POPC   C4B63682   2.317  28.294   7.217
 5047POPC   NC363683   0.825  10.867   5.401
 5047POPC   PO463684   1.241  11.468   5.497
 5047POPC   GL163685   1.304  11.190   5.875
 5047POPC   GL263686   1.088  10.900   5.847
 5047POPC   C1A63687   1.459  11.194   6.296
 5047POPC   D2A63688   1.287  11.346   6.629
 5047POPC   C3A63689   1.397  11.233   6.986
 5047POPC   C4A63690   1.342  11.389   7.343
 5047POPC   C1B63691   0.951  11.113   6.231
 5047POPC   C2B63692   0.804  11.214   6.617
 5047POPC   C3B63693   0.902  11.230   7.032
 5047POPC   C4B63694   0.795  11.102   7.426
 5048POPC   NC363695  24.267   3.339   5.410
 5048POPC   PO463696  23.565   3.407   5.379
 5048POPC   GL163697  23.827   3.459   5.697
 5048POPC   GL263698  23.814   3.779   5.800
 5048POPC   C1A63699  23.725   3.400   6.134
 5048POPC   D2A63700  23.772   3.127   6.470
 5048POPC   C3A63701  23.746   3.244   6.904
 5048POPC   C4A63702  24.064   3.300   7.227
 5048POPC   C1B63703  23.814   3.908   6.204
 5048POPC   C2B63704  23.485   3.776   6.474
 5048POPC   C3B63705  23.406   3.741   6.909
 5048POPC   C4B63706  23.729   3.674   7.202
 5049POPC   NC363707  15.548  32.963   5.441
 5049POPC   PO463708  16.212  33.146   5.277
 5049POPC   GL163709  16.036  33.123   5.729
 5049POPC   GL263710  15.796  32.891   5.871
 5049POPC   C1A63711  16.041  33.238   6.177
 5049POPC   D2A63712  16.192  33.134   6.589
 5049POPC   C3A63713  16.203  33.372   6.946
 5049POPC   C4A63714  16.185  33.084   7.295
 5049POPC   C1B63715  15.640  32.603   6.199
 5049POPC   C2B63716  15.472  32.546   6.630
 5049POPC   C3B63717  15.703  32.531   7.021
 5049POPC   C4B63718  15.793  32.666   7.446
 5050POPC   NC363719  27.051  42.277   5.507
 5050POPC   PO463720  26.772  42.938   5.283
 5050POPC   GL163721  26.697  42.656   5.690
 5050POPC   GL263722  27.039  42.668   5.808
 5050POPC   C1A63723  26.588  42.456   6.153
 5050POPC   D2A63724  26.536  42.285   6.588
 5050POPC   C3A63725  26.774  42.144   6.953
 5050POPC   C4A63726  26.645  42.349   7.292
 5050POPC   C1B63727  27.073  42.487   6.184
 5050POPC   C2B63728  27.063  42.315   6.563
 5050POPC   C3B63729  27.168  42.464   6.950
 5050POPC   C4B63730  27.053  42.662   7.355
 5051POPC   NC363731   5.202  20.771   5.231
 5051POPC   PO463732   5.295  21.436   5.267
 5051POPC   GL163733   5.056  21.555   5.655
 5051POPC   GL263734   5.329  21.705   5.815
 5051POPC   C1A63735   4.921  21.640   6.109
 5051POPC   D2A63736   4.942  21.339   6.436
 5051POPC   C3A63737   4.887  21.383   6.872
 5051POPC   C4A63738   4.962  21.273   7.322
 5051POPC   C1B63739   5.423  21.578   6.242
 5051POPC   C2B63740   5.303  21.652   6.660
 5051POPC   C3B63741   5.347  21.496   7.056
 5051POPC   C4B63742   5.451  21.560   7.510
 5052POPC   NC363743  36.364  19.034   5.236
 5052POPC   PO463744  35.803  19.427   5.404
 5052POPC   GL163745  36.088  19.297   5.821
 5052POPC   GL263746  36.111  18.938   5.913
 5052POPC   C1A63747  36.305  19.210   6.300
 5052POPC   D2A63748  36.345  19.453   6.725
 5052POPC   C3A63749  36.111  19.271   7.086
 5052POPC   C4A63750  35.785  18.964   7.046
 5052POPC   C1B63751  36.311  18.702   6.221
 5052POPC   C2B63752  36.412  18.701   6.640
 5052POPC   C3B63753  36.304  18.762   7.064
 5052POPC   C4B63754  36.462  19.024   7.375
 5053POPC   NC363755   6.459   0.091   5.608
 5053POPC   PO463756   6.676   0.680   5.261
 5053POPC   GL163757   6.664   0.606   5.718
 5053POPC   GL263758   6.854   0.308   5.833
 5053POPC   C1A63759   6.474   0.703   6.124
 5053POPC   D2A63760   6.329   0.550   6.527
 5053POPC   C3A63761   6.570   0.709   6.892
 5053POPC   C4A63762   6.518   0.524   7.281
 5053POPC   C1B63763   6.675   0.223   6.236
 5053POPC   C2B63764   6.737   0.304   6.656
 5053POPC   C3B63765   6.697   0.128   7.048
 5053POPC   C4B63766   6.925   0.016   7.414
 5054POPC   NC363767  21.729  26.980   5.394
 5054POPC   PO463768  21.040  26.963   5.453
 5054POPC   GL163769  21.393  26.957   5.810
 5054POPC   GL263770  21.688  26.713   5.848
 5054POPC   C1A63771  21.600  27.017   6.276
 5054POPC   D2A63772  21.672  26.982   6.765
 5054POPC   C3A63773  21.268  26.953   7.009
 5054POPC   C4A63774  20.994  26.615   7.123
 5054POPC   C1B63775  21.693  26.510   6.297
 5054POPC   C2B63776  21.679  26.473   6.778
 5054POPC   C3B63777  21.612  26.645   7.230
 5054POPC   C4B63778  21.640  26.479   7.687
 5055POPC   NC363779  34.131  36.776   5.234
 5055POPC   PO463780  33.518  36.626   5.321
 5055POPC   GL163781  33.562  36.766   5.746
 5055POPC   GL263782  33.887  36.924   5.771
 5055POPC   C1A63783  33.548  36.535   6.163
 5055POPC   D2A63784  33.527  36.750   6.540
 5055POPC   C3A63785  33.599  36.599   6.948
 5055POPC   C4A63786  33.890  36.799   7.257
 5055POPC   C1B63787  33.968  36.834   6.246
 5055POPC   C2B63788  34.002  36.849   6.728
 5055POPC   C3B63789  34.123  37.195   7.048
 5055POPC   C4B63790  33.836  37.404   7.353
 5056POPC   NC363791  43.370  42.716   4.996
 5056POPC   PO463792  43.856  42.567   5.406
 5056POPC   GL163793  43.896  42.560   5.869
 5056POPC   GL263794  43.681  42.327   6.051
 5056POPC   C1A63795  43.986  42.618   6.332
 5056POPC   D2A63796  43.852  42.341   6.655
 5056POPC   C3A63797  43.815  42.523   7.048
 5056POPC   C4A63798  44.225  42.625   7.163
 5056POPC   C1B63799  43.829  41.956   6.320
 5056POPC   C2B63800  43.875  41.800   6.774
 5056POPC   C3B63801  43.926  41.776   7.252
 5056POPC   C4B63802  43.764  41.841   7.688
 5057POPC   NC363803  25.791  32.869   5.149
 5057POPC   PO463804  25.840  33.422   5.596
 5057POPC   GL163805  25.828  33.045   5.854
 5057POPC   GL263806  26.102  32.785   5.783
 5057POPC   C1A63807  25.730  32.964   6.306
 5057POPC   D2A63808  25.912  32.773   6.635
 5057POPC   C3A63809  25.977  33.144   6.857
 5057POPC   C4A63810  25.860  33.191   7.239
 5057POPC   C1B63811  26.231  32.861   6.239
 5057POPC   C2B63812  26.401  32.931   6.691
 5057POPC   C3B63813  26.286  32.898   7.185
 5057POPC   C4B63814  26.235  32.800   7.636
 5058POPC   NC363815  31.921  35.276   5.523
 5058POPC   PO463816  32.594  35.113   5.424
 5058POPC   GL163817  32.328  35.040   5.749
 5058POPC   GL263818  32.338  35.417   5.826
 5058POPC   C1A63819  32.138  35.116   6.167
 5058POPC   D2A63820  32.263  35.411   6.488
 5058POPC   C3A63821  32.042  35.386   6.890
 5058POPC   C4A63822  32.159  35.288   7.327
 5058POPC   C1B63823  32.641  35.654   6.120
 5058POPC   C2B63824  32.726  35.621   6.575
 5058POPC   C3B63825  32.526  35.492   6.954
 5058POPC   C4B63826  32.669  35.344   7.351
 5059POPC   NC363827   5.230  21.909   5.332
 5059POPC   PO463828   5.458  22.505   5.631
 5059POPC   GL163829   5.288  22.237   5.919
 5059POPC   GL263830   4.978  22.080   5.783
 5059POPC   C1A63831   5.321  22.365   6.354
 5059POPC   D2A63832   5.454  22.150   6.706
 5059POPC   C3A63833   5.170  22.257   6.991
 5059POPC   C4A63834   5.167  22.344   7.389
 5059POPC   C1B63835   4.856  22.181   6.189
 5059POPC   C2B63836   4.952  22.028   6.573
 5059POPC   C3B63837   4.848  21.873   6.968
 5059POPC   C4B63838   5.056  21.814   7.311
 5060POPC   NC363839  26.512   9.631   5.456
 5060POPC   PO463840  25.840   9.640   5.340
 5060POPC   GL163841  25.904   9.747   5.779
 5060POPC   GL263842  26.170  10.036   5.833
 5060POPC   C1A63843  25.987   9.686   6.223
 5060POPC   D2A63844  25.988   9.882   6.647
 5060POPC   C3A63845  26.134   9.606   6.990
 5060POPC   C4A63846  25.994   9.669   7.417
 5060POPC   C1B63847  26.374  10.046   6.277
 5060POPC   C2B63848  26.479  10.038   6.743
 5060POPC   C3B63849  26.314  10.045   7.167
 5060POPC   C4B63850  26.501   9.685   7.406
 5061POPC   NC363851  15.706   9.769   5.418
 5061POPC   PO463852  16.179   9.418   5.545
 5061POPC   GL163853  16.048   9.704   5.831
 5061POPC   GL263854  16.072  10.056   5.705
 5061POPC   C1A63855  16.102   9.628   6.263
 5061POPC   D2A63856  16.172   9.898   6.595
 5061POPC   C3A63857  16.175   9.682   6.958
 5061POPC   C4A63858  16.000   9.615   7.329
 5061POPC   C1B63859  15.924  10.104   6.181
 5061POPC   C2B63860  15.653   9.940   6.546
 5061POPC   C3B63861  15.745   9.999   6.998
 5061POPC   C4B63862  16.070  10.211   7.205
 5062POPC   NC363863  11.484  40.505   5.434
 5062POPC   PO463864  11.242  39.963   5.367
 5062POPC   GL163865  11.201  39.811   5.804
 5062POPC   GL263866  11.562  39.837   5.799
 5062POPC   C1A63867  11.068  40.029   6.229
 5062POPC   D2A63868  11.311  40.267   6.594
 5062POPC   C3A63869  11.278  40.130   7.046
 5062POPC   C4A63870  11.098  39.770   7.268
 5062POPC   C1B63871  11.493  39.743   6.231
 5062POPC   C2B63872  11.253  39.744   6.611
 5062POPC   C3B63873  11.455  39.643   6.922
 5062POPC   C4B63874  11.610  39.772   7.276
 5063POPC   NC363875  12.711  44.376   5.224
 5063POPC   PO463876  12.585   0.007   5.433
 5063POPC   GL163877  12.601  44.837   5.848
 5063POPC   GL263878  12.913  44.641   5.811
 5063POPC   C1A63879  12.762  44.767   6.292
 5063POPC   D2A63880  13.043  44.520   6.578
 5063POPC   C3A63881  12.998  44.631   7.019
 5063POPC   C4A63882  12.702  44.949   7.140
 5063POPC   C1B63883  12.616  44.349   6.007
 5063POPC   C2B63884  12.515  44.274   6.444
 5063POPC   C3B63885  12.560  44.397   6.873
 5063POPC   C4B63886  12.367  44.198   7.254
 5064POPC   NC363887  41.489  12.761   5.339
 5064POPC   PO463888  41.508  13.476   5.397
 5064POPC   GL163889  41.337  13.140   5.665
 5064POPC   GL263890  41.687  13.066   5.691
 5064POPC   C1A63891  41.304  12.803   6.031
 5064POPC   D2A63892  41.072  12.427   6.276
 5064POPC   C3A63893  40.926  12.483   6.772
 5064POPC   C4A63894  41.065  12.812   7.102
 5064POPC   C1B63895  41.810  12.934   6.090
 5064POPC   C2B63896  41.662  12.608   6.358
 5064POPC   C3B63897  41.362  12.645   6.613
 5064POPC   C4B63898  41.384  12.452   6.998
 5065POPC   NC363899  11.012  42.135   5.488
 5065POPC   PO463900  11.400  42.693   5.211
 5065POPC   GL163901  11.362  42.611   5.659
 5065POPC   GL263902  11.608  42.328   5.720
 5065POPC   C1A63903  11.420  42.608   6.121
 5065POPC   D2A63904  11.313  42.294   6.451
 5065POPC   C3A63905  11.474  42.335   6.881
 5065POPC   C4A63906  11.114  42.345   7.154
 5065POPC   C1B63907  11.653  42.086   6.117
 5065POPC   C2B63908  11.660  41.939   6.555
 5065POPC   C3B63909  11.355  41.808   6.854
 5065POPC   C4B63910  11.505  41.928   7.216
 5066POPC   NC363911  44.407  34.763   5.452
 5066POPC   PO463912  43.789  34.564   5.419
 5066POPC   GL163913  43.991  34.557   5.808
 5066POPC   GL263914  43.716  34.759   5.934
 5066POPC   C1A63915  44.096  34.644   6.251
 5066POPC   D2A63916  43.774  34.759   6.538
 5066POPC   C3A63917  43.954  34.724   6.926
 5066POPC   C4A63918  44.098  34.434   7.186
 5066POPC   C1B63919  43.386  34.913   6.200
 5066POPC   C2B63920  43.384  35.124   6.609
 5066POPC   C3B63921  43.487  34.953   7.025
 5066POPC   C4B63922  43.728  34.710   7.371
 5067POPC   NC363923  25.597  14.072   5.491
 5067POPC   PO463924  26.058  13.576   5.393
 5067POPC   GL163925  26.125  13.786   5.772
 5067POPC   GL263926  26.299  13.477   5.859
 5067POPC   C1A63927  26.271  13.973   6.169
 5067POPC   D2A63928  26.044  13.930   6.561
 5067POPC   C3A63929  26.197  13.918   6.976
 5067POPC   C4A63930  26.150  13.808   7.402
 5067POPC   C1B63931  25.981  13.524   6.202
 5067POPC   C2B63932  25.861  13.416   6.615
 5067POPC   C3B63933  26.022  13.414   7.035
 5067POPC   C4B63934  25.712  13.569   7.314
 5068POPC   NC363935  21.034  29.866   5.464
 5068POPC   PO463936  20.286  29.948   5.485
 5068POPC   GL163937  20.398  30.069   5.923
 5068POPC   GL263938  20.736  29.961   5.879
 5068POPC   C1A63939  20.606  30.115   6.361
 5068POPC   D2A63940  20.938  30.196   6.692
 5068POPC   C3A63941  20.759  30.078   7.086
 5068POPC   C4A63942  20.370  29.934   7.256
 5068POPC   C1B63943  20.833  29.667   6.222
 5068POPC   C2B63944  20.767  29.680   6.679
 5068POPC   C3B63945  20.985  29.595   7.056
 5068POPC   C4B63946  21.130  29.882   7.380
 5069POPC   NC363947  15.192  19.684   5.039
 5069POPC   PO463948  15.341  18.938   5.253
 5069POPC   GL163949  15.246  19.080   5.742
 5069POPC   GL263950  15.192  18.806   5.980
 5069POPC   C1A63951  14.939  19.228   6.087
 5069POPC   D2A63952  14.879  18.953   6.451
 5069POPC   C3A63953  15.102  18.980   6.857
 5069POPC   C4A63954  15.015  19.125   7.279
 5069POPC   C1B63955  15.391  19.088   6.291
 5069POPC   C2B63956  15.500  19.307   6.668
 5069POPC   C3B63957  15.484  19.213   7.089
 5069POPC   C4B63958  15.479  18.807   7.247
 5070POPC   NC363959  24.025  41.055   5.424
 5070POPC   PO463960  24.595  40.613   5.400
 5070POPC   GL163961  24.561  40.924   5.745
 5070POPC   GL263962  24.213  40.882   5.876
 5070POPC   C1A63963  24.543  41.116   6.179
 5070POPC   D2A63964  24.317  41.129   6.586
 5070POPC   C3A63965  24.535  40.931   6.932
 5070POPC   C4A63966  24.468  40.855   7.382
 5070POPC   C1B63967  24.214  40.689   6.317
 5070POPC   C2B63968  24.256  40.531   6.771
 5070POPC   C3B63969  24.094  40.553   7.217
 5070POPC   C4B63970  24.094  40.693   7.692
 5071POPC   NC363971  41.582  35.847   5.684
 5071POPC   PO463972  41.311  36.429   5.445
 5071POPC   GL163973  41.309  36.234   5.859
 5071POPC   GL263974  41.661  36.243   5.993
 5071POPC   C1A63975  41.324  36.078   6.308
 5071POPC   D2A63976  41.490  36.239   6.681
 5071POPC   C3A63977  41.403  36.021   7.051
 5071POPC   C4A63978  41.457  35.946   7.478
 5071POPC   C1B63979  41.864  36.031   6.336
 5071POPC   C2B63980  41.984  36.028   6.779
 5071POPC   C3B63981  41.922  36.130   7.222
 5071POPC   C4B63982  41.718  36.373   7.586
 5072POPC   NC363983  26.345  31.165   5.488
 5072POPC   PO463984  26.911  30.770   5.371
 5072POPC   GL163985  26.769  30.802   5.785
 5072POPC   GL263986  27.095  30.925   5.836
 5072POPC   C1A63987  26.532  30.729   6.206
 5072POPC   D2A63988  26.655  30.831   6.600
 5072POPC   C3A63989  26.777  30.572   6.941
 5072POPC   C4A63990  26.568  30.653   7.326
 5072POPC   C1B63991  27.061  30.758   6.261
 5072POPC   C2B63992  27.163  30.887   6.684
 5072POPC   C3B63993  27.207  30.805   7.118
 5072POPC   C4B63994  27.036  30.660   7.521
 5073POPC   NC363995  14.801  27.027   5.411
 5073POPC   PO463996  15.431  27.148   5.189
 5073POPC   GL163997  15.280  26.930   5.596
 5073POPC   GL263998  15.200  26.588   5.667
 5073POPC   C1A63999  15.098  26.939   6.055
 5073POPC   D2A64000  15.010  26.768   6.495
 5073POPC   C3A64001  15.216  26.893   6.880
 5073POPC   C4A64002  15.065  27.132   7.215
 5073POPC   C1B64003  15.040  26.415   6.110
 5073POPC   C2B64004  15.203  26.287   6.546
 5073POPC   C3B64005  15.033  26.408   6.938
 5073POPC   C4B64006  15.019  26.639   7.316
 5074POPC   NC364007  10.932  17.962   5.038
 5074POPC   PO464008  11.574  17.759   5.194
 5074POPC   GL164009  11.427  17.601   5.620
 5074POPC   GL264010  11.073  17.570   5.679
 5074POPC   C1A64011  11.396  17.521   6.088
 5074POPC   D2A64012  11.185  17.411   6.469
 5074POPC   C3A64013  11.402  17.257   6.784
 5074POPC   C4A64014  11.218  17.364   7.176
 5074POPC   C1B64015  10.918  17.762   6.066
 5074POPC   C2B64016  10.972  17.862   6.476
 5074POPC   C3B64017  11.145  17.785   6.856
 5074POPC   C4B64018  10.869  17.807   7.181
 5075POPC   NC364019  40.393  12.793   5.431
 5075POPC   PO464020  41.064  12.611   5.404
 5075POPC   GL164021  40.864  12.893   5.758
 5075POPC   GL264022  40.515  12.965   5.882
 5075POPC   C1A64023  40.841  12.882   6.238
 5075POPC   D2A64024  40.882  12.968   6.636
 5075POPC   C3A64025  40.594  12.887   6.932
 5075POPC   C4A64026  40.670  13.026   7.343
 5075POPC   C1B64027  40.342  12.786   6.266
 5075POPC   C2B64028  40.466  12.526   6.563
 5075POPC   C3B64029  40.281  12.451   6.928
 5075POPC   C4B64030  40.234  12.725   7.264
 5076POPC   NC364031  15.729  41.117   5.500
 5076POPC   PO464032  16.173  41.608   5.375
 5076POPC   GL164033  16.070  41.396   5.749
 5076POPC   GL264034  15.803  41.632   5.776
 5076POPC   C1A64035  15.941  41.354   6.187
 5076POPC   D2A64036  16.188  41.365   6.570
 5076POPC   C3A64037  16.017  41.430   6.984
 5076POPC   C4A64038  15.846  41.646   7.346
 5076POPC   C1B64039  15.567  41.701   6.185
 5076POPC   C2B64040  15.686  41.588   6.591
 5076POPC   C3B64041  15.617  41.866   6.938
 5076POPC   C4B64042  15.403  41.925   7.331
 5077POPC   NC364043  24.981  32.864   5.147
 5077POPC   PO464044  25.107  33.438   5.422
 5077POPC   GL164045  25.137  33.095   5.690
 5077POPC   GL264046  24.923  32.797   5.696
 5077POPC   C1A64047  25.327  32.895   6.022
 5077POPC   D2A64048  25.235  32.905   6.486
 5077POPC   C3A64049  25.492  32.997   6.832
 5077POPC   C4A64050  25.404  32.957   7.253
 5077POPC   C1B64051  24.832  32.879   6.156
 5077POPC   C2B64052  24.756  32.793   6.616
 5077POPC   C3B64053  24.972  33.027   6.952
 5077POPC   C4B64054  24.922  33.021   7.397
 5078POPC   NC364055  17.647  17.473   5.397
 5078POPC   PO464056  17.027  17.683   5.346
 5078POPC   GL164057  17.296  17.722   5.717
 5078POPC   GL264058  17.632  17.885   5.694
 5078POPC   C1A64059  17.230  17.482   6.098
 5078POPC   D2A64060  17.093  17.246   6.458
 5078POPC   C3A64061  17.234  17.400   6.858
 5078POPC   C4A64062  17.346  17.375   7.275
 5078POPC   C1B64063  17.573  17.846   6.139
 5078POPC   C2B64064  17.583  17.560   6.503
 5078POPC   C3B64065  17.743  17.532   6.940
 5078POPC   C4B64066  17.620  17.835   7.261
 5079POPC   NC364067  24.348  28.887   5.119
 5079POPC   PO464068  24.754  28.444   5.476
 5079POPC   GL164069  24.606  28.225   5.839
 5079POPC   GL264070  24.292  28.346   5.900
 5079POPC   C1A64071  24.701  28.330   6.278
 5079POPC   D2A64072  24.649  28.629   6.628
 5079POPC   C3A64073  24.811  28.540   6.995
 5079POPC   C4A64074  24.802  28.177   7.154
 5079POPC   C1B64075  24.286  28.658   6.264
 5079POPC   C2B64076  24.133  28.672   6.712
 5079POPC   C3B64077  24.326  28.565   7.140
 5079POPC   C4B64078  24.305  28.686   7.581
 5080POPC   NC364079  41.251  20.430   5.408
 5080POPC   PO464080  40.674  20.835   5.413
 5080POPC   GL164081  40.901  20.579   5.763
 5080POPC   GL264082  41.062  20.231   5.835
 5080POPC   C1A64083  40.824  20.524   6.216
 5080POPC   D2A64084  40.584  20.445   6.598
 5080POPC   C3A64085  40.759  20.733   6.884
 5080POPC   C4A64086  40.748  20.729   7.335
 5080POPC   C1B64087  41.243  20.238   6.250
 5080POPC   C2B64088  41.081  20.348   6.676
 5080POPC   C3B64089  41.200  20.534   7.100
 5080POPC   C4B64090  41.116  20.444   7.511
 5081POPC   NC364091  41.101  26.622   5.335
 5081POPC   PO464092  41.685  26.875   5.379
 5081POPC   GL164093  41.740  26.973   5.828
 5081POPC   GL264094  41.992  27.217   5.901
 5081POPC   C1A64095  41.493  26.915   6.217
 5081POPC   D2A64096  41.255  26.795   6.564
 5081POPC   C3A64097  41.315  27.039   6.924
 5081POPC   C4A64098  41.443  26.759   7.195
 5081POPC   C1B64099  41.980  27.093   6.327
 5081POPC   C2B64100  41.784  27.182   6.726
 5081POPC   C3B64101  41.855  27.077   7.171
 5081POPC   C4B64102  41.750  27.173   7.629
 5082POPC   NC364103  33.880  12.428   5.411
 5082POPC   PO464104  33.416  12.004   5.548
 5082POPC   GL164105  33.792  12.093   5.797
 5082POPC   GL264106  34.091  11.837   5.826
 5082POPC   C1A64107  33.847  12.036   6.215
 5082POPC   D2A64108  33.589  11.840   6.505
 5082POPC   C3A64109  33.587  12.097   6.813
 5082POPC   C4A64110  33.741  12.113   7.195
 5082POPC   C1B64111  34.349  11.835   6.155
 5082POPC   C2B64112  34.216  11.965   6.580
 5082POPC   C3B64113  34.085  11.784   6.963
 5082POPC   C4B64114  33.991  11.714   7.413
 5083POPC   NC364115  15.071  17.019   5.439
 5083POPC   PO464116  15.462  16.452   5.411
 5083POPC   GL164117  15.222  16.607   5.778
 5083POPC   GL264118  14.929  16.450   5.929
 5083POPC   C1A64119  15.206  16.780   6.228
 5083POPC   D2A64120  15.333  17.031   6.611
 5083POPC   C3A64121  15.260  16.837   7.031
 5083POPC   C4A64122  15.208  16.942   7.482
 5083POPC   C1B64123  14.849  16.268   6.292
 5083POPC   C2B64124  14.981  16.522   6.633
 5083POPC   C3B64125  14.874  16.491   7.037
 5083POPC   C4B64126  15.069  16.473   7.399
 5084POPC   NC364127  30.416  42.407   5.317
 5084POPC   PO464128  30.429  41.783   5.497
 5084POPC   GL164129  30.584  42.178   5.749
 5084POPC   GL264130  30.905  42.413   5.780
 5084POPC   C1A64131  30.524  42.390   6.149
 5084POPC   D2A64132  30.337  42.151   6.480
 5084POPC   C3A64133  30.485  42.185   6.889
 5084POPC   C4A64134  30.800  42.127   7.164
 5084POPC   C1B64135  30.964  42.126   6.144
 5084POPC   C2B64136  30.918  42.233   6.576
 5084POPC   C3B64137  31.066  42.469   6.907
 5084POPC   C4B64138  31.185  42.519   7.318
 5085POPC   NC364139  39.230  41.986   5.358
 5085POPC   PO464140  39.167  41.321   5.203
 5085POPC   GL164141  39.275  41.538   5.596
 5085POPC   GL264142  38.945  41.548   5.697
 5085POPC   C1A64143  39.347  41.647   6.050
 5085POPC   D2A64144  39.288  41.700   6.521
 5085POPC   C3A64145  39.425  41.529   6.930
 5085POPC   C4A64146  39.152  41.526   7.317
 5085POPC   C1B64147  38.895  41.418   6.136
 5085POPC   C2B64148  38.754  41.626   6.506
 5085POPC   C3B64149  38.822  41.651   6.948
 5085POPC   C4B64150  38.701  41.730   7.432
 5086POPC   NC364151  32.131  21.853   5.602
 5086POPC   PO464152  31.612  22.031   5.228
 5086POPC   GL164153  31.582  22.081   5.697
 5086POPC   GL264154  31.647  22.449   5.765
 5086POPC   C1A64155  31.334  22.040   6.104
 5086POPC   D2A64156  31.544  21.944   6.484
 5086POPC   C3A64157  31.431  22.067   6.886
 5086POPC   C4A64158  31.484  21.889   7.269
 5086POPC   C1B64159  31.731  22.363   6.197
 5086POPC   C2B64160  31.816  22.350   6.652
 5086POPC   C3B64161  31.732  22.479   7.061
 5086POPC   C4B64162  31.803  22.320   7.455
 5087POPC   NC364163  12.662  21.175   5.410
 5087POPC   PO464164  12.835  21.773   5.148
 5087POPC   GL164165  12.902  21.561   5.634
 5087POPC   GL264166  13.137  21.458   5.807
 5087POPC   C1A64167  12.752  21.342   6.127
 5087POPC   D2A64168  12.526  21.233   6.585
 5087POPC   C3A64169  12.760  21.134   7.018
 5087POPC   C4A64170  12.904  21.338   7.412
 5087POPC   C1B64171  13.259  21.318   6.211
 5087POPC   C2B64172  13.058  21.281   6.610
 5087POPC   C3B64173  13.264  21.144   6.997
 5087POPC   C4B64174  13.436  21.442   7.259
 5088POPC   NC364175  14.759  22.321   5.425
 5088POPC   PO464176  14.329  21.815   5.459
 5088POPC   GL164177  14.498  22.025   5.799
 5088POPC   GL264178  14.314  22.343   5.737
 5088POPC   C1A64179  14.663  21.787   6.169
 5088POPC   D2A64180  14.900  21.814   6.552
 5088POPC   C3A64181  14.679  21.986   6.930
 5088POPC   C4A64182  14.258  21.902   7.110
 5088POPC   C1B64183  14.023  22.435   6.082
 5088POPC   C2B64184  13.937  22.497   6.526
 5088POPC   C3B64185  14.092  22.575   6.956
 5088POPC   C4B64186  14.272  22.390   7.335
 5089POPC   NC364187  34.933  11.198   5.051
 5089POPC   PO464188  35.093  11.608   5.615
 5089POPC   GL164189  35.417  11.424   5.884
 5089POPC   GL264190  35.520  11.071   5.866
 5089POPC   C1A64191  35.386  11.451   6.310
 5089POPC   D2A64192  35.206  11.699   6.620
 5089POPC   C3A64193  35.209  11.433   6.961
 5089POPC   C4A64194  35.574  11.346   7.177
 5089POPC   C1B64195  35.295  10.974   6.268
 5089POPC   C2B64196  35.420  11.072   6.678
 5089POPC   C3B64197  35.328  10.918   7.081
 5089POPC   C4B64198  35.094  10.656   7.332
 5090POPC   NC364199  28.659  33.969   5.125
 5090POPC   PO464200  29.281  33.880   5.378
 5090POPC   GL164201  29.368  33.710   5.749
 5090POPC   GL264202  29.134  33.920   5.901
 5090POPC   C1A64203  29.522  33.635   6.140
 5090POPC   D2A64204  29.371  33.549   6.532
 5090POPC   C3A64205  29.493  33.871   6.827
 5090POPC   C4A64206  29.211  33.910   7.172
 5090POPC   C1B64207  28.956  33.705   6.227
 5090POPC   C2B64208  28.765  33.866   6.586
 5090POPC   C3B64209  28.718  34.034   6.986
 5090POPC   C4B64210  28.750  34.028   7.409
 5091POPC   NC364211  16.862  20.325   5.241
 5091POPC   PO464212  16.621  20.970   5.469
 5091POPC   GL164213  16.855  20.719   5.769
 5091POPC   GL264214  16.632  20.479   5.718
 5091POPC   C1A64215  16.906  20.456   6.159
 5091POPC   D2A64216  17.128  20.454   6.529
 5091POPC   C3A64217  16.916  20.337   6.891
 5091POPC   C4A64218  16.936  20.469   7.290
 5091POPC   C1B64219  16.439  20.663   6.121
 5091POPC   C2B64220  16.539  20.543   6.558
 5091POPC   C3B64221  16.458  20.601   7.010
 5091POPC   C4B64222  16.380  20.503   7.452
 5092POPC   NC364223  24.915  16.986   5.510
 5092POPC   PO464224  25.516  17.323   5.358
 5092POPC   GL164225  25.392  17.431   5.763
 5092POPC   GL264226  25.070  17.570   5.661
 5092POPC   C1A64227  25.478  17.342   6.204
 5092POPC   D2A64228  25.631  17.610   6.574
 5092POPC   C3A64229  25.454  17.404   6.928
 5092POPC   C4A64230  25.361  17.294   7.361
 5092POPC   C1B64231  24.986  17.519   6.094
 5092POPC   C2B64232  25.118  17.501   6.520
 5092POPC   C3B64233  25.047  17.696   6.905
 5092POPC   C4B64234  24.920  17.675   7.318
 5093POPC   NC364235   1.703  37.413   5.358
 5093POPC   PO464236   1.888  37.999   5.213
 5093POPC   GL164237   1.949  37.826   5.657
 5093POPC   GL264238   1.994  37.481   5.799
 5093POPC   C1A64239   1.844  37.827   6.118
 5093POPC   D2A64240   1.963  37.922   6.540
 5093POPC   C3A64241   2.030  37.625   6.837
 5093POPC   C4A64242   1.727  37.733   7.131
 5093POPC   C1B64243   2.168  37.195   6.154
 5093POPC   C2B64244   2.341  37.235   6.583
 5093POPC   C3B64245   2.196  37.171   6.991
 5093POPC   C4B64246   1.972  37.362   7.373
 5094POPC   NC364247   4.828  13.899   5.372
 5094POPC   PO464248   5.165  13.227   5.423
 5094POPC   GL164249   5.028  13.531   5.703
 5094POPC   GL264250   5.341  13.695   5.795
 5094POPC   C1A64251   5.044  13.558   6.179
 5094POPC   D2A64252   5.179  13.715   6.602
 5094POPC   C3A64253   5.209  13.394   6.939
 5094POPC   C4A64254   5.039  13.324   7.371
 5094POPC   C1B64255   5.313  14.019   6.179
 5094POPC   C2B64256   5.430  14.177   6.619
 5094POPC   C3B64257   5.201  14.086   7.000
 5094POPC   C4B64258   4.865  13.750   7.067
 5095POPC   NC364259  31.638   7.598   5.333
 5095POPC   PO464260  31.175   7.160   5.401
 5095POPC   GL164261  31.464   7.267   5.720
 5095POPC   GL264262  31.313   7.591   5.755
 5095POPC   C1A64263  31.586   7.081   6.127
 5095POPC   D2A64264  31.415   7.247   6.543
 5095POPC   C3A64265  31.618   7.118   6.909
 5095POPC   C4A64266  31.822   7.282   7.244
 5095POPC   C1B64267  31.537   7.569   6.154
 5095POPC   C2B64268  31.809   7.586   6.513
 5095POPC   C3B64269  31.673   7.639   6.924
 5095POPC   C4B64270  31.329   7.499   7.190
 5096POPC   NC364271  35.128  35.429   5.389
 5096POPC   PO464272  35.683  35.724   5.443
 5096POPC   GL164273  35.484  35.348   5.744
 5096POPC   GL264274  35.196  35.527   5.871
 5096POPC   C1A64275  35.297  35.133   6.166
 5096POPC   D2A64276  35.393  35.010   6.613
 5096POPC   C3A64277  35.216  35.261   6.949
 5096POPC   C4A64278  35.292  35.292   7.401
 5096POPC   C1B64279  34.988  35.600   6.245
 5096POPC   C2B64280  34.928  35.864   6.610
 5096POPC   C3B64281  34.961  35.913   7.037
 5096POPC   C4B64282  34.920  35.586   7.267
 5097POPC   NC364283  23.048  11.650   5.244
 5097POPC   PO464284  22.638  11.204   5.468
 5097POPC   GL164285  23.028  11.292   5.719
 5097POPC   GL264286  23.197  11.643   5.753
 5097POPC   C1A64287  23.077  11.192   6.157
 5097POPC   D2A64288  23.210  11.417   6.501
 5097POPC   C3A64289  23.051  11.221   6.878
 5097POPC   C4A64290  22.954  11.379   7.281
 5097POPC   C1B64291  22.857  11.654   6.065
 5097POPC   C2B64292  22.677  11.451   6.442
 5097POPC   C3B64293  22.600  11.477   6.898
 5097POPC   C4B64294  22.487  11.184   7.230
 5098POPC   NC364295   2.910  34.750   5.038
 5098POPC   PO464296   2.391  34.739   5.508
 5098POPC   GL164297   2.471  34.573   5.896
 5098POPC   GL264298   2.426  34.223   5.833
 5098POPC   C1A64299   2.568  34.704   6.338
 5098POPC   D2A64300   2.565  34.511   6.741
 5098POPC   C3A64301   2.803  34.572   7.086
 5098POPC   C4A64302   2.948  34.800   7.408
 5098POPC   C1B64303   2.637  34.188   6.273
 5098POPC   C2B64304   2.621  33.991   6.707
 5098POPC   C3B64305   2.494  34.154   7.102
 5098POPC   C4B64306   2.705  34.212   7.458
 5099POPC   NC364307  26.418  35.792   5.075
 5099POPC   PO464308  26.941  35.518   5.293
 5099POPC   GL164309  26.906  35.375   5.734
 5099POPC   GL264310  26.833  35.022   5.779
 5099POPC   C1A64311  26.944  35.423   6.188
 5099POPC   D2A64312  26.967  35.162   6.561
 5099POPC   C3A64313  26.977  35.448   6.902
 5099POPC   C4A64314  26.698  35.651   7.205
 5099POPC   C1B64315  26.504  35.190   6.084
 5099POPC   C2B64316  26.480  35.126   6.542
 5099POPC   C3B64317  26.501  35.236   6.987
 5099POPC   C4B64318  26.455  34.992   7.412
 5100POPC   NC364319  17.971  21.465   5.422
 5100POPC   PO464320  17.282  21.624   5.282
 5100POPC   GL164321  17.351  21.549   5.731
 5100POPC   GL264322  17.568  21.240   5.790
 5100POPC   C1A64323  17.347  21.492   6.179
 5100POPC   D2A64324  17.550  21.356   6.529
 5100POPC   C3A64325  17.259  21.238   6.842
 5100POPC   C4A64326  17.373  21.379   7.233
 5100POPC   C1B64327  17.757  20.962   6.126
 5100POPC   C2B64328  17.913  20.980   6.558
 5100POPC   C3B64329  17.748  21.143   6.967
 5100POPC   C4B64330  17.652  21.016   7.441
 5101POPC   NC364331  29.386  16.807   5.302
 5101POPC   PO464332  28.844  16.939   5.692
 5101POPC   GL164333  29.182  16.825   5.907
 5101POPC   GL264334  29.104  16.495   5.894
 5101POPC   C1A64335  29.240  16.787   6.368
 5101POPC   D2A64336  29.111  16.598   6.778
 5101POPC   C3A64337  29.084  16.891   7.140
 5101POPC   C4A64338  28.873  17.282   7.231
 5101POPC   C1B64339  29.506  16.418   6.127
 5101POPC   C2B64340  29.663  16.551   6.506
 5101POPC   C3B64341  29.617  16.443   6.934
 5101POPC   C4B64342  29.288  16.382   7.213
 5102POPC   NC364343  39.597   5.317   5.228
 5102POPC   PO464344  39.072   5.222   5.684
 5102POPC   GL164345  39.140   4.962   5.983
 5102POPC   GL264346  38.863   5.077   6.163
 5102POPC   C1A64347  39.333   5.001   6.375
 5102POPC   D2A64348  39.087   4.890   6.701
 5102POPC   C3A64349  39.364   4.941   7.008
 5102POPC   C4A64350  39.379   4.891   7.423
 5102POPC   C1B64351  39.095   5.458   6.285
 5102POPC   C2B64352  39.220   5.481   6.676
 5102POPC   C3B64353  39.045   5.316   7.032
 5102POPC   C4B64354  39.317   5.408   7.319
 5103POPC   NC364355  38.685   2.861   5.420
 5103POPC   PO464356  39.353   2.693   5.371
 5103POPC   GL164357  39.341   2.684   5.757
 5103POPC   GL264358  39.110   2.977   5.747
 5103POPC   C1A64359  39.513   2.410   6.059
 5103POPC   D2A64360  39.549   2.398   6.511
 5103POPC   C3A64361  39.474   2.762   6.766
 5103POPC   C4A64362  39.275   2.641   7.144
 5103POPC   C1B64363  39.135   2.829   6.197
 5103POPC   C2B64364  39.016   3.001   6.579
 5103POPC   C3B64365  39.125   3.112   7.002
 5103POPC   C4B64366  38.954   2.929   7.401
 5104POPC   NC364367  32.497  19.462   5.365
 5104POPC   PO464368  31.941  19.779   5.438
 5104POPC   GL164369  32.114  19.569   5.776
 5104POPC   GL264370  32.450  19.723   5.800
 5104POPC   C1A64371  32.187  19.665   6.232
 5104POPC   D2A64372  32.127  19.983   6.547
 5104POPC   C3A64373  32.046  19.767   6.939
 5104POPC   C4A64374  32.246  19.381   7.023
 5104POPC   C1B64375  32.671  19.949   6.119
 5104POPC   C2B64376  32.788  20.073   6.535
 5104POPC   C3B64377  32.518  20.059   6.878
 5104POPC   C4B64378  32.489  19.815   7.223
 5105POPC   NC364379   6.729  17.270   5.398
 5105POPC   PO464380   6.957  17.918   5.454
 5105POPC   GL164381   6.769  17.880   5.850
 5105POPC   GL264382   6.569  17.549   5.829
 5105POPC   C1A64383   6.732  17.756   6.270
 5105POPC   D2A64384   6.481  17.549   6.531
 5105POPC   C3A64385   6.750  17.579   6.869
 5105POPC   C4A64386   6.713  17.518   7.288
 5105POPC   C1B64387   6.793  17.259   6.135
 5105POPC   C2B64388   6.792  17.143   6.585
 5105POPC   C3B64389   6.668  17.072   7.038
 5105POPC   C4B64390   6.694  17.075   7.521
 5106POPC   NC364391  34.626   7.929   5.335
 5106POPC   PO464392  34.713   8.606   5.497
 5106POPC   GL164393  34.705   8.352   5.852
 5106POPC   GL264394  34.523   8.026   5.834
 5106POPC   C1A64395  34.704   8.211   6.276
 5106POPC   D2A64396  34.742   7.893   6.552
 5106POPC   C3A64397  34.562   8.022   6.911
 5106POPC   C4A64398  34.541   8.175   7.298
 5106POPC   C1B64399  34.327   7.796   6.222
 5106POPC   C2B64400  34.215   7.708   6.705
 5106POPC   C3B64401  34.136   7.897   7.171
 5106POPC   C4B64402  34.352   7.827   7.624
 5107POPC   NC364403   1.508  33.849   5.330
 5107POPC   PO464404   2.158  33.778   5.364
 5107POPC   GL164405   2.006  33.892   5.757
 5107POPC   GL264406   1.722  33.662   5.785
 5107POPC   C1A64407   2.228  33.887   6.161
 5107POPC   D2A64408   2.243  33.625   6.524
 5107POPC   C3A64409   2.177  33.812   6.905
 5107POPC   C4A64410   2.188  33.730   7.321
 5107POPC   C1B64411   1.761  33.708   6.238
 5107POPC   C2B64412   1.766  33.968   6.621
 5107POPC   C3B64413   1.703  33.920   7.045
 5107POPC   C4B64414   1.700  33.526   7.245
 5108POPC   NC364415  36.965   4.642   5.334
 5108POPC   PO464416  37.199   5.290   5.433
 5108POPC   GL164417  36.973   5.120   5.806
 5108POPC   GL264418  36.663   4.902   5.716
 5108POPC   C1A64419  36.976   5.341   6.221
 5108POPC   D2A64420  37.195   5.336   6.606
 5108POPC   C3A64421  37.080   5.050   6.939
 5108POPC   C4A64422  36.890   5.229   7.284
 5108POPC   C1B64423  36.549   5.088   6.135
 5108POPC   C2B64424  36.707   4.967   6.550
 5108POPC   C3B64425  36.555   4.991   6.977
 5108POPC   C4B64426  36.712   4.766   7.357
 5109POPC   NC364427  34.199  42.012   5.357
 5109POPC   PO464428  34.562  41.419   5.461
 5109POPC   GL164429  34.646  41.511   5.835
 5109POPC   GL264430  34.684  41.854   5.723
 5109POPC   C1A64431  34.441  41.398   6.203
 5109POPC   D2A64432  34.626  41.185   6.555
 5109POPC   C3A64433  34.401  41.208   6.933
 5109POPC   C4A64434  34.381  41.444   7.287
 5109POPC   C1B64435  34.706  41.904   6.174
 5109POPC   C2B64436  34.644  41.681   6.584
 5109POPC   C3B64437  34.628  41.785   6.997
 5109POPC   C4B64438  34.746  41.804   7.426
 5110POPC   NC364439  30.546  27.085   5.325
 5110POPC   PO464440  31.079  26.645   5.457
 5110POPC   GL164441  30.816  26.898   5.762
 5110POPC   GL264442  30.459  26.790   5.761
 5110POPC   C1A64443  30.875  27.077   6.194
 5110POPC   D2A64444  30.975  26.817   6.568
 5110POPC   C3A64445  31.010  26.993   6.960
 5110POPC   C4A64446  30.761  27.061   7.301
 5110POPC   C1B64447  30.524  26.713   6.213
 5110POPC   C2B64448  30.476  26.968   6.596
 5110POPC   C3B64449  30.360  27.114   6.989
 5110POPC   C4B64450  30.281  26.875   7.342
 5111POPC   NC364451  16.758  38.843   5.298
 5111POPC   PO464452  16.556  39.455   5.241
 5111POPC   GL164453  16.602  39.364   5.689
 5111POPC   GL264454  16.472  39.657   5.818
 5111POPC   C1A64455  16.605  39.182   6.144
 5111POPC   D2A64456  16.505  39.206   6.615
 5111POPC   C3A64457  16.832  39.081   6.943
 5111POPC   C4A64458  17.001  39.199   7.367
 5111POPC   C1B64459  16.877  39.610   6.111
 5111POPC   C2B64460  16.985  39.462   6.556
 5111POPC   C3B64461  16.953  39.570   6.980
 5111POPC   C4B64462  16.587  39.492   7.230
 5112POPC   NC364463  43.709  15.655   5.336
 5112POPC   PO464464  44.206  16.118   5.390
 5112POPC   GL164465  44.107  15.880   5.751
 5112POPC   GL264466  43.731  15.912   5.793
 5112POPC   C1A64467  44.012  15.808   6.196
 5112POPC   D2A64468  43.984  16.030   6.587
 5112POPC   C3A64469  43.804  15.897   6.969
 5112POPC   C4A64470  44.075  15.808   7.289
 5112POPC   C1B64471  43.649  16.161   6.182
 5112POPC   C2B64472  43.555  16.310   6.604
 5112POPC   C3B64473  43.649  16.372   7.053
 5112POPC   C4B64474  43.581  16.141   7.461
 5113POPC   NC364475  19.203   0.146   5.508
 5113POPC   PO464476  18.727   0.642   5.531
 5113POPC   GL164477  19.060   0.572   5.855
 5113POPC   GL264478  19.434   0.614   5.849
 5113POPC   C1A64479  19.027   0.557   6.307
 5113POPC   D2A64480  18.889   0.322   6.643
 5113POPC   C3A64481  18.996   0.595   6.944
 5113POPC   C4A64482  18.973   0.506   7.368
 5113POPC   C1B64483  19.427   0.276   6.189
 5113POPC   C2B64484  19.423   0.330   6.672
 5113POPC   C3B64485  19.267   0.163   7.091
 5113POPC   C4B64486  19.316   0.182   7.571
 5114POPC   NC364487  42.639  29.502   5.045
 5114POPC   PO464488  42.341  30.066   5.414
 5114POPC   GL164489  42.051  30.014   5.800
 5114POPC   GL264490  42.044  29.659   5.864
 5114POPC   C1A64491  42.045  30.035   6.235
 5114POPC   D2A64492  42.353  29.903   6.534
 5114POPC   C3A64493  42.461  30.079   6.958
 5114POPC   C4A64494  42.723  29.787   7.198
 5114POPC   C1B64495  41.962  29.429   6.239
 5114POPC   C2B64496  41.883  29.613   6.647
 5114POPC   C3B64497  42.225  29.641   6.955
 5114POPC   C4B64498  42.270  29.826   7.369
 5115POPC   NC364499  15.608  23.324   5.608
 5115POPC   PO464500  16.033  22.961   5.214
 5115POPC   GL164501  15.975  22.930   5.672
 5115POPC   GL264502  16.300  23.088   5.739
 5115POPC   C1A64503  15.884  22.782   6.114
 5115POPC   D2A64504  16.095  22.852   6.527
 5115POPC   C3A64505  15.991  22.743   6.965
 5115POPC   C4A64506  16.259  22.734   7.355
 5115POPC   C1B64507  16.046  23.255   6.070
 5115POPC   C2B64508  15.767  23.238   6.410
 5115POPC   C3B64509  15.817  23.206   6.848
 5115POPC   C4B64510  15.983  23.194   7.225
 5116POPC   NC364511  19.504   1.741   5.699
 5116POPC   PO464512  20.019   1.926   5.317
 5116POPC   GL164513  19.860   2.141   5.729
 5116POPC   GL264514  20.172   2.249   5.864
 5116POPC   C1A64515  19.640   2.165   6.188
 5116POPC   D2A64516  19.839   2.204   6.630
 5116POPC   C3A64517  19.683   2.014   7.031
 5116POPC   C4A64518  19.556   2.302   7.295
 5116POPC   C1B64519  20.108   1.967   6.211
 5116POPC   C2B64520  20.114   1.764   6.590
 5116POPC   C3B64521  20.178   1.942   6.981
 5116POPC   C4B64522  20.055   1.833   7.396
 5117POPC   NC364523  31.307  22.379   5.387
 5117POPC   PO464524  31.653  22.963   5.610
 5117POPC   GL164525  31.644  22.918   5.994
 5117POPC   GL264526  31.283  23.014   5.988
 5117POPC   C1A64527  31.673  22.828   6.413
 5117POPC   D2A64528  31.336  22.948   6.666
 5117POPC   C3A64529  31.483  22.940   7.062
 5117POPC   C4A64530  31.514  22.798   7.450
 5117POPC   C1B64531  31.257  22.576   6.093
 5117POPC   C2B64532  31.306  22.418   6.512
 5117POPC   C3B64533  31.203  22.524   6.945
 5117POPC   C4B64534  31.314  22.361   7.340
 5118POPC   NC364535   7.185  34.884   5.445
 5118POPC   PO464536   7.612  34.364   5.248
 5118POPC   GL164537   7.504  34.483   5.649
 5118POPC   GL264538   7.137  34.432   5.748
 5118POPC   C1A64539   7.585  34.404   6.080
 5118POPC   D2A64540   7.339  34.435   6.447
 5118POPC   C3A64541   7.447  34.308   6.836
 5118POPC   C4A64542   7.628  34.514   7.171
 5118POPC   C1B64543   6.974  34.624   6.137
 5118POPC   C2B64544   6.971  34.802   6.544
 5118POPC   C3B64545   7.050  34.666   6.959
 5118POPC   C4B64546   7.235  34.884   7.310
 5119POPC   NC364547   8.467   8.418   5.606
 5119POPC   PO464548   7.986   7.935   5.363
 5119POPC   GL164549   8.074   8.063   5.760
 5119POPC   GL264550   7.987   8.398   5.785
 5119POPC   C1A64551   8.273   8.001   6.149
 5119POPC   D2A64552   8.372   8.106   6.572
 5119POPC   C3A64553   8.273   7.901   6.954
 5119POPC   C4A64554   8.512   7.882   7.326
 5119POPC   C1B64555   8.127   8.496   6.203
 5119POPC   C2B64556   8.250   8.594   6.614
 5119POPC   C3B64557   8.320   8.408   6.998
 5119POPC   C4B64558   8.052   8.508   7.319
 5120POPC   NC364559  37.366  40.168   5.344
 5120POPC   PO464560  37.952  39.950   5.262
 5120POPC   GL164561  37.721  39.984   5.664
 5120POPC   GL264562  37.873  39.780   5.894
 5120POPC   C1A64563  37.551  40.221   6.035
 5120POPC   D2A64564  37.612  40.363   6.479
 5120POPC   C3A64565  37.552  40.064   6.824
 5120POPC   C4A64566  37.672  39.990   7.233
 5120POPC   C1B64567  37.767  39.867   6.349
 5120POPC   C2B64568  37.902  39.691   6.761
 5120POPC   C3B64569  37.889  39.543   7.187
 5120POPC   C4B64570  37.714  39.501   7.606
 5121POPC   NC364571  28.114  15.741   5.452
 5121POPC   PO464572  27.479  15.974   5.337
 5121POPC   GL164573  27.591  15.963   5.797
 5121POPC   GL264574  27.941  16.093   5.854
 5121POPC   C1A64575  27.499  16.010   6.262
 5121POPC   D2A64576  27.606  16.143   6.692
 5121POPC   C3A64577  27.302  16.036   7.023
 5121POPC   C4A64578  27.210  16.096   7.475
 5121POPC   C1B64579  27.874  15.660   6.088
 5121POPC   C2B64580  27.815  15.372   6.445
 5121POPC   C3B64581  27.861  15.419   6.889
 5121POPC   C4B64582  27.803  15.836   7.093
 5122POPC   NC364583  13.096  36.182   5.494
 5122POPC   PO464584  12.721  35.618   5.492
 5122POPC   GL164585  12.923  35.833   5.847
 5122POPC   GL264586  12.747  36.134   5.851
 5122POPC   C1A64587  12.762  35.861   6.288
 5122POPC   D2A64588  12.881  35.755   6.702
 5122POPC   C3A64589  12.887  36.037   7.066
 5122POPC   C4A64590  12.691  35.923   7.457
 5122POPC   C1B64591  12.961  36.357   6.158
 5122POPC   C2B64592  12.875  36.298   6.567
 5122POPC   C3B64593  12.761  36.521   6.913
 5122POPC   C4B64594  13.084  36.569   7.171
 5123POPC   NC364595  10.642  17.703   5.414
 5123POPC   PO464596  10.020  17.592   5.367
 5123POPC   GL164597  10.262  17.576   5.760
 5123POPC   GL264598  10.585  17.427   5.821
 5123POPC   C1A64599  10.392  17.736   6.164
 5123POPC   D2A64600  10.462  17.947   6.546
 5123POPC   C3A64601  10.330  17.697   6.911
 5123POPC   C4A64602  10.464  17.544   7.303
 5123POPC   C1B64603  10.874  17.268   6.091
 5123POPC   C2B64604  10.675  17.446   6.485
 5123POPC   C3B64605  10.773  17.393   6.897
 5123POPC   C4B64606  10.788  17.165   7.294
 5124POPC   NC364607  29.602  23.515   5.249
 5124POPC   PO464608  29.043  23.910   5.185
 5124POPC   GL164609  29.129  23.607   5.562
 5124POPC   GL264610  28.873  23.331   5.704
 5124POPC   C1A64611  29.140  23.674   6.013
 5124POPC   D2A64612  29.128  23.846   6.459
 5124POPC   C3A64613  29.265  23.627   6.854
 5124POPC   C4A64614  29.193  23.807   7.239
 5124POPC   C1B64615  28.739  23.361   6.160
 5124POPC   C2B64616  28.840  23.453   6.628
 5124POPC   C3B64617  28.875  23.373   7.095
 5124POPC   C4B64618  28.629  23.345   7.484
 5125POPC   NC364619  19.510   5.873   5.400
 5125POPC   PO464620  19.704   6.437   5.619
 5125POPC   GL164621  19.847   6.047   5.775
 5125POPC   GL264622  19.558   6.027   5.940
 5125POPC   C1A64623  20.041   5.816   6.119
 5125POPC   D2A64624  20.072   5.570   6.513
 5125POPC   C3A64625  20.026   5.768   6.929
 5125POPC   C4A64626  19.984   6.006   7.306
 5125POPC   C1B64627  19.526   5.690   6.239
 5125POPC   C2B64628  19.568   5.639   6.682
 5125POPC   C3B64629  19.535   5.834   7.089
 5125POPC   C4B64630  19.570   5.773   7.527
 5126POPC   NC364631  44.392  28.584   4.969
 5126POPC   PO464632  44.687  28.457   5.558
 5126POPC   GL164633  44.723  28.256   5.920
 5126POPC   GL264634  44.770  27.920   5.813
 5126POPC   C1A64635  44.757  28.352   6.343
 5126POPC   D2A64636  44.546  28.309   6.729
 5126POPC   C3A64637  44.659  28.634   6.979
 5126POPC   C4A64638  44.670  28.714   7.395
 5126POPC   C1B64639  44.945  27.896   6.229
 5126POPC   C2B64640   0.034  27.980   6.612
 5126POPC   C3B64641  44.858  27.977   6.970
 5126POPC   C4B64642  44.683  28.174   7.269
 5127POPC   NC364643  32.995  30.429   5.396
 5127POPC   PO464644  32.712  31.014   5.369
 5127POPC   GL164645  32.891  30.882   5.753
 5127POPC   GL264646  33.090  30.606   5.854
 5127POPC   C1A64647  32.705  30.684   6.143
 5127POPC   D2A64648  32.890  30.459   6.406
 5127POPC   C3A64649  32.871  30.550   6.848
 5127POPC   C4A64650  32.887  30.256   7.174
 5127POPC   C1B64651  33.340  30.409   6.159
 5127POPC   C2B64652  33.365  30.606   6.542
 5127POPC   C3B64653  33.361  30.432   6.926
 5127POPC   C4B64654  33.383  30.669   7.245
 5128POPC   NC364655  42.565   5.049   5.208
 5128POPC   PO464656  41.892   4.797   5.440
 5128POPC   GL164657  42.290   4.959   5.667
 5128POPC   GL264658  42.216   5.264   5.881
 5128POPC   C1A64659  42.533   4.933   6.059
 5128POPC   D2A64660  42.431   5.028   6.478
 5128POPC   C3A64661  42.540   4.862   6.885
 5128POPC   C4A64662  42.673   4.994   7.298
 5128POPC   C1B64663  42.462   5.479   6.238
 5128POPC   C2B64664  42.567   5.463   6.700
 5128POPC   C3B64665  42.471   5.446   7.135
 5128POPC   C4B64666  42.099   5.519   7.403
 5129POPC   NC364667  16.787   3.052   5.365
 5129POPC   PO464668  16.480   2.437   5.442
 5129POPC   GL164669  16.547   2.759   5.716
 5129POPC   GL264670  16.895   2.780   5.794
 5129POPC   C1A64671  16.504   3.028   6.033
 5129POPC   D2A64672  16.488   3.111   6.451
 5129POPC   C3A64673  16.662   3.011   6.810
 5129POPC   C4A64674  16.560   2.869   7.163
 5129POPC   C1B64675  16.743   2.638   6.217
 5129POPC   C2B64676  16.859   2.576   6.619
 5129POPC   C3B64677  16.891   2.514   7.031
 5129POPC   C4B64678  17.008   2.721   7.407
 5130POPC   NC364679  11.713  22.592   5.446
 5130POPC   PO464680  11.297  23.091   5.279
 5130POPC   GL164681  11.148  23.015   5.707
 5130POPC   GL264682  10.828  23.139   5.783
 5130POPC   C1A64683  11.314  23.047   6.149
 5130POPC   D2A64684  11.647  22.905   6.462
 5130POPC   C3A64685  11.590  23.091   6.872
 5130POPC   C4A64686  11.360  22.997   7.222
 5130POPC   C1B64687  10.848  22.840   6.161
 5130POPC   C2B64688  11.103  22.759   6.564
 5130POPC   C3B64689  10.950  22.754   7.012
 5130POPC   C4B64690  10.808  22.999   7.372
 5131POPC   NC364691  37.049  36.262   5.440
 5131POPC   PO464692  36.512  35.990   5.414
 5131POPC   GL164693  36.829  35.828   5.742
 5131POPC   GL264694  37.132  36.004   5.892
 5131POPC   C1A64695  36.827  35.797   6.230
 5131POPC   D2A64696  37.126  35.816   6.602
 5131POPC   C3A64697  36.944  36.017   6.986
 5131POPC   C4A64698  36.893  36.121   7.449
 5131POPC   C1B64699  37.142  36.242   6.301
 5131POPC   C2B64700  37.343  36.269   6.732
 5131POPC   C3B64701  37.207  36.442   7.156
 5131POPC   C4B64702  36.866  36.656   7.407
 5132POPC   NC364703  10.822  39.732   5.443
 5132POPC   PO464704  10.251  40.094   5.384
 5132POPC   GL164705  10.366  40.191   5.823
 5132POPC   GL264706  10.701  40.305   5.907
 5132POPC   C1A64707  10.519  39.914   6.213
 5132POPC   D2A64708  10.718  39.640   6.577
 5132POPC   C3A64709  10.506  39.721   7.000
 5132POPC   C4A64710  10.232  40.094   7.202
 5132POPC   C1B64711  10.704  40.376   6.375
 5132POPC   C2B64712  10.834  40.133   6.753
 5132POPC   C3B64713  10.746  40.116   7.200
 5132POPC   C4B64714  10.564  40.170   7.655
 5133POPC   NC364715  33.282  26.332   5.272
 5133POPC   PO464716  32.634  26.231   5.287
 5133POPC   GL164717  32.912  26.224   5.635
 5133POPC   GL264718  32.900  25.856   5.651
 5133POPC   C1A64719  32.947  26.342   6.102
 5133POPC   D2A64720  32.932  26.562   6.523
 5133POPC   C3A64721  33.092  26.284   6.870
 5133POPC   C4A64722  33.115  26.129   7.300
 5133POPC   C1B64723  32.881  25.840   6.121
 5133POPC   C2B64724  32.930  25.824   6.598
 5133POPC   C3B64725  32.869  25.751   7.072
 5133POPC   C4B64726  33.040  25.653   7.530
 5134POPC   NC364727  44.858  41.927   5.522
 5134POPC   PO464728  44.625  41.349   5.429
 5134POPC   GL164729  44.603  41.579   5.803
 5134POPC   GL264730  44.953  41.537   5.863
 5134POPC   C1A64731  44.687  41.837   6.204
 5134POPC   D2A64732  44.759  41.627   6.612
 5134POPC   C3A64733  44.509  41.707   6.986
 5134POPC   C4A64734  44.342  41.458   7.349
 5134POPC   C1B64735   0.056  41.233   6.202
 5134POPC   C2B64736   0.152  41.282   6.652
 5134POPC   C3B64737  44.938  41.346   7.060
 5134POPC   C4B64738  44.774  41.156   7.452
 5135POPC   NC364739  10.081  10.196   5.392
 5135POPC   PO464740  10.796   9.996   5.555
 5135POPC   GL164741  10.778   9.734   5.943
 5135POPC   GL264742  10.415   9.656   6.060
 5135POPC   C1A64743  10.828   9.662   6.385
 5135POPC   D2A64744  10.442   9.616   6.631
 5135POPC   C3A64745  10.433   9.947   6.877
 5135POPC   C4A64746  10.681   9.889   7.280
 5135POPC   C1B64747  10.548   9.269   6.282
 5135POPC   C2B64748  10.790   9.199   6.670
 5135POPC   C3B64749  10.620   9.231   7.071
 5135POPC   C4B64750  10.310   9.538   7.144
 5136POPC   NC364751   8.725  38.259   5.287
 5136POPC   PO464752   9.040  38.881   5.327
 5136POPC   GL164753   9.090  38.553   5.657
 5136POPC   GL264754   8.808  38.334   5.769
 5136POPC   C1A64755   9.081  38.580   6.138
 5136POPC   D2A64756   9.024  38.837   6.529
 5136POPC   C3A64757   9.065  38.625   6.917
 5136POPC   C4A64758   8.959  38.685   7.312
 5136POPC   C1B64759   8.636  38.335   6.174
 5136POPC   C2B64760   8.857  38.303   6.579
 5136POPC   C3B64761   8.685  38.280   7.006
 5136POPC   C4B64762   8.856  38.220   7.435
 5137POPC   NC364763   3.523  29.736   5.495
 5137POPC   PO464764   3.897  30.233   5.743
 5137POPC   GL164765   3.593  29.986   5.944
 5137POPC   GL264766   3.253  29.965   5.895
 5137POPC   C1A64767   3.534  29.759   6.290
 5137POPC   D2A64768   3.824  29.782   6.600
 5137POPC   C3A64769   3.743  29.678   6.996
 5137POPC   C4A64770   3.857  29.951   7.341
 5137POPC   C1B64771   3.155  30.093   6.348
 5137POPC   C2B64772   3.286  29.908   6.727
 5137POPC   C3B64773   3.404  30.022   7.126
 5137POPC   C4B64774   3.283  30.057   7.595
 5138POPC   NC364775  42.910   9.218   5.465
 5138POPC   PO464776  43.489   8.774   5.519
 5138POPC   GL164777  43.393   8.809   5.916
 5138POPC   GL264778  43.059   8.940   5.894
 5138POPC   C1A64779  43.449   9.030   6.275
 5138POPC   D2A64780  43.240   9.112   6.649
 5138POPC   C3A64781  43.308   8.861   6.997
 5138POPC   C4A64782  43.227   8.914   7.427
 5138POPC   C1B64783  42.885   9.128   6.279
 5138POPC   C2B64784  42.776   9.309   6.690
 5138POPC   C3B64785  42.978   9.271   7.107
 5138POPC   C4B64786  42.818   9.180   7.534
 5139POPC   NC364787  10.704  13.294   5.373
 5139POPC   PO464788  10.405  13.883   5.353
 5139POPC   GL164789  10.335  13.630   5.712
 5139POPC   GL264790  10.628  13.819   5.826
 5139POPC   C1A64791  10.244  13.717   6.162
 5139POPC   D2A64792  10.291  13.505   6.550
 5139POPC   C3A64793  10.162  13.595   6.932
 5139POPC   C4A64794  10.296  13.886   7.243
 5139POPC   C1B64795  10.751  13.631   6.195
 5139POPC   C2B64796  10.793  13.453   6.577
 5139POPC   C3B64797  10.685  13.667   6.951
 5139POPC   C4B64798  10.769  13.791   7.360
 5140POPC   NC364799  30.405  39.883   5.333
 5140POPC   PO464800  31.043  39.924   5.596
 5140POPC   GL164801  30.694  40.122   5.737
 5140POPC   GL264802  30.552  39.831   5.826
 5140POPC   C1A64803  30.639  40.238   6.166
 5140POPC   D2A64804  30.773  40.147   6.584
 5140POPC   C3A64805  30.502  40.171   6.949
 5140POPC   C4A64806  30.725  40.057   7.311
 5140POPC   C1B64807  30.557  39.732   6.285
 5140POPC   C2B64808  30.554  39.695   6.757
 5140POPC   C3B64809  30.362  39.716   7.204
 5140POPC   C4B64810  30.248  39.822   7.649
 5141POPC   NC364811   3.802   9.100   5.320
 5141POPC   PO464812   3.101   8.987   5.245
 5141POPC   GL164813   3.357   8.836   5.689
 5141POPC   GL264814   3.723   8.937   5.805
 5141POPC   C1A64815   3.406   8.841   6.209
 5141POPC   D2A64816   3.369   9.005   6.681
 5141POPC   C3A64817   3.608   8.864   7.080
 5141POPC   C4A64818   3.615   8.978   7.550
 5141POPC   C1B64819   3.593   9.311   6.065
 5141POPC   C2B64820   3.570   9.506   6.491
 5141POPC   C3B64821   3.717   9.357   6.893
 5141POPC   C4B64822   3.785   9.390   7.320
 5142POPC   NC364823  26.258  20.216   5.455
 5142POPC   PO464824  25.736  19.811   5.289
 5142POPC   GL164825  25.908  19.863   5.705
 5142POPC   GL264826  26.246  19.862   5.847
 5142POPC   C1A64827  25.804  19.862   6.145
 5142POPC   D2A64828  25.968  20.033   6.520
 5142POPC   C3A64829  25.769  19.984   6.910
 5142POPC   C4A64830  26.017  19.777   7.216
 5142POPC   C1B64831  26.224  19.607   6.255
 5142POPC   C2B64832  26.195  19.587   6.727
 5142POPC   C3B64833  26.507  19.640   7.070
 5142POPC   C4B64834  26.424  19.733   7.517
 5143POPC   NC364835  32.599   9.606   5.588
 5143POPC   PO464836  33.296   9.779   5.420
 5143POPC   GL164837  33.047   9.765   5.783
 5143POPC   GL264838  33.079   9.399   5.815
 5143POPC   C1A64839  32.864   9.647   6.195
 5143POPC   D2A64840  32.970   9.794   6.571
 5143POPC   C3A64841  32.858   9.602   6.921
 5143POPC   C4A64842  33.006   9.708   7.303
 5143POPC   C1B64843  33.417   9.244   6.146
 5143POPC   C2B64844  33.600   9.415   6.554
 5143POPC   C3B64845  33.386   9.489   6.953
 5143POPC   C4B64846  33.290   9.274   7.343
 5144POPC   NC364847  28.076  18.101   5.428
 5144POPC   PO464848  28.440  18.635   5.466
 5144POPC   GL164849  28.652  18.389   5.790
 5144POPC   GL264850  28.424  18.094   5.803
 5144POPC   C1A64851  28.521  18.332   6.243
 5144POPC   D2A64852  28.132  18.479   6.480
 5144POPC   C3A64853  28.229  18.587   6.910
 5144POPC   C4A64854  28.481  18.273   7.163
 5144POPC   C1B64855  28.048  18.079   6.100
 5144POPC   C2B64856  27.996  17.930   6.512
 5144POPC   C3B64857  28.034  18.101   6.916
 5144POPC   C4B64858  28.109  17.926   7.308
 5145POPC   NC364859  17.251  11.464   5.330
 5145POPC   PO464860  17.788  11.075   5.444
 5145POPC   GL164861  17.675  11.165   5.896
 5145POPC   GL264862  17.408  11.406   5.850
 5145POPC   C1A64863  17.466  10.972   6.267
 5145POPC   D2A64864  17.102  10.946   6.526
 5145POPC   C3A64865  17.122  10.792   6.957
 5145POPC   C4A64866  17.415  11.005   7.220
 5145POPC   C1B64867  17.467  11.470   6.329
 5145POPC   C2B64868  17.450  11.274   6.767
 5145POPC   C3B64869  17.537  11.510   7.179
 5145POPC   C4B64870  17.809  11.649   7.566
 5146POPC   NC364871  11.647  27.756   5.433
 5146POPC   PO464872  12.116  27.263   5.347
 5146POPC   GL164873  11.994  27.556   5.729
 5146POPC   GL264874  12.154  27.890   5.706
 5146POPC   C1A64875  11.911  27.637   6.189
 5146POPC   D2A64876  11.704  27.657   6.610
 5146POPC   C3A64877  11.907  27.565   6.991
 5146POPC   C4A64878  12.079  27.586   7.415
 5146POPC   C1B64879  12.401  27.793   6.104
 5146POPC   C2B64880  12.297  27.647   6.547
 5146POPC   C3B64881  12.431  27.649   6.989
 5146POPC   C4B64882  12.461  27.930   7.348
 5147POPC   NC364883   8.490   5.652   5.487
 5147POPC   PO464884   8.266   4.933   5.447
 5147POPC   GL164885   8.254   5.029   5.867
 5147POPC   GL264886   7.922   5.153   5.872
 5147POPC   C1A64887   8.431   4.938   6.288
 5147POPC   D2A64888   8.533   4.791   6.716
 5147POPC   C3A64889   8.486   5.113   7.036
 5147POPC   C4A64890   8.281   5.260   7.415
 5147POPC   C1B64891   8.049   5.283   6.278
 5147POPC   C2B64892   8.127   5.159   6.679
 5147POPC   C3B64893   8.017   5.392   7.026
 5147POPC   C4B64894   7.787   5.475   7.370
 5148POPC   NC364895  38.846  35.527   5.521
 5148POPC   PO464896  39.455  35.116   5.559
 5148POPC   GL164897  39.215  35.327   5.833
 5148POPC   GL264898  38.915  35.097   5.753
 5148POPC   C1A64899  39.350  35.413   6.279
 5148POPC   D2A64900  39.631  35.461   6.656
 5148POPC   C3A64901  39.434  35.441   7.059
 5148POPC   C4A64902  39.128  35.313   7.388
 5148POPC   C1B64903  38.799  35.308   6.143
 5148POPC   C2B64904  38.906  35.282   6.562
 5148POPC   C3B64905  38.876  35.488   6.966
 5148POPC   C4B64906  38.618  35.282   7.264
 5149POPC   NC364907  28.510  37.298   5.307
 5149POPC   PO464908  28.520  37.981   5.450
 5149POPC   GL164909  28.431  37.656   5.757
 5149POPC   GL264910  28.739  37.456   5.755
 5149POPC   C1A64911  28.310  37.610   6.218
 5149POPC   D2A64912  28.000  37.438   6.529
 5149POPC   C3A64913  28.151  37.675   6.857
 5149POPC   C4A64914  28.238  37.650   7.273
 5149POPC   C1B64915  28.721  37.302   6.191
 5149POPC   C2B64916  28.684  37.578   6.597
 5149POPC   C3B64917  28.689  37.565   7.052
 5149POPC   C4B64918  28.770  37.643   7.546
 5150POPC   NC364919  19.671   1.635   5.148
 5150POPC   PO464920  20.148   1.252   5.435
 5150POPC   GL164921  19.834   1.333   5.707
 5150POPC   GL264922  19.994   1.663   5.795
 5150POPC   C1A64923  19.617   1.080   6.040
 5150POPC   D2A64924  19.314   1.011   6.369
 5150POPC   C3A64925  19.462   0.854   6.748
 5150POPC   C4A64926  19.553   1.139   7.090
 5150POPC   C1B64927  19.908   1.469   6.202
 5150POPC   C2B64928  19.784   1.339   6.614
 5150POPC   C3B64929  19.895   1.513   6.988
 5150POPC   C4B64930  20.035   1.241   7.249
 5151POPC   NC364931   1.688  36.708   5.443
 5151POPC   PO464932   2.143  37.245   5.373
 5151POPC   GL164933   2.039  36.968   5.711
 5151POPC   GL264934   1.676  37.083   5.777
 5151POPC   C1A64935   1.931  36.748   6.109
 5151POPC   D2A64936   2.150  36.756   6.523
 5151POPC   C3A64937   1.897  36.773   6.889
 5151POPC   C4A64938   1.948  36.836   7.342
 5151POPC   C1B64939   1.660  37.276   6.167
 5151POPC   C2B64940   1.827  37.212   6.572
 5151POPC   C3B64941   1.688  37.226   6.985
 5151POPC   C4B64942   1.465  36.975   7.270
 5152POPC   NC364943  38.156  25.855   5.253
 5152POPC   PO464944  38.360  26.543   5.376
 5152POPC   GL164945  38.422  26.189   5.683
 5152POPC   GL264946  38.100  25.993   5.755
 5152POPC   C1A64947  38.397  26.162   6.166
 5152POPC   D2A64948  38.536  25.963   6.592
 5152POPC   C3A64949  38.531  26.250   6.969
 5152POPC   C4A64950  38.386  26.382   7.386
 5152POPC   C1B64951  38.168  25.675   6.099
 5152POPC   C2B64952  38.255  25.498   6.527
 5152POPC   C3B64953  38.284  25.614   6.948
 5152POPC   C4B64954  38.320  25.894   7.285
 5153POPC   NC364955  31.960  13.380   5.380
 5153POPC   PO464956  32.444  13.812   5.410
 5153POPC   GL164957  32.202  13.622   5.750
 5153POPC   GL264958  32.463  13.482   5.946
 5153POPC   C1A64959  31.921  13.681   6.136
 5153POPC   D2A64960  31.767  13.509   6.528
 5153POPC   C3A64961  32.103  13.621   6.808
 5153POPC   C4A64962  32.298  13.480   7.167
 5153POPC   C1B64963  32.402  13.936   6.086
 5153POPC   C2B64964  32.394  14.052   6.514
 5153POPC   C3B64965  32.680  13.950   6.852
 5153POPC   C4B64966  32.607  13.842   7.286
 5154POPC   NC364967  20.761  18.382   5.526
 5154POPC   PO464968  20.199  18.133   5.356
 5154POPC   GL164969  20.229  18.253   5.799
 5154POPC   GL264970  20.389  18.524   5.855
 5154POPC   C1A64971  20.361  18.173   6.244
 5154POPC   D2A64972  20.617  17.942   6.571
 5154POPC   C3A64973  20.645  18.145   6.969
 5154POPC   C4A64974  20.722  18.433   7.284
 5154POPC   C1B64975  20.439  18.681   6.248
 5154POPC   C2B64976  20.482  18.504   6.640
 5154POPC   C3B64977  20.406  18.733   6.986
 5154POPC   C4B64978  20.293  18.846   7.383
 5155POPC   NC364979  36.958  22.676   5.395
 5155POPC   PO464980  37.192  23.314   5.280
 5155POPC   GL164981  37.067  23.092   5.717
 5155POPC   GL264982  37.219  22.739   5.837
 5155POPC   C1A64983  36.971  23.026   6.186
 5155POPC   D2A64984  36.599  22.960   6.482
 5155POPC   C3A64985  36.611  23.035   6.926
 5155POPC   C4A64986  36.603  23.264   7.311
 5155POPC   C1B64987  37.368  22.668   6.289
 5155POPC   C2B64988  37.140  22.691   6.702
 5155POPC   C3B64989  37.119  22.693   7.154
 5155POPC   C4B64990  37.058  22.547   7.577
 5156POPC   NC364991  16.488  31.646   5.488
 5156POPC   PO464992  16.929  31.098   5.416
 5156POPC   GL164993  16.770  31.221   5.837
 5156POPC   GL264994  16.797  31.595   5.904
 5156POPC   C1A64995  16.851  31.245   6.309
 5156POPC   D2A64996  16.720  31.457   6.732
 5156POPC   C3A64997  16.885  31.414   7.175
 5156POPC   C4A64998  17.038  31.286   7.627
 5156POPC   C1B64999  16.422  31.518   6.169
 5156POPC   C2B65000  16.273  31.669   6.563
 5156POPC   C3B65001  16.243  31.400   6.909
 5156POPC   C4B65002  16.405  31.462   7.285
 5157POPC   NC365003  30.659  35.959   5.016
 5157POPC   PO465004  30.171  36.081   5.495
 5157POPC   GL165005  30.408  36.198   5.837
 5157POPC   GL265006  30.683  36.383   5.688
 5157POPC   C1A65007  30.357  36.290   6.244
 5157POPC   D2A65008  30.617  36.129   6.539
 5157POPC   C3A65009  30.488  36.189   6.936
 5157POPC   C4A65010  30.713  35.935   7.211
 5157POPC   C1B65011  30.863  36.353   6.126
 5157POPC   C2B65012  31.108  36.313   6.504
 5157POPC   C3B65013  31.001  36.289   6.935
 5157POPC   C4B65014  30.760  36.563   7.190
 5158POPC   NC365015  32.789  40.458   5.490
 5158POPC   PO465016  33.169  41.065   5.468
 5158POPC   GL165017  32.963  40.874   5.792
 5158POPC   GL265018  33.095  40.572   5.888
 5158POPC   C1A65019  33.045  40.985   6.208
 5158POPC   D2A65020  33.165  40.864   6.593
 5158POPC   C3A65021  32.910  40.974   6.908
 5158POPC   C4A65022  33.123  40.936   7.295
 5158POPC   C1B65023  33.001  40.464   6.277
 5158POPC   C2B65024  32.816  40.485   6.669
 5158POPC   C3B65025  33.074  40.501   7.016
 5158POPC   C4B65026  32.916  40.447   7.450
 5159POPC   NC365027  27.458  40.692   5.297
 5159POPC   PO465028  28.105  40.776   5.390
 5159POPC   GL165029  27.759  40.645   5.741
 5159POPC   GL265030  27.384  40.785   5.814
 5159POPC   C1A65031  27.719  40.692   6.207
 5159POPC   D2A65032  27.641  40.875   6.601
 5159POPC   C3A65033  27.806  40.747   7.016
 5159POPC   C4A65034  27.674  40.627   7.456
 5159POPC   C1B65035  27.389  41.106   6.178
 5159POPC   C2B65036  27.351  41.293   6.613
 5159POPC   C3B65037  27.400  41.062   7.003
 5159POPC   C4B65038  27.205  40.778   7.296
 5160POPC   NC365039  17.208  32.340   5.475
 5160POPC   PO465040  17.848  32.459   5.356
 5160POPC   GL165041  17.600  32.514   5.752
 5160POPC   GL265042  17.675  32.155   5.814
 5160POPC   C1A65043  17.373  32.381   6.163
 5160POPC   D2A65044  17.243  32.171   6.564
 5160POPC   C3A65045  17.394  32.346   6.962
 5160POPC   C4A65046  17.134  32.701   7.119
 5160POPC   C1B65047  17.704  31.971   6.251
 5160POPC   C2B65048  17.622  31.863   6.697
 5160POPC   C3B65049  17.571  31.906   7.166
 5160POPC   C4B65050  17.664  31.830   7.607
 5161POPC   NC365051  19.040  41.204   5.676
 5161POPC   PO465052  18.946  40.661   5.363
 5161POPC   GL165053  19.190  40.715   5.785
 5161POPC   GL265054  19.436  41.003   5.878
 5161POPC   C1A65055  19.067  40.844   6.219
 5161POPC   D2A65056  18.719  40.863   6.472
 5161POPC   C3A65057  18.825  40.879   6.869
 5161POPC   C4A65058  19.053  40.543   7.061
 5161POPC   C1B65059  19.335  41.320   6.246
 5161POPC   C2B65060  19.129  41.245   6.614
 5161POPC   C3B65061  19.315  40.883   6.770
 5161POPC   C4B65062  19.452  40.833   7.179
 5162POPC   NC365063  43.206   7.341   5.279
 5162POPC   PO465064  43.380   7.795   5.690
 5162POPC   GL165065  42.953   7.655   5.817
 5162POPC   GL265066  42.899   7.282   5.805
 5162POPC   C1A65067  42.877   7.516   6.253
 5162POPC   D2A65068  43.107   7.355   6.619
 5162POPC   C3A65069  42.960   7.436   7.035
 5162POPC   C4A65070  43.176   7.386   7.440
 5162POPC   C1B65071  43.162   7.107   6.143
 5162POPC   C2B65072  43.357   6.919   6.548
 5162POPC   C3B65073  43.290   7.012   7.028
 5162POPC   C4B65074  43.196   6.884   7.498
 5163POPC   NC365075  22.288  34.845   5.619
 5163POPC   PO465076  21.993  34.402   5.156
 5163POPC   GL165077  22.201  34.317   5.655
 5163POPC   GL265078  22.028  34.506   5.939
 5163POPC   C1A65079  22.493  34.432   6.090
 5163POPC   D2A65080  22.286  34.619   6.472
 5163POPC   C3A65081  22.172  34.407   6.843
 5163POPC   C4A65082  21.968  34.381   7.235
 5163POPC   C1B65083  21.929  34.875   6.184
 5163POPC   C2B65084  21.942  35.005   6.613
 5163POPC   C3B65085  21.864  34.840   7.010
 5163POPC   C4B65086  21.839  34.824   7.456
 5164POPC   NC365087  35.847  41.823   5.255
 5164POPC   PO465088  36.236  41.367   5.199
 5164POPC   GL165089  36.211  41.617   5.584
 5164POPC   GL265090  36.479  41.425   5.705
 5164POPC   C1A65091  35.927  41.760   5.936
 5164POPC   D2A65092  36.015  41.693   6.391
 5164POPC   C3A65093  36.038  41.810   6.845
 5164POPC   C4A65094  35.969  41.545   7.199
 5164POPC   C1B65095  36.160  41.330   6.043
 5164POPC   C2B65096  36.178  41.205   6.472
 5164POPC   C3B65097  36.284  41.325   6.868
 5164POPC   C4B65098  36.400  41.064   7.180
 5165POPC   NC365099  36.315   1.420   5.437
 5165POPC   PO465100  35.692   1.321   5.604
 5165POPC   GL165101  36.042   1.145   5.831
 5165POPC   GL265102  36.423   1.093   5.833
 5165POPC   C1A65103  36.112   1.187   6.260
 5165POPC   D2A65104  36.135   0.978   6.644
 5165POPC   C3A65105  36.102   1.260   7.001
 5165POPC   C4A65106  36.171   1.089   7.432
 5165POPC   C1B65107  36.619   1.208   6.199
 5165POPC   C2B65108  36.642   1.154   6.629
 5165POPC   C3B65109  36.568   1.053   7.029
 5165POPC   C4B65110  36.542   1.431   7.289
 5166POPC   NC365111  15.159  20.778   5.295
 5166POPC   PO465112  15.157  20.146   5.168
 5166POPC   GL165113  15.119  20.430   5.673
 5166POPC   GL265114  15.317  20.752   5.773
 5166POPC   C1A65115  14.899  20.627   6.063
 5166POPC   D2A65116  15.055  20.742   6.496
 5166POPC   C3A65117  15.140  20.583   6.926
 5166POPC   C4A65118  15.247  20.861   7.277
 5166POPC   C1B65119  15.442  20.556   6.148
 5166POPC   C2B65120  15.574  20.516   6.550
 5166POPC   C3B65121  15.567  20.250   6.894
 5166POPC   C4B65122  15.546  20.442   7.266
 5167POPC   NC365123   9.152   8.970   5.366
 5167POPC   PO465124   8.896   8.516   5.737
 5167POPC   GL165125   9.247   8.772   5.886
 5167POPC   GL265126   9.209   9.125   5.859
 5167POPC   C1A65127   9.414   8.910   6.292
 5167POPC   D2A65128   9.260   9.160   6.612
 5167POPC   C3A65129   9.099   9.020   6.970
 5167POPC   C4A65130   9.166   9.137   7.367
 5167POPC   C1B65131   8.916   9.219   6.200
 5167POPC   C2B65132   8.748   9.144   6.608
 5167POPC   C3B65133   8.596   9.283   6.989
 5167POPC   C4B65134   8.700   9.346   7.433
 5168POPC   NC365135  16.735  17.236   5.350
 5168POPC   PO465136  16.335  17.711   5.502
 5168POPC   GL165137  16.653  17.599   5.739
 5168POPC   GL265138  16.816  17.904   5.775
 5168POPC   C1A65139  16.736  17.559   6.161
 5168POPC   D2A65140  16.597  17.560   6.549
 5168POPC   C3A65141  16.732  17.257   6.833
 5168POPC   C4A65142  16.830  17.428   7.220
 5168POPC   C1B65143  17.075  17.985   6.135
 5168POPC   C2B65144  17.088  17.765   6.508
 5168POPC   C3B65145  16.909  17.808   6.897
 5168POPC   C4B65146  17.108  17.858   7.298
 5169POPC   NC365147  33.645  15.485   5.493
 5169POPC   PO465148  33.802  16.169   5.393
 5169POPC   GL165149  33.932  15.959   5.814
 5169POPC   GL265150  33.715  15.698   5.962
 5169POPC   C1A65151  34.154  15.801   6.223
 5169POPC   D2A65152  34.045  15.655   6.647
 5169POPC   C3A65153  34.029  15.950   6.983
 5169POPC   C4A65154  34.061  15.958   7.424
 5169POPC   C1B65155  33.707  16.023   6.296
 5169POPC   C2B65156  33.440  16.081   6.605
 5169POPC   C3B65157  33.555  15.787   6.874
 5169POPC   C4B65158  33.595  15.971   7.253
 5170POPC   NC365159  21.285  29.908   4.951
 5170POPC   PO465160  20.979  30.320   5.530
 5170POPC   GL165161  21.250  30.078   5.858
 5170POPC   GL265162  21.471  29.807   5.708
 5170POPC   C1A65163  21.548  30.094   6.187
 5170POPC   D2A65164  21.754  29.996   6.561
 5170POPC   C3A65165  21.727  30.253   6.921
 5170POPC   C4A65166  21.470  30.268   7.251
 5170POPC   C1B65167  21.337  29.627   6.099
 5170POPC   C2B65168  21.249  29.804   6.513
 5170POPC   C3B65169  21.408  29.848   6.920
 5170POPC   C4B65170  21.530  29.548   7.204
 5171POPC   NC365171  14.211  42.609   5.412
 5171POPC   PO465172  14.281  43.180   5.438
 5171POPC   GL165173  14.362  43.199   5.867
 5171POPC   GL265174  14.397  42.829   5.831
 5171POPC   C1A65175  14.495  43.401   6.276
 5171POPC   D2A65176  14.185  43.423   6.610
 5171POPC   C3A65177  14.287  43.174   6.942
 5171POPC   C4A65178  14.663  43.297   7.138
 5171POPC   C1B65179  14.616  42.895   6.192
 5171POPC   C2B65180  14.478  42.797   6.603
 5171POPC   C3B65181  14.661  42.793   7.008
 5171POPC   C4B65182  14.480  42.687   7.389
 5172POPC   NC365183  25.705  35.233   5.497
 5172POPC   PO465184  26.129  35.761   5.445
 5172POPC   GL165185  26.066  35.457   5.776
 5172POPC   GL265186  25.734  35.571   5.895
 5172POPC   C1A65187  26.011  35.268   6.187
 5172POPC   D2A65188  26.124  35.446   6.565
 5172POPC   C3A65189  25.997  35.278   6.958
 5172POPC   C4A65190  26.149  35.370   7.352
 5172POPC   C1B65191  25.807  35.758   6.316
 5172POPC   C2B65192  25.791  35.727   6.782
 5172POPC   C3B65193  25.749  35.676   7.215
 5172POPC   C4B65194  25.601  35.749   7.623
 5173POPC   NC365195  32.401  44.223   5.391
 5173POPC   PO465196  31.774  43.893   5.434
 5173POPC   GL165197  32.111  43.913   5.733
 5173POPC   GL265198  32.112  44.259   5.811
 5173POPC   C1A65199  32.183  43.896   6.193
 5173POPC   D2A65200  32.420  43.747   6.556
 5173POPC   C3A65201  32.328  43.650   6.977
 5173POPC   C4A65202  32.311  44.054   7.239
 5173POPC   C1B65203  31.931  44.377   6.195
 5173POPC   C2B65204  31.782  44.178   6.528
 5173POPC   C3B65205  31.974  44.262   6.913
 5173POPC   C4B65206  31.819  44.251   7.320
 5174POPC   NC365207  14.317  31.890   5.359
 5174POPC   PO465208  13.964  32.404   5.489
 5174POPC   GL165209  14.365  32.261   5.746
 5174POPC   GL265210  14.731  32.409   5.705
 5174POPC   C1A65211  14.557  32.041   6.127
 5174POPC   D2A65212  14.466  32.114   6.566
 5174POPC   C3A65213  14.751  32.076   6.907
 5174POPC   C4A65214  14.622  32.344   7.200
 5174POPC   C1B65215  14.655  32.561   6.122
 5174POPC   C2B65216  14.516  32.677   6.519
 5174POPC   C3B65217  14.431  32.723   6.934
 5174POPC   C4B65218  14.275  32.690   7.366
 5175POPC   NC365219  43.986   8.664   5.383
 5175POPC   PO465220  44.240   9.318   5.411
 5175POPC   GL165221  43.992   9.092   5.760
 5175POPC   GL265222  43.903   8.772   5.880
 5175POPC   C1A65223  43.945   9.175   6.202
 5175POPC   D2A65224  44.104   8.969   6.556
 5175POPC   C3A65225  43.990   9.138   6.904
 5175POPC   C4A65226  43.754   9.011   7.221
 5175POPC   C1B65227  43.817   8.617   6.308
 5175POPC   C2B65228  43.764   8.632   6.778
 5175POPC   C3B65229  44.051   8.620   7.118
 5175POPC   C4B65230  44.087   8.755   7.547
 5176POPC   NC365231  35.046  18.627   5.448
 5176POPC   PO465232  35.697  18.537   5.656
 5176POPC   GL165233  35.594  18.295   5.982
 5176POPC   GL265234  35.399  18.049   5.904
 5176POPC   C1A65235  35.559  18.360   6.390
 5176POPC   D2A65236  35.460  18.682   6.643
 5176POPC   C3A65237  35.257  18.453   6.915
 5176POPC   C4A65238  35.375  18.103   7.160
 5176POPC   C1B65239  35.186  17.989   6.253
 5176POPC   C2B65240  35.250  17.979   6.671
 5176POPC   C3B65241  34.970  17.849   6.994
 5176POPC   C4B65242  34.877  18.030   7.355
 5177POPC   NC365243  37.813  42.751   5.459
 5177POPC   PO465244  37.565  43.349   5.277
 5177POPC   GL165245  37.535  43.324   5.759
 5177POPC   GL265246  37.827  43.091   5.833
 5177POPC   C1A65247  37.576  43.238   6.237
 5177POPC   D2A65248  37.640  42.903   6.580
 5177POPC   C3A65249  37.547  43.073   7.015
 5177POPC   C4A65250  37.263  43.285   7.327
 5177POPC   C1B65251  38.058  42.820   6.128
 5177POPC   C2B65252  38.143  42.686   6.563
 5177POPC   C3B65253  37.937  42.683   6.971
 5177POPC   C4B65254  37.969  42.819   7.401
 5178POPC   NC365255  20.025  44.958   5.465
 5178POPC   PO465256  19.658  44.365   5.386
 5178POPC   GL165257  19.840  44.394   5.806
 5178POPC   GL265258  20.111  44.654   5.862
 5178POPC   C1A65259  19.786  44.540   6.246
 5178POPC   D2A65260  19.668  44.915   6.465
 5178POPC   C3A65261  19.634  44.848   6.884
 5178POPC   C4A65262  19.752  44.422   7.026
 5178POPC   C1B65263  20.111  44.970   6.223
 5178POPC   C2B65264  20.151  44.785   6.650
 5178POPC   C3B65265  20.119  44.917   7.062
 5178POPC   C4B65266  20.304  44.788   7.425
 5179POPC   NC365267  26.364  27.201   5.375
 5179POPC   PO465268  26.120  27.871   5.367
 5179POPC   GL165269  26.141  27.566   5.750
 5179POPC   GL265270  25.814  27.450   5.868
 5179POPC   C1A65271  26.125  27.613   6.230
 5179POPC   D2A65272  26.054  27.873   6.612
 5179POPC   C3A65273  26.146  27.643   6.997
 5179POPC   C4A65274  25.945  27.715   7.410
 5179POPC   C1B65275  25.648  27.343   6.246
 5179POPC   C2B65276  25.869  27.377   6.624
 5179POPC   C3B65277  25.737  27.279   6.989
 5179POPC   C4B65278  25.907  27.209   7.379
 5180POPC   NC365279  40.007  28.079   5.362
 5180POPC   PO465280  40.035  27.312   5.407
 5180POPC   GL165281  40.133  27.497   5.825
 5180POPC   GL265282  39.926  27.780   5.835
 5180POPC   C1A65283  40.212  27.648   6.285
 5180POPC   D2A65284  40.356  27.591   6.748
 5180POPC   C3A65285  40.199  27.846   7.113
 5180POPC   C4A65286  40.133  27.790   7.556
 5180POPC   C1B65287  39.740  27.506   6.188
 5180POPC   C2B65288  39.674  27.480   6.629
 5180POPC   C3B65289  39.782  27.550   7.064
 5180POPC   C4B65290  40.135  27.366   7.273
 5181POPC   NC365291  26.355  41.799   5.676
 5181POPC   PO465292  27.013  41.809   5.479
 5181POPC   GL165293  26.862  41.667   5.840
 5181POPC   GL265294  26.843  41.996   5.994
 5181POPC   C1A65295  27.003  41.464   6.221
 5181POPC   D2A65296  26.830  41.315   6.598
 5181POPC   C3A65297  27.033  41.514   6.940
 5181POPC   C4A65298  27.074  41.287   7.308
 5181POPC   C1B65299  26.572  41.788   6.296
 5181POPC   C2B65300  26.592  41.748   6.709
 5181POPC   C3B65301  26.554  41.505   7.052
 5181POPC   C4B65302  26.432  41.847   7.249
 5182POPC   NC365303  33.590  35.413   5.403
 5182POPC   PO465304  34.255  35.315   5.421
 5182POPC   GL165305  34.005  35.338   5.806
 5182POPC   GL265306  33.666  35.414   5.948
 5182POPC   C1A65307  34.052  35.235   6.229
 5182POPC   D2A65308  34.174  35.435   6.587
 5182POPC   C3A65309  34.014  35.333   6.962
 5182POPC   C4A65310  33.878  35.104   7.321
 5182POPC   C1B65311  33.641  35.485   6.407
 5182POPC   C2B65312  33.525  35.284   6.805
 5182POPC   C3B65313  33.586  35.514   7.193
 5182POPC   C4B65314  33.545  35.421   7.656
 5183POPC   NC365315  14.372  34.903   5.167
 5183POPC   PO465316  14.647  35.498   5.390
 5183POPC   GL165317  14.511  35.499   5.804
 5183POPC   GL265318  14.498  35.134   5.779
 5183POPC   C1A65319  14.308  35.718   6.171
 5183POPC   D2A65320  14.097  35.640   6.566
 5183POPC   C3A65321  14.313  35.474   6.932
 5183POPC   C4A65322  14.182  35.415   7.326
 5183POPC   C1B65323  14.227  35.218   6.127
 5183POPC   C2B65324  14.312  35.150   6.555
 5183POPC   C3B65325  14.327  34.965   7.000
 5183POPC   C4B65326  14.467  34.975   7.435
 5184POPC   NC365327  12.305   4.855   5.369
 5184POPC   PO465328  11.877   5.400   5.251
 5184POPC   GL165329  11.861   5.120   5.658
 5184POPC   GL265330  12.173   4.958   5.827
 5184POPC   C1A65331  11.788   5.080   6.118
 5184POPC   D2A65332  11.884   5.226   6.543
 5184POPC   C3A65333  11.884   4.926   6.897
 5184POPC   C4A65334  11.795   5.145   7.292
 5184POPC   C1B65335  12.289   5.124   6.215
 5184POPC   C2B65336  12.355   5.048   6.650
 5184POPC   C3B65337  12.233   5.282   7.011
 5184POPC   C4B65338  12.345   5.274   7.432
 5185POPC   NC365339   0.607  34.358   4.975
 5185POPC   PO465340   0.394  34.232   5.615
 5185POPC   GL165341   0.522  34.540   5.904
 5185POPC   GL265342   0.544  34.318   6.148
 5185POPC   C1A65343   0.666  34.820   6.224
 5185POPC   D2A65344   0.770  34.913   6.640
 5185POPC   C3A65345   0.507  34.745   6.955
 5185POPC   C4A65346   0.695  34.863   7.320
 5185POPC   C1B65347   0.151  34.358   6.423
 5185POPC   C2B65348  44.958  34.629   6.747
 5185POPC   C3B65349  44.878  34.442   7.149
 5185POPC   C4B65350   0.062  34.373   7.536
 5186POPC   NC365351   7.713  17.043   5.478
 5186POPC   PO465352   8.236  16.595   5.410
 5186POPC   GL165353   8.253  16.542   5.816
 5186POPC   GL265354   7.963  16.750   5.836
 5186POPC   C1A65355   8.434  16.603   6.208
 5186POPC   D2A65356   8.484  16.887   6.536
 5186POPC   C3A65357   8.438  16.682   6.931
 5186POPC   C4A65358   8.500  16.312   7.186
 5186POPC   C1B65359   8.085  16.996   6.185
 5186POPC   C2B65360   7.816  17.222   6.478
 5186POPC   C3B65361   7.914  17.269   6.908
 5186POPC   C4B65362   8.010  16.942   7.185
 5187POPC   NC365363  40.464  10.989   5.575
 5187POPC   PO465364  40.888  11.626   5.409
 5187POPC   GL165365  40.709  11.396   5.768
 5187POPC   GL265366  40.378  11.510   5.789
 5187POPC   C1A65367  40.807  11.144   6.145
 5187POPC   D2A65368  40.703  11.178   6.585
 5187POPC   C3A65369  40.800  10.991   6.957
 5187POPC   C4A65370  40.682  10.936   7.390
 5187POPC   C1B65371  40.382  11.420   6.251
 5187POPC   C2B65372  40.530  11.652   6.643
 5187POPC   C3B65373  40.696  11.485   7.039
 5187POPC   C4B65374  40.543  11.411   7.481
 5188POPC   NC365375  32.023  22.749   5.462
 5188POPC   PO465376  32.671  22.567   5.511
 5188POPC   GL165377  32.436  22.861   5.736
 5188POPC   GL265378  32.575  23.136   5.900
 5188POPC   C1A65379  32.147  22.947   6.102
 5188POPC   D2A65380  32.279  23.022   6.530
 5188POPC   C3A65381  32.021  22.855   6.854
 5188POPC   C4A65382  31.950  22.981   7.282
 5188POPC   C1B65383  32.643  22.766   6.204
 5188POPC   C2B65384  32.657  22.601   6.635
 5188POPC   C3B65385  32.671  22.708   7.068
 5188POPC   C4B65386  32.452  23.089   7.155
 5189POPC   NC365387  41.411   4.683   5.319
 5189POPC   PO465388  41.663   4.074   5.171
 5189POPC   GL165389  41.643   4.399   5.643
 5189POPC   GL265390  41.279   4.478   5.798
 5189POPC   C1A65391  41.718   4.541   6.071
 5189POPC   D2A65392  41.801   4.469   6.516
 5189POPC   C3A65393  41.648   4.328   6.941
 5189POPC   C4A65394  41.920   4.112   7.257
 5189POPC   C1B65395  41.283   4.345   6.254
 5189POPC   C2B65396  41.519   4.006   6.487
 5189POPC   C3B65397  41.573   3.821   6.909
 5189POPC   C4B65398  41.340   3.903   7.310
 5190POPC   NC365399  44.488  15.449   4.997
 5190POPC   PO465400  44.889  15.401   5.528
 5190POPC   GL165401  44.755  15.509   5.915
 5190POPC   GL265402  44.427  15.379   5.851
 5190POPC   C1A65403   0.012  15.405   6.270
 5190POPC   D2A65404   0.073  15.188   6.659
 5190POPC   C3A65405  44.887  15.457   6.986
 5190POPC   C4A65406  44.455  15.467   7.166
 5190POPC   C1B65407  44.556  15.176   6.272
 5190POPC   C2B65408  44.553  15.139   6.754
 5190POPC   C3B65409  44.652  14.973   7.182
 5190POPC   C4B65410  44.494  14.661   7.502
 5191POPC   NC365411   5.338  31.058   5.258
 5191POPC   PO465412   5.038  31.624   5.523
 5191POPC   GL165413   5.166  31.593   5.929
 5191POPC   GL265414   4.879  31.417   6.077
 5191POPC   C1A65415   5.305  31.639   6.333
 5191POPC   D2A65416   5.564  31.660   6.673
 5191POPC   C3A65417   5.272  31.656   7.015
 5191POPC   C4A65418   4.949  31.537   7.287
 5191POPC   C1B65419   4.957  31.274   6.450
 5191POPC   C2B65420   4.921  31.260   6.872
 5191POPC   C3B65421   4.774  31.051   7.222
 5191POPC   C4B65422   4.591  31.300   7.544
 5192POPC   NC365423   0.546   1.035   5.466
 5192POPC   PO465424  44.965   1.445   5.502
 5192POPC   GL165425   0.239   1.304   5.814
 5192POPC   GL265426   0.256   0.941   5.873
 5192POPC   C1A65427   0.414   1.471   6.194
 5192POPC   D2A65428   0.755   1.398   6.479
 5192POPC   C3A65429   0.597   1.248   6.856
 5192POPC   C4A65430   0.321   1.425   7.151
 5192POPC   C1B65431   0.432   0.939   6.310
 5192POPC   C2B65432   0.237   0.729   6.664
 5192POPC   C3B65433   0.283   0.873   7.060
 5192POPC   C4B65434   0.656   0.934   7.305
 5193POPC   NC365435  30.199  35.269   5.323
 5193POPC   PO465436  30.816  35.557   5.284
 5193POPC   GL165437  30.829  35.382   5.753
 5193POPC   GL265438  31.040  35.093   5.879
 5193POPC   C1A65439  30.665  35.591   6.158
 5193POPC   D2A65440  30.819  35.638   6.583
 5193POPC   C3A65441  30.555  35.513   6.923
 5193POPC   C4A65442  30.742  35.276   7.259
 5193POPC   C1B65443  30.760  35.094   6.257
 5193POPC   C2B65444  30.768  35.044   6.714
 5193POPC   C3B65445  30.989  34.861   7.092
 5193POPC   C4B65446  30.950  34.924   7.556
 5194POPC   NC365447   6.732  40.062   5.371
 5194POPC   PO465448   7.062  39.629   5.806
 5194POPC   GL165449   6.726  39.875   5.874
 5194POPC   GL265450   6.726  40.220   5.868
 5194POPC   C1A65451   6.512  39.975   6.241
 5194POPC   D2A65452   6.632  40.099   6.671
 5194POPC   C3A65453   6.894  39.769   6.881
 5194POPC   C4A65454   6.988  39.757   7.324
 5194POPC   C1B65455   6.459  40.474   6.188
 5194POPC   C2B65456   6.220  40.591   6.593
 5194POPC   C3B65457   6.307  40.342   6.978
 5194POPC   C4B65458   6.519  40.003   7.203
 5195POPC   NC365459   6.825  15.150   4.979
 5195POPC   PO465460   6.618  15.518   5.545
 5195POPC   GL165461   6.753  15.368   5.904
 5195POPC   GL265462   6.486  15.103   5.894
 5195POPC   C1A65463   6.710  15.225   6.328
 5195POPC   D2A65464   6.584  14.885   6.602
 5195POPC   C3A65465   6.625  15.055   7.013
 5195POPC   C4A65466   6.982  15.264   7.154
 5195POPC   C1B65467   6.230  15.352   6.155
 5195POPC   C2B65468   6.094  15.491   6.568
 5195POPC   C3B65469   6.209  15.385   6.990
 5195POPC   C4B65470   6.134  15.218   7.394
 5196POPC   NC365471  35.503  27.142   5.388
 5196POPC   PO465472  35.052  26.703   5.455
 5196POPC   GL165473  35.395  26.751   5.714
 5196POPC   GL265474  35.206  26.625   5.962
 5196POPC   C1A65475  35.609  26.862   6.100
 5196POPC   D2A65476  35.409  26.781   6.500
 5196POPC   C3A65477  35.703  26.840   6.818
 5196POPC   C4A65478  35.648  26.971   7.216
 5196POPC   C1B65479  35.100  27.013   6.144
 5196POPC   C2B65480  34.928  27.023   6.567
 5196POPC   C3B65481  34.981  26.824   6.973
 5196POPC   C4B65482  35.163  26.906   7.398
 5197POPC   NC365483  34.766  27.084   5.434
 5197POPC   PO465484  34.323  26.575   5.438
 5197POPC   GL165485  34.605  26.704   5.774
 5197POPC   GL265486  34.754  26.431   5.913
 5197POPC   C1A65487  34.597  26.957   6.147
 5197POPC   D2A65488  34.332  26.999   6.493
 5197POPC   C3A65489  34.439  27.070   6.920
 5197POPC   C4A65490  34.649  27.018   7.311
 5197POPC   C1B65491  34.859  26.527   6.332
 5197POPC   C2B65492  34.615  26.604   6.683
 5197POPC   C3B65493  34.527  26.588   7.095
 5197POPC   C4B65494  34.856  26.508   7.379
 5198POPC   NC365495  26.864  20.990   5.637
 5198POPC   PO465496  26.665  21.553   5.352
 5198POPC   GL165497  26.759  21.592   5.786
 5198POPC   GL265498  27.070  21.445   5.774
 5198POPC   C1A65499  26.697  21.382   6.196
 5198POPC   D2A65500  26.350  21.215   6.462
 5198POPC   C3A65501  26.421  21.146   6.912
 5198POPC   C4A65502  26.532  21.517   7.134
 5198POPC   C1B65503  27.206  21.541   6.197
 5198POPC   C2B65504  27.004  21.487   6.607
 5198POPC   C3B65505  27.041  21.561   7.045
 5198POPC   C4B65506  26.934  21.237   7.323
 5199POPC   NC365507  11.242  38.056   5.436
 5199POPC   PO465508  11.239  37.332   5.363
 5199POPC   GL165509  11.197  37.546   5.741
 5199POPC   GL265510  11.485  37.735   5.781
 5199POPC   C1A65511  11.164  37.637   6.186
 5199POPC   D2A65512  10.900  37.834   6.521
 5199POPC   C3A65513  10.960  37.593   6.900
 5199POPC   C4A65514  10.999  37.411   7.308
 5199POPC   C1B65515  11.577  37.977   6.144
 5199POPC   C2B65516  11.431  37.914   6.542
 5199POPC   C3B65517  11.312  37.963   6.934
 5199POPC   C4B65518  11.417  37.673   7.238
 5200POPC   NC365519   7.546  23.216   5.655
 5200POPC   PO465520   7.525  22.647   5.382
 5200POPC   GL165521   7.295  22.763   5.791
 5200POPC   GL265522   7.129  23.114   5.890
 5200POPC   C1A65523   7.495  22.841   6.202
 5200POPC   D2A65524   7.780  23.096   6.515
 5200POPC   C3A65525   7.608  23.126   6.942
 5200POPC   C4A65526   7.393  22.720   7.072
 5200POPC   C1B65527   7.322  23.290   6.282
 5200POPC   C2B65528   7.226  23.034   6.622
 5200POPC   C3B65529   7.059  23.114   7.019
 5200POPC   C4B65530   7.317  23.222   7.363
 5201POPC   NC365531   4.767  20.164   5.445
 5201POPC   PO465532   4.743  20.799   5.222
 5201POPC   GL165533   5.009  20.589   5.651
 5201POPC   GL265534   5.268  20.849   5.740
 5201POPC   C1A65535   5.197  20.455   6.080
 5201POPC   D2A65536   5.306  20.315   6.497
 5201POPC   C3A65537   5.016  20.372   6.841
 5201POPC   C4A65538   4.908  20.472   7.277
 5201POPC   C1B65539   5.145  20.949   6.159
 5201POPC   C2B65540   5.024  20.774   6.526
 5201POPC   C3B65541   4.987  20.880   6.954
 5201POPC   C4B65542   5.277  20.818   7.281
 5202POPC   NC365543  16.724  26.528   5.236
 5202POPC   PO465544  16.864  27.128   5.486
 5202POPC   GL165545  16.912  26.824   5.845
 5202POPC   GL265546  16.664  26.545   5.743
 5202POPC   C1A65547  16.858  26.851   6.323
 5202POPC   D2A65548  16.471  27.033   6.535
 5202POPC   C3A65549  16.485  27.146   6.969
 5202POPC   C4A65550  16.776  26.924   7.224
 5202POPC   C1B65551  16.444  26.690   6.097
 5202POPC   C2B65552  16.417  26.515   6.497
 5202POPC   C3B65553  16.492  26.633   6.893
 5202POPC   C4B65554  16.517  26.508   7.314
 5203POPC   NC365555   5.308  16.355   5.610
 5203POPC   PO465556   4.808  15.987   5.372
 5203POPC   GL165557   5.124  15.765   5.691
 5203POPC   GL265558   5.137  16.003   5.917
 5203POPC   C1A65559   5.252  15.550   6.116
 5203POPC   D2A65560   5.090  15.570   6.571
 5203POPC   C3A65561   5.105  15.969   6.793
 5203POPC   C4A65562   5.119  16.057   7.230
 5203POPC   C1B65563   4.814  16.287   6.093
 5203POPC   C2B65564   4.668  16.371   6.521
 5203POPC   C3B65565   4.866  16.454   6.898
 5203POPC   C4B65566   4.748  16.370   7.345
 5204POPC   NC365567  20.534  37.402   5.331
 5204POPC   PO465568  21.117  37.732   5.478
 5204POPC   GL165569  20.712  37.688   5.765
 5204POPC   GL265570  20.696  37.356   5.813
 5204POPC   C1A65571  20.495  37.556   6.237
 5204POPC   D2A65572  20.515  37.502   6.741
 5204POPC   C3A65573  20.479  37.825   7.085
 5204POPC   C4A65574  20.685  37.845   7.499
 5204POPC   C1B65575  20.998  37.475   6.157
 5204POPC   C2B65576  21.096  37.436   6.616
 5204POPC   C3B65577  20.969  37.569   7.036
 5204POPC   C4B65578  20.680  37.375   7.287
 5205POPC   NC365579  23.205  20.841   5.307
 5205POPC   PO465580  22.745  20.383   5.233
 5205POPC   GL165581  22.827  20.634   5.644
 5205POPC   GL265582  23.172  20.665   5.796
 5205POPC   C1A65583  22.799  20.770   6.110
 5205POPC   D2A65584  23.075  20.604   6.446
 5205POPC   C3A65585  23.009  20.762   6.853
 5205POPC   C4A65586  22.841  20.665   7.247
 5205POPC   C1B65587  23.303  20.297   6.073
 5205POPC   C2B65588  23.328  20.144   6.491
 5205POPC   C3B65589  23.285  20.315   6.906
 5205POPC   C4B65590  23.135  20.218   7.314
 5206POPC   NC365591   7.458   4.408   5.271
 5206POPC   PO465592   7.066   4.807   5.640
 5206POPC   GL165593   7.167   4.422   5.854
 5206POPC   GL265594   7.400   4.157   5.732
 5206POPC   C1A65595   7.122   4.314   6.303
 5206POPC   D2A65596   7.087   4.067   6.690
 5206POPC   C3A65597   7.190   4.258   7.084
 5206POPC   C4A65598   7.052   4.167   7.517
 5206POPC   C1B65599   7.591   4.351   6.134
 5206POPC   C2B65600   7.504   4.532   6.577
 5206POPC   C3B65601   7.668   4.453   6.992
 5206POPC   C4B65602   7.916   4.100   7.103
 5207POPC   NC365603  39.072  11.740   5.261
 5207POPC   PO465604  39.230  11.068   5.353
 5207POPC   GL165605  39.096  11.205   5.765
 5207POPC   GL265606  39.212  11.530   5.764
 5207POPC   C1A65607  38.961  11.131   6.203
 5207POPC   D2A65608  39.076  10.983   6.626
 5207POPC   C3A65609  39.292  11.275   6.913
 5207POPC   C4A65610  39.442  11.251   7.306
 5207POPC   C1B65611  39.075  11.666   6.200
 5207POPC   C2B65612  38.931  11.474   6.602
 5207POPC   C3B65613  38.806  11.282   7.018
 5207POPC   C4B65614  38.950  11.437   7.438
 5208POPC   NC365615  39.007  43.449   5.534
 5208POPC   PO465616  38.444  43.168   5.281
 5208POPC   GL165617  38.340  43.053   5.698
 5208POPC   GL265618  38.577  42.849   5.862
 5208POPC   C1A65619  38.268  43.291   6.085
 5208POPC   D2A65620  38.043  43.237   6.469
 5208POPC   C3A65621  38.304  43.264   6.813
 5208POPC   C4A65622  38.564  43.395   7.126
 5208POPC   C1B65623  38.544  42.888   6.286
 5208POPC   C2B65624  38.820  43.029   6.556
 5208POPC   C3B65625  38.812  42.969   6.965
 5208POPC   C4B65626  38.405  42.895   7.154
 5209POPC   NC365627  28.431  14.838   5.555
 5209POPC   PO465628  28.568  15.544   5.482
 5209POPC   GL165629  28.575  15.264   5.829
 5209POPC   GL265630  28.207  15.185   5.890
 5209POPC   C1A65631  28.560  15.166   6.275
 5209POPC   D2A65632  28.316  15.346   6.588
 5209POPC   C3A65633  28.369  15.221   7.009
 5209POPC   C4A65634  28.183  15.506   7.291
 5209POPC   C1B65635  28.052  14.946   6.265
 5209POPC   C2B65636  28.016  14.931   6.719
 5209POPC   C3B65637  28.229  14.687   7.046
 5209POPC   C4B65638  28.344  14.694   7.505
 5210POPC   NC365639  32.422  36.381   5.583
 5210POPC   PO465640  32.116  35.759   5.423
 5210POPC   GL165641  32.294  35.939   5.802
 5210POPC   GL265642  32.034  36.176   5.893
 5210POPC   C1A65643  32.461  36.124   6.208
 5210POPC   D2A65644  32.328  35.931   6.585
 5210POPC   C3A65645  32.481  36.044   6.970
 5210POPC   C4A65646  32.231  35.826   7.232
 5210POPC   C1B65647  31.920  36.148   6.336
 5210POPC   C2B65648  32.029  36.324   6.731
 5210POPC   C3B65649  32.017  36.314   7.166
 5210POPC   C4B65650  31.958  36.564   7.535
 5211POPC   NC365651  40.305   4.254   5.329
 5211POPC   PO465652  40.917   4.578   5.409
 5211POPC   GL165653  40.760   4.413   5.849
 5211POPC   GL265654  40.920   4.076   6.004
 5211POPC   C1A65655  40.509   4.277   6.220
 5211POPC   D2A65656  40.540   4.439   6.609
 5211POPC   C3A65657  40.487   4.264   7.007
 5211POPC   C4A65658  40.650   4.440   7.425
 5211POPC   C1B65659  40.916   4.004   6.443
 5211POPC   C2B65660  40.961   4.175   6.828
 5211POPC   C3B65661  41.098   4.342   7.205
 5211POPC   C4B65662  41.053   4.180   7.640
 5212POPC   NC365663  41.402  43.720   5.327
 5212POPC   PO465664  41.951  44.054   5.591
 5212POPC   GL165665  41.684  43.839   5.912
 5212POPC   GL265666  41.319  43.704   5.844
 5212POPC   C1A65667  41.474  43.841   6.336
 5212POPC   D2A65668  41.354  44.053   6.729
 5212POPC   C3A65669  41.599  43.986   7.091
 5212POPC   C4A65670  41.639  43.947   7.534
 5212POPC   C1B65671  41.178  43.423   6.214
 5212POPC   C2B65672  41.326  43.461   6.673
 5212POPC   C3B65673  41.278  43.595   7.125
 5212POPC   C4B65674  41.439  43.451   7.560
 5213POPC   NC365675  38.157   2.689   5.002
 5213POPC   PO465676  37.762   2.841   5.579
 5213POPC   GL165677  37.574   2.738   5.937
 5213POPC   GL265678  37.869   2.600   6.058
 5213POPC   C1A65679  37.600   2.939   6.312
 5213POPC   D2A65680  37.812   2.820   6.670
 5213POPC   C3A65681  37.549   2.931   6.927
 5213POPC   C4A65682  37.402   2.816   7.261
 5213POPC   C1B65683  38.112   2.969   6.258
 5213POPC   C2B65684  38.193   3.167   6.697
 5213POPC   C3B65685  38.008   3.040   7.111
 5213POPC   C4B65686  37.855   2.604   7.218
 5214POPC   NC365687  26.301  23.880   5.490
 5214POPC   PO465688  25.718  23.608   5.357
 5214POPC   GL165689  25.843  23.840   5.709
 5214POPC   GL265690  26.037  23.572   5.815
 5214POPC   C1A65691  25.821  23.916   6.158
 5214POPC   D2A65692  25.585  23.777   6.529
 5214POPC   C3A65693  25.746  23.924   6.889
 5214POPC   C4A65694  26.083  23.670   7.031
 5214POPC   C1B65695  26.255  23.597   6.193
 5214POPC   C2B65696  26.452  23.509   6.584
 5214POPC   C3B65697  26.374  23.252   6.919
 5214POPC   C4B65698  26.220  23.218   7.339
 5215POPC   NC365699  22.369   9.486   5.526
 5215POPC   PO465700  22.126  10.109   5.308
 5215POPC   GL165701  22.091   9.881   5.758
 5215POPC   GL265702  22.431   9.846   5.895
 5215POPC   C1A65703  22.081   9.790   6.252
 5215POPC   D2A65704  22.279   9.602   6.656
 5215POPC   C3A65705  22.090   9.758   7.063
 5215POPC   C4A65706  21.800  10.044   7.302
 5215POPC   C1B65707  22.539   9.475   6.186
 5215POPC   C2B65708  22.699   9.215   6.568
 5215POPC   C3B65709  22.636   9.357   7.003
 5215POPC   C4B65710  22.446   9.568   7.358
 5216POPC   NC365711  23.524  28.291   5.371
 5216POPC   PO465712  23.975  28.720   5.334
 5216POPC   GL165713  23.848  28.577   5.791
 5216POPC   GL265714  23.493  28.527   5.876
 5216POPC   C1A65715  23.902  28.332   6.223
 5216POPC   D2A65716  23.778  28.102   6.620
 5216POPC   C3A65717  23.909  28.310   7.007
 5216POPC   C4A65718  23.933  28.306   7.509
 5216POPC   C1B65719  23.421  28.215   6.212
 5216POPC   C2B65720  23.247  28.222   6.619
 5216POPC   C3B65721  23.264  27.995   6.974
 5216POPC   C4B65722  23.518  28.152   7.257
 5217POPC   NC365723  27.900  23.300   5.304
 5217POPC   PO465724  27.822  22.633   5.392
 5217POPC   GL165725  27.661  22.837   5.735
 5217POPC   GL265726  27.561  23.162   5.710
 5217POPC   C1A65727  27.579  22.745   6.136
 5217POPC   D2A65728  27.827  22.631   6.478
 5217POPC   C3A65729  27.595  22.820   6.824
 5217POPC   C4A65730  27.494  22.741   7.234
 5217POPC   C1B65731  27.556  23.270   6.156
 5217POPC   C2B65732  27.765  23.478   6.520
 5217POPC   C3B65733  27.906  23.443   6.955
 5217POPC   C4B65734  27.646  23.240   7.262
 5218POPC   NC365735  27.376  21.500   5.342
 5218POPC   PO465736  27.975  21.155   5.469
 5218POPC   GL165737  27.793  21.202   5.858
 5218POPC   GL265738  27.447  21.107   5.816
 5218POPC   C1A65739  27.628  21.190   6.283
 5218POPC   D2A65740  27.523  21.463   6.629
 5218POPC   C3A65741  27.717  21.460   7.029
 5218POPC   C4A65742  27.443  21.552   7.373
 5218POPC   C1B65743  27.163  21.025   6.202
 5218POPC   C2B65744  27.266  21.010   6.641
 5218POPC   C3B65745  27.337  21.138   7.052
 5218POPC   C4B65746  27.417  21.061   7.506
 5219POPC   NC365747  44.553  15.751   5.488
 5219POPC   PO465748   0.119  16.216   5.494
 5219POPC   GL165749  44.987  15.962   5.794
 5219POPC   GL265750  44.647  16.075   5.870
 5219POPC   C1A65751   0.028  15.912   6.226
 5219POPC   D2A65752  44.888  15.813   6.612
 5219POPC   C3A65753  44.912  16.069   6.972
 5219POPC   C4A65754  44.786  15.847   7.325
 5219POPC   C1B65755  44.497  15.979   6.281
 5219POPC   C2B65756  44.485  16.197   6.683
 5219POPC   C3B65757  44.389  16.220   7.134
 5219POPC   C4B65758  44.311  16.140   7.581
 5220POPC   NC365759   6.730   8.331   5.138
 5220POPC   PO465760   7.120   7.937   5.525
 5220POPC   GL165761   6.796   7.906   5.803
 5220POPC   GL265762   6.696   8.249   5.655
 5220POPC   C1A65763   6.646   7.771   6.242
 5220POPC   D2A65764   6.445   7.830   6.687
 5220POPC   C3A65765   6.668   7.839   7.109
 5220POPC   C4A65766   7.069   7.700   7.279
 5220POPC   C1B65767   6.512   8.258   6.062
 5220POPC   C2B65768   6.668   8.289   6.485
 5220POPC   C3B65769   6.469   8.347   6.868
 5220POPC   C4B65770   6.610   8.365   7.267
 5221POPC   NC365771  18.068   8.521   5.483
 5221POPC   PO465772  18.403   7.981   5.392
 5221POPC   GL165773  18.259   8.155   5.790
 5221POPC   GL265774  17.995   7.976   5.898
 5221POPC   C1A65775  18.402   8.143   6.228
 5221POPC   D2A65776  18.713   7.959   6.510
 5221POPC   C3A65777  18.594   8.021   6.934
 5221POPC   C4A65778  18.647   8.393   7.172
 5221POPC   C1B65779  17.995   7.805   6.281
 5221POPC   C2B65780  18.006   7.976   6.686
 5221POPC   C3B65781  18.103   7.898   7.110
 5221POPC   C4B65782  18.201   8.248   7.325
 5222POPC   NC365783  12.278  35.781   5.414
 5222POPC   PO465784  11.868  36.204   5.526
 5222POPC   GL165785  12.212  36.108   5.816
 5222POPC   GL265786  12.353  36.444   5.829
 5222POPC   C1A65787  12.257  35.784   6.162
 5222POPC   D2A65788  11.985  35.754   6.548
 5222POPC   C3A65789  11.953  36.044   6.887
 5222POPC   C4A65790  12.221  36.060   7.241
 5222POPC   C1B65791  12.430  36.259   6.266
 5222POPC   C2B65792  12.412  36.188   6.730
 5222POPC   C3B65793  12.223  36.507   7.025
 5222POPC   C4B65794  11.777  36.464   7.166
 5223POPC   NC365795   9.458  29.127   5.467
 5223POPC   PO465796  10.158  28.933   5.612
 5223POPC   GL165797   9.906  29.170   5.910
 5223POPC   GL265798   9.584  29.017   5.934
 5223POPC   C1A65799   9.819  29.086   6.380
 5223POPC   D2A65800  10.052  29.028   6.780
 5223POPC   C3A65801   9.814  29.119   7.112
 5223POPC   C4A65802   9.543  29.424   7.254
 5223POPC   C1B65803   9.336  28.820   6.237
 5223POPC   C2B65804   9.281  28.732   6.657
 5223POPC   C3B65805   9.323  29.013   6.990
 5223POPC   C4B65806   9.424  28.879   7.401
 5224POPC   NC365807  19.744  34.015   5.010
 5224POPC   PO465808  20.163  34.033   5.559
 5224POPC   GL165809  20.129  33.769   5.855
 5224POPC   GL265810  19.781  33.807   5.787
 5224POPC   C1A65811  20.025  33.658   6.238
 5224POPC   D2A65812  19.905  33.952   6.544
 5224POPC   C3A65813  19.935  33.708   6.881
 5224POPC   C4A65814  19.951  33.793   7.281
 5224POPC   C1B65815  19.575  33.953   6.152
 5224POPC   C2B65816  19.390  33.845   6.534
 5224POPC   C3B65817  19.463  33.935   6.967
 5224POPC   C4B65818  19.323  33.672   7.282
 5225POPC   NC365819   5.819  34.440   5.029
 5225POPC   PO465820   6.062  34.801   5.435
 5225POPC   GL165821   5.855  34.691   5.810
 5225POPC   GL265822   5.564  34.918   5.803
 5225POPC   C1A65823   5.985  34.687   6.251
 5225POPC   D2A65824   6.147  34.690   6.693
 5225POPC   C3A65825   5.995  34.595   7.116
 5225POPC   C4A65826   6.157  34.818   7.513
 5225POPC   C1B65827   5.469  34.767   6.213
 5225POPC   C2B65828   5.632  34.722   6.628
 5225POPC   C3B65829   5.633  34.926   7.015
 5225POPC   C4B65830   5.459  34.614   7.290
 5226POPC   NC365831  43.374  36.199   5.533
 5226POPC   PO465832  42.726  35.942   5.409
 5226POPC   GL165833  42.993  35.960   5.807
 5226POPC   GL265834  43.007  36.285   5.904
 5226POPC   C1A65835  43.249  36.017   6.252
 5226POPC   D2A65836  43.104  36.100   6.710
 5226POPC   C3A65837  43.351  36.089   7.125
 5226POPC   C4A65838  43.398  36.024   7.584
 5226POPC   C1B65839  42.792  36.261   6.293
 5226POPC   C2B65840  42.853  36.541   6.630
 5226POPC   C3B65841  42.998  36.480   7.079
 5226POPC   C4B65842  42.882  36.189   7.420
 5227POPC   NC365843  26.860  29.492   5.472
 5227POPC   PO465844  26.417  28.820   5.474
 5227POPC   GL165845  26.566  29.107   5.808
 5227POPC   GL265846  26.659  29.449   5.925
 5227POPC   C1A65847  26.651  29.063   6.230
 5227POPC   D2A65848  26.942  28.944   6.508
 5227POPC   C3A65849  26.728  29.052   6.834
 5227POPC   C4A65850  26.831  28.881   7.198
 5227POPC   C1B65851  27.044  29.372   6.239
 5227POPC   C2B65852  27.048  29.450   6.699
 5227POPC   C3B65853  27.031  29.352   7.145
 5227POPC   C4B65854  27.264  29.190   7.510
 5228POPC   NC365855  11.813  23.584   5.373
 5228POPC   PO465856  12.286  24.036   5.155
 5228POPC   GL165857  12.251  23.876   5.619
 5228POPC   GL265858  12.000  24.050   5.809
 5228POPC   C1A65859  12.176  23.619   6.032
 5228POPC   D2A65860  11.875  23.719   6.407
 5228POPC   C3A65861  11.882  23.514   6.829
 5228POPC   C4A65862  11.972  23.332   7.253
 5228POPC   C1B65863  12.231  24.078   6.241
 5228POPC   C2B65864  12.207  23.986   6.710
 5228POPC   C3B65865  12.081  23.875   7.136
 5228POPC   C4B65866  11.801  23.864   7.512
 5229POPC   NC365867  40.214  41.411   5.416
 5229POPC   PO465868  39.663  41.870   5.475
 5229POPC   GL165869  39.794  41.525   5.708
 5229POPC   GL265870  40.114  41.652   5.852
 5229POPC   C1A65871  39.766  41.371   6.142
 5229POPC   D2A65872  39.813  41.573   6.561
 5229POPC   C3A65873  39.945  41.433   6.978
 5229POPC   C4A65874  39.890  41.334   7.409
 5229POPC   C1B65875  40.255  41.427   6.235
 5229POPC   C2B65876  40.387  41.402   6.670
 5229POPC   C3B65877  40.377  41.156   7.042
 5229POPC   C4B65878  40.396  41.321   7.449
 5230POPC   NC365879   2.342  37.835   5.284
 5230POPC   PO465880   2.915  37.391   5.408
 5230POPC   GL165881   2.707  37.627   5.705
 5230POPC   GL265882   2.491  37.350   5.786
 5230POPC   C1A65883   2.864  37.908   6.068
 5230POPC   D2A65884   3.179  37.927   6.429
 5230POPC   C3A65885   2.980  37.937   6.823
 5230POPC   C4A65886   2.928  38.016   7.254
 5230POPC   C1B65887   2.513  37.557   6.182
 5230POPC   C2B65888   2.697  37.601   6.570
 5230POPC   C3B65889   2.594  37.547   7.015
 5230POPC   C4B65890   2.746  37.416   7.453
 5231POPC   NC365891  44.122  30.972   5.551
 5231POPC   PO465892  43.625  31.508   5.399
 5231POPC   GL165893  43.859  31.484   5.764
 5231POPC   GL265894  43.745  31.141   5.825
 5231POPC   C1A65895  43.853  31.682   6.182
 5231POPC   D2A65896  44.084  31.660   6.582
 5231POPC   C3A65897  43.851  31.499   6.955
 5231POPC   C4A65898  43.650  31.738   7.257
 5231POPC   C1B65899  44.029  31.202   6.162
 5231POPC   C2B65900  43.913  31.172   6.551
 5231POPC   C3B65901  44.042  30.996   6.899
 5231POPC   C4B65902  43.957  31.102   7.317
 5232POPC   NC365903  19.792  37.336   5.257
 5232POPC   PO465904  20.234  37.802   5.259
 5232POPC   GL165905  20.105  37.611   5.673
 5232POPC   GL265906  19.727  37.615   5.745
 5232POPC   C1A65907  20.007  37.722   6.147
 5232POPC   D2A65908  19.763  37.550   6.503
 5232POPC   C3A65909  19.932  37.652   6.913
 5232POPC   C4A65910  20.183  37.426   7.186
 5232POPC   C1B65911  19.480  37.808   6.131
 5232POPC   C2B65912  19.359  37.942   6.586
 5232POPC   C3B65913  19.512  38.012   7.056
 5232POPC   C4B65914  19.530  38.016   7.560
 5233POPC   NC365915  44.906   0.993   5.444
 5233POPC   PO465916  44.295   1.224   5.235
 5233POPC   GL165917  44.365   1.273   5.724
 5233POPC   GL265918  44.697   1.217   5.872
 5233POPC   C1A65919  44.325   1.390   6.180
 5233POPC   D2A65920  44.603   1.314   6.528
 5233POPC   C3A65921  44.518   1.529   6.885
 5233POPC   C4A65922  44.349   1.361   7.252
 5233POPC   C1B65923  44.974   1.156   6.235
 5233POPC   C2B65924   0.099   1.219   6.672
 5233POPC   C3B65925  44.874   1.224   7.065
 5233POPC   C4B65926  44.822   1.542   7.346
 5234POPC   NC365927  13.306  34.495   5.594
 5234POPC   PO465928  12.883  34.908   5.186
 5234POPC   GL165929  12.874  34.782   5.704
 5234POPC   GL265930  12.802  34.443   5.663
 5234POPC   C1A65931  12.952  34.942   6.172
 5234POPC   D2A65932  13.152  34.691   6.512
 5234POPC   C3A65933  12.989  34.761   6.915
 5234POPC   C4A65934  13.170  34.842   7.287
 5234POPC   C1B65935  12.834  34.459   6.130
 5234POPC   C2B65936  12.750  34.374   6.584
 5234POPC   C3B65937  12.528  34.547   6.935
 5234POPC   C4B65938  12.699  34.476   7.285
 5235POPC   NC365939  35.443  14.190   5.302
 5235POPC   PO465940  35.216  14.716   5.337
 5235POPC   GL165941  35.301  14.450   5.719
 5235POPC   GL265942  35.111  14.135   5.691
 5235POPC   C1A65943  35.117  14.464   6.140
 5235POPC   D2A65944  34.943  14.547   6.543
 5235POPC   C3A65945  35.107  14.383   6.909
 5235POPC   C4A65946  35.028  14.496   7.335
 5235POPC   C1B65947  35.325  13.997   6.054
 5235POPC   C2B65948  35.261  14.062   6.486
 5235POPC   C3B65949  35.551  14.085   6.846
 5235POPC   C4B65950  35.428  14.204   7.275
 5236POPC   NC365951   4.342  34.152   5.282
 5236POPC   PO465952   4.310  33.569   5.378
 5236POPC   GL165953   4.214  33.762   5.710
 5236POPC   GL265954   4.043  33.505   5.846
 5236POPC   C1A65955   4.260  34.036   6.022
 5236POPC   D2A65956   4.356  34.031   6.454
 5236POPC   C3A65957   4.289  34.095   6.893
 5236POPC   C4A65958   4.339  33.894   7.289
 5236POPC   C1B65959   4.018  33.662   6.260
 5236POPC   C2B65960   3.991  33.723   6.664
 5236POPC   C3B65961   4.247  33.538   6.948
 5236POPC   C4B65962   4.118  33.428   7.364
 5237POPC   NC365963   5.923  22.434   5.635
 5237POPC   PO465964   5.721  21.891   5.325
 5237POPC   GL165965   5.738  21.988   5.773
 5237POPC   GL265966   6.084  22.013   5.899
 5237POPC   C1A65967   5.681  22.023   6.223
 5237POPC   D2A65968   5.934  21.914   6.571
 5237POPC   C3A65969   5.739  21.792   6.927
 5237POPC   C4A65970   5.527  21.993   7.234
 5237POPC   C1B65971   6.106  22.325   6.255
 5237POPC   C2B65972   5.853  22.455   6.609
 5237POPC   C3B65973   5.915  22.279   7.022
 5237POPC   C4B65974   6.217  21.941   7.101
 5238POPC   NC365975  24.125  10.347   5.095
 5238POPC   PO465976  24.745  10.524   5.225
 5238POPC   GL165977  24.417  10.465   5.618
 5238POPC   GL265978  24.674  10.384   5.804
 5238POPC   C1A65979  24.320  10.615   6.091
 5238POPC   D2A65980  24.064  10.713   6.463
 5238POPC   C3A65981  24.278  10.650   6.821
 5238POPC   C4A65982  24.213  10.621   7.246
 5238POPC   C1B65983  24.775  10.397   6.234
 5238POPC   C2B65984  24.621  10.318   6.630
 5238POPC   C3B65985  24.804  10.192   6.989
 5238POPC   C4B65986  24.998  10.578   7.054
 5239POPC   NC365987   0.668  35.169   5.522
 5239POPC   PO465988   0.190  35.616   5.353
 5239POPC   GL165989   0.316  35.561   5.778
 5239POPC   GL265990   0.660  35.619   5.803
 5239POPC   C1A65991   0.170  35.497   6.222
 5239POPC   D2A65992   0.381  35.270   6.568
 5239POPC   C3A65993   0.493  35.488   6.922
 5239POPC   C4A65994   0.411  35.270   7.278
 5239POPC   C1B65995   0.702  35.379   6.177
 5239POPC   C2B65996   0.926  35.396   6.572
 5239POPC   C3B65997   0.938  35.250   7.019
 5239POPC   C4B65998   0.862  35.395   7.457
 5240POPC   NC365999  33.464  19.606   5.352
 5240POPC   PO466000  32.935  20.021   5.481
 5240POPC   GL166001  33.119  19.827   5.849
 5240POPC   GL266002  32.927  19.506   5.847
 5240POPC   C1A66003  33.087  19.712   6.310
 5240POPC   D2A66004  33.127  19.651   6.758
 5240POPC   C3A66005  32.989  19.927   7.108
 5240POPC   C4A66006  33.186  19.940   7.543
 5240POPC   C1B66007  32.655  19.460   6.224
 5240POPC   C2B66008  32.592  19.597   6.663
 5240POPC   C3B66009  32.765  19.444   7.068
 5240POPC   C4B66010  32.844  19.584   7.503
 5241POPC   NC366011  33.597   4.495   5.360
 5241POPC   PO466012  34.163   4.057   5.421
 5241POPC   GL166013  33.971   4.378   5.732
 5241POPC   GL266014  33.595   4.287   5.820
 5241POPC   C1A66015  33.935   4.445   6.198
 5241POPC   D2A66016  33.739   4.393   6.605
 5241POPC   C3A66017  33.995   4.376   6.970
 5241POPC   C4A66018  33.827   4.565   7.321
 5241POPC   C1B66019  33.588   4.058   6.206
 5241POPC   C2B66020  33.814   3.901   6.540
 5241POPC   C3B66021  33.725   3.951   6.952
 5241POPC   C4B66022  33.344   3.865   7.124
 5242POPC   NC366023   3.031  34.090   5.521
 5242POPC   PO466024   2.719  33.513   5.507
 5242POPC   GL166025   2.707  33.779   5.837
 5242POPC   GL266026   3.070  33.758   5.922
 5242POPC   C1A66027   2.710  33.684   6.274
 5242POPC   D2A66028   3.033  33.755   6.551
 5242POPC   C3A66029   2.912  33.569   6.912
 5242POPC   C4A66030   2.686  33.709   7.251
 5242POPC   C1B66031   3.163  34.121   6.213
 5242POPC   C2B66032   3.061  34.272   6.665
 5242POPC   C3B66033   3.051  34.043   7.064
 5242POPC   C4B66034   3.364  33.703   7.201
 5243POPC   NC366035  26.830  40.169   5.345
 5243POPC   PO466036  26.730  39.595   5.649
 5243POPC   GL166037  26.872  40.015   5.877
 5243POPC   GL266038  26.965  40.389   5.779
 5243POPC   C1A66039  27.020  40.072   6.318
 5243POPC   D2A66040  27.101  40.041   6.769
 5243POPC   C3A66041  26.741  39.976   7.041
 5243POPC   C4A66042  26.485  39.600   7.182
 5243POPC   C1B66043  26.700  40.446   6.156
 5243POPC   C2B66044  26.798  40.451   6.589
 5243POPC   C3B66045  26.877  40.476   7.024
 5243POPC   C4B66046  26.790  40.300   7.431
 5244POPC   NC366047  24.566  34.182   5.511
 5244POPC   PO466048  24.319  34.823   5.566
 5244POPC   GL166049  24.406  34.580   5.901
 5244POPC   GL266050  24.264  34.253   5.901
 5244POPC   C1A66051  24.659  34.496   6.265
 5244POPC   D2A66052  24.749  34.195   6.595
 5244POPC   C3A66053  24.964  34.330   6.950
 5244POPC   C4A66054  24.672  34.403   7.268
 5244POPC   C1B66055  24.162  34.371   6.304
 5244POPC   C2B66056  24.232  34.239   6.716
 5244POPC   C3B66057  24.095  34.516   7.020
 5244POPC   C4B66058  24.282  34.695   7.348
 5245POPC   NC366059   3.811  23.925   5.503
 5245POPC   PO466060   4.469  23.811   5.309
 5245POPC   GL166061   4.255  23.638   5.723
 5245POPC   GL266062   4.033  23.801   5.956
 5245POPC   C1A66063   4.332  23.365   6.105
 5245POPC   D2A66064   4.308  23.214   6.554
 5245POPC   C3A66065   4.369  23.458   6.914
 5245POPC   C4A66066   4.190  23.770   7.196
 5245POPC   C1B66067   4.425  23.840   6.219
 5245POPC   C2B66068   4.525  24.149   6.556
 5245POPC   C3B66069   4.568  24.057   6.996
 5245POPC   C4B66070   4.426  24.133   7.457
 5246POPC   NC366071  12.597  29.348   5.486
 5246POPC   PO466072  13.163  28.969   5.377
 5246POPC   GL166073  12.895  29.028   5.748
 5246POPC   GL266074  12.904  29.381   5.888
 5246POPC   C1A66075  12.773  28.972   6.184
 5246POPC   D2A66076  12.888  29.170   6.573
 5246POPC   C3A66077  12.898  28.858   6.916
 5246POPC   C4A66078  13.134  28.957   7.263
 5246POPC   C1B66079  12.548  29.512   6.152
 5246POPC   C2B66080  12.440  29.440   6.571
 5246POPC   C3B66081  12.521  29.203   6.944
 5246POPC   C4B66082  12.793  29.333   7.237
 5247POPC   NC366083  26.564  22.751   5.786
 5247POPC   PO466084  26.484  23.414   5.517
 5247POPC   GL166085  26.763  23.237   5.862
 5247POPC   GL266086  27.057  22.968   5.827
 5247POPC   C1A66087  26.716  23.104   6.307
 5247POPC   D2A66088  26.620  22.740   6.568
 5247POPC   C3A66089  26.654  22.834   6.998
 5247POPC   C4A66090  26.728  23.169   7.304
 5247POPC   C1B66091  27.064  22.715   6.231
 5247POPC   C2B66092  27.109  22.862   6.649
 5247POPC   C3B66093  27.146  23.059   7.042
 5247POPC   C4B66094  27.011  22.758   7.368
 5248POPC   NC366095  34.347  10.726   5.479
 5248POPC   PO466096  34.993  10.739   5.136
 5248POPC   GL166097  34.890  10.685   5.646
 5248POPC   GL266098  34.624  10.483   5.838
 5248POPC   C1A66099  34.812  10.862   6.108
 5248POPC   D2A66100  34.533  10.750   6.466
 5248POPC   C3A66101  34.714  10.615   6.849
 5248POPC   C4A66102  34.504  10.642   7.239
 5248POPC   C1B66103  34.442  10.303   6.237
 5248POPC   C2B66104  34.334  10.279   6.698
 5248POPC   C3B66105  34.391  10.118   7.129
 5248POPC   C4B66106  34.479   9.990   7.561
 5249POPC   NC366107  26.944   2.679   5.673
 5249POPC   PO466108  26.570   3.202   5.521
 5249POPC   GL166109  26.569   2.908   5.934
 5249POPC   GL266110  26.450   2.538   5.878
 5249POPC   C1A66111  26.837   2.782   6.319
 5249POPC   D2A66112  27.105   2.913   6.696
 5249POPC   C3A66113  26.925   2.861   7.099
 5249POPC   C4A66114  26.576   3.072   7.271
 5249POPC   C1B66115  26.357   2.560   6.341
 5249POPC   C2B66116  26.594   2.635   6.746
 5249POPC   C3B66117  26.508   2.587   7.208
 5249POPC   C4B66118  26.344   2.423   7.591
 5250POPC   NC366119  13.805  33.828   5.523
 5250POPC   PO466120  13.147  34.060   5.642
 5250POPC   GL166121  13.378  33.776   5.908
 5250POPC   GL266122  13.717  33.607   5.976
 5250POPC   C1A66123  13.370  33.743   6.339
 5250POPC   D2A66124  13.625  33.679   6.666
 5250POPC   C3A66125  13.390  33.683   7.044
 5250POPC   C4A66126  13.457  34.033   7.287
 5250POPC   C1B66127  13.822  33.978   6.230
 5250POPC   C2B66128  13.972  34.192   6.610
 5250POPC   C3B66129  13.885  34.129   7.031
 5250POPC   C4B66130  13.906  33.704   7.090
 5251POPC   NC366131   6.189  32.607   5.404
 5251POPC   PO466132   5.484  32.474   5.406
 5251POPC   GL166133   5.689  32.340   5.811
 5251POPC   GL266134   6.058  32.286   5.795
 5251POPC   C1A66135   5.801  32.070   6.188
 5251POPC   D2A66136   5.776  32.135   6.642
 5251POPC   C3A66137   6.125  32.112   6.940
 5251POPC   C4A66138   5.851  32.337   7.235
 5251POPC   C1B66139   6.118  32.483   6.214
 5251POPC   C2B66140   6.299  32.495   6.640
 5251POPC   C3B66141   6.268  32.609   7.101
 5251POPC   C4B66142   6.234  32.507   7.571
 5252POPC   NC366143  29.812  11.589   5.262
 5252POPC   PO466144  29.508  11.140   5.614
 5252POPC   GL166145  29.839  11.444   5.761
 5252POPC   GL266146  30.142  11.212   5.732
 5252POPC   C1A66147  30.157  11.559   6.095
 5252POPC   D2A66148  30.251  11.312   6.476
 5252POPC   C3A66149  29.992  11.342   6.869
 5252POPC   C4A66150  30.148  11.286   7.286
 5252POPC   C1B66151  29.904  11.092   6.137
 5252POPC   C2B66152  29.542  11.037   6.420
 5252POPC   C3B66153  29.554  11.002   6.883
 5252POPC   C4B66154  29.581  11.298   7.222
 5253POPC   NC366155   6.046   5.257   5.455
 5253POPC   PO466156   5.547   4.789   5.539
 5253POPC   GL166157   5.723   5.054   5.862
 5253POPC   GL266158   5.780   5.424   5.899
 5253POPC   C1A66159   5.645   4.978   6.292
 5253POPC   D2A66160   5.996   4.847   6.560
 5253POPC   C3A66161   5.985   4.977   6.969
 5253POPC   C4A66162   5.686   5.307   7.132
 5253POPC   C1B66163   6.081   5.255   6.222
 5253POPC   C2B66164   6.271   5.335   6.641
 5253POPC   C3B66165   6.228   5.403   7.088
 5253POPC   C4B66166   6.056   5.149   7.462
 5254POPC   NC366167   0.015  16.634   5.355
 5254POPC   PO466168  44.388  16.894   5.418
 5254POPC   GL166169  44.417  16.560   5.752
 5254POPC   GL266170  44.788  16.572   5.803
 5254POPC   C1A66171  44.513  16.493   6.218
 5254POPC   D2A66172  44.771  16.622   6.582
 5254POPC   C3A66173  44.553  16.722   6.974
 5254POPC   C4A66174  44.355  17.141   7.089
 5254POPC   C1B66175   0.029  16.408   6.145
 5254POPC   C2B66176   0.180  16.325   6.578
 5254POPC   C3B66177   0.120  16.547   6.980
 5254POPC   C4B66178  44.958  16.556   7.390
 5255POPC   NC366179  15.761  26.883   5.355
 5255POPC   PO466180  16.287  26.621   5.315
 5255POPC   GL166181  16.079  26.765   5.752
 5255POPC   GL266182  15.720  26.820   5.850
 5255POPC   C1A66183  16.040  26.994   6.200
 5255POPC   D2A66184  16.019  26.807   6.620
 5255POPC   C3A66185  15.991  26.975   7.015
 5255POPC   C4A66186  16.092  26.799   7.398
 5255POPC   C1B66187  15.499  26.612   6.135
 5255POPC   C2B66188  15.536  26.661   6.534
 5255POPC   C3B66189  15.638  26.602   6.934
 5255POPC   C4B66190  15.559  26.829   7.291
 5256POPC   NC366191  16.805  19.715   5.514
 5256POPC   PO466192  16.412  20.167   5.289
 5256POPC   GL166193  16.462  20.011   5.766
 5256POPC   GL266194  16.856  20.033   5.893
 5256POPC   C1A66195  16.493  20.131   6.224
 5256POPC   D2A66196  16.875  20.006   6.493
 5256POPC   C3A66197  16.709  19.828   6.885
 5256POPC   C4A66198  16.535  20.103   7.181
 5256POPC   C1B66199  16.724  19.650   6.165
 5256POPC   C2B66200  16.923  19.470   6.553
 5256POPC   C3B66201  16.875  19.308   6.981
 5256POPC   C4B66202  17.076  19.477   7.339
 5257POPC   NC366203  23.904  31.813   5.741
 5257POPC   PO466204  23.356  31.392   5.477
 5257POPC   GL166205  23.548  31.394   5.874
 5257POPC   GL266206  23.750  31.108   6.002
 5257POPC   C1A66207  23.501  31.602   6.245
 5257POPC   D2A66208  23.801  31.795   6.518
 5257POPC   C3A66209  23.798  31.632   6.915
 5257POPC   C4A66210  23.595  31.794   7.264
 5257POPC   C1B66211  24.002  31.371   6.285
 5257POPC   C2B66212  24.205  31.386   6.677
 5257POPC   C3B66213  24.019  31.174   7.014
 5257POPC   C4B66214  23.830  31.346   7.359
 5258POPC   NC366215  28.993  15.739   5.511
 5258POPC   PO466216  29.141  16.366   5.361
 5258POPC   GL166217  29.338  16.086   5.708
 5258POPC   GL266218  29.433  15.717   5.765
 5258POPC   C1A66219  29.177  16.035   6.143
 5258POPC   D2A66220  29.308  16.163   6.561
 5258POPC   C3A66221  29.054  16.015   6.884
 5258POPC   C4A66222  28.917  16.029   7.295
 5258POPC   C1B66223  29.329  15.555   6.206
 5258POPC   C2B66224  29.431  15.652   6.671
 5258POPC   C3B66225  29.565  15.936   7.039
 5258POPC   C4B66226  29.412  15.986   7.505
 5259POPC   NC366227  37.227   1.691   5.129
 5259POPC   PO466228  36.769   1.418   5.582
 5259POPC   GL166229  37.005   1.121   5.870
 5259POPC   GL266230  36.843   0.804   5.915
 5259POPC   C1A66231  37.143   1.258   6.276
 5259POPC   D2A66232  37.231   1.471   6.631
 5259POPC   C3A66233  36.966   1.409   6.966
 5259POPC   C4A66234  37.136   1.374   7.339
 5259POPC   C1B66235  36.913   0.829   6.367
 5259POPC   C2B66236  37.128   0.948   6.751
 5259POPC   C3B66237  37.038   0.910   7.194
 5259POPC   C4B66238  36.737   1.027   7.511
 5260POPC   NC366239   6.965  16.392   5.604
 5260POPC   PO466240   6.613  16.839   5.158
 5260POPC   GL166241   6.674  16.817   5.629
 5260POPC   GL266242   6.469  17.030   5.777
 5260POPC   C1A66243   6.674  16.725   6.131
 5260POPC   D2A66244   6.666  16.640   6.606
 5260POPC   C3A66245   6.484  16.368   6.936
 5260POPC   C4A66246   6.604  16.588   7.319
 5260POPC   C1B66247   6.299  17.104   6.202
 5260POPC   C2B66248   6.301  17.014   6.633
 5260POPC   C3B66249   6.234  16.807   7.004
 5260POPC   C4B66250   6.230  17.039   7.355
 5261POPC   NC366251  36.250  12.506   5.622
 5261POPC   PO466252  36.217  13.144   5.348
 5261POPC   GL166253  36.069  12.965   5.779
 5261POPC   GL266254  35.818  12.703   5.889
 5261POPC   C1A66255  36.222  12.806   6.201
 5261POPC   D2A66256  36.366  12.995   6.548
 5261POPC   C3A66257  36.384  12.815   6.941
 5261POPC   C4A66258  36.077  12.835   7.267
 5261POPC   C1B66259  35.764  12.612   6.344
 5261POPC   C2B66260  35.951  12.622   6.770
 5261POPC   C3B66261  35.868  12.376   7.173
 5261POPC   C4B66262  35.820  12.602   7.627
 5262POPC   NC366263  25.364  20.121   5.320
 5262POPC   PO466264  25.101  20.815   5.324
 5262POPC   GL166265  25.330  20.613   5.676
 5262POPC   GL266266  25.067  20.350   5.779
 5262POPC   C1A66267  25.478  20.777   6.087
 5262POPC   D2A66268  25.348  20.706   6.493
 5262POPC   C3A66269  25.486  20.880   6.871
 5262POPC   C4A66270  25.387  20.763   7.273
 5262POPC   C1B66271  24.981  20.676   6.110
 5262POPC   C2B66272  24.894  20.879   6.544
 5262POPC   C3B66273  25.023  20.652   6.924
 5262POPC   C4B66274  24.878  20.791   7.349
 5263POPC   NC366275   9.223  41.647   5.654
 5263POPC   PO466276   8.562  41.348   5.425
 5263POPC   GL166277   8.760  41.475   5.790
 5263POPC   GL266278   8.950  41.218   5.901
 5263POPC   C1A66279   8.863  41.734   6.173
 5263POPC   D2A66280   9.169  41.817   6.486
 5263POPC   C3A66281   9.039  41.795   6.902
 5263POPC   C4A66282   8.982  41.989   7.316
 5263POPC   C1B66283   9.213  41.365   6.235
 5263POPC   C2B66284   9.024  41.327   6.609
 5263POPC   C3B66285   9.179  41.237   7.004
 5263POPC   C4B66286   9.187  41.528   7.312
 5264POPC   NC366287   9.924   4.913   5.343
 5264POPC   PO466288   9.320   4.987   5.508
 5264POPC   GL166289   9.646   5.147   5.787
 5264POPC   GL266290   9.963   4.963   5.838
 5264POPC   C1A66291   9.659   5.268   6.232
 5264POPC   D2A66292   9.838   5.200   6.660
 5264POPC   C3A66293   9.631   4.878   6.943
 5264POPC   C4A66294   9.407   4.934   7.345
 5264POPC   C1B66295  10.191   4.904   6.200
 5264POPC   C2B66296  10.126   4.753   6.618
 5264POPC   C3B66297  10.137   4.954   7.022
 5264POPC   C4B66298   9.849   5.277   7.178
 5265POPC   NC366299  20.271   7.038   5.510
 5265POPC   PO466300  20.588   6.379   5.383
 5265POPC   GL166301  20.557   6.607   5.760
 5265POPC   GL266302  20.408   6.310   5.865
 5265POPC   C1A66303  20.438   6.668   6.225
 5265POPC   D2A66304  20.517   6.594   6.672
 5265POPC   C3A66305  20.716   6.969   6.880
 5265POPC   C4A66306  20.961   6.908   7.253
 5265POPC   C1B66307  20.488   6.137   6.269
 5265POPC   C2B66308  20.264   6.119   6.645
 5265POPC   C3B66309  20.236   6.352   7.026
 5265POPC   C4B66310  20.566   6.600   7.202
 5266POPC   NC366311  26.443  17.996   5.511
 5266POPC   PO466312  27.004  18.378   5.419
 5266POPC   GL166313  26.916  18.248   5.903
 5266POPC   GL266314  26.766  17.891   5.927
 5266POPC   C1A66315  26.641  18.271   6.303
 5266POPC   D2A66316  26.616  18.053   6.728
 5266POPC   C3A66317  26.573  18.330   7.100
 5266POPC   C4A66318  26.796  18.387   7.500
 5266POPC   C1B66319  27.011  17.919   6.335
 5266POPC   C2B66320  27.162  18.172   6.680
 5266POPC   C3B66321  27.057  18.174   7.111
 5266POPC   C4B66322  26.727  17.874   7.296
 5267POPC   NC366323   4.837  10.770   5.586
 5267POPC   PO466324   4.932  10.140   5.777
 5267POPC   GL166325   5.321  10.382   5.899
 5267POPC   GL266326   5.254  10.740   5.881
 5267POPC   C1A66327   5.304  10.441   6.346
 5267POPC   D2A66328   4.873  10.301   6.487
 5267POPC   C3A66329   4.828  10.139   6.889
 5267POPC   C4A66330   5.097  10.222   7.224
 5267POPC   C1B66331   5.098  10.921   6.264
 5267POPC   C2B66332   5.289  10.889   6.670
 5267POPC   C3B66333   5.115  10.664   7.012
 5267POPC   C4B66334   4.971  10.647   7.483
 5268POPC   NC366335  14.102   9.871   5.481
 5268POPC   PO466336  14.669  10.162   5.580
 5268POPC   GL166337  14.665   9.896   5.934
 5268POPC   GL266338  14.374   9.695   5.874
 5268POPC   C1A66339  14.651   9.788   6.376
 5268POPC   D2A66340  14.610  10.066   6.718
 5268POPC   C3A66341  14.364   9.892   7.002
 5268POPC   C4A66342  14.377   9.936   7.411
 5268POPC   C1B66343  14.227   9.461   6.200
 5268POPC   C2B66344  14.189   9.595   6.598
 5268POPC   C3B66345  14.238   9.400   6.975
 5268POPC   C4B66346  14.435   9.450   7.332
 5269POPC   NC366347  29.320  30.197   5.524
 5269POPC   PO466348  29.053  29.717   5.057
 5269POPC   GL166349  29.089  29.758   5.618
 5269POPC   GL266350  29.428  29.789   5.809
 5269POPC   C1A66351  29.077  29.669   6.141
 5269POPC   D2A66352  29.352  29.691   6.549
 5269POPC   C3A66353  29.142  29.748   6.961
 5269POPC   C4A66354  28.925  29.747   7.357
 5269POPC   C1B66355  29.396  30.092   6.195
 5269POPC   C2B66356  29.236  30.319   6.549
 5269POPC   C3B66357  29.378  30.210   6.947
 5269POPC   C4B66358  29.395  30.029   7.377
 5270POPC   NC366359   4.283  18.524   5.552
 5270POPC   PO466360   3.989  19.162   5.249
 5270POPC   GL166361   4.135  19.190   5.697
 5270POPC   GL266362   4.031  18.900   5.734
 5270POPC   C1A66363   4.230  19.103   6.168
 5270POPC   D2A66364   4.449  19.183   6.585
 5270POPC   C3A66365   4.316  19.002   6.970
 5270POPC   C4A66366   4.027  19.116   7.267
 5270POPC   C1B66367   3.939  18.703   6.128
 5270POPC   C2B66368   4.081  18.756   6.563
 5270POPC   C3B66369   3.997  18.599   6.982
 5270POPC   C4B66370   3.977  18.589   7.458
 5271POPC   NC366371   3.881  34.966   5.136
 5271POPC   PO466372   4.398  35.139   5.496
 5271POPC   GL166373   4.184  35.254   5.862
 5271POPC   GL266374   4.488  35.406   5.929
 5271POPC   C1A66375   3.928  35.159   6.222
 5271POPC   D2A66376   3.846  35.367   6.601
 5271POPC   C3A66377   3.900  35.124   6.993
 5271POPC   C4A66378   4.268  35.064   7.238
 5271POPC   C1B66379   4.297  35.514   6.317
 5271POPC   C2B66380   4.249  35.784   6.651
 5271POPC   C3B66381   4.195  35.536   6.993
 5271POPC   C4B66382   4.181  35.530   7.421
 5272POPC   NC366383  30.924   1.292   5.245
 5272POPC   PO466384  30.525   0.832   5.475
 5272POPC   GL166385  30.697   1.170   5.759
 5272POPC   GL266386  31.019   1.379   5.743
 5272POPC   C1A66387  30.675   1.310   6.197
 5272POPC   D2A66388  30.379   1.344   6.539
 5272POPC   C3A66389  30.561   1.368   6.940
 5272POPC   C4A66390  30.786   1.109   7.229
 5272POPC   C1B66391  31.127   1.524   6.173
 5272POPC   C2B66392  30.945   1.540   6.619
 5272POPC   C3B66393  31.025   1.545   7.089
 5272POPC   C4B66394  30.736   1.567   7.464
 5273POPC   NC366395  27.305  36.050   5.346
 5273POPC   PO466396  27.711  36.535   5.498
 5273POPC   GL166397  27.528  36.267   5.803
 5273POPC   GL266398  27.765  36.039   5.788
 5273POPC   C1A66399  27.469  36.056   6.253
 5273POPC   D2A66400  27.358  36.023   6.727
 5273POPC   C3A66401  27.500  36.308   7.099
 5273POPC   C4A66402  27.550  36.454   7.575
 5273POPC   C1B66403  27.936  35.829   6.122
 5273POPC   C2B66404  27.799  35.735   6.525
 5273POPC   C3B66405  27.827  35.924   6.914
 5273POPC   C4B66406  27.928  35.736   7.260
 5274POPC   NC366407  11.453  39.032   5.496
 5274POPC   PO466408  10.783  39.273   5.599
 5274POPC   GL166409  11.140  39.239   5.884
 5274POPC   GL266410  11.486  39.347   5.905
 5274POPC   C1A66411  11.166  39.326   6.313
 5274POPC   D2A66412  11.191  39.222   6.718
 5274POPC   C3A66413  10.932  39.388   6.993
 5274POPC   C4A66414  11.304  39.300   7.240
 5274POPC   C1B66415  11.571  39.009   6.183
 5274POPC   C2B66416  11.693  38.868   6.601
 5274POPC   C3B66417  11.491  38.862   7.011
 5274POPC   C4B66418  11.664  38.685   7.392
 5275POPC   NC366419   1.704   1.821   4.843
 5275POPC   PO466420   2.082   2.035   5.416
 5275POPC   GL166421   2.195   1.902   5.826
 5275POPC   GL266422   1.868   1.958   5.934
 5275POPC   C1A66423   2.286   2.076   6.248
 5275POPC   D2A66424   1.968   2.011   6.556
 5275POPC   C3A66425   2.126   2.079   6.971
 5275POPC   C4A66426   2.203   1.821   7.335
 5275POPC   C1B66427   1.707   1.654   6.208
 5275POPC   C2B66428   1.757   1.456   6.586
 5275POPC   C3B66429   1.803   1.678   6.968
 5275POPC   C4B66430   1.652   2.024   7.213
 5276POPC   NC366431  30.172  17.439   5.371
 5276POPC   PO466432  29.673  17.916   5.578
 5276POPC   GL166433  30.021  17.719   5.799
 5276POPC   GL266434  29.951  17.366   5.845
 5276POPC   C1A66435  30.185  17.675   6.210
 5276POPC   D2A66436  30.159  17.459   6.609
 5276POPC   C3A66437  30.038  17.699   6.973
 5276POPC   C4A66438  30.027  17.764   7.409
 5276POPC   C1B66439  29.687  17.522   6.207
 5276POPC   C2B66440  29.640  17.472   6.661
 5276POPC   C3B66441  29.865  17.235   7.002
 5276POPC   C4B66442  29.757  17.340   7.414
 5277POPC   NC366443   9.276  28.092   5.654
 5277POPC   PO466444   9.199  28.718   5.457
 5277POPC   GL166445   9.513  28.511   5.820
 5277POPC   GL266446   9.821  28.229   5.825
 5277POPC   C1A66447   9.623  28.401   6.263
 5277POPC   D2A66448   9.928  28.583   6.533
 5277POPC   C3A66449   9.726  28.632   6.934
 5277POPC   C4A66450   9.481  28.376   7.213
 5277POPC   C1B66451  10.020  28.085   6.258
 5277POPC   C2B66452   9.921  28.099   6.743
 5277POPC   C3B66453   9.961  28.155   7.227
 5277POPC   C4B66454  10.201  28.004   7.594
 5278POPC   NC366455  41.554   8.463   5.507
 5278POPC   PO466456  42.107   8.010   5.437
 5278POPC   GL166457  41.743   8.082   5.807
 5278POPC   GL266458  41.363   8.243   5.909
 5278POPC   C1A66459  41.517   7.840   6.138
 5278POPC   D2A66460  41.646   7.830   6.543
 5278POPC   C3A66461  41.550   8.173   6.799
 5278POPC   C4A66462  41.193   8.159   7.089
 5278POPC   C1B66463  41.251   8.450   6.322
 5278POPC   C2B66464  41.267   8.610   6.761
 5278POPC   C3B66465  41.259   8.631   7.245
 5278POPC   C4B66466  41.353   8.445   7.691
 5279POPC   NC366467  11.732   6.709   5.154
 5279POPC   PO466468  11.079   6.656   5.309
 5279POPC   GL166469  11.267   6.594   5.708
 5279POPC   GL266470  11.301   6.272   5.795
 5279POPC   C1A66471  11.317   6.736   6.141
 5279POPC   D2A66472  11.473   6.910   6.528
 5279POPC   C3A66473  11.268   6.857   6.921
 5279POPC   C4A66474  11.486   6.912   7.317
 5279POPC   C1B66475  11.161   6.260   6.249
 5279POPC   C2B66476  11.229   6.369   6.719
 5279POPC   C3B66477  11.072   6.405   7.176
 5279POPC   C4B66478  11.001   6.223   7.627
 5280POPC   NC366479  18.761  31.210   5.288
 5280POPC   PO466480  19.334  31.479   5.292
 5280POPC   GL166481  19.106  31.312   5.680
 5280POPC   GL266482  19.349  31.220   5.919
 5280POPC   C1A66483  18.904  31.394   6.107
 5280POPC   D2A66484  19.042  31.636   6.490
 5280POPC   C3A66485  18.945  31.496   6.911
 5280POPC   C4A66486  18.932  31.570   7.341
 5280POPC   C1B66487  19.348  31.249   6.351
 5280POPC   C2B66488  19.394  31.317   6.765
 5280POPC   C3B66489  19.431  31.632   7.058
 5280POPC   C4B66490  19.447  31.626   7.474
 5281POPC   NC366491   3.697   4.711   5.530
 5281POPC   PO466492   3.341   4.039   5.488
 5281POPC   GL166493   3.465   4.198   5.841
 5281POPC   GL266494   3.784   4.328   5.881
 5281POPC   C1A66495   3.478   4.212   6.268
 5281POPC   D2A66496   3.373   4.432   6.621
 5281POPC   C3A66497   3.426   4.113   6.912
 5281POPC   C4A66498   3.611   4.067   7.286
 5281POPC   C1B66499   3.913   4.480   6.285
 5281POPC   C2B66500   3.890   4.562   6.737
 5281POPC   C3B66501   3.961   4.441   7.152
 5281POPC   C4B66502   3.813   4.557   7.542
 5282POPC   NC366503  27.331  19.462   5.293
 5282POPC   PO466504  27.477  20.069   5.467
 5282POPC   GL166505  27.577  19.685   5.723
 5282POPC   GL266506  27.274  19.732   5.826
 5282POPC   C1A66507  27.624  19.534   6.163
 5282POPC   D2A66508  27.842  19.340   6.520
 5282POPC   C3A66509  27.747  19.558   6.885
 5282POPC   C4A66510  27.412  19.454   7.156
 5282POPC   C1B66511  27.475  20.019   6.130
 5282POPC   C2B66512  27.445  19.890   6.540
 5282POPC   C3B66513  27.394  19.927   6.952
 5282POPC   C4B66514  27.685  20.062   7.260
 5283POPC   NC366515  31.356  37.796   5.357
 5283POPC   PO466516  31.898  37.697   5.657
 5283POPC   GL166517  31.489  37.709   5.839
 5283POPC   GL266518  31.296  37.409   5.755
 5283POPC   C1A66519  31.352  37.768   6.245
 5283POPC   D2A66520  31.646  37.580   6.531
 5283POPC   C3A66521  31.518  37.658   6.937
 5283POPC   C4A66522  31.782  37.786   7.231
 5283POPC   C1B66523  31.436  37.274   6.165
 5283POPC   C2B66524  31.240  37.287   6.570
 5283POPC   C3B66525  31.383  37.167   6.977
 5283POPC   C4B66526  31.299  37.342   7.329
 5284POPC   NC366527   8.059  24.714   5.327
 5284POPC   PO466528   8.269  24.144   5.594
 5284POPC   GL166529   8.162  24.573   5.810
 5284POPC   GL266530   7.830  24.772   5.777
 5284POPC   C1A66531   8.337  24.723   6.211
 5284POPC   D2A66532   8.461  24.381   6.523
 5284POPC   C3A66533   8.515  24.512   6.950
 5284POPC   C4A66534   8.319  24.439   7.335
 5284POPC   C1B66535   7.825  24.641   6.216
 5284POPC   C2B66536   8.011  24.777   6.623
 5284POPC   C3B66537   8.021  24.740   7.069
 5284POPC   C4B66538   8.000  24.759   7.554
 5285POPC   NC366539  36.887  44.892   5.606
 5285POPC   PO466540  37.213  44.270   5.447
 5285POPC   GL166541  36.967  44.423   5.848
 5285POPC   GL266542  36.640  44.617   5.940
 5285POPC   C1A66543  36.944  44.471   6.315
 5285POPC   D2A66544  37.223  44.389   6.651
 5285POPC   C3A66545  37.039  44.576   6.983
 5285POPC   C4A66546  37.185  44.719   7.341
 5285POPC   C1B66547  36.545  44.946   6.248
 5285POPC   C2B66548  36.480  44.976   6.709
 5285POPC   C3B66549  36.700  44.952   7.137
 5285POPC   C4B66550  36.850   0.008   7.573
 5286POPC   NC366551  20.152  33.591   5.384
 5286POPC   PO466552  20.164  32.900   5.395
 5286POPC   GL166553  19.885  33.073   5.707
 5286POPC   GL266554  19.643  33.333   5.610
 5286POPC   C1A66555  19.938  33.119   6.135
 5286POPC   D2A66556  19.937  32.895   6.519
 5286POPC   C3A66557  19.971  33.123   6.883
 5286POPC   C4A66558  20.057  32.983   7.297
 5286POPC   C1B66559  19.569  33.454   6.058
 5286POPC   C2B66560  19.665  33.398   6.495
 5286POPC   C3B66561  19.503  33.427   6.883
 5286POPC   C4B66562  19.711  33.360   7.255
 5287POPC   NC366563  41.056  13.539   5.413
 5287POPC   PO466564  40.455  13.368   5.165
 5287POPC   GL166565  40.583  13.396   5.611
 5287POPC   GL266566  40.612  13.748   5.740
 5287POPC   C1A66567  40.821  13.362   6.025
 5287POPC   D2A66568  40.896  13.445   6.478
 5287POPC   C3A66569  41.048  13.783   6.747
 5287POPC   C4A66570  41.167  13.690   7.190
 5287POPC   C1B66571  40.605  13.792   6.215
 5287POPC   C2B66572  40.485  13.821   6.664
 5287POPC   C3B66573  40.297  13.684   7.060
 5287POPC   C4B66574  40.327  13.790   7.503
 5288POPC   NC366575  23.743  25.494   5.387
 5288POPC   PO466576  23.449  26.088   5.281
 5288POPC   GL166577  23.546  26.026   5.756
 5288POPC   GL266578  23.565  25.682   5.813
 5288POPC   C1A66579  23.705  26.164   6.208
 5288POPC   D2A66580  23.800  26.258   6.686
 5288POPC   C3A66581  23.511  26.261   7.056
 5288POPC   C4A66582  23.571  26.381   7.491
 5288POPC   C1B66583  23.840  25.599   6.166
 5288POPC   C2B66584  23.749  25.759   6.562
 5288POPC   C3B66585  23.623  25.768   6.982
 5288POPC   C4B66586  23.855  25.563   7.302
 5289POPC   NC366587  10.031  31.583   5.103
 5289POPC   PO466588   9.394  31.676   5.304
 5289POPC   GL166589   9.431  31.545   5.735
 5289POPC   GL266590   9.787  31.429   5.740
 5289POPC   C1A66591   9.494  31.369   6.162
 5289POPC   D2A66592   9.645  31.214   6.557
 5289POPC   C3A66593   9.476  31.447   6.885
 5289POPC   C4A66594   9.293  31.294   7.245
 5289POPC   C1B66595  10.068  31.469   6.096
 5289POPC   C2B66596  10.149  31.293   6.503
 5289POPC   C3B66597  10.008  31.370   6.896
 5289POPC   C4B66598   9.790  31.167   7.192
 5290POPC   NC366599  13.370  14.075   5.591
 5290POPC   PO466600  13.786  14.570   5.221
 5290POPC   GL166601  13.750  14.373   5.688
 5290POPC   GL266602  13.929  14.138   5.820
 5290POPC   C1A66603  13.511  14.382   6.133
 5290POPC   D2A66604  13.415  14.111   6.504
 5290POPC   C3A66605  13.460  14.293   6.926
 5290POPC   C4A66606  13.391  14.744   6.989
 5290POPC   C1B66607  14.005  14.400   6.194
 5290POPC   C2B66608  13.749  14.532   6.573
 5290POPC   C3B66609  13.875  14.642   7.015
 5290POPC   C4B66610  13.683  14.471   7.390
 5291POPC   NC366611  13.963  14.140   5.280
 5291POPC   PO466612  14.586  14.329   5.436
 5291POPC   GL166613  14.429  14.311   5.847
 5291POPC   GL266614  14.399  13.982   5.998
 5291POPC   C1A66615  14.506  14.419   6.291
 5291POPC   D2A66616  14.242  14.439   6.657
 5291POPC   C3A66617  14.402  14.489   7.045
 5291POPC   C4A66618  14.425  14.744   7.391
 5291POPC   C1B66619  14.046  13.881   6.250
 5291POPC   C2B66620  13.899  14.032   6.646
 5291POPC   C3B66621  13.990  14.159   7.052
 5291POPC   C4B66622  14.167  14.291   7.461
 5292POPC   NC366623  40.058  13.514   5.355
 5292POPC   PO466624  39.394  13.463   5.292
 5292POPC   GL166625  39.692  13.497   5.726
 5292POPC   GL266626  39.963  13.796   5.787
 5292POPC   C1A66627  39.785  13.502   6.200
 5292POPC   D2A66628  40.028  13.544   6.582
 5292POPC   C3A66629  39.791  13.468   6.951
 5292POPC   C4A66630  39.880  13.563   7.396
 5292POPC   C1B66631  40.091  13.927   6.227
 5292POPC   C2B66632  39.938  14.050   6.653
 5292POPC   C3B66633  39.881  13.983   7.084
 5292POPC   C4B66634  39.970  14.127   7.490
 5293POPC   NC366635  11.030  34.437   5.084
 5293POPC   PO466636  11.208  34.997   5.542
 5293POPC   GL166637  11.309  34.762   5.889
 5293POPC   GL266638  11.628  34.665   5.841
 5293POPC   C1A66639  11.340  34.569   6.317
 5293POPC   D2A66640  11.099  34.631   6.703
 5293POPC   C3A66641  11.215  34.563   7.124
 5293POPC   C4A66642  11.314  34.347   7.491
 5293POPC   C1B66643  11.655  34.952   6.217
 5293POPC   C2B66644  11.495  34.986   6.659
 5293POPC   C3B66645  11.586  34.951   7.124
 5293POPC   C4B66646  11.388  34.844   7.524
 5294POPC   NC366647   6.820  31.007   5.458
 5294POPC   PO466648   6.512  30.420   5.461
 5294POPC   GL166649   6.483  30.672   5.815
 5294POPC   GL266650   6.843  30.709   5.869
 5294POPC   C1A66651   6.476  30.772   6.259
 5294POPC   D2A66652   6.434  31.107   6.553
 5294POPC   C3A66653   6.356  30.857   6.883
 5294POPC   C4A66654   6.608  30.621   7.129
 5294POPC   C1B66655   6.996  30.605   6.261
 5294POPC   C2B66656   6.862  30.733   6.660
 5294POPC   C3B66657   7.075  30.824   7.039
 5294POPC   C4B66658   6.878  31.022   7.350
 5295POPC   NC366659  40.629  18.372   5.467
 5295POPC   PO466660  41.074  17.882   5.435
 5295POPC   GL166661  40.997  18.176   5.792
 5295POPC   GL266662  41.059  18.538   5.738
 5295POPC   C1A66663  40.945  18.245   6.260
 5295POPC   D2A66664  41.171  18.266   6.662
 5295POPC   C3A66665  40.981  17.984   6.967
 5295POPC   C4A66666  40.671  18.088   7.247
 5295POPC   C1B66667  40.748  18.682   6.055
 5295POPC   C2B66668  40.590  18.587   6.480
 5295POPC   C3B66669  40.760  18.513   6.884
 5295POPC   C4B66670  41.055  18.470   7.195
 5296POPC   NC366671   4.511  26.568   5.754
 5296POPC   PO466672   4.236  26.971   5.344
 5296POPC   GL166673   4.065  26.887   5.759
 5296POPC   GL266674   3.912  26.563   5.716
 5296POPC   C1A66675   4.241  27.021   6.203
 5296POPC   D2A66676   4.581  26.895   6.496
 5296POPC   C3A66677   4.505  26.779   6.930
 5296POPC   C4A66678   4.157  26.973   7.096
 5296POPC   C1B66679   3.897  26.629   6.175
 5296POPC   C2B66680   4.075  26.689   6.584
 5296POPC   C3B66681   4.077  26.457   6.948
 5296POPC   C4B66682   3.976  26.533   7.336
 5297POPC   NC366683  24.094   8.691   5.619
 5297POPC   PO466684  23.449   8.719   5.313
 5297POPC   GL166685  23.610   8.878   5.722
 5297POPC   GL266686  23.816   9.201   5.723
 5297POPC   C1A66687  23.664   8.869   6.173
 5297POPC   D2A66688  23.890   8.751   6.549
 5297POPC   C3A66689  23.637   8.854   6.905
 5297POPC   C4A66690  23.886   8.956   7.233
 5297POPC   C1B66691  23.704   9.393   6.132
 5297POPC   C2B66692  23.725   9.241   6.567
 5297POPC   C3B66693  23.723   9.421   6.981
 5297POPC   C4B66694  23.741   9.405   7.424
 5298POPC   NC366695  36.574  15.246   5.453
 5298POPC   PO466696  37.293  15.133   5.468
 5298POPC   GL166697  36.996  15.224   5.767
 5298POPC   GL266698  36.792  14.942   5.794
 5298POPC   C1A66699  36.850  15.296   6.190
 5298POPC   D2A66700  36.678  15.118   6.548
 5298POPC   C3A66701  36.827  15.307   6.895
 5298POPC   C4A66702  36.624  15.154   7.235
 5298POPC   C1B66703  36.936  14.787   6.182
 5298POPC   C2B66704  36.999  14.702   6.592
 5298POPC   C3B66705  36.918  14.813   6.992
 5298POPC   C4B66706  37.130  15.095   7.274
 5299POPC   NC366707   1.298  30.819   5.412
 5299POPC   PO466708   1.142  30.148   5.383
 5299POPC   GL166709   1.191  30.428   5.732
 5299POPC   GL266710   0.878  30.576   5.684
 5299POPC   C1A66711   1.260  30.645   6.132
 5299POPC   D2A66712   1.462  30.604   6.533
 5299POPC   C3A66713   1.312  30.764   6.921
 5299POPC   C4A66714   1.524  30.729   7.325
 5299POPC   C1B66715   0.815  30.390   6.112
 5299POPC   C2B66716   0.949  30.470   6.550
 5299POPC   C3B66717   0.856  30.444   6.994
 5299POPC   C4B66718   1.030  30.615   7.346
 5300POPC   NC366719  22.560  13.317   5.437
 5300POPC   PO466720  23.141  13.666   5.502
 5300POPC   GL166721  22.963  13.528   5.878
 5300POPC   GL266722  23.299  13.315   5.891
 5300POPC   C1A66723  22.802  13.764   6.291
 5300POPC   D2A66724  22.833  14.010   6.720
 5300POPC   C3A66725  22.907  13.758   7.105
 5300POPC   C4A66726  22.563  13.462   7.204
 5300POPC   C1B66727  23.269  13.523   6.282
 5300POPC   C2B66728  23.089  13.528   6.669
 5300POPC   C3B66729  23.233  13.388   7.037
 5300POPC   C4B66730  23.461  13.615   7.308
 5301POPC   NC366731  19.124  34.890   5.050
 5301POPC   PO466732  19.325  34.320   5.300
 5301POPC   GL166733  19.157  34.630   5.604
 5301POPC   GL266734  19.475  34.650   5.783
 5301POPC   C1A66735  19.014  34.681   6.065
 5301POPC   D2A66736  19.023  34.512   6.523
 5301POPC   C3A66737  18.789  34.672   6.912
 5301POPC   C4A66738  18.892  34.568   7.339
 5301POPC   C1B66739  19.490  34.458   6.192
 5301POPC   C2B66740  19.520  34.331   6.630
 5301POPC   C3B66741  19.309  34.445   7.020
 5301POPC   C4B66742  19.290  34.865   7.205
 5302POPC   NC366743  36.528   2.885   5.142
 5302POPC   PO466744  37.269   2.878   5.321
 5302POPC   GL166745  37.064   2.905   5.733
 5302POPC   GL266746  36.880   2.573   5.749
 5302POPC   C1A66747  36.691   2.939   6.050
 5302POPC   D2A66748  36.613   2.719   6.445
 5302POPC   C3A66749  36.644   2.911   6.847
 5302POPC   C4A66750  36.573   2.750   7.272
 5302POPC   C1B66751  37.111   2.634   6.172
 5302POPC   C2B66752  37.133   2.775   6.612
 5302POPC   C3B66753  37.012   2.626   7.020
 5302POPC   C4B66754  37.021   2.647   7.515
 5303POPC   NC366755  31.841  30.200   5.537
 5303POPC   PO466756  31.575  29.599   5.503
 5303POPC   GL166757  31.508  29.885   5.822
 5303POPC   GL266758  31.271  30.115   5.705
 5303POPC   C1A66759  31.642  29.803   6.239
 5303POPC   D2A66760  31.765  29.863   6.652
 5303POPC   C3A66761  31.512  29.773   7.018
 5303POPC   C4A66762  31.667  29.969   7.402
 5303POPC   C1B66763  31.302  30.288   6.104
 5303POPC   C2B66764  31.183  30.299   6.518
 5303POPC   C3B66765  31.414  30.292   6.920
 5303POPC   C4B66766  31.366  30.371   7.355
 5304POPC   NC366767   7.085  19.632   5.409
 5304POPC   PO466768   7.532  20.049   5.344
 5304POPC   GL166769   7.493  20.112   5.809
 5304POPC   GL266770   7.162  19.969   5.859
 5304POPC   C1A66771   7.509  19.866   6.233
 5304POPC   D2A66772   7.788  19.578   6.471
 5304POPC   C3A66773   7.842  19.695   6.911
 5304POPC   C4A66774   7.666  20.024   7.195
 5304POPC   C1B66775   7.184  19.508   6.047
 5304POPC   C2B66776   7.292  19.437   6.482
 5304POPC   C3B66777   7.338  19.691   6.856
 5304POPC   C4B66778   7.426  19.597   7.293
 5305POPC   NC366779  26.507  36.743   5.371
 5305POPC   PO466780  26.972  37.208   5.481
 5305POPC   GL166781  26.803  36.912   5.761
 5305POPC   GL266782  26.453  37.017   5.807
 5305POPC   C1A66783  26.784  36.787   6.209
 5305POPC   D2A66784  26.910  37.012   6.599
 5305POPC   C3A66785  26.844  36.750   6.935
 5305POPC   C4A66786  26.742  36.542   7.282
 5305POPC   C1B66787  26.387  37.178   6.220
 5305POPC   C2B66788  26.429  37.302   6.649
 5305POPC   C3B66789  26.643  37.222   7.024
 5305POPC   C4B66790  27.063  37.188   7.093
 5306POPC   NC366791  44.938   6.856   5.537
 5306POPC   PO466792  44.498   6.330   5.464
 5306POPC   GL166793  44.516   6.629   5.810
 5306POPC   GL266794  44.430   6.957   5.720
 5306POPC   C1A66795  44.716   6.685   6.200
 5306POPC   D2A66796  44.708   6.474   6.588
 5306POPC   C3A66797  44.795   6.711   6.917
 5306POPC   C4A66798  44.644   6.837   7.318
 5306POPC   C1B66799  44.353   7.075   6.153
 5306POPC   C2B66800  44.494   6.991   6.556
 5306POPC   C3B66801  44.316   6.973   6.933
 5306POPC   C4B66802  44.298   7.318   7.169
 5307POPC   NC366803  15.518  21.670   5.409
 5307POPC   PO466804  14.998  21.198   5.391
 5307POPC   GL166805  15.143  21.243   5.812
 5307POPC   GL266806  15.484  21.368   5.827
 5307POPC   C1A66807  15.272  21.125   6.236
 5307POPC   D2A66808  15.059  21.295   6.601
 5307POPC   C3A66809  15.059  21.301   7.052
 5307POPC   C4A66810  14.670  21.553   7.209
 5307POPC   C1B66811  15.710  21.399   6.223
 5307POPC   C2B66812  15.633  21.247   6.625
 5307POPC   C3B66813  15.578  21.438   7.026
 5307POPC   C4B66814  15.413  21.330   7.437
 5308POPC   NC366815  32.761  43.295   5.298
 5308POPC   PO466816  33.369  43.455   5.157
 5308POPC   GL166817  33.200  43.209   5.560
 5308POPC   GL266818  32.957  43.449   5.748
 5308POPC   C1A66819  33.251  43.116   6.038
 5308POPC   D2A66820  32.950  43.056   6.416
 5308POPC   C3A66821  33.047  42.947   6.860
 5308POPC   C4A66822  33.248  43.105   7.214
 5308POPC   C1B66823  33.068  43.570   6.179
 5308POPC   C2B66824  32.900  43.579   6.559
 5308POPC   C3B66825  33.025  43.477   6.935
 5308POPC   C4B66826  32.817  43.420   7.300
 5309POPC   NC366827  35.799  20.765   5.388
 5309POPC   PO466828  36.208  20.332   5.539
 5309POPC   GL166829  36.083  20.647   5.827
 5309POPC   GL266830  36.362  20.855   5.755
 5309POPC   C1A66831  36.064  20.677   6.275
 5309POPC   D2A66832  36.265  20.792   6.651
 5309POPC   C3A66833  36.123  20.658   7.027
 5309POPC   C4A66834  35.772  20.720   7.259
 5309POPC   C1B66835  36.566  20.727   6.153
 5309POPC   C2B66836  36.600  20.425   6.502
 5309POPC   C3B66837  36.633  20.547   6.943
 5309POPC   C4B66838  36.572  20.899   7.182
 5310POPC   NC366839  44.467  27.762   5.145
 5310POPC   PO466840  44.802  27.464   5.588
 5310POPC   GL166841  44.498  27.468   5.897
 5310POPC   GL266842  44.246  27.717   5.813
 5310POPC   C1A66843  44.726  27.450   6.283
 5310POPC   D2A66844   0.067  27.461   6.571
 5310POPC   C3A66845  44.858  27.380   6.949
 5310POPC   C4A66846  44.739  27.619   7.312
 5310POPC   C1B66847  44.419  27.912   6.198
 5310POPC   C2B66848  44.541  27.806   6.617
 5310POPC   C3B66849  44.334  27.888   7.014
 5310POPC   C4B66850  44.298  27.921   7.479
 5311POPC   NC366851  33.796  32.769   5.685
 5311POPC   PO466852  33.996  33.366   5.548
 5311POPC   GL166853  33.742  33.299   5.891
 5311POPC   GL266854  33.459  33.143   5.754
 5311POPC   C1A66855  33.858  33.112   6.289
 5311POPC   D2A66856  34.151  33.151   6.647
 5311POPC   C3A66857  33.889  33.107   7.001
 5311POPC   C4A66858  33.974  32.932   7.383
 5311POPC   C1B66859  33.323  33.167   6.182
 5311POPC   C2B66860  33.440  33.159   6.589
 5311POPC   C3B66861  33.444  32.826   6.837
 5311POPC   C4B66862  33.399  32.811   7.274
 5312POPC   NC366863  41.038  21.121   5.466
 5312POPC   PO466864  40.614  21.603   5.455
 5312POPC   GL166865  40.665  21.444   5.804
 5312POPC   GL266866  40.467  21.167   5.748
 5312POPC   C1A66867  40.546  21.378   6.212
 5312POPC   D2A66868  40.356  21.363   6.540
 5312POPC   C3A66869  40.583  21.224   6.822
 5312POPC   C4A66870  40.498  21.143   7.195
 5312POPC   C1B66871  40.813  20.999   6.038
 5312POPC   C2B66872  40.901  21.039   6.451
 5312POPC   C3B66873  41.080  21.257   6.774
 5312POPC   C4B66874  41.087  21.059   7.120
 5313POPC   NC366875  14.837   1.650   5.504
 5313POPC   PO466876  15.389   1.132   5.463
 5313POPC   GL166877  15.155   1.289   5.776
 5313POPC   GL266878  14.853   1.100   5.705
 5313POPC   C1A66879  15.234   1.368   6.227
 5313POPC   D2A66880  14.982   1.358   6.615
 5313POPC   C3A66881  15.176   1.400   7.035
 5313POPC   C4A66882  15.414   1.232   7.393
 5313POPC   C1B66883  14.756   1.152   6.146
 5313POPC   C2B66884  14.591   1.004   6.533
 5313POPC   C3B66885  14.737   1.077   6.951
 5313POPC   C4B66886  14.932   1.072   7.342
 5314POPC   NC366887  36.138   9.768   5.420
 5314POPC   PO466888  36.676   9.360   5.632
 5314POPC   GL166889  36.401   9.689   5.842
 5314POPC   GL266890  36.442  10.052   5.711
 5314POPC   C1A66891  36.070   9.740   6.182
 5314POPC   D2A66892  35.849   9.793   6.608
 5314POPC   C3A66893  35.987   9.622   7.046
 5314POPC   C4A66894  36.282   9.381   7.331
 5314POPC   C1B66895  36.500  10.075   6.169
 5314POPC   C2B66896  36.399   9.879   6.546
 5314POPC   C3B66897  36.269  10.043   6.928
 5314POPC   C4B66898  36.416   9.865   7.302
 5315POPC   NC366899  16.162  34.553   5.224
 5315POPC   PO466900  16.822  34.607   5.415
 5315POPC   GL166901  16.622  34.736   5.815
 5315POPC   GL266902  16.528  35.110   5.874
 5315POPC   C1A66903  16.783  34.684   6.242
 5315POPC   D2A66904  16.895  34.437   6.609
 5315POPC   C3A66905  16.869  34.665   6.965
 5315POPC   C4A66906  16.793  34.492   7.331
 5315POPC   C1B66907  16.380  35.012   6.277
 5315POPC   C2B66908  16.600  35.004   6.660
 5315POPC   C3B66909  16.448  34.983   7.073
 5315POPC   C4B66910  16.489  34.949   7.527
 5316POPC   NC366911  13.207  21.966   5.369
 5316POPC   PO466912  12.843  22.489   5.535
 5316POPC   GL166913  13.142  22.292   5.802
 5316POPC   GL266914  12.930  22.027   5.814
 5316POPC   C1A66915  13.081  22.291   6.256
 5316POPC   D2A66916  12.756  22.219   6.581
 5316POPC   C3A66917  12.895  22.171   6.997
 5316POPC   C4A66918  13.271  22.356   7.113
 5316POPC   C1B66919  12.763  21.853   6.196
 5316POPC   C2B66920  12.712  21.705   6.626
 5316POPC   C3B66921  12.933  21.651   7.020
 5316POPC   C4B66922  12.811  21.863   7.441
 5317POPC   NC366923  34.324  28.603   5.406
 5317POPC   PO466924  34.849  28.253   5.391
 5317POPC   GL166925  34.620  28.253   5.801
 5317POPC   GL266926  34.537  28.592   5.885
 5317POPC   C1A66927  34.574  28.129   6.255
 5317POPC   D2A66928  34.730  28.312   6.649
 5317POPC   C3A66929  34.562  28.180   7.033
 5317POPC   C4A66930  34.188  28.322   7.196
 5317POPC   C1B66931  34.843  28.788   6.138
 5317POPC   C2B66932  35.034  28.775   6.558
 5317POPC   C3B66933  34.917  28.665   6.998
 5317POPC   C4B66934  34.623  28.597   7.349
 5318POPC   NC366935  14.360  24.039   5.330
 5318POPC   PO466936  14.549  23.476   5.532
 5318POPC   GL166937  14.478  23.619   5.919
 5318POPC   GL266938  14.266  23.900   5.866
 5318POPC   C1A66939  14.396  23.369   6.287
 5318POPC   D2A66940  14.122  23.429   6.655
 5318POPC   C3A66941  14.289  23.505   7.062
 5318POPC   C4A66942  14.669  23.704   7.235
 5318POPC   C1B66943  14.241  23.848   6.335
 5318POPC   C2B66944  14.446  23.878   6.754
 5318POPC   C3B66945  14.297  24.052   7.136
 5318POPC   C4B66946  14.498  24.264   7.453
 5319POPC   NC366947  35.498  30.154   5.544
 5319POPC   PO466948  35.030  29.680   5.564
 5319POPC   GL166949  35.354  29.773   5.842
 5319POPC   GL266950  35.182  30.059   5.934
 5319POPC   C1A66951  35.338  29.674   6.277
 5319POPC   D2A66952  35.089  29.903   6.585
 5319POPC   C3A66953  35.066  29.662   6.975
 5319POPC   C4A66954  35.332  29.769   7.298
 5319POPC   C1B66955  35.493  30.162   6.246
 5319POPC   C2B66956  35.453  30.416   6.617
 5319POPC   C3B66957  35.318  30.263   7.021
 5319POPC   C4B66958  35.624  30.199   7.332
 5320POPC   NC366959  33.096  10.187   5.369
 5320POPC   PO466960  33.095  10.757   5.462
 5320POPC   GL166961  33.062  10.558   5.847
 5320POPC   GL266962  32.796  10.286   5.790
 5320POPC   C1A66963  32.958  10.687   6.274
 5320POPC   D2A66964  32.750  10.617   6.704
 5320POPC   C3A66965  32.980  10.844   7.046
 5320POPC   C4A66966  33.299  10.947   7.345
 5320POPC   C1B66967  33.010  10.148   6.157
 5320POPC   C2B66968  33.109  10.280   6.564
 5320POPC   C3B66969  32.928  10.157   6.948
 5320POPC   C4B66970  33.056  10.379   7.266
 5321POPC   NC366971  16.888   0.296   5.551
 5321POPC   PO466972  16.446   0.744   5.557
 5321POPC   GL166973  16.594   0.655   5.942
 5321POPC   GL266974  16.954   0.661   5.925
 5321POPC   C1A66975  16.601   0.700   6.380
 5321POPC   D2A66976  16.932   0.763   6.678
 5321POPC   C3A66977  16.847   0.552   7.071
 5321POPC   C4A66978  16.842   0.682   7.509
 5321POPC   C1B66979  16.897   0.302   6.241
 5321POPC   C2B66980  16.868   0.186   6.674
 5321POPC   C3B66981  16.759   0.019   7.092
 5321POPC   C4B66982  16.689   0.212   7.469
 5322POPC   NC366983  42.885  26.624   5.410
 5322POPC   PO466984  43.359  27.018   5.560
 5322POPC   GL166985  43.079  26.871   5.837
 5322POPC   GL266986  43.193  26.541   5.892
 5322POPC   C1A66987  43.008  27.017   6.228
 5322POPC   D2A66988  42.751  26.971   6.577
 5322POPC   C3A66989  42.859  26.676   6.876
 5322POPC   C4A66990  43.120  26.754   7.261
 5322POPC   C1B66991  43.126  26.533   6.362
 5322POPC   C2B66992  43.269  26.390   6.774
 5322POPC   C3B66993  43.255  26.260   7.193
 5322POPC   C4B66994  43.192  26.408   7.634
 5323POPC   NC366995   5.400  30.311   5.402
 5323POPC   PO466996   4.959  29.816   5.438
 5323POPC   GL166997   5.226  29.956   5.779
 5323POPC   GL266998   5.062  30.286   5.797
 5323POPC   C1A66999   5.331  29.831   6.225
 5323POPC   D2A67000   5.068  29.797   6.592
 5323POPC   C3A67001   5.162  29.891   7.015
 5323POPC   C4A67002   5.006  29.687   7.410
 5323POPC   C1B67003   5.219  30.333   6.224
 5323POPC   C2B67004   5.057  30.312   6.667
 5323POPC   C3B67005   4.864  30.290   7.118
 5323POPC   C4B67006   4.886  30.162   7.590
 5324POPC   NC367007  16.352  23.990   5.549
 5324POPC   PO467008  16.835  23.518   5.431
 5324POPC   GL167009  16.705  23.556   5.866
 5324POPC   GL267010  16.343  23.643   5.923
 5324POPC   C1A67011  16.705  23.712   6.305
 5324POPC   D2A67012  16.868  23.936   6.664
 5324POPC   C3A67013  17.006  23.675   7.002
 5324POPC   C4A67014  16.715  23.684   7.352
 5324POPC   C1B67015  16.301  24.035   6.197
 5324POPC   C2B67016  16.341  23.944   6.625
 5324POPC   C3B67017  16.506  24.025   7.047
 5324POPC   C4B67018  16.399  24.055   7.520
 5325POPC   NC367019  24.420   2.394   5.339
 5325POPC   PO467020  24.612   3.046   5.310
 5325POPC   GL167021  24.430   2.823   5.654
 5325POPC   GL267022  24.677   2.601   5.806
 5325POPC   C1A67023  24.357   2.842   6.121
 5325POPC   D2A67024  24.499   2.632   6.514
 5325POPC   C3A67025  24.387   2.868   6.916
 5325POPC   C4A67026  24.468   2.709   7.329
 5325POPC   C1B67027  24.861   2.854   6.186
 5325POPC   C2B67028  24.851   2.977   6.634
 5325POPC   C3B67029  24.875   2.910   7.071
 5325POPC   C4B67030  25.058   3.193   7.370
 5326POPC   NC367031  20.800  35.771   4.939
 5326POPC   PO467032  20.766  36.286   5.392
 5326POPC   GL167033  20.495  36.214   5.753
 5326POPC   GL267034  20.340  36.510   5.878
 5326POPC   C1A67035  20.466  36.141   6.207
 5326POPC   D2A67036  20.617  36.263   6.606
 5326POPC   C3A67037  20.760  36.045   6.949
 5326POPC   C4A67038  20.697  36.158   7.347
 5326POPC   C1B67039  20.148  36.581   6.272
 5326POPC   C2B67040  20.103  36.327   6.635
 5326POPC   C3B67041  20.288  36.284   7.036
 5326POPC   C4B67042  20.329  36.529   7.411
 5327POPC   NC367043  31.529   2.589   5.358
 5327POPC   PO467044  31.281   3.156   5.391
 5327POPC   GL167045  31.416   2.903   5.768
 5327POPC   GL267046  31.790   2.872   5.818
 5327POPC   C1A67047  31.432   2.807   6.214
 5327POPC   D2A67048  31.591   2.683   6.623
 5327POPC   C3A67049  31.361   2.702   6.980
 5327POPC   C4A67050  31.276   3.117   7.077
 5327POPC   C1B67051  31.941   2.673   6.224
 5327POPC   C2B67052  32.085   2.598   6.668
 5327POPC   C3B67053  31.891   2.688   7.090
 5327POPC   C4B67054  31.644   2.589   7.472
 5328POPC   NC367055  43.044  44.170   5.428
 5328POPC   PO467056  43.458  43.710   5.305
 5328POPC   GL167057  43.314  43.845   5.706
 5328POPC   GL267058  43.507  44.163   5.650
 5328POPC   C1A67059  43.091  43.778   6.087
 5328POPC   D2A67060  43.158  43.653   6.487
 5328POPC   C3A67061  42.974  43.942   6.754
 5328POPC   C4A67062  42.899  43.894   7.198
 5328POPC   C1B67063  43.326  44.242   6.069
 5328POPC   C2B67064  43.454  44.104   6.483
 5328POPC   C3B67065  43.362  44.204   6.926
 5328POPC   C4B67066  43.430  43.836   7.164
 5329POPC   NC367067   5.008  25.200   5.312
 5329POPC   PO467068   4.908  25.750   5.616
 5329POPC   GL167069   5.159  25.417   5.772
 5329POPC   GL267070   5.317  25.057   5.737
 5329POPC   C1A67071   5.237  25.322   6.201
 5329POPC   D2A67072   5.105  25.080   6.563
 5329POPC   C3A67073   4.877  25.285   6.926
 5329POPC   C4A67074   4.929  25.155   7.365
 5329POPC   C1B67075   5.529  24.896   6.175
 5329POPC   C2B67076   5.578  24.896   6.654
 5329POPC   C3B67077   5.360  25.077   7.038
 5329POPC   C4B67078   5.419  25.042   7.489
 5330POPC   NC367079   4.534  16.770   5.349
 5330POPC   PO467080   4.007  16.404   5.449
 5330POPC   GL167081   4.344  16.498   5.736
 5330POPC   GL267082   4.285  16.884   5.793
 5330POPC   C1A67083   4.353  16.531   6.159
 5330POPC   D2A67084   4.046  16.670   6.451
 5330POPC   C3A67085   4.121  16.465   6.840
 5330POPC   C4A67086   4.294  16.540   7.219
 5330POPC   C1B67087   4.391  17.012   6.242
 5330POPC   C2B67088   4.444  16.856   6.684
 5330POPC   C3B67089   4.341  17.034   7.078
 5330POPC   C4B67090   4.403  16.933   7.539
 5331POPC   NC367091  21.146  36.579   5.414
 5331POPC   PO467092  21.263  35.867   5.429
 5331POPC   GL167093  21.103  36.145   5.757
 5331POPC   GL267094  21.402  36.327   5.783
 5331POPC   C1A67095  21.003  36.233   6.223
 5331POPC   D2A67096  21.111  36.388   6.688
 5331POPC   C3A67097  21.271  36.054   7.003
 5331POPC   C4A67098  21.579  35.770   7.223
 5331POPC   C1B67099  21.629  36.454   6.157
 5331POPC   C2B67100  21.597  36.576   6.604
 5331POPC   C3B67101  21.622  36.440   7.033
 5331POPC   C4B67102  21.501  36.257   7.426
 5332POPC   NC367103  35.048   8.833   5.701
 5332POPC   PO467104  34.807   9.264   5.227
 5332POPC   GL167105  34.713   9.251   5.668
 5332POPC   GL267106  34.519   8.971   5.817
 5332POPC   C1A67107  34.757   9.355   6.102
 5332POPC   D2A67108  34.544   9.141   6.438
 5332POPC   C3A67109  34.525   9.232   6.848
 5332POPC   C4A67110  34.622   9.171   7.248
 5332POPC   C1B67111  34.575   8.708   6.190
 5332POPC   C2B67112  34.322   8.699   6.583
 5332POPC   C3B67113  34.428   8.720   7.024
 5332POPC   C4B67114  34.665   8.658   7.416
 5333POPC   NC367115  41.898   1.797   5.484
 5333POPC   PO467116  42.541   2.172   5.368
 5333POPC   GL167117  42.409   1.872   5.720
 5333POPC   GL267118  42.718   1.756   5.867
 5333POPC   C1A67119  42.318   1.723   6.181
 5333POPC   D2A67120  42.317   2.001   6.570
 5333POPC   C3A67121  42.373   2.134   7.012
 5333POPC   C4A67122  42.264   1.823   7.309
 5333POPC   C1B67123  42.721   2.102   6.217
 5333POPC   C2B67124  42.815   2.214   6.675
 5333POPC   C3B67125  42.842   2.298   7.135
 5333POPC   C4B67126  42.609   2.197   7.547
 5334POPC   NC367127  20.901  16.060   5.311
 5334POPC   PO467128  20.374  15.686   5.381
 5334POPC   GL167129  20.453  15.882   5.795
 5334POPC   GL267130  20.656  16.173   5.737
 5334POPC   C1A67131  20.411  16.140   6.188
 5334POPC   D2A67132  20.258  16.042   6.589
 5334POPC   C3A67133  20.524  15.877   6.899
 5334POPC   C4A67134  20.527  15.985   7.290
 5334POPC   C1B67135  20.873  15.983   6.081
 5334POPC   C2B67136  20.812  16.087   6.504
 5334POPC   C3B67137  20.865  16.248   6.902
 5334POPC   C4B67138  21.034  16.018   7.226
 5335POPC   NC367139  26.125   0.718   5.522
 5335POPC   PO467140  25.756   0.215   5.385
 5335POPC   GL167141  25.797   0.390   5.810
 5335POPC   GL267142  26.123   0.279   5.829
 5335POPC   C1A67143  25.926   0.424   6.282
 5335POPC   D2A67144  26.147   0.255   6.703
 5335POPC   C3A67145  25.917   0.362   7.100
 5335POPC   C4A67146  25.738   0.406   7.520
 5335POPC   C1B67147  26.381   0.270   6.222
 5335POPC   C2B67148  26.561   0.546   6.541
 5335POPC   C3B67149  26.506   0.598   6.970
 5335POPC   C4B67150  26.402   0.240   7.193
 5336POPC   NC367151  18.404  16.052   5.395
 5336POPC   PO467152  17.895  15.688   5.550
 5336POPC   GL167153  18.201  15.860   5.861
 5336POPC   GL267154  18.332  16.228   5.897
 5336POPC   C1A67155  18.430  15.880   6.257
 5336POPC   D2A67156  18.340  16.103   6.636
 5336POPC   C3A67157  18.466  15.861   6.978
 5336POPC   C4A67158  18.197  15.749   7.281
 5336POPC   C1B67159  18.657  16.336   6.255
 5336POPC   C2B67160  18.630  16.541   6.648
 5336POPC   C3B67161  18.618  16.352   7.028
 5336POPC   C4B67162  18.272  16.235   7.264
 5337POPC   NC367163  10.500   9.624   5.541
 5337POPC   PO467164  10.823   9.080   5.436
 5337POPC   GL167165  10.613   9.084   5.822
 5337POPC   GL267166  10.269   9.226   5.849
 5337POPC   C1A67167  10.556   8.769   6.165
 5337POPC   D2A67168  10.376   8.629   6.522
 5337POPC   C3A67169  10.569   8.711   6.902
 5337POPC   C4A67170  10.623   8.734   7.323
 5337POPC   C1B67171  10.123   9.006   6.234
 5337POPC   C2B67172  10.253   9.093   6.678
 5337POPC   C3B67173  10.144   8.899   7.075
 5337POPC   C4B67174  10.251   9.124   7.440
 5338POPC   NC367175  12.316  13.930   5.450
 5338POPC   PO467176  11.955  13.321   5.542
 5338POPC   GL167177  12.251  13.469   5.805
 5338POPC   GL267178  12.024  13.694   5.927
 5338POPC   C1A67179  12.431  13.471   6.191
 5338POPC   D2A67180  12.154  13.578   6.515
 5338POPC   C3A67181  12.227  13.449   6.947
 5338POPC   C4A67182  12.053  13.497   7.360
 5338POPC   C1B67183  12.285  13.954   6.157
 5338POPC   C2B67184  12.402  14.039   6.575
 5338POPC   C3B67185  12.083  13.937   6.868
 5338POPC   C4B67186  12.037  13.999   7.273
 5339POPC   NC367187   8.541  23.237   5.558
 5339POPC   PO467188   9.117  23.012   5.301
 5339POPC   GL167189   8.987  23.008   5.712
 5339POPC   GL267190   9.019  22.679   5.803
 5339POPC   C1A67191   8.795  23.030   6.124
 5339POPC   D2A67192   8.914  23.026   6.540
 5339POPC   C3A67193   8.734  22.785   6.848
 5339POPC   C4A67194   8.689  23.131   7.118
 5339POPC   C1B67195   9.084  22.543   6.200
 5339POPC   C2B67196   9.260  22.647   6.589
 5339POPC   C3B67197   9.169  22.531   7.007
 5339POPC   C4B67198   9.064  22.825   7.305
 5340POPC   NC367199  23.517  26.482   5.502
 5340POPC   PO467200  23.873  27.052   5.320
 5340POPC   GL167201  23.863  26.904   5.720
 5340POPC   GL267202  23.489  26.927   5.758
 5340POPC   C1A67203  23.788  26.707   6.118
 5340POPC   D2A67204  23.885  26.760   6.535
 5340POPC   C3A67205  23.509  26.759   6.795
 5340POPC   C4A67206  23.685  26.752   7.179
 5340POPC   C1B67207  23.546  27.178   6.135
 5340POPC   C2B67208  23.631  27.227   6.554
 5340POPC   C3B67209  23.883  27.141   6.887
 5340POPC   C4B67210  23.889  27.311   7.287
 5341POPC   NC367211  34.074  34.539   5.352
 5341POPC   PO467212  33.469  34.746   5.408
 5341POPC   GL167213  33.749  34.525   5.761
 5341POPC   GL267214  34.046  34.287   5.823
 5341POPC   C1A67215  33.996  34.710   6.143
 5341POPC   D2A67216  33.761  34.930   6.492
 5341POPC   C3A67217  33.787  34.823   6.917
 5341POPC   C4A67218  33.736  34.616   7.333
 5341POPC   C1B67219  33.830  34.231   6.213
 5341POPC   C2B67220  33.911  34.433   6.593
 5341POPC   C3B67221  34.137  34.463   6.958
 5341POPC   C4B67222  34.004  34.184   7.266
 5342POPC   NC367223  25.789   7.224   5.378
 5342POPC   PO467224  26.207   6.670   5.344
 5342POPC   GL167225  26.003   6.584   5.756
 5342POPC   GL267226  25.798   6.888   5.818
 5342POPC   C1A67227  25.977   6.331   6.148
 5342POPC   D2A67228  25.885   6.506   6.547
 5342POPC   C3A67229  25.968   6.336   6.903
 5342POPC   C4A67230  25.816   6.480   7.226
 5342POPC   C1B67231  26.012   6.882   6.243
 5342POPC   C2B67232  26.135   6.940   6.713
 5342POPC   C3B67233  26.227   6.791   7.157
 5342POPC   C4B67234  26.562   6.729   7.521
 5343POPC   NC367235  29.247   0.698   5.196
 5343POPC   PO467236  28.882   0.213   5.538
 5343POPC   GL167237  28.929   0.421   5.920
 5343POPC   GL267238  29.271   0.501   5.828
 5343POPC   C1A67239  29.109   0.533   6.344
 5343POPC   D2A67240  29.137   0.719   6.777
 5343POPC   C3A67241  28.853   0.522   7.089
 5343POPC   C4A67242  28.958   0.122   7.319
 5343POPC   C1B67243  29.559   0.339   6.133
 5343POPC   C2B67244  29.480   0.208   6.540
 5343POPC   C3B67245  29.598   0.403   6.908
 5343POPC   C4B67246  29.354   0.497   7.209
 5344POPC   NC367247  38.339  24.185   5.336
 5344POPC   PO467248  38.170  24.827   5.534
 5344POPC   GL167249  38.373  24.682   5.862
 5344POPC   GL267250  38.438  24.344   5.847
 5344POPC   C1A67251  38.342  24.632   6.269
 5344POPC   D2A67252  38.136  24.377   6.504
 5344POPC   C3A67253  38.219  24.570   6.861
 5344POPC   C4A67254  38.428  24.468   7.200
 5344POPC   C1B67255  38.609  24.187   6.273
 5344POPC   C2B67256  38.565  24.174   6.737
 5344POPC   C3B67257  38.823  24.180   7.104
 5344POPC   C4B67258  38.735  24.239   7.525
 5345POPC   NC367259  38.790  22.565   5.041
 5345POPC   PO467260  38.710  23.038   5.454
 5345POPC   GL167261  38.576  23.122   5.857
 5345POPC   GL267262  38.216  23.111   5.779
 5345POPC   C1A67263  38.695  23.032   6.308
 5345POPC   D2A67264  38.861  22.797   6.637
 5345POPC   C3A67265  38.635  22.861   7.000
 5345POPC   C4A67266  38.689  22.659   7.350
 5345POPC   C1B67267  38.263  22.806   6.123
 5345POPC   C2B67268  38.304  22.820   6.577
 5345POPC   C3B67269  38.118  22.926   6.969
 5345POPC   C4B67270  38.170  22.629   7.254
 5346POPC   NC367271   3.592  26.317   5.385
 5346POPC   PO467272   3.766  25.713   5.644
 5346POPC   GL167273   3.674  26.080   5.821
 5346POPC   GL267274   3.335  26.086   5.879
 5346POPC   C1A67275   3.770  26.130   6.216
 5346POPC   D2A67276   3.741  26.266   6.606
 5346POPC   C3A67277   3.808  25.911   6.876
 5346POPC   C4A67278   3.653  26.073   7.218
 5346POPC   C1B67279   3.410  25.737   6.175
 5346POPC   C2B67280   3.377  25.787   6.604
 5346POPC   C3B67281   3.287  26.158   6.857
 5346POPC   C4B67282   3.140  26.184   7.276
 5347POPC   NC367283  32.510   1.400   5.345
 5347POPC   PO467284  32.202   0.728   5.440
 5347POPC   GL167285  32.276   1.042   5.718
 5347POPC   GL267286  31.998   1.272   5.674
 5347POPC   C1A67287  32.361   0.967   6.157
 5347POPC   D2A67288  32.511   1.152   6.519
 5347POPC   C3A67289  32.366   0.878   6.824
 5347POPC   C4A67290  32.449   1.093   7.187
 5347POPC   C1B67291  32.108   1.404   6.114
 5347POPC   C2B67292  32.004   1.226   6.511
 5347POPC   C3B67293  32.159   1.367   6.878
 5347POPC   C4B67294  32.001   1.386   7.291
 5348POPC   NC367295  11.448   4.526   5.454
 5348POPC   PO467296  10.962   4.008   5.447
 5348POPC   GL167297  11.120   4.273   5.804
 5348POPC   GL267298  11.488   4.187   5.855
 5348POPC   C1A67299  11.066   4.460   6.238
 5348POPC   D2A67300  11.201   4.363   6.659
 5348POPC   C3A67301  11.357   4.563   7.020
 5348POPC   C4A67302  11.340   4.387   7.427
 5348POPC   C1B67303  11.580   4.369   6.267
 5348POPC   C2B67304  11.715   4.431   6.687
 5348POPC   C3B67305  11.610   4.132   7.033
 5348POPC   C4B67306  11.821   4.152   7.431
 5349POPC   NC367307  29.611  28.176   5.156
 5349POPC   PO467308  30.093  27.739   5.417
 5349POPC   GL167309  29.845  27.843   5.724
 5349POPC   GL267310  29.956  27.533   5.883
 5349POPC   C1A67311  29.723  27.918   6.155
 5349POPC   D2A67312  29.680  27.648   6.515
 5349POPC   C3A67313  29.777  27.833   6.882
 5349POPC   C4A67314  29.616  27.788   7.268
 5349POPC   C1B67315  29.798  27.272   6.196
 5349POPC   C2B67316  29.941  27.061   6.538
 5349POPC   C3B67317  29.872  27.230   6.892
 5349POPC   C4B67318  29.872  27.165   7.283
 5350POPC   NC367319  29.831  38.196   5.332
 5350POPC   PO467320  30.262  38.663   5.517
 5350POPC   GL167321  29.983  38.646   5.862
 5350POPC   GL267322  29.707  38.493   5.712
 5350POPC   C1A67323  30.029  38.482   6.274
 5350POPC   D2A67324  30.203  38.165   6.561
 5350POPC   C3A67325  30.028  38.258   6.948
 5350POPC   C4A67326  29.933  38.676   7.148
 5350POPC   C1B67327  29.530  38.492   6.106
 5350POPC   C2B67328  29.558  38.656   6.509
 5350POPC   C3B67329  29.531  38.460   6.887
 5350POPC   C4B67330  29.636  38.261   7.281
 5351POPC   NC367331  25.524  11.682   5.280
 5351POPC   PO467332  25.049  12.132   5.326
 5351POPC   GL167333  25.164  12.048   5.747
 5351POPC   GL267334  25.493  12.189   5.665
 5351POPC   C1A67335  25.255  12.144   6.209
 5351POPC   D2A67336  25.300  12.035   6.669
 5351POPC   C3A67337  25.105  12.264   7.028
 5351POPC   C4A67338  24.927  12.169   7.443
 5351POPC   C1B67339  25.628  11.876   5.957
 5351POPC   C2B67340  25.737  11.923   6.391
 5351POPC   C3B67341  25.769  11.737   6.776
 5351POPC   C4B67342  25.564  11.936   7.108
 5352POPC   NC367343   2.661  18.335   5.294
 5352POPC   PO467344   3.210  17.944   5.439
 5352POPC   GL167345   3.010  18.177   5.814
 5352POPC   GL267346   2.667  18.326   5.847
 5352POPC   C1A67347   2.988  18.255   6.289
 5352POPC   D2A67348   3.045  18.526   6.665
 5352POPC   C3A67349   2.812  18.547   7.081
 5352POPC   C4A67350   2.962  18.347   7.502
 5352POPC   C1B67351   2.495  18.373   6.278
 5352POPC   C2B67352   2.633  18.222   6.685
 5352POPC   C3B67353   2.407  18.241   7.057
 5352POPC   C4B67354   2.414  18.561   7.398
 5353POPC   NC367355  28.063  36.201   5.352
 5353POPC   PO467356  28.660  36.017   5.612
 5353POPC   GL167357  28.361  36.179   5.890
 5353POPC   GL267358  28.101  36.411   5.813
 5353POPC   C1A67359  28.328  36.162   6.326
 5353POPC   D2A67360  28.269  35.891   6.640
 5353POPC   C3A67361  28.332  36.052   7.040
 5353POPC   C4A67362  28.636  36.353   7.113
 5353POPC   C1B67363  27.875  36.355   6.184
 5353POPC   C2B67364  27.736  36.355   6.597
 5353POPC   C3B67365  27.993  36.402   6.932
 5353POPC   C4B67366  27.977  36.251   7.371
 5354POPC   NC367367  14.641  38.561   5.438
 5354POPC   PO467368  14.053  38.482   5.233
 5354POPC   GL167369  14.173  38.558   5.693
 5354POPC   GL267370  14.458  38.743   5.863
 5354POPC   C1A67371  14.301  38.328   6.095
 5354POPC   D2A67372  14.425  38.488   6.497
 5354POPC   C3A67373  14.183  38.337   6.843
 5354POPC   C4A67374  14.237  38.295   7.289
 5354POPC   C1B67375  14.759  38.799   6.186
 5354POPC   C2B67376  14.739  38.934   6.598
 5354POPC   C3B67377  14.566  38.739   6.957
 5354POPC   C4B67378  14.583  38.689   7.374
 5355POPC   NC367379  33.897  25.548   5.354
 5355POPC   PO467380  33.903  24.880   5.501
 5355POPC   GL167381  33.686  25.250   5.712
 5355POPC   GL267382  33.441  25.067   5.804
 5355POPC   C1A67383  33.676  25.484   6.136
 5355POPC   D2A67384  33.922  25.517   6.513
 5355POPC   C3A67385  33.760  25.442   6.939
 5355POPC   C4A67386  33.891  25.427   7.381
 5355POPC   C1B67387  33.718  24.977   6.166
 5355POPC   C2B67388  33.601  25.077   6.602
 5355POPC   C3B67389  33.635  24.971   7.061
 5355POPC   C4B67390  33.612  24.983   7.499
 5356POPC   NC367391  40.793  34.367   5.314
 5356POPC   PO467392  40.654  35.012   5.503
 5356POPC   GL167393  40.862  34.737   5.825
 5356POPC   GL267394  40.987  34.397   5.820
 5356POPC   C1A67395  40.715  34.676   6.259
 5356POPC   D2A67396  40.659  34.438   6.638
 5356POPC   C3A67397  40.691  34.720   6.970
 5356POPC   C4A67398  40.571  34.721   7.373
 5356POPC   C1B67399  41.193  34.466   6.213
 5356POPC   C2B67400  41.144  34.253   6.598
 5356POPC   C3B67401  40.994  34.301   7.021
 5356POPC   C4B67402  40.599  34.116   7.105
 5357POPC   NC367403  29.765   2.782   5.296
 5357POPC   PO467404  30.375   3.026   5.382
 5357POPC   GL167405  30.135   2.746   5.673
 5357POPC   GL267406  30.101   3.016   5.862
 5357POPC   C1A67407  30.018   2.602   6.130
 5357POPC   D2A67408  29.788   2.649   6.533
 5357POPC   C3A67409  29.900   2.540   6.960
 5357POPC   C4A67410  29.809   2.728   7.368
 5357POPC   C1B67411  30.087   3.160   6.259
 5357POPC   C2B67412  30.072   3.133   6.664
 5357POPC   C3B67413  29.788   3.071   6.974
 5357POPC   C4B67414  29.887   3.234   7.358
 5358POPC   NC367415  18.072  27.165   5.515
 5358POPC   PO467416  18.267  27.784   5.576
 5358POPC   GL167417  18.139  27.525   5.869
 5358POPC   GL267418  18.445  27.423   5.905
 5358POPC   C1A67419  17.983  27.530   6.273
 5358POPC   D2A67420  18.069  27.790   6.609
 5358POPC   C3A67421  18.129  27.590   7.011
 5358POPC   C4A67422  18.249  27.579   7.476
 5358POPC   C1B67423  18.481  27.728   6.241
 5358POPC   C2B67424  18.531  27.596   6.655
 5358POPC   C3B67425  18.630  27.667   7.058
 5358POPC   C4B67426  18.707  27.447   7.389
 5359POPC   NC367427   7.078   6.791   5.436
 5359POPC   PO467428   7.634   6.395   5.464
 5359POPC   GL167429   7.449   6.557   5.828
 5359POPC   GL267430   7.406   6.885   5.829
 5359POPC   C1A67431   7.666   6.657   6.230
 5359POPC   D2A67432   7.773   6.385   6.588
 5359POPC   C3A67433   7.682   6.639   6.922
 5359POPC   C4A67434   7.657   6.816   7.296
 5359POPC   C1B67435   7.179   6.896   6.232
 5359POPC   C2B67436   7.217   6.839   6.694
 5359POPC   C3B67437   7.179   6.843   7.154
 5359POPC   C4B67438   7.258   6.898   7.650
 5360POPC   NC367439  39.872  25.842   5.474
 5360POPC   PO467440  40.279  26.359   5.586
 5360POPC   GL167441  40.077  26.151   5.893
 5360POPC   GL267442  40.125  25.800   5.946
 5360POPC   C1A67443  40.253  26.186   6.303
 5360POPC   D2A67444  40.165  25.932   6.663
 5360POPC   C3A67445  40.098  26.148   7.012
 5360POPC   C4A67446  40.058  25.992   7.380
 5360POPC   C1B67447  39.828  25.892   6.280
 5360POPC   C2B67448  39.607  25.826   6.648
 5360POPC   C3B67449  39.750  25.759   7.053
 5360POPC   C4B67450  39.717  25.657   7.497
 5361POPC   NC367451   8.762  23.339   4.975
 5361POPC   PO467452   8.885  23.724   5.527
 5361POPC   GL167453   8.930  23.498   5.867
 5361POPC   GL267454   9.275  23.442   5.813
 5361POPC   C1A67455   9.013  23.472   6.294
 5361POPC   D2A67456   8.781  23.535   6.638
 5361POPC   C3A67457   9.088  23.421   6.880
 5361POPC   C4A67458   9.072  23.443   7.254
 5361POPC   C1B67459   9.342  23.806   6.118
 5361POPC   C2B67460   9.417  23.719   6.583
 5361POPC   C3B67461   9.438  23.855   7.014
 5361POPC   C4B67462   9.300  24.159   7.282
 5362POPC   NC367463  44.015  18.938   5.131
 5362POPC   PO467464  43.661  19.427   5.464
 5362POPC   GL167465  43.926  19.084   5.652
 5362POPC   GL267466  44.175  19.189   5.897
 5362POPC   C1A67467  43.879  18.786   6.007
 5362POPC   D2A67468  43.816  18.764   6.462
 5362POPC   C3A67469  43.752  19.023   6.846
 5362POPC   C4A67470  43.997  18.901   7.218
 5362POPC   C1B67471  43.956  19.231   6.305
 5362POPC   C2B67472  44.010  19.448   6.689
 5362POPC   C3B67473  44.334  19.536   6.965
 5362POPC   C4B67474  44.394  19.246   7.236
 5363POPC   NC367475   9.939   9.208   5.450
 5363POPC   PO467476   9.514   8.648   5.356
 5363POPC   GL167477   9.731   8.755   5.733
 5363POPC   GL267478   9.729   9.064   5.887
 5363POPC   C1A67479   9.807   8.609   6.168
 5363POPC   D2A67480   9.876   8.742   6.602
 5363POPC   C3A67481   9.566   8.817   6.881
 5363POPC   C4A67482   9.476   8.733   7.309
 5363POPC   C1B67483   9.882   9.427   6.120
 5363POPC   C2B67484   9.783   9.282   6.518
 5363POPC   C3B67485   9.883   9.369   6.914
 5363POPC   C4B67486   9.751   9.152   7.254
 5364POPC   NC367487  16.334  18.151   5.397
 5364POPC   PO467488  16.865  18.554   5.411
 5364POPC   GL167489  16.650  18.370   5.716
 5364POPC   GL267490  16.354  18.519   5.806
 5364POPC   C1A67491  16.691  18.335   6.148
 5364POPC   D2A67492  16.672  18.071   6.483
 5364POPC   C3A67493  16.678  18.272   6.865
 5364POPC   C4A67494  16.613  18.049   7.253
 5364POPC   C1B67495  16.185  18.437   6.205
 5364POPC   C2B67496  16.201  18.595   6.630
 5364POPC   C3B67497  16.252  18.463   7.040
 5364POPC   C4B67498  16.578  18.574   7.295
 5365POPC   NC367499  34.046  44.511   5.336
 5365POPC   PO467500  34.705  44.897   5.459
 5365POPC   GL167501  34.508  44.812   5.841
 5365POPC   GL267502  34.405  44.520   5.752
 5365POPC   C1A67503  34.661  44.900   6.275
 5365POPC   D2A67504  34.794  44.631   6.654
 5365POPC   C3A67505  34.710  44.771   7.077
 5365POPC   C4A67506  34.743  44.857   7.519
 5365POPC   C1B67507  34.502  44.416   6.177
 5365POPC   C2B67508  34.302  44.485   6.578
 5365POPC   C3B67509  34.413  44.348   7.005
 5365POPC   C4B67510  34.359  44.497   7.426
 5366POPC   NC367511   3.759   1.527   5.466
 5366POPC   PO467512   3.344   1.041   5.317
 5366POPC   GL167513   3.413   1.246   5.706
 5366POPC   GL267514   3.509   0.944   5.856
 5366POPC   C1A67515   3.560   1.389   6.121
 5366POPC   D2A67516   3.524   1.131   6.491
 5366POPC   C3A67517   3.559   1.401   6.862
 5366POPC   C4A67518   3.616   1.228   7.262
 5366POPC   C1B67519   3.217   0.770   6.154
 5366POPC   C2B67520   3.017   0.910   6.515
 5366POPC   C3B67521   3.160   1.077   6.888
 5366POPC   C4B67522   3.182   0.916   7.308
 5367POPC   NC367523  21.642  43.325   5.436
 5367POPC   PO467524  21.031  43.120   5.461
 5367POPC   GL167525  21.213  42.914   5.819
 5367POPC   GL267526  21.550  42.935   5.768
 5367POPC   C1A67527  21.330  42.952   6.249
 5367POPC   D2A67528  21.044  43.125   6.560
 5367POPC   C3A67529  21.215  43.171   6.927
 5367POPC   C4A67530  21.435  42.940   7.200
 5367POPC   C1B67531  21.735  43.220   6.149
 5367POPC   C2B67532  21.684  43.111   6.612
 5367POPC   C3B67533  21.902  43.183   7.006
 5367POPC   C4B67534  21.814  43.253   7.412
 5368POPC   NC367535  11.021  42.934   5.327
 5368POPC   PO467536  11.609  43.085   5.634
 5368POPC   GL167537  11.205  43.127   5.776
 5368POPC   GL267538  11.137  43.477   5.842
 5368POPC   C1A67539  11.012  43.075   6.177
 5368POPC   D2A67540  11.066  43.293   6.592
 5368POPC   C3A67541  11.209  42.973   6.923
 5368POPC   C4A67542  11.064  42.829   7.343
 5368POPC   C1B67543  11.437  43.382   6.204
 5368POPC   C2B67544  11.800  43.427   6.518
 5368POPC   C3B67545  11.709  43.414   6.968
 5368POPC   C4B67546  11.495  43.156   7.296
 5369POPC   NC367547  18.351  33.398   5.290
 5369POPC   PO467548  18.498  32.766   5.178
 5369POPC   GL167549  18.453  32.924   5.587
 5369POPC   GL267550  18.192  33.152   5.714
 5369POPC   C1A67551  18.453  32.830   6.041
 5369POPC   D2A67552  18.301  32.814   6.466
 5369POPC   C3A67553  18.551  33.000   6.802
 5369POPC   C4A67554  18.557  32.834   7.235
 5369POPC   C1B67555  18.048  33.470   6.042
 5369POPC   C2B67556  18.026  33.577   6.492
 5369POPC   C3B67557  18.054  33.488   6.935
 5369POPC   C4B67558  18.404  33.334   7.185
 5370POPC   NC367559   0.650  24.267   5.452
 5370POPC   PO467560   0.203  24.730   5.368
 5370POPC   GL167561   0.457  24.659   5.749
 5370POPC   GL267562   0.835  24.691   5.784
 5370POPC   C1A67563   0.401  24.526   6.177
 5370POPC   D2A67564   0.379  24.729   6.595
 5370POPC   C3A67565   0.322  24.427   6.920
 5370POPC   C4A67566   0.618  24.256   7.163
 5370POPC   C1B67567   0.735  24.915   6.203
 5370POPC   C2B67568   0.846  24.956   6.675
 5370POPC   C3B67569   0.653  24.801   7.092
 5370POPC   C4B67570   0.657  24.909   7.548
 5371POPC   NC367571   1.701  12.326   5.437
 5371POPC   PO467572   2.256  12.099   5.469
 5371POPC   GL167573   2.182  12.256   5.842
 5371POPC   GL267574   1.859  12.078   5.892
 5371POPC   C1A67575   2.247  12.148   6.278
 5371POPC   D2A67576   2.053  11.850   6.537
 5371POPC   C3A67577   2.074  11.955   6.962
 5371POPC   C4A67578   2.105  12.370   7.184
 5371POPC   C1B67579   1.739  12.244   6.293
 5371POPC   C2B67580   1.842  12.346   6.715
 5371POPC   C3B67581   1.652  12.181   7.098
 5371POPC   C4B67582   1.691  12.120   7.554
 5372POPC   NC367583  11.796  10.802   5.431
 5372POPC   PO467584  11.134  10.622   5.419
 5372POPC   GL167585  11.226  10.550   5.827
 5372POPC   GL267586  11.572  10.624   5.860
 5372POPC   C1A67587  11.105  10.456   6.238
 5372POPC   D2A67588  11.384  10.287   6.548
 5372POPC   C3A67589  11.259  10.239   6.969
 5372POPC   C4A67590  11.055  10.216   7.383
 5372POPC   C1B67591  11.407  10.958   6.118
 5372POPC   C2B67592  11.323  10.826   6.543
 5372POPC   C3B67593  11.195  10.756   6.968
 5372POPC   C4B67594  11.392  10.859   7.338
 5373POPC   NC367595  17.582   3.328   5.478
 5373POPC   PO467596  17.513   3.965   5.371
 5373POPC   GL167597  17.530   3.742   5.826
 5373POPC   GL267598  17.330   3.438   5.900
 5373POPC   C1A67599  17.724   3.559   6.225
 5373POPC   D2A67600  17.482   3.401   6.598
 5373POPC   C3A67601  17.586   3.544   6.988
 5373POPC   C4A67602  17.461   3.829   7.266
 5373POPC   C1B67603  17.224   3.702   6.258
 5373POPC   C2B67604  17.183   3.812   6.694
 5373POPC   C3B67605  17.079   3.586   7.048
 5373POPC   C4B67606  16.975   3.732   7.471
 5374POPC   NC367607  11.813  42.731   5.432
 5374POPC   PO467608  12.262  42.208   5.366
 5374POPC   GL167609  12.149  42.388   5.744
 5374POPC   GL267610  12.430  42.377   6.009
 5374POPC   C1A67611  11.933  42.529   6.083
 5374POPC   D2A67612  11.808  42.445   6.493
 5374POPC   C3A67613  12.088  42.489   6.841
 5374POPC   C4A67614  11.991  42.491   7.287
 5374POPC   C1B67615  12.163  42.096   6.223
 5374POPC   C2B67616  12.144  41.974   6.641
 5374POPC   C3B67617  12.026  42.042   7.069
 5374POPC   C4B67618  12.335  42.160   7.430
 5375POPC   NC367619  15.626  38.727   5.409
 5375POPC   PO467620  15.015  38.286   5.423
 5375POPC   GL167621  15.237  38.412   5.815
 5375POPC   GL267622  15.258  38.088   6.006
 5375POPC   C1A67623  15.236  38.576   6.264
 5375POPC   D2A67624  15.405  38.262   6.568
 5375POPC   C3A67625  15.320  38.345   6.998
 5375POPC   C4A67626  15.040  38.601   7.202
 5375POPC   C1B67627  14.859  38.254   6.227
 5375POPC   C2B67628  14.897  38.421   6.672
 5375POPC   C3B67629  14.701  38.253   7.054
 5375POPC   C4B67630  14.760  38.260   7.533
 5376POPC   NC367631   2.534  32.562   5.149
 5376POPC   PO467632   2.227  32.070   5.521
 5376POPC   GL167633   2.219  32.264   5.891
 5376POPC   GL267634   1.898  32.415   5.940
 5376POPC   C1A67635   2.206  32.285   6.324
 5376POPC   D2A67636   1.887  32.416   6.552
 5376POPC   C3A67637   1.934  32.185   6.876
 5376POPC   C4A67638   1.846  32.116   7.291
 5376POPC   C1B67639   1.726  32.043   6.196
 5376POPC   C2B67640   1.491  31.840   6.527
 5376POPC   C3B67641   1.490  31.963   6.956
 5376POPC   C4B67642   1.346  32.009   7.396
 5377POPC   NC367643  41.509  17.858   5.307
 5377POPC   PO467644  41.817  18.455   5.237
 5377POPC   GL167645  41.559  18.383   5.666
 5377POPC   GL267646  41.501  18.055   5.774
 5377POPC   C1A67647  41.407  18.433   6.142
 5377POPC   D2A67648  41.560  18.615   6.555
 5377POPC   C3A67649  41.545  18.496   6.983
 5377POPC   C4A67650  41.889  18.280   7.155
 5377POPC   C1B67651  41.576  17.959   6.207
 5377POPC   C2B67652  41.660  18.098   6.636
 5377POPC   C3B67653  41.492  17.980   7.037
 5377POPC   C4B67654  41.611  17.702   7.360
 5378POPC   NC367655  42.081   9.153   5.266
 5378POPC   PO467656  41.419   8.933   5.473
 5378POPC   GL167657  41.502   8.932   5.882
 5378POPC   GL267658  41.682   8.643   5.965
 5378POPC   C1A67659  41.388   8.959   6.314
 5378POPC   D2A67660  41.545   9.076   6.711
 5378POPC   C3A67661  41.242   9.081   7.010
 5378POPC   C4A67662  41.297   9.188   7.418
 5378POPC   C1B67663  41.743   8.342   6.272
 5378POPC   C2B67664  41.787   8.637   6.594
 5378POPC   C3B67665  41.718   8.640   7.019
 5378POPC   C4B67666  41.667   8.291   7.294
 5379POPC   NC367667  27.039  31.869   5.640
 5379POPC   PO467668  26.787  32.341   5.166
 5379POPC   GL167669  26.750  32.283   5.689
 5379POPC   GL267670  26.617  31.969   5.918
 5379POPC   C1A67671  26.904  32.334   6.138
 5379POPC   D2A67672  27.101  32.238   6.560
 5379POPC   C3A67673  26.971  32.246   7.016
 5379POPC   C4A67674  27.032  32.520   7.389
 5379POPC   C1B67675  26.738  31.875   6.345
 5379POPC   C2B67676  26.569  32.038   6.741
 5379POPC   C3B67677  26.297  32.025   7.111
 5379POPC   C4B67678  26.422  32.024   7.570
 5380POPC   NC367679  39.284  24.004   5.609
 5380POPC   PO467680  39.626  23.435   5.507
 5380POPC   GL167681  39.279  23.517   5.817
 5380POPC   GL267682  38.930  23.482   5.691
 5380POPC   C1A67683  39.212  23.763   6.232
 5380POPC   D2A67684  39.219  23.649   6.679
 5380POPC   C3A67685  39.254  23.907   7.031
 5380POPC   C4A67686  39.645  24.037   7.188
 5380POPC   C1B67687  38.793  23.496   6.129
 5380POPC   C2B67688  38.716  23.723   6.502
 5380POPC   C3B67689  38.729  23.713   6.946
 5380POPC   C4B67690  38.849  23.723   7.385
 5381POPC   NC367691  31.104  36.728   5.474
 5381POPC   PO467692  31.552  37.178   5.379
 5381POPC   GL167693  31.670  36.997   5.778
 5381POPC   GL267694  31.361  36.861   5.892
 5381POPC   C1A67695  31.763  36.855   6.193
 5381POPC   D2A67696  31.664  37.022   6.584
 5381POPC   C3A67697  31.752  36.789   6.976
 5381POPC   C4A67698  31.666  36.967   7.395
 5381POPC   C1B67699  31.224  36.807   6.330
 5381POPC   C2B67700  31.178  36.757   6.766
 5381POPC   C3B67701  31.266  36.687   7.200
 5381POPC   C4B67702  31.301  36.635   7.637
 5382POPC   NC367703   8.863   1.551   5.509
 5382POPC   PO467704   9.186   0.992   5.582
 5382POPC   GL167705   9.107   1.262   5.896
 5382POPC   GL267706   8.727   1.311   5.946
 5382POPC   C1A67707   9.265   1.215   6.306
 5382POPC   D2A67708   9.224   1.505   6.614
 5382POPC   C3A67709   9.128   1.264   6.954
 5382POPC   C4A67710   9.257   1.220   7.355
 5382POPC   C1B67711   8.820   0.923   6.189
 5382POPC   C2B67712   8.942   0.840   6.628
 5382POPC   C3B67713   8.666   1.020   6.950
 5382POPC   C4B67714   8.662   1.393   7.187
 5383POPC   NC367715  11.045  11.096   5.357
 5383POPC   PO467716  11.689  11.319   5.399
 5383POPC   GL167717  11.526  11.401   5.798
 5383POPC   GL267718  11.153  11.469   5.810
 5383POPC   C1A67719  11.479  11.486   6.225
 5383POPC   D2A67720  11.276  11.325   6.589
 5383POPC   C3A67721  11.494  11.217   6.972
 5383POPC   C4A67722  11.481  11.346   7.454
 5383POPC   C1B67723  10.980  11.623   6.234
 5383POPC   C2B67724  11.059  11.773   6.691
 5383POPC   C3B67725  11.196  11.611   7.087
 5383POPC   C4B67726  11.031  11.583   7.521
 5384POPC   NC367727   2.724  15.035   5.331
 5384POPC   PO467728   2.182  15.287   5.505
 5384POPC   GL167729   2.563  15.139   5.800
 5384POPC   GL267730   2.972  15.117   5.760
 5384POPC   C1A67731   2.784  15.015   6.202
 5384POPC   D2A67732   2.993  15.162   6.551
 5384POPC   C3A67733   2.790  15.050   6.925
 5384POPC   C4A67734   2.697  15.189   7.300
 5384POPC   C1B67735   3.103  15.408   6.104
 5384POPC   C2B67736   3.146  15.640   6.509
 5384POPC   C3B67737   2.993  15.539   6.923
 5384POPC   C4B67738   3.132  15.466   7.335
 5385POPC   NC367739  24.191   9.565   5.387
 5385POPC   PO467740  24.873   9.540   5.102
 5385POPC   GL167741  24.713   9.756   5.542
 5385POPC   GL267742  24.415   9.957   5.617
 5385POPC   C1A67743  24.749   9.885   6.002
 5385POPC   D2A67744  24.546   9.865   6.427
 5385POPC   C3A67745  24.701   9.710   6.817
 5385POPC   C4A67746  24.515   9.804   7.227
 5385POPC   C1B67747  24.279  10.107   6.060
 5385POPC   C2B67748  24.123  10.185   6.531
 5385POPC   C3B67749  24.258  10.181   7.004
 5385POPC   C4B67750  24.234  10.152   7.508
 5386POPC   NC367751  40.466  25.942   5.586
 5386POPC   PO467752  40.997  26.163   5.240
 5386POPC   GL167753  40.939  26.087   5.747
 5386POPC   GL267754  40.627  26.245   5.953
 5386POPC   C1A67755  41.020  26.130   6.229
 5386POPC   D2A67756  40.786  26.326   6.546
 5386POPC   C3A67757  40.831  26.191   6.986
 5386POPC   C4A67758  40.544  26.070   7.267
 5386POPC   C1B67759  40.614  25.836   6.236
 5386POPC   C2B67760  40.657  25.797   6.694
 5386POPC   C3B67761  40.412  25.646   7.034
 5386POPC   C4B67762  40.391  25.602   7.501
 5387POPC   NC367763  23.900   1.099   5.345
 5387POPC   PO467764  23.255   0.948   5.503
 5387POPC   GL167765  23.525   1.202   5.827
 5387POPC   GL267766  23.902   1.292   5.814
 5387POPC   C1A67767  23.710   1.174   6.272
 5387POPC   D2A67768  23.506   0.966   6.625
 5387POPC   C3A67769  23.615   1.027   7.047
 5387POPC   C4A67770  23.652   1.360   7.385
 5387POPC   C1B67771  24.066   1.531   6.198
 5387POPC   C2B67772  24.078   1.447   6.650
 5387POPC   C3B67773  24.109   1.118   6.985
 5387POPC   C4B67774  23.978   0.941   7.386
 5388POPC   NC367775   8.671  39.149   5.414
 5388POPC   PO467776   7.976  39.296   5.545
 5388POPC   GL167777   8.191  39.165   5.879
 5388POPC   GL267778   8.487  39.350   5.835
 5388POPC   C1A67779   8.229  39.243   6.311
 5388POPC   D2A67780   8.153  39.045   6.732
 5388POPC   C3A67781   8.222  39.175   7.163
 5388POPC   C4A67782   8.162  38.963   7.579
 5388POPC   C1B67783   8.592  39.577   6.189
 5388POPC   C2B67784   8.327  39.668   6.546
 5388POPC   C3B67785   8.298  39.625   6.942
 5388POPC   C4B67786   8.614  39.546   7.196
 5389POPC   NC367787  25.950   1.466   5.461
 5389POPC   PO467788  25.673   0.848   5.508
 5389POPC   GL167789  25.800   0.916   5.931
 5389POPC   GL267790  26.065   1.163   5.910
 5389POPC   C1A67791  25.837   1.113   6.361
 5389POPC   D2A67792  25.772   1.468   6.665
 5389POPC   C3A67793  25.969   1.396   7.069
 5389POPC   C4A67794  25.851   1.514   7.497
 5389POPC   C1B67795  26.250   0.833   6.203
 5389POPC   C2B67796  26.101   0.761   6.641
 5389POPC   C3B67797  26.115   0.904   7.063
 5389POPC   C4B67798  26.184   0.661   7.420
 5390POPC   NC367799  14.236   1.869   5.091
 5390POPC   PO467800  14.800   2.126   5.432
 5390POPC   GL167801  14.523   2.015   5.779
 5390POPC   GL267802  14.159   1.899   5.703
 5390POPC   C1A67803  14.459   1.985   6.246
 5390POPC   D2A67804  14.493   2.046   6.706
 5390POPC   C3A67805  14.811   1.786   6.926
 5390POPC   C4A67806  14.796   1.599   7.328
 5390POPC   C1B67807  14.019   2.193   6.077
 5390POPC   C2B67808  13.995   2.181   6.570
 5390POPC   C3B67809  14.102   2.242   7.060
 5390POPC   C4B67810  14.048   2.118   7.540
 5391POPC   NC367811  17.256   8.032   5.547
 5391POPC   PO467812  16.754   8.353   5.212
 5391POPC   GL167813  16.717   8.232   5.654
 5391POPC   GL267814  16.668   8.567   5.764
 5391POPC   C1A67815  16.679   8.113   6.103
 5391POPC   D2A67816  16.742   7.970   6.544
 5391POPC   C3A67817  16.633   8.125   6.966
 5391POPC   C4A67818  16.430   7.859   7.263
 5391POPC   C1B67819  16.785   8.626   6.194
 5391POPC   C2B67820  16.566   8.481   6.568
 5391POPC   C3B67821  16.505   8.672   6.960
 5391POPC   C4B67822  16.861   8.587   7.177
 5392POPC   NC367823  26.654  18.728   5.346
 5392POPC   PO467824  27.149  19.067   5.167
 5392POPC   GL167825  26.981  19.094   5.590
 5392POPC   GL267826  27.006  18.769   5.749
 5392POPC   C1A67827  26.753  19.152   5.994
 5392POPC   D2A67828  26.875  19.120   6.456
 5392POPC   C3A67829  26.681  19.179   6.869
 5392POPC   C4A67830  26.947  19.248   7.230
 5392POPC   C1B67831  26.934  18.689   6.183
 5392POPC   C2B67832  26.994  18.645   6.649
 5392POPC   C3B67833  26.895  18.733   7.086
 5392POPC   C4B67834  26.446  18.837   7.177
 5393POPC   NC367835  31.964   5.306   5.540
 5393POPC   PO467836  31.469   4.855   5.386
 5393POPC   GL167837  31.484   5.064   5.777
 5393POPC   GL267838  31.800   4.940   5.872
 5393POPC   C1A67839  31.263   5.255   6.166
 5393POPC   D2A67840  31.314   5.302   6.658
 5393POPC   C3A67841  31.299   4.948   7.027
 5393POPC   C4A67842  31.305   5.103   7.550
 5393POPC   C1B67843  31.776   5.279   6.150
 5393POPC   C2B67844  31.829   5.310   6.549
 5393POPC   C3B67845  31.748   5.141   6.914
 5393POPC   C4B67846  31.684   5.272   7.280
 5394POPC   NC367847  40.943   0.140   5.446
 5394POPC   PO467848  40.659   0.787   5.456
 5394POPC   GL167849  40.838   0.513   5.783
 5394POPC   GL267850  40.644   0.158   5.839
 5394POPC   C1A67851  41.098   0.629   6.136
 5394POPC   D2A67852  40.867   0.612   6.496
 5394POPC   C3A67853  41.050   0.704   6.869
 5394POPC   C4A67854  40.826   0.581   7.241
 5394POPC   C1B67855  40.904   0.151   6.186
 5394POPC   C2B67856  41.087   0.128   6.555
 5394POPC   C3B67857  41.003   0.193   6.959
 5394POPC   C4B67858  40.697   0.079   7.256
 5395POPC   NC367859  17.772  39.699   5.078
 5395POPC   PO467860  17.415  40.199   5.362
 5395POPC   GL167861  17.348  40.080   5.784
 5395POPC   GL267862  17.571  40.327   5.900
 5395POPC   C1A67863  17.534  39.854   6.140
 5395POPC   D2A67864  17.375  39.800   6.544
 5395POPC   C3A67865  17.573  39.738   6.920
 5395POPC   C4A67866  17.420  39.823   7.314
 5395POPC   C1B67867  17.514  40.309   6.344
 5395POPC   C2B67868  17.557  40.216   6.762
 5395POPC   C3B67869  17.693  40.219   7.160
 5395POPC   C4B67870  17.820  40.158   7.601
 5396POPC   NC367871  42.718   1.727   5.314
 5396POPC   PO467872  43.342   2.064   5.164
 5396POPC   GL167873  43.169   2.097   5.605
 5396POPC   GL267874  43.219   1.756   5.732
 5396POPC   C1A67875  43.289   2.218   6.066
 5396POPC   D2A67876  43.498   1.989   6.430
 5396POPC   C3A67877  43.205   1.850   6.710
 5396POPC   C4A67878  43.211   1.940   7.115
 5396POPC   C1B67879  43.109   1.751   6.183
 5396POPC   C2B67880  42.785   1.648   6.455
 5396POPC   C3B67881  42.679   1.740   6.858
 5396POPC   C4B67882  42.757   1.806   7.257
 5397POPC   NC367883  29.286  40.914   5.621
 5397POPC   PO467884  28.822  40.521   5.184
 5397POPC   GL167885  28.951  40.531   5.712
 5397POPC   GL267886  29.272  40.499   5.931
 5397POPC   C1A67887  28.883  40.705   6.165
 5397POPC   D2A67888  28.902  41.018   6.496
 5397POPC   C3A67889  28.864  40.894   6.922
 5397POPC   C4A67890  28.867  41.032   7.343
 5397POPC   C1B67891  29.278  40.367   6.296
 5397POPC   C2B67892  29.184  40.584   6.615
 5397POPC   C3B67893  29.209  40.517   6.988
 5397POPC   C4B67894  29.297  40.778   7.267
 5398POPC   NC367895  38.123  12.885   5.563
 5398POPC   PO467896  38.417  12.280   5.516
 5398POPC   GL167897  38.530  12.632   5.796
 5398POPC   GL267898  38.742  12.947   5.813
 5398POPC   C1A67899  38.393  12.792   6.191
 5398POPC   D2A67900  38.160  12.736   6.544
 5398POPC   C3A67901  38.268  12.785   6.951
 5398POPC   C4A67902  38.278  12.863   7.387
 5398POPC   C1B67903  38.879  12.973   6.243
 5398POPC   C2B67904  38.703  12.891   6.655
 5398POPC   C3B67905  38.619  13.192   6.991
 5398POPC   C4B67906  38.393  13.382   7.316
 5399POPC   NC367907   7.495  33.937   5.356
 5399POPC   PO467908   6.992  33.567   5.353
 5399POPC   GL167909   7.268  33.629   5.729
 5399POPC   GL267910   7.375  33.976   5.839
 5399POPC   C1A67911   7.213  33.625   6.181
 5399POPC   D2A67912   7.349  33.874   6.533
 5399POPC   C3A67913   7.197  33.696   6.901
 5399POPC   C4A67914   6.991  33.798   7.277
 5399POPC   C1B67915   7.675  33.905   6.140
 5399POPC   C2B67916   7.856  34.026   6.524
 5399POPC   C3B67917   7.737  33.865   6.893
 5399POPC   C4B67918   7.474  33.973   7.226
 5400POPC   NC367919  30.220  15.519   5.455
 5400POPC   PO467920  29.715  15.962   5.344
 5400POPC   GL167921  29.917  15.921   5.759
 5400POPC   GL267922  29.932  15.590   5.865
 5400POPC   C1A67923  29.969  16.159   6.151
 5400POPC   D2A67924  29.814  16.081   6.585
 5400POPC   C3A67925  30.061  16.184   6.909
 5400POPC   C4A67926  30.070  16.188   7.317
 5400POPC   C1B67927  29.812  15.692   6.268
 5400POPC   C2B67928  29.976  15.603   6.674
 5400POPC   C3B67929  30.066  15.716   7.093
 5400POPC   C4B67930  29.838  15.743   7.437
 5401POPC   NC367931   1.158  37.947   5.588
 5401POPC   PO467932   1.381  38.499   5.253
 5401POPC   GL167933   1.170  38.399   5.751
 5401POPC   GL267934   1.424  38.183   5.944
 5401POPC   C1A67935   1.044  38.461   6.190
 5401POPC   D2A67936   1.277  38.569   6.562
 5401POPC   C3A67937   1.055  38.611   6.899
 5401POPC   C4A67938   1.108  38.761   7.270
 5401POPC   C1B67939   1.558  38.192   6.366
 5401POPC   C2B67940   1.585  38.164   6.821
 5401POPC   C3B67941   1.258  38.215   7.146
 5401POPC   C4B67942   0.814  38.354   7.291
 5402POPC   NC367943  14.983  40.484   5.419
 5402POPC   PO467944  15.272  41.113   5.455
 5402POPC   GL167945  15.397  40.841   5.804
 5402POPC   GL267946  15.079  40.758   5.820
 5402POPC   C1A67947  15.313  40.595   6.228
 5402POPC   D2A67948  15.043  40.623   6.605
 5402POPC   C3A67949  15.324  40.842   6.891
 5402POPC   C4A67950  15.259  40.948   7.309
 5402POPC   C1B67951  14.903  40.895   6.168
 5402POPC   C2B67952  14.824  41.185   6.462
 5402POPC   C3B67953  14.843  41.118   6.890
 5402POPC   C4B67954  14.883  41.298   7.275
 5403POPC   NC367955  28.535   3.190   5.479
 5403POPC   PO467956  28.381   2.594   5.472
 5403POPC   GL167957  28.439   2.745   5.889
 5403POPC   GL267958  28.216   3.028   5.844
 5403POPC   C1A67959  28.282   2.610   6.333
 5403POPC   D2A67960  27.972   2.599   6.715
 5403POPC   C3A67961  28.220   2.558   7.081
 5403POPC   C4A67962  28.692   2.550   7.099
 5403POPC   C1B67963  28.364   3.103   6.251
 5403POPC   C2B67964  28.219   3.073   6.668
 5403POPC   C3B67965  28.293   3.066   7.092
 5403POPC   C4B67966  28.317   3.276   7.493
 5404POPC   NC367967  28.201   2.155   5.507
 5404POPC   PO467968  28.600   1.618   5.451
 5404POPC   GL167969  28.357   1.739   5.780
 5404POPC   GL267970  28.225   1.419   5.806
 5404POPC   C1A67971  28.391   2.008   6.159
 5404POPC   D2A67972  28.673   1.977   6.512
 5404POPC   C3A67973  28.509   2.065   6.947
 5404POPC   C4A67974  28.515   1.761   7.316
 5404POPC   C1B67975  28.099   1.590   6.206
 5404POPC   C2B67976  28.198   1.753   6.623
 5404POPC   C3B67977  28.076   1.779   7.063
 5404POPC   C4B67978  28.073   1.752   7.564
 5405POPC   NC367979   7.434  39.479   5.550
 5405POPC   PO467980   7.383  38.856   5.471
 5405POPC   GL167981   7.311  39.056   5.867
 5405POPC   GL267982   7.641  39.176   5.918
 5405POPC   C1A67983   7.269  39.232   6.301
 5405POPC   D2A67984   7.416  39.133   6.724
 5405POPC   C3A67985   7.308  39.377   7.089
 5405POPC   C4A67986   7.276  39.004   7.328
 5405POPC   C1B67987   7.758  39.076   6.325
 5405POPC   C2B67988   7.841  39.431   6.601
 5405POPC   C3B67989   7.807  39.464   7.026
 5405POPC   C4B67990   7.879  39.782   7.306
 5406POPC   NC367991   7.095  21.562   5.457
 5406POPC   PO467992   7.793  21.691   5.501
 5406POPC   GL167993   7.581  21.351   5.753
 5406POPC   GL267994   7.255  21.396   5.896
 5406POPC   C1A67995   7.573  21.109   6.160
 5406POPC   D2A67996   7.683  21.236   6.565
 5406POPC   C3A67997   7.695  20.965   6.890
 5406POPC   C4A67998   7.533  21.249   7.180
 5406POPC   C1B67999   6.919  21.667   6.069
 5406POPC   C2B68000   6.860  21.683   6.483
 5406POPC   C3B68001   7.143  21.467   6.756
 5406POPC   C4B68002   7.098  21.557   7.151
 5407POPC   NC368003   0.789   0.408   5.115
 5407POPC   PO468004   0.188   0.628   5.348
 5407POPC   GL168005   0.319   0.452   5.740
 5407POPC   GL268006   0.650   0.570   5.653
 5407POPC   C1A68007   0.235   0.420   6.211
 5407POPC   D2A68008   0.275   0.147   6.600
 5407POPC   C3A68009   0.268   0.347   7.015
 5407POPC   C4A68010   0.228   0.529   7.444
 5407POPC   C1B68011   0.763   0.618   6.078
 5407POPC   C2B68012   0.654   0.496   6.500
 5407POPC   C3B68013   0.722   0.552   6.943
 5407POPC   C4B68014   0.723   0.370   7.344
 5408POPC   NC368015  13.218   7.513   5.431
 5408POPC   PO468016  13.786   7.259   5.280
 5408POPC   GL168017  13.718   7.519   5.698
 5408POPC   GL268018  13.686   7.902   5.777
 5408POPC   C1A68019  13.726   7.429   6.166
 5408POPC   D2A68020  13.504   7.161   6.476
 5408POPC   C3A68021  13.499   7.272   6.913
 5408POPC   C4A68022  13.810   7.537   7.136
 5408POPC   C1B68023  13.494   7.880   6.225
 5408POPC   C2B68024  13.559   7.731   6.670
 5408POPC   C3B68025  13.327   7.719   7.076
 5408POPC   C4B68026  13.387   7.492   7.452
 5409POPC   NC368027  25.200  36.222   4.823
 5409POPC   PO468028  25.327  36.060   5.481
 5409POPC   GL168029  25.354  36.265   5.840
 5409POPC   GL268030  25.026  36.324   5.840
 5409POPC   C1A68031  25.397  36.083   6.236
 5409POPC   D2A68032  25.604  36.150   6.614
 5409POPC   C3A68033  25.413  35.989   6.977
 5409POPC   C4A68034  25.272  36.026   7.371
 5409POPC   C1B68035  25.097  36.508   6.241
 5409POPC   C2B68036  25.122  36.300   6.642
 5409POPC   C3B68037  24.914  36.098   6.973
 5409POPC   C4B68038  24.903  36.385   7.276
 5410POPC   NC368039   0.796   3.681   5.318
 5410POPC   PO468040   1.464   3.513   5.295
 5410POPC   GL168041   1.188   3.460   5.651
 5410POPC   GL268042   1.230   3.764   5.805
 5410POPC   C1A68043   1.225   3.322   6.104
 5410POPC   D2A68044   1.305   3.506   6.531
 5410POPC   C3A68045   1.504   3.399   6.929
 5410POPC   C4A68046   1.161   3.318   7.200
 5410POPC   C1B68047   1.040   3.817   6.195
 5410POPC   C2B68048   1.127   3.978   6.589
 5410POPC   C3B68049   1.435   3.926   6.891
 5410POPC   C4B68050   1.336   3.808   7.279
 5411POPC   NC368051   9.985  13.981   5.512
 5411POPC   PO468052   9.542  13.475   5.440
 5411POPC   GL168053   9.742  13.580   5.791
 5411POPC   GL268054   9.661  13.236   5.874
 5411POPC   C1A68055   9.746  13.799   6.171
 5411POPC   D2A68056   9.924  13.908   6.548
 5411POPC   C3A68057   9.701  13.820   6.900
 5411POPC   C4A68058   9.819  13.736   7.288
 5411POPC   C1B68059   9.916  13.304   6.210
 5411POPC   C2B68060   9.794  13.413   6.607
 5411POPC   C3B68061   9.680  13.306   7.020
 5411POPC   C4B68062   9.861  13.245   7.398
 5412POPC   NC368063  20.507  30.372   5.479
 5412POPC   PO468064  20.849  30.995   5.328
 5412POPC   GL168065  20.501  30.847   5.659
 5412POPC   GL268066  20.146  30.999   5.620
 5412POPC   C1A68067  20.476  30.648   6.114
 5412POPC   D2A68068  20.711  30.689   6.542
 5412POPC   C3A68069  20.531  30.570   6.956
 5412POPC   C4A68070  20.755  30.545   7.348
 5412POPC   C1B68071  20.292  31.131   6.023
 5412POPC   C2B68072  20.298  31.019   6.469
 5412POPC   C3B68073  20.236  31.097   6.924
 5412POPC   C4B68074  20.363  30.921   7.331
 5413POPC   NC368075  31.127   8.528   5.563
 5413POPC   PO468076  31.592   8.062   5.296
 5413POPC   GL168077  31.419   8.145   5.711
 5413POPC   GL268078  31.639   7.978   5.896
 5413POPC   C1A68079  31.419   8.370   6.135
 5413POPC   D2A68080  31.668   8.302   6.519
 5413POPC   C3A68081  31.671   8.583   6.869
 5413POPC   C4A68082  31.451   8.514   7.244
 5413POPC   C1B68083  31.179   7.931   6.110
 5413POPC   C2B68084  31.012   8.065   6.525
 5413POPC   C3B68085  31.236   8.208   6.882
 5413POPC   C4B68086  31.465   8.016   7.200
 5414POPC   NC368087  21.807  21.460   5.133
 5414POPC   PO468088  21.274  21.420   5.402
 5414POPC   GL168089  21.317  21.408   5.860
 5414POPC   GL268090  21.171  21.153   6.101
 5414POPC   C1A68091  21.394  21.602   6.262
 5414POPC   D2A68092  21.382  21.435   6.676
 5414POPC   C3A68093  21.051  21.593   6.900
 5414POPC   C4A68094  21.105  21.681   7.345
 5414POPC   C1B68095  21.622  21.163   6.265
 5414POPC   C2B68096  21.763  21.093   6.670
 5414POPC   C3B68097  21.755  21.248   7.086
 5414POPC   C4B68098  21.636  21.087   7.473
 5415POPC   NC368099  39.644   6.172   5.508
 5415POPC   PO468100  38.939   6.050   5.392
 5415POPC   GL168101  39.206   5.904   5.722
 5415POPC   GL268102  38.930   5.694   5.829
 5415POPC   C1A68103  39.424   5.843   6.139
 5415POPC   D2A68104  39.328   6.002   6.570
 5415POPC   C3A68105  39.447   5.848   7.012
 5415POPC   C4A68106  39.472   6.136   7.417
 5415POPC   C1B68107  38.920   5.956   6.162
 5415POPC   C2B68108  38.847   5.871   6.563
 5415POPC   C3B68109  38.923   5.796   6.960
 5415POPC   C4B68110  39.035   6.098   7.166
 5416POPC   NC368111  37.356  28.391   5.409
 5416POPC   PO468112  37.792  28.825   5.409
 5416POPC   GL168113  37.720  28.629   5.826
 5416POPC   GL268114  37.458  28.357   5.908
 5416POPC   C1A68115  37.879  28.475   6.237
 5416POPC   D2A68116  37.780  28.360   6.665
 5416POPC   C3A68117  37.456  28.392   6.946
 5416POPC   C4A68118  37.784  28.383   7.270
 5416POPC   C1B68119  37.415  28.233   6.324
 5416POPC   C2B68120  37.454  27.933   6.665
 5416POPC   C3B68121  37.577  27.932   7.102
 5416POPC   C4B68122  37.508  27.897   7.560
 5417POPC   NC368123  11.016  25.356   5.408
 5417POPC   PO468124  11.533  24.940   5.221
 5417POPC   GL168125  11.447  25.225   5.664
 5417POPC   GL268126  11.132  25.273   5.895
 5417POPC   C1A68127  11.582  25.297   6.121
 5417POPC   D2A68128  11.372  25.389   6.524
 5417POPC   C3A68129  11.608  25.267   6.895
 5417POPC   C4A68130  11.697  25.493   7.266
 5417POPC   C1B68131  11.051  25.024   6.272
 5417POPC   C2B68132  11.180  24.957   6.716
 5417POPC   C3B68133  11.107  25.230   7.037
 5417POPC   C4B68134  11.356  25.124   7.362
 5418POPC   NC368135  43.814  37.421   5.496
 5418POPC   PO468136  44.478  37.372   5.437
 5418POPC   GL168137  44.211  37.562   5.834
 5418POPC   GL268138  43.915  37.351   5.990
 5418POPC   C1A68139  44.158  37.642   6.328
 5418POPC   D2A68140  44.037  37.390   6.703
 5418POPC   C3A68141  44.020  37.647   7.056
 5418POPC   C4A68142  43.842  38.053   7.093
 5418POPC   C1B68143  43.639  37.510   6.333
 5418POPC   C2B68144  43.600  37.695   6.751
 5418POPC   C3B68145  43.514  37.582   7.204
 5418POPC   C4B68146  43.597  37.339   7.602
 5419POPC   NC368147  28.490  31.684   5.374
 5419POPC   PO468148  27.974  31.306   5.469
 5419POPC   GL168149  28.169  31.470   5.849
 5419POPC   GL268150  28.538  31.445   5.822
 5419POPC   C1A68151  28.214  31.314   6.293
 5419POPC   D2A68152  28.079  30.978   6.609
 5419POPC   C3A68153  28.111  31.126   7.032
 5419POPC   C4A68154  28.119  31.575   7.147
 5419POPC   C1B68155  28.656  31.599   6.215
 5419POPC   C2B68156  28.675  31.316   6.578
 5419POPC   C3B68157  28.559  31.372   6.966
 5419POPC   C4B68158  28.696  31.681   7.195
 5420POPC   NC368159  10.944  14.220   5.665
 5420POPC   PO468160  11.024  14.653   5.198
 5420POPC   GL168161  11.223  14.640   5.712
 5420POPC   GL268162  11.576  14.581   5.801
 5420POPC   C1A68163  11.248  14.410   6.177
 5420POPC   D2A68164  10.978  14.265   6.547
 5420POPC   C3A68165  11.174  14.226   6.933
 5420POPC   C4A68166  11.168  14.366   7.348
 5420POPC   C1B68167  11.714  14.666   6.231
 5420POPC   C2B68168  11.477  14.546   6.611
 5420POPC   C3B68169  11.368  14.707   7.005
 5420POPC   C4B68170  11.528  14.710   7.408
 5421POPC   NC368171  39.635  39.624   5.123
 5421POPC   PO468172  39.988  39.108   5.450
 5421POPC   GL168173  39.781  39.305   5.767
 5421POPC   GL268174  40.024  39.470   5.932
 5421POPC   C1A68175  39.798  39.096   6.177
 5421POPC   D2A68176  40.036  38.916   6.491
 5421POPC   C3A68177  39.975  38.950   6.918
 5421POPC   C4A68178  40.358  38.929   7.135
 5421POPC   C1B68179  40.058  39.484   6.379
 5421POPC   C2B68180  39.810  39.409   6.717
 5421POPC   C3B68181  40.009  39.437   7.105
 5421POPC   C4B68182  39.875  39.540   7.511
 5422POPC   NC368183  27.075  24.436   5.437
 5422POPC   PO468184  27.778  24.476   5.451
 5422POPC   GL168185  27.812  24.667   5.862
 5422POPC   GL268186  27.831  24.332   5.990
 5422POPC   C1A68187  27.586  24.718   6.313
 5422POPC   D2A68188  27.335  24.790   6.725
 5422POPC   C3A68189  27.520  24.633   7.143
 5422POPC   C4A68190  27.415  24.637   7.627
 5422POPC   C1B68191  27.491  24.220   6.280
 5422POPC   C2B68192  27.490  24.280   6.722
 5422POPC   C3B68193  27.395  24.106   7.141
 5422POPC   C4B68194  27.658  24.231   7.435
 5423POPC   NC368195   6.445  36.994   5.610
 5423POPC   PO468196   6.663  36.550   5.148
 5423POPC   GL168197   6.782  36.566   5.664
 5423POPC   GL268198   6.917  36.880   5.838
 5423POPC   C1A68199   6.730  36.538   6.159
 5423POPC   D2A68200   6.655  36.859   6.505
 5423POPC   C3A68201   6.454  36.739   6.882
 5423POPC   C4A68202   6.750  36.717   7.203
 5423POPC   C1B68203   6.828  37.218   6.171
 5423POPC   C2B68204   6.521  37.391   6.434
 5423POPC   C3B68205   6.593  37.415   6.858
 5423POPC   C4B68206   6.480  37.154   7.209
 5424POPC   NC368207  29.012  41.833   5.538
 5424POPC   PO468208  29.219  42.429   5.253
 5424POPC   GL168209  29.138  42.353   5.714
 5424POPC   GL268210  28.879  42.584   5.858
 5424POPC   C1A68211  29.369  42.205   6.091
 5424POPC   D2A68212  29.302  42.044   6.510
 5424POPC   C3A68213  29.037  42.253   6.779
 5424POPC   C4A68214  29.084  42.222   7.212
 5424POPC   C1B68215  28.884  42.291   6.223
 5424POPC   C2B68216  28.805  41.917   6.485
 5424POPC   C3B68217  28.669  41.900   6.892
 5424POPC   C4B68218  28.643  42.005   7.299
 5425POPC   NC368219  32.410  25.887   5.477
 5425POPC   PO468220  32.003  26.279   5.564
 5425POPC   GL168221  32.165  26.026   5.909
 5425POPC   GL268222  32.500  26.131   5.915
 5425POPC   C1A68223  32.055  25.741   6.267
 5425POPC   D2A68224  32.087  25.879   6.693
 5425POPC   C3A68225  31.857  25.793   7.081
 5425POPC   C4A68226  32.231  25.893   7.293
 5425POPC   C1B68227  32.468  26.052   6.351
 5425POPC   C2B68228  32.547  26.273   6.722
 5425POPC   C3B68229  32.605  26.248   7.154
 5425POPC   C4B68230  32.346  26.375   7.524
 5426POPC   NC368231   3.325  25.766   5.479
 5426POPC   PO468232   3.566  25.153   5.235
 5426POPC   GL168233   3.503  25.277   5.702
 5426POPC   GL268234   3.161  25.396   5.781
 5426POPC   C1A68235   3.642  25.276   6.171
 5426POPC   D2A68236   3.461  25.239   6.600
 5426POPC   C3A68237   3.536  25.457   6.987
 5426POPC   C4A68238   3.621  25.101   7.220
 5426POPC   C1B68239   3.110  25.293   6.201
 5426POPC   C2B68240   2.987  25.411   6.599
 5426POPC   C3B68241   3.067  25.196   7.003
 5426POPC   C4B68242   3.192  25.326   7.392
 5427POPC   NC368243  15.725  43.167   5.550
 5427POPC   PO468244  16.311  43.367   5.405
 5427POPC   GL168245  16.183  43.179   5.832
 5427POPC   GL268246  16.214  42.800   5.908
 5427POPC   C1A68247  16.178  43.150   6.296
 5427POPC   D2A68248  15.849  43.288   6.565
 5427POPC   C3A68249  15.994  43.334   6.973
 5427POPC   C4A68250  16.124  43.036   7.269
 5427POPC   C1B68251  15.814  42.832   6.129
 5427POPC   C2B68252  15.618  42.787   6.512
 5427POPC   C3B68253  15.816  42.837   6.907
 5427POPC   C4B68254  15.625  42.890   7.289
 5428POPC   NC368255  40.183  36.953   5.235
 5428POPC   PO468256  39.711  36.577   5.244
 5428POPC   GL168257  39.653  36.592   5.731
 5428POPC   GL268258  39.744  36.924   5.868
 5428POPC   C1A68259  39.718  36.528   6.199
 5428POPC   D2A68260  39.965  36.782   6.516
 5428POPC   C3A68261  39.807  36.792   6.943
 5428POPC   C4A68262  39.847  36.457   7.226
 5428POPC   C1B68263  39.664  37.151   6.245
 5428POPC   C2B68264  39.822  37.253   6.662
 5428POPC   C3B68265  40.229  37.184   6.807
 5428POPC   C4B68266  40.215  37.028   7.173
 5429POPC   NC368267  22.724  32.449   5.416
 5429POPC   PO468268  23.192  31.999   5.476
 5429POPC   GL168269  22.852  32.131   5.830
 5429POPC   GL268270  22.813  32.505   5.911
 5429POPC   C1A68271  22.816  31.912   6.269
 5429POPC   D2A68272  23.224  31.926   6.539
 5429POPC   C3A68273  23.225  31.990   6.960
 5429POPC   C4A68274  22.918  32.150   7.223
 5429POPC   C1B68275  23.010  32.369   6.284
 5429POPC   C2B68276  22.873  32.293   6.718
 5429POPC   C3B68277  22.859  32.607   7.041
 5429POPC   C4B68278  23.052  32.628   7.427
 5430POPC   NC368279  16.636  44.465   5.332
 5430POPC   PO468280  17.085  44.888   5.448
 5430POPC   GL168281  16.782  44.800   5.784
 5430POPC   GL268282  16.722  44.449   5.858
 5430POPC   C1A68283  16.677  44.817   6.251
 5430POPC   D2A68284  16.784  44.659   6.673
 5430POPC   C3A68285  16.515  44.568   7.059
 5430POPC   C4A68286  16.485  44.747   7.528
 5430POPC   C1B68287  17.030  44.412   6.221
 5430POPC   C2B68288  17.245  44.430   6.617
 5430POPC   C3B68289  17.058  44.408   7.030
 5430POPC   C4B68290  16.916  44.542   7.407
 5431POPC   NC368291  27.162  17.967   5.558
 5431POPC   PO468292  27.698  18.384   5.453
 5431POPC   GL168293  27.411  18.374   5.787
 5431POPC   GL268294  27.596  18.053   5.831
 5431POPC   C1A68295  27.389  18.433   6.249
 5431POPC   D2A68296  27.650  18.334   6.624
 5431POPC   C3A68297  27.466  18.506   7.021
 5431POPC   C4A68298  27.300  18.463   7.470
 5431POPC   C1B68299  27.531  17.937   6.232
 5431POPC   C2B68300  27.512  17.810   6.637
 5431POPC   C3B68301  27.552  18.003   7.022
 5431POPC   C4B68302  27.651  18.095   7.459
 5432POPC   NC368303   6.446  41.820   5.495
 5432POPC   PO468304   6.897  41.296   5.303
 5432POPC   GL168305   6.683  41.339   5.748
 5432POPC   GL268306   6.374  41.394   5.966
 5432POPC   C1A68307   6.816  41.290   6.200
 5432POPC   D2A68308   6.769  41.542   6.591
 5432POPC   C3A68309   6.912  41.417   7.016
 5432POPC   C4A68310   6.772  41.304   7.437
 5432POPC   C1B68311   6.528  41.775   6.184
 5432POPC   C2B68312   6.499  41.986   6.587
 5432POPC   C3B68313   6.497  41.773   6.981
 5432POPC   C4B68314   6.333  41.737   7.377
 5433POPC   NC368315   7.979  21.233   5.445
 5433POPC   PO468316   8.491  21.573   5.242
 5433POPC   GL168317   8.543  21.555   5.714
 5433POPC   GL268318   8.184  21.548   5.801
 5433POPC   C1A68319   8.487  21.444   6.186
 5433POPC   D2A68320   8.682  21.339   6.581
 5433POPC   C3A68321   8.529  21.460   6.977
 5433POPC   C4A68322   8.356  21.341   7.402
 5433POPC   C1B68323   7.965  21.486   6.196
 5433POPC   C2B68324   8.131  21.543   6.631
 5433POPC   C3B68325   7.989  21.586   7.058
 5433POPC   C4B68326   7.564  21.761   7.189
 5434POPC   NC368327  37.804   4.134   5.462
 5434POPC   PO468328  37.256   4.420   5.616
 5434POPC   GL168329  37.456   4.107   5.838
 5434POPC   GL268330  37.718   4.352   5.910
 5434POPC   C1A68331  37.658   3.961   6.236
 5434POPC   D2A68332  37.612   3.935   6.680
 5434POPC   C3A68333  37.629   4.332   6.851
 5434POPC   C4A68334  37.499   4.175   7.208
 5434POPC   C1B68335  38.018   4.558   6.155
 5434POPC   C2B68336  38.089   4.722   6.551
 5434POPC   C3B68337  38.123   4.548   6.936
 5434POPC   C4B68338  37.937   4.402   7.270
 5435POPC   NC368339  15.101  10.072   5.498
 5435POPC   PO468340  15.366   9.456   5.451
 5435POPC   GL168341  15.303   9.692   5.810
 5435POPC   GL268342  15.566   9.894   5.901
 5435POPC   C1A68343  15.128   9.625   6.213
 5435POPC   D2A68344  15.061   9.441   6.630
 5435POPC   C3A68345  14.791   9.602   6.960
 5435POPC   C4A68346  14.842  10.010   7.179
 5435POPC   C1B68347  15.307  10.122   6.198
 5435POPC   C2B68348  15.114   9.966   6.596
 5435POPC   C3B68349  15.280   9.774   6.964
 5435POPC   C4B68350  15.495   9.670   7.345
 5436POPC   NC368351  35.979  27.662   5.267
 5436POPC   PO468352  36.483  28.086   5.532
 5436POPC   GL168353  36.198  27.836   5.787
 5436POPC   GL268354  35.852  27.923   5.717
 5436POPC   C1A68355  36.108  27.518   6.130
 5436POPC   D2A68356  35.879  27.502   6.541
 5436POPC   C3A68357  36.029  27.307   6.928
 5436POPC   C4A68358  36.302  27.185   7.271
 5436POPC   C1B68359  35.880  27.982   6.183
 5436POPC   C2B68360  36.106  27.975   6.590
 5436POPC   C3B68361  36.020  27.822   7.056
 5436POPC   C4B68362  35.779  27.894   7.484
 5437POPC   NC368363  35.903  34.024   5.348
 5437POPC   PO468364  36.389  33.621   5.424
 5437POPC   GL168365  36.200  33.949   5.760
 5437POPC   GL268366  35.809  33.963   5.841
 5437POPC   C1A68367  36.309  34.024   6.197
 5437POPC   D2A68368  36.435  33.702   6.532
 5437POPC   C3A68369  36.264  33.694   6.946
 5437POPC   C4A68370  36.340  33.476   7.295
 5437POPC   C1B68371  35.862  33.780   6.256
 5437POPC   C2B68372  36.007  34.000   6.629
 5437POPC   C3B68373  35.915  34.073   7.093
 5437POPC   C4B68374  35.841  34.012   7.554
 5438POPC   NC368375  35.020  41.298   5.457
 5438POPC   PO468376  35.399  41.889   5.361
 5438POPC   GL168377  35.447  41.672   5.763
 5438POPC   GL268378  35.142  41.581   5.863
 5438POPC   C1A68379  35.526  41.538   6.216
 5438POPC   D2A68380  35.563  41.800   6.601
 5438POPC   C3A68381  35.503  41.582   6.979
 5438POPC   C4A68382  35.157  41.767   7.093
 5438POPC   C1B68383  34.978  41.475   6.247
 5438POPC   C2B68384  35.108  41.476   6.648
 5438POPC   C3B68385  34.897  41.349   6.997
 5438POPC   C4B68386  35.134  41.353   7.361
 5439POPC   NC368387  25.909  26.525   5.478
 5439POPC   PO468388  25.888  27.202   5.432
 5439POPC   GL168389  26.032  26.996   5.798
 5439POPC   GL268390  26.356  27.081   5.853
 5439POPC   C1A68391  26.114  27.110   6.270
 5439POPC   D2A68392  26.406  27.180   6.575
 5439POPC   C3A68393  26.214  27.126   6.955
 5439POPC   C4A68394  25.963  26.774   7.148
 5439POPC   C1B68395  26.302  26.683   6.079
 5439POPC   C2B68396  26.225  26.657   6.537
 5439POPC   C3B68397  26.410  26.665   6.949
 5439POPC   C4B68398  26.377  26.522   7.385
 5440POPC   NC368399  44.783  39.891   5.428
 5440POPC   PO468400  44.907  40.494   5.382
 5440POPC   GL168401   0.026  40.239   5.765
 5440POPC   GL268402  44.712  40.059   5.892
 5440POPC   C1A68403   0.011  40.231   6.246
 5440POPC   D2A68404   0.042  39.971   6.620
 5440POPC   C3A68405  44.804  40.109   6.990
 5440POPC   C4A68406  44.690  40.082   7.444
 5440POPC   C1B68407  44.715  39.779   6.263
 5440POPC   C2B68408  44.647  39.656   6.723
 5440POPC   C3B68409  44.757  39.623   7.166
 5440POPC   C4B68410  44.554  39.610   7.575
 5441POPC   NC368411   2.512   1.856   5.431
 5441POPC   PO468412   2.916   2.441   5.397
 5441POPC   GL168413   2.939   2.060   5.759
 5441POPC   GL268414   2.885   1.661   5.747
 5441POPC   C1A68415   2.845   2.110   6.228
 5441POPC   D2A68416   2.677   2.260   6.674
 5441POPC   C3A68417   2.997   2.199   7.015
 5441POPC   C4A68418   3.070   1.915   7.333
 5441POPC   C1B68419   2.700   1.605   6.155
 5441POPC   C2B68420   2.679   1.769   6.570
 5441POPC   C3B68421   2.605   1.854   7.016
 5441POPC   C4B68422   2.671   1.597   7.377
 5442POPC   NC368423  30.167  28.210   5.372
 5442POPC   PO468424  29.685  28.618   5.276
 5442POPC   GL168425  29.753  28.364   5.688
 5442POPC   GL268426  30.106  28.270   5.861
 5442POPC   C1A68427  29.736  28.436   6.152
 5442POPC   D2A68428  29.956  28.312   6.539
 5442POPC   C3A68429  29.718  28.354   6.936
 5442POPC   C4A68430  29.629  28.314   7.366
 5442POPC   C1B68431  30.259  28.565   6.175
 5442POPC   C2B68432  30.231  28.803   6.543
 5442POPC   C3B68433  30.264  28.783   6.974
 5442POPC   C4B68434  30.113  28.491   7.305
 5443POPC   NC368435  20.446   2.257   5.257
 5443POPC   PO468436  20.788   2.937   5.322
 5443POPC   GL168437  20.596   2.803   5.730
 5443POPC   GL268438  20.786   2.547   5.870
 5443POPC   C1A68439  20.415   2.737   6.159
 5443POPC   D2A68440  20.535   2.757   6.584
 5443POPC   C3A68441  20.372   2.698   6.985
 5443POPC   C4A68442  20.628   2.976   7.198
 5443POPC   C1B68443  20.925   2.792   6.208
 5443POPC   C2B68444  21.040   2.705   6.616
 5443POPC   C3B68445  20.952   2.619   7.034
 5443POPC   C4B68446  20.971   2.300   7.329
 5444POPC   NC368447  23.536  29.261   5.403
 5444POPC   PO468448  24.235  29.168   5.500
 5444POPC   GL168449  23.892  29.320   5.820
 5444POPC   GL268450  23.626  29.070   5.885
 5444POPC   C1A68451  23.789  29.406   6.298
 5444POPC   D2A68452  23.565  29.163   6.649
 5444POPC   C3A68453  23.670  29.194   7.110
 5444POPC   C4A68454  23.556  29.048   7.560
 5444POPC   C1B68455  23.789  28.861   6.261
 5444POPC   C2B68456  23.594  28.606   6.592
 5444POPC   C3B68457  23.496  28.633   7.038
 5444POPC   C4B68458  23.851  28.743   7.293
 5445POPC   NC368459  43.857   7.025   5.365
 5445POPC   PO468460  43.601   7.571   5.181
 5445POPC   GL168461  43.773   7.444   5.691
 5445POPC   GL268462  43.945   7.135   5.846
 5445POPC   C1A68463  44.031   7.548   6.134
 5445POPC   D2A68464  44.154   7.412   6.616
 5445POPC   C3A68465  43.939   7.638   6.948
 5445POPC   C4A68466  43.500   7.612   7.117
 5445POPC   C1B68467  43.670   7.185   6.215
 5445POPC   C2B68468  43.640   7.321   6.678
 5445POPC   C3B68469  43.795   7.149   7.086
 5445POPC   C4B68470  43.655   6.784   7.333
 5446POPC   NC368471  22.222  21.908   5.536
 5446POPC   PO468472  21.665  22.352   5.361
 5446POPC   GL168473  21.973  22.285   5.747
 5446POPC   GL268474  22.347  22.382   5.748
 5446POPC   C1A68475  21.988  22.098   6.187
 5446POPC   D2A68476  21.990  22.239   6.637
 5446POPC   C3A68477  21.918  22.288   7.116
 5446POPC   C4A68478  21.919  22.081   7.559
 5446POPC   C1B68479  22.501  22.257   6.162
 5446POPC   C2B68480  22.418  21.986   6.497
 5446POPC   C3B68481  22.292  21.948   6.921
 5446POPC   C4B68482  22.492  22.310   7.065
 5447POPC   NC368483  35.085   5.550   5.372
 5447POPC   PO468484  35.657   5.797   5.321
 5447POPC   GL168485  35.388   5.989   5.675
 5447POPC   GL268486  35.077   6.229   5.705
 5447POPC   C1A68487  35.510   5.980   6.114
 5447POPC   D2A68488  35.724   5.734   6.415
 5447POPC   C3A68489  35.683   5.867   6.860
 5447POPC   C4A68490  35.472   5.848   7.267
 5447POPC   C1B68491  35.235   6.393   6.120
 5447POPC   C2B68492  35.275   6.224   6.565
 5447POPC   C3B68493  35.279   6.228   7.014
 5447POPC   C4B68494  35.309   6.287   7.475
 5448POPC   NC368495  33.546   0.372   5.426
 5448POPC   PO468496  34.119   0.580   5.664
 5448POPC   GL168497  33.866   0.521   5.999
 5448POPC   GL268498  33.551   0.651   5.855
 5448POPC   C1A68499  33.822   0.211   6.341
 5448POPC   D2A68500  33.661   0.094   6.765
 5448POPC   C3A68501  33.869   0.330   7.074
 5448POPC   C4A68502  33.864   0.798   7.155
 5448POPC   C1B68503  33.444   0.576   6.270
 5448POPC   C2B68504  33.648   0.621   6.654
 5448POPC   C3B68505  33.388   0.673   6.982
 5448POPC   C4B68506  33.482   0.518   7.353
 5449POPC   NC368507  27.090  31.864   5.142
 5449POPC   PO468508  26.542  31.688   5.516
 5449POPC   GL168509  26.752  31.348   5.752
 5449POPC   GL268510  27.044  31.460   5.910
 5449POPC   C1A68511  26.774  31.170   6.185
 5449POPC   D2A68512  26.934  31.380   6.536
 5449POPC   C3A68513  26.791  31.192   6.925
 5449POPC   C4A68514  26.862  31.118   7.323
 5449POPC   C1B68515  27.267  31.716   6.236
 5449POPC   C2B68516  27.302  31.792   6.665
 5449POPC   C3B68517  27.105  31.583   6.989
 5449POPC   C4B68518  26.736  31.768   7.179
 5450POPC   NC368519   0.985  44.444   5.295
 5450POPC   PO468520   1.056   0.128   5.389
 5450POPC   GL168521   1.112  44.773   5.689
 5450POPC   GL268522   1.447  44.666   5.683
 5450POPC   C1A68523   1.097  44.493   6.059
 5450POPC   D2A68524   0.968  44.564   6.500
 5450POPC   C3A68525   1.256  44.486   6.860
 5450POPC   C4A68526   1.076  44.405   7.261
 5450POPC   C1B68527   1.481  44.847   6.131
 5450POPC   C2B68528   1.353  44.943   6.581
 5450POPC   C3B68529   1.495  44.911   7.024
 5450POPC   C4B68530   1.602   0.198   7.348
 5451POPC   NC368531  31.179  33.348   5.375
 5451POPC   PO468532  31.682  32.879   5.170
 5451POPC   GL168533  31.673  33.110   5.609
 5451POPC   GL268534  31.345  33.112   5.796
 5451POPC   C1A68535  31.760  33.125   6.095
 5451POPC   D2A68536  31.853  32.910   6.512
 5451POPC   C3A68537  31.677  33.075   6.905
 5451POPC   C4A68538  31.564  32.871   7.282
 5451POPC   C1B68539  31.141  33.093   6.186
 5451POPC   C2B68540  31.301  32.918   6.540
 5451POPC   C3B68541  31.195  32.893   6.934
 5451POPC   C4B68542  31.013  32.973   7.291
 5452POPC   NC368543  35.761  18.090   5.542
 5452POPC   PO468544  36.108  18.609   5.219
 5452POPC   GL168545  36.206  18.467   5.689
 5452POPC   GL268546  36.358  18.147   5.752
 5452POPC   C1A68547  36.068  18.271   6.140
 5452POPC   D2A68548  36.189  18.237   6.576
 5452POPC   C3A68549  35.911  18.491   6.843
 5452POPC   C4A68550  35.671  18.503   7.234
 5452POPC   C1B68551  36.471  17.958   6.163
 5452POPC   C2B68552  36.462  17.786   6.584
 5452POPC   C3B68553  36.438  17.992   7.000
 5452POPC   C4B68554  36.276  17.791   7.386
 5453POPC   NC368555  19.263   4.848   5.399
 5453POPC   PO468556  19.257   5.493   5.377
 5453POPC   GL168557  19.246   5.219   5.791
 5453POPC   GL268558  19.114   4.888   5.908
 5453POPC   C1A68559  19.368   5.180   6.241
 5453POPC   D2A68560  19.151   5.141   6.638
 5453POPC   C3A68561  19.322   5.333   7.011
 5453POPC   C4A68562  19.333   5.199   7.450
 5453POPC   C1B68563  19.054   4.698   6.314
 5453POPC   C2B68564  19.005   4.649   6.749
 5453POPC   C3B68565  19.050   4.903   7.096
 5453POPC   C4B68566  18.947   4.857   7.508
 5454POPC   NC368567  42.275  18.341   5.211
 5454POPC   PO468568  42.202  17.659   5.271
 5454POPC   GL168569  42.089  18.004   5.633
 5454POPC   GL268570  42.095  18.388   5.675
 5454POPC   C1A68571  42.207  18.107   6.098
 5454POPC   D2A68572  42.504  18.257   6.471
 5454POPC   C3A68573  42.330  18.192   6.895
 5454POPC   C4A68574  42.075  17.828   7.054
 5454POPC   C1B68575  41.899  18.512   6.038
 5454POPC   C2B68576  42.019  18.435   6.452
 5454POPC   C3B68577  42.150  18.665   6.768
 5454POPC   C4B68578  42.280  18.625   7.175
 5455POPC   NC368579  18.928  28.781   5.432
 5455POPC   PO468580  19.029  29.360   5.285
 5455POPC   GL168581  19.157  29.204   5.686
 5455POPC   GL268582  18.855  29.218   5.823
 5455POPC   C1A68583  19.273  29.230   6.139
 5455POPC   D2A68584  19.370  29.469   6.535
 5455POPC   C3A68585  19.285  29.285   6.913
 5455POPC   C4A68586  19.249  28.886   7.088
 5455POPC   C1B68587  18.884  28.900   6.177
 5455POPC   C2B68588  19.005  28.776   6.607
 5455POPC   C3B68589  18.762  28.934   6.972
 5455POPC   C4B68590  18.760  29.318   7.218
 5456POPC   NC368591  35.046  34.460   5.622
 5456POPC   PO468592  34.513  34.548   5.204
 5456POPC   GL168593  34.504  34.449   5.638
 5456POPC   GL268594  34.652  34.707   5.818
 5456POPC   C1A68595  34.502  34.309   6.071
 5456POPC   D2A68596  34.405  34.485   6.448
 5456POPC   C3A68597  34.580  34.259   6.785
 5456POPC   C4A68598  34.539  34.272   7.230
 5456POPC   C1B68599  34.893  34.694   6.209
 5456POPC   C2B68600  34.760  34.815   6.618
 5456POPC   C3B68601  34.779  34.699   7.022
 5456POPC   C4B68602  34.810  35.095   7.201
 5457POPC   NC368603  42.702  33.053   5.526
 5457POPC   PO468604  42.105  33.257   5.207
 5457POPC   GL168605  42.187  32.974   5.622
 5457POPC   GL268606  41.925  32.804   5.802
 5457POPC   C1A68607  42.327  32.888   6.103
 5457POPC   D2A68608  42.119  33.019   6.516
 5457POPC   C3A68609  42.373  33.005   6.900
 5457POPC   C4A68610  42.652  33.199   7.166
 5457POPC   C1B68611  41.912  32.591   6.242
 5457POPC   C2B68612  41.837  32.588   6.718
 5457POPC   C3B68613  41.985  32.748   7.116
 5457POPC   C4B68614  42.160  32.987   7.475
 5458POPC   NC368615  17.788  19.632   5.352
 5458POPC   PO468616  17.154  20.009   5.406
 5458POPC   GL168617  17.323  19.846   5.732
 5458POPC   GL268618  17.643  19.965   5.718
 5458POPC   C1A68619  17.237  19.678   6.140
 5458POPC   D2A68620  17.440  19.671   6.526
 5458POPC   C3A68621  17.233  19.770   6.912
 5458POPC   C4A68622  17.026  19.970   7.267
 5458POPC   C1B68623  17.790  19.914   6.135
 5458POPC   C2B68624  17.987  19.904   6.525
 5458POPC   C3B68625  17.788  19.800   6.894
 5458POPC   C4B68626  17.780  19.964   7.288
 5459POPC   NC368627  33.590   6.054   5.484
 5459POPC   PO468628  33.844   5.427   5.385
 5459POPC   GL168629  33.944   5.732   5.788
 5459POPC   GL268630  34.128   6.077   5.715
 5459POPC   C1A68631  33.784   5.984   6.200
 5459POPC   D2A68632  33.737   5.943   6.681
 5459POPC   C3A68633  33.400   5.866   6.970
 5459POPC   C4A68634  33.410   5.562   7.340
 5459POPC   C1B68635  34.199   6.283   6.126
 5459POPC   C2B68636  34.207   6.056   6.535
 5459POPC   C3B68637  34.093   6.178   6.963
 5459POPC   C4B68638  33.765   6.078   7.255
 5460POPC   NC368639  19.990  43.342   5.486
 5460POPC   PO468640  20.010  42.689   5.535
 5460POPC   GL168641  19.940  42.994   5.851
 5460POPC   GL268642  19.662  43.237   5.901
 5460POPC   C1A68643  20.098  43.295   6.166
 5460POPC   D2A68644  19.910  43.409   6.540
 5460POPC   C3A68645  19.969  43.108   6.845
 5460POPC   C4A68646  20.086  43.273   7.238
 5460POPC   C1B68647  19.687  42.973   6.290
 5460POPC   C2B68648  19.424  42.704   6.540
 5460POPC   C3B68649  19.496  42.653   6.970
 5460POPC   C4B68650  19.681  42.960   7.243
 5461POPC   NC368651   7.037   8.661   5.570
 5461POPC   PO468652   6.584   9.105   5.325
 5461POPC   GL168653   6.704   9.035   5.744
 5461POPC   GL268654   6.507   8.734   5.805
 5461POPC   C1A68655   6.888   9.163   6.151
 5461POPC   D2A68656   6.701   9.352   6.539
 5461POPC   C3A68657   6.852   9.291   6.978
 5461POPC   C4A68658   6.790   9.240   7.429
 5461POPC   C1B68659   6.408   9.008   6.198
 5461POPC   C2B68660   6.510   8.879   6.629
 5461POPC   C3B68661   6.695   8.813   7.038
 5461POPC   C4B68662   6.556   8.818   7.490
 5462POPC   NC368663   3.707  34.838   5.637
 5462POPC   PO468664   3.278  34.434   5.290
 5462POPC   GL168665   3.465  34.354   5.743
 5462POPC   GL268666   3.834  34.344   5.748
 5462POPC   C1A68667   3.532  34.513   6.223
 5462POPC   D2A68668   3.807  34.751   6.573
 5462POPC   C3A68669   3.520  34.789   6.942
 5462POPC   C4A68670   3.306  34.480   7.150
 5462POPC   C1B68671   4.023  34.450   6.171
 5462POPC   C2B68672   3.897  34.239   6.558
 5462POPC   C3B68673   3.838  34.365   6.994
 5462POPC   C4B68674   3.863  34.676   7.301
 5463POPC   NC368675  17.434  34.742   5.450
 5463POPC   PO468676  17.639  34.132   5.440
 5463POPC   GL168677  17.477  34.351   5.802
 5463POPC   GL268678  17.133  34.550   5.826
 5463POPC   C1A68679  17.720  34.471   6.177
 5463POPC   D2A68680  17.741  34.759   6.510
 5463POPC   C3A68681  17.847  34.539   6.875
 5463POPC   C4A68682  17.770  34.677   7.270
 5463POPC   C1B68683  17.221  34.391   6.231
 5463POPC   C2B68684  17.413  34.372   6.627
 5463POPC   C3B68685  17.325  34.384   7.055
 5463POPC   C4B68686  17.293  34.609   7.433
 5464POPC   NC368687  38.646  30.662   5.733
 5464POPC   PO468688  38.235  30.392   5.254
 5464POPC   GL168689  38.158  30.497   5.735
 5464POPC   GL268690  38.149  30.808   5.924
 5464POPC   C1A68691  38.267  30.391   6.200
 5464POPC   D2A68692  38.582  30.505   6.519
 5464POPC   C3A68693  38.384  30.561   6.898
 5464POPC   C4A68694  38.399  30.473   7.300
 5464POPC   C1B68695  38.264  30.915   6.372
 5464POPC   C2B68696  38.373  31.058   6.811
 5464POPC   C3B68697  38.519  30.951   7.223
 5464POPC   C4B68698  38.184  30.891   7.543
 5465POPC   NC368699   4.137  39.488   5.350
 5465POPC   PO468700   4.031  38.805   5.469
 5465POPC   GL168701   4.246  39.113   5.805
 5465POPC   GL268702   4.360  39.482   5.830
 5465POPC   C1A68703   4.239  39.024   6.252
 5465POPC   D2A68704   4.010  38.828   6.573
 5465POPC   C3A68705   4.095  39.067   6.926
 5465POPC   C4A68706   4.327  38.996   7.293
 5465POPC   C1B68707   4.474  39.518   6.279
 5465POPC   C2B68708   4.497  39.352   6.686
 5465POPC   C3B68709   4.356  39.494   7.103
 5465POPC   C4B68710   4.428  39.445   7.547
 5466POPC   NC368711   7.780  18.749   5.502
 5466POPC   PO468712   7.270  19.219   5.344
 5466POPC   GL168713   7.326  19.063   5.781
 5466POPC   GL268714   7.147  18.771   5.875
 5466POPC   C1A68715   7.601  19.108   6.177
 5466POPC   D2A68716   7.839  19.057   6.582
 5466POPC   C3A68717   7.591  19.232   6.904
 5466POPC   C4A68718   7.401  19.089   7.292
 5466POPC   C1B68719   7.086  19.025   6.262
 5466POPC   C2B68720   7.176  18.983   6.722
 5466POPC   C3B68721   7.080  18.736   7.130
 5466POPC   C4B68722   7.027  18.872   7.594
 5467POPC   NC368723  10.104   7.535   5.446
 5467POPC   PO468724   9.552   7.943   5.479
 5467POPC   GL168725   9.754   7.719   5.839
 5467POPC   GL268726   9.794   7.341   5.802
 5467POPC   C1A68727   9.587   7.533   6.237
 5467POPC   D2A68728   9.368   7.339   6.610
 5467POPC   C3A68729   9.621   7.476   6.974
 5467POPC   C4A68730   9.804   7.475   7.409
 5467POPC   C1B68731   9.922   7.084   6.143
 5467POPC   C2B68732   9.864   7.206   6.557
 5467POPC   C3B68733   9.715   6.997   6.882
 5467POPC   C4B68734   9.842   6.971   7.290
 5468POPC   NC368735   4.224  26.508   5.228
 5468POPC   PO468736   3.560  26.794   5.373
 5468POPC   GL168737   3.389  26.591   5.769
 5468POPC   GL268738   3.503  26.850   5.939
 5468POPC   C1A68739   3.380  26.460   6.233
 5468POPC   D2A68740   3.514  26.792   6.509
 5468POPC   C3A68741   3.644  26.728   6.927
 5468POPC   C4A68742   3.477  26.573   7.307
 5468POPC   C1B68743   3.746  27.167   6.128
 5468POPC   C2B68744   3.874  27.181   6.551
 5468POPC   C3B68745   3.737  27.238   6.972
 5468POPC   C4B68746   3.747  26.999   7.378
 5469POPC   NC368747  38.722  21.770   5.219
 5469POPC   PO468748  38.325  21.261   5.367
 5469POPC   GL168749  38.408  21.399   5.761
 5469POPC   GL268750  38.192  21.693   5.690
 5469POPC   C1A68751  38.452  21.251   6.203
 5469POPC   D2A68752  38.559  21.369   6.627
 5469POPC   C3A68753  38.271  21.364   6.944
 5469POPC   C4A68754  38.378  21.217   7.295
 5469POPC   C1B68755  38.048  21.578   6.095
 5469POPC   C2B68756  38.119  21.635   6.520
 5469POPC   C3B68757  38.164  21.858   6.899
 5469POPC   C4B68758  37.996  21.749   7.314
 5470POPC   NC368759   1.773  25.430   5.491
 5470POPC   PO468760   2.234  24.921   5.425
 5470POPC   GL168761   1.958  24.992   5.745
 5470POPC   GL268762   2.179  25.240   5.862
 5470POPC   C1A68763   1.764  25.060   6.181
 5470POPC   D2A68764   1.988  25.056   6.584
 5470POPC   C3A68765   1.759  25.135   6.963
 5470POPC   C4A68766   1.943  25.116   7.341
 5470POPC   C1B68767   2.096  25.452   6.237
 5470POPC   C2B68768   2.211  25.642   6.608
 5470POPC   C3B68769   2.077  25.528   6.994
 5470POPC   C4B68770   2.243  25.572   7.364
 5471POPC   NC368771  21.303  14.822   5.487
 5471POPC   PO468772  21.519  14.207   5.357
 5471POPC   GL168773  21.488  14.350   5.746
 5471POPC   GL268774  21.701  14.638   5.816
 5471POPC   C1A68775  21.444  14.294   6.175
 5471POPC   D2A68776  21.539  14.440   6.594
 5471POPC   C3A68777  21.345  14.181   6.939
 5471POPC   C4A68778  21.562  13.992   7.266
 5471POPC   C1B68779  21.423  14.801   6.162
 5471POPC   C2B68780  21.336  14.928   6.600
 5471POPC   C3B68781  21.252  14.683   6.989
 5471POPC   C4B68782  21.011  14.698   7.374
 5472POPC   NC368783   6.032   9.680   5.527
 5472POPC   PO468784   5.662  10.230   5.332
 5472POPC   GL168785   5.707  10.043   5.778
 5472POPC   GL268786   5.628   9.688   5.812
 5472POPC   C1A68787   5.874   9.906   6.204
 5472POPC   D2A68788   5.793  10.001   6.644
 5472POPC   C3A68789   6.057   9.916   6.995
 5472POPC   C4A68790   6.033   9.562   7.316
 5472POPC   C1B68791   5.626   9.429   6.184
 5472POPC   C2B68792   5.526   9.542   6.589
 5472POPC   C3B68793   5.655   9.604   6.983
 5472POPC   C4B68794   5.469   9.533   7.380
 5473POPC   NC368795   6.268   1.018   5.344
 5473POPC   PO468796   6.940   1.328   5.346
 5473POPC   GL168797   6.740   1.250   5.751
 5473POPC   GL268798   6.413   1.454   5.703
 5473POPC   C1A68799   6.838   1.169   6.205
 5473POPC   D2A68800   6.819   1.443   6.593
 5473POPC   C3A68801   6.740   1.229   6.980
 5473POPC   C4A68802   6.769   0.937   7.321
 5473POPC   C1B68803   6.335   1.216   6.095
 5473POPC   C2B68804   6.427   1.067   6.528
 5473POPC   C3B68805   6.252   1.104   6.948
 5473POPC   C4B68806   6.333   1.369   7.285
 5474POPC   NC368807  21.674  18.096   5.237
 5474POPC   PO468808  21.212  18.432   5.540
 5474POPC   GL168809  21.601  18.351   5.779
 5474POPC   GL268810  21.823  18.635   5.872
 5474POPC   C1A68811  21.488  18.148   6.178
 5474POPC   D2A68812  21.364  17.951   6.572
 5474POPC   C3A68813  21.197  18.133   6.969
 5474POPC   C4A68814  21.513  18.137   7.302
 5474POPC   C1B68815  21.482  18.654   6.201
 5474POPC   C2B68816  21.386  18.467   6.583
 5474POPC   C3B68817  21.535  18.537   6.975
 5474POPC   C4B68818  21.222  18.572   7.297
 5475POPC   NC368819  33.580  10.919   5.486
 5475POPC   PO468820  33.996  10.341   5.449
 5475POPC   GL168821  33.711  10.419   5.796
 5475POPC   GL268822  33.409  10.157   5.806
 5475POPC   C1A68823  33.944  10.591   6.185
 5475POPC   D2A68824  33.998  10.913   6.531
 5475POPC   C3A68825  33.874  10.782   6.966
 5475POPC   C4A68826  33.471  10.565   7.053
 5475POPC   C1B68827  33.524  10.259   6.248
 5475POPC   C2B68828  33.744  10.393   6.629
 5475POPC   C3B68829  33.891  10.261   7.039
 5475POPC   C4B68830  33.662  10.280   7.434
 5476POPC   NC368831   9.321  36.255   5.385
 5476POPC   PO468832   9.924  36.194   5.342
 5476POPC   GL168833   9.692  36.002   5.667
 5476POPC   GL268834   9.645  36.282   5.859
 5476POPC   C1A68835   9.590  35.834   6.075
 5476POPC   D2A68836   9.680  36.146   6.407
 5476POPC   C3A68837   9.605  36.020   6.805
 5476POPC   C4A68838   9.602  36.110   7.237
 5476POPC   C1B68839   9.981  36.515   6.134
 5476POPC   C2B68840  10.129  36.506   6.523
 5476POPC   C3B68841   9.806  36.499   6.823
 5476POPC   C4B68842   9.810  36.582   7.246
 5477POPC   NC368843  36.623  25.797   5.323
 5477POPC   PO468844  36.049  26.162   5.353
 5477POPC   GL168845  35.987  26.007   5.787
 5477POPC   GL268846  36.228  26.112   6.050
 5477POPC   C1A68847  35.870  25.781   6.166
 5477POPC   D2A68848  36.146  25.885   6.549
 5477POPC   C3A68849  36.018  25.909   6.993
 5477POPC   C4A68850  36.272  26.132   7.315
 5477POPC   C1B68851  36.574  25.883   6.250
 5477POPC   C2B68852  36.633  25.719   6.669
 5477POPC   C3B68853  36.498  25.709   7.077
 5477POPC   C4B68854  36.192  25.594   7.364
 5478POPC   NC368855  13.345  44.030   5.462
 5478POPC   PO468856  13.989  44.033   5.514
 5478POPC   GL168857  13.791  43.896   5.877
 5478POPC   GL268858  13.450  43.779   5.892
 5478POPC   C1A68859  13.647  44.073   6.248
 5478POPC   D2A68860  13.446  44.151   6.619
 5478POPC   C3A68861  13.699  44.013   6.937
 5478POPC   C4A68862  13.658  43.952   7.374
 5478POPC   C1B68863  13.258  43.713   6.279
 5478POPC   C2B68864  13.271  43.548   6.680
 5478POPC   C3B68865  13.249  43.812   7.003
 5478POPC   C4B68866  13.167  43.807   7.400
 5479POPC   NC368867   7.335   8.973   4.668
 5479POPC   PO468868   7.451   9.122   5.341
 5479POPC   GL168869   7.470   8.998   5.772
 5479POPC   GL268870   7.581   8.691   5.629
 5479POPC   C1A68871   7.387   9.009   6.257
 5479POPC   D2A68872   7.085   8.985   6.618
 5479POPC   C3A68873   7.220   8.916   7.056
 5479POPC   C4A68874   7.034   8.637   7.378
 5479POPC   C1B68875   7.611   8.587   6.066
 5479POPC   C2B68876   7.374   8.490   6.426
 5479POPC   C3B68877   7.403   8.475   6.859
 5479POPC   C4B68878   7.564   8.555   7.250
 5480POPC   NC368879  36.134  17.162   5.556
 5480POPC   PO468880  36.128  17.814   5.418
 5480POPC   GL168881  36.263  17.616   5.800
 5480POPC   GL268882  35.996  17.796   5.950
 5480POPC   C1A68883  36.236  17.397   6.211
 5480POPC   D2A68884  36.010  17.530   6.588
 5480POPC   C3A68885  36.240  17.473   6.969
 5480POPC   C4A68886  36.154  17.148   7.267
 5480POPC   C1B68887  35.714  17.876   6.274
 5480POPC   C2B68888  35.754  17.984   6.687
 5480POPC   C3B68889  35.923  18.032   7.063
 5480POPC   C4B68890  35.785  18.035   7.470
 5481POPC   NC368891  20.227   8.384   5.377
 5481POPC   PO468892  19.762   8.025   5.166
 5481POPC   GL168893  19.723   8.108   5.659
 5481POPC   GL268894  19.954   8.354   5.845
 5481POPC   C1A68895  19.585   7.935   6.087
 5481POPC   D2A68896  19.627   7.819   6.563
 5481POPC   C3A68897  19.688   8.108   6.966
 5481POPC   C4A68898  19.785   8.206   7.462
 5481POPC   C1B68899  20.029   8.136   6.259
 5481POPC   C2B68900  20.171   8.132   6.716
 5481POPC   C3B68901  20.181   8.060   7.190
 5481POPC   C4B68902  20.260   8.019   7.639
 5482POPC   NC368903  23.665  17.919   5.269
 5482POPC   PO468904  23.943  17.299   5.279
 5482POPC   GL168905  23.859  17.400   5.740
 5482POPC   GL268906  23.758  17.749   5.798
 5482POPC   C1A68907  23.541  17.424   6.125
 5482POPC   D2A68908  23.436  17.261   6.545
 5482POPC   C3A68909  23.736  17.279   6.884
 5482POPC   C4A68910  23.512  17.527   7.151
 5482POPC   C1B68911  23.707  17.927   6.234
 5482POPC   C2B68912  23.643  17.776   6.663
 5482POPC   C3B68913  23.684  17.998   7.040
 5482POPC   C4B68914  23.808  17.841   7.414
 5483POPC   NC368915  31.448  10.914   5.487
 5483POPC   PO468916  31.664  10.230   5.458
 5483POPC   GL168917  31.696  10.244   5.879
 5483POPC   GL268918  31.444  10.541   5.857
 5483POPC   C1A68919  31.536  10.335   6.296
 5483POPC   D2A68920  31.524  10.629   6.601
 5483POPC   C3A68921  31.535  10.434   6.988
 5483POPC   C4A68922  31.358  10.135   7.265
 5483POPC   C1B68923  31.213  10.784   6.227
 5483POPC   C2B68924  31.011  10.667   6.667
 5483POPC   C3B68925  31.136  10.722   7.140
 5483POPC   C4B68926  31.556  10.778   7.364
 5484POPC   NC368927  38.742  19.363   5.520
 5484POPC   PO468928  39.379  19.628   5.397
 5484POPC   GL168929  39.271  19.484   5.776
 5484POPC   GL268930  39.281  19.854   5.854
 5484POPC   C1A68931  39.437  19.518   6.204
 5484POPC   D2A68932  39.308  19.811   6.525
 5484POPC   C3A68933  39.261  19.669   6.947
 5484POPC   C4A68934  39.554  19.765   7.262
 5484POPC   C1B68935  38.948  19.717   6.131
 5484POPC   C2B68936  38.829  19.984   6.482
 5484POPC   C3B68937  38.839  20.020   6.920
 5484POPC   C4B68938  39.112  20.084   7.270
 5485POPC   NC368939   2.983  14.415   5.382
 5485POPC   PO468940   2.405  14.693   5.410
 5485POPC   GL168941   2.586  14.384   5.760
 5485POPC   GL268942   2.970  14.299   5.852
 5485POPC   C1A68943   2.668  14.496   6.208
 5485POPC   D2A68944   2.878  14.668   6.579
 5485POPC   C3A68945   2.654  14.547   6.949
 5485POPC   C4A68946   2.759  14.651   7.367
 5485POPC   C1B68947   3.168  14.463   6.210
 5485POPC   C2B68948   3.364  14.370   6.585
 5485POPC   C3B68949   3.218  14.487   6.990
 5485POPC   C4B68950   3.189  14.310   7.428
 5486POPC   NC368951  17.075   2.361   5.435
 5486POPC   PO468952  17.253   3.001   5.424
 5486POPC   GL168953  17.389   2.907   5.822
 5486POPC   GL268954  17.357   2.527   5.834
 5486POPC   C1A68955  17.535   3.067   6.209
 5486POPC   D2A68956  17.883   3.104   6.491
 5486POPC   C3A68957  17.711   3.050   6.914
 5486POPC   C4A68958  17.885   2.665   7.047
 5486POPC   C1B68959  17.253   2.633   6.259
 5486POPC   C2B68960  17.448   2.677   6.673
 5486POPC   C3B68961  17.393   2.526   7.088
 5486POPC   C4B68962  17.406   2.343   7.503
 5487POPC   NC368963  39.729  14.463   5.620
 5487POPC   PO468964  39.225  14.278   5.165
 5487POPC   GL168965  39.215  14.246   5.681
 5487POPC   GL268966  39.052  14.557   5.860
 5487POPC   C1A68967  39.307  14.272   6.177
 5487POPC   D2A68968  39.372  14.495   6.570
 5487POPC   C3A68969  39.179  14.388   6.948
 5487POPC   C4A68970  39.467  14.257   7.228
 5487POPC   C1B68971  38.966  14.767   6.253
 5487POPC   C2B68972  39.017  14.842   6.688
 5487POPC   C3B68973  38.853  14.771   7.088
 5487POPC   C4B68974  38.784  14.430   7.400
 5488POPC   NC368975  12.208   0.126   5.669
 5488POPC   PO468976  11.763   0.618   5.423
 5488POPC   GL168977  11.950   0.618   5.883
 5488POPC   GL268978  12.308   0.521   6.038
 5488POPC   C1A68979  11.935   0.580   6.366
 5488POPC   D2A68980  12.276   0.638   6.691
 5488POPC   C3A68981  12.064   0.610   7.108
 5488POPC   C4A68982  11.779   0.486   7.447
 5488POPC   C1B68983  12.280   0.174   6.320
 5488POPC   C2B68984  12.459  44.970   6.655
 5488POPC   C3B68985  12.301   0.189   6.955
 5488POPC   C4B68986  12.163   0.139   7.348
 5489POPC   NC368987  25.225  25.899   5.300
 5489POPC   PO468988  25.786  25.478   5.211
 5489POPC   GL168989  25.595  25.756   5.636
 5489POPC   GL268990  25.642  26.115   5.820
 5489POPC   C1A68991  25.235  25.869   5.979
 5489POPC   D2A68992  25.107  25.811   6.424
 5489POPC   C3A68993  25.090  26.138   6.740
 5489POPC   C4A68994  25.096  25.994   7.148
 5489POPC   C1B68995  25.646  25.902   6.267
 5489POPC   C2B68996  25.548  25.810   6.725
 5489POPC   C3B68997  25.628  25.996   7.152
 5489POPC   C4B68998  25.823  25.886   7.560
 5490POPC   NC368999  23.810  19.441   5.324
 5490POPC   PO469000  23.596  18.798   5.391
 5490POPC   GL169001  23.771  19.035   5.747
 5490POPC   GL269002  23.521  19.328   5.765
 5490POPC   C1A69003  23.952  18.882   6.182
 5490POPC   D2A69004  23.811  18.714   6.597
 5490POPC   C3A69005  23.982  18.921   6.963
 5490POPC   C4A69006  23.835  18.892   7.372
 5490POPC   C1B69007  23.772  19.375   6.140
 5490POPC   C2B69008  23.777  19.208   6.563
 5490POPC   C3B69009  23.746  19.378   6.980
 5490POPC   C4B69010  23.964  19.397   7.363
 5491POPC   NC369011   4.290  31.840   5.382
 5491POPC   PO469012   4.154  31.159   5.468
 5491POPC   GL169013   4.306  31.424   5.851
 5491POPC   GL269014   4.564  31.729   5.810
 5491POPC   C1A69015   4.427  31.407   6.324
 5491POPC   D2A69016   4.465  31.103   6.689
 5491POPC   C3A69017   4.329  31.253   7.079
 5491POPC   C4A69018   4.103  31.401   7.430
 5491POPC   C1B69019   4.819  31.904   6.176
 5491POPC   C2B69020   4.880  31.764   6.597
 5491POPC   C3B69021   4.601  31.641   6.893
 5491POPC   C4B69022   4.476  31.721   7.267
 5492POPC   NC369023   6.906   2.085   5.407
 5492POPC   PO469024   6.275   2.121   5.535
 5492POPC   GL169025   6.598   1.944   5.810
 5492POPC   GL269026   6.876   2.198   5.885
 5492POPC   C1A69027   6.593   1.688   6.189
 5492POPC   D2A69028   6.638   1.921   6.599
 5492POPC   C3A69029   6.568   1.752   6.994
 5492POPC   C4A69030   6.441   2.101   7.265
 5492POPC   C1B69031   6.997   2.002   6.240
 5492POPC   C2B69032   7.154   2.016   6.626
 5492POPC   C3B69033   6.993   2.068   6.995
 5492POPC   C4B69034   6.921   2.254   7.350
 5493POPC   NC369035   5.652  37.667   5.364
 5493POPC   PO469036   6.212  37.372   5.495
 5493POPC   GL169037   5.968  37.652   5.765
 5493POPC   GL269038   5.722  37.405   5.828
 5493POPC   C1A69039   5.781  37.856   6.144
 5493POPC   D2A69040   5.766  37.994   6.580
 5493POPC   C3A69041   5.717  37.737   6.938
 5493POPC   C4A69042   5.692  37.442   7.278
 5493POPC   C1B69043   6.034  37.418   6.198
 5493POPC   C2B69044   6.062  37.560   6.593
 5493POPC   C3B69045   6.117  37.446   6.993
 5493POPC   C4B69046   6.205  37.689   7.326
 5494POPC   NC369047  24.491  19.410   5.543
 5494POPC   PO469048  24.959  19.910   5.491
 5494POPC   GL169049  24.663  19.829   5.872
 5494POPC   GL269050  24.331  19.848   5.867
 5494POPC   C1A69051  24.659  19.634   6.305
 5494POPC   D2A69052  24.709  19.642   6.765
 5494POPC   C3A69053  24.847  20.062   6.869
 5494POPC   C4A69054  24.784  20.307   7.237
 5494POPC   C1B69055  24.060  19.797   6.206
 5494POPC   C2B69056  23.996  19.648   6.607
 5494POPC   C3B69057  24.075  19.790   6.999
 5494POPC   C4B69058  24.130  19.896   7.426
 5495POPC   NC369059  20.387  42.428   5.583
 5495POPC   PO469060  20.981  42.215   5.569
 5495POPC   GL169061  20.862  42.339   5.936
 5495POPC   GL269062  20.765  42.633   5.846
 5495POPC   C1A69063  20.526  42.407   6.255
 5495POPC   D2A69064  20.237  42.360   6.589
 5495POPC   C3A69065  20.458  42.310   6.960
 5495POPC   C4A69066  20.332  42.144   7.343
 5495POPC   C1B69067  20.860  42.794   6.213
 5495POPC   C2B69068  20.824  42.650   6.615
 5495POPC   C3B69069  20.897  42.729   7.025
 5495POPC   C4B69070  20.707  42.518   7.361
 5496POPC   NC369071   9.819  39.922   5.536
 5496POPC   PO469072   9.749  39.397   5.113
 5496POPC   GL169073   9.769  39.242   5.566
 5496POPC   GL269074   9.461  39.132   5.706
 5496POPC   C1A69075   9.746  39.357   6.046
 5496POPC   D2A69076   9.648  39.586   6.453
 5496POPC   C3A69077   9.752  39.361   6.850
 5496POPC   C4A69078   9.597  39.313   7.261
 5496POPC   C1B69079   9.419  38.949   6.111
 5496POPC   C2B69080   9.547  39.072   6.486
 5496POPC   C3B69081   9.352  39.044   6.895
 5496POPC   C4B69082   9.437  38.829   7.282
 5497POPC   NC369083   2.975  36.253   5.374
 5497POPC   PO469084   2.373  36.552   5.464
 5497POPC   GL169085   2.625  36.285   5.761
 5497POPC   GL269086   2.941  36.453   5.887
 5497POPC   C1A69087   2.789  36.039   6.120
 5497POPC   D2A69088   2.923  36.034   6.538
 5497POPC   C3A69089   2.745  36.033   6.959
 5497POPC   C4A69090   2.633  35.675   7.224
 5497POPC   C1B69091   2.984  36.532   6.354
 5497POPC   C2B69092   3.012  36.465   6.815
 5497POPC   C3B69093   2.828  36.559   7.212
 5497POPC   C4B69094   2.897  36.407   7.636
 5498POPC   NC369095   3.068  23.043   5.433
 5498POPC   PO469096   2.644  23.432   5.388
 5498POPC   GL169097   2.615  23.110   5.732
 5498POPC   GL269098   2.884  22.854   5.874
 5498POPC   C1A69099   2.695  23.225   6.191
 5498POPC   D2A69100   2.522  23.108   6.594
 5498POPC   C3A69101   2.732  23.166   6.971
 5498POPC   C4A69102   2.703  22.919   7.335
 5498POPC   C1B69103   2.741  22.711   6.299
 5498POPC   C2B69104   2.899  22.691   6.732
 5498POPC   C3B69105   2.825  22.469   7.145
 5498POPC   C4B69106   2.451  22.490   7.467
 5499POPC   NC369107  40.647  33.225   5.359
 5499POPC   PO469108  40.778  33.910   5.241
 5499POPC   GL169109  40.848  33.902   5.718
 5499POPC   GL269110  40.607  33.710   5.919
 5499POPC   C1A69111  40.929  34.016   6.169
 5499POPC   D2A69112  40.746  33.914   6.581
 5499POPC   C3A69113  41.031  33.806   6.898
 5499POPC   C4A69114  40.961  33.625   7.273
 5499POPC   C1B69115  40.704  33.437   6.271
 5499POPC   C2B69116  40.747  33.399   6.717
 5499POPC   C3B69117  40.538  33.608   7.013
 5499POPC   C4B69118  40.413  33.486   7.415
 5500POPC   NC369119  14.844  11.253   5.510
 5500POPC   PO469120  15.518  11.061   5.522
 5500POPC   GL169121  15.451  11.374   5.822
 5500POPC   GL269122  15.189  11.148   5.917
 5500POPC   C1A69123  15.572  11.398   6.266
 5500POPC   D2A69124  15.448  11.272   6.698
 5500POPC   C3A69125  15.549  11.597   7.003
 5500POPC   C4A69126  15.206  11.611   7.304
 5500POPC   C1B69127  15.073  11.306   6.304
 5500POPC   C2B69128  14.918  11.106   6.649
 5500POPC   C3B69129  14.986  11.249   7.029
 5500POPC   C4B69130  14.854  11.047   7.397
 5501POPC   NC369131  23.447   2.201   5.211
 5501POPC   PO469132  23.898   1.656   5.377
 5501POPC   GL169133  23.602   1.712   5.787
 5501POPC   GL269134  23.447   2.050   5.851
 5501POPC   C1A69135  23.618   1.792   6.262
 5501POPC   D2A69136  23.466   1.921   6.695
 5501POPC   C3A69137  23.766   1.726   6.986
 5501POPC   C4A69138  24.113   1.892   7.199
 5501POPC   C1B69139  23.532   2.301   6.242
 5501POPC   C2B69140  23.625   2.397   6.679
 5501POPC   C3B69141  23.705   2.230   7.069
 5501POPC   C4B69142  23.860   2.341   7.428
 5502POPC   NC369143  25.921  18.535   5.362
 5502POPC   PO469144  26.519  18.425   5.651
 5502POPC   GL169145  26.211  18.416   5.940
 5502POPC   GL269146  25.983  18.255   5.827
 5502POPC   C1A69147  26.020  18.525   6.341
 5502POPC   D2A69148  26.158  18.357   6.770
 5502POPC   C3A69149  26.086  18.455   7.232
 5502POPC   C4A69150  26.328  18.207   7.560
 5502POPC   C1B69151  25.902  18.025   6.210
 5502POPC   C2B69152  25.717  18.169   6.562
 5502POPC   C3B69153  25.692  18.028   6.952
 5502POPC   C4B69154  25.419  17.811   7.229
 5503POPC   NC369155  16.526   8.762   5.304
 5503POPC   PO469156  17.130   8.786   5.548
 5503POPC   GL169157  16.905   9.023   5.846
 5503POPC   GL269158  16.567   9.105   5.760
 5503POPC   C1A69159  16.951   9.140   6.276
 5503POPC   D2A69160  16.730   8.984   6.633
 5503POPC   C3A69161  16.830   9.107   7.049
 5503POPC   C4A69162  17.122   8.996   7.331
 5503POPC   C1B69163  16.429   9.033   6.210
 5503POPC   C2B69164  16.323   9.296   6.608
 5503POPC   C3B69165  16.310   9.184   7.065
 5503POPC   C4B69166  16.528   8.947   7.422
 5504POPC   NC369167  16.001  42.050   5.496
 5504POPC   PO469168  15.837  42.733   5.477
 5504POPC   GL169169  15.855  42.431   5.811
 5504POPC   GL269170  15.758  42.108   5.945
 5504POPC   C1A69171  16.105  42.386   6.182
 5504POPC   D2A69172  16.111  42.620   6.537
 5504POPC   C3A69173  16.052  42.356   6.883
 5504POPC   C4A69174  16.220  42.473   7.225
 5504POPC   C1B69175  16.063  41.868   6.210
 5504POPC   C2B69176  16.079  41.886   6.664
 5504POPC   C3B69177  16.277  41.898   7.065
 5504POPC   C4B69178  16.398  41.803   7.497
 5505POPC   NC369179  14.870  15.509   5.425
 5505POPC   PO469180  15.268  14.916   5.377
 5505POPC   GL169181  15.278  15.132   5.794
 5505POPC   GL269182  15.338  15.495   5.849
 5505POPC   C1A69183  15.269  15.110   6.236
 5505POPC   D2A69184  14.937  15.266   6.503
 5505POPC   C3A69185  14.998  15.220   6.956
 5505POPC   C4A69186  15.304  14.972   7.182
 5505POPC   C1B69187  15.276  15.626   6.291
 5505POPC   C2B69188  15.402  15.406   6.648
 5505POPC   C3B69189  15.583  15.340   7.003
 5505POPC   C4B69190  15.384  15.474   7.362
 5506POPC   NC369191  22.858  17.608   5.194
 5506POPC   PO469192  22.840  17.003   5.387
 5506POPC   GL169193  22.866  17.312   5.722
 5506POPC   GL269194  23.132  17.557   5.695
 5506POPC   C1A69195  23.045  17.248   6.166
 5506POPC   D2A69196  22.793  17.329   6.511
 5506POPC   C3A69197  22.967  17.424   6.916
 5506POPC   C4A69198  23.057  17.481   7.370
 5506POPC   C1B69199  22.885  17.703   6.082
 5506POPC   C2B69200  23.160  17.706   6.481
 5506POPC   C3B69201  23.193  17.873   6.922
 5506POPC   C4B69202  22.831  17.932   7.201
 5507POPC   NC369203   2.501   6.188   5.463
 5507POPC   PO469204   2.994   5.659   5.462
 5507POPC   GL169205   2.816   5.738   5.811
 5507POPC   GL269206   2.863   6.090   5.812
 5507POPC   C1A69207   2.790   5.529   6.191
 5507POPC   D2A69208   2.985   5.588   6.617
 5507POPC   C3A69209   2.952   5.990   6.806
 5507POPC   C4A69210   2.881   5.964   7.221
 5507POPC   C1B69211   2.515   6.031   6.113
 5507POPC   C2B69212   2.510   6.059   6.535
 5507POPC   C3B69213   2.492   6.226   6.931
 5507POPC   C4B69214   2.420   6.084   7.308
 5508POPC   NC369215  32.115  32.734   5.309
 5508POPC   PO469216  32.500  33.237   5.517
 5508POPC   GL169217  32.389  32.849   5.749
 5508POPC   GL269218  32.003  32.721   5.800
 5508POPC   C1A69219  32.259  32.967   6.164
 5508POPC   D2A69220  32.465  33.226   6.479
 5508POPC   C3A69221  32.260  33.232   6.868
 5508POPC   C4A69222  32.378  32.982   7.191
 5508POPC   C1B69223  32.013  32.513   6.202
 5508POPC   C2B69224  32.033  32.408   6.651
 5508POPC   C3B69225  32.007  32.689   7.002
 5508POPC   C4B69226  32.049  32.704   7.447
 5509POPC   NC369227  28.467   1.207   5.333
 5509POPC   PO469228  27.921   0.884   5.469
 5509POPC   GL169229  28.091   0.903   5.831
 5509POPC   GL269230  28.437   0.952   5.775
 5509POPC   C1A69231  28.116   1.072   6.211
 5509POPC   D2A69232  28.326   1.045   6.577
 5509POPC   C3A69233  28.313   1.328   6.921
 5509POPC   C4A69234  28.086   1.323   7.299
 5509POPC   C1B69235  28.629   1.159   6.107
 5509POPC   C2B69236  28.807   0.952   6.459
 5509POPC   C3B69237  28.742   1.031   6.896
 5509POPC   C4B69238  28.762   1.314   7.265
 5510POPC   NC369239  42.489  31.310   5.370
 5510POPC   PO469240  42.098  31.884   5.401
 5510POPC   GL169241  42.235  31.606   5.740
 5510POPC   GL269242  42.570  31.625   5.769
 5510POPC   C1A69243  42.262  31.685   6.207
 5510POPC   D2A69244  42.379  31.471   6.607
 5510POPC   C3A69245  42.317  31.762   6.952
 5510POPC   C4A69246  42.198  31.654   7.347
 5510POPC   C1B69247  42.710  31.440   6.181
 5510POPC   C2B69248  42.901  31.370   6.609
 5510POPC   C3B69249  42.781  31.548   6.984
 5510POPC   C4B69250  42.694  31.461   7.427
 5511POPC   NC369251  14.728  43.085   5.524
 5511POPC   PO469252  15.399  42.974   5.286
 5511POPC   GL169253  15.354  42.891   5.768
 5511POPC   GL269254  15.167  43.188   5.759
 5511POPC   C1A69255  15.135  42.847   6.238
 5511POPC   D2A69256  14.884  43.122   6.580
 5511POPC   C3A69257  15.127  43.186   6.958
 5511POPC   C4A69258  15.114  42.873   7.271
 5511POPC   C1B69259  15.092  43.335   6.158
 5511POPC   C2B69260  15.311  43.421   6.531
 5511POPC   C3B69261  15.548  43.606   6.851
 5511POPC   C4B69262  15.538  43.380   7.226
 5512POPC   NC369263   5.004  17.139   5.446
 5512POPC   PO469264   5.311  17.755   5.433
 5512POPC   GL169265   5.246  17.675   5.886
 5512POPC   GL269266   5.100  17.370   5.901
 5512POPC   C1A69267   5.146  17.679   6.346
 5512POPC   D2A69268   5.060  17.484   6.744
 5512POPC   C3A69269   5.047  17.750   7.083
 5512POPC   C4A69270   4.963  17.724   7.518
 5512POPC   C1B69271   5.238  17.169   6.264
 5512POPC   C2B69272   5.474  17.218   6.625
 5512POPC   C3B69273   5.353  17.082   7.020
 5512POPC   C4B69274   5.044  17.278   7.291
 5513POPC   NC369275   7.158  13.451   5.467
 5513POPC   PO469276   7.508  14.028   5.424
 5513POPC   GL169277   7.236  13.953   5.762
 5513POPC   GL269278   7.415  13.694   5.837
 5513POPC   C1A69279   7.087  13.858   6.186
 5513POPC   D2A69280   7.177  14.030   6.584
 5513POPC   C3A69281   7.073  13.811   6.982
 5513POPC   C4A69282   7.239  13.526   7.291
 5513POPC   C1B69283   7.425  13.484   6.239
 5513POPC   C2B69284   7.348  13.530   6.641
 5513POPC   C3B69285   7.628  13.515   6.943
 5513POPC   C4B69286   7.683  13.217   7.232
 5514POPC   NC369287  11.446  28.491   5.302
 5514POPC   PO469288  11.232  27.910   5.301
 5514POPC   GL169289  11.350  28.120   5.722
 5514POPC   GL269290  11.658  27.987   5.902
 5514POPC   C1A69291  11.234  28.070   6.182
 5514POPC   D2A69292  11.416  28.119   6.609
 5514POPC   C3A69293  11.267  28.395   6.923
 5514POPC   C4A69294  11.194  28.264   7.318
 5514POPC   C1B69295  11.629  28.408   6.126
 5514POPC   C2B69296  11.812  28.636   6.484
 5514POPC   C3B69297  11.778  28.521   6.931
 5514POPC   C4B69298  11.515  28.689   7.281
 5515POPC   NC369299  25.189   3.923   5.637
 5515POPC   PO469300  25.345   3.308   5.388
 5515POPC   GL169301  25.330   3.343   5.795
 5515POPC   GL269302  25.026   3.281   5.940
 5515POPC   C1A69303  25.564   3.431   6.152
 5515POPC   D2A69304  25.455   3.733   6.463
 5515POPC   C3A69305  25.330   3.588   6.864
 5515POPC   C4A69306  25.451   3.798   7.210
 5515POPC   C1B69307  25.100   3.356   6.385
 5515POPC   C2B69308  24.905   3.711   6.614
 5515POPC   C3B69309  24.939   3.897   7.037
 5515POPC   C4B69310  25.019   3.693   7.463
 5516POPC   NC369311  19.601  27.284   5.404
 5516POPC   PO469312  19.826  28.005   5.397
 5516POPC   GL169313  19.853  27.831   5.801
 5516POPC   GL269314  19.541  27.622   5.818
 5516POPC   C1A69315  19.983  27.664   6.217
 5516POPC   D2A69316  19.890  27.493   6.654
 5516POPC   C3A69317  20.153  27.588   7.016
 5516POPC   C4A69318  20.168  27.729   7.451
 5516POPC   C1B69319  19.329  27.494   6.191
 5516POPC   C2B69320  19.347  27.345   6.623
 5516POPC   C3B69321  19.503  27.364   7.045
 5516POPC   C4B69322  19.833  27.346   7.353
 5517POPC   NC369323  14.065  12.646   5.493
 5517POPC   PO469324  14.537  13.109   5.415
 5517POPC   GL169325  14.545  12.928   5.843
 5517POPC   GL269326  14.318  12.646   5.940
 5517POPC   C1A69327  14.367  12.998   6.279
 5517POPC   D2A69328  14.025  13.011   6.587
 5517POPC   C3A69329  14.198  13.215   6.958
 5517POPC   C4A69330  14.628  13.145   7.110
 5517POPC   C1B69331  14.040  12.434   6.267
 5517POPC   C2B69332  13.870  12.429   6.701
 5517POPC   C3B69333  14.013  12.727   7.042
 5517POPC   C4B69334  14.193  12.969   7.403
 5518POPC   NC369335  36.195  28.332   5.253
 5518POPC   PO469336  35.715  28.725   5.555
 5518POPC   GL169337  36.001  28.411   5.801
 5518POPC   GL269338  36.235  28.648   5.876
 5518POPC   C1A69339  36.335  28.218   6.145
 5518POPC   D2A69340  36.598  28.222   6.532
 5518POPC   C3A69341  36.388  28.184   6.950
 5518POPC   C4A69342  35.921  28.328   7.009
 5518POPC   C1B69343  36.041  28.590   6.300
 5518POPC   C2B69344  36.263  28.590   6.677
 5518POPC   C3B69345  36.190  28.783   7.053
 5518POPC   C4B69346  35.764  28.983   7.083
 5519POPC   NC369347  36.911  44.545   5.224
 5519POPC   PO469348  36.902  43.825   5.147
 5519POPC   GL169349  37.074  43.628   5.630
 5519POPC   GL269350  37.094  43.915   5.783
 5519POPC   C1A69351  37.142  43.524   6.104
 5519POPC   D2A69352  37.343  43.664   6.511
 5519POPC   C3A69353  37.138  43.607   6.917
 5519POPC   C4A69354  36.974  43.714   7.307
 5519POPC   C1B69355  37.196  44.044   6.200
 5519POPC   C2B69356  36.919  43.959   6.558
 5519POPC   C3B69357  36.873  44.087   6.974
 5519POPC   C4B69358  37.182  44.191   7.280
 5520POPC   NC369359  13.098  26.707   5.539
 5520POPC   PO469360  12.845  27.200   5.161
 5520POPC   GL169361  12.719  26.995   5.674
 5520POPC   GL269362  12.949  26.995   5.975
 5520POPC   C1A69363  12.492  26.821   6.089
 5520POPC   D2A69364  12.573  26.942   6.515
 5520POPC   C3A69365  12.714  26.702   6.861
 5520POPC   C4A69366  12.824  26.869   7.289
 5520POPC   C1B69367  13.132  26.932   6.401
 5520POPC   C2B69368  13.188  26.588   6.705
 5520POPC   C3B69369  13.244  26.698   7.097
 5520POPC   C4B69370  13.200  27.179   7.162
 5521POPC   NC369371  42.092  15.480   5.168
 5521POPC   PO469372  42.329  16.150   5.292
 5521POPC   GL169373  42.433  15.953   5.704
 5521POPC   GL269374  42.544  16.277   5.796
 5521POPC   C1A69375  42.331  15.760   6.148
 5521POPC   D2A69376  42.494  15.762   6.634
 5521POPC   C3A69377  42.257  15.710   7.002
 5521POPC   C4A69378  42.035  15.980   7.252
 5521POPC   C1B69379  42.241  16.312   6.066
 5521POPC   C2B69380  42.339  16.193   6.456
 5521POPC   C3B69381  42.294  16.221   6.888
 5521POPC   C4B69382  42.245  16.461   7.255
 5522POPC   NC369383  13.052  13.765   5.107
 5522POPC   PO469384  12.529  13.504   5.374
 5522POPC   GL169385  12.712  13.697   5.768
 5522POPC   GL269386  13.083  13.645   5.809
 5522POPC   C1A69387  12.797  13.830   6.222
 5522POPC   D2A69388  12.743  13.607   6.632
 5522POPC   C3A69389  12.822  13.786   7.048
 5522POPC   C4A69390  12.527  14.091   7.139
 5522POPC   C1B69391  12.983  13.342   6.185
 5522POPC   C2B69392  13.027  13.186   6.616
 5522POPC   C3B69393  12.932  13.280   7.034
 5522POPC   C4B69394  13.023  13.486   7.447
 5523POPC   NC369395  24.300  30.347   5.344
 5523POPC   PO469396  24.751  30.792   5.495
 5523POPC   GL169397  24.485  30.758   5.796
 5523POPC   GL269398  24.498  30.375   5.807
 5523POPC   C1A69399  24.465  31.006   6.176
 5523POPC   D2A69400  24.696  30.873   6.525
 5523POPC   C3A69401  24.478  30.971   6.874
 5523POPC   C4A69402  24.416  30.899   7.293
 5523POPC   C1B69403  24.554  30.489   6.219
 5523POPC   C2B69404  24.339  30.487   6.596
 5523POPC   C3B69405  24.448  30.465   7.011
 5523POPC   C4B69406  24.574  30.394   7.445
 5524POPC   NC369407  44.299  42.771   5.362
 5524POPC   PO469408  44.837  42.375   5.415
 5524POPC   GL169409  44.689  42.392   5.853
 5524POPC   GL269410  44.402  42.640   5.919
 5524POPC   C1A69411  44.655  42.396   6.326
 5524POPC   D2A69412  44.398  42.485   6.672
 5524POPC   C3A69413  44.672  42.262   6.962
 5524POPC   C4A69414  44.866  42.203   7.374
 5524POPC   C1B69415  44.237  42.222   6.115
 5524POPC   C2B69416  44.300  42.006   6.545
 5524POPC   C3B69417  44.195  42.128   6.995
 5524POPC   C4B69418  44.392  42.001   7.389
 5525POPC   NC369419  13.478  26.953   5.256
 5525POPC   PO469420  13.893  26.444   5.622
 5525POPC   GL169421  13.548  26.727   5.800
 5525POPC   GL269422  13.277  26.602   6.022
 5525POPC   C1A69423  13.579  27.047   6.111
 5525POPC   D2A69424  13.815  27.021   6.475
 5525POPC   C3A69425  13.561  26.948   6.792
 5525POPC   C4A69426  13.659  26.959   7.209
 5525POPC   C1B69427  13.571  26.589   6.359
 5525POPC   C2B69428  13.855  26.535   6.707
 5525POPC   C3B69429  13.973  26.557   7.129
 5525POPC   C4B69430  13.663  26.532   7.485
 5526POPC   NC369431  21.202  27.407   5.419
 5526POPC   PO469432  21.829  27.898   5.339
 5526POPC   GL169433  21.440  27.800   5.670
 5526POPC   GL269434  21.385  27.478   5.865
 5526POPC   C1A69435  21.205  27.876   6.101
 5526POPC   D2A69436  21.373  27.831   6.565
 5526POPC   C3A69437  21.112  27.773   6.969
 5526POPC   C4A69438  21.357  27.785   7.351
 5526POPC   C1B69439  21.628  27.547   6.219
 5526POPC   C2B69440  21.769  27.456   6.641
 5526POPC   C3B69441  21.507  27.410   7.036
 5526POPC   C4B69442  21.470  27.170   7.432
 5527POPC   NC369443  11.428   5.511   5.334
 5527POPC   PO469444  11.094   4.867   5.401
 5527POPC   GL169445  11.323   5.035   5.725
 5527POPC   GL269446  11.088   5.308   5.681
 5527POPC   C1A69447  11.327   4.881   6.166
 5527POPC   D2A69448  11.448   4.893   6.611
 5527POPC   C3A69449  11.193   5.034   7.004
 5527POPC   C4A69450  11.340   4.916   7.434
 5527POPC   C1B69451  10.992   5.257   6.076
 5527POPC   C2B69452  10.989   5.149   6.511
 5527POPC   C3B69453  10.913   5.454   6.811
 5527POPC   C4B69454  11.044   5.485   7.240
 5528POPC   NC369455  13.326   9.283   5.601
 5528POPC   PO469456  13.738   8.795   5.337
 5528POPC   GL169457  13.765   9.051   5.749
 5528POPC   GL269458  13.692   8.831   6.000
 5528POPC   C1A69459  13.727   9.281   6.230
 5528POPC   D2A69460  13.581   9.334   6.714
 5528POPC   C3A69461  13.812   9.173   7.128
 5528POPC   C4A69462  14.016   9.243   7.565
 5528POPC   C1B69463  13.427   8.699   6.356
 5528POPC   C2B69464  13.232   8.602   6.753
 5528POPC   C3B69465  13.362   8.726   7.186
 5528POPC   C4B69466  13.319   8.597   7.642
 5529POPC   NC369467   6.979  30.356   5.401
 5529POPC   PO469468   6.739  29.773   5.299
 5529POPC   GL169469   6.599  29.907   5.720
 5529POPC   GL269470   6.736  30.203   5.855
 5529POPC   C1A69471   6.738  29.751   6.150
 5529POPC   D2A69472   6.572  29.810   6.553
 5529POPC   C3A69473   6.815  29.807   6.900
 5529POPC   C4A69474   6.592  29.718   7.242
 5529POPC   C1B69475   6.612  30.259   6.261
 5529POPC   C2B69476   6.459  30.384   6.635
 5529POPC   C3B69477   6.463  30.162   6.998
 5529POPC   C4B69478   6.806  30.165   7.291
 5530POPC   NC369479  43.161  19.348   5.450
 5530POPC   PO469480  42.972  18.702   5.460
 5530POPC   GL169481  43.105  18.794   5.861
 5530POPC   GL269482  43.431  18.944   5.781
 5530POPC   C1A69483  42.960  18.970   6.263
 5530POPC   D2A69484  42.810  19.337   6.535
 5530POPC   C3A69485  42.877  19.298   7.000
 5530POPC   C4A69486  43.294  19.238   7.140
 5530POPC   C1B69487  43.466  19.061   6.227
 5530POPC   C2B69488  43.269  19.007   6.659
 5530POPC   C3B69489  43.259  18.745   7.030
 5530POPC   C4B69490  43.519  18.845   7.391
 5531POPC   NC369491   7.617  12.653   5.343
 5531POPC   PO469492   7.530  13.251   5.656
 5531POPC   GL169493   7.355  12.989   5.933
 5531POPC   GL269494   7.271  12.697   5.733
 5531POPC   C1A69495   7.385  12.958   6.377
 5531POPC   D2A69496   7.534  12.923   6.792
 5531POPC   C3A69497   7.239  13.044   7.091
 5531POPC   C4A69498   7.309  13.091   7.564
 5531POPC   C1B69499   7.328  12.492   6.120
 5531POPC   C2B69500   7.161  12.496   6.523
 5531POPC   C3B69501   6.982  12.586   6.893
 5531POPC   C4B69502   7.217  12.555   7.250
 5532POPC   NC369503  23.392  14.855   5.562
 5532POPC   PO469504  24.019  14.923   5.257
 5532POPC   GL169505  24.077  15.066   5.722
 5532POPC   GL269506  23.753  15.180   5.832
 5532POPC   C1A69507  24.155  15.091   6.181
 5532POPC   D2A69508  23.865  15.255   6.483
 5532POPC   C3A69509  23.820  15.156   6.908
 5532POPC   C4A69510  23.445  15.229   7.162
 5532POPC   C1B69511  23.558  14.940   6.180
 5532POPC   C2B69512  23.382  14.678   6.500
 5532POPC   C3B69513  23.475  14.760   6.922
 5532POPC   C4B69514  23.645  14.793   7.328
 5533POPC   NC369515   4.922  12.118   5.382
 5533POPC   PO469516   5.565  12.257   5.469
 5533POPC   GL169517   5.283  12.305   5.837
 5533POPC   GL269518   4.906  12.328   5.827
 5533POPC   C1A69519   5.333  12.279   6.283
 5533POPC   D2A69520   5.169  12.472   6.678
 5533POPC   C3A69521   5.312  12.263   7.045
 5533POPC   C4A69522   5.348  11.889   7.315
 5533POPC   C1B69523   4.850  12.267   6.215
 5533POPC   C2B69524   4.719  12.156   6.572
 5533POPC   C3B69525   4.759  12.255   6.943
 5533POPC   C4B69526   4.886  12.069   7.281
 5534POPC   NC369527  13.753   3.934   5.442
 5534POPC   PO469528  13.324   4.322   5.430
 5534POPC   GL169529  13.468   4.194   5.831
 5534POPC   GL269530  13.313   3.887   5.839
 5534POPC   C1A69531  13.575   4.331   6.275
 5534POPC   D2A69532  13.553   4.656   6.628
 5534POPC   C3A69533  13.669   4.537   7.026
 5534POPC   C4A69534  13.279   4.384   7.124
 5534POPC   C1B69535  13.629   3.829   6.156
 5534POPC   C2B69536  13.646   3.865   6.605
 5534POPC   C3B69537  13.734   4.020   7.055
 5534POPC   C4B69538  13.573   4.174   7.468
 5535POPC   NC369539  21.646   0.133   5.674
 5535POPC   PO469540  21.748  44.560   5.318
 5535POPC   GL169541  21.486  44.638   5.722
 5535POPC   GL269542  21.298  44.338   5.858
 5535POPC   C1A69543  21.397  44.740   6.177
 5535POPC   D2A69544  21.316  44.428   6.536
 5535POPC   C3A69545  21.260  44.609   6.940
 5535POPC   C4A69546  21.158  44.959   7.184
 5535POPC   C1B69547  21.678  44.338   6.160
 5535POPC   C2B69548  21.824  44.474   6.583
 5535POPC   C3B69549  21.743  44.447   7.036
 5535POPC   C4B69550  21.673  44.226   7.438
 5536POPC   NC369551  14.936  16.260   5.469
 5536POPC   PO469552  15.358  15.695   5.375
 5536POPC   GL169553  15.340  16.030   5.723
 5536POPC   GL269554  15.045  15.943   5.858
 5536POPC   C1A69555  15.355  16.254   6.149
 5536POPC   D2A69556  15.253  16.081   6.560
 5536POPC   C3A69557  15.322  16.253   6.975
 5536POPC   C4A69558  15.239  16.008   7.351
 5536POPC   C1B69559  14.813  15.755   6.152
 5536POPC   C2B69560  14.823  15.775   6.585
 5536POPC   C3B69561  15.096  15.733   6.926
 5536POPC   C4B69562  14.897  15.641   7.294
 5537POPC   NC369563  13.253  12.254   5.612
 5537POPC   PO469564  13.640  12.857   5.506
 5537POPC   GL169565  13.560  12.698   5.902
 5537POPC   GL269566  13.857  12.874   5.999
 5537POPC   C1A69567  13.571  12.687   6.371
 5537POPC   D2A69568  13.320  12.556   6.711
 5537POPC   C3A69569  13.504  12.673   7.102
 5537POPC   C4A69570  13.349  12.619   7.507
 5537POPC   C1B69571  13.485  13.144   6.179
 5537POPC   C2B69572  13.531  13.167   6.615
 5537POPC   C3B69573  13.694  13.157   7.018
 5537POPC   C4B69574  13.363  13.135   7.268
 5538POPC   NC369575  38.154  26.813   5.052
 5538POPC   PO469576  38.502  27.046   5.603
 5538POPC   GL169577  38.400  26.681   5.900
 5538POPC   GL269578  38.085  26.510   5.887
 5538POPC   C1A69579  38.535  26.668   6.309
 5538POPC   D2A69580  38.709  26.968   6.606
 5538POPC   C3A69581  38.641  26.789   6.997
 5538POPC   C4A69582  38.456  26.957   7.335
 5538POPC   C1B69583  38.006  26.631   6.311
 5538POPC   C2B69584  38.221  26.637   6.722
 5538POPC   C3B69585  38.080  26.687   7.131
 5538POPC   C4B69586  37.977  26.694   7.565
 5539POPC   NC369587  18.777  41.863   5.498
 5539POPC   PO469588  19.349  41.533   5.642
 5539POPC   GL169589  19.173  41.756   5.954
 5539POPC   GL269590  18.841  41.648   5.947
 5539POPC   C1A69591  19.042  41.740   6.404
 5539POPC   D2A69592  18.870  41.826   6.814
 5539POPC   C3A69593  19.197  41.706   7.118
 5539POPC   C4A69594  19.367  41.321   7.082
 5539POPC   C1B69595  18.749  41.327   6.249
 5539POPC   C2B69596  18.596  41.341   6.674
 5539POPC   C3B69597  18.826  41.357   7.063
 5539POPC   C4B69598  19.000  41.040   7.322
 5540POPC   NC369599  21.267  31.741   5.352
 5540POPC   PO469600  21.607  31.197   5.355
 5540POPC   GL169601  21.396  31.370   5.753
 5540POPC   GL269602  21.134  31.616   5.820
 5540POPC   C1A69603  21.517  31.568   6.176
 5540POPC   D2A69604  21.383  31.662   6.605
 5540POPC   C3A69605  21.591  31.531   6.976
 5540POPC   C4A69606  21.466  31.149   7.127
 5540POPC   C1B69607  21.027  31.520   6.236
 5540POPC   C2B69608  20.876  31.726   6.593
 5540POPC   C3B69609  21.021  31.486   6.965
 5540POPC   C4B69610  21.122  31.447   7.392
 5541POPC   NC369611  29.481  37.033   5.427
 5541POPC   PO469612  28.804  37.006   5.462
 5541POPC   GL169613  29.083  37.057   5.771
 5541POPC   GL269614  29.206  36.712   5.743
 5541POPC   C1A69615  29.220  37.091   6.184
 5541POPC   D2A69616  29.285  36.769   6.488
 5541POPC   C3A69617  29.400  36.897   6.886
 5541POPC   C4A69618  29.298  36.651   7.189
 5541POPC   C1B69619  28.923  36.632   6.079
 5541POPC   C2B69620  28.773  36.846   6.445
 5541POPC   C3B69621  28.882  36.829   6.883
 5541POPC   C4B69622  28.812  36.781   7.319
 5542POPC   NC369623   0.930  40.669   5.512
 5542POPC   PO469624   1.463  40.993   5.262
 5542POPC   GL169625   1.330  40.981   5.710
 5542POPC   GL269626   1.026  41.153   5.723
 5542POPC   C1A69627   1.217  40.767   6.123
 5542POPC   D2A69628   0.972  40.771   6.519
 5542POPC   C3A69629   1.111  40.478   6.875
 5542POPC   C4A69630   1.028  40.586   7.288
 5542POPC   C1B69631   1.005  41.227   6.164
 5542POPC   C2B69632   0.949  41.267   6.637
 5542POPC   C3B69633   1.141  40.986   6.971
 5542POPC   C4B69634   1.503  40.862   7.183
 5543POPC   NC369635   0.597   6.302   5.034
 5543POPC   PO469636   0.412   6.801   5.535
 5543POPC   GL169637   0.364   6.603   5.879
 5543POPC   GL269638   0.182   6.849   6.031
 5543POPC   C1A69639   0.318   6.343   6.222
 5543POPC   D2A69640   0.535   6.337   6.586
 5543POPC   C3A69641   0.331   6.591   6.900
 5543POPC   C4A69642   0.068   6.444   7.241
 5543POPC   C1B69643   0.552   6.936   6.283
 5543POPC   C2B69644   0.790   6.792   6.657
 5543POPC   C3B69645   0.755   6.876   7.098
 5543POPC   C4B69646   0.774   6.835   7.593
 5544POPC   NC369647  34.989  22.943   5.583
 5544POPC   PO469648  35.492  23.417   5.422
 5544POPC   GL169649  35.407  23.159   5.785
 5544POPC   GL269650  35.676  22.907   5.806
 5544POPC   C1A69651  35.291  22.917   6.164
 5544POPC   D2A69652  35.290  22.876   6.590
 5544POPC   C3A69653  35.507  23.146   6.869
 5544POPC   C4A69654  35.267  23.105   7.248
 5544POPC   C1B69655  35.787  22.708   6.211
 5544POPC   C2B69656  35.726  22.593   6.657
 5544POPC   C3B69657  35.455  22.658   7.019
 5544POPC   C4B69658  35.336  22.615   7.437
 5545POPC   NC369659   5.299  25.970   5.605
 5545POPC   PO469660   4.604  26.261   5.419
 5545POPC   GL169661   4.867  26.207   5.797
 5545POPC   GL269662   5.182  26.418   5.806
 5545POPC   C1A69663   4.782  25.989   6.212
 5545POPC   D2A69664   4.885  26.230   6.577
 5545POPC   C3A69665   4.998  26.054   7.006
 5545POPC   C4A69666   5.045  26.134   7.462
 5545POPC   C1B69667   5.348  26.252   6.217
 5545POPC   C2B69668   5.372  26.335   6.681
 5545POPC   C3B69669   5.450  26.281   7.125
 5545POPC   C4B69670   5.462  25.859   7.292
 5546POPC   NC369671  31.831   4.548   5.551
 5546POPC   PO469672  31.206   4.312   5.349
 5546POPC   GL169673  31.464   4.222   5.704
 5546POPC   GL269674  31.456   4.528   5.908
 5546POPC   C1A69675  31.412   4.044   6.127
 5546POPC   D2A69676  31.161   4.121   6.511
 5546POPC   C3A69677  31.337   4.025   6.923
 5546POPC   C4A69678  31.218   4.191   7.309
 5546POPC   C1B69679  31.792   4.393   6.242
 5546POPC   C2B69680  31.752   4.386   6.711
 5546POPC   C3B69681  31.645   4.405   7.127
 5546POPC   C4B69682  31.391   4.643   7.417
 5547POPC   NC369683  41.724  42.274   4.935
 5547POPC   PO469684  41.228  42.312   5.436
 5547POPC   GL169685  41.544  42.362   5.748
 5547POPC   GL269686  41.384  42.667   5.816
 5547POPC   C1A69687  41.745  42.411   6.168
 5547POPC   D2A69688  41.803  42.584   6.599
 5547POPC   C3A69689  41.740  42.282   6.969
 5547POPC   C4A69690  41.559  41.991   7.304
 5547POPC   C1B69691  41.232  42.428   6.175
 5547POPC   C2B69692  41.335  42.401   6.605
 5547POPC   C3B69693  41.231  42.244   7.008
 5547POPC   C4B69694  41.311  42.431   7.425
 5548POPC   NC369695  14.202  24.605   5.432
 5548POPC   PO469696  14.741  24.297   5.255
 5548POPC   GL169697  14.604  24.294   5.712
 5548POPC   GL269698  14.374  24.523   5.912
 5548POPC   C1A69699  14.612  24.148   6.148
 5548POPC   D2A69700  14.408  24.333   6.513
 5548POPC   C3A69701  14.423  24.538   6.945
 5548POPC   C4A69702  14.110  24.543   7.306
 5548POPC   C1B69703  14.304  24.836   6.248
 5548POPC   C2B69704  14.391  25.082   6.632
 5548POPC   C3B69705  14.630  25.031   7.012
 5548POPC   C4B69706  14.442  24.896   7.397
 5549POPC   NC369707  42.691  20.252   5.543
 5549POPC   PO469708  43.131  19.851   5.133
 5549POPC   GL169709  42.982  19.812   5.628
 5549POPC   GL269710  43.056  20.082   5.875
 5549POPC   C1A69711  42.817  19.697   6.111
 5549POPC   D2A69712  42.995  19.873   6.492
 5549POPC   C3A69713  43.069  19.794   6.948
 5549POPC   C4A69714  43.141  20.082   7.341
 5549POPC   C1B69715  43.319  19.726   6.057
 5549POPC   C2B69716  43.353  19.502   6.462
 5549POPC   C3B69717  43.540  19.577   6.847
 5549POPC   C4B69718  43.456  19.697   7.273
 5550POPC   NC369719  18.071   2.456   5.449
 5550POPC   PO469720  18.607   2.855   5.394
 5550POPC   GL169721  18.344   2.815   5.747
 5550POPC   GL269722  18.185   3.143   5.794
 5550POPC   C1A69723  18.176   2.743   6.177
 5550POPC   D2A69724  18.154   2.577   6.607
 5550POPC   C3A69725  18.523   2.625   6.859
 5550POPC   C4A69726  18.572   2.515   7.269
 5550POPC   C1B69727  18.517   3.148   6.111
 5550POPC   C2B69728  18.439   3.038   6.524
 5550POPC   C3B69729  18.220   3.037   6.886
 5550POPC   C4B69730  18.490   3.049   7.209
 5551POPC   NC369731  43.671   5.527   5.218
 5551POPC   PO469732  44.367   5.649   5.352
 5551POPC   GL169733  44.052   5.597   5.690
 5551POPC   GL269734  43.743   5.786   5.703
 5551POPC   C1A69735  43.934   5.661   6.148
 5551POPC   D2A69736  44.092   5.827   6.528
 5551POPC   C3A69737  43.814   5.730   6.856
 5551POPC   C4A69738  43.985   5.806   7.243
 5551POPC   C1B69739  43.565   6.034   6.085
 5551POPC   C2B69740  43.716   6.164   6.518
 5551POPC   C3B69741  43.486   6.128   6.892
 5551POPC   C4B69742  43.491   5.829   7.254
 5552POPC   NC369743  37.514  23.321   5.620
 5552POPC   PO469744  37.666  22.679   5.590
 5552POPC   GL169745  37.758  22.926   5.950
 5552POPC   GL269746  37.483  23.108   6.069
 5552POPC   C1A69747  37.857  22.982   6.385
 5552POPC   D2A69748  37.551  22.991   6.671
 5552POPC   C3A69749  37.612  23.046   7.101
 5552POPC   C4A69750  37.664  22.663   7.267
 5552POPC   C1B69751  37.338  23.453   6.256
 5552POPC   C2B69752  37.361  23.474   6.644
 5552POPC   C3B69753  37.141  23.180   6.897
 5552POPC   C4B69754  37.118  23.179   7.304
 5553POPC   NC369755   1.528   6.403   5.383
 5553POPC   PO469756   1.947   6.967   5.447
 5553POPC   GL169757   2.027   6.613   5.699
 5553POPC   GL269758   1.701   6.606   5.844
 5553POPC   C1A69759   2.164   6.440   6.121
 5553POPC   D2A69760   2.129   6.393   6.577
 5553POPC   C3A69761   2.234   6.684   6.859
 5553POPC   C4A69762   2.297   6.577   7.263
 5553POPC   C1B69763   1.645   6.354   6.237
 5553POPC   C2B69764   1.635   6.317   6.708
 5553POPC   C3B69765   1.758   6.560   7.093
 5553POPC   C4B69766   1.545   6.886   7.286
 5554POPC   NC369767   3.925  40.464   5.381
 5554POPC   PO469768   4.585  40.218   5.382
 5554POPC   GL169769   4.314  39.987   5.677
 5554POPC   GL269770   4.263  40.293   5.804
 5554POPC   C1A69771   4.182  39.900   6.119
 5554POPC   D2A69772   4.256  40.078   6.516
 5554POPC   C3A69773   4.109  39.932   6.924
 5554POPC   C4A69774   4.353  39.983   7.282
 5554POPC   C1B69775   4.162  40.476   6.165
 5554POPC   C2B69776   4.155  40.638   6.542
 5554POPC   C3B69777   4.174  40.426   6.904
 5554POPC   C4B69778   3.834  40.380   7.153
 5555POPC   NC369779  21.863  44.165   5.554
 5555POPC   PO469780  21.201  44.101   5.366
 5555POPC   GL169781  21.367  43.830   5.726
 5555POPC   GL269782  21.256  43.467   5.759
 5555POPC   C1A69783  21.493  43.868   6.172
 5555POPC   D2A69784  21.674  43.996   6.577
 5555POPC   C3A69785  21.419  44.070   6.936
 5555POPC   C4A69786  21.276  43.915   7.315
 5555POPC   C1B69787  21.243  43.430   6.192
 5555POPC   C2B69788  21.429  43.544   6.583
 5555POPC   C3B69789  21.543  43.546   7.026
 5555POPC   C4B69790  21.325  43.404   7.401
 5556POPC   NC369791  44.737   9.155   5.380
 5556POPC   PO469792  44.439   8.541   5.413
 5556POPC   GL169793  44.418   8.836   5.673
 5556POPC   GL269794  44.731   8.830   5.814
 5556POPC   C1A69795  44.353   8.900   6.116
 5556POPC   D2A69796  44.591   8.834   6.490
 5556POPC   C3A69797  44.479   8.814   6.903
 5556POPC   C4A69798  44.365   9.018   7.233
 5556POPC   C1B69799  44.849   9.101   6.135
 5556POPC   C2B69800  44.965   9.178   6.559
 5556POPC   C3B69801  44.894   9.090   6.989
 5556POPC   C4B69802  44.852   8.972   7.413
 5557POPC   NC369803  15.712  34.743   5.587
 5557POPC   PO469804  16.137  34.134   5.416
 5557POPC   GL169805  16.126  34.424   5.780
 5557POPC   GL269806  16.111  34.782   5.894
 5557POPC   C1A69807  16.329  34.408   6.191
 5557POPC   D2A69808  16.402  34.540   6.610
 5557POPC   C3A69809  16.330  34.443   7.048
 5557POPC   C4A69810  16.049  34.733   7.275
 5557POPC   C1B69811  15.921  34.697   6.306
 5557POPC   C2B69812  15.816  34.616   6.758
 5557POPC   C3B69813  15.552  34.618   7.150
 5557POPC   C4B69814  15.594  34.878   7.522
 5558POPC   NC369815  12.517  10.608   5.620
 5558POPC   PO469816  11.807  10.322   5.527
 5558POPC   GL169817  12.093  10.370   5.826
 5558POPC   GL269818  12.098  10.701   5.904
 5558POPC   C1A69819  12.132  10.277   6.265
 5558POPC   D2A69820  12.226  10.118   6.668
 5558POPC   C3A69821  12.195  10.399   6.974
 5558POPC   C4A69822  12.059  10.367   7.407
 5558POPC   C1B69823  11.840  10.719   6.287
 5558POPC   C2B69824  11.764  10.592   6.699
 5558POPC   C3B69825  11.820  10.711   7.095
 5558POPC   C4B69826  12.252  10.833   7.274
 5559POPC   NC369827  24.233   6.915   5.486
 5559POPC   PO469828  24.698   6.398   5.444
 5559POPC   GL169829  24.534   6.629   5.815
 5559POPC   GL269830  24.178   6.550   5.861
 5559POPC   C1A69831  24.578   6.878   6.203
 5559POPC   D2A69832  24.376   6.932   6.624
 5559POPC   C3A69833  24.522   6.745   6.987
 5559POPC   C4A69834  24.702   6.817   7.384
 5559POPC   C1B69835  24.167   6.590   6.305
 5559POPC   C2B69836  24.396   6.404   6.633
 5559POPC   C3B69837  24.293   6.275   7.033
 5559POPC   C4B69838  24.331   6.464   7.426
 5560POPC   NC369839   8.250  33.305   5.477
 5560POPC   PO469840   7.917  32.734   5.534
 5560POPC   GL169841   7.966  33.034   5.819
 5560POPC   GL269842   8.297  32.939   5.852
 5560POPC   C1A69843   8.006  33.130   6.253
 5560POPC   D2A69844   7.934  33.085   6.647
 5560POPC   C3A69845   7.994  32.774   6.897
 5560POPC   C4A69846   8.102  33.072   7.205
 5560POPC   C1B69847   8.478  33.238   6.134
 5560POPC   C2B69848   8.472  33.178   6.547
 5560POPC   C3B69849   8.479  32.967   6.886
 5560POPC   C4B69850   8.660  33.085   7.254
 5561POPC   NC369851  29.108  25.797   5.384
 5561POPC   PO469852  29.050  26.528   5.360
 5561POPC   GL169853  29.298  26.209   5.608
 5561POPC   GL269854  28.990  26.128   5.764
 5561POPC   C1A69855  29.378  25.980   6.055
 5561POPC   D2A69856  29.292  25.733   6.466
 5561POPC   C3A69857  29.551  25.786   6.875
 5561POPC   C4A69858  29.415  25.680   7.296
 5561POPC   C1B69859  28.734  26.238   6.102
 5561POPC   C2B69860  28.796  26.099   6.526
 5561POPC   C3B69861  29.052  25.951   6.890
 5561POPC   C4B69862  29.043  26.061   7.334
 5562POPC   NC369863   0.565   8.621   5.553
 5562POPC   PO469864   0.148   8.039   5.523
 5562POPC   GL169865   0.313   8.269   5.849
 5562POPC   GL269866   0.671   8.214   5.882
 5562POPC   C1A69867   0.325   8.361   6.278
 5562POPC   D2A69868   0.553   8.483   6.620
 5562POPC   C3A69869   0.383   8.350   6.997
 5562POPC   C4A69870   0.582   8.506   7.369
 5562POPC   C1B69871   0.613   7.951   6.250
 5562POPC   C2B69872   0.551   7.934   6.701
 5562POPC   C3B69873   0.713   7.976   7.116
 5562POPC   C4B69874   0.713   7.757   7.488
 5563POPC   NC369875   2.355  40.058   5.552
 5563POPC   PO469876   1.802  39.643   5.541
 5563POPC   GL169877   1.912  39.855   5.933
 5563POPC   GL269878   1.934  40.230   5.890
 5563POPC   C1A69879   1.938  39.908   6.401
 5563POPC   D2A69880   1.780  40.127   6.789
 5563POPC   C3A69881   1.872  39.896   7.179
 5563POPC   C4A69882   2.127  39.557   7.004
 5563POPC   C1B69883   2.239  40.326   6.230
 5563POPC   C2B69884   2.312  40.215   6.671
 5563POPC   C3B69885   2.183  40.249   7.088
 5563POPC   C4B69886   2.226  40.159   7.528
 5564POPC   NC369887  32.416   3.051   5.360
 5564POPC   PO469888  31.995   2.506   5.495
 5564POPC   GL169889  32.295   2.693   5.766
 5564POPC   GL269890  32.499   2.416   5.807
 5564POPC   C1A69891  32.384   2.910   6.163
 5564POPC   D2A69892  32.263   3.071   6.545
 5564POPC   C3A69893  32.325   2.958   6.947
 5564POPC   C4A69894  32.162   3.085   7.326
 5564POPC   C1B69895  32.410   2.418   6.242
 5564POPC   C2B69896  32.596   2.653   6.582
 5564POPC   C3B69897  32.515   2.482   6.967
 5564POPC   C4B69898  32.339   2.610   7.340
 5565POPC   NC369899  38.652  19.356   4.965
 5565POPC   PO469900  38.282  19.231   5.498
 5565POPC   GL169901  38.530  18.904   5.672
 5565POPC   GL269902  38.280  18.849   5.878
 5565POPC   C1A69903  38.724  18.776   6.093
 5565POPC   D2A69904  38.732  18.941   6.519
 5565POPC   C3A69905  38.564  18.737   6.896
 5565POPC   C4A69906  38.821  18.752   7.250
 5565POPC   C1B69907  38.478  19.223   6.145
 5565POPC   C2B69908  38.510  19.397   6.603
 5565POPC   C3B69909  38.495  19.223   7.057
 5565POPC   C4B69910  38.363  18.915   7.406
 5566POPC   NC369911   0.096  13.157   5.394
 5566POPC   PO469912   0.740  13.210   5.379
 5566POPC   GL169913   0.730  13.066   5.794
 5566POPC   GL269914   0.363  13.073   5.853
 5566POPC   C1A69915   0.821  12.863   6.230
 5566POPC   D2A69916   0.729  12.608   6.642
 5566POPC   C3A69917   0.671  12.791   7.069
 5566POPC   C4A69918   0.530  13.241   7.142
 5566POPC   C1B69919   0.306  12.903   6.306
 5566POPC   C2B69920   0.264  12.920   6.786
 5566POPC   C3B69921   0.167  12.894   7.254
 5566POPC   C4B69922   0.106  12.975   7.714
 5567POPC   NC369923  17.176  30.757   5.210
 5567POPC   PO469924  16.685  30.415   5.445
 5567POPC   GL169925  16.740  30.644   5.827
 5567POPC   GL269926  17.048  30.758   5.781
 5567POPC   C1A69927  16.539  30.782   6.213
 5567POPC   D2A69928  16.402  31.110   6.508
 5567POPC   C3A69929  16.544  30.983   6.915
 5567POPC   C4A69930  16.418  30.606   7.125
 5567POPC   C1B69931  17.111  30.797   6.218
 5567POPC   C2B69932  16.883  30.676   6.599
 5567POPC   C3B69933  16.980  30.630   7.028
 5567POPC   C4B69934  17.144  30.978   7.223
 5568POPC   NC369935  36.587  13.431   5.445
 5568POPC   PO469936  37.170  13.658   5.293
 5568POPC   GL169937  37.025  13.568   5.744
 5568POPC   GL269938  37.049  13.223   5.763
 5568POPC   C1A69939  36.743  13.770   6.096
 5568POPC   D2A69940  36.538  13.961   6.497
 5568POPC   C3A69941  36.773  13.804   6.841
 5568POPC   C4A69942  37.152  13.906   7.071
 5568POPC   C1B69943  37.055  13.325   6.222
 5568POPC   C2B69944  37.123  13.460   6.663
 5568POPC   C3B69945  37.041  13.404   7.115
 5568POPC   C4B69946  36.978  13.171   7.504
 5569POPC   NC369947  28.275   3.905   5.544
 5569POPC   PO469948  28.745   3.510   5.236
 5569POPC   GL169949  28.701   3.597   5.728
 5569POPC   GL269950  28.356   3.522   5.876
 5569POPC   C1A69951  28.723   3.464   6.203
 5569POPC   D2A69952  28.392   3.558   6.501
 5569POPC   C3A69953  28.504   3.490   6.920
 5569POPC   C4A69954  28.314   3.722   7.250
 5569POPC   C1B69955  27.989   3.407   6.145
 5569POPC   C2B69956  27.845   3.442   6.533
 5569POPC   C3B69957  27.996   3.487   6.904
 5569POPC   C4B69958  27.863   3.457   7.304
 5570POPC   NC369959   2.914  27.519   5.394
 5570POPC   PO469960   2.400  27.898   5.451
 5570POPC   GL169961   2.708  27.820   5.799
 5570POPC   GL269962   2.789  27.445   5.872
 5570POPC   C1A69963   2.758  27.779   6.260
 5570POPC   D2A69964   2.414  27.718   6.560
 5570POPC   C3A69965   2.545  27.661   6.978
 5570POPC   C4A69966   2.988  27.609   7.134
 5570POPC   C1B69967   2.757  27.259   6.291
 5570POPC   C2B69968   2.548  27.198   6.701
 5570POPC   C3B69969   2.657  27.210   7.155
 5570POPC   C4B69970   2.452  27.327   7.564
 5571POPC   NC369971  27.896  42.811   5.473
 5571POPC   PO469972  27.586  43.237   5.140
 5571POPC   GL169973  27.618  43.197   5.626
 5571POPC   GL269974  27.374  43.045   5.789
 5571POPC   C1A69975  27.679  43.219   6.137
 5571POPC   D2A69976  27.429  43.294   6.549
 5571POPC   C3A69977  27.664  43.309   6.932
 5571POPC   C4A69978  27.829  42.947   7.131
 5571POPC   C1B69979  27.208  42.986   6.192
 5571POPC   C2B69980  27.323  42.790   6.576
 5571POPC   C3B69981  27.316  42.953   6.999
 5571POPC   C4B69982  27.412  43.002   7.442
 5572POPC   NC369983   0.851  34.254   5.627
 5572POPC   PO469984   1.557  34.307   5.431
 5572POPC   GL169985   1.473  34.113   5.840
 5572POPC   GL269986   1.207  33.901   5.796
 5572POPC   C1A69987   1.384  34.039   6.302
 5572POPC   D2A69988   1.298  34.162   6.761
 5572POPC   C3A69989   1.212  33.799   7.064
 5572POPC   C4A69990   1.153  33.767   7.513
 5572POPC   C1B69991   0.911  33.927   6.160
 5572POPC   C2B69992   0.943  33.861   6.590
 5572POPC   C3B69993   0.772  34.052   6.971
 5572POPC   C4B69994   0.654  33.868   7.351
 5573POPC   NC369995   3.983  12.462   5.357
 5573POPC   PO469996   4.472  12.036   5.318
 5573POPC   GL169997   4.380  12.087   5.746
 5573POPC   GL269998   4.017  12.188   5.784
 5573POPC   C1A69999   4.360  12.298   6.134
 5573POPC   D2A70000   4.175  12.216   6.499
 5573POPC   C3A70001   4.318  11.992   6.841
 5573POPC   C4A70002   4.389  12.047   7.250
 5573POPC   C1B70003   4.047  11.852   6.105
 5573POPC   C2B70004   3.970  11.729   6.552
 5573POPC   C3B70005   3.877  11.750   6.995
 5573POPC   C4B70006   4.053  11.703   7.397
 5574POPC   NC370007  20.455  31.257   5.299
 5574POPC   PO470008  20.835  31.844   5.427
 5574POPC   GL170009  20.584  31.571   5.697
 5574POPC   GL270010  20.760  31.273   5.762
 5574POPC   C1A70011  20.543  31.540   6.162
 5574POPC   D2A70012  20.293  31.540   6.518
 5574POPC   C3A70013  20.498  31.548   6.902
 5574POPC   C4A70014  20.553  31.404   7.280
 5574POPC   C1B70015  20.788  31.070   6.167
 5574POPC   C2B70016  20.757  31.215   6.594
 5574POPC   C3B70017  20.751  31.039   7.012
 5574POPC   C4B70018  20.851  31.038   7.478
 5575POPC   NC370019  12.286  30.072   5.453
 5575POPC   PO470020  11.798  29.643   5.556
 5575POPC   GL170021  12.043  29.880   5.873
 5575POPC   GL270022  12.126  30.225   5.902
 5575POPC   C1A70023  12.225  29.907   6.289
 5575POPC   D2A70024  12.607  29.936   6.506
 5575POPC   C3A70025  12.461  29.863   6.915
 5575POPC   C4A70026  12.252  30.135   7.211
 5575POPC   C1B70027  11.821  30.253   6.224
 5575POPC   C2B70028  11.729  29.931   6.523
 5575POPC   C3B70029  11.872  29.910   6.950
 5575POPC   C4B70030  11.889  29.713   7.400
 5576POPC   NC370031  41.057  31.110   5.298
 5576POPC   PO470032  40.749  30.529   5.422
 5576POPC   GL170033  40.732  30.591   5.839
 5576POPC   GL270034  40.651  30.912   5.779
 5576POPC   C1A70035  40.904  30.512   6.244
 5576POPC   D2A70036  41.138  30.658   6.606
 5576POPC   C3A70037  40.849  30.627   6.979
 5576POPC   C4A70038  40.871  30.452   7.410
 5576POPC   C1B70039  40.994  31.013   6.055
 5576POPC   C2B70040  40.888  31.109   6.468
 5576POPC   C3B70041  41.055  31.102   6.890
 5576POPC   C4B70042  41.142  30.899   7.308
 5577POPC   NC370043  44.795   7.730   5.533
 5577POPC   PO470044  44.232   7.336   5.438
 5577POPC   GL170045  44.497   7.468   5.856
 5577POPC   GL270046  44.886   7.572   5.988
 5577POPC   C1A70047  44.515   7.565   6.311
 5577POPC   D2A70048  44.710   7.629   6.705
 5577POPC   C3A70049  44.432   7.807   7.019
 5577POPC   C4A70050  44.378   7.745   7.475
 5577POPC   C1B70051  44.864   7.194   6.207
 5577POPC   C2B70052   0.012   7.056   6.595
 5577POPC   C3B70053  44.792   7.205   6.973
 5577POPC   C4B70054  44.767   7.503   7.268
 5578POPC   NC370055  17.146  18.133   5.382
 5578POPC   PO470056  17.827  18.283   5.378
 5578POPC   GL170057  17.696  18.384   5.818
 5578POPC   GL270058  17.330  18.307   5.825
 5578POPC   C1A70059  17.586  18.324   6.272
 5578POPC   D2A70060  17.478  18.073   6.602
 5578POPC   C3A70061  17.663  18.260   6.919
 5578POPC   C4A70062  17.547  18.423   7.300
 5578POPC   C1B70063  17.165  18.571   6.166
 5578POPC   C2B70064  17.148  18.478   6.596
 5578POPC   C3B70065  17.166  18.268   6.978
 5578POPC   C4B70066  17.044  18.388   7.365
 5579POPC   NC370067   6.381  37.805   5.509
 5579POPC   PO470068   6.854  37.279   5.538
 5579POPC   GL170069   6.716  37.609   5.836
 5579POPC   GL270070   6.441  37.500   5.931
 5579POPC   C1A70071   6.821  37.772   6.220
 5579POPC   D2A70072   6.994  37.563   6.546
 5579POPC   C3A70073   7.042  37.669   6.971
 5579POPC   C4A70074   6.858  37.465   7.302
 5579POPC   C1B70075   6.314  37.835   6.223
 5579POPC   C2B70076   6.452  37.889   6.644
 5579POPC   C3B70077   6.600  37.896   7.069
 5579POPC   C4B70078   6.649  37.851   7.527
 5580POPC   NC370079   2.630  10.148   5.123
 5580POPC   PO470080   2.942  10.595   5.511
 5580POPC   GL170081   2.651  10.497   5.855
 5580POPC   GL270082   2.518  10.150   5.774
 5580POPC   C1A70083   2.701  10.633   6.324
 5580POPC   D2A70084   3.055  10.806   6.593
 5580POPC   C3A70085   2.901  10.935   6.998
 5580POPC   C4A70086   2.765  10.711   7.346
 5580POPC   C1B70087   2.696  10.128   6.198
 5580POPC   C2B70088   2.471  10.231   6.570
 5580POPC   C3B70089   2.606  10.417   6.952
 5580POPC   C4B70090   2.811  10.194   7.318
 5581POPC   NC370091  16.577  34.241   5.566
 5581POPC   PO470092  16.857  33.623   5.422
 5581POPC   GL170093  16.749  33.787   5.804
 5581POPC   GL270094  17.025  34.033   5.822
 5581POPC   C1A70095  16.782  33.628   6.225
 5581POPC   D2A70096  16.738  33.385   6.610
 5581POPC   C3A70097  16.726  33.587   6.994
 5581POPC   C4A70098  17.092  33.698   7.231
 5581POPC   C1B70099  16.771  34.145   6.192
 5581POPC   C2B70100  16.666  33.983   6.604
 5581POPC   C3B70101  16.861  34.093   6.987
 5581POPC   C4B70102  16.673  33.982   7.358
 5582POPC   NC370103  42.411   2.632   5.322
 5582POPC   PO470104  42.072   3.162   5.134
 5582POPC   GL170105  42.247   2.952   5.667
 5582POPC   GL270106  42.535   3.091   5.836
 5582POPC   C1A70107  42.175   2.952   6.168
 5582POPC   D2A70108  42.043   2.956   6.619
 5582POPC   C3A70109  42.053   2.586   6.889
 5582POPC   C4A70110  42.044   2.707   7.328
 5582POPC   C1B70111  42.618   2.698   6.094
 5582POPC   C2B70112  42.496   2.663   6.547
 5582POPC   C3B70113  42.447   2.910   6.937
 5582POPC   C4B70114  42.540   2.679   7.262
 5583POPC   NC370115  38.310  43.608   5.298
 5583POPC   PO470116  38.861  44.160   5.507
 5583POPC   GL170117  38.519  43.911   5.711
 5583POPC   GL270118  38.556  43.543   5.744
 5583POPC   C1A70119  38.237  43.886   6.108
 5583POPC   D2A70120  38.292  43.739   6.559
 5583POPC   C3A70121  38.144  43.979   6.937
 5583POPC   C4A70122  38.331  44.185   7.352
 5583POPC   C1B70123  38.686  43.633   6.181
 5583POPC   C2B70124  38.763  43.518   6.613
 5583POPC   C3B70125  38.954  43.689   6.941
 5583POPC   C4B70126  38.644  43.904   7.102
 5584POPC   NC370127  30.480  12.259   5.340
 5584POPC   PO470128  31.122  12.216   5.411
 5584POPC   GL170129  30.875  12.041   5.766
 5584POPC   GL270130  30.487  11.989   5.798
 5584POPC   C1A70131  30.879  12.158   6.199
 5584POPC   D2A70132  30.702  12.309   6.572
 5584POPC   C3A70133  30.975  12.272   6.891
 5584POPC   C4A70134  30.841  11.981   7.170
 5584POPC   C1B70135  30.350  12.142   6.232
 5584POPC   C2B70136  30.198  12.296   6.666
 5584POPC   C3B70137  30.344  12.163   7.103
 5584POPC   C4B70138  30.408  11.743   7.298
 5585POPC   NC370139   9.887  16.342   5.273
 5585POPC   PO470140   9.825  16.934   5.344
 5585POPC   GL170141   9.820  16.774   5.733
 5585POPC   GL270142   9.672  16.460   5.724
 5585POPC   C1A70143   9.969  16.712   6.144
 5585POPC   D2A70144   9.802  16.818   6.535
 5585POPC   C3A70145   9.977  16.650   6.891
 5585POPC   C4A70146   9.889  16.873   7.244
 5585POPC   C1B70147   9.541  16.350   6.134
 5585POPC   C2B70148   9.341  16.428   6.518
 5585POPC   C3B70149   9.410  16.645   6.907
 5585POPC   C4B70150   9.603  16.462   7.245
 5586POPC   NC370151  36.638  28.665   5.551
 5586POPC   PO470152  37.008  28.232   5.169
 5586POPC   GL170153  36.955  28.284   5.702
 5586POPC   GL270154  37.012  27.993   5.938
 5586POPC   C1A70155  36.942  28.446   6.163
 5586POPC   D2A70156  37.063  28.483   6.615
 5586POPC   C3A70157  36.749  28.599   6.912
 5586POPC   C4A70158  36.574  28.493   7.313
 5586POPC   C1B70159  37.007  27.945   6.405
 5586POPC   C2B70160  36.957  28.034   6.858
 5586POPC   C3B70161  37.045  28.274   7.236
 5586POPC   C4B70162  37.033  28.115   7.662
 5587POPC   NC370163  29.988  41.618   5.516
 5587POPC   PO470164  29.627  41.059   5.323
 5587POPC   GL170165  29.717  41.233   5.757
 5587POPC   GL270166  30.050  41.335   5.935
 5587POPC   C1A70167  29.618  41.351   6.207
 5587POPC   D2A70168  29.605  41.637   6.567
 5587POPC   C3A70169  29.713  41.506   6.980
 5587POPC   C4A70170  30.115  41.348   7.190
 5587POPC   C1B70171  30.077  41.650   6.289
 5587POPC   C2B70172  30.108  41.769   6.745
 5587POPC   C3B70173  30.175  41.866   7.191
 5587POPC   C4B70174  30.012  42.037   7.578
 5588POPC   NC370175  13.918  18.771   5.483
 5588POPC   PO470176  13.586  19.372   5.498
 5588POPC   GL170177  13.477  19.001   5.756
 5588POPC   GL270178  13.172  18.861   5.615
 5588POPC   C1A70179  13.625  18.893   6.184
 5588POPC   D2A70180  13.985  19.029   6.468
 5588POPC   C3A70181  13.825  19.204   6.850
 5588POPC   C4A70182  13.825  19.415   7.238
 5588POPC   C1B70183  13.150  18.633   6.021
 5588POPC   C2B70184  13.220  18.674   6.484
 5588POPC   C3B70185  13.224  18.793   6.932
 5588POPC   C4B70186  13.516  18.991   7.215
 5589POPC   NC370187   8.410  10.223   5.374
 5589POPC   PO470188   8.452  10.865   5.400
 5589POPC   GL170189   8.337  10.614   5.771
 5589POPC   GL270190   8.137  10.368   5.803
 5589POPC   C1A70191   8.262  10.709   6.220
 5589POPC   D2A70192   8.349  10.535   6.659
 5589POPC   C3A70193   8.070  10.646   7.022
 5589POPC   C4A70194   7.976  10.571   7.495
 5589POPC   C1B70195   8.136  10.199   6.236
 5589POPC   C2B70196   8.174  10.005   6.651
 5589POPC   C3B70197   8.297  10.190   7.055
 5589POPC   C4B70198   8.565  10.505   7.223
 5590POPC   NC370199  28.444  21.007   5.409
 5590POPC   PO470200  28.156  20.406   5.557
 5590POPC   GL170201  28.415  20.674   5.824
 5590POPC   GL270202  28.198  20.896   5.847
 5590POPC   C1A70203  28.502  20.617   6.288
 5590POPC   D2A70204  28.474  20.364   6.704
 5590POPC   C3A70205  28.592  20.555   7.079
 5590POPC   C4A70206  28.326  20.840   7.223
 5590POPC   C1B70207  28.070  20.905   6.241
 5590POPC   C2B70208  28.178  20.801   6.645
 5590POPC   C3B70209  28.010  20.549   6.929
 5590POPC   C4B70210  28.167  20.279   7.198
 5591POPC   NC370211  12.590   8.034   5.277
 5591POPC   PO470212  13.192   7.996   5.586
 5591POPC   GL170213  12.795   8.155   5.804
 5591POPC   GL270214  12.456   8.002   5.770
 5591POPC   C1A70215  12.594   8.355   6.176
 5591POPC   D2A70216  12.651   8.563   6.592
 5591POPC   C3A70217  12.803   8.352   6.925
 5591POPC   C4A70218  12.933   8.471   7.323
 5591POPC   C1B70219  12.429   7.858   6.153
 5591POPC   C2B70220  12.616   7.974   6.540
 5591POPC   C3B70221  12.548   7.850   6.955
 5591POPC   C4B70222  12.853   7.942   7.248
 5592POPC   NC370223  44.084  30.520   5.046
 5592POPC   PO470224  43.717  30.750   5.485
 5592POPC   GL170225  43.779  30.638   5.911
 5592POPC   GL270226  43.403  30.508   5.912
 5592POPC   C1A70227  44.089  30.690   6.265
 5592POPC   D2A70228  44.371  30.628   6.633
 5592POPC   C3A70229  44.157  30.502   6.971
 5592POPC   C4A70230  44.094  30.411   7.349
 5592POPC   C1B70231  43.470  30.783   6.260
 5592POPC   C2B70232  43.693  30.711   6.606
 5592POPC   C3B70233  43.663  30.560   6.982
 5592POPC   C4B70234  43.677  30.690   7.382
 5593POPC   NC370235   6.688  29.419   5.595
 5593POPC   PO470236   6.538  28.805   5.454
 5593POPC   GL170237   6.519  28.992   5.835
 5593POPC   GL270238   6.874  28.990   5.826
 5593POPC   C1A70239   6.560  29.262   6.208
 5593POPC   D2A70240   6.538  29.124   6.581
 5593POPC   C3A70241   6.507  29.360   6.895
 5593POPC   C4A70242   6.510  29.217   7.297
 5593POPC   C1B70243   6.792  28.803   6.225
 5593POPC   C2B70244   6.982  28.894   6.629
 5593POPC   C3B70245   6.797  28.879   7.021
 5593POPC   C4B70246   6.962  29.006   7.410
 5594POPC   NC370247  36.260  43.409   5.284
 5594POPC   PO470248  35.894  42.838   5.422
 5594POPC   GL170249  36.021  43.082   5.811
 5594POPC   GL270250  36.385  43.050   5.867
 5594POPC   C1A70251  36.072  43.288   6.248
 5594POPC   D2A70252  36.282  43.180   6.668
 5594POPC   C3A70253  36.243  43.290   7.124
 5594POPC   C4A70254  36.065  43.332   7.554
 5594POPC   C1B70255  36.234  42.816   6.245
 5594POPC   C2B70256  36.280  42.602   6.624
 5594POPC   C3B70257  36.131  42.762   6.997
 5594POPC   C4B70258  36.221  42.864   7.401
 5595POPC   NC370259  37.591  41.312   5.366
 5595POPC   PO470260  37.872  41.939   5.376
 5595POPC   GL170261  37.765  41.661   5.694
 5595POPC   GL270262  37.423  41.700   5.794
 5595POPC   C1A70263  37.900  41.507   6.097
 5595POPC   D2A70264  37.921  41.381   6.533
 5595POPC   C3A70265  37.691  41.621   6.864
 5595POPC   C4A70266  37.519  41.692   7.291
 5595POPC   C1B70267  37.416  41.546   6.263
 5595POPC   C2B70268  37.310  41.262   6.639
 5595POPC   C3B70269  37.323  41.231   7.100
 5595POPC   C4B70270  37.427  41.269   7.562
 5596POPC   NC370271   5.991   2.468   5.532
 5596POPC   PO470272   5.900   2.963   5.148
 5596POPC   GL170273   5.847   2.973   5.630
 5596POPC   GL270274   6.165   2.859   5.806
 5596POPC   C1A70275   5.658   2.806   6.036
 5596POPC   D2A70276   5.640   2.550   6.430
 5596POPC   C3A70277   5.692   2.749   6.848
 5596POPC   C4A70278   5.703   2.586   7.267
 5596POPC   C1B70279   6.151   2.582   6.187
 5596POPC   C2B70280   6.129   2.508   6.641
 5596POPC   C3B70281   6.168   2.582   7.067
 5596POPC   C4B70282   6.114   2.885   7.398
 5597POPC   NC370283  35.287   9.363   5.086
 5597POPC   PO470284  35.418   8.739   5.421
 5597POPC   GL170285  35.552   8.857   5.827
 5597POPC   GL270286  35.451   9.193   5.722
 5597POPC   C1A70287  35.427   8.739   6.254
 5597POPC   D2A70288  35.272   8.678   6.677
 5597POPC   C3A70289  35.482   8.900   6.983
 5597POPC   C4A70290  35.562   8.747   7.398
 5597POPC   C1B70291  35.274   9.255   6.125
 5597POPC   C2B70292  35.072   9.122   6.486
 5597POPC   C3B70293  35.041   9.225   6.911
 5597POPC   C4B70294  35.112   9.039   7.301
 5598POPC   NC370295  25.494  41.774   5.618
 5598POPC   PO470296  25.122  41.346   5.358
 5598POPC   GL170297  25.109  41.428   5.786
 5598POPC   GL270298  25.031  41.772   5.789
 5598POPC   C1A70299  25.052  41.204   6.191
 5598POPC   D2A70300  24.832  41.289   6.588
 5598POPC   C3A70301  25.124  41.293   6.934
 5598POPC   C4A70302  25.038  41.325   7.367
 5598POPC   C1B70303  25.268  41.678   6.222
 5598POPC   C2B70304  25.679  41.649   6.478
 5598POPC   C3B70305  25.638  41.799   6.907
 5598POPC   C4B70306  25.231  41.798   7.118
 5599POPC   NC370307  29.206  31.921   5.471
 5599POPC   PO470308  29.662  32.372   5.481
 5599POPC   GL170309  29.437  32.257   5.837
 5599POPC   GL270310  29.146  32.462   5.791
 5599POPC   C1A70311  29.168  32.099   6.182
 5599POPC   D2A70312  28.946  32.185   6.571
 5599POPC   C3A70313  29.068  32.000   6.941
 5599POPC   C4A70314  29.289  32.228   7.266
 5599POPC   C1B70315  28.930  32.589   6.192
 5599POPC   C2B70316  28.948  32.716   6.652
 5599POPC   C3B70317  28.896  32.476   7.069
 5599POPC   C4B70318  28.964  32.549   7.547
 5600POPC   NC370319   6.986  43.446   5.395
 5600POPC   PO470320   6.470  43.011   5.341
 5600POPC   GL170321   6.501  43.239   5.746
 5600POPC   GL270322   6.846  43.314   5.886
 5600POPC   C1A70323   6.454  43.210   6.198
 5600POPC   D2A70324   6.695  43.374   6.509
 5600POPC   C3A70325   6.594  43.253   6.906
 5600POPC   C4A70326   6.428  42.972   7.178
 5600POPC   C1B70327   6.828  42.895   6.114
 5600POPC   C2B70328   6.751  42.856   6.538
 5600POPC   C3B70329   6.839  42.740   6.950
 5600POPC   C4B70330   6.991  42.994   7.257
 5601POPC   NC370331  15.520  18.525   5.078
 5601POPC   PO470332  14.982  18.650   5.509
 5601POPC   GL170333  15.145  18.302   5.824
 5601POPC   GL270334  15.422  18.074   5.766
 5601POPC   C1A70335  15.365  18.403   6.230
 5601POPC   D2A70336  15.198  18.564   6.588
 5601POPC   C3A70337  15.307  18.417   6.993
 5601POPC   C4A70338  15.380  18.267   7.443
 5601POPC   C1B70339  15.308  17.905   6.183
 5601POPC   C2B70340  15.318  18.038   6.612
 5601POPC   C3B70341  15.263  17.912   7.032
 5601POPC   C4B70342  14.935  18.133   7.245
 5602POPC   NC370343  25.470  17.808   5.376
 5602POPC   PO470344  25.202  18.476   5.352
 5602POPC   GL170345  25.503  18.283   5.634
 5602POPC   GL270346  25.269  18.055   5.779
 5602POPC   C1A70347  25.562  18.377   6.087
 5602POPC   D2A70348  25.478  18.708   6.382
 5602POPC   C3A70349  25.351  18.514   6.783
 5602POPC   C4A70350  25.501  18.430   7.210
 5602POPC   C1B70351  25.405  17.854   6.138
 5602POPC   C2B70352  25.248  17.997   6.514
 5602POPC   C3B70353  24.951  18.182   6.743
 5602POPC   C4B70354  25.053  18.171   7.151
 5603POPC   NC370355  26.640   3.488   5.173
 5603POPC   PO470356  27.026   4.039   5.217
 5603POPC   GL170357  26.938   3.686   5.559
 5603POPC   GL270358  27.184   3.747   5.821
 5603POPC   C1A70359  26.775   3.564   6.026
 5603POPC   D2A70360  26.922   3.290   6.379
 5603POPC   C3A70361  26.733   3.260   6.800
 5603POPC   C4A70362  26.655   3.547   7.155
 5603POPC   C1B70363  27.204   3.746   6.295
 5603POPC   C2B70364  26.915   3.740   6.678
 5603POPC   C3B70365  26.864   3.994   7.054
 5603POPC   C4B70366  27.026   3.781   7.435
 5604POPC   NC370367  23.576  10.344   5.502
 5604POPC   PO470368  24.036  10.770   5.283
 5604POPC   GL170369  23.993  10.769   5.733
 5604POPC   GL270370  23.661  10.862   5.788
 5604POPC   C1A70371  23.842  10.452   6.085
 5604POPC   D2A70372  23.608  10.357   6.472
 5604POPC   C3A70373  23.796  10.481   6.871
 5604POPC   C4A70374  23.817  10.294   7.273
 5604POPC   C1B70375  23.404  10.746   6.153
 5604POPC   C2B70376  23.196  10.821   6.539
 5604POPC   C3B70377  23.418  10.823   6.939
 5604POPC   C4B70378  23.710  10.785   7.304
 5605POPC   NC370379   8.624  14.042   5.296
 5605POPC   PO470380   9.129  14.571   5.352
 5605POPC   GL170381   9.003  14.466   5.737
 5605POPC   GL270382   8.866  14.130   5.751
 5605POPC   C1A70383   8.881  14.606   6.131
 5605POPC   D2A70384   9.125  14.548   6.497
 5605POPC   C3A70385   8.982  14.531   6.922
 5605POPC   C4A70386   9.224  14.539   7.295
 5605POPC   C1B70387   9.110  14.127   6.130
 5605POPC   C2B70388   8.986  14.027   6.551
 5605POPC   C3B70389   9.137  14.045   6.963
 5605POPC   C4B70390   8.837  14.186   7.261
 5606POPC   NC370391  17.900  42.212   5.442
 5606POPC   PO470392  17.263  42.477   5.641
 5606POPC   GL170393  17.675  42.375   5.890
 5606POPC   GL270394  18.059  42.449   5.859
 5606POPC   C1A70395  17.790  42.607   6.283
 5606POPC   D2A70396  17.489  42.645   6.659
 5606POPC   C3A70397  17.315  42.232   6.860
 5606POPC   C4A70398  17.133  42.189   7.280
 5606POPC   C1B70399  18.017  42.144   6.194
 5606POPC   C2B70400  17.779  42.188   6.574
 5606POPC   C3B70401  17.798  42.367   6.969
 5606POPC   C4B70402  17.635  42.159   7.301
 5607POPC   NC370403  43.473  10.181   5.418
 5607POPC   PO470404  43.284   9.519   5.434
 5607POPC   GL170405  43.091   9.855   5.679
 5607POPC   GL270406  42.770   9.675   5.691
 5607POPC   C1A70407  43.122   9.911   6.127
 5607POPC   D2A70408  43.143   9.577   6.426
 5607POPC   C3A70409  43.127   9.708   6.842
 5607POPC   C4A70410  43.363   9.782   7.224
 5607POPC   C1B70411  42.720   9.591   6.111
 5607POPC   C2B70412  42.647   9.754   6.484
 5607POPC   C3B70413  42.615   9.764   6.907
 5607POPC   C4B70414  42.856   9.746   7.276
 5608POPC   NC370415  36.827   0.993   5.408
 5608POPC   PO470416  36.877   0.330   5.453
 5608POPC   GL170417  37.001   0.324   5.847
 5608POPC   GL270418  37.303   0.171   5.840
 5608POPC   C1A70419  36.841   0.354   6.257
 5608POPC   D2A70420  37.047   0.433   6.650
 5608POPC   C3A70421  36.859   0.447   7.077
 5608POPC   C4A70422  36.927   0.530   7.530
 5608POPC   C1B70423  37.131  44.947   6.191
 5608POPC   C2B70424  36.979  44.918   6.598
 5608POPC   C3B70425  37.186   0.067   6.964
 5608POPC   C4B70426  37.460   0.150   7.275
 5609POPC   NC370427   5.189  10.224   5.412
 5609POPC   PO470428   4.884   9.596   5.350
 5609POPC   GL170429   5.131   9.688   5.744
 5609POPC   GL270430   5.236   9.369   5.865
 5609POPC   C1A70431   5.313   9.837   6.197
 5609POPC   D2A70432   5.282  10.013   6.643
 5609POPC   C3A70433   5.180   9.772   7.004
 5609POPC   C4A70434   5.062   9.804   7.483
 5609POPC   C1B70435   4.873   9.464   6.112
 5609POPC   C2B70436   4.844   9.762   6.433
 5609POPC   C3B70437   4.712   9.612   6.811
 5609POPC   C4B70438   4.891   9.418   7.193
 5610POPC   NC370439  16.567  40.592   5.352
 5610POPC   PO470440  16.976  41.037   5.385
 5610POPC   GL170441  16.883  40.781   5.735
 5610POPC   GL270442  16.522  40.703   5.849
 5610POPC   C1A70443  16.849  40.969   6.134
 5610POPC   D2A70444  16.760  40.802   6.539
 5610POPC   C3A70445  16.999  40.928   6.899
 5610POPC   C4A70446  16.811  41.023   7.319
 5610POPC   C1B70447  16.665  40.454   6.178
 5610POPC   C2B70448  16.561  40.336   6.607
 5610POPC   C3B70449  16.560  40.617   6.976
 5610POPC   C4B70450  16.907  40.533   7.216
 5611POPC   NC370451  28.076  27.309   5.628
 5611POPC   PO470452  27.679  27.762   5.287
 5611POPC   GL170453  27.640  27.601   5.706
 5611POPC   GL270454  27.566  27.230   5.731
 5611POPC   C1A70455  27.755  27.655   6.138
 5611POPC   D2A70456  27.496  27.735   6.505
 5611POPC   C3A70457  27.685  27.837   6.889
 5611POPC   C4A70458  27.635  27.687   7.283
 5611POPC   C1B70459  27.696  27.130   6.163
 5611POPC   C2B70460  27.930  27.303   6.517
 5611POPC   C3B70461  27.814  27.326   6.944
 5611POPC   C4B70462  27.989  27.282   7.347
 5612POPC   NC370463  15.522  36.326   5.381
 5612POPC   PO470464  16.042  35.915   5.146
 5612POPC   GL170465  15.988  35.993   5.604
 5612POPC   GL270466  15.903  36.361   5.752
 5612POPC   C1A70467  15.973  35.945   6.073
 5612POPC   D2A70468  15.993  36.177   6.448
 5612POPC   C3A70469  15.972  36.031   6.874
 5612POPC   C4A70470  16.074  36.297   7.218
 5612POPC   C1B70471  15.623  36.382   6.130
 5612POPC   C2B70472  15.509  36.489   6.545
 5612POPC   C3B70473  15.721  36.480   6.898
 5612POPC   C4B70474  15.644  36.531   7.331
 5613POPC   NC370475  25.427  19.681   5.607
 5613POPC   PO470476  24.903  19.376   5.347
 5613POPC   GL170477  25.025  19.446   5.823
 5613POPC   GL270478  25.142  19.833   5.991
 5613POPC   C1A70479  25.262  19.414   6.242
 5613POPC   D2A70480  25.185  19.745   6.528
 5613POPC   C3A70481  25.283  19.774   6.937
 5613POPC   C4A70482  24.985  19.801   7.283
 5613POPC   C1B70483  25.094  20.199   6.305
 5613POPC   C2B70484  25.315  20.258   6.721
 5613POPC   C3B70485  25.320  20.236   7.157
 5613POPC   C4B70486  25.531  19.903   7.398
 5614POPC   NC370487   2.160  29.484   5.432
 5614POPC   PO470488   2.502  28.857   5.639
 5614POPC   GL170489   2.214  29.010   5.952
 5614POPC   GL270490   1.969  29.268   5.876
 5614POPC   C1A70491   2.166  29.209   6.361
 5614POPC   D2A70492   2.341  29.212   6.774
 5614POPC   C3A70493   2.062  29.028   7.079
 5614POPC   C4A70494   1.963  29.425   7.105
 5614POPC   C1B70495   1.676  29.192   6.234
 5614POPC   C2B70496   1.772  29.206   6.687
 5614POPC   C3B70497   1.505  29.209   7.065
 5614POPC   C4B70498   1.599  28.938   7.394
 5615POPC   NC370499   1.736  15.852   5.147
 5615POPC   PO470500   1.100  15.965   5.259
 5615POPC   GL170501   1.035  15.825   5.715
 5615POPC   GL270502   1.016  16.151   5.797
 5615POPC   C1A70503   1.136  15.888   6.211
 5615POPC   D2A70504   1.491  15.981   6.532
 5615POPC   C3A70505   1.375  15.918   6.987
 5615POPC   C4A70506   1.132  15.809   7.369
 5615POPC   C1B70507   0.930  16.387   6.150
 5615POPC   C2B70508   1.088  16.299   6.556
 5615POPC   C3B70509   0.961  16.189   6.948
 5615POPC   C4B70510   0.930  16.456   7.231
 5616POPC   NC370511  14.895  39.393   5.333
 5616POPC   PO470512  15.585  39.262   5.385
 5616POPC   GL170513  15.375  39.320   5.797
 5616POPC   GL270514  15.012  39.448   5.825
 5616POPC   C1A70515  15.228  39.104   6.158
 5616POPC   D2A70516  15.391  39.153   6.547
 5616POPC   C3A70517  15.237  38.873   6.819
 5616POPC   C4A70518  15.222  39.079   7.221
 5616POPC   C1B70519  14.846  39.428   6.271
 5616POPC   C2B70520  14.976  39.373   6.723
 5616POPC   C3B70521  14.966  39.549   7.132
 5616POPC   C4B70522  14.956  39.692   7.566
 5617POPC   NC370523   9.799   3.774   5.379
 5617POPC   PO470524   9.743   3.087   5.402
 5617POPC   GL170525   9.654   3.385   5.739
 5617POPC   GL270526   9.947   3.593   5.824
 5617POPC   C1A70527   9.574   3.543   6.160
 5617POPC   D2A70528   9.437   3.409   6.559
 5617POPC   C3A70529   9.402   3.651   6.914
 5617POPC   C4A70530   9.685   3.650   7.258
 5617POPC   C1B70531  10.026   3.785   6.235
 5617POPC   C2B70532   9.956   3.502   6.586
 5617POPC   C3B70533  10.084   3.458   7.011
 5617POPC   C4B70534  10.072   3.263   7.438
 5618POPC   NC370535  33.793  16.591   5.210
 5618POPC   PO470536  34.339  16.984   5.316
 5618POPC   GL170537  34.000  16.964   5.630
 5618POPC   GL270538  33.938  16.607   5.693
 5618POPC   C1A70539  33.712  16.980   6.016
 5618POPC   D2A70540  33.722  17.061   6.479
 5618POPC   C3A70541  33.580  16.903   6.891
 5618POPC   C4A70542  33.605  16.770   7.314
 5618POPC   C1B70543  33.763  16.463   6.061
 5618POPC   C2B70544  33.724  16.536   6.514
 5618POPC   C3B70545  33.675  16.389   6.950
 5618POPC   C4B70546  33.286  16.363   7.213
 5619POPC   NC370547  40.904  43.360   5.451
 5619POPC   PO470548  40.523  42.760   5.335
 5619POPC   GL170549  40.559  43.052   5.687
 5619POPC   GL270550  40.254  43.124   5.840
 5619POPC   C1A70551  40.675  43.302   6.077
 5619POPC   D2A70552  40.671  43.170   6.511
 5619POPC   C3A70553  40.791  43.397   6.851
 5619POPC   C4A70554  41.089  43.139   7.001
 5619POPC   C1B70555  40.422  42.865   6.162
 5619POPC   C2B70556  40.403  42.663   6.591
 5619POPC   C3B70557  40.470  42.689   7.051
 5619POPC   C4B70558  40.626  43.053   7.225
 5620POPC   NC370559  31.359  43.637   5.452
 5620POPC   PO470560  31.113  44.275   5.444
 5620POPC   GL170561  31.290  44.049   5.779
 5620POPC   GL270562  31.625  44.107   5.880
 5620POPC   C1A70563  31.233  43.872   6.187
 5620POPC   D2A70564  31.198  44.047   6.601
 5620POPC   C3A70565  31.475  44.077   6.937
 5620POPC   C4A70566  31.425  43.724   7.185
 5620POPC   C1B70567  31.707  43.713   6.087
 5620POPC   C2B70568  31.607  43.665   6.521
 5620POPC   C3B70569  31.849  43.749   6.865
 5620POPC   C4B70570  31.913  43.757   7.306
 5621POPC   NC370571  18.333  38.986   5.074
 5621POPC   PO470572  18.366  38.370   5.138
 5621POPC   GL170573  18.229  38.407   5.630
 5621POPC   GL270574  18.365  38.759   5.760
 5621POPC   C1A70575  18.301  38.398   6.103
 5621POPC   D2A70576  18.175  38.718   6.406
 5621POPC   C3A70577  18.155  38.602   6.847
 5621POPC   C4A70578  18.021  38.450   7.275
 5621POPC   C1B70579  18.649  38.792   6.127
 5621POPC   C2B70580  18.636  38.889   6.563
 5621POPC   C3B70581  18.822  38.833   6.972
 5621POPC   C4B70582  18.493  38.659   7.228
 5622POPC   NC370583  31.571   1.740   5.389
 5622POPC   PO470584  31.703   2.243   5.106
 5622POPC   GL170585  31.457   2.167   5.590
 5622POPC   GL270586  31.537   2.404   5.837
 5622POPC   C1A70587  31.246   1.984   5.968
 5622POPC   D2A70588  31.174   1.985   6.433
 5622POPC   C3A70589  31.360   1.866   6.837
 5622POPC   C4A70590  31.197   2.007   7.270
 5622POPC   C1B70591  31.567   2.301   6.269
 5622POPC   C2B70592  31.743   2.196   6.677
 5622POPC   C3B70593  31.642   2.220   7.120
 5622POPC   C4B70594  31.666   2.008   7.531
 5623POPC   NC370595  36.411  30.824   5.310
 5623POPC   PO470596  35.825  30.467   5.449
 5623POPC   GL170597  36.070  30.449   5.807
 5623POPC   GL270598  36.374  30.611   5.773
 5623POPC   C1A70599  35.957  30.424   6.237
 5623POPC   D2A70600  36.151  30.429   6.623
 5623POPC   C3A70601  35.881  30.425   6.950
 5623POPC   C4A70602  35.994  30.544   7.345
 5623POPC   C1B70603  36.452  30.639   6.197
 5623POPC   C2B70604  36.241  30.902   6.502
 5623POPC   C3B70605  36.232  30.844   6.954
 5623POPC   C4B70606  36.320  31.134   7.289
 5624POPC   NC370607  43.380  31.087   5.444
 5624POPC   PO470608  43.267  30.420   5.398
 5624POPC   GL170609  42.997  30.699   5.640
 5624POPC   GL270610  43.174  30.953   5.866
 5624POPC   C1A70611  42.838  30.605   6.059
 5624POPC   D2A70612  43.081  30.494   6.412
 5624POPC   C3A70613  43.195  30.737   6.774
 5624POPC   C4A70614  43.187  30.667   7.234
 5624POPC   C1B70615  43.018  31.034   6.249
 5624POPC   C2B70616  42.710  30.855   6.524
 5624POPC   C3B70617  42.727  30.902   6.952
 5624POPC   C4B70618  43.033  31.141   7.149
 5625POPC   NC370619   3.132  33.297   5.468
 5625POPC   PO470620   3.691  32.840   5.440
 5625POPC   GL170621   3.717  33.028   5.839
 5625POPC   GL270622   3.338  33.061   5.920
 5625POPC   C1A70623   3.712  32.835   6.254
 5625POPC   D2A70624   3.409  32.899   6.563
 5625POPC   C3A70625   3.610  32.861   6.960
 5625POPC   C4A70626   3.398  32.826   7.355
 5625POPC   C1B70627   3.154  33.344   6.246
 5625POPC   C2B70628   3.352  33.392   6.674
 5625POPC   C3B70629   3.252  33.216   7.048
 5625POPC   C4B70630   3.042  33.369   7.391
 5626POPC   NC370631  29.685  12.344   5.473
 5626POPC   PO470632  30.193  11.846   5.357
 5626POPC   GL170633  29.947  11.970   5.727
 5626POPC   GL270634  30.063  12.307   5.833
 5626POPC   C1A70635  29.877  11.972   6.188
 5626POPC   D2A70636  29.868  11.697   6.510
 5626POPC   C3A70637  29.983  11.872   6.896
 5626POPC   C4A70638  29.891  11.718   7.290
 5626POPC   C1B70639  29.917  12.479   6.245
 5626POPC   C2B70640  29.667  12.317   6.596
 5626POPC   C3B70641  29.531  12.169   7.001
 5626POPC   C4B70642  29.717  12.214   7.414
 5627POPC   NC370643  24.320  13.405   5.400
 5627POPC   PO470644  24.076  13.976   5.586
 5627POPC   GL170645  24.466  13.746   5.861
 5627POPC   GL270646  24.695  13.462   5.748
 5627POPC   C1A70647  24.831  13.682   6.188
 5627POPC   D2A70648  24.816  13.493   6.585
 5627POPC   C3A70649  24.456  13.658   6.800
 5627POPC   C4A70650  24.455  13.731   7.213
 5627POPC   C1B70651  24.547  13.264   6.174
 5627POPC   C2B70652  24.403  13.156   6.622
 5627POPC   C3B70653  24.525  13.225   7.076
 5627POPC   C4B70654  24.328  13.323   7.492
 5628POPC   NC370655  42.025  35.520   5.364
 5628POPC   PO470656  42.546  35.202   5.198
 5628POPC   GL170657  42.604  35.300   5.664
 5628POPC   GL270658  42.261  35.248   5.784
 5628POPC   C1A70659  42.574  35.444   6.131
 5628POPC   D2A70660  42.476  35.210   6.507
 5628POPC   C3A70661  42.578  35.314   6.950
 5628POPC   C4A70662  42.603  35.395   7.384
 5628POPC   C1B70663  42.058  35.553   6.079
 5628POPC   C2B70664  42.070  35.572   6.529
 5628POPC   C3B70665  42.080  35.254   6.838
 5628POPC   C4B70666  42.124  35.245   7.267
 5629POPC   NC370667  16.841  33.155   5.406
 5629POPC   PO470668  16.407  32.757   5.639
 5629POPC   GL170669  16.543  33.107   5.816
 5629POPC   GL270670  16.860  32.927   5.869
 5629POPC   C1A70671  16.544  33.124   6.227
 5629POPC   D2A70672  16.625  32.847   6.568
 5629POPC   C3A70673  16.615  33.036   6.967
 5629POPC   C4A70674  16.671  32.823   7.322
 5629POPC   C1B70675  17.055  33.183   6.181
 5629POPC   C2B70676  17.163  33.059   6.600
 5629POPC   C3B70677  17.112  33.236   6.984
 5629POPC   C4B70678  16.915  33.249   7.370
 5630POPC   NC370679  30.265   0.457   5.412
 5630POPC   PO470680  29.623   0.551   5.434
 5630POPC   GL170681  29.918   0.511   5.780
 5630POPC   GL270682  30.090   0.811   5.780
 5630POPC   C1A70683  30.155   0.439   6.171
 5630POPC   D2A70684  29.951   0.387   6.530
 5630POPC   C3A70685  30.118   0.433   6.935
 5630POPC   C4A70686  29.894   0.176   7.278
 5630POPC   C1B70687  29.808   0.810   6.178
 5630POPC   C2B70688  29.594   0.781   6.558
 5630POPC   C3B70689  29.593   0.921   6.996
 5630POPC   C4B70690  29.932   0.764   7.270
 5631POPC   NC370691  28.549  44.848   5.505
 5631POPC   PO470692  28.011  44.389   5.622
 5631POPC   GL170693  28.212  44.694   5.888
 5631POPC   GL270694  28.524  44.542   5.925
 5631POPC   C1A70695  28.258  44.606   6.357
 5631POPC   D2A70696  27.988  44.658   6.734
 5631POPC   C3A70697  28.269  44.685   7.052
 5631POPC   C4A70698  28.534  44.834   7.399
 5631POPC   C1B70699  28.789  44.608   6.302
 5631POPC   C2B70700  28.708  44.656   6.739
 5631POPC   C3B70701  28.672  44.395   7.124
 5631POPC   C4B70702  28.259  44.180   7.141
 5632POPC   NC370703  16.131  26.198   5.414
 5632POPC   PO470704  15.666  25.788   5.554
 5632POPC   GL170705  15.909  26.072   5.864
 5632POPC   GL270706  16.219  26.290   5.897
 5632POPC   C1A70707  16.022  25.951   6.267
 5632POPC   D2A70708  16.104  25.663   6.583
 5632POPC   C3A70709  16.058  25.780   7.012
 5632POPC   C4A70710  15.788  26.013   7.271
 5632POPC   C1B70711  15.978  26.464   6.222
 5632POPC   C2B70712  15.943  26.291   6.649
 5632POPC   C3B70713  16.082  26.377   7.067
 5632POPC   C4B70714  16.124  26.298   7.518
 5633POPC   NC370715   4.038   0.587   5.359
 5633POPC   PO470716   4.426  44.990   5.406
 5633POPC   GL170717   4.306   0.310   5.714
 5633POPC   GL270718   4.531   0.593   5.593
 5633POPC   C1A70719   4.137   0.353   6.179
 5633POPC   D2A70720   4.271   0.348   6.654
 5633POPC   C3A70721   4.130   0.403   7.116
 5633POPC   C4A70722   4.183   0.131   7.507
 5633POPC   C1B70723   4.492   0.713   6.024
 5633POPC   C2B70724   4.539   0.750   6.459
 5633POPC   C3B70725   4.387   0.817   6.885
 5633POPC   C4B70726   4.553   0.812   7.311
 5634POPC   NC370727  38.772  10.788   5.487
 5634POPC   PO470728  38.142  10.420   5.475
 5634POPC   GL170729  38.394  10.600   5.810
 5634POPC   GL270730  38.710  10.386   5.813
 5634POPC   C1A70731  38.361  10.720   6.252
 5634POPC   D2A70732  38.197  10.438   6.569
 5634POPC   C3A70733  38.324  10.438   6.982
 5634POPC   C4A70734  38.033  10.643   7.238
 5634POPC   C1B70735  38.539  10.230   6.225
 5634POPC   C2B70736  38.541  10.026   6.647
 5634POPC   C3B70737  38.794  10.160   7.007
 5634POPC   C4B70738  38.767  10.569   7.197
 5635POPC   NC370739   8.423  29.103   5.136
 5635POPC   PO470740   8.915  29.255   5.506
 5635POPC   GL170741   9.033  29.120   5.881
 5635POPC   GL270742   8.622  29.104   5.910
 5635POPC   C1A70743   9.308  29.332   6.219
 5635POPC   D2A70744   9.486  29.441   6.634
 5635POPC   C3A70745   9.163  29.531   6.926
 5635POPC   C4A70746   9.030  29.350   7.277
 5635POPC   C1B70747   8.769  29.341   6.242
 5635POPC   C2B70748   8.985  29.169   6.591
 5635POPC   C3B70749   8.796  29.002   6.941
 5635POPC   C4B70750   8.571  29.158   7.263
 5636POPC   NC370751   2.409   6.876   5.409
 5636POPC   PO470752   2.889   6.439   5.360
 5636POPC   GL170753   2.867   6.604   5.757
 5636POPC   GL270754   2.536   6.580   5.806
 5636POPC   C1A70755   2.833   6.429   6.189
 5636POPC   D2A70756   2.661   6.566   6.576
 5636POPC   C3A70757   2.938   6.508   6.926
 5636POPC   C4A70758   2.812   6.445   7.355
 5636POPC   C1B70759   2.529   6.855   6.167
 5636POPC   C2B70760   2.302   7.090   6.512
 5636POPC   C3B70761   2.380   7.178   6.923
 5636POPC   C4B70762   2.654   6.899   7.121
 5637POPC   NC370763  19.555  41.890   5.448
 5637POPC   PO470764  19.788  41.198   5.406
 5637POPC   GL170765  19.795  41.387   5.850
 5637POPC   GL270766  19.786  41.748   5.870
 5637POPC   C1A70767  20.011  41.522   6.268
 5637POPC   D2A70768  19.977  41.741   6.665
 5637POPC   C3A70769  20.215  41.606   7.041
 5637POPC   C4A70770  20.249  41.274   7.382
 5637POPC   C1B70771  19.568  41.811   6.271
 5637POPC   C2B70772  19.466  41.736   6.702
 5637POPC   C3B70773  19.717  41.712   7.104
 5637POPC   C4B70774  20.027  41.745   7.477
 5638POPC   NC370775   7.989  38.013   5.534
 5638POPC   PO470776   8.423  37.370   5.447
 5638POPC   GL170777   8.321  37.666   5.744
 5638POPC   GL270778   7.998  37.560   5.841
 5638POPC   C1A70779   8.284  37.865   6.159
 5638POPC   D2A70780   8.408  38.063   6.544
 5638POPC   C3A70781   8.323  37.876   6.928
 5638POPC   C4A70782   8.433  37.967   7.333
 5638POPC   C1B70783   8.168  37.360   6.219
 5638POPC   C2B70784   8.314  37.414   6.661
 5638POPC   C3B70785   8.221  37.417   7.114
 5638POPC   C4B70786   7.858  37.683   7.243
 5639POPC   NC370787  25.905  40.604   5.406
 5639POPC   PO470788  26.112  41.210   5.326
 5639POPC   GL170789  26.064  40.956   5.755
 5639POPC   GL270790  26.092  40.572   5.873
 5639POPC   C1A70791  25.870  40.893   6.173
 5639POPC   D2A70792  25.989  40.971   6.580
 5639POPC   C3A70793  25.926  40.726   6.918
 5639POPC   C4A70794  25.814  40.989   7.267
 5639POPC   C1B70795  26.198  40.520   6.325
 5639POPC   C2B70796  26.323  40.433   6.744
 5639POPC   C3B70797  26.371  40.562   7.148
 5639POPC   C4B70798  26.002  40.511   7.385
 5640POPC   NC370799  43.456  34.373   5.174
 5640POPC   PO470800  43.086  34.926   5.386
 5640POPC   GL170801  43.253  34.668   5.724
 5640POPC   GL270802  43.444  34.334   5.720
 5640POPC   C1A70803  43.063  34.488   6.094
 5640POPC   D2A70804  42.941  34.268   6.466
 5640POPC   C3A70805  43.028  34.483   6.837
 5640POPC   C4A70806  43.199  34.589   7.225
 5640POPC   C1B70807  43.559  34.322   6.159
 5640POPC   C2B70808  43.468  34.329   6.604
 5640POPC   C3B70809  43.593  34.312   7.041
 5640POPC   C4B70810  43.692  34.080   7.426
 5641POPC   NC370811  35.830   0.927   5.401
 5641POPC   PO470812  35.263   1.224   5.172
 5641POPC   GL170813  35.265   1.076   5.701
 5641POPC   GL270814  35.568   0.883   5.831
 5641POPC   C1A70815  35.429   1.247   6.171
 5641POPC   D2A70816  35.675   1.272   6.568
 5641POPC   C3A70817  35.351   1.225   6.887
 5641POPC   C4A70818  34.983   1.248   7.136
 5641POPC   C1B70819  35.768   0.812   6.214
 5641POPC   C2B70820  35.641   0.769   6.632
 5641POPC   C3B70821  35.735   0.913   7.027
 5641POPC   C4B70822  35.406   0.882   7.266
 5642POPC   NC370823   1.027  14.485   5.269
 5642POPC   PO470824   1.548  14.490   5.633
 5642POPC   GL170825   1.354  14.559   5.934
 5642POPC   GL270826   1.034  14.569   5.815
 5642POPC   C1A70827   1.477  14.604   6.353
 5642POPC   D2A70828   1.717  14.455   6.641
 5642POPC   C3A70829   1.457  14.317   6.900
 5642POPC   C4A70830   1.267  14.493   7.215
 5642POPC   C1B70831   1.043  14.325   6.232
 5642POPC   C2B70832   1.060  14.448   6.643
 5642POPC   C3B70833   0.839  14.646   6.968
 5642POPC   C4B70834   0.786  14.394   7.337
 5643POPC   NC370835  28.064  38.047   5.512
 5643POPC   PO470836  27.515  37.927   5.685
 5643POPC   GL170837  27.548  37.651   5.994
 5643POPC   GL270838  27.891  37.639   5.949
 5643POPC   C1A70839  27.403  37.527   6.401
 5643POPC   D2A70840  27.429  37.238   6.747
 5643POPC   C3A70841  27.530  37.370   7.201
 5643POPC   C4A70842  27.374  37.716   7.480
 5643POPC   C1B70843  27.799  37.864   6.382
 5643POPC   C2B70844  27.641  37.701   6.806
 5643POPC   C3B70845  27.774  37.852   7.179
 5643POPC   C4B70846  28.095  38.179   7.184
 5644POPC   NC370847   5.592  13.204   5.565
 5644POPC   PO470848   6.020  12.707   5.421
 5644POPC   GL170849   5.929  12.747   5.810
 5644POPC   GL270850   5.581  12.715   5.747
 5644POPC   C1A70851   5.952  13.034   6.162
 5644POPC   D2A70852   5.957  13.114   6.612
 5644POPC   C3A70853   6.160  12.950   6.984
 5644POPC   C4A70854   5.985  12.905   7.394
 5644POPC   C1B70855   5.597  12.685   6.191
 5644POPC   C2B70856   5.733  12.471   6.555
 5644POPC   C3B70857   5.772  12.621   6.958
 5644POPC   C4B70858   5.493  12.693   7.274
 5645POPC   NC370859  16.102  39.378   5.451
 5645POPC   PO470860  16.063  38.673   5.567
 5645POPC   GL170861  15.863  39.055   5.783
 5645POPC   GL270862  16.147  39.267   5.935
 5645POPC   C1A70863  15.735  39.224   6.194
 5645POPC   D2A70864  15.960  39.120   6.580
 5645POPC   C3A70865  15.701  39.076   6.948
 5645POPC   C4A70866  15.700  39.258   7.344
 5645POPC   C1B70867  16.136  39.572   6.276
 5645POPC   C2B70868  15.934  39.608   6.699
 5645POPC   C3B70869  16.117  39.357   7.043
 5645POPC   C4B70870  16.183  39.330   7.510
 5646POPC   NC370871  37.135  34.708   5.411
 5646POPC   PO470872  36.572  34.387   5.611
 5646POPC   GL170873  36.843  34.558   5.867
 5646POPC   GL270874  36.809  34.873   5.773
 5646POPC   C1A70875  36.874  34.569   6.294
 5646POPC   D2A70876  37.069  34.452   6.683
 5646POPC   C3A70877  36.818  34.485   7.024
 5646POPC   C4A70878  36.825  34.268   7.408
 5646POPC   C1B70879  37.130  34.976   6.084
 5646POPC   C2B70880  37.205  34.919   6.530
 5646POPC   C3B70881  37.119  34.934   6.961
 5646POPC   C4B70882  37.390  35.005   7.327
 5647POPC   NC370883  17.989  30.350   5.231
 5647POPC   PO470884  18.496  30.825   5.443
 5647POPC   GL170885  18.339  30.764   5.820
 5647POPC   GL270886  18.020  30.659   5.696
 5647POPC   C1A70887  18.473  30.793   6.262
 5647POPC   D2A70888  18.378  30.621   6.673
 5647POPC   C3A70889  18.397  30.862   7.072
 5647POPC   C4A70890  18.478  30.680   7.474
 5647POPC   C1B70891  18.022  30.488   6.125
 5647POPC   C2B70892  17.926  30.406   6.553
 5647POPC   C3B70893  17.923  30.688   6.896
 5647POPC   C4B70894  17.988  30.597   7.297
 5648POPC   NC370895   9.472  25.519   5.132
 5648POPC   PO470896   9.888  25.109   5.416
 5648POPC   GL170897   9.563  25.323   5.654
 5648POPC   GL270898   9.709  25.602   5.800
 5648POPC   C1A70899   9.448  25.344   6.129
 5648POPC   D2A70900   9.665  25.217   6.483
 5648POPC   C3A70901   9.454  25.089   6.843
 5648POPC   C4A70902   9.678  25.044   7.229
 5648POPC   C1B70903  10.004  25.387   6.090
 5648POPC   C2B70904  10.161  25.352   6.520
 5648POPC   C3B70905   9.945  25.428   6.919
 5648POPC   C4B70906  10.086  25.388   7.329
 5649POPC   NC370907  33.561  33.513   5.432
 5649POPC   PO470908  33.859  34.113   5.391
 5649POPC   GL170909  33.796  33.837   5.762
 5649POPC   GL270910  33.544  34.048   5.840
 5649POPC   C1A70911  33.843  33.705   6.210
 5649POPC   D2A70912  33.772  33.536   6.652
 5649POPC   C3A70913  33.829  33.639   7.111
 5649POPC   C4A70914  34.044  33.426   7.458
 5649POPC   C1B70915  33.308  34.188   6.194
 5649POPC   C2B70916  33.372  34.404   6.588
 5649POPC   C3B70917  33.567  34.296   6.985
 5649POPC   C4B70918  33.527  34.137   7.423
 5650POPC   NC370919  34.715  22.124   5.437
 5650POPC   PO470920  34.401  22.674   5.494
 5650POPC   GL170921  34.529  22.393   5.817
 5650POPC   GL270922  34.387  22.070   5.843
 5650POPC   C1A70923  34.672  22.297   6.233
 5650POPC   D2A70924  34.454  22.315   6.620
 5650POPC   C3A70925  34.657  22.281   6.975
 5650POPC   C4A70926  34.944  22.315   7.259
 5650POPC   C1B70927  34.306  21.926   6.253
 5650POPC   C2B70928  34.606  21.835   6.540
 5650POPC   C3B70929  34.353  21.861   6.866
 5650POPC   C4B70930  34.493  21.830   7.240
 5651POPC   NC370931  17.484   6.435   5.258
 5651POPC   PO470932  17.103   6.951   5.366
 5651POPC   GL170933  17.213   6.891   5.811
 5651POPC   GL270934  17.577   6.942   5.962
 5651POPC   C1A70935  17.161   6.798   6.249
 5651POPC   D2A70936  17.100   6.648   6.685
 5651POPC   C3A70937  17.354   6.702   7.070
 5651POPC   C4A70938  17.440   6.461   7.493
 5651POPC   C1B70939  17.665   6.851   6.403
 5651POPC   C2B70940  17.706   6.972   6.846
 5651POPC   C3B70941  17.834   6.723   7.263
 5651POPC   C4B70942  17.743   6.820   7.721
 5652POPC   NC370943   0.682   0.064   5.663
 5652POPC   PO470944   0.532  44.391   5.471
 5652POPC   GL170945   0.326  44.665   5.772
 5652POPC   GL270946   0.613  44.659   6.004
 5652POPC   C1A70947   0.162  44.837   6.172
 5652POPC   D2A70948   0.395  44.628   6.493
 5652POPC   C3A70949   0.372  44.712   6.910
 5652POPC   C4A70950   0.563  44.401   7.182
 5652POPC   C1B70951   0.721   0.003   6.322
 5652POPC   C2B70952   0.809   0.052   6.768
 5652POPC   C3B70953   0.789  44.878   7.193
 5652POPC   C4B70954   0.736  44.926   7.661
 5653POPC   NC370955  25.571  27.553   5.425
 5653POPC   PO470956  24.899  27.253   5.571
 5653POPC   GL170957  25.248  27.493   5.823
 5653POPC   GL270958  25.485  27.827   5.837
 5653POPC   C1A70959  25.201  27.658   6.227
 5653POPC   D2A70960  25.042  27.845   6.599
 5653POPC   C3A70961  25.177  27.591   6.924
 5653POPC   C4A70962  25.076  27.779   7.268
 5653POPC   C1B70963  25.683  27.867   6.207
 5653POPC   C2B70964  25.550  27.776   6.605
 5653POPC   C3B70965  25.637  27.809   7.022
 5653POPC   C4B70966  25.501  27.513   7.345
 5654POPC   NC370967  39.324  20.975   5.295
 5654POPC   PO470968  39.177  21.648   5.201
 5654POPC   GL170969  39.383  21.626   5.645
 5654POPC   GL270970  39.407  21.272   5.707
 5654POPC   C1A70971  39.348  21.603   6.126
 5654POPC   D2A70972  39.004  21.564   6.438
 5654POPC   C3A70973  39.100  21.488   6.872
 5654POPC   C4A70974  38.848  21.339   7.192
 5654POPC   C1B70975  39.516  21.101   6.115
 5654POPC   C2B70976  39.360  21.198   6.522
 5654POPC   C3B70977  39.528  21.188   6.916
 5654POPC   C4B70978  39.537  21.001   7.299
 5655POPC   NC370979  43.147  25.471   5.436
 5655POPC   PO470980  43.422  24.892   5.373
 5655POPC   GL170981  43.193  24.957   5.812
 5655POPC   GL270982  43.141  25.294   5.919
 5655POPC   C1A70983  43.119  25.000   6.313
 5655POPC   D2A70984  43.193  25.351   6.628
 5655POPC   C3A70985  43.265  25.252   7.090
 5655POPC   C4A70986  43.514  25.432   7.446
 5655POPC   C1B70987  42.823  25.450   6.256
 5655POPC   C2B70988  42.773  25.615   6.709
 5655POPC   C3B70989  42.762  25.348   7.107
 5655POPC   C4B70990  42.551  25.068   7.449
 5656POPC   NC370991  40.100  16.952   5.394
 5656POPC   PO470992  40.169  16.356   5.498
 5656POPC   GL170993  40.018  16.663   5.829
 5656POPC   GL270994  40.170  17.004   5.884
 5656POPC   C1A70995  39.876  16.818   6.259
 5656POPC   D2A70996  39.648  16.849   6.664
 5656POPC   C3A70997  39.895  16.747   7.040
 5656POPC   C4A70998  40.039  16.850   7.463
 5656POPC   C1B70999  40.346  17.039   6.262
 5656POPC   C2B71000  40.207  16.997   6.692
 5656POPC   C3B71001  40.341  17.109   7.125
 5656POPC   C4B71002  40.270  17.280   7.597
 5657POPC   NC371003  23.421  22.467   4.945
 5657POPC   PO471004  23.666  21.976   5.360
 5657POPC   GL171005  23.751  22.059   5.796
 5657POPC   GL271006  23.860  22.388   5.809
 5657POPC   C1A71007  23.541  22.192   6.188
 5657POPC   D2A71008  23.654  22.321   6.618
 5657POPC   C3A71009  23.596  22.139   7.052
 5657POPC   C4A71010  23.633  21.775   7.344
 5657POPC   C1B71011  23.914  22.640   6.177
 5657POPC   C2B71012  23.784  22.814   6.576
 5657POPC   C3B71013  23.715  22.660   7.002
 5657POPC   C4B71014  24.049  22.479   7.206
 5658POPC   NC371015  26.120  25.694   4.966
 5658POPC   PO471016  26.016  26.049   5.474
 5658POPC   GL171017  26.169  26.158   5.838
 5658POPC   GL271018  26.044  25.821   5.929
 5658POPC   C1A71019  26.003  26.289   6.221
 5658POPC   D2A71020  25.958  26.098   6.613
 5658POPC   C3A71021  26.078  26.270   6.976
 5658POPC   C4A71022  26.236  26.034   7.297
 5658POPC   C1B71023  26.156  25.618   6.242
 5658POPC   C2B71024  26.300  25.709   6.641
 5658POPC   C3B71025  26.026  25.701   6.965
 5658POPC   C4B71026  26.210  25.525   7.299
 5659POPC   NC371027  39.914  33.903   5.424
 5659POPC   PO471028  40.325  33.460   5.581
 5659POPC   GL171029  40.079  33.567   5.957
 5659POPC   GL271030  39.915  33.901   5.924
 5659POPC   C1A71031  40.013  33.718   6.395
 5659POPC   D2A71032  40.246  33.927   6.752
 5659POPC   C3A71033  40.098  33.835   7.159
 5659POPC   C4A71034  39.663  33.714   7.172
 5659POPC   C1B71035  39.710  34.119   6.231
 5659POPC   C2B71036  39.718  34.063   6.654
 5659POPC   C3B71037  39.796  34.225   7.017
 5659POPC   C4B71038  39.769  34.128   7.450
 5660POPC   NC371039  29.795   6.163   5.404
 5660POPC   PO471040  30.041   5.469   5.498
 5660POPC   GL171041  30.114   5.702   5.879
 5660POPC   GL271042  29.763   5.763   5.840
 5660POPC   C1A71043  30.170   5.985   6.248
 5660POPC   D2A71044  30.056   6.199   6.649
 5660POPC   C3A71045  30.242   5.932   6.954
 5660POPC   C4A71046  30.118   5.747   7.341
 5660POPC   C1B71047  29.768   5.548   6.231
 5660POPC   C2B71048  29.857   5.721   6.637
 5660POPC   C3B71049  29.740   5.858   7.033
 5660POPC   C4B71050  29.534   5.625   7.354
 5661POPC   NC371051   6.498   5.979   5.493
 5661POPC   PO471052   7.121   5.622   5.364
 5661POPC   GL171053   6.960   5.806   5.742
 5661POPC   GL271054   6.632   5.647   5.851
 5661POPC   C1A71055   6.888   5.975   6.154
 5661POPC   D2A71056   6.849   5.765   6.548
 5661POPC   C3A71057   7.066   5.889   6.877
 5661POPC   C4A71058   6.937   6.118   7.236
 5661POPC   C1B71059   6.459   5.617   6.249
 5661POPC   C2B71060   6.321   5.878   6.590
 5661POPC   C3B71061   6.329   5.941   7.021
 5661POPC   C4B71062   6.399   6.222   7.367
 5662POPC   NC371063  32.044  30.448   5.088
 5662POPC   PO471064  31.837  30.943   5.489
 5662POPC   GL171065  32.069  30.622   5.748
 5662POPC   GL271066  32.419  30.663   5.734
 5662POPC   C1A71067  32.219  30.474   6.193
 5662POPC   D2A71068  32.406  30.622   6.635
 5662POPC   C3A71069  32.213  30.499   7.095
 5662POPC   C4A71070  32.014  30.331   7.517
 5662POPC   C1B71071  32.295  30.974   6.130
 5662POPC   C2B71072  32.405  31.147   6.555
 5662POPC   C3B71073  32.634  31.035   6.966
 5662POPC   C4B71074  32.634  30.692   7.295
 5663POPC   NC371075  35.842  18.947   5.495
 5663POPC   PO471076  35.185  19.067   5.324
 5663POPC   GL171077  35.187  19.054   5.762
 5663POPC   GL271078  35.525  19.207   5.826
 5663POPC   C1A71079  35.211  18.978   6.219
 5663POPC   D2A71080  35.372  19.183   6.609
 5663POPC   C3A71081  35.279  18.982   7.023
 5663POPC   C4A71082  35.145  19.160   7.415
 5663POPC   C1B71083  35.755  19.295   6.218
 5663POPC   C2B71084  35.845  19.347   6.662
 5663POPC   C3B71085  35.561  19.430   7.038
 5663POPC   C4B71086  35.589  19.394   7.486
 5664POPC   NC371087   9.286  26.211   5.476
 5664POPC   PO471088   8.672  26.358   5.303
 5664POPC   GL171089   8.806  26.190   5.719
 5664POPC   GL271090   8.951  25.845   5.666
 5664POPC   C1A71091   8.764  25.987   6.154
 5664POPC   D2A71092   8.757  25.872   6.613
 5664POPC   C3A71093   8.852  26.219   6.918
 5664POPC   C4A71094   9.071  26.173   7.281
 5664POPC   C1B71095   9.280  25.833   5.999
 5664POPC   C2B71096   9.228  25.953   6.418
 5664POPC   C3B71097   9.248  25.893   6.875
 5664POPC   C4B71098   9.444  25.544   7.110
 5665POPC   NC371099   3.705   9.913   5.303
 5665POPC   PO471100   3.070   9.722   5.414
 5665POPC   GL171101   3.366   9.833   5.799
 5665POPC   GL271102   3.646  10.078   5.790
 5665POPC   C1A71103   3.365   9.957   6.268
 5665POPC   D2A71104   3.340   9.957   6.735
 5665POPC   C3A71105   3.255   9.591   6.948
 5665POPC   C4A71106   3.292   9.250   7.218
 5665POPC   C1B71107   3.822   9.778   6.070
 5665POPC   C2B71108   3.943   9.902   6.438
 5665POPC   C3B71109   3.845  10.079   6.785
 5665POPC   C4B71110   3.700   9.846   7.108
 5666POPC   NC371111  30.589  31.018   5.291
 5666POPC   PO471112  30.999  30.550   5.435
 5666POPC   GL171113  30.723  30.778   5.744
 5666POPC   GL271114  30.347  30.819   5.726
 5666POPC   C1A71115  30.615  31.014   6.130
 5666POPC   D2A71116  30.388  30.855   6.465
 5666POPC   C3A71117  30.548  30.949   6.855
 5666POPC   C4A71118  30.778  30.834   7.200
 5666POPC   C1B71119  30.435  30.505   6.075
 5666POPC   C2B71120  30.706  30.472   6.450
 5666POPC   C3B71121  30.641  30.419   6.914
 5666POPC   C4B71122  30.356  30.567   7.282
 5667POPC   NC371123  37.105   9.571   5.581
 5667POPC   PO471124  37.807   9.578   5.492
 5667POPC   GL171125  37.616   9.808   5.803
 5667POPC   GL271126  37.357  10.083   5.711
 5667POPC   C1A71127  37.804   9.686   6.187
 5667POPC   D2A71128  37.849   9.391   6.521
 5667POPC   C3A71129  37.776   9.615   6.888
 5667POPC   C4A71130  37.928   9.667   7.273
 5667POPC   C1B71131  37.457  10.141   6.177
 5667POPC   C2B71132  37.467   9.856   6.528
 5667POPC   C3B71133  37.286   9.720   6.892
 5667POPC   C4B71134  37.420   9.704   7.294
 5668POPC   NC371135  35.291  29.835   5.218
 5668POPC   PO471136  35.287  29.101   5.196
 5668POPC   GL171137  35.233  29.012   5.665
 5668POPC   GL271138  35.406  29.277   5.813
 5668POPC   C1A71139  35.347  28.883   6.124
 5668POPC   D2A71140  35.413  29.173   6.486
 5668POPC   C3A71141  35.201  29.121   6.903
 5668POPC   C4A71142  35.290  28.961   7.314
 5668POPC   C1B71143  35.745  29.418   6.079
 5668POPC   C2B71144  35.803  29.505   6.528
 5668POPC   C3B71145  35.601  29.465   6.914
 5668POPC   C4B71146  35.782  29.513   7.300
 5669POPC   NC371147  44.291  36.545   5.432
 5669POPC   PO471148  43.811  36.998   5.290
 5669POPC   GL171149  43.805  36.797   5.653
 5669POPC   GL271150  44.105  36.929   5.769
 5669POPC   C1A71151  43.710  36.738   6.081
 5669POPC   D2A71152  43.875  36.991   6.424
 5669POPC   C3A71153  43.904  36.894   6.874
 5669POPC   C4A71154  43.909  37.183   7.234
 5669POPC   C1B71155  44.202  36.682   6.150
 5669POPC   C2B71156  44.149  36.535   6.566
 5669POPC   C3B71157  44.324  36.617   6.975
 5669POPC   C4B71158  44.106  36.733   7.341
 5670POPC   NC371159  14.991  14.542   5.352
 5670POPC   PO471160  15.108  13.930   5.425
 5670POPC   GL171161  15.031  14.239   5.765
 5670POPC   GL271162  15.183  14.599   5.843
 5670POPC   C1A71163  14.995  14.254   6.203
 5670POPC   D2A71164  15.100  14.495   6.577
 5670POPC   C3A71165  15.318  14.336   6.915
 5670POPC   C4A71166  15.296  14.493   7.288
 5670POPC   C1B71167  14.878  14.772   6.188
 5670POPC   C2B71168  14.682  14.788   6.639
 5670POPC   C3B71169  14.861  14.721   7.078
 5670POPC   C4B71170  14.911  14.697   7.545
 5671POPC   NC371171  27.198  27.750   5.443
 5671POPC   PO471172  26.843  27.214   5.292
 5671POPC   GL171173  26.711  27.424   5.696
 5671POPC   GL271174  26.774  27.788   5.772
 5671POPC   C1A71175  26.604  27.453   6.150
 5671POPC   D2A71176  26.534  27.679   6.545
 5671POPC   C3A71177  26.729  27.586   6.935
 5671POPC   C4A71178  26.590  27.474   7.341
 5671POPC   C1B71179  26.875  27.985   6.187
 5671POPC   C2B71180  27.015  27.915   6.607
 5671POPC   C3B71181  27.183  27.888   7.021
 5671POPC   C4B71182  26.844  27.942   7.295
 5672POPC   NC371183  17.820  29.519   5.619
 5672POPC   PO471184  18.209  29.929   5.214
 5672POPC   GL171185  18.269  29.895   5.659
 5672POPC   GL271186  18.352  30.233   5.799
 5672POPC   C1A71187  18.305  29.791   6.108
 5672POPC   D2A71188  18.185  29.940   6.527
 5672POPC   C3A71189  18.367  29.690   6.855
 5672POPC   C4A71190  18.557  29.835   7.211
 5672POPC   C1B71191  18.549  30.263   6.244
 5672POPC   C2B71192  18.623  30.142   6.697
 5672POPC   C3B71193  18.316  30.255   7.032
 5672POPC   C4B71194  18.240  30.189   7.470
 5673POPC   NC371195  16.459   1.193   5.447
 5673POPC   PO471196  17.103   1.163   5.383
 5673POPC   GL171197  16.879   1.165   5.790
 5673POPC   GL271198  16.649   1.478   5.847
 5673POPC   C1A71199  16.791   1.180   6.240
 5673POPC   D2A71200  16.714   1.507   6.554
 5673POPC   C3A71201  16.770   1.328   6.947
 5673POPC   C4A71202  16.570   0.982   7.169
 5673POPC   C1B71203  16.339   1.583   6.199
 5673POPC   C2B71204  16.228   1.695   6.621
 5673POPC   C3B71205  16.274   1.514   7.009
 5673POPC   C4B71206  16.513   1.460   7.367
 5674POPC   NC371207  39.991   1.618   5.317
 5674POPC   PO471208  40.215   2.235   5.480
 5674POPC   GL171209  39.878   2.092   5.786
 5674POPC   GL271210  39.870   1.731   5.817
 5674POPC   C1A71211  39.778   2.004   6.242
 5674POPC   D2A71212  39.990   2.146   6.624
 5674POPC   C3A71213  39.783   2.267   6.992
 5674POPC   C4A71214  39.901   2.058   7.379
 5674POPC   C1B71215  40.132   1.630   6.202
 5674POPC   C2B71216  39.986   1.602   6.626
 5674POPC   C3B71217  39.955   1.654   7.072
 5674POPC   C4B71218  40.256   1.704   7.423
 5675POPC   NC371219   2.638  42.513   5.013
 5675POPC   PO471220   3.066  42.737   5.428
 5675POPC   GL171221   3.017  42.495   5.813
 5675POPC   GL271222   2.694  42.337   5.884
 5675POPC   C1A71223   3.026  42.567   6.246
 5675POPC   D2A71224   2.734  42.472   6.580
 5675POPC   C3A71225   2.941  42.436   6.955
 5675POPC   C4A71226   2.846  42.596   7.374
 5675POPC   C1B71227   2.815  42.099   6.212
 5675POPC   C2B71228   2.740  41.951   6.621
 5675POPC   C3B71229   2.674  42.023   7.073
 5675POPC   C4B71230   2.744  41.830   7.473
 5676POPC   NC371231  37.697  34.174   5.530
 5676POPC   PO471232  37.546  34.894   5.562
 5676POPC   GL171233  37.686  34.603   5.832
 5676POPC   GL271234  37.350  34.441   5.805
 5676POPC   C1A71235  37.905  34.557   6.228
 5676POPC   D2A71236  38.022  34.781   6.631
 5676POPC   C3A71237  37.668  34.910   6.899
 5676POPC   C4A71238  37.849  34.718   7.214
 5676POPC   C1B71239  37.375  34.512   6.234
 5676POPC   C2B71240  37.563  34.519   6.614
 5676POPC   C3B71241  37.684  34.305   6.963
 5676POPC   C4B71242  37.877  34.220   7.373
 5677POPC   NC371243  22.717  29.677   5.541
 5677POPC   PO471244  23.058  29.110   5.420
 5677POPC   GL171245  23.094  29.091   5.837
 5677POPC   GL271246  22.853  29.349   5.936
 5677POPC   C1A71247  23.185  29.040   6.270
 5677POPC   D2A71248  22.986  29.197   6.622
 5677POPC   C3A71249  23.173  29.033   6.960
 5677POPC   C4A71250  23.107  28.896   7.324
 5677POPC   C1B71251  22.815  29.605   6.319
 5677POPC   C2B71252  22.760  29.623   6.787
 5677POPC   C3B71253  22.802  29.396   7.188
 5677POPC   C4B71254  22.649  29.513   7.632
 5678POPC   NC371255  44.943  33.999   5.304
 5678POPC   PO471256  44.838  33.343   5.467
 5678POPC   GL171257  44.664  33.708   5.702
 5678POPC   GL271258  44.317  33.815   5.751
 5678POPC   C1A71259  44.675  33.847   6.132
 5678POPC   D2A71260  44.968  33.818   6.480
 5678POPC   C3A71261  44.850  33.763   6.934
 5678POPC   C4A71262  44.792  33.947   7.333
 5678POPC   C1B71263  44.195  33.640   6.166
 5678POPC   C2B71264  44.288  33.822   6.570
 5678POPC   C3B71265  44.353  33.616   6.952
 5678POPC   C4B71266  44.443  33.547   7.356
 5679POPC   NC371267  19.426  36.102   5.587
 5679POPC   PO471268  19.921  36.494   5.441
 5679POPC   GL171269  19.913  36.236   5.813
 5679POPC   GL271270  20.083  35.901   5.915
 5679POPC   C1A71271  19.771  36.216   6.222
 5679POPC   D2A71272  19.560  35.991   6.529
 5679POPC   C3A71273  19.684  36.156   6.899
 5679POPC   C4A71274  19.849  36.210   7.292
 5679POPC   C1B71275  20.088  35.859   6.401
 5679POPC   C2B71276  20.102  35.837   6.851
 5679POPC   C3B71277  19.778  35.725   7.169
 5679POPC   C4B71278  19.803  35.804   7.648
 5680POPC   NC371279  38.909  25.295   5.447
 5680POPC   PO471280  39.528  25.549   5.408
 5680POPC   GL171281  39.443  25.302   5.834
 5680POPC   GL271282  39.134  25.268   5.920
 5680POPC   C1A71283  39.408  25.333   6.352
 5680POPC   D2A71284  39.264  25.422   6.795
 5680POPC   C3A71285  39.515  25.324   7.173
 5680POPC   C4A71286  39.432  25.277   7.635
 5680POPC   C1B71287  38.983  25.061   6.297
 5680POPC   C2B71288  39.211  24.863   6.617
 5680POPC   C3B71289  39.256  24.924   7.035
 5680POPC   C4B71290  39.031  25.139   7.346
 5681POPC   NC371291   5.223  32.043   5.386
 5681POPC   PO471292   4.582  32.203   5.369
 5681POPC   GL171293   4.822  32.216   5.761
 5681POPC   GL271294   5.172  32.195   5.854
 5681POPC   C1A71295   4.851  32.427   6.184
 5681POPC   D2A71296   4.729  32.269   6.608
 5681POPC   C3A71297   4.838  32.108   7.030
 5681POPC   C4A71298   4.933  32.423   7.355
 5681POPC   C1B71299   5.292  32.144   6.266
 5681POPC   C2B71300   5.256  32.098   6.701
 5681POPC   C3B71301   5.352  32.167   7.132
 5681POPC   C4B71302   5.125  31.970   7.453
 5682POPC   NC371303   7.872  14.341   5.343
 5682POPC   PO471304   8.544  14.451   5.492
 5682POPC   GL171305   8.451  14.433   5.877
 5682POPC   GL271306   8.109  14.541   5.794
 5682POPC   C1A71307   8.572  14.206   6.246
 5682POPC   D2A71308   8.637  14.430   6.576
 5682POPC   C3A71309   8.412  14.426   6.960
 5682POPC   C4A71310   8.572  14.618   7.297
 5682POPC   C1B71311   8.057  14.230   6.127
 5682POPC   C2B71312   8.084  14.266   6.562
 5682POPC   C3B71313   8.029  14.027   6.924
 5682POPC   C4B71314   8.017  14.246   7.276
 5683POPC   NC371315  20.127  17.723   5.121
 5683POPC   PO471316  20.642  17.432   5.517
 5683POPC   GL171317  20.664  17.495   5.949
 5683POPC   GL271318  20.471  17.786   5.922
 5683POPC   C1A71319  20.748  17.453   6.388
 5683POPC   D2A71320  21.013  17.619   6.692
 5683POPC   C3A71321  20.851  17.700   7.075
 5683POPC   C4A71322  20.750  17.430   7.368
 5683POPC   C1B71323  20.271  17.645   6.300
 5683POPC   C2B71324  20.344  17.513   6.731
 5683POPC   C3B71325  20.311  17.715   7.147
 5683POPC   C4B71326  20.343  17.574   7.613
 5684POPC   NC371327  12.926  25.843   5.365
 5684POPC   PO471328  12.689  26.449   5.435
 5684POPC   GL171329  12.797  26.472   5.876
 5684POPC   GL271330  12.969  26.151   5.987
 5684POPC   C1A71331  12.836  26.506   6.331
 5684POPC   D2A71332  12.876  26.128   6.573
 5684POPC   C3A71333  12.921  26.117   7.008
 5684POPC   C4A71334  12.685  26.388   7.274
 5684POPC   C1B71335  12.632  25.862   6.213
 5684POPC   C2B71336  12.464  25.746   6.655
 5684POPC   C3B71337  12.686  25.583   7.029
 5684POPC   C4B71338  13.102  25.659   7.259
 5685POPC   NC371339   4.480   4.651   5.440
 5685POPC   PO471340   3.939   4.331   5.408
 5685POPC   GL171341   4.263   4.241   5.707
 5685POPC   GL271342   4.290   3.898   5.818
 5685POPC   C1A71343   4.373   4.336   6.130
 5685POPC   D2A71344   4.357   4.099   6.510
 5685POPC   C3A71345   4.370   4.333   6.859
 5685POPC   C4A71346   4.501   4.363   7.257
 5685POPC   C1B71347   3.984   3.957   6.172
 5685POPC   C2B71348   3.856   4.075   6.598
 5685POPC   C3B71349   4.028   3.966   6.973
 5685POPC   C4B71350   4.129   4.020   7.374
 5686POPC   NC371351   4.509  38.837   5.473
 5686POPC   PO471352   4.346  38.153   5.308
 5686POPC   GL171353   4.359  38.342   5.735
 5686POPC   GL271354   4.527  38.081   5.925
 5686POPC   C1A71355   4.209  38.510   6.168
 5686POPC   D2A71356   4.305  38.395   6.619
 5686POPC   C3A71357   4.108  38.561   7.011
 5686POPC   C4A71358   4.075  38.567   7.461
 5686POPC   C1B71359   4.683  38.347   6.251
 5686POPC   C2B71360   4.823  38.433   6.667
 5686POPC   C3B71361   4.598  38.374   7.054
 5686POPC   C4B71362   4.707  38.137   7.418
 5687POPC   NC371363   4.699  21.213   5.450
 5687POPC   PO471364   4.080  21.102   5.289
 5687POPC   GL171365   4.284  21.339   5.728
 5687POPC   GL271366   4.535  21.645   5.715
 5687POPC   C1A71367   4.450  21.332   6.219
 5687POPC   D2A71368   4.579  21.019   6.599
 5687POPC   C3A71369   4.514  21.093   7.056
 5687POPC   C4A71370   4.149  21.221   7.293
 5687POPC   C1B71371   4.459  21.846   6.131
 5687POPC   C2B71372   4.561  21.692   6.570
 5687POPC   C3B71373   4.417  21.604   7.005
 5687POPC   C4B71374   4.588  21.661   7.409
 5688POPC   NC371375  43.690  26.167   5.423
 5688POPC   PO471376  44.321  25.970   5.410
 5688POPC   GL171377  44.104  26.234   5.728
 5688POPC   GL271378  43.846  25.958   5.862
 5688POPC   C1A71379  43.904  26.378   6.130
 5688POPC   D2A71380  43.600  26.186   6.438
 5688POPC   C3A71381  43.708  26.144   6.914
 5688POPC   C4A71382  44.099  26.103   7.195
 5688POPC   C1B71383  43.767  25.719   6.260
 5688POPC   C2B71384  43.676  25.552   6.694
 5688POPC   C3B71385  43.801  25.674   7.113
 5688POPC   C4B71386  43.910  25.764   7.550
 5689POPC   NC371387  30.227   5.032   5.487
 5689POPC   PO471388  29.530   4.802   5.473
 5689POPC   GL171389  29.779   4.999   5.800
 5689POPC   GL271390  30.098   4.819   5.921
 5689POPC   C1A71391  29.752   4.986   6.243
 5689POPC   D2A71392  29.921   5.205   6.581
 5689POPC   C3A71393  29.698   5.328   6.955
 5689POPC   C4A71394  29.615   5.097   7.334
 5689POPC   C1B71395  30.197   5.241   6.122
 5689POPC   C2B71396  30.309   5.524   6.466
 5689POPC   C3B71397  30.240   5.424   6.908
 5689POPC   C4B71398  30.208   5.229   7.299
 5690POPC   NC371399  36.946  27.858   5.432
 5690POPC   PO471400  37.229  27.283   5.394
 5690POPC   GL171401  37.031  27.472   5.758
 5690POPC   GL271402  36.680  27.625   5.793
 5690POPC   C1A71403  37.033  27.489   6.182
 5690POPC   D2A71404  37.231  27.467   6.589
 5690POPC   C3A71405  37.035  27.510   6.949
 5690POPC   C4A71406  37.092  27.774   7.290
 5690POPC   C1B71407  36.564  27.753   6.208
 5690POPC   C2B71408  36.408  27.560   6.586
 5690POPC   C3B71409  36.505  27.596   7.020
 5690POPC   C4B71410  36.742  27.413   7.356
 5691POPC   NC371411  15.454  39.709   5.479
 5691POPC   PO471412  15.479  40.393   5.518
 5691POPC   GL171413  15.215  40.259   5.854
 5691POPC   GL271414  15.209  39.918   5.863
 5691POPC   C1A71415  14.986  40.156   6.249
 5691POPC   D2A71416  14.891  39.852   6.584
 5691POPC   C3A71417  15.033  40.015   6.963
 5691POPC   C4A71418  15.177  40.429   7.125
 5691POPC   C1B71419  15.290  39.649   6.208
 5691POPC   C2B71420  15.399  39.693   6.604
 5691POPC   C3B71421  15.457  39.522   6.969
 5691POPC   C4B71422  15.436  39.683   7.365
 5692POPC   NC371423  24.366   0.495   5.275
 5692POPC   PO471424  24.820   0.364   5.705
 5692POPC   GL171425  24.396   0.428   5.822
 5692POPC   GL271426  24.282   0.726   6.024
 5692POPC   C1A71427  24.320   0.131   6.155
 5692POPC   D2A71428  24.587   0.111   6.509
 5692POPC   C3A71429  24.341   0.162   6.870
 5692POPC   C4A71430  24.513   0.199   7.267
 5692POPC   C1B71431  24.609   0.579   6.300
 5692POPC   C2B71432  24.714   0.560   6.744
 5692POPC   C3B71433  24.399   0.655   7.056
 5692POPC   C4B71434  24.364   0.641   7.513
 5693POPC   NC371435  41.793  27.327   5.433
 5693POPC   PO471436  41.041  27.385   5.374
 5693POPC   GL171437  41.393  27.385   5.746
 5693POPC   GL271438  41.708  27.641   5.833
 5693POPC   C1A71439  41.445  27.416   6.203
 5693POPC   D2A71440  41.286  27.711   6.476
 5693POPC   C3A71441  41.264  27.566   6.903
 5693POPC   C4A71442  41.353  27.913   7.132
 5693POPC   C1B71443  41.898  27.612   6.280
 5693POPC   C2B71444  41.768  27.702   6.729
 5693POPC   C3B71445  41.739  27.567   7.171
 5693POPC   C4B71446  42.015  27.584   7.545
 5694POPC   NC371447  38.809  26.617   5.591
 5694POPC   PO471448  39.420  26.785   5.303
 5694POPC   GL171449  39.313  26.926   5.757
 5694POPC   GL271450  39.390  26.635   5.944
 5694POPC   C1A71451  39.544  27.018   6.205
 5694POPC   D2A71452  39.579  26.916   6.657
 5694POPC   C3A71453  39.153  26.838   6.882
 5694POPC   C4A71454  39.029  27.028   7.294
 5694POPC   C1B71455  39.112  26.715   6.325
 5694POPC   C2B71456  38.874  26.459   6.643
 5694POPC   C3B71457  39.048  26.325   7.040
 5694POPC   C4B71458  39.348  26.581   7.276
 5695POPC   NC371459   0.723  26.133   5.509
 5695POPC   PO471460   0.148  26.529   5.471
 5695POPC   GL171461   0.258  26.309   5.854
 5695POPC   GL271462   0.400  25.974   5.878
 5695POPC   C1A71463   0.390  26.323   6.312
 5695POPC   D2A71464   0.483  26.071   6.697
 5695POPC   C3A71465   0.410  26.196   7.100
 5695POPC   C4A71466   0.089  26.398   7.266
 5695POPC   C1B71467   0.303  25.795   6.282
 5695POPC   C2B71468   0.073  25.667   6.641
 5695POPC   C3B71469   0.213  25.717   7.062
 5695POPC   C4B71470   0.625  25.720   7.190
 5696POPC   NC371471  32.900  37.868   5.355
 5696POPC   PO471472  33.144  37.315   5.523
 5696POPC   GL171473  32.839  37.593   5.808
 5696POPC   GL271474  32.884  37.977   5.852
 5696POPC   C1A71475  32.734  37.710   6.258
 5696POPC   D2A71476  32.564  37.882   6.666
 5696POPC   C3A71477  32.780  37.725   7.023
 5696POPC   C4A71478  32.999  37.394   7.268
 5696POPC   C1B71479  33.015  38.162   6.267
 5696POPC   C2B71480  33.058  38.026   6.697
 5696POPC   C3B71481  33.210  37.969   7.141
 5696POPC   C4B71482  32.991  37.889   7.514
 5697POPC   NC371483  31.270  29.265   5.439
 5697POPC   PO471484  31.507  28.603   5.449
 5697POPC   GL171485  31.438  28.931   5.816
 5697POPC   GL271486  31.117  29.138   5.912
 5697POPC   C1A71487  31.568  29.281   6.132
 5697POPC   D2A71488  31.428  29.415   6.550
 5697POPC   C3A71489  31.492  29.148   6.899
 5697POPC   C4A71490  31.623  29.318   7.282
 5697POPC   C1B71491  31.220  28.959   6.326
 5697POPC   C2B71492  31.624  28.799   6.517
 5697POPC   C3B71493  31.660  28.618   6.939
 5697POPC   C4B71494  31.543  28.802   7.327
 5698POPC   NC371495  10.439  21.012   5.420
 5698POPC   PO471496  10.759  20.462   5.498
 5698POPC   GL171497  10.613  20.762   5.837
 5698POPC   GL271498  10.261  20.956   5.887
 5698POPC   C1A71499  10.767  20.633   6.211
 5698POPC   D2A71500  10.888  20.497   6.601
 5698POPC   C3A71501  10.785  20.856   6.833
 5698POPC   C4A71502  10.921  21.105   7.186
 5698POPC   C1B71503  10.166  20.776   6.266
 5698POPC   C2B71504  10.383  20.532   6.567
 5698POPC   C3B71505  10.350  20.633   6.977
 5698POPC   C4B71506  10.361  20.426   7.307
 5699POPC   NC371507  39.657  43.692   5.427
 5699POPC   PO471508  40.302  43.465   5.445
 5699POPC   GL171509  40.090  43.717   5.811
 5699POPC   GL271510  40.141  44.085   5.861
 5699POPC   C1A71511  40.134  43.812   6.283
 5699POPC   D2A71512  40.382  43.686   6.643
 5699POPC   C3A71513  40.095  43.787   6.973
 5699POPC   C4A71514  39.766  44.037   7.149
 5699POPC   C1B71515  40.343  44.277   6.231
 5699POPC   C2B71516  40.280  44.209   6.698
 5699POPC   C3B71517  40.277  44.214   7.167
 5699POPC   C4B71518  40.324  44.256   7.619
 5700POPC   NC371519  19.110  15.688   5.416
 5700POPC   PO471520  18.772  16.191   5.636
 5700POPC   GL171521  19.140  16.092   5.910
 5700POPC   GL271522  19.301  15.762   5.924
 5700POPC   C1A71523  19.171  16.059   6.363
 5700POPC   D2A71524  18.852  16.059   6.665
 5700POPC   C3A71525  18.963  15.968   7.091
 5700POPC   C4A71526  18.772  15.856   7.480
 5700POPC   C1B71527  18.907  15.654   6.213
 5700POPC   C2B71528  18.755  15.555   6.675
 5700POPC   C3B71529  18.779  15.467   7.152
 5700POPC   C4B71530  18.980  15.391   7.575
 5701POPC   NC371531  39.532   5.203   5.730
 5701POPC   PO471532  40.020   5.094   5.258
 5701POPC   GL171533  40.257   5.150   5.653
 5701POPC   GL271534  40.457   4.834   5.635
 5701POPC   C1A71535  40.149   5.223   6.098
 5701POPC   D2A71536  39.898   5.263   6.473
 5701POPC   C3A71537  40.096   5.220   6.874
 5701POPC   C4A71538  39.804   5.150   7.201
 5701POPC   C1B71539  40.403   4.768   6.082
 5701POPC   C2B71540  40.223   4.848   6.485
 5701POPC   C3B71541  40.189   4.702   6.891
 5701POPC   C4B71542  40.245   4.855   7.279
 5702POPC   NC371543   4.756  35.442   5.454
 5702POPC   PO471544   5.187  34.911   5.431
 5702POPC   GL171545   5.148  35.214   5.789
 5702POPC   GL271546   5.008  35.507   5.892
 5702POPC   C1A71547   5.318  35.268   6.210
 5702POPC   D2A71548   5.365  35.150   6.619
 5702POPC   C3A71549   5.106  35.350   6.905
 5702POPC   C4A71550   5.153  35.579   7.291
 5702POPC   C1B71551   4.827  35.424   6.304
 5702POPC   C2B71552   4.662  35.493   6.705
 5702POPC   C3B71553   4.677  35.537   7.138
 5702POPC   C4B71554   4.781  35.272   7.462
 5703POPC   NC371555  44.112   6.067   5.421
 5703POPC   PO471556  43.659   6.624   5.498
 5703POPC   GL171557  43.995   6.617   5.738
 5703POPC   GL271558  43.887   6.292   5.808
 5703POPC   C1A71559  43.984   6.710   6.170
 5703POPC   D2A71560  43.959   6.928   6.552
 5703POPC   C3A71561  43.872   6.669   6.889
 5703POPC   C4A71562  44.150   6.613   7.253
 5703POPC   C1B71563  44.075   6.201   6.154
 5703POPC   C2B71564  44.189   6.379   6.559
 5703POPC   C3B71565  44.059   6.201   6.948
 5703POPC   C4B71566  43.750   6.284   7.284
 5704POPC   NC371567  37.192  26.465   5.518
 5704POPC   PO471568  37.077  25.771   5.219
 5704POPC   GL171569  36.983  26.001   5.628
 5704POPC   GL271570  36.643  26.073   5.750
 5704POPC   C1A71571  37.040  26.049   6.084
 5704POPC   D2A71572  36.924  26.131   6.538
 5704POPC   C3A71573  37.137  25.814   6.812
 5704POPC   C4A71574  37.308  25.761   7.236
 5704POPC   C1B71575  36.649  26.387   6.116
 5704POPC   C2B71576  36.396  26.501   6.485
 5704POPC   C3B71577  36.512  26.356   6.908
 5704POPC   C4B71578  36.848  26.111   7.126
 5705POPC   NC371579   9.411  20.820   5.636
 5705POPC   PO471580   8.988  20.381   5.456
 5705POPC   GL171581   8.833  20.564   5.838
 5705POPC   GL271582   8.902  20.918   5.855
 5705POPC   C1A71583   8.799  20.516   6.283
 5705POPC   D2A71584   8.480  20.311   6.561
 5705POPC   C3A71585   8.672  20.336   6.959
 5705POPC   C4A71586   9.053  20.341   7.203
 5705POPC   C1B71587   8.609  20.961   6.216
 5705POPC   C2B71588   8.575  20.821   6.657
 5705POPC   C3B71589   8.685  20.960   7.070
 5705POPC   C4B71590   8.731  20.714   7.440
 5706POPC   NC371591   2.067  23.877   5.122
 5706POPC   PO471592   1.619  23.461   5.324
 5706POPC   GL171593   1.793  23.736   5.723
 5706POPC   GL271594   2.118  23.648   5.976
 5706POPC   C1A71595   1.691  23.771   6.181
 5706POPC   D2A71596   1.958  23.501   6.490
 5706POPC   C3A71597   1.927  23.628   6.936
 5706POPC   C4A71598   1.890  23.469   7.361
 5706POPC   C1B71599   2.388  23.749   6.337
 5706POPC   C2B71600   2.414  23.587   6.753
 5706POPC   C3B71601   2.352  23.453   7.178
 5706POPC   C4B71602   2.407  23.585   7.638
 5707POPC   NC371603  41.454   6.644   5.426
 5707POPC   PO471604  42.071   6.497   5.552
 5707POPC   GL171605  41.683   6.521   5.862
 5707POPC   GL271606  41.570   6.857   5.897
 5707POPC   C1A71607  41.471   6.412   6.261
 5707POPC   D2A71608  41.685   6.213   6.627
 5707POPC   C3A71609  41.723   6.599   6.858
 5707POPC   C4A71610  41.671   6.856   7.231
 5707POPC   C1B71611  41.310   6.916   6.249
 5707POPC   C2B71612  41.352   6.926   6.706
 5707POPC   C3B71613  41.184   6.758   7.111
 5707POPC   C4B71614  41.095   6.791   7.564
 5708POPC   NC371615  40.985   9.113   5.442
 5708POPC   PO471616  40.680   8.560   5.282
 5708POPC   GL171617  40.696   8.747   5.704
 5708POPC   GL271618  40.618   9.122   5.827
 5708POPC   C1A71619  40.917   8.788   6.099
 5708POPC   D2A71620  40.739   9.017   6.447
 5708POPC   C3A71621  40.819   8.845   6.826
 5708POPC   C4A71622  40.731   8.702   7.198
 5708POPC   C1B71623  40.992   9.308   6.099
 5708POPC   C2B71624  41.115   9.362   6.560
 5708POPC   C3B71625  40.809   9.352   6.888
 5708POPC   C4B71626  40.795   9.184   7.285
 5709POPC   NC371627  32.703  42.477   5.465
 5709POPC   PO471628  33.332  42.659   5.451
 5709POPC   GL171629  33.167  42.305   5.727
 5709POPC   GL271630  33.462  42.309   5.913
 5709POPC   C1A71631  33.032  42.156   6.160
 5709POPC   D2A71632  32.716  42.384   6.422
 5709POPC   C3A71633  32.828  42.429   6.863
 5709POPC   C4A71634  33.038  42.187   7.156
 5709POPC   C1B71635  33.253  42.618   6.137
 5709POPC   C2B71636  33.187  42.582   6.537
 5709POPC   C3B71637  33.391  42.394   6.863
 5709POPC   C4B71638  33.515  42.399   7.285
 5710POPC   NC371639  14.150  14.696   5.512
 5710POPC   PO471640  14.433  15.316   5.383
 5710POPC   GL171641  14.482  15.447   5.794
 5710POPC   GL271642  14.189  15.222   5.858
 5710POPC   C1A71643  14.419  15.459   6.251
 5710POPC   D2A71644  14.454  15.246   6.609
 5710POPC   C3A71645  14.543  15.497   6.939
 5710POPC   C4A71646  14.504  15.293   7.315
 5710POPC   C1B71647  14.272  14.920   6.219
 5710POPC   C2B71648  14.063  14.927   6.613
 5710POPC   C3B71649  14.200  15.025   7.009
 5710POPC   C4B71650  14.024  15.058   7.432
 5711POPC   NC371651  39.628  23.069   5.245
 5711POPC   PO471652  39.224  22.573   5.196
 5711POPC   GL171653  39.257  22.995   5.573
 5711POPC   GL271654  39.539  23.001   5.774
 5711POPC   C1A71655  39.118  23.095   6.028
 5711POPC   D2A71656  39.207  23.178   6.457
 5711POPC   C3A71657  38.924  23.262   6.812
 5711POPC   C4A71658  39.164  23.401   7.150
 5711POPC   C1B71659  39.683  22.940   6.203
 5711POPC   C2B71660  39.586  22.758   6.608
 5711POPC   C3B71661  39.299  22.912   6.922
 5711POPC   C4B71662  39.187  22.848   7.353
 5712POPC   NC371663  38.309   1.759   5.367
 5712POPC   PO471664  38.629   2.419   5.315
 5712POPC   GL171665  38.610   2.092   5.657
 5712POPC   GL271666  38.269   2.021   5.797
 5712POPC   C1A71667  38.654   2.011   6.131
 5712POPC   D2A71668  38.579   2.247   6.523
 5712POPC   C3A71669  38.502   2.032   6.885
 5712POPC   C4A71670  38.793   1.814   7.163
 5712POPC   C1B71671  38.209   1.681   6.084
 5712POPC   C2B71672  38.219   1.795   6.514
 5712POPC   C3B71673  38.132   1.650   6.916
 5712POPC   C4B71674  38.287   1.843   7.301
 5713POPC   NC371675  20.026  17.805   5.668
 5713POPC   PO471676  19.787  17.386   5.235
 5713POPC   GL171677  19.872  17.268   5.691
 5713POPC   GL271678  20.218  17.300   5.755
 5713POPC   C1A71679  19.867  17.341   6.167
 5713POPC   D2A71680  19.807  17.600   6.534
 5713POPC   C3A71681  19.883  17.437   6.942
 5713POPC   C4A71682  19.810  17.575   7.350
 5713POPC   C1B71683  20.335  17.146   6.151
 5713POPC   C2B71684  20.114  16.951   6.490
 5713POPC   C3B71685  20.171  16.977   6.910
 5713POPC   C4B71686  20.260  17.220   7.260
 5714POPC   NC371687  40.028  23.659   5.513
 5714POPC   PO471688  40.073  22.993   5.395
 5714POPC   GL171689  40.072  22.967   5.822
 5714POPC   GL271690  39.931  23.298   5.885
 5714POPC   C1A71691  40.133  22.693   6.187
 5714POPC   D2A71692  40.097  22.863   6.582
 5714POPC   C3A71693  40.000  22.702   6.935
 5714POPC   C4A71694  39.725  22.954   7.213
 5714POPC   C1B71695  40.125  23.247   6.253
 5714POPC   C2B71696  40.284  23.340   6.639
 5714POPC   C3B71697  40.095  23.239   7.000
 5714POPC   C4B71698  40.254  22.994   7.307
 5715POPC   NC371699   5.472  38.616   5.623
 5715POPC   PO471700   5.983  38.098   5.489
 5715POPC   GL171701   5.827  38.307   5.856
 5715POPC   GL271702   5.901  38.672   5.921
 5715POPC   C1A71703   5.587  38.341   6.250
 5715POPC   D2A71704   5.592  38.519   6.672
 5715POPC   C3A71705   5.566  38.213   7.018
 5715POPC   C4A71706   5.778  38.018   7.403
 5715POPC   C1B71707   5.594  38.858   6.260
 5715POPC   C2B71708   5.661  39.065   6.666
 5715POPC   C3B71709   5.967  38.849   6.911
 5715POPC   C4B71710   5.945  38.509   7.164
 5716POPC   NC371711  31.639  35.818   5.319
 5716POPC   PO471712  31.161  36.261   5.490
 5716POPC   GL171713  31.506  36.127   5.710
 5716POPC   GL271714  31.651  36.466   5.708
 5716POPC   C1A71715  31.551  35.886   6.092
 5716POPC   D2A71716  31.487  35.966   6.554
 5716POPC   C3A71717  31.816  35.878   6.884
 5716POPC   C4A71718  31.760  35.618   7.259
 5716POPC   C1B71719  31.494  36.410   6.136
 5716POPC   C2B71720  31.592  36.510   6.553
 5716POPC   C3B71721  31.516  36.312   6.930
 5716POPC   C4B71722  31.327  35.896   7.109
 5717POPC   NC371723  31.897  12.398   5.558
 5717POPC   PO471724  32.507  12.446   5.729
 5717POPC   GL171725  32.202  12.742   5.827
 5717POPC   GL271726  32.270  13.063   5.635
 5717POPC   C1A71727  32.182  12.753   6.279
 5717POPC   D2A71728  32.461  12.794   6.608
 5717POPC   C3A71729  32.289  12.598   6.946
 5717POPC   C4A71730  32.478  12.461   7.291
 5717POPC   C1B71731  32.051  13.193   6.028
 5717POPC   C2B71732  32.198  13.246   6.446
 5717POPC   C3B71733  32.127  13.095   6.869
 5717POPC   C4B71734  32.418  13.001   7.214
 5718POPC   NC371735   4.503  29.785   5.356
 5718POPC   PO471736   4.113  30.299   5.212
 5718POPC   GL171737   4.389  30.158   5.687
 5718POPC   GL271738   4.661  29.900   5.831
 5718POPC   C1A71739   4.292  29.976   6.174
 5718POPC   D2A71740   4.117  30.208   6.536
 5718POPC   C3A71741   4.164  30.013   6.924
 5718POPC   C4A71742   4.224  29.629   7.156
 5718POPC   C1B71743   4.799  30.047   6.228
 5718POPC   C2B71744   4.616  30.030   6.637
 5718POPC   C3B71745   4.662  29.812   7.014
 5718POPC   C4B71746   4.455  30.054   7.336
 5719POPC   NC371747  40.547  25.104   5.469
 5719POPC   PO471748  41.203  25.123   5.288
 5719POPC   GL171749  41.013  25.219   5.699
 5719POPC   GL271750  40.777  25.521   5.706
 5719POPC   C1A71751  40.897  25.125   6.139
 5719POPC   D2A71752  40.632  25.314   6.463
 5719POPC   C3A71753  40.819  25.327   6.863
 5719POPC   C4A71754  40.665  25.233   7.245
 5719POPC   C1B71755  41.062  25.632   6.031
 5719POPC   C2B71756  41.087  25.614   6.470
 5719POPC   C3B71757  41.151  25.788   6.891
 5719POPC   C4B71758  40.885  25.687   7.234
 5720POPC   NC371759   4.164   6.296   5.183
 5720POPC   PO471760   4.579   5.845   5.401
 5720POPC   GL171761   4.358   5.946   5.823
 5720POPC   GL271762   4.086   5.722   5.924
 5720POPC   C1A71763   4.199   6.060   6.281
 5720POPC   D2A71764   4.103   5.774   6.662
 5720POPC   C3A71765   4.476   5.717   6.981
 5720POPC   C4A71766   4.594   6.099   7.195
 5720POPC   C1B71767   4.378   5.555   6.263
 5720POPC   C2B71768   4.315   5.307   6.655
 5720POPC   C3B71769   4.079   5.375   7.092
 5720POPC   C4B71770   4.002   5.568   7.549
 5721POPC   NC371771   8.310  32.496   5.515
 5721POPC   PO471772   7.927  31.907   5.525
 5721POPC   GL171773   8.124  32.156   5.848
 5721POPC   GL271774   8.016  32.510   5.977
 5721POPC   C1A71775   8.248  32.190   6.279
 5721POPC   D2A71776   7.964  32.378   6.563
 5721POPC   C3A71777   8.074  32.261   6.972
 5721POPC   C4A71778   8.403  32.061   7.184
 5721POPC   C1B71779   8.314  32.717   6.293
 5721POPC   C2B71780   8.706  32.687   6.499
 5721POPC   C3B71781   8.524  32.460   6.828
 5721POPC   C4B71782   8.341  32.613   7.235
 5722POPC   NC371783   5.917  27.059   5.256
 5722POPC   PO471784   5.705  27.679   5.097
 5722POPC   GL171785   5.833  27.633   5.547
 5722POPC   GL271786   5.606  27.462   5.764
 5722POPC   C1A71787   6.076  27.555   5.942
 5722POPC   D2A71788   6.159  27.300   6.311
 5722POPC   C3A71789   6.122  27.392   6.770
 5722POPC   C4A71790   6.126  27.389   7.230
 5722POPC   C1B71791   5.628  27.785   6.067
 5722POPC   C2B71792   5.785  27.699   6.492
 5722POPC   C3B71793   5.759  27.705   6.939
 5722POPC   C4B71794   5.618  27.441   7.243
 5723POPC   NC371795  37.992  30.881   5.422
 5723POPC   PO471796  37.459  30.434   5.482
 5723POPC   GL171797  37.671  30.644   5.807
 5723POPC   GL271798  37.465  30.878   5.996
 5723POPC   C1A71799  37.787  30.597   6.259
 5723POPC   D2A71800  37.459  30.805   6.531
 5723POPC   C3A71801  37.517  30.768   6.973
 5723POPC   C4A71802  37.925  30.623   7.183
 5723POPC   C1B71803  37.790  31.109   6.243
 5723POPC   C2B71804  37.919  31.228   6.677
 5723POPC   C3B71805  37.825  31.132   7.141
 5723POPC   C4B71806  37.627  30.892   7.507
 5724POPC   NC371807  15.727  44.845   5.426
 5724POPC   PO471808  16.244  44.355   5.540
 5724POPC   GL171809  15.997  44.590   5.795
 5724POPC   GL271810  15.663  44.511   5.819
 5724POPC   C1A71811  16.007  44.741   6.198
 5724POPC   D2A71812  16.266  44.709   6.563
 5724POPC   C3A71813  16.068  44.878   6.892
 5724POPC   C4A71814  16.066  44.724   7.278
 5724POPC   C1B71815  15.565  44.450   6.225
 5724POPC   C2B71816  15.673  44.606   6.623
 5724POPC   C3B71817  15.611  44.659   7.057
 5724POPC   C4B71818  15.747  44.353   7.359
 5725POPC   NC371819  33.459  31.884   5.691
 5725POPC   PO471820  33.944  32.367   5.498
 5725POPC   GL171821  33.642  32.332   5.895
 5725POPC   GL271822  33.730  32.046   6.091
 5725POPC   C1A71823  33.594  32.594   6.305
 5725POPC   D2A71824  33.914  32.697   6.635
 5725POPC   C3A71825  33.818  32.555   7.051
 5725POPC   C4A71826  33.647  32.243   7.307
 5725POPC   C1B71827  33.369  32.130   6.354
 5725POPC   C2B71828  33.381  32.183   6.815
 5725POPC   C3B71829  33.474  31.821   7.086
 5725POPC   C4B71830  33.643  31.745   7.517
 5726POPC   NC371831  11.815  25.286   5.333
 5726POPC   PO471832  12.497  25.637   5.382
 5726POPC   GL171833  12.343  25.321   5.747
 5726POPC   GL271834  11.989  25.141   5.798
 5726POPC   C1A71835  12.292  25.342   6.218
 5726POPC   D2A71836  11.958  25.470   6.531
 5726POPC   C3A71837  12.114  25.436   6.953
 5726POPC   C4A71838  12.195  25.498   7.417
 5726POPC   C1B71839  12.000  24.916   6.191
 5726POPC   C2B71840  12.146  24.984   6.586
 5726POPC   C3B71841  12.079  24.840   6.952
 5726POPC   C4B71842  11.926  25.051   7.284
 5727POPC   NC371843  34.566  11.701   5.443
 5727POPC   PO471844  34.663  11.085   5.409
 5727POPC   GL171845  34.506  11.125   5.796
 5727POPC   GL271846  34.656  11.443   5.882
 5727POPC   C1A71847  34.372  11.174   6.225
 5727POPC   D2A71848  34.401  11.487   6.533
 5727POPC   C3A71849  34.657  11.515   6.891
 5727POPC   C4A71850  34.484  11.677   7.269
 5727POPC   C1B71851  34.873  11.371   6.274
 5727POPC   C2B71852  34.900  11.086   6.626
 5727POPC   C3B71853  34.837  11.063   7.068
 5727POPC   C4B71854  34.885  11.391   7.356
 5728POPC   NC371855  38.793  41.087   5.322
 5728POPC   PO471856  38.465  40.603   5.167
 5728POPC   GL171857  38.495  40.601   5.665
 5728POPC   GL271858  38.622  40.950   5.833
 5728POPC   C1A71859  38.511  40.491   6.117
 5728POPC   D2A71860  38.440  40.720   6.507
 5728POPC   C3A71861  38.201  40.615   6.865
 5728POPC   C4A71862  38.074  40.816   7.212
 5728POPC   C1B71863  38.856  40.901   6.248
 5728POPC   C2B71864  38.919  40.732   6.693
 5728POPC   C3B71865  38.674  40.827   7.064
 5728POPC   C4B71866  38.660  41.271   7.224
 5729POPC   NC371867  26.284  39.687   5.532
 5729POPC   PO471868  26.329  40.412   5.381
 5729POPC   GL171869  26.366  40.167   5.713
 5729POPC   GL271870  25.991  40.095   5.670
 5729POPC   C1A71871  26.365  40.052   6.151
 5729POPC   D2A71872  26.544  39.983   6.561
 5729POPC   C3A71873  26.243  39.963   6.914
 5729POPC   C4A71874  26.323  40.095   7.329
 5729POPC   C1B71875  25.845  40.041   6.118
 5729POPC   C2B71876  25.907  40.171   6.566
 5729POPC   C3B71877  25.801  40.222   7.003
 5729POPC   C4B71878  25.845  39.945   7.334
 5730POPC   NC371879  44.905  31.749   5.388
 5730POPC   PO471880  44.461  31.252   5.421
 5730POPC   GL171881  44.497  31.572   5.686
 5730POPC   GL271882  44.820  31.442   5.790
 5730POPC   C1A71883  44.428  31.610   6.118
 5730POPC   D2A71884  44.578  31.836   6.464
 5730POPC   C3A71885  44.551  31.573   6.824
 5730POPC   C4A71886  44.323  31.413   7.184
 5730POPC   C1B71887   0.025  31.610   6.141
 5730POPC   C2B71888   0.004  31.509   6.560
 5730POPC   C3B71889   0.073  31.643   6.946
 5730POPC   C4B71890  44.809  31.547   7.265
 5731POPC   NC371891  11.103  21.717   5.501
 5731POPC   PO471892  11.499  21.129   5.583
 5731POPC   GL171893  11.190  21.321   5.877
 5731POPC   GL271894  11.176  21.013   6.083
 5731POPC   C1A71895  11.001  21.436   6.304
 5731POPC   D2A71896  10.871  21.343   6.719
 5731POPC   C3A71897  10.897  21.631   7.059
 5731POPC   C4A71898  11.151  21.642   7.453
 5731POPC   C1B71899  11.505  21.323   6.260
 5731POPC   C2B71900  11.440  21.492   6.636
 5731POPC   C3B71901  11.326  21.352   7.021
 5731POPC   C4B71902  11.509  21.293   7.419
 5732POPC   NC371903  27.412  10.734   5.379
 5732POPC   PO471904  27.861  10.232   5.432
 5732POPC   GL171905  27.809  10.479   5.744
 5732POPC   GL271906  27.973  10.253   5.975
 5732POPC   C1A71907  27.656  10.673   6.113
 5732POPC   D2A71908  27.717  10.909   6.475
 5732POPC   C3A71909  27.745  10.856   6.899
 5732POPC   C4A71910  27.536  10.746   7.238
 5732POPC   C1B71911  27.995  10.425   6.414
 5732POPC   C2B71912  27.701  10.380   6.757
 5732POPC   C3B71913  27.708  10.257   7.203
 5732POPC   C4B71914  27.577   9.994   7.570
 5733POPC   NC371915   5.479  15.411   5.326
 5733POPC   PO471916   6.154  15.308   5.328
 5733POPC   GL171917   5.926  15.327   5.728
 5733POPC   GL271918   5.959  14.995   5.827
 5733POPC   C1A71919   5.715  15.327   6.147
 5733POPC   D2A71920   5.585  15.108   6.521
 5733POPC   C3A71921   5.735  15.250   6.881
 5733POPC   C4A71922   5.576  15.306   7.266
 5733POPC   C1B71923   5.873  14.831   6.207
 5733POPC   C2B71924   6.090  14.981   6.516
 5733POPC   C3B71925   6.147  14.892   6.895
 5733POPC   C4B71926   5.862  14.848   7.176
 5734POPC   NC371927  39.558   8.858   5.488
 5734POPC   PO471928  38.807   8.696   5.463
 5734POPC   GL171929  38.971   8.792   5.848
 5734POPC   GL271930  39.247   9.020   5.865
 5734POPC   C1A71931  38.989   8.865   6.280
 5734POPC   D2A71932  39.309   8.880   6.548
 5734POPC   C3A71933  39.289   8.815   6.952
 5734POPC   C4A71934  39.273   9.060   7.281
 5734POPC   C1B71935  39.604   9.018   6.155
 5734POPC   C2B71936  39.720   9.183   6.552
 5734POPC   C3B71937  39.753   9.055   6.967
 5734POPC   C4B71938  39.690   8.802   7.317
 5735POPC   NC371939  23.147   1.412   5.508
 5735POPC   PO471940  22.523   1.123   5.461
 5735POPC   GL171941  22.660   1.141   5.884
 5735POPC   GL271942  22.992   1.142   5.899
 5735POPC   C1A71943  22.704   1.211   6.319
 5735POPC   D2A71944  22.869   1.382   6.711
 5735POPC   C3A71945  22.683   1.320   7.116
 5735POPC   C4A71946  22.602   1.600   7.477
 5735POPC   C1B71947  23.208   1.193   6.247
 5735POPC   C2B71948  23.354   1.456   6.548
 5735POPC   C3B71949  23.324   1.480   6.971
 5735POPC   C4B71950  23.166   1.171   7.191
 5736POPC   NC371951   1.184  32.927   5.542
 5736POPC   PO471952   1.139  33.562   5.361
 5736POPC   GL171953   1.127  33.394   5.785
 5736POPC   GL271954   1.425  33.244   5.867
 5736POPC   C1A71955   1.227  33.532   6.229
 5736POPC   D2A71956   1.251  33.424   6.662
 5736POPC   C3A71957   0.997  33.077   6.801
 5736POPC   C4A71958   1.037  32.959   7.232
 5736POPC   C1B71959   1.228  32.991   6.218
 5736POPC   C2B71960   1.408  32.853   6.612
 5736POPC   C3B71961   1.510  33.046   7.015
 5736POPC   C4B71962   1.671  32.856   7.395
 5737POPC   NC371963   5.005  18.106   5.189
 5737POPC   PO471964   5.383  18.582   5.520
 5737POPC   GL171965   4.957  18.401   5.711
 5737POPC   GL271966   4.912  18.007   5.681
 5737POPC   C1A71967   4.880  18.550   6.150
 5737POPC   D2A71968   5.182  18.565   6.493
 5737POPC   C3A71969   5.034  18.483   6.908
 5737POPC   C4A71970   5.294  18.215   7.150
 5737POPC   C1B71971   4.891  18.052   6.124
 5737POPC   C2B71972   4.794  18.194   6.541
 5737POPC   C3B71973   4.618  17.989   6.903
 5737POPC   C4B71974   4.795  18.140   7.270
 5738POPC   NC371975  21.752   4.436   5.379
 5738POPC   PO471976  22.370   4.386   5.103
 5738POPC   GL171977  22.269   4.405   5.618
 5738POPC   GL271978  22.582   4.485   5.867
 5738POPC   C1A71979  22.196   4.255   6.087
 5738POPC   D2A71980  22.070   4.368   6.509
 5738POPC   C3A71981  22.015   4.084   6.843
 5738POPC   C4A71982  22.369   4.052   7.077
 5738POPC   C1B71983  22.466   4.655   6.280
 5738POPC   C2B71984  22.251   4.803   6.675
 5738POPC   C3B71985  22.227   4.585   7.081
 5738POPC   C4B71986  22.478   4.730   7.415
 5739POPC   NC371987  28.511  40.377   5.503
 5739POPC   PO471988  28.183  39.779   5.401
 5739POPC   GL171989  28.424  39.838   5.789
 5739POPC   GL271990  28.720  39.632   5.828
 5739POPC   C1A71991  28.350  39.970   6.219
 5739POPC   D2A71992  28.443  40.058   6.637
 5739POPC   C3A71993  28.102  40.014   6.895
 5739POPC   C4A71994  28.134  39.897   7.286
 5739POPC   C1B71995  28.795  39.694   6.256
 5739POPC   C2B71996  28.763  39.663   6.690
 5739POPC   C3B71997  28.639  39.889   7.095
 5739POPC   C4B71998  28.787  39.786   7.507
 5740POPC   NC371999  26.491  43.386   5.501
 5740POPC   PO472000  25.997  42.942   5.334
 5740POPC   GL172001  25.823  42.966   5.743
 5740POPC   GL272002  26.087  43.233   5.795
 5740POPC   C1A72003  25.818  43.127   6.190
 5740POPC   D2A72004  26.123  43.209   6.523
 5740POPC   C3A72005  25.913  43.167   6.878
 5740POPC   C4A72006  26.053  43.144   7.262
 5740POPC   C1B72007  26.208  42.819   6.031
 5740POPC   C2B72008  26.303  42.742   6.469
 5740POPC   C3B72009  26.279  42.752   6.915
 5740POPC   C4B72010  26.484  42.839   7.315
 5741POPC   NC372011  32.943  39.593   5.013
 5741POPC   PO472012  33.247  39.239   5.583
 5741POPC   GL172013  33.019  39.100   5.895
 5741POPC   GL272014  33.026  39.483   5.988
 5741POPC   C1A72015  33.041  39.123   6.344
 5741POPC   D2A72016  33.132  39.493   6.572
 5741POPC   C3A72017  33.205  39.367   7.020
 5741POPC   C4A72018  32.842  39.154   7.256
 5741POPC   C1B72019  32.644  39.638   6.114
 5741POPC   C2B72020  32.481  39.511   6.497
 5741POPC   C3B72021  32.719  39.463   6.854
 5741POPC   C4B72022  32.841  39.661   7.229
 5742POPC   NC372023   9.947  18.029   5.200
 5742POPC   PO472024   9.485  18.605   5.206
 5742POPC   GL172025   9.580  18.502   5.655
 5742POPC   GL272026   9.511  18.181   5.702
 5742POPC   C1A72027   9.812  18.493   6.082
 5742POPC   D2A72028   9.882  18.255   6.494
 5742POPC   C3A72029   9.867  18.528   6.858
 5742POPC   C4A72030   9.745  18.386   7.242
 5742POPC   C1B72031   9.574  18.029   6.130
 5742POPC   C2B72032   9.394  17.996   6.548
 5742POPC   C3B72033   9.438  18.101   6.978
 5742POPC   C4B72034   9.443  18.010   7.468
 5743POPC   NC372035  13.902  21.626   5.467
 5743POPC   PO472036  13.588  22.347   5.428
 5743POPC   GL172037  13.664  22.220   5.804
 5743POPC   GL272038  13.532  21.904   5.800
 5743POPC   C1A72039  13.599  22.181   6.247
 5743POPC   D2A72040  13.444  22.327   6.628
 5743POPC   C3A72041  13.747  22.199   6.917
 5743POPC   C4A72042  13.771  22.317   7.301
 5743POPC   C1B72043  13.274  21.817   6.130
 5743POPC   C2B72044  13.187  21.861   6.550
 5743POPC   C3B72045  13.371  21.870   6.929
 5743POPC   C4B72046  13.297  21.926   7.342
 5744POPC   NC372047  11.822  34.106   5.445
 5744POPC   PO472048  11.110  34.009   5.417
 5744POPC   GL172049  11.244  33.918   5.849
 5744POPC   GL272050  11.208  33.559   5.951
 5744POPC   C1A72051  11.192  33.987   6.272
 5744POPC   D2A72052  10.937  33.847   6.592
 5744POPC   C3A72053  11.126  34.085   6.893
 5744POPC   C4A72054  11.416  33.959   7.195
 5744POPC   C1B72055  11.249  33.479   6.372
 5744POPC   C2B72056  11.385  33.617   6.740
 5744POPC   C3B72057  11.307  33.457   7.122
 5744POPC   C4B72058  11.531  33.524   7.492
 5745POPC   NC372059  13.137  19.395   5.457
 5745POPC   PO472060  12.691  18.929   5.405
 5745POPC   GL172061  12.701  18.887   5.862
 5745POPC   GL272062  12.686  19.232   6.005
 5745POPC   C1A72063  12.741  18.812   6.315
 5745POPC   D2A72064  12.890  19.082   6.650
 5745POPC   C3A72065  12.664  18.976   7.001
 5745POPC   C4A72066  12.814  18.580   7.198
 5745POPC   C1B72067  13.128  19.139   6.168
 5745POPC   C2B72068  13.396  19.172   6.554
 5745POPC   C3B72069  13.302  19.361   6.948
 5745POPC   C4B72070  13.041  19.176   7.255
 5746POPC   NC372071  29.731  18.336   5.387
 5746POPC   PO472072  30.233  17.905   5.361
 5746POPC   GL172073  30.067  18.239   5.758
 5746POPC   GL272074  29.697  18.323   5.900
 5746POPC   C1A72075  30.070  18.619   6.092
 5746POPC   D2A72076  30.024  18.821   6.527
 5746POPC   C3A72077  30.011  18.447   6.802
 5746POPC   C4A72078  29.944  18.203   7.161
 5746POPC   C1B72079  29.610  18.065   6.276
 5746POPC   C2B72080  29.675  17.993   6.730
 5746POPC   C3B72081  29.583  17.823   7.165
 5746POPC   C4B72082  29.601  17.783   7.669
 5747POPC   NC372083   7.745  11.914   5.489
 5747POPC   PO472084   7.223  12.365   5.310
 5747POPC   GL172085   7.189  12.168   5.742
 5747POPC   GL272086   7.517  12.037   5.913
 5747POPC   C1A72087   7.098  12.024   6.185
 5747POPC   D2A72088   7.421  12.066   6.469
 5747POPC   C3A72089   7.300  12.122   6.891
 5747POPC   C4A72090   7.552  11.959   7.201
 5747POPC   C1B72091   7.794  12.243   6.165
 5747POPC   C2B72092   7.691  12.505   6.498
 5747POPC   C3B72093   7.712  12.437   6.936
 5747POPC   C4B72094   7.704  12.718   7.266
 5748POPC   NC372095  36.953  21.106   5.184
 5748POPC   PO472096  36.678  21.629   5.330
 5748POPC   GL172097  36.812  21.437   5.729
 5748POPC   GL272098  36.469  21.369   5.781
 5748POPC   C1A72099  37.066  21.474   6.162
 5748POPC   D2A72100  36.927  21.508   6.582
 5748POPC   C3A72101  37.184  21.518   6.933
 5748POPC   C4A72102  37.133  21.772   7.302
 5748POPC   C1B72103  36.613  21.248   6.193
 5748POPC   C2B72104  36.694  21.064   6.622
 5748POPC   C3B72105  36.654  21.356   7.012
 5748POPC   C4B72106  36.526  21.339   7.488
 5749POPC   NC372107  28.541  32.658   5.594
 5749POPC   PO472108  28.254  32.073   5.472
 5749POPC   GL172109  28.393  31.950   5.857
 5749POPC   GL272110  28.730  32.121   5.889
 5749POPC   C1A72111  28.190  31.819   6.239
 5749POPC   D2A72112  28.361  31.728   6.632
 5749POPC   C3A72113  28.521  32.062   6.862
 5749POPC   C4A72114  28.362  32.065   7.262
 5749POPC   C1B72115  28.525  32.201   6.300
 5749POPC   C2B72116  28.140  32.324   6.510
 5749POPC   C3B72117  27.938  32.548   6.855
 5749POPC   C4B72118  28.090  32.487   7.257
 5750POPC   NC372119   5.828  29.127   5.179
 5750POPC   PO472120   5.869  29.502   5.711
 5750POPC   GL172121   6.114  29.308   5.993
 5750POPC   GL272122   6.004  28.962   5.897
 5750POPC   C1A72123   6.142  29.476   6.428
 5750POPC   D2A72124   5.738  29.574   6.621
 5750POPC   C3A72125   5.774  29.272   6.932
 5750POPC   C4A72126   6.020  29.401   7.277
 5750POPC   C1B72127   6.231  28.839   6.274
 5750POPC   C2B72128   6.132  28.874   6.730
 5750POPC   C3B72129   6.121  28.911   7.163
 5750POPC   C4B72130   5.698  28.906   7.289
 5751POPC   NC372131  42.556  28.103   5.617
 5751POPC   PO472132  42.144  27.608   5.504
 5751POPC   GL172133  42.449  27.338   5.727
 5751POPC   GL272134  42.381  27.607   5.968
 5751POPC   C1A72135  42.485  27.161   6.164
 5751POPC   D2A72136  42.354  27.478   6.477
 5751POPC   C3A72137  42.200  27.443   6.908
 5751POPC   C4A72138  42.433  27.499   7.286
 5751POPC   C1B72139  42.674  27.854   6.206
 5751POPC   C2B72140  42.808  27.943   6.619
 5751POPC   C3B72141  42.659  27.878   7.019
 5751POPC   C4B72142  42.610  27.999   7.433
 5752POPC   NC372143   5.449  29.489   5.504
 5752POPC   PO472144   5.095  28.925   5.449
 5752POPC   GL172145   4.884  29.263   5.709
 5752POPC   GL272146   4.733  29.014   5.928
 5752POPC   C1A72147   4.962  29.480   6.119
 5752POPC   D2A72148   5.234  29.329   6.480
 5752POPC   C3A72149   5.117  29.385   6.924
 5752POPC   C4A72150   5.238  29.231   7.322
 5752POPC   C1B72151   4.832  28.855   6.312
 5752POPC   C2B72152   4.844  28.971   6.732
 5752POPC   C3B72153   5.009  28.821   7.115
 5752POPC   C4B72154   4.842  28.839   7.508
 5753POPC   NC372155  35.069   8.431   5.270
 5753POPC   PO472156  35.135   7.785   5.317
 5753POPC   GL172157  35.050   8.029   5.673
 5753POPC   GL272158  35.233   8.354   5.750
 5753POPC   C1A72159  35.141   7.980   6.113
 5753POPC   D2A72160  35.199   8.200   6.484
 5753POPC   C3A72161  35.077   8.131   6.911
 5753POPC   C4A72162  35.165   8.474   7.219
 5753POPC   C1B72163  35.627   8.335   5.985
 5753POPC   C2B72164  35.704   8.235   6.408
 5753POPC   C3B72165  35.578   8.263   6.845
 5753POPC   C4B72166  35.687   8.285   7.264
 5754POPC   NC372167   1.599  26.197   5.031
 5754POPC   PO472168   2.021  25.896   5.490
 5754POPC   GL172169   2.123  26.028   5.858
 5754POPC   GL272170   2.338  25.755   5.892
 5754POPC   C1A72171   1.931  25.933   6.241
 5754POPC   D2A72172   1.729  25.797   6.602
 5754POPC   C3A72173   1.933  26.010   6.892
 5754POPC   C4A72174   2.005  26.021   7.299
 5754POPC   C1B72175   2.468  25.930   6.255
 5754POPC   C2B72176   2.387  26.120   6.635
 5754POPC   C3B72177   2.429  25.921   7.025
 5754POPC   C4B72178   2.506  26.021   7.442
 5755POPC   NC372179  29.453  28.903   5.592
 5755POPC   PO472180  29.956  29.274   5.232
 5755POPC   GL172181  30.006  29.247   5.704
 5755POPC   GL272182  30.171  28.948   5.838
 5755POPC   C1A72183  30.133  29.370   6.134
 5755POPC   D2A72184  29.839  29.352   6.492
 5755POPC   C3A72185  29.986  29.210   6.855
 5755POPC   C4A72186  29.812  29.348   7.206
 5755POPC   C1B72187  29.850  28.928   6.197
 5755POPC   C2B72188  29.740  28.782   6.634
 5755POPC   C3B72189  29.787  28.833   7.118
 5755POPC   C4B72190  30.118  29.019   7.408
 5756POPC   NC372191  31.243  18.544   5.638
 5756POPC   PO472192  31.523  17.977   5.146
 5756POPC   GL172193  31.616  18.068   5.640
 5756POPC   GL272194  31.878  18.181   5.761
 5756POPC   C1A72195  31.433  18.149   6.103
 5756POPC   D2A72196  31.243  18.487   6.393
 5756POPC   C3A72197  31.300  18.480   6.862
 5756POPC   C4A72198  31.324  18.221   7.248
 5756POPC   C1B72199  31.848  18.444   6.140
 5756POPC   C2B72200  31.704  18.322   6.567
 5756POPC   C3B72201  31.782  18.396   7.026
 5756POPC   C4B72202  31.799  18.071   7.369
 5757POPC   NC372203  16.165   2.765   5.334
 5757POPC   PO472204  15.529   2.628   5.201
 5757POPC   GL172205  15.732   2.837   5.644
 5757POPC   GL272206  16.067   3.042   5.747
 5757POPC   C1A72207  15.818   2.810   6.127
 5757POPC   D2A72208  16.209   2.686   6.379
 5757POPC   C3A72209  16.192   2.704   6.849
 5757POPC   C4A72210  15.780   2.831   7.062
 5757POPC   C1B72211  16.075   3.245   6.164
 5757POPC   C2B72212  16.004   3.119   6.612
 5757POPC   C3B72213  16.187   3.198   7.037
 5757POPC   C4B72214  16.087   3.287   7.489
 5758POPC   NC372215  29.901  44.105   5.512
 5758POPC   PO472216  30.456  43.630   5.591
 5758POPC   GL172217  30.080  43.712   5.772
 5758POPC   GL272218  30.238  44.035   5.873
 5758POPC   C1A72219  29.775  43.763   6.121
 5758POPC   D2A72220  29.775  43.927   6.540
 5758POPC   C3A72221  29.924  43.650   6.830
 5758POPC   C4A72222  29.903  43.608   7.243
 5758POPC   C1B72223  30.269  43.813   6.247
 5758POPC   C2B72224  30.293  43.989   6.647
 5758POPC   C3B72225  30.299  43.881   7.074
 5758POPC   C4B72226  29.946  44.093   7.266
 5759POPC   NC372227  38.189  40.895   5.389
 5759POPC   PO472228  37.516  40.843   5.372
 5759POPC   GL172229  37.388  40.861   5.808
 5759POPC   GL272230  37.452  41.195   5.860
 5759POPC   C1A72231  37.464  40.786   6.253
 5759POPC   D2A72232  37.314  40.717   6.691
 5759POPC   C3A72233  37.622  40.539   7.026
 5759POPC   C4A72234  37.630  40.794   7.430
 5759POPC   C1B72235  37.860  41.004   6.017
 5759POPC   C2B72236  37.943  40.855   6.456
 5759POPC   C3B72237  37.748  41.001   6.848
 5759POPC   C4B72238  37.808  41.249   7.216
 5760POPC   NC372239  20.235  10.757   5.489
 5760POPC   PO472240  19.612  10.607   5.352
 5760POPC   GL172241  19.824  10.626   5.807
 5760POPC   GL272242  19.507  10.639   5.993
 5760POPC   C1A72243  19.952  10.391   6.264
 5760POPC   D2A72244  20.165  10.081   6.586
 5760POPC   C3A72245  20.022  10.138   7.020
 5760POPC   C4A72246  19.715  10.416   7.268
 5760POPC   C1B72247  19.807  10.883   6.280
 5760POPC   C2B72248  19.927  10.895   6.753
 5760POPC   C3B72249  19.747  10.933   7.195
 5760POPC   C4B72250  19.298  10.923   7.374
 5761POPC   NC372251  34.377  42.964   5.109
 5761POPC   PO472252  34.552  42.338   5.346
 5761POPC   GL172253  34.577  42.342   5.796
 5761POPC   GL272254  34.862  42.530   5.857
 5761POPC   C1A72255  34.401  42.368   6.200
 5761POPC   D2A72256  34.457  42.134   6.575
 5761POPC   C3A72257  34.422  42.306   6.959
 5761POPC   C4A72258  34.635  42.314   7.332
 5761POPC   C1B72259  34.909  42.371   6.266
 5761POPC   C2B72260  34.760  42.556   6.652
 5761POPC   C3B72261  34.968  42.653   7.067
 5761POPC   C4B72262  35.012  42.642   7.531
 5762POPC   NC372263  14.626  21.459   5.451
 5762POPC   PO472264  13.985  21.134   5.443
 5762POPC   GL172265  14.285  21.241   5.769
 5762POPC   GL272266  14.628  21.025   5.752
 5762POPC   C1A72267  14.301  21.383   6.215
 5762POPC   D2A72268  14.540  21.437   6.616
 5762POPC   C3A72269  14.265  21.365   6.960
 5762POPC   C4A72270  14.119  21.457   7.375
 5762POPC   C1B72271  14.732  21.100   6.192
 5762POPC   C2B72272  14.577  20.924   6.578
 5762POPC   C3B72273  14.649  21.028   6.996
 5762POPC   C4B72274  14.776  21.099   7.428
 5763POPC   NC372275  22.357   8.597   5.470
 5763POPC   PO472276  21.926   9.261   5.529
 5763POPC   GL172277  22.131   9.168   5.907
 5763POPC   GL272278  22.171   8.793   5.907
 5763POPC   C1A72279  22.251   9.062   6.330
 5763POPC   D2A72280  22.029   8.764   6.570
 5763POPC   C3A72281  21.849   9.075   6.786
 5763POPC   C4A72282  22.108   9.257   7.111
 5763POPC   C1B72283  22.397   8.582   6.243
 5763POPC   C2B72284  22.591   8.702   6.640
 5763POPC   C3B72285  22.369   8.839   6.996
 5763POPC   C4B72286  21.933   8.716   7.148
 5764POPC   NC372287   2.899  23.969   5.095
 5764POPC   PO472288   2.827  24.597   5.368
 5764POPC   GL172289   2.765  24.532   5.813
 5764POPC   GL272290   2.884  24.206   5.844
 5764POPC   C1A72291   2.903  24.608   6.254
 5764POPC   D2A72292   2.919  24.912   6.595
 5764POPC   C3A72293   2.828  24.726   6.995
 5764POPC   C4A72294   2.994  24.313   7.018
 5764POPC   C1B72295   2.555  24.233   6.191
 5764POPC   C2B72296   2.410  24.203   6.644
 5764POPC   C3B72297   2.478  24.292   7.100
 5764POPC   C4B72298   2.630  24.016   7.473
 5765POPC   NC372299  19.481  29.197   5.261
 5765POPC   PO472300  20.093  28.967   5.452
 5765POPC   GL172301  19.818  29.199   5.691
 5765POPC   GL272302  19.592  28.942   5.707
 5765POPC   C1A72303  19.760  29.374   6.122
 5765POPC   D2A72304  19.895  29.517   6.543
 5765POPC   C3A72305  19.950  29.183   6.849
 5765POPC   C4A72306  19.694  29.144   7.190
 5765POPC   C1B72307  19.610  28.843   6.125
 5765POPC   C2B72308  19.532  28.961   6.556
 5765POPC   C3B72309  19.690  28.724   6.893
 5765POPC   C4B72310  19.921  28.686   7.244
 5766POPC   NC372311  18.799   1.083   5.434
 5766POPC   PO472312  19.341   1.422   5.407
 5766POPC   GL172313  19.140   1.257   5.780
 5766POPC   GL272314  18.794   1.435   5.841
 5766POPC   C1A72315  18.889   0.999   6.088
 5766POPC   D2A72316  18.798   0.983   6.530
 5766POPC   C3A72317  19.081   1.180   6.826
 5766POPC   C4A72318  19.091   1.000   7.245
 5766POPC   C1B72319  19.053   1.466   6.222
 5766POPC   C2B72320  19.345   1.552   6.504
 5766POPC   C3B72321  19.386   1.602   6.927
 5766POPC   C4B72322  19.097   1.527   7.226
 5767POPC   NC372323  40.872  12.112   5.324
 5767POPC   PO472324  40.268  12.387   5.217
 5767POPC   GL172325  40.451  12.100   5.651
 5767POPC   GL272326  40.731  11.918   5.786
 5767POPC   C1A72327  40.602  12.233   6.143
 5767POPC   D2A72328  40.815  12.061   6.514
 5767POPC   C3A72329  40.648  12.080   6.928
 5767POPC   C4A72330  40.656  11.897   7.328
 5767POPC   C1B72331  40.794  11.685   6.167
 5767POPC   C2B72332  41.023  11.583   6.538
 5767POPC   C3B72333  41.086  11.802   6.890
 5767POPC   C4B72334  41.399  11.978   7.131
 5768POPC   NC372335  37.946  16.177   5.623
 5768POPC   PO472336  37.421  16.000   5.241
 5768POPC   GL172337  37.459  15.902   5.736
 5768POPC   GL272338  37.568  16.191   5.961
 5768POPC   C1A72339  37.502  15.772   6.220
 5768POPC   D2A72340  37.806  15.669   6.556
 5768POPC   C3A72341  37.728  15.720   6.952
 5768POPC   C4A72342  37.379  15.859   7.202
 5768POPC   C1B72343  37.955  16.033   6.232
 5768POPC   C2B72344  37.934  16.169   6.627
 5768POPC   C3B72345  37.583  16.226   6.875
 5768POPC   C4B72346  37.821  16.142   7.195
 5769POPC   NC372347  24.757  35.009   5.442
 5769POPC   PO472348  24.327  35.415   5.143
 5769POPC   GL172349  24.340  35.338   5.640
 5769POPC   GL272350  24.543  35.171   5.860
 5769POPC   C1A72351  24.183  35.446   6.085
 5769POPC   D2A72352  24.188  35.311   6.541
 5769POPC   C3A72353  24.558  35.344   6.790
 5769POPC   C4A72354  24.713  35.628   7.117
 5769POPC   C1B72355  24.466  35.000   6.223
 5769POPC   C2B72356  24.707  34.911   6.556
 5769POPC   C3B72357  24.617  34.788   6.940
 5769POPC   C4B72358  24.604  35.088   7.241
 5770POPC   NC372359   3.934  25.377   5.389
 5770POPC   PO472360   4.556  25.286   5.204
 5770POPC   GL172361   4.579  25.366   5.660
 5770POPC   GL272362   4.244  25.405   5.800
 5770POPC   C1A72363   4.679  25.361   6.113
 5770POPC   D2A72364   4.621  25.021   6.402
 5770POPC   C3A72365   4.410  25.082   6.765
 5770POPC   C4A72366   4.474  25.021   7.173
 5770POPC   C1B72367   4.162  25.195   6.221
 5770POPC   C2B72368   3.998  25.371   6.617
 5770POPC   C3B72369   4.054  25.365   7.063
 5770POPC   C4B72370   3.902  25.632   7.402
 5771POPC   NC372371   8.316  40.935   5.419
 5771POPC   PO472372   8.306  40.224   5.378
 5771POPC   GL172373   8.369  40.479   5.761
 5771POPC   GL272374   8.143  40.735   5.842
 5771POPC   C1A72375   8.238  40.467   6.249
 5771POPC   D2A72376   8.174  40.687   6.654
 5771POPC   C3A72377   8.432  40.589   7.015
 5771POPC   C4A72378   8.120  40.663   7.304
 5771POPC   C1B72379   8.237  40.978   6.218
 5771POPC   C2B72380   8.442  41.121   6.540
 5771POPC   C3B72381   8.224  41.190   6.871
 5771POPC   C4B72382   8.412  41.073   7.173
 5772POPC   NC372383   4.466  37.719   5.147
 5772POPC   PO472384   5.175  37.753   5.319
 5772POPC   GL172385   5.105  37.634   5.757
 5772POPC   GL272386   4.921  37.303   5.854
 5772POPC   C1A72387   5.338  37.547   6.122
 5772POPC   D2A72388   5.573  37.468   6.497
 5772POPC   C3A72389   5.359  37.334   6.894
 5772POPC   C4A72390   5.258  37.688   7.123
 5772POPC   C1B72391   4.941  37.292   6.300
 5772POPC   C2B72392   4.909  37.493   6.692
 5772POPC   C3B72393   4.848  37.391   7.118
 5772POPC   C4B72394   4.710  37.256   7.556
 5773POPC   NC372395  26.280  21.564   5.077
 5773POPC   PO472396  25.699  21.323   5.238
 5773POPC   GL172397  25.846  21.279   5.664
 5773POPC   GL272398  25.828  20.920   5.769
 5773POPC   C1A72399  26.100  21.442   6.038
 5773POPC   D2A72400  25.935  21.501   6.452
 5773POPC   C3A72401  26.093  21.544   6.849
 5773POPC   C4A72402  25.877  21.639   7.219
 5773POPC   C1B72403  25.947  20.952   6.245
 5773POPC   C2B72404  25.954  21.022   6.723
 5773POPC   C3B72405  25.892  21.128   7.164
 5773POPC   C4B72406  26.189  21.283   7.506
 5774POPC   NC372407  42.128  43.551   5.581
 5774POPC   PO472408  42.721  43.869   5.531
 5774POPC   GL172409  42.566  43.791   5.925
 5774POPC   GL272410  42.228  43.843   5.986
 5774POPC   C1A72411  42.634  43.738   6.366
 5774POPC   D2A72412  42.553  43.673   6.819
 5774POPC   C3A72413  42.489  44.064   6.949
 5774POPC   C4A72414  42.473  44.186   7.325
 5774POPC   C1B72415  41.996  43.781   6.356
 5774POPC   C2B72416  42.016  43.943   6.775
 5774POPC   C3B72417  42.091  43.803   7.205
 5774POPC   C4B72418  42.010  43.580   7.612
 5775POPC   NC372419  36.199  40.920   5.330
 5775POPC   PO472420  35.906  40.375   5.501
 5775POPC   GL172421  36.131  40.629   5.817
 5775POPC   GL272422  36.351  40.922   5.834
 5775POPC   C1A72423  35.956  40.843   6.191
 5775POPC   D2A72424  35.736  40.934   6.600
 5775POPC   C3A72425  35.926  40.924   7.018
 5775POPC   C4A72426  35.896  40.633   7.376
 5775POPC   C1B72427  36.451  40.761   6.270
 5775POPC   C2B72428  36.322  40.743   6.737
 5775POPC   C3B72429  36.349  40.557   7.172
 5775POPC   C4B72430  36.378  40.302   7.561
 5776POPC   NC372431  17.197  22.739   5.560
 5776POPC   PO472432  17.521  23.258   5.409
 5776POPC   GL172433  17.566  23.047   5.810
 5776POPC   GL272434  17.536  22.681   5.924
 5776POPC   C1A72435  17.537  23.217   6.213
 5776POPC   D2A72436  17.372  23.422   6.590
 5776POPC   C3A72437  17.581  23.206   6.928
 5776POPC   C4A72438  17.446  23.289   7.340
 5776POPC   C1B72439  17.227  22.811   6.201
 5776POPC   C2B72440  17.329  22.899   6.601
 5776POPC   C3B72441  17.460  22.709   6.972
 5776POPC   C4B72442  17.299  22.799   7.379
 5777POPC   NC372443  13.283  22.723   5.548
 5777POPC   PO472444  12.850  23.246   5.390
 5777POPC   GL172445  13.044  23.138   5.770
 5777POPC   GL272446  12.771  22.935   5.852
 5777POPC   C1A72447  13.070  23.124   6.228
 5777POPC   D2A72448  12.897  23.342   6.577
 5777POPC   C3A72449  13.173  23.254   6.924
 5777POPC   C4A72450  13.108  22.827   7.079
 5777POPC   C1B72451  12.760  22.702   6.210
 5777POPC   C2B72452  12.879  22.722   6.621
 5777POPC   C3B72453  12.583  22.613   6.930
 5777POPC   C4B72454  12.708  22.577   7.322
 5778POPC   NC372455  24.054  35.690   5.416
 5778POPC   PO472456  24.040  36.318   5.068
 5778POPC   GL172457  23.987  36.196   5.564
 5778POPC   GL272458  24.060  36.470   5.794
 5778POPC   C1A72459  23.895  35.957   6.003
 5778POPC   D2A72460  23.965  35.792   6.462
 5778POPC   C3A72461  23.697  35.923   6.830
 5778POPC   C4A72462  23.513  35.769   7.216
 5778POPC   C1B72463  23.801  36.418   6.206
 5778POPC   C2B72464  23.550  36.380   6.597
 5778POPC   C3B72465  23.669  36.417   7.044
 5778POPC   C4B72466  23.590  36.513   7.477
 5779POPC   NC372467  26.710  12.402   5.406
 5779POPC   PO472468  26.774  11.723   5.333
 5779POPC   GL172469  26.642  11.865   5.771
 5779POPC   GL272470  26.456  12.140   5.738
 5779POPC   C1A72471  26.641  12.011   6.230
 5779POPC   D2A72472  26.954  12.245   6.492
 5779POPC   C3A72473  27.061  12.178   6.954
 5779POPC   C4A72474  27.315  12.479   7.203
 5779POPC   C1B72475  26.444  12.464   6.054
 5779POPC   C2B72476  26.528  12.580   6.482
 5779POPC   C3B72477  26.575  12.304   6.827
 5779POPC   C4B72478  26.616  12.151   7.255
 5780POPC   NC372479  36.505  42.501   5.424
 5780POPC   PO472480  37.111  42.460   5.215
 5780POPC   GL172481  37.016  42.285   5.648
 5780POPC   GL272482  37.294  42.203   5.857
 5780POPC   C1A72483  36.845  42.170   6.087
 5780POPC   D2A72484  36.759  42.369   6.513
 5780POPC   C3A72485  36.967  42.237   6.888
 5780POPC   C4A72486  36.843  42.029   7.249
 5780POPC   C1B72487  37.224  42.487   6.237
 5780POPC   C2B72488  37.140  42.691   6.632
 5780POPC   C3B72489  37.236  42.642   7.057
 5780POPC   C4B72490  37.129  42.418   7.429
 5781POPC   NC372491  19.311  21.534   5.512
 5781POPC   PO472492  18.991  22.173   5.361
 5781POPC   GL172493  19.108  22.208   5.777
 5781POPC   GL272494  19.323  21.935   5.832
 5781POPC   C1A72495  19.188  22.252   6.237
 5781POPC   D2A72496  19.450  22.443   6.577
 5781POPC   C3A72497  19.296  22.446   6.992
 5781POPC   C4A72498  19.221  22.173   7.371
 5781POPC   C1B72499  18.925  21.828   6.080
 5781POPC   C2B72500  18.885  21.932   6.512
 5781POPC   C3B72501  19.007  22.011   6.932
 5781POPC   C4B72502  18.918  21.753   7.281
 5782POPC   NC372503  26.126  44.924   5.388
 5782POPC   PO472504  25.526  44.537   5.421
 5782POPC   GL172505  25.735  44.770   5.765
 5782POPC   GL272506  25.896  44.454   5.880
 5782POPC   C1A72507  26.059  44.872   6.128
 5782POPC   D2A72508  26.206  44.721   6.575
 5782POPC   C3A72509  26.117  44.834   7.032
 5782POPC   C4A72510  25.890  44.922   7.453
 5782POPC   C1B72511  25.707  44.534   6.292
 5782POPC   C2B72512  25.726  44.494   6.733
 5782POPC   C3B72513  25.730  44.517   7.180
 5782POPC   C4B72514  25.612  44.291   7.531
 5783POPC   NC372515  12.420   7.266   5.376
 5783POPC   PO472516  12.888   7.685   5.159
 5783POPC   GL172517  12.775   7.638   5.642
 5783POPC   GL272518  12.627   7.370   5.854
 5783POPC   C1A72519  12.916   7.726   6.113
 5783POPC   D2A72520  13.130   7.551   6.486
 5783POPC   C3A72521  12.908   7.492   6.869
 5783POPC   C4A72522  12.920   7.449   7.309
 5783POPC   C1B72523  12.791   7.228   6.270
 5783POPC   C2B72524  13.021   7.029   6.623
 5783POPC   C3B72525  13.074   7.019   7.067
 5783POPC   C4B72526  12.724   6.970   7.326
 5784POPC   NC372527   9.244  14.126   5.376
 5784POPC   PO472528   9.898  14.388   5.281
 5784POPC   GL172529   9.576  14.436   5.631
 5784POPC   GL272530   9.566  14.115   5.778
 5784POPC   C1A72531   9.417  14.700   6.011
 5784POPC   D2A72532   9.593  14.718   6.471
 5784POPC   C3A72533   9.447  14.771   6.895
 5784POPC   C4A72534   9.780  14.631   7.200
 5784POPC   C1B72535   9.604  14.279   6.168
 5784POPC   C2B72536   9.482  14.183   6.528
 5784POPC   C3B72537   9.599  14.302   6.871
 5784POPC   C4B72538   9.569  14.168   7.265
 5785POPC   NC372539  24.756   8.715   5.338
 5785POPC   PO472540  24.313   9.156   5.567
 5785POPC   GL172541  24.616   9.052   5.746
 5785POPC   GL272542  24.745   9.337   5.837
 5785POPC   C1A72543  24.603   8.914   6.146
 5785POPC   D2A72544  24.811   8.816   6.479
 5785POPC   C3A72545  24.497   8.787   6.773
 5785POPC   C4A72546  24.430   8.911   7.197
 5785POPC   C1B72547  24.589   9.420   6.180
 5785POPC   C2B72548  24.577   9.273   6.577
 5785POPC   C3B72549  24.222   9.228   6.852
 5785POPC   C4B72550  24.220   9.369   7.269
 5786POPC   NC372551   6.972  28.660   5.314
 5786POPC   PO472552   7.358  29.234   5.290
 5786POPC   GL172553   7.399  29.095   5.713
 5786POPC   GL272554   7.212  29.387   5.790
 5786POPC   C1A72555   7.598  29.189   6.118
 5786POPC   D2A72556   7.405  29.195   6.541
 5786POPC   C3A72557   7.595  29.252   6.898
 5786POPC   C4A72558   7.731  29.123   7.258
 5786POPC   C1B72559   7.063  29.291   6.190
 5786POPC   C2B72560   6.950  29.423   6.603
 5786POPC   C3B72561   7.047  29.349   7.056
 5786POPC   C4B72562   7.359  29.381   7.442
 5787POPC   NC372563  14.831  23.144   5.390
 5787POPC   PO472564  15.472  22.887   5.573
 5787POPC   GL172565  15.139  22.718   5.770
 5787POPC   GL272566  15.066  23.055   5.837
 5787POPC   C1A72567  15.156  22.640   6.210
 5787POPC   D2A72568  15.264  22.786   6.629
 5787POPC   C3A72569  14.920  22.798   6.917
 5787POPC   C4A72570  14.889  22.539   7.297
 5787POPC   C1B72571  15.293  23.154   6.239
 5787POPC   C2B72572  15.342  23.301   6.694
 5787POPC   C3B72573  15.382  23.042   7.098
 5787POPC   C4B72574  15.357  23.176   7.539
 5788POPC   NC372575   4.469  11.588   5.370
 5788POPC   PO472576   4.455  11.011   5.661
 5788POPC   GL172577   4.318  11.399   5.856
 5788POPC   GL272578   4.593  11.640   5.849
 5788POPC   C1A72579   4.251  11.390   6.303
 5788POPC   D2A72580   4.010  11.169   6.656
 5788POPC   C3A72581   4.236  11.093   7.060
 5788POPC   C4A72582   4.274  11.261   7.486
 5788POPC   C1B72583   4.563  11.813   6.237
 5788POPC   C2B72584   4.616  11.631   6.653
 5788POPC   C3B72585   4.464  11.558   7.093
 5788POPC   C4B72586   4.585  11.665   7.534
 5789POPC   NC372587  18.062  26.682   5.057
 5789POPC   PO472588  18.517  27.042   5.437
 5789POPC   GL172589  18.373  26.930   5.843
 5789POPC   GL272590  18.410  26.609   5.809
 5789POPC   C1A72591  18.362  27.108   6.266
 5789POPC   D2A72592  18.216  27.191   6.645
 5789POPC   C3A72593  18.470  27.157   6.986
 5789POPC   C4A72594  18.265  27.085   7.341
 5789POPC   C1B72595  18.181  26.611   6.206
 5789POPC   C2B72596  18.027  26.697   6.617
 5789POPC   C3B72597  18.188  26.657   7.040
 5789POPC   C4B72598  18.426  26.333   7.283
 5790POPC   NC372599  27.735  24.928   5.331
 5790POPC   PO472600  27.672  25.557   5.205
 5790POPC   GL172601  27.711  25.535   5.663
 5790POPC   GL272602  27.808  25.201   5.760
 5790POPC   C1A72603  27.584  25.490   6.115
 5790POPC   D2A72604  27.471  25.273   6.490
 5790POPC   C3A72605  27.634  25.407   6.899
 5790POPC   C4A72606  27.538  25.147   7.240
 5790POPC   C1B72607  27.908  25.100   6.215
 5790POPC   C2B72608  27.849  24.965   6.687
 5790POPC   C3B72609  28.014  25.006   7.133
 5790POPC   C4B72610  27.858  24.891   7.563
 5791POPC   NC372611  13.297   2.302   5.067
 5791POPC   PO472612  13.821   1.993   5.277
 5791POPC   GL172613  13.647   2.096   5.684
 5791POPC   GL272614  13.536   1.775   5.813
 5791POPC   C1A72615  13.502   2.181   6.125
 5791POPC   D2A72616  13.552   1.887   6.462
 5791POPC   C3A72617  13.592   2.039   6.869
 5791POPC   C4A72618  13.499   2.177   7.300
 5791POPC   C1B72619  13.890   1.695   6.105
 5791POPC   C2B72620  13.980   1.637   6.534
 5791POPC   C3B72621  14.076   1.755   6.915
 5791POPC   C4B72622  13.829   1.796   7.239
 5792POPC   NC372623  31.677  16.847   5.348
 5792POPC   PO472624  31.089  16.587   5.318
 5792POPC   GL172625  31.350  16.628   5.703
 5792POPC   GL272626  31.542  16.341   5.701
 5792POPC   C1A72627  31.378  16.806   6.131
 5792POPC   D2A72628  31.138  16.854   6.536
 5792POPC   C3A72629  31.345  16.660   6.909
 5792POPC   C4A72630  31.759  16.746   7.137
 5792POPC   C1B72631  31.696  16.403   6.149
 5792POPC   C2B72632  31.733  16.520   6.597
 5792POPC   C3B72633  31.708  16.275   7.013
 5792POPC   C4B72634  31.365  16.345   7.331
 5793POPC   NC372635   3.357   2.360   5.611
 5793POPC   PO472636   3.344   1.739   5.494
 5793POPC   GL172637   3.594   1.890   5.842
 5793POPC   GL272638   3.825   2.206   5.857
 5793POPC   C1A72639   3.401   2.002   6.230
 5793POPC   D2A72640   3.169   1.957   6.602
 5793POPC   C3A72641   3.421   1.898   6.964
 5793POPC   C4A72642   3.488   2.213   7.254
 5793POPC   C1B72643   3.921   1.983   6.267
 5793POPC   C2B72644   3.861   1.832   6.707
 5793POPC   C3B72645   3.911   1.873   7.171
 5793POPC   C4B72646   3.851   2.070   7.608
 5794POPC   NC372647  19.342  28.139   5.349
 5794POPC   PO472648  18.659  28.432   5.316
 5794POPC   GL172649  18.938  28.351   5.711
 5794POPC   GL272650  19.160  28.639   5.854
 5794POPC   C1A72651  18.802  28.388   6.158
 5794POPC   D2A72652  18.992  28.246   6.571
 5794POPC   C3A72653  18.838  28.351   6.978
 5794POPC   C4A72654  18.793  28.058   7.348
 5794POPC   C1B72655  19.310  28.439   6.218
 5794POPC   C2B72656  19.508  28.354   6.597
 5794POPC   C3B72657  19.401  28.301   7.052
 5794POPC   C4B72658  19.121  28.494   7.375
 5795POPC   NC372659  15.760  23.337   5.076
 5795POPC   PO472660  15.916  23.912   5.435
 5795POPC   GL172661  15.825  23.750   5.819
 5795POPC   GL272662  15.469  23.862   5.741
 5795POPC   C1A72663  15.945  23.698   6.275
 5795POPC   D2A72664  15.878  23.676   6.692
 5795POPC   C3A72665  16.225  23.593   6.995
 5795POPC   C4A72666  16.217  23.597   7.437
 5795POPC   C1B72667  15.439  23.653   6.152
 5795POPC   C2B72668  15.406  23.853   6.531
 5795POPC   C3B72669  15.483  23.952   6.951
 5795POPC   C4B72670  15.757  23.680   7.181
 5796POPC   NC372671  43.313  31.846   5.554
 5796POPC   PO472672  42.957  31.377   5.313
 5796POPC   GL172673  43.042  31.454   5.779
 5796POPC   GL272674  43.350  31.441   5.839
 5796POPC   C1A72675  43.154  31.684   6.229
 5796POPC   D2A72676  43.491  31.685   6.573
 5796POPC   C3A72677  43.313  31.518   6.942
 5796POPC   C4A72678  43.167  31.605   7.336
 5796POPC   C1B72679  43.494  31.298   6.220
 5796POPC   C2B72680  43.393  31.161   6.599
 5796POPC   C3B72681  43.538  31.055   6.992
 5796POPC   C4B72682  43.477  31.199   7.384
 5797POPC   NC372683   6.041  10.383   5.578
 5797POPC   PO472684   5.537  10.871   5.460
 5797POPC   GL172685   5.763  10.723   5.812
 5797POPC   GL272686   6.085  10.895   5.788
 5797POPC   C1A72687   5.805  10.439   6.182
 5797POPC   D2A72688   5.887  10.520   6.618
 5797POPC   C3A72689   5.565  10.396   6.887
 5797POPC   C4A72690   5.600  10.069   7.202
 5797POPC   C1B72691   5.985  10.932   6.236
 5797POPC   C2B72692   5.803  11.029   6.647
 5797POPC   C3B72693   5.973  10.860   7.042
 5797POPC   C4B72694   6.070  10.432   7.156
 5798POPC   NC372695  37.600  13.800   5.221
 5798POPC   PO472696  37.824  13.215   5.462
 5798POPC   GL172697  37.550  13.481   5.636
 5798POPC   GL272698  37.807  13.751   5.706
 5798POPC   C1A72699  37.488  13.528   6.070
 5798POPC   D2A72700  37.621  13.359   6.460
 5798POPC   C3A72701  37.619  13.523   6.862
 5798POPC   C4A72702  37.534  13.444   7.260
 5798POPC   C1B72703  37.670  13.999   6.096
 5798POPC   C2B72704  37.468  13.891   6.516
 5798POPC   C3B72705  37.650  14.020   6.955
 5798POPC   C4B72706  37.541  13.970   7.386
 5799POPC   NC372707  40.909  42.078   5.684
 5799POPC   PO472708  40.443  41.783   5.278
 5799POPC   GL172709  40.641  41.582   5.728
 5799POPC   GL272710  41.025  41.593   5.800
 5799POPC   C1A72711  40.742  41.590   6.231
 5799POPC   D2A72712  40.810  41.727   6.695
 5799POPC   C3A72713  40.791  41.449   7.074
 5799POPC   C4A72714  40.909  41.187   7.425
 5799POPC   C1B72715  41.194  41.838   6.207
 5799POPC   C2B72716  41.308  41.886   6.644
 5799POPC   C3B72717  41.255  41.667   7.033
 5799POPC   C4B72718  41.142  41.683   7.495
 5800POPC   NC372719  34.727  30.380   5.351
 5800POPC   PO472720  34.228  30.757   5.364
 5800POPC   GL172721  34.505  30.794   5.694
 5800POPC   GL272722  34.456  30.493   5.829
 5800POPC   C1A72723  34.737  30.853   6.085
 5800POPC   D2A72724  34.612  31.071   6.475
 5800POPC   C3A72725  34.651  30.867   6.882
 5800POPC   C4A72726  34.833  30.495   7.117
 5800POPC   C1B72727  34.226  30.783   6.131
 5800POPC   C2B72728  34.272  30.696   6.538
 5800POPC   C3B72729  34.342  30.382   6.823
 5800POPC   C4B72730  34.326  30.575   7.203
 5801POPC   NC372731   9.267  15.734   5.288
 5801POPC   PO472732   8.696  16.073   5.381
 5801POPC   GL172733   8.926  16.122   5.781
 5801POPC   GL272734   9.311  16.076   5.730
 5801POPC   C1A72735   8.727  15.972   6.191
 5801POPC   D2A72736   8.498  15.817   6.542
 5801POPC   C3A72737   8.686  15.895   6.955
 5801POPC   C4A72738   9.093  15.759   7.079
 5801POPC   C1B72739   9.238  15.927   6.172
 5801POPC   C2B72740   9.096  15.982   6.607
 5801POPC   C3B72741   9.408  16.117   6.938
 5801POPC   C4B72742   9.551  15.971   7.374
 5802POPC   NC372743  27.313  31.016   5.371
 5802POPC   PO472744  27.711  30.568   5.109
 5802POPC   GL172745  27.457  30.568   5.542
 5802POPC   GL272746  27.144  30.398   5.650
 5802POPC   C1A72747  27.497  30.620   6.022
 5802POPC   D2A72748  27.610  30.827   6.431
 5802POPC   C3A72749  27.616  30.638   6.852
 5802POPC   C4A72750  27.779  30.791   7.239
 5802POPC   C1B72751  27.143  30.257   6.101
 5802POPC   C2B72752  27.309  30.386   6.516
 5802POPC   C3B72753  27.240  30.285   6.954
 5802POPC   C4B72754  27.449  30.414   7.334
 5803POPC   NC372755  28.659  25.023   5.511
 5803POPC   PO472756  29.268  24.900   5.279
 5803POPC   GL172757  29.130  25.103   5.700
 5803POPC   GL272758  28.930  25.431   5.718
 5803POPC   C1A72759  29.093  25.215   6.156
 5803POPC   D2A72760  29.249  25.117   6.556
 5803POPC   C3A72761  29.205  25.405   6.879
 5803POPC   C4A72762  29.221  25.194   7.249
 5803POPC   C1B72763  28.899  25.698   6.106
 5803POPC   C2B72764  28.760  25.570   6.544
 5803POPC   C3B72765  28.696  25.395   6.957
 5803POPC   C4B72766  28.890  25.577   7.325
 5804POPC   NC372767   9.472  17.303   5.388
 5804POPC   PO472768   9.492  17.936   5.110
 5804POPC   GL172769   9.672  17.713   5.673
 5804POPC   GL272770   9.810  17.330   5.750
 5804POPC   C1A72771   9.486  17.534   6.097
 5804POPC   D2A72772   9.606  17.440   6.519
 5804POPC   C3A72773   9.786  17.734   6.812
 5804POPC   C4A72774   9.494  17.628   7.134
 5804POPC   C1B72775   9.938  17.256   6.161
 5804POPC   C2B72776  10.132  17.370   6.538
 5804POPC   C3B72777   9.924  17.237   6.886
 5804POPC   C4B72778   9.960  17.438   7.251
 5805POPC   NC372779  14.672  13.896   5.585
 5805POPC   PO472780  15.157  13.425   5.298
 5805POPC   GL172781  15.191  13.500   5.723
 5805POPC   GL272782  15.469  13.298   5.725
 5805POPC   C1A72783  15.352  13.767   6.087
 5805POPC   D2A72784  15.302  13.986   6.514
 5805POPC   C3A72785  15.331  13.802   6.958
 5805POPC   C4A72786  15.107  14.037   7.293
 5805POPC   C1B72787  15.320  13.223   6.154
 5805POPC   C2B72788  15.075  13.114   6.505
 5805POPC   C3B72789  15.077  13.301   6.880
 5805POPC   C4B72790  15.353  13.287   7.185
 5806POPC   NC372791   3.779  22.926   5.541
 5806POPC   PO472792   3.217  22.622   5.511
 5806POPC   GL172793   3.427  22.717   5.841
 5806POPC   GL272794   3.363  23.067   5.868
 5806POPC   C1A72795   3.613  22.662   6.225
 5806POPC   D2A72796   3.417  22.550   6.619
 5806POPC   C3A72797   3.616  22.728   6.958
 5806POPC   C4A72798   3.597  23.165   7.106
 5806POPC   C1B72799   3.196  22.931   6.285
 5806POPC   C2B72800   3.266  23.054   6.706
 5806POPC   C3B72801   3.162  22.911   7.131
 5806POPC   C4B72802   3.226  22.920   7.589
 5807POPC   NC372803   5.518  32.994   5.477
 5807POPC   PO472804   6.199  33.142   5.391
 5807POPC   GL172805   5.933  33.140   5.768
 5807POPC   GL272806   5.967  32.798   5.838
 5807POPC   C1A72807   5.803  33.087   6.228
 5807POPC   D2A72808   5.927  33.201   6.663
 5807POPC   C3A72809   5.846  32.907   7.003
 5807POPC   C4A72810   5.676  33.123   7.322
 5807POPC   C1B72811   6.299  32.965   6.165
 5807POPC   C2B72812   6.399  33.001   6.631
 5807POPC   C3B72813   6.301  33.162   7.052
 5807POPC   C4B72814   6.159  32.983   7.459
 5808POPC   NC372815  12.465  11.802   5.447
 5808POPC   PO472816  13.001  12.136   5.239
 5808POPC   GL172817  12.822  12.037   5.721
 5808POPC   GL272818  12.771  11.690   5.830
 5808POPC   C1A72819  12.947  12.028   6.197
 5808POPC   D2A72820  12.881  12.281   6.556
 5808POPC   C3A72821  12.974  12.209   6.978
 5808POPC   C4A72822  13.119  11.784   7.108
 5808POPC   C1B72823  12.470  11.857   6.150
 5808POPC   C2B72824  12.626  11.815   6.576
 5808POPC   C3B72825  12.611  11.829   7.006
 5808POPC   C4B72826  12.606  12.131   7.324
 5809POPC   NC372827  31.157  43.024   5.584
 5809POPC   PO472828  30.523  42.777   5.552
 5809POPC   GL172829  30.710  42.917   5.907
 5809POPC   GL272830  30.608  43.275   5.949
 5809POPC   C1A72831  30.561  42.984   6.349
 5809POPC   D2A72832  30.653  43.291   6.675
 5809POPC   C3A72833  30.675  43.077   7.069
 5809POPC   C4A72834  30.693  42.649   7.243
 5809POPC   C1B72835  31.009  43.212   6.206
 5809POPC   C2B72836  31.161  43.421   6.566
 5809POPC   C3B72837  31.047  43.449   6.975
 5809POPC   C4B72838  30.687  43.565   7.247
 5810POPC   NC372839  13.806  26.003   5.480
 5810POPC   PO472840  13.457  26.497   5.343
 5810POPC   GL172841  13.418  26.210   5.733
 5810POPC   GL272842  13.417  25.823   5.772
 5810POPC   C1A72843  13.541  26.114   6.182
 5810POPC   D2A72844  13.388  26.136   6.625
 5810POPC   C3A72845  13.588  26.207   7.030
 5810POPC   C4A72846  13.904  26.101   7.352
 5810POPC   C1B72847  13.672  25.609   6.114
 5810POPC   C2B72848  13.639  25.714   6.543
 5810POPC   C3B72849  13.548  25.666   6.962
 5810POPC   C4B72850  13.807  25.597   7.278
 5811POPC   NC372851  13.022   4.652   5.383
 5811POPC   PO472852  12.713   5.212   5.481
 5811POPC   GL172853  12.694   5.053   5.885
 5811POPC   GL272854  12.656   4.729   5.758
 5811POPC   C1A72855  12.775   5.166   6.345
 5811POPC   D2A72856  12.703   5.420   6.745
 5811POPC   C3A72857  12.719   5.139   7.095
 5811POPC   C4A72858  12.890   5.252   7.509
 5811POPC   C1B72859  12.555   4.655   6.189
 5811POPC   C2B72860  12.751   4.450   6.540
 5811POPC   C3B72861  12.957   4.691   6.877
 5811POPC   C4B72862  12.924   4.740   7.337
 5812POPC   NC372863  38.713   3.859   5.470
 5812POPC   PO472864  38.070   3.744   5.597
 5812POPC   GL172865  38.336   3.425   5.861
 5812POPC   GL272866  38.644   3.289   5.697
 5812POPC   C1A72867  38.431   3.438   6.305
 5812POPC   D2A72868  38.524   3.832   6.567
 5812POPC   C3A72869  38.520   3.771   7.010
 5812POPC   C4A72870  38.238   3.502   7.224
 5812POPC   C1B72871  38.893   3.295   6.089
 5812POPC   C2B72872  38.918   3.491   6.480
 5812POPC   C3B72873  38.681   3.343   6.802
 5812POPC   C4B72874  38.717   3.336   7.232
 5813POPC   NC372875  12.423  28.429   5.509
 5813POPC   PO472876  11.783  28.202   5.436
 5813POPC   GL172877  11.990  28.390   5.772
 5813POPC   GL272878  12.012  28.751   5.833
 5813POPC   C1A72879  12.104  28.195   6.140
 5813POPC   D2A72880  11.903  28.109   6.484
 5813POPC   C3A72881  12.094  28.029   6.855
 5813POPC   C4A72882  12.077  28.220   7.229
 5813POPC   C1B72883  12.318  28.643   6.187
 5813POPC   C2B72884  12.295  28.473   6.634
 5813POPC   C3B72885  12.265  28.692   7.056
 5813POPC   C4B72886  12.013  28.677   7.422
 5814POPC   NC372887  34.140  23.769   5.395
 5814POPC   PO472888  33.482  23.990   5.569
 5814POPC   GL172889  33.710  23.692   5.786
 5814POPC   GL272890  33.943  23.943   5.868
 5814POPC   C1A72891  33.866  23.520   6.187
 5814POPC   D2A72892  34.031  23.593   6.607
 5814POPC   C3A72893  33.758  23.383   6.870
 5814POPC   C4A72894  33.679  23.379   7.253
 5814POPC   C1B72895  33.618  23.993   6.216
 5814POPC   C2B72896  33.531  23.766   6.589
 5814POPC   C3B72897  33.595  23.859   7.029
 5814POPC   C4B72898  33.334  24.025   7.346
 5815POPC   NC372899  39.558  27.230   5.339
 5815POPC   PO472900  39.121  27.739   5.293
 5815POPC   GL172901  39.167  27.730   5.717
 5815POPC   GL272902  39.473  27.529   5.757
 5815POPC   C1A72903  38.948  27.837   6.100
 5815POPC   D2A72904  38.791  27.531   6.386
 5815POPC   C3A72905  38.901  27.570   6.817
 5815POPC   C4A72906  38.841  27.508   7.237
 5815POPC   C1B72907  39.224  27.401   6.116
 5815POPC   C2B72908  39.189  27.231   6.538
 5815POPC   C3B72909  39.332  27.296   6.966
 5815POPC   C4B72910  39.327  27.509   7.344
 5816POPC   NC372911   1.668  14.222   5.277
 5816POPC   PO472912   2.086  13.678   5.410
 5816POPC   GL172913   2.098  13.608   5.821
 5816POPC   GL272914   2.282  13.879   5.861
 5816POPC   C1A72915   2.188  13.576   6.269
 5816POPC   D2A72916   1.847  13.562   6.517
 5816POPC   C3A72917   2.036  13.642   6.912
 5816POPC   C4A72918   1.803  13.623   7.256
 5816POPC   C1B72919   2.399  14.056   6.198
 5816POPC   C2B72920   2.486  13.879   6.577
 5816POPC   C3B72921   2.404  14.073   6.941
 5816POPC   C4B72922   2.235  13.903   7.310
 5817POPC   NC372923  18.632   9.253   5.395
 5817POPC   PO472924  19.248   8.866   5.337
 5817POPC   GL172925  19.134   9.039   5.703
 5817POPC   GL272926  18.932   8.772   5.807
 5817POPC   C1A72927  19.315   8.957   6.107
 5817POPC   D2A72928  19.220   8.715   6.477
 5817POPC   C3A72929  19.193   9.002   6.826
 5817POPC   C4A72930  19.328   8.963   7.246
 5817POPC   C1B72931  18.798   9.011   6.136
 5817POPC   C2B72932  18.719   8.893   6.541
 5817POPC   C3B72933  18.698   8.868   6.967
 5817POPC   C4B72934  18.841   9.205   7.219
 5818POPC   NC372935  37.338   0.326   5.354
 5818POPC   PO472936  37.962   0.598   5.421
 5818POPC   GL172937  37.653   0.550   5.760
 5818POPC   GL272938  37.311   0.720   5.694
 5818POPC   C1A72939  37.714   0.269   6.142
 5818POPC   D2A72940  38.007   0.224   6.497
 5818POPC   C3A72941  37.786   0.221   6.885
 5818POPC   C4A72942  37.855   0.530   7.218
 5818POPC   C1B72943  37.310   0.598   6.156
 5818POPC   C2B72944  37.531   0.562   6.570
 5818POPC   C3B72945  37.385   0.577   7.022
 5818POPC   C4B72946  37.428   0.604   7.507
 5819POPC   NC372947  21.271  37.312   5.460
 5819POPC   PO472948  21.622  36.800   5.443
 5819POPC   GL172949  21.357  36.829   5.827
 5819POPC   GL272950  21.101  37.055   5.882
 5819POPC   C1A72951  21.198  36.703   6.238
 5819POPC   D2A72952  21.161  36.907   6.609
 5819POPC   C3A72953  21.380  36.893   6.975
 5819POPC   C4A72954  21.123  37.045   7.305
 5819POPC   C1B72955  21.412  37.172   6.234
 5819POPC   C2B72956  21.575  37.258   6.669
 5819POPC   C3B72957  21.452  37.393   7.114
 5819POPC   C4B72958  21.541  37.268   7.554
 5820POPC   NC372959  23.663   8.325   5.216
 5820POPC   PO472960  24.182   8.218   5.710
 5820POPC   GL172961  23.754   8.331   5.885
 5820POPC   GL272962  23.430   8.389   5.712
 5820POPC   C1A72963  23.491   8.051   6.174
 5820POPC   D2A72964  23.391   7.987   6.616
 5820POPC   C3A72965  23.734   8.140   6.892
 5820POPC   C4A72966  23.989   7.880   7.150
 5820POPC   C1B72967  23.290   8.519   6.136
 5820POPC   C2B72968  23.459   8.483   6.574
 5820POPC   C3B72969  23.333   8.418   7.029
 5820POPC   C4B72970  23.477   8.674   7.372
 5821POPC   NC372971  32.608   0.641   5.643
 5821POPC   PO472972  32.287   0.155   5.353
 5821POPC   GL172973  32.182   0.315   5.785
 5821POPC   GL272974  31.974   0.599   5.859
 5821POPC   C1A72975  32.295   0.406   6.237
 5821POPC   D2A72976  32.112   0.240   6.638
 5821POPC   C3A72977  32.352   0.237   6.967
 5821POPC   C4A72978  32.439   0.581   7.252
 5821POPC   C1B72979  31.827   0.905   6.117
 5821POPC   C2B72980  31.946   0.725   6.494
 5821POPC   C3B72981  31.821   0.631   6.881
 5821POPC   C4B72982  32.001   0.833   7.217
 5822POPC   NC372983  37.731  16.355   5.145
 5822POPC   PO472984  38.068  16.906   5.361
 5822POPC   GL172985  37.879  16.929   5.790
 5822POPC   GL272986  37.799  16.625   5.814
 5822POPC   C1A72987  37.663  16.938   6.193
 5822POPC   D2A72988  37.670  16.611   6.507
 5822POPC   C3A72989  37.420  16.732   6.869
 5822POPC   C4A72990  37.488  16.844   7.300
 5822POPC   C1B72991  38.073  16.538   6.176
 5822POPC   C2B72992  38.222  16.596   6.587
 5822POPC   C3B72993  37.940  16.598   6.948
 5822POPC   C4B72994  37.934  16.602   7.391
 5823POPC   NC372995  44.794  40.930   5.475
 5823POPC   PO472996   0.519  40.902   5.454
 5823POPC   GL172997   0.392  40.839   5.872
 5823POPC   GL272998   0.716  40.844   5.983
 5823POPC   C1A72999   0.372  40.592   6.290
 5823POPC   D2A73000   0.188  40.447   6.725
 5823POPC   C3A73001   0.153  40.729   7.094
 5823POPC   C4A73002   0.050  40.733   7.580
 5823POPC   C1B73003   0.549  41.078   6.335
 5823POPC   C2B73004   0.483  40.890   6.706
 5823POPC   C3B73005   0.666  40.869   7.052
 5823POPC   C4B73006   0.831  41.022   7.435
 5824POPC   NC373007  42.024  30.438   5.517
 5824POPC   PO473008  41.426  30.805   5.395
 5824POPC   GL173009  41.645  30.651   5.771
 5824POPC   GL273010  41.946  30.858   5.872
 5824POPC   C1A73011  41.779  30.521   6.202
 5824POPC   D2A73012  41.694  30.740   6.584
 5824POPC   C3A73013  41.817  30.591   6.978
 5824POPC   C4A73014  41.646  30.762   7.338
 5824POPC   C1B73015  41.554  31.000   6.121
 5824POPC   C2B73016  41.404  31.161   6.509
 5824POPC   C3B73017  41.550  31.115   6.937
 5824POPC   C4B73018  41.341  31.370   7.261
 5825POPC   NC373019  13.067  31.713   5.443
 5825POPC   PO473020  12.475  31.926   5.645
 5825POPC   GL173021  12.823  31.759   5.894
 5825POPC   GL273022  12.841  31.390   5.797
 5825POPC   C1A73023  13.078  31.598   6.249
 5825POPC   D2A73024  12.968  31.248   6.549
 5825POPC   C3A73025  12.876  31.385   6.963
 5825POPC   C4A73026  12.965  31.318   7.408
 5825POPC   C1B73027  12.608  31.412   6.190
 5825POPC   C2B73028  12.601  31.653   6.554
 5825POPC   C3B73029  12.473  31.687   6.961
 5825POPC   C4B73030  12.607  31.662   7.382
 5826POPC   NC373031   9.825  26.461   5.397
 5826POPC   PO473032   9.594  25.886   5.361
 5826POPC   GL173033   9.744  26.105   5.771
 5826POPC   GL273034   9.918  26.420   5.889
 5826POPC   C1A73035   9.773  25.927   6.209
 5826POPC   D2A73036   9.651  25.720   6.603
 5826POPC   C3A73037   9.758  25.951   6.998
 5826POPC   C4A73038   9.866  25.851   7.410
 5826POPC   C1B73039   9.606  26.424   6.236
 5826POPC   C2B73040   9.570  26.266   6.626
 5826POPC   C3B73041   9.391  26.414   6.976
 5826POPC   C4B73042   9.559  26.303   7.381
 5827POPC   NC373043  39.998   9.436   5.415
 5827POPC   PO473044  39.636   9.989   5.322
 5827POPC   GL173045  39.810   9.826   5.734
 5827POPC   GL273046  40.130   9.594   5.874
 5827POPC   C1A73047  39.946   9.996   6.130
 5827POPC   D2A73048  40.105   9.772   6.488
 5827POPC   C3A73049  39.985   9.883   6.883
 5827POPC   C4A73050  40.107   9.777   7.264
 5827POPC   C1B73051  39.781   9.514   6.162
 5827POPC   C2B73052  39.554   9.705   6.489
 5827POPC   C3B73053  39.616   9.552   6.892
 5827POPC   C4B73054  39.735   9.435   7.285
 5828POPC   NC373055  29.249  40.302   5.114
 5828POPC   PO473056  29.179  39.734   5.485
 5828POPC   GL173057  29.211  39.752   5.915
 5828POPC   GL273058  29.020  40.048   5.923
 5828POPC   C1A73059  29.260  39.853   6.348
 5828POPC   D2A73060  29.060  40.083   6.697
 5828POPC   C3A73061  29.133  39.795   7.029
 5828POPC   C4A73062  29.371  39.841   7.372
 5828POPC   C1B73063  28.787  40.220   6.262
 5828POPC   C2B73064  28.680  40.509   6.602
 5828POPC   C3B73065  28.720  40.395   7.031
 5828POPC   C4B73066  29.004  40.200   7.318
 5829POPC   NC373067  32.516   9.441   5.043
 5829POPC   PO473068  32.361   9.992   5.423
 5829POPC   GL173069  32.197   9.886   5.819
 5829POPC   GL273070  32.475   9.937   6.021
 5829POPC   C1A73071  32.113   9.595   6.180
 5829POPC   D2A73072  32.079   9.398   6.595
 5829POPC   C3A73073  32.250   9.695   6.867
 5829POPC   C4A73074  32.458   9.716   7.231
 5829POPC   C1B73075  32.109  10.128   6.273
 5829POPC   C2B73076  31.944  10.288   6.679
 5829POPC   C3B73077  31.898  10.094   7.105
 5829POPC   C4B73078  32.162  10.077   7.466
 5830POPC   NC373079   6.335  11.310   5.345
 5830POPC   PO473080   6.979  11.408   5.158
 5830POPC   GL173081   6.828  11.416   5.613
 5830POPC   GL273082   6.580  11.143   5.761
 5830POPC   C1A73083   6.893  11.421   6.091
 5830POPC   D2A73084   6.779  11.115   6.448
 5830POPC   C3A73085   6.938  11.222   6.835
 5830POPC   C4A73086   6.801  11.354   7.242
 5830POPC   C1B73087   6.394  11.280   6.156
 5830POPC   C2B73088   6.258  11.247   6.554
 5830POPC   C3B73089   6.430  11.152   6.929
 5830POPC   C4B73090   6.558  10.912   7.267
 5831POPC   NC373091  44.395   4.270   5.474
 5831POPC   PO473092   0.031   4.033   5.477
 5831POPC   GL173093  44.699   4.146   5.870
 5831POPC   GL273094  44.603   4.480   5.910
 5831POPC   C1A73095  44.654   4.246   6.357
 5831POPC   D2A73096  44.359   4.364   6.701
 5831POPC   C3A73097  44.577   4.443   7.105
 5831POPC   C4A73098  44.600   4.192   7.511
 5831POPC   C1B73099  44.967   4.640   6.265
 5831POPC   C2B73100   0.137   4.803   6.666
 5831POPC   C3B73101  44.972   4.794   7.107
 5831POPC   C4B73102  44.831   4.636   7.564
 5832POPC   NC373103  27.077  35.077   5.322
 5832POPC   PO473104  26.774  34.430   5.431
 5832POPC   GL173105  26.710  34.518   5.855
 5832POPC   GL273106  27.059  34.527   5.904
 5832POPC   C1A73107  26.761  34.782   6.239
 5832POPC   D2A73108  26.568  34.646   6.599
 5832POPC   C3A73109  26.719  34.773   6.980
 5832POPC   C4A73110  26.517  34.524   7.281
 5832POPC   C1B73111  26.963  34.334   6.332
 5832POPC   C2B73112  27.120  34.597   6.677
 5832POPC   C3B73113  27.176  34.599   7.121
 5832POPC   C4B73114  27.013  34.319   7.369
 5833POPC   NC373115  34.738  26.357   5.409
 5833POPC   PO473116  34.343  25.765   5.381
 5833POPC   GL173117  34.596  25.967   5.723
 5833POPC   GL273118  34.325  26.173   5.908
 5833POPC   C1A73119  34.827  25.972   6.148
 5833POPC   D2A73120  34.632  26.085   6.569
 5833POPC   C3A73121  34.846  26.185   6.973
 5833POPC   C4A73122  34.835  25.986   7.395
 5833POPC   C1B73123  34.325  26.482   6.268
 5833POPC   C2B73124  34.124  26.473   6.709
 5833POPC   C3B73125  34.313  26.158   6.994
 5833POPC   C4B73126  34.391  26.198   7.423
 5834POPC   NC373127  37.915  10.824   5.651
 5834POPC   PO473128  37.823  11.483   5.404
 5834POPC   GL173129  37.740  11.277   5.852
 5834POPC   GL273130  37.379  11.187   5.952
 5834POPC   C1A73131  37.747  11.068   6.286
 5834POPC   D2A73132  38.010  10.926   6.652
 5834POPC   C3A73133  37.827  11.124   7.022
 5834POPC   C4A73134  37.334  11.116   7.097
 5834POPC   C1B73135  37.472  11.520   6.269
 5834POPC   C2B73136  37.568  11.416   6.698
 5834POPC   C3B73137  37.492  11.631   7.099
 5834POPC   C4B73138  37.260  11.898   7.429
 5835POPC   NC373139   9.794  35.669   5.296
 5835POPC   PO473140   9.731  34.990   5.103
 5835POPC   GL173141   9.724  35.214   5.613
 5835POPC   GL273142   9.898  35.540   5.808
 5835POPC   C1A73143   9.640  35.269   6.129
 5835POPC   D2A73144   9.663  35.582   6.509
 5835POPC   C3A73145   9.630  35.411   6.924
 5835POPC   C4A73146   9.932  35.325   7.228
 5835POPC   C1B73147  10.115  35.495   6.263
 5835POPC   C2B73148  10.175  35.508   6.740
 5835POPC   C3B73149   9.977  35.795   7.052
 5835POPC   C4B73150   9.957  35.774   7.524
 5836POPC   NC373151  17.354  27.859   5.080
 5836POPC   PO473152  17.790  27.481   5.359
 5836POPC   GL173153  17.631  27.476   5.803
 5836POPC   GL273154  17.720  27.200   5.873
 5836POPC   C1A73155  17.456  27.511   6.200
 5836POPC   D2A73156  17.337  27.706   6.571
 5836POPC   C3A73157  17.595  27.582   6.895
 5836POPC   C4A73158  17.455  27.732   7.264
 5836POPC   C1B73159  17.858  27.030   6.227
 5836POPC   C2B73160  17.707  27.177   6.591
 5836POPC   C3B73161  17.841  27.105   6.996
 5836POPC   C4B73162  17.825  27.363   7.336
 5837POPC   NC373163  42.898   5.610   5.396
 5837POPC   PO473164  43.505   5.969   5.295
 5837POPC   GL173165  43.238   5.894   5.650
 5837POPC   GL273166  43.286   5.545   5.750
 5837POPC   C1A73167  43.030   5.909   6.053
 5837POPC   D2A73168  42.867   5.791   6.456
 5837POPC   C3A73169  42.995   6.081   6.733
 5837POPC   C4A73170  43.041   6.047   7.148
 5837POPC   C1B73171  43.393   5.559   6.153
 5837POPC   C2B73172  43.372   5.787   6.511
 5837POPC   C3B73173  43.214   5.642   6.872
 5837POPC   C4B73174  43.436   5.349   7.082
 5838POPC   NC373175   7.843  28.197   5.269
 5838POPC   PO473176   8.208  28.742   5.328
 5838POPC   GL173177   8.076  28.490   5.687
 5838POPC   GL273178   7.738  28.589   5.686
 5838POPC   C1A73179   8.156  28.286   6.117
 5838POPC   D2A73180   8.391  28.299   6.527
 5838POPC   C3A73181   8.184  28.270   6.930
 5838POPC   C4A73182   8.383  28.193   7.337
 5838POPC   C1B73183   7.794  28.680   6.117
 5838POPC   C2B73184   7.932  28.558   6.528
 5838POPC   C3B73185   7.881  28.778   6.910
 5838POPC   C4B73186   7.817  28.628   7.312
 5839POPC   NC373187  31.341  30.926   5.392
 5839POPC   PO473188  31.588  30.337   5.174
 5839POPC   GL173189  31.530  30.558   5.667
 5839POPC   GL273190  31.245  30.735   5.853
 5839POPC   C1A73191  31.691  30.651   6.108
 5839POPC   D2A73192  31.525  30.666   6.554
 5839POPC   C3A73193  31.750  30.690   6.970
 5839POPC   C4A73194  31.691  30.763   7.435
 5839POPC   C1B73195  31.074  30.797   6.271
 5839POPC   C2B73196  31.028  30.768   6.723
 5839POPC   C3B73197  31.261  30.778   7.088
 5839POPC   C4B73198  31.158  30.806   7.535
 5840POPC   NC373199  34.013   3.589   5.439
 5840POPC   PO473200  33.462   3.975   5.361
 5840POPC   GL173201  33.605   3.744   5.738
 5840POPC   GL273202  33.933   3.885   5.858
 5840POPC   C1A73203  33.682   3.549   6.165
 5840POPC   D2A73204  33.434   3.561   6.566
 5840POPC   C3A73205  33.686   3.433   6.913
 5840POPC   C4A73206  33.801   3.599   7.316
 5840POPC   C1B73207  34.185   3.687   6.167
 5840POPC   C2B73208  34.106   3.495   6.537
 5840POPC   C3B73209  34.180   3.623   6.946
 5840POPC   C4B73210  34.124   3.245   7.169
 5841POPC   NC373211   4.338  42.024   5.427
 5841POPC   PO473212   4.573  42.648   5.584
 5841POPC   GL173213   4.307  42.488   5.903
 5841POPC   GL273214   4.240  42.144   5.895
 5841POPC   C1A73215   4.142  42.430   6.305
 5841POPC   D2A73216   3.910  42.633   6.607
 5841POPC   C3A73217   4.065  42.460   6.986
 5841POPC   C4A73218   4.454  42.564   7.192
 5841POPC   C1B73219   4.351  41.913   6.235
 5841POPC   C2B73220   4.151  41.830   6.617
 5841POPC   C3B73221   3.947  41.842   7.007
 5841POPC   C4B73222   4.093  42.100   7.368
 5842POPC   NC373223   6.586  22.013   5.247
 5842POPC   PO473224   6.402  22.548   5.650
 5842POPC   GL173225   6.571  22.165   5.765
 5842POPC   GL273226   6.853  22.233   5.925
 5842POPC   C1A73227   6.506  21.953   6.182
 5842POPC   D2A73228   6.411  22.071   6.597
 5842POPC   C3A73229   6.722  22.103   6.858
 5842POPC   C4A73230   6.707  21.922   7.274
 5842POPC   C1B73231   7.111  22.489   6.206
 5842POPC   C2B73232   7.078  22.527   6.649
 5842POPC   C3B73233   6.886  22.607   7.032
 5842POPC   C4B73234   6.980  22.404   7.378
 5843POPC   NC373235   0.213  15.001   5.518
 5843POPC   PO473236   0.645  15.507   5.426
 5843POPC   GL173237   0.579  15.251   5.796
 5843POPC   GL273238   0.850  15.046   5.892
 5843POPC   C1A73239   0.454  15.134   6.226
 5843POPC   D2A73240   0.603  15.007   6.632
 5843POPC   C3A73241   0.450  15.165   6.999
 5843POPC   C4A73242   0.139  15.077   7.191
 5843POPC   C1B73243   0.931  15.389   6.172
 5843POPC   C2B73244   0.940  15.420   6.613
 5843POPC   C3B73245   0.944  15.165   6.977
 5843POPC   C4B73246   0.784  15.419   7.310
 5844POPC   NC373247   2.292  33.430   5.658
 5844POPC   PO473248   2.017  32.801   5.528
 5844POPC   GL173249   2.060  32.945   5.933
 5844POPC   GL273250   1.724  32.882   6.054
 5844POPC   C1A73251   2.129  32.820   6.347
 5844POPC   D2A73252   1.911  32.910   6.720
 5844POPC   C3A73253   2.091  32.652   7.010
 5844POPC   C4A73254   2.495  32.669   7.239
 5844POPC   C1B73255   1.668  33.221   6.353
 5844POPC   C2B73256   1.782  33.450   6.724
 5844POPC   C3B73257   2.102  33.317   7.004
 5844POPC   C4B73258   2.149  33.035   7.330
 5845POPC   NC373259  35.386  17.236   5.344
 5845POPC   PO473260  35.267  17.851   5.468
 5845POPC   GL173261  35.386  17.532   5.776
 5845POPC   GL273262  35.720  17.425   5.710
 5845POPC   C1A73263  35.188  17.407   6.158
 5845POPC   D2A73264  34.973  17.564   6.506
 5845POPC   C3A73265  34.975  17.356   6.918
 5845POPC   C4A73266  35.269  17.290   7.273
 5845POPC   C1B73267  35.705  17.376   6.163
 5845POPC   C2B73268  35.484  17.494   6.567
 5845POPC   C3B73269  35.501  17.636   6.979
 5845POPC   C4B73270  35.829  17.575   7.261
 5846POPC   NC373271  35.392  21.310   5.251
 5846POPC   PO473272  34.925  21.771   5.657
 5846POPC   GL173273  35.171  21.359   5.773
 5846POPC   GL273274  35.510  21.261   5.751
 5846POPC   C1A73275  35.197  21.092   6.162
 5846POPC   D2A73276  35.319  21.321   6.563
 5846POPC   C3A73277  35.430  21.151   6.962
 5846POPC   C4A73278  35.304  21.362   7.340
 5846POPC   C1B73279  35.652  21.313   6.170
 5846POPC   C2B73280  35.776  21.048   6.533
 5846POPC   C3B73281  35.958  21.143   6.941
 5846POPC   C4B73282  35.775  21.210   7.334
 5847POPC   NC373283  17.957  24.279   5.517
 5847POPC   PO473284  17.514  24.720   5.379
 5847POPC   GL173285  17.381  24.473   5.773
 5847POPC   GL273286  17.461  24.098   5.773
 5847POPC   C1A73287  17.249  24.496   6.236
 5847POPC   D2A73288  17.525  24.548   6.612
 5847POPC   C3A73289  17.368  24.582   7.042
 5847POPC   C4A73290  17.215  24.556   7.478
 5847POPC   C1B73291  17.661  24.201   6.181
 5847POPC   C2B73292  17.852  24.131   6.598
 5847POPC   C3B73293  17.836  24.309   7.013
 5847POPC   C4B73294  17.684  24.392   7.413
 5848POPC   NC373295  33.481   5.070   5.457
 5848POPC   PO473296  32.823   5.010   5.312
 5848POPC   GL173297  32.920   5.021   5.804
 5848POPC   GL273298  32.788   5.328   6.006
 5848POPC   C1A73299  32.894   4.850   6.270
 5848POPC   D2A73300  33.046   4.682   6.687
 5848POPC   C3A73301  33.264   5.027   6.938
 5848POPC   C4A73302  33.051   5.209   7.327
 5848POPC   C1B73303  32.799   5.350   6.447
 5848POPC   C2B73304  32.748   5.102   6.834
 5848POPC   C3B73305  32.589   5.345   7.172
 5848POPC   C4B73306  32.574   5.590   7.561
 5849POPC   NC373307  31.763  34.295   5.417
 5849POPC   PO473308  31.356  33.759   5.518
 5849POPC   GL173309  31.191  33.914   5.873
 5849POPC   GL273310  31.026  33.721   6.095
 5849POPC   C1A73311  31.398  34.074   6.212
 5849POPC   D2A73312  31.593  33.889   6.522
 5849POPC   C3A73313  31.515  34.082   6.878
 5849POPC   C4A73314  31.481  33.949   7.274
 5849POPC   C1B73315  31.419  33.534   6.144
 5849POPC   C2B73316  31.518  33.378   6.517
 5849POPC   C3B73317  31.414  33.568   6.906
 5849POPC   C4B73318  31.362  33.362   7.279
 5850POPC   NC373319  12.837   1.554   5.509
 5850POPC   PO473320  12.852   2.128   5.070
 5850POPC   GL173321  12.797   2.089   5.575
 5850POPC   GL273322  13.114   2.087   5.762
 5850POPC   C1A73323  12.624   1.918   6.004
 5850POPC   D2A73324  12.648   1.782   6.436
 5850POPC   C3A73325  12.727   2.104   6.763
 5850POPC   C4A73326  12.763   2.170   7.192
 5850POPC   C1B73327  13.113   1.817   6.165
 5850POPC   C2B73328  13.110   1.693   6.630
 5850POPC   C3B73329  13.139   1.847   7.037
 5850POPC   C4B73330  13.350   1.695   7.387
 5851POPC   NC373331  39.996   6.920   5.361
 5851POPC   PO473332  40.333   6.324   5.480
 5851POPC   GL173333  40.067   6.593   5.742
 5851POPC   GL273334  40.209   6.951   5.835
 5851POPC   C1A73335  39.749   6.594   6.048
 5851POPC   D2A73336  39.780   6.625   6.453
 5851POPC   C3A73337  39.823   6.627   6.879
 5851POPC   C4A73338  39.745   6.575   7.297
 5851POPC   C1B73339  40.256   6.694   6.215
 5851POPC   C2B73340  40.263   6.506   6.628
 5851POPC   C3B73341  40.307   6.701   7.033
 5851POPC   C4B73342  40.260   6.542   7.441
 5852POPC   NC373343   9.876   8.281   5.333
 5852POPC   PO473344  10.199   8.843   5.543
 5852POPC   GL173345  10.120   8.397   5.763
 5852POPC   GL273346   9.754   8.258   5.815
 5852POPC   C1A73347  10.073   8.058   6.115
 5852POPC   D2A73348  10.039   8.265   6.494
 5852POPC   C3A73349   9.793   8.266   6.854
 5852POPC   C4A73350   9.856   7.915   7.110
 5852POPC   C1B73351   9.583   8.134   6.215
 5852POPC   C2B73352   9.401   8.388   6.543
 5852POPC   C3B73353   9.300   8.154   6.903
 5852POPC   C4B73354   9.467   8.236   7.289
 5853POPC   NC373355  37.877  21.303   5.478
 5853POPC   PO473356  37.221  21.242   5.521
 5853POPC   GL173357  37.433  21.488   5.813
 5853POPC   GL273358  37.491  21.197   5.976
 5853POPC   C1A73359  37.559  21.628   6.231
 5853POPC   D2A73360  37.656  21.340   6.552
 5853POPC   C3A73361  37.752  21.460   6.961
 5853POPC   C4A73362  37.494  21.424   7.336
 5853POPC   C1B73363  37.888  21.088   6.146
 5853POPC   C2B73364  38.096  21.101   6.544
 5853POPC   C3B73365  37.921  20.977   6.946
 5853POPC   C4B73366  37.906  21.135   7.378
 5854POPC   NC373367  39.750  12.606   5.639
 5854POPC   PO473368  40.109  13.134   5.601
 5854POPC   GL173369  40.069  13.169   5.987
 5854POPC   GL273370  40.273  13.453   6.016
 5854POPC   C1A73371  39.866  12.964   6.320
 5854POPC   D2A73372  39.902  12.627   6.615
 5854POPC   C3A73373  39.826  12.823   6.996
 5854POPC   C4A73374  39.710  13.087   7.321
 5854POPC   C1B73375  40.425  13.269   6.381
 5854POPC   C2B73376  40.190  13.070   6.709
 5854POPC   C3B73377  40.191  13.199   7.135
 5854POPC   C4B73378  40.304  13.291   7.551
 5855POPC   NC373379  33.359  34.285   5.417
 5855POPC   PO473380  33.086  33.584   5.391
 5855POPC   GL173381  33.086  33.802   5.756
 5855POPC   GL273382  33.319  33.608   5.919
 5855POPC   C1A73383  32.863  33.937   6.125
 5855POPC   D2A73384  32.910  34.093   6.553
 5855POPC   C3A73385  32.858  33.833   6.950
 5855POPC   C4A73386  32.700  33.419   7.126
 5855POPC   C1B73387  33.337  33.681   6.351
 5855POPC   C2B73388  33.349  33.870   6.758
 5855POPC   C3B73389  33.320  33.693   7.176
 5855POPC   C4B73390  33.343  33.690   7.624
 5856POPC   NC373391  40.762   8.124   5.152
 5856POPC   PO473392  41.364   7.923   5.489
 5856POPC   GL173393  40.969   7.935   5.731
 5856POPC   GL273394  40.716   8.205   5.670
 5856POPC   C1A73395  40.954   8.039   6.165
 5856POPC   D2A73396  41.093   8.030   6.591
 5856POPC   C3A73397  40.741   8.020   6.887
 5856POPC   C4A73398  40.411   7.810   7.121
 5856POPC   C1B73399  40.575   8.382   6.053
 5856POPC   C2B73400  40.738   8.443   6.475
 5856POPC   C3B73401  40.464   8.444   6.821
 5856POPC   C4B73402  40.453   8.296   7.240
 5857POPC   NC373403  38.172   0.190   5.500
 5857POPC   PO473404  38.837   0.119   5.493
 5857POPC   GL173405  38.570   0.390   5.814
 5857POPC   GL273406  38.238   0.283   5.994
 5857POPC   C1A73407  38.466   0.717   6.148
 5857POPC   D2A73408  38.212   0.729   6.524
 5857POPC   C3A73409  38.472   0.605   6.891
 5857POPC   C4A73410  38.736   0.645   7.273
 5857POPC   C1B73411  38.566   0.180   6.300
 5857POPC   C2B73412  38.531   0.073   6.743
 5857POPC   C3B73413  38.607   0.172   7.187
 5857POPC   C4B73414  38.658   0.080   7.642
 5858POPC   NC373415  40.680   6.207   5.202
 5858POPC   PO473416  40.788   5.570   5.388
 5858POPC   GL173417  40.856   5.789   5.796
 5858POPC   GL273418  40.748   6.137   5.746
 5858POPC   C1A73419  40.770   5.707   6.270
 5858POPC   D2A73420  40.562   5.478   6.654
 5858POPC   C3A73421  40.635   5.715   7.024
 5858POPC   C4A73422  40.889   6.042   7.114
 5858POPC   C1B73423  40.556   6.171   6.168
 5858POPC   C2B73424  40.527   6.052   6.610
 5858POPC   C3B73425  40.374   6.168   7.033
 5858POPC   C4B73426  40.501   6.064   7.444
 5859POPC   NC373427  34.167  18.262   5.664
 5859POPC   PO473428  34.601  18.790   5.518
 5859POPC   GL173429  34.757  18.548   5.881
 5859POPC   GL273430  35.126  18.522   5.950
 5859POPC   C1A73431  34.688  18.179   6.148
 5859POPC   D2A73432  34.762  18.054   6.571
 5859POPC   C3A73433  34.512  18.124   6.946
 5859POPC   C4A73434  34.398  18.283   7.352
 5859POPC   C1B73435  35.032  18.496   6.394
 5859POPC   C2B73436  34.759  18.572   6.744
 5859POPC   C3B73437  34.823  18.495   7.161
 5859POPC   C4B73438  35.148  18.627   7.393
 5860POPC   NC373439  22.808  42.366   5.416
 5860POPC   PO473440  23.443  42.218   5.277
 5860POPC   GL173441  23.271  42.489   5.644
 5860POPC   GL273442  23.135  42.221   5.837
 5860POPC   C1A73443  23.051  42.648   6.060
 5860POPC   D2A73444  22.927  42.372   6.396
 5860POPC   C3A73445  22.996  42.424   6.848
 5860POPC   C4A73446  22.713  42.290   7.183
 5860POPC   C1B73447  23.347  42.030   6.216
 5860POPC   C2B73448  23.235  41.976   6.659
 5860POPC   C3B73449  23.133  41.970   7.098
 5860POPC   C4B73450  23.087  41.995   7.546
 5861POPC   NC373451  13.308  30.051   5.493
 5861POPC   PO473452  12.684  29.839   5.495
 5861POPC   GL173453  12.808  29.946   5.920
 5861POPC   GL273454  12.985  30.260   5.826
 5861POPC   C1A73455  13.029  29.712   6.269
 5861POPC   D2A73456  13.212  29.594   6.684
 5861POPC   C3A73457  13.017  29.779   7.050
 5861POPC   C4A73458  12.756  30.044   7.309
 5861POPC   C1B73459  13.191  30.204   6.194
 5861POPC   C2B73460  13.108  30.106   6.594
 5861POPC   C3B73461  13.389  30.116   6.886
 5861POPC   C4B73462  13.351  30.107   7.305
 5862POPC   NC373463   1.086  17.886   5.223
 5862POPC   PO473464   1.339  18.474   5.416
 5862POPC   GL173465   1.268  18.264   5.881
 5862POPC   GL273466   1.479  17.971   6.052
 5862POPC   C1A73467   1.199  18.269   6.364
 5862POPC   D2A73468   1.020  18.478   6.730
 5862POPC   C3A73469   1.311  18.427   7.083
 5862POPC   C4A73470   1.528  18.042   7.116
 5862POPC   C1B73471   1.074  17.800   6.211
 5862POPC   C2B73472   0.908  17.754   6.612
 5862POPC   C3B73473   1.032  17.989   6.949
 5862POPC   C4B73474   1.014  17.798   7.320
 5863POPC   NC373475  12.566  41.849   5.276
 5863POPC   PO473476  13.232  41.758   5.456
 5863POPC   GL173477  12.881  41.630   5.736
 5863POPC   GL273478  12.709  41.362   5.575
 5863POPC   C1A73479  12.915  41.500   6.185
 5863POPC   D2A73480  13.090  41.733   6.533
 5863POPC   C3A73481  13.017  41.598   6.984
 5863POPC   C4A73482  13.142  41.646   7.452
 5863POPC   C1B73483  12.540  41.224   5.965
 5863POPC   C2B73484  12.497  41.183   6.445
 5863POPC   C3B73485  12.447  41.260   6.923
 5863POPC   C4B73486  12.669  41.439   7.309
 5864POPC   NC373487  37.146  21.695   5.430
 5864POPC   PO473488  36.780  22.253   5.402
 5864POPC   GL173489  37.098  22.222   5.701
 5864POPC   GL273490  37.095  21.892   5.888
 5864POPC   C1A73491  37.025  22.325   6.116
 5864POPC   D2A73492  36.995  21.994   6.422
 5864POPC   C3A73493  37.094  22.152   6.831
 5864POPC   C4A73494  36.905  22.214   7.214
 5864POPC   C1B73495  36.676  21.774   6.052
 5864POPC   C2B73496  36.502  21.740   6.433
 5864POPC   C3B73497  36.592  21.984   6.802
 5864POPC   C4B73498  36.588  21.815   7.223
 5865POPC   NC373499  14.238   0.322   5.556
 5865POPC   PO473500  14.692   0.615   5.080
 5865POPC   GL173501  14.679   0.604   5.588
 5865POPC   GL273502  14.732   0.275   5.769
 5865POPC   C1A73503  14.613   0.663   6.071
 5865POPC   D2A73504  14.345   0.560   6.456
 5865POPC   C3A73505  14.585   0.531   6.847
 5865POPC   C4A73506  14.881   0.617   7.151
 5865POPC   C1B73507  14.538   0.125   6.175
 5865POPC   C2B73508  14.537   0.050   6.629
 5865POPC   C3B73509  14.397   0.051   7.059
 5865POPC   C4B73510  14.210   0.406   7.224
 5866POPC   NC373511  22.394  17.080   5.368
 5866POPC   PO473512  21.921  16.634   5.239
 5866POPC   GL173513  21.846  16.512   5.713
 5866POPC   GL273514  21.895  16.822   5.912
 5866POPC   C1A73515  21.975  16.333   6.153
 5866POPC   D2A73516  21.923  16.472   6.618
 5866POPC   C3A73517  22.168  16.409   7.003
 5866POPC   C4A73518  22.462  16.679   7.207
 5866POPC   C1B73519  21.767  17.161   6.173
 5866POPC   C2B73520  21.763  17.026   6.593
 5866POPC   C3B73521  22.060  16.911   6.887
 5866POPC   C4B73522  22.201  17.135   7.217
 5867POPC   NC373523  33.318  22.895   5.343
 5867POPC   PO473524  33.956  23.046   5.187
 5867POPC   GL173525  33.902  23.028   5.644
 5867POPC   GL273526  33.562  23.171   5.730
 5867POPC   C1A73527  34.004  22.936   6.082
 5867POPC   D2A73528  33.894  23.081   6.497
 5867POPC   C3A73529  33.926  22.811   6.875
 5867POPC   C4A73530  33.862  22.893   7.306
 5867POPC   C1B73531  33.502  23.001   6.159
 5867POPC   C2B73532  33.458  22.816   6.602
 5867POPC   C3B73533  33.435  22.978   7.032
 5867POPC   C4B73534  33.367  23.077   7.499
 5868POPC   NC373535  15.636  19.232   5.450
 5868POPC   PO473536  15.981  18.645   5.461
 5868POPC   GL173537  16.036  18.931   5.786
 5868POPC   GL273538  15.711  18.935   5.888
 5868POPC   C1A73539  16.022  19.221   6.162
 5868POPC   D2A73540  16.077  19.101   6.588
 5868POPC   C3A73541  15.961  19.359   6.918
 5868POPC   C4A73542  15.899  19.289   7.347
 5868POPC   C1B73543  15.774  18.742   6.283
 5868POPC   C2B73544  15.648  18.783   6.714
 5868POPC   C3B73545  15.924  18.862   7.023
 5868POPC   C4B73546  16.111  18.821   7.403
 5869POPC   NC373547  24.168  22.889   5.459
 5869POPC   PO473548  24.824  23.185   5.289
 5869POPC   GL173549  24.567  23.129   5.681
 5869POPC   GL273550  24.752  22.855   5.786
 5869POPC   C1A73551  24.367  22.916   6.090
 5869POPC   D2A73552  24.510  22.803   6.513
 5869POPC   C3A73553  24.218  22.913   6.808
 5869POPC   C4A73554  24.218  22.965   7.223
 5869POPC   C1B73555  24.812  23.200   6.130
 5869POPC   C2B73556  24.849  23.292   6.581
 5869POPC   C3B73557  24.720  23.057   6.936
 5869POPC   C4B73558  24.727  23.030   7.387
 5870POPC   NC373559  35.886  13.540   5.343
 5870POPC   PO473560  36.529  13.898   5.471
 5870POPC   GL173561  36.191  13.804   5.699
 5870POPC   GL273562  36.173  13.472   5.764
 5870POPC   C1A73563  36.195  13.837   6.132
 5870POPC   D2A73564  35.974  13.871   6.502
 5870POPC   C3A73565  36.199  13.657   6.765
 5870POPC   C4A73566  36.366  13.698   7.134
 5870POPC   C1B73567  36.127  13.321   6.166
 5870POPC   C2B73568  35.904  13.246   6.508
 5870POPC   C3B73569  36.047  13.194   6.904
 5870POPC   C4B73570  35.885  13.320   7.274
 5871POPC   NC373571   4.739  13.032   5.402
 5871POPC   PO473572   4.021  12.928   5.309
 5871POPC   GL173573   4.177  12.742   5.731
 5871POPC   GL273574   4.485  12.570   5.624
 5871POPC   C1A73575   4.120  12.768   6.193
 5871POPC   D2A73576   4.242  13.012   6.548
 5871POPC   C3A73577   4.141  12.767   6.868
 5871POPC   C4A73578   3.933  12.812   7.231
 5871POPC   C1B73579   4.624  12.727   6.030
 5871POPC   C2B73580   4.614  12.651   6.476
 5871POPC   C3B73581   4.644  12.754   6.901
 5871POPC   C4B73582   4.423  12.546   7.212
 5872POPC   NC373583  36.425  14.370   5.347
 5872POPC   PO473584  35.785  14.467   5.433
 5872POPC   GL173585  36.051  14.312   5.765
 5872POPC   GL273586  35.808  14.092   5.900
 5872POPC   C1A73587  36.146  14.347   6.219
 5872POPC   D2A73588  35.971  14.359   6.642
 5872POPC   C3A73589  36.279  14.184   6.937
 5872POPC   C4A73590  36.421  14.516   7.245
 5872POPC   C1B73591  35.632  14.431   6.145
 5872POPC   C2B73592  35.462  14.525   6.547
 5872POPC   C3B73593  35.604  14.586   6.950
 5872POPC   C4B73594  35.897  14.386   7.207
 5873POPC   NC373595  41.573  13.940   5.385
 5873POPC   PO473596  41.734  14.625   5.272
 5873POPC   GL173597  41.457  14.480   5.605
 5873POPC   GL273598  41.644  14.269   5.821
 5873POPC   C1A73599  41.284  14.575   6.025
 5873POPC   D2A73600  41.320  14.657   6.469
 5873POPC   C3A73601  41.387  14.387   6.776
 5873POPC   C4A73602  41.676  14.311   7.108
 5873POPC   C1B73603  41.915  14.333   6.192
 5873POPC   C2B73604  41.943  14.334   6.665
 5873POPC   C3B73605  42.144  14.500   7.089
 5873POPC   C4B73606  42.115  14.672   7.544
 5874POPC   NC373607  22.839  14.832   5.333
 5874POPC   PO473608  23.302  15.305   5.540
 5874POPC   GL173609  22.945  15.243   5.858
 5874POPC   GL273610  22.710  14.955   5.828
 5874POPC   C1A73611  22.673  15.210   6.275
 5874POPC   D2A73612  22.580  15.449   6.658
 5874POPC   C3A73613  22.567  15.194   7.018
 5874POPC   C4A73614  22.563  14.967   7.397
 5874POPC   C1B73615  23.010  14.853   6.180
 5874POPC   C2B73616  22.992  14.973   6.644
 5874POPC   C3B73617  23.027  14.960   7.074
 5874POPC   C4B73618  23.016  14.736   7.435
 5875POPC   NC373619  40.529  27.428   5.471
 5875POPC   PO473620  40.652  26.730   5.279
 5875POPC   GL173621  40.763  26.883   5.712
 5875POPC   GL273622  40.520  27.125   5.879
 5875POPC   C1A73623  40.926  26.763   6.152
 5875POPC   D2A73624  40.731  26.852   6.563
 5875POPC   C3A73625  40.913  26.698   6.937
 5875POPC   C4A73626  40.941  26.788   7.350
 5875POPC   C1B73627  40.417  26.736   6.106
 5875POPC   C2B73628  40.265  26.670   6.500
 5875POPC   C3B73629  40.427  26.503   6.863
 5875POPC   C4B73630  40.397  26.559   7.285
 5876POPC   NC373631  27.361   5.412   5.368
 5876POPC   PO473632  26.936   4.861   5.189
 5876POPC   GL173633  26.766   5.045   5.580
 5876POPC   GL273634  26.606   4.766   5.724
 5876POPC   C1A73635  26.785   5.204   6.016
 5876POPC   D2A73636  26.869   5.064   6.450
 5876POPC   C3A73637  26.976   5.375   6.740
 5876POPC   C4A73638  26.880   5.484   7.147
 5876POPC   C1B73639  26.503   4.813   6.176
 5876POPC   C2B73640  26.348   5.067   6.527
 5876POPC   C3B73641  26.531   5.077   6.916
 5876POPC   C4B73642  26.830   4.892   7.185
 5877POPC   NC373643  16.003  28.150   5.210
 5877POPC   PO473644  15.950  27.531   5.540
 5877POPC   GL173645  16.207  27.552   5.933
 5877POPC   GL273646  16.502  27.749   5.959
 5877POPC   C1A73647  16.256  27.491   6.393
 5877POPC   D2A73648  16.059  27.443   6.808
 5877POPC   C3A73649  15.720  27.748   6.927
 5877POPC   C4A73650  15.623  27.771   7.354
 5877POPC   C1B73651  16.381  27.993   6.312
 5877POPC   C2B73652  16.297  27.913   6.756
 5877POPC   C3B73653  16.156  27.828   7.170
 5877POPC   C4B73654  16.386  27.785   7.536
 5878POPC   NC373655  11.719  39.908   5.311
 5878POPC   PO473656  12.392  39.754   5.214
 5878POPC   GL173657  12.241  39.841   5.637
 5878POPC   GL273658  12.596  39.688   5.710
 5878POPC   C1A73659  11.973  39.962   6.060
 5878POPC   D2A73660  11.915  39.795   6.510
 5878POPC   C3A73661  11.762  40.040   6.837
 5878POPC   C4A73662  11.940  40.146   7.210
 5878POPC   C1B73663  12.386  39.697   6.112
 5878POPC   C2B73664  12.367  40.008   6.483
 5878POPC   C3B73665  12.309  39.961   6.924
 5878POPC   C4B73666  12.392  39.981   7.379
 5879POPC   NC373667  27.855  31.781   5.529
 5879POPC   PO473668  27.200  31.485   5.411
 5879POPC   GL173669  27.530  31.438   5.747
 5879POPC   GL273670  27.606  31.082   5.795
 5879POPC   C1A73671  27.749  31.519   6.185
 5879POPC   D2A73672  27.902  31.495   6.664
 5879POPC   C3A73673  27.625  31.644   7.017
 5879POPC   C4A73674  27.343  31.935   7.260
 5879POPC   C1B73675  27.354  31.183   6.176
 5879POPC   C2B73676  27.438  31.312   6.566
 5879POPC   C3B73677  27.580  31.146   6.921
 5879POPC   C4B73678  27.406  31.228   7.312
 5880POPC   NC373679  17.689   0.200   4.960
 5880POPC   PO473680  17.343   0.363   5.492
 5880POPC   GL173681  17.482   0.586   5.833
 5880POPC   GL273682  17.333   0.327   6.001
 5880POPC   C1A73683  17.657   0.581   6.273
 5880POPC   D2A73684  17.324   0.433   6.551
 5880POPC   C3A73685  17.367   0.570   6.968
 5880POPC   C4A73686  17.693   0.831   7.102
 5880POPC   C1B73687  17.661   0.055   6.097
 5880POPC   C2B73688  17.825   0.083   6.480
 5880POPC   C3B73689  17.633   0.115   6.844
 5880POPC   C4B73690  17.724   0.176   7.229
 5881POPC   NC373691  38.961  20.054   5.437
 5881POPC   PO473692  38.942  20.695   5.267
 5881POPC   GL173693  38.950  20.557   5.688
 5881POPC   GL273694  39.115  20.858   5.819
 5881POPC   C1A73695  39.151  20.414   6.085
 5881POPC   D2A73696  39.251  20.678   6.458
 5881POPC   C3A73697  39.233  20.442   6.849
 5881POPC   C4A73698  39.357  20.520   7.258
 5881POPC   C1B73699  38.978  21.095   6.198
 5881POPC   C2B73700  38.900  20.999   6.660
 5881POPC   C3B73701  39.098  20.917   7.061
 5881POPC   C4B73702  39.130  20.936   7.556
 5882POPC   NC373703  12.512   6.547   5.362
 5882POPC   PO473704  12.828   7.069   5.495
 5882POPC   GL173705  12.739   6.838   5.835
 5882POPC   GL273706  12.770   6.470   5.814
 5882POPC   C1A73707  12.557   6.772   6.211
 5882POPC   D2A73708  12.496   6.543   6.557
 5882POPC   C3A73709  12.678   6.694   6.893
 5882POPC   C4A73710  12.687   6.458   7.281
 5882POPC   C1B73711  13.019   6.548   6.207
 5882POPC   C2B73712  13.000   6.366   6.634
 5882POPC   C3B73713  13.125   6.508   7.035
 5882POPC   C4B73714  13.153   6.405   7.466
 5883POPC   NC373715  30.129  36.538   5.589
 5883POPC   PO473716  29.910  37.048   5.202
 5883POPC   GL173717  29.943  37.036   5.707
 5883POPC   GL273718  29.667  36.862   5.945
 5883POPC   C1A73719  29.933  37.220   6.156
 5883POPC   D2A73720  29.751  37.029   6.524
 5883POPC   C3A73721  29.926  36.955   6.922
 5883POPC   C4A73722  29.737  36.890   7.322
 5883POPC   C1B73723  30.014  36.694   6.238
 5883POPC   C2B73724  30.148  36.517   6.661
 5883POPC   C3B73725  30.086  36.507   7.122
 5883POPC   C4B73726  30.062  36.617   7.610
 5884POPC   NC373727  17.552   7.028   5.462
 5884POPC   PO473728  17.471   7.680   5.337
 5884POPC   GL173729  17.571   7.722   5.785
 5884POPC   GL273730  17.684   7.428   5.800
 5884POPC   C1A73731  17.444   7.776   6.233
 5884POPC   D2A73732  17.159   7.654   6.596
 5884POPC   C3A73733  17.358   7.493   6.974
 5884POPC   C4A73734  17.534   7.790   7.181
 5884POPC   C1B73735  17.755   7.349   6.233
 5884POPC   C2B73736  17.734   7.528   6.631
 5884POPC   C3B73737  17.889   7.439   7.028
 5884POPC   C4B73738  17.728   7.200   7.354
 5885POPC   NC373739   6.112  19.408   5.462
 5885POPC   PO473740   5.933  19.999   5.267
 5885POPC   GL173741   5.805  19.956   5.674
 5885POPC   GL273742   6.054  20.154   5.807
 5885POPC   C1A73743   5.437  19.988   5.981
 5885POPC   D2A73744   5.418  19.809   6.401
 5885POPC   C3A73745   5.587  19.991   6.780
 5885POPC   C4A73746   5.610  19.770   7.160
 5885POPC   C1B73747   5.899  19.921   6.177
 5885POPC   C2B73748   6.050  20.035   6.566
 5885POPC   C3B73749   6.063  19.879   6.962
 5885POPC   C4B73750   6.005  20.088   7.358
 5886POPC   NC373751  25.547  39.967   5.198
 5886POPC   PO473752  24.942  39.693   5.221
 5886POPC   GL173753  25.218  40.077   5.551
 5886POPC   GL273754  25.505  39.921   5.730
 5886POPC   C1A73755  25.302  40.263   6.016
 5886POPC   D2A73756  25.423  40.111   6.435
 5886POPC   C3A73757  25.322  40.314   6.826
 5886POPC   C4A73758  25.214  40.170   7.236
 5886POPC   C1B73759  25.458  39.681   6.140
 5886POPC   C2B73760  25.545  39.609   6.599
 5886POPC   C3B73761  25.469  39.763   7.027
 5886POPC   C4B73762  25.067  39.674   7.238
 5887POPC   NC373763  40.347  10.751   5.048
 5887POPC   PO473764  40.893  10.819   5.518
 5887POPC   GL173765  40.730  10.646   5.896
 5887POPC   GL273766  40.562  10.317   5.937
 5887POPC   C1A73767  40.707  10.673   6.335
 5887POPC   D2A73768  40.464  10.727   6.689
 5887POPC   C3A73769  40.686  10.526   7.020
 5887POPC   C4A73770  40.923  10.503   7.373
 5887POPC   C1B73771  40.395  10.171   6.350
 5887POPC   C2B73772  40.306  10.258   6.803
 5887POPC   C3B73773  40.426  10.168   7.249
 5887POPC   C4B73774  40.466  10.402   7.641
 5888POPC   NC373775  26.296   5.117   5.392
 5888POPC   PO473776  25.642   5.052   5.572
 5888POPC   GL173777  25.905   5.290   5.830
 5888POPC   GL273778  26.225   5.135   5.887
 5888POPC   C1A73779  25.745   5.295   6.252
 5888POPC   D2A73780  25.842   5.043   6.630
 5888POPC   C3A73781  26.020   5.203   7.028
 5888POPC   C4A73782  26.018   5.477   7.406
 5888POPC   C1B73783  26.011   4.870   6.171
 5888POPC   C2B73784  26.121   4.591   6.521
 5888POPC   C3B73785  26.082   4.702   6.963
 5888POPC   C4B73786  26.300   4.769   7.338
 5889POPC   NC373787  10.251  21.602   5.374
 5889POPC   PO473788  10.814  21.257   5.535
 5889POPC   GL173789  10.671  21.278   5.933
 5889POPC   GL273790  10.401  21.477   5.850
 5889POPC   C1A73791  10.585  21.089   6.342
 5889POPC   D2A73792  10.297  21.065   6.702
 5889POPC   C3A73793  10.468  21.302   7.062
 5889POPC   C4A73794  10.665  21.446   7.464
 5889POPC   C1B73795  10.170  21.380   6.243
 5889POPC   C2B73796   9.903  21.402   6.634
 5889POPC   C3B73797  10.006  21.497   7.098
 5889POPC   C4B73798  10.155  21.309   7.507
 5890POPC   NC373799  23.695  14.618   5.135
 5890POPC   PO473800  23.356  14.287   5.593
 5890POPC   GL173801  23.547  14.493   5.900
 5890POPC   GL273802  23.835  14.611   5.680
 5890POPC   C1A73803  23.626  14.271   6.300
 5890POPC   D2A73804  23.311  13.993   6.517
 5890POPC   C3A73805  23.358  13.980   6.961
 5890POPC   C4A73806  23.679  14.239   7.159
 5890POPC   C1B73807  23.977  14.627   6.106
 5890POPC   C2B73808  23.890  14.729   6.527
 5890POPC   C3B73809  23.973  14.658   6.945
 5890POPC   C4B73810  24.154  14.968   7.239
 5891POPC   NC373811  13.568  17.998   5.225
 5891POPC   PO473812  14.013  18.316   5.586
 5891POPC   GL173813  13.600  18.292   5.752
 5891POPC   GL273814  13.591  17.944   5.873
 5891POPC   C1A73815  13.568  18.387   6.197
 5891POPC   D2A73816  13.903  18.529   6.478
 5891POPC   C3A73817  13.740  18.666   6.856
 5891POPC   C4A73818  13.531  18.407   7.137
 5891POPC   C1B73819  13.901  18.017   6.239
 5891POPC   C2B73820  13.813  18.076   6.699
 5891POPC   C3B73821  13.943  18.002   7.129
 5891POPC   C4B73822  14.158  17.929   7.550
 5892POPC   NC373823  37.607   6.080   5.417
 5892POPC   PO473824  38.072   5.566   5.511
 5892POPC   GL173825  37.837   5.832   5.798
 5892POPC   GL273826  37.520   5.736   5.882
 5892POPC   C1A73827  37.805   6.060   6.180
 5892POPC   D2A73828  37.908   5.913   6.573
 5892POPC   C3A73829  37.885   6.034   6.993
 5892POPC   C4A73830  37.727   5.782   7.324
 5892POPC   C1B73831  37.344   5.804   6.288
 5892POPC   C2B73832  37.418   6.059   6.656
 5892POPC   C3B73833  37.363   6.064   7.101
 5892POPC   C4B73834  37.178   6.149   7.496
 5893POPC   NC373835   2.269  35.306   5.113
 5893POPC   PO473836   2.716  35.817   5.439
 5893POPC   GL173837   2.565  35.594   5.782
 5893POPC   GL273838   2.863  35.357   5.778
 5893POPC   C1A73839   2.602  35.512   6.228
 5893POPC   D2A73840   2.949  35.292   6.446
 5893POPC   C3A73841   2.872  35.028   6.800
 5893POPC   C4A73842   2.628  35.137   7.153
 5893POPC   C1B73843   3.087  35.631   6.073
 5893POPC   C2B73844   3.293  35.678   6.482
 5893POPC   C3B73845   3.029  35.613   6.857
 5893POPC   C4B73846   3.211  35.673   7.246
 5894POPC   NC373847   9.294  23.872   5.385
 5894POPC   PO473848   9.861  23.574   5.358
 5894POPC   GL173849   9.837  23.726   5.758
 5894POPC   GL273850   9.783  23.411   5.839
 5894POPC   C1A73851  10.001  23.761   6.191
 5894POPC   D2A73852   9.900  23.940   6.602
 5894POPC   C3A73853   9.992  23.762   7.011
 5894POPC   C4A73854   9.830  23.948   7.395
 5894POPC   C1B73855   9.635  23.407   6.232
 5894POPC   C2B73856   9.840  23.429   6.617
 5894POPC   C3B73857   9.631  23.406   7.019
 5894POPC   C4B73858   9.867  23.431   7.394
 5895POPC   NC373859  24.343  42.579   5.485
 5895POPC   PO473860  24.912  42.155   5.412
 5895POPC   GL173861  24.682  42.207   5.797
 5895POPC   GL273862  24.870  42.120   6.107
 5895POPC   C1A73863  24.570  42.536   6.113
 5895POPC   D2A73864  24.688  42.785   6.471
 5895POPC   C3A73865  24.505  42.581   6.833
 5895POPC   C4A73866  24.425  42.535   7.266
 5895POPC   C1B73867  24.433  42.029   6.229
 5895POPC   C2B73868  24.256  42.115   6.640
 5895POPC   C3B73869  24.355  42.051   7.075
 5895POPC   C4B73870  24.090  42.183   7.401
 5896POPC   NC373871  34.994  33.621   5.450
 5896POPC   PO473872  35.448  34.068   5.424
 5896POPC   GL173873  35.211  33.978   5.805
 5896POPC   GL273874  35.313  33.622   5.848
 5896POPC   C1A73875  34.994  34.151   6.199
 5896POPC   D2A73876  35.008  33.998   6.630
 5896POPC   C3A73877  35.078  33.543   6.777
 5896POPC   C4A73878  35.334  33.619   7.187
 5896POPC   C1B73879  35.221  33.679   6.272
 5896POPC   C2B73880  35.485  33.777   6.604
 5896POPC   C3B73881  35.748  33.633   6.883
 5896POPC   C4B73882  35.837  33.572   7.294
 5897POPC   NC373883  27.811  20.714   5.474
 5897POPC   PO473884  27.234  21.032   5.352
 5897POPC   GL173885  27.320  20.622   5.673
 5897POPC   GL273886  27.658  20.387   5.815
 5897POPC   C1A73887  27.287  20.526   6.135
 5897POPC   D2A73888  27.182  20.492   6.582
 5897POPC   C3A73889  27.496  20.421   6.884
 5897POPC   C4A73890  27.615  20.612   7.255
 5897POPC   C1B73891  27.800  20.424   6.239
 5897POPC   C2B73892  27.668  20.719   6.513
 5897POPC   C3B73893  27.751  20.984   6.836
 5897POPC   C4B73894  27.870  21.042   7.264
 5898POPC   NC373895  23.247  19.122   5.350
 5898POPC   PO473896  22.801  18.761   5.490
 5898POPC   GL173897  23.016  18.969   5.820
 5898POPC   GL273898  23.315  18.839   5.835
 5898POPC   C1A73899  22.976  19.170   6.241
 5898POPC   D2A73900  22.666  19.210   6.565
 5898POPC   C3A73901  22.828  19.295   6.936
 5898POPC   C4A73902  22.758  19.178   7.321
 5898POPC   C1B73903  23.450  18.986   6.191
 5898POPC   C2B73904  23.349  18.895   6.583
 5898POPC   C3B73905  23.462  18.958   6.981
 5898POPC   C4B73906  23.268  19.247   7.218
 5899POPC   NC373907  10.376  14.964   5.618
 5899POPC   PO473908  10.742  15.579   5.451
 5899POPC   GL173909  10.585  15.359   5.817
 5899POPC   GL273910  10.731  15.044   6.000
 5899POPC   C1A73911  10.379  15.368   6.208
 5899POPC   D2A73912  10.595  15.118   6.506
 5899POPC   C3A73913  10.513  15.196   6.888
 5899POPC   C4A73914  10.704  15.213   7.276
 5899POPC   C1B73915  10.493  14.691   6.235
 5899POPC   C2B73916  10.517  14.530   6.616
 5899POPC   C3B73917  10.608  14.686   6.985
 5899POPC   C4B73918  10.364  14.692   7.325
 5900POPC   NC373919   8.492  21.993   5.426
 5900POPC   PO473920   8.079  22.478   5.421
 5900POPC   GL173921   8.176  22.318   5.829
 5900POPC   GL273922   7.966  22.018   5.897
 5900POPC   C1A73923   8.380  22.390   6.249
 5900POPC   D2A73924   8.071  22.273   6.568
 5900POPC   C3A73925   8.179  22.287   6.989
 5900POPC   C4A73926   7.949  22.053   7.307
 5900POPC   C1B73927   8.275  21.899   6.251
 5900POPC   C2B73928   8.463  21.924   6.701
 5900POPC   C3B73929   8.439  21.900   7.191
 5900POPC   C4B73930   8.260  21.795   7.616
 5901POPC   NC373931  17.052  24.693   5.421
 5901POPC   PO473932  16.393  24.438   5.425
 5901POPC   GL173933  16.708  24.368   5.767
 5901POPC   GL273934  16.899  24.656   5.892
 5901POPC   C1A73935  16.780  24.245   6.218
 5901POPC   D2A73936  16.608  24.395   6.623
 5901POPC   C3A73937  16.894  24.370   6.978
 5901POPC   C4A73938  16.869  24.197   7.394
 5901POPC   C1B73939  16.585  24.741   6.168
 5901POPC   C2B73940  16.594  24.920   6.572
 5901POPC   C3B73941  16.523  24.823   6.957
 5901POPC   C4B73942  16.789  24.763   7.294
 5902POPC   NC373943   9.538  23.223   5.322
 5902POPC   PO473944   9.734  22.587   5.456
 5902POPC   GL173945   9.825  22.930   5.697
 5902POPC   GL273946   9.492  22.955   5.776
 5902POPC   C1A73947   9.972  23.045   6.124
 5902POPC   D2A73948   9.885  22.913   6.552
 5902POPC   C3A73949  10.017  23.085   6.955
 5902POPC   C4A73950   9.909  22.919   7.345
 5902POPC   C1B73951   9.305  23.023   6.173
 5902POPC   C2B73952   9.414  23.133   6.606
 5902POPC   C3B73953   9.495  22.928   7.006
 5902POPC   C4B73954   9.443  23.138   7.422
 5903POPC   NC373955  41.186   9.699   5.330
 5903POPC   PO473956  41.764   9.505   5.406
 5903POPC   GL173957  41.482   9.473   5.748
 5903POPC   GL273958  41.465   9.826   5.768
 5903POPC   C1A73959  41.466   9.507   6.216
 5903POPC   D2A73960  41.660   9.579   6.646
 5903POPC   C3A73961  41.520   9.501   7.043
 5903POPC   C4A73962  41.463   9.677   7.445
 5903POPC   C1B73963  41.417  10.024   6.155
 5903POPC   C2B73964  41.275   9.926   6.578
 5903POPC   C3B73965  41.494  10.026   6.959
 5903POPC   C4B73966  41.335  10.177   7.333
 5904POPC   NC373967  28.689  20.274   5.664
 5904POPC   PO473968  29.274  20.033   5.316
 5904POPC   GL173969  29.192  19.925   5.763
 5904POPC   GL273970  29.333  19.582   5.787
 5904POPC   C1A73971  29.041  19.825   6.210
 5904POPC   D2A73972  29.200  19.656   6.617
 5904POPC   C3A73973  29.049  19.719   7.034
 5904POPC   C4A73974  28.949  19.837   7.468
 5904POPC   C1B73975  29.520  19.634   6.225
 5904POPC   C2B73976  29.710  19.536   6.637
 5904POPC   C3B73977  29.553  19.633   7.050
 5904POPC   C4B73978  29.308  19.496   7.422
 5905POPC   NC373979  32.226  41.117   4.991
 5905POPC   PO473980  32.328  40.570   5.403
 5905POPC   GL173981  32.457  40.740   5.802
 5905POPC   GL273982  32.189  40.960   5.807
 5905POPC   C1A73983  32.576  40.734   6.258
 5905POPC   D2A73984  32.448  40.827   6.707
 5905POPC   C3A73985  32.561  40.664   7.128
 5905POPC   C4A73986  32.250  40.641   7.460
 5905POPC   C1B73987  32.190  41.069   6.256
 5905POPC   C2B73988  32.141  41.221   6.676
 5905POPC   C3B73989  32.237  41.085   7.110
 5905POPC   C4B73990  32.197  41.138   7.557
 5906POPC   NC373991  11.474  44.949   5.506
 5906POPC   PO473992  11.331  44.282   5.480
 5906POPC   GL173993  11.309  44.554   5.832
 5906POPC   GL273994  11.055  44.343   5.964
 5906POPC   C1A73995  11.260  44.736   6.287
 5906POPC   D2A73996  11.375  44.855   6.731
 5906POPC   C3A73997  11.167  44.809   7.151
 5906POPC   C4A73998  11.024  44.840   7.590
 5906POPC   C1B73999  11.466  44.274   6.210
 5906POPC   C2B74000  11.607  44.433   6.602
 5906POPC   C3B74001  11.432  44.404   7.041
 5906POPC   C4B74002  11.244  44.232   7.451
 5907POPC   NC374003  35.352  21.954   5.627
 5907POPC   PO474004  35.010  22.492   5.482
 5907POPC   GL174005  35.304  22.493   5.865
 5907POPC   GL274006  35.633  22.308   5.889
 5907POPC   C1A74007  35.348  22.425   6.333
 5907POPC   D2A74008  35.155  22.353   6.749
 5907POPC   C3A74009  35.052  21.940   6.857
 5907POPC   C4A74010  35.103  21.820   7.258
 5907POPC   C1B74011  35.610  21.981   6.254
 5907POPC   C2B74012  35.566  22.047   6.712
 5907POPC   C3B74013  35.488  22.158   7.166
 5907POPC   C4B74014  35.682  22.196   7.594
 5908POPC   NC374015   3.805  13.389   5.391
 5908POPC   PO474016   4.372  13.772   5.367
 5908POPC   GL174017   4.491  13.602   5.733
 5908POPC   GL274018   4.113  13.597   5.792
 5908POPC   C1A74019   4.540  13.720   6.171
 5908POPC   D2A74020   4.331  13.962   6.484
 5908POPC   C3A74021   4.350  13.759   6.876
 5908POPC   C4A74022   4.415  13.924   7.267
 5908POPC   C1B74023   4.139  13.389   6.181
 5908POPC   C2B74024   3.972  13.459   6.583
 5908POPC   C3B74025   4.050  13.298   6.994
 5908POPC   C4B74026   3.997  13.630   7.238
 5909POPC   NC374027  30.088  32.322   5.341
 5909POPC   PO474028  29.667  31.790   5.391
 5909POPC   GL174029  29.904  31.996   5.754
 5909POPC   GL274030  29.965  32.321   5.893
 5909POPC   C1A74031  30.139  31.830   6.110
 5909POPC   D2A74032  30.282  31.854   6.539
 5909POPC   C3A74033  30.080  32.114   6.854
 5909POPC   C4A74034  30.203  32.134   7.282
 5909POPC   C1B74035  30.212  32.339   6.281
 5909POPC   C2B74036  30.435  32.525   6.640
 5909POPC   C3B74037  30.275  32.583   7.069
 5909POPC   C4B74038  29.824  32.505   7.154
 5910POPC   NC374039   3.403  42.370   5.499
 5910POPC   PO474040   4.063  42.387   5.419
 5910POPC   GL174041   3.802  42.392   5.833
 5910POPC   GL274042   3.630  42.076   5.867
 5910POPC   C1A74043   3.569  42.473   6.244
 5910POPC   D2A74044   3.385  42.551   6.685
 5910POPC   C3A74045   3.655  42.777   7.014
 5910POPC   C4A74046   3.948  42.816   7.349
 5910POPC   C1B74047   3.828  42.004   6.245
 5910POPC   C2B74048   3.737  42.158   6.658
 5910POPC   C3B74049   3.608  42.220   7.089
 5910POPC   C4B74050   3.598  41.973   7.482
 5911POPC   NC374051  21.291   1.664   5.762
 5911POPC   PO474052  21.085   1.080   5.384
 5911POPC   GL174053  21.124   1.171   5.767
 5911POPC   GL274054  21.443   1.080   5.853
 5911POPC   C1A74055  21.011   1.174   6.195
 5911POPC   D2A74056  21.192   1.012   6.548
 5911POPC   C3A74057  21.380   1.300   6.815
 5911POPC   C4A74058  21.393   1.431   7.214
 5911POPC   C1B74059  21.315   0.735   6.098
 5911POPC   C2B74060  21.491   0.591   6.471
 5911POPC   C3B74061  21.520   0.812   6.878
 5911POPC   C4B74062  21.392   0.917   7.269
 5912POPC   NC374063  19.341  38.850   5.323
 5912POPC   PO474064  18.658  38.990   5.404
 5912POPC   GL174065  18.778  39.158   5.783
 5912POPC   GL274066  19.127  39.268   5.728
 5912POPC   C1A74067  18.740  39.298   6.194
 5912POPC   D2A74068  18.982  39.256   6.556
 5912POPC   C3A74069  18.812  39.370   6.929
 5912POPC   C4A74070  18.923  39.223   7.320
 5912POPC   C1B74071  19.192  39.039   6.121
 5912POPC   C2B74072  19.362  38.924   6.525
 5912POPC   C3B74073  19.315  39.103   6.941
 5912POPC   C4B74074  19.349  38.958   7.372
 5913POPC   NC374075  28.789  12.135   5.287
 5913POPC   PO474076  29.446  11.876   5.391
 5913POPC   GL174077  29.248  12.117   5.725
 5913POPC   GL274078  29.514  12.207   5.947
 5913POPC   C1A74079  29.060  12.066   6.164
 5913POPC   D2A74080  29.237  12.010   6.576
 5913POPC   C3A74081  28.936  12.091   6.885
 5913POPC   C4A74082  29.041  12.160   7.259
 5913POPC   C1B74083  29.440  11.736   6.078
 5913POPC   C2B74084  29.351  11.519   6.475
 5913POPC   C3B74085  29.511  11.664   6.890
 5913POPC   C4B74086  29.398  11.805   7.325
 5914POPC   NC374087  13.451  10.271   5.503
 5914POPC   PO474088  13.053  10.830   5.523
 5914POPC   GL174089  13.424  10.667   5.845
 5914POPC   GL274090  13.612  10.327   5.971
 5914POPC   C1A74091  13.713  10.754   6.213
 5914POPC   D2A74092  13.596  10.732   6.632
 5914POPC   C3A74093  13.848  10.753   6.956
 5914POPC   C4A74094  13.674  10.901   7.313
 5914POPC   C1B74095  13.534  10.294   6.403
 5914POPC   C2B74096  13.501  10.261   6.850
 5914POPC   C3B74097  13.620  10.337   7.263
 5914POPC   C4B74098  13.802  10.078   7.615
 5915POPC   NC374099   3.004   8.527   5.133
 5915POPC   PO474100   3.455   8.237   5.459
 5915POPC   GL174101   3.585   8.096   5.837
 5915POPC   GL274102   3.681   8.433   5.926
 5915POPC   C1A74103   3.405   7.914   6.211
 5915POPC   D2A74104   3.490   8.122   6.578
 5915POPC   C3A74105   3.381   7.993   6.994
 5915POPC   C4A74106   3.507   8.366   7.228
 5915POPC   C1B74107   3.924   8.169   6.195
 5915POPC   C2B74108   4.017   8.007   6.564
 5915POPC   C3B74109   3.884   8.097   6.930
 5915POPC   C4B74110   4.086   8.003   7.304
 5916POPC   NC374111  38.425  20.808   5.380
 5916POPC   PO474112  38.587  20.164   5.691
 5916POPC   GL174113  38.420  20.563   5.835
 5916POPC   GL274114  38.597  20.895   5.863
 5916POPC   C1A74115  38.232  20.720   6.207
 5916POPC   D2A74116  38.227  20.628   6.631
 5916POPC   C3A74117  38.438  20.860   6.913
 5916POPC   C4A74118  38.219  20.731   7.279
 5916POPC   C1B74119  38.733  20.654   6.254
 5916POPC   C2B74120  38.742  20.480   6.669
 5916POPC   C3B74121  38.782  20.509   7.112
 5916POPC   C4B74122  38.692  20.844   7.373
 5917POPC   NC374123   4.092  14.149   5.423
 5917POPC   PO474124   4.724  14.321   5.527
 5917POPC   GL174125   4.383  14.393   5.795
 5917POPC   GL274126   4.314  14.065   5.879
 5917POPC   C1A74127   4.199  14.469   6.211
 5917POPC   D2A74128   4.345  14.458   6.643
 5917POPC   C3A74129   4.271  14.512   7.096
 5917POPC   C4A74130   4.562  14.592   7.426
 5917POPC   C1B74131   3.943  14.021   6.148
 5917POPC   C2B74132   3.874  14.231   6.574
 5917POPC   C3B74133   3.975  14.106   7.015
 5917POPC   C4B74134   4.020  14.093   7.504
 5918POPC   NC374135   2.191   8.096   5.330
 5918POPC   PO474136   1.586   8.346   5.275
 5918POPC   GL174137   1.895   8.335   5.664
 5918POPC   GL274138   2.079   7.979   5.801
 5918POPC   C1A74139   1.923   8.329   6.127
 5918POPC   D2A74140   1.991   8.318   6.578
 5918POPC   C3A74141   1.634   8.348   6.854
 5918POPC   C4A74142   1.568   8.514   7.265
 5918POPC   C1B74143   2.246   7.936   6.231
 5918POPC   C2B74144   2.405   8.005   6.649
 5918POPC   C3B74145   2.078   8.013   6.992
 5918POPC   C4B74146   2.134   7.945   7.439
 5919POPC   NC374147  38.862   6.525   5.430
 5919POPC   PO474148  39.566   6.665   5.429
 5919POPC   GL174149  39.290   6.500   5.725
 5919POPC   GL274150  39.181   6.818   5.812
 5919POPC   C1A74151  39.269   6.357   6.144
 5919POPC   D2A74152  39.282   6.554   6.546
 5919POPC   C3A74153  39.397   6.368   6.921
 5919POPC   C4A74154  39.218   6.562   7.246
 5919POPC   C1B74155  39.373   6.935   6.210
 5919POPC   C2B74156  39.548   7.034   6.629
 5919POPC   C3B74157  39.435   6.968   7.051
 5919POPC   C4B74158  39.597   7.026   7.460
 5920POPC   NC374159  11.335  10.170   5.477
 5920POPC   PO474160  11.677   9.544   5.417
 5920POPC   GL174161  11.327   9.672   5.717
 5920POPC   GL274162  11.157   9.388   5.883
 5920POPC   C1A74163  11.231   9.887   6.132
 5920POPC   D2A74164  11.290   9.781   6.572
 5920POPC   C3A74165  10.989   9.746   6.888
 5920POPC   C4A74166  11.293   9.797   7.208
 5920POPC   C1B74167  11.417   9.376   6.271
 5920POPC   C2B74168  11.666   9.425   6.699
 5920POPC   C3B74169  11.667   9.447   7.181
 5920POPC   C4B74170  11.696   9.532   7.648
 5921POPC   NC374171  34.107  18.963   5.512
 5921POPC   PO474172  33.491  19.193   5.555
 5921POPC   GL174173  33.698  18.985   5.857
 5921POPC   GL274174  33.945  19.232   5.938
 5921POPC   C1A74175  33.608  19.003   6.281
 5921POPC   D2A74176  33.464  19.382   6.468
 5921POPC   C3A74177  33.571  19.341   6.876
 5921POPC   C4A74178  33.605  18.926   7.069
 5921POPC   C1B74179  34.110  18.836   6.145
 5921POPC   C2B74180  34.319  18.712   6.510
 5921POPC   C3B74181  34.368  19.052   6.767
 5921POPC   C4B74182  34.074  19.146   7.078
 5922POPC   NC374183   7.397  18.512   5.141
 5922POPC   PO474184   7.743  18.232   5.609
 5922POPC   GL174185   7.464  18.374   5.934
 5922POPC   GL274186   7.171  18.246   5.797
 5922POPC   C1A74187   7.346  18.591   6.356
 5922POPC   D2A74188   7.548  18.632   6.787
 5922POPC   C3A74189   7.740  18.227   6.905
 5922POPC   C4A74190   7.692  17.938   7.258
 5922POPC   C1B74191   7.018  18.184   6.230
 5922POPC   C2B74192   7.054  18.062   6.685
 5922POPC   C3B74193   7.240  18.229   7.066
 5922POPC   C4B74194   7.511  18.495   7.298
 5923POPC   NC374195   8.249   2.932   5.338
 5923POPC   PO474196   8.170   2.295   5.045
 5923POPC   GL174197   8.008   2.542   5.575
 5923POPC   GL274198   8.248   2.523   5.895
 5923POPC   C1A74199   7.921   2.818   6.088
 5923POPC   D2A74200   7.728   3.014   6.495
 5923POPC   C3A74201   8.004   3.125   6.875
 5923POPC   C4A74202   8.231   3.178   7.284
 5923POPC   C1B74203   8.303   2.405   6.335
 5923POPC   C2B74204   8.410   2.663   6.714
 5923POPC   C3B74205   8.205   2.700   7.113
 5923POPC   C4B74206   7.983   2.715   7.495
 5924POPC   NC374207  15.047  41.499   5.340
 5924POPC   PO474208  15.521  42.007   5.511
 5924POPC   GL174209  15.250  41.713   5.771
 5924POPC   GL274210  15.376  41.378   5.850
 5924POPC   C1A74211  15.056  41.571   6.196
 5924POPC   D2A74212  15.212  41.780   6.574
 5924POPC   C3A74213  15.120  41.635   6.983
 5924POPC   C4A74214  14.897  41.819   7.354
 5924POPC   C1B74215  15.383  41.155   6.225
 5924POPC   C2B74216  15.292  41.272   6.633
 5924POPC   C3B74217  15.515  41.318   7.011
 5924POPC   C4B74218  15.374  41.428   7.397
 5925POPC   NC374219  24.338  27.048   5.367
 5925POPC   PO474220  24.629  26.467   5.541
 5925POPC   GL174221  24.404  26.768   5.774
 5925POPC   GL274222  24.204  26.530   5.901
 5925POPC   C1A74223  24.255  27.060   6.097
 5925POPC   D2A74224  24.507  27.139   6.481
 5925POPC   C3A74225  24.378  26.978   6.866
 5925POPC   C4A74226  24.179  26.897   7.247
 5925POPC   C1B74227  24.494  26.618   6.259
 5925POPC   C2B74228  24.498  26.509   6.690
 5925POPC   C3B74229  24.625  26.586   7.131
 5925POPC   C4B74230  24.885  26.348   7.440
 5926POPC   NC374231   4.818   3.293   5.553
 5926POPC   PO474232   5.377   3.713   5.552
 5926POPC   GL174233   5.141   3.626   5.875
 5926POPC   GL274234   4.795   3.691   5.870
 5926POPC   C1A74235   5.199   3.749   6.280
 5926POPC   D2A74236   5.236   3.521   6.644
 5926POPC   C3A74237   5.020   3.646   7.009
 5926POPC   C4A74238   5.246   3.470   7.310
 5926POPC   C1B74239   4.852   3.350   6.217
 5926POPC   C2B74240   4.813   3.231   6.660
 5926POPC   C3B74241   4.683   3.219   7.100
 5926POPC   C4B74242   4.767   3.456   7.486
 5927POPC   NC374243  35.621  25.992   5.430
 5927POPC   PO474244  34.976  25.969   5.353
 5927POPC   GL174245  35.170  26.155   5.738
 5927POPC   GL274246  35.279  25.828   5.798
 5927POPC   C1A74247  35.523  26.254   6.104
 5927POPC   D2A74248  35.665  26.051   6.546
 5927POPC   C3A74249  35.547  26.146   6.978
 5927POPC   C4A74250  35.362  26.519   7.123
 5927POPC   C1B74251  35.341  25.806   6.231
 5927POPC   C2B74252  35.163  25.917   6.646
 5927POPC   C3B74253  35.187  25.793   7.098
 5927POPC   C4B74254  35.223  25.697   7.576
 5928POPC   NC374255  12.067   1.727   5.487
 5928POPC   PO474256  11.770   2.276   5.445
 5928POPC   GL174257  11.891   2.088   5.814
 5928POPC   GL274258  12.256   2.162   5.759
 5928POPC   C1A74259  12.059   2.004   6.228
 5928POPC   D2A74260  12.227   2.007   6.634
 5928POPC   C3A74261  11.920   2.076   6.896
 5928POPC   C4A74262  11.821   2.014   7.285
 5928POPC   C1B74263  12.400   2.360   6.172
 5928POPC   C2B74264  12.416   2.482   6.600
 5928POPC   C3B74265  12.314   2.373   7.041
 5928POPC   C4B74266  12.316   1.949   7.209
 5929POPC   NC374267  27.794   1.341   5.548
 5929POPC   PO474268  27.075   1.403   5.482
 5929POPC   GL174269  27.367   1.351   5.830
 5929POPC   GL274270  27.426   1.008   5.751
 5929POPC   C1A74271  27.600   1.464   6.228
 5929POPC   D2A74272  27.869   1.329   6.596
 5929POPC   C3A74273  27.692   1.433   6.985
 5929POPC   C4A74274  27.630   1.746   7.316
 5929POPC   C1B74275  27.615   0.946   6.170
 5929POPC   C2B74276  27.519   0.954   6.626
 5929POPC   C3B74277  27.433   1.007   7.079
 5929POPC   C4B74278  27.539   1.280   7.459
 5930POPC   NC374279  35.554   7.557   5.310
 5930POPC   PO474280  35.183   6.993   5.293
 5930POPC   GL174281  35.368   7.195   5.687
 5930POPC   GL274282  35.746   7.160   5.709
 5930POPC   C1A74283  35.335   7.443   6.099
 5930POPC   D2A74284  35.492   7.747   6.433
 5930POPC   C3A74285  35.423   7.696   6.883
 5930POPC   C4A74286  35.045   7.598   7.105
 5930POPC   C1B74287  35.660   7.045   6.157
 5930POPC   C2B74288  35.492   7.205   6.589
 5930POPC   C3B74289  35.393   7.178   7.069
 5930POPC   C4B74290  35.584   7.067   7.525
 5931POPC   NC374291  36.522  29.323   5.411
 5931POPC   PO474292  37.050  28.908   5.568
 5931POPC   GL174293  36.845  29.226   5.806
 5931POPC   GL274294  36.553  29.057   5.874
 5931POPC   C1A74295  36.779  29.281   6.254
 5931POPC   D2A74296  37.024  28.993   6.481
 5931POPC   C3A74297  37.088  29.036   6.898
 5931POPC   C4A74298  37.182  28.764   7.248
 5931POPC   C1B74299  36.552  28.816   6.285
 5931POPC   C2B74300  36.533  29.036   6.696
 5931POPC   C3B74301  36.640  29.065   7.146
 5931POPC   C4B74302  36.561  28.913   7.575
 5932POPC   NC374303  10.979  15.051   5.430
 5932POPC   PO474304  11.630  14.913   5.368
 5932POPC   GL174305  11.429  15.106   5.763
 5932POPC   GL274306  11.127  15.344   5.869
 5932POPC   C1A74307  11.269  14.914   6.143
 5932POPC   D2A74308  10.984  14.777   6.483
 5932POPC   C3A74309  10.987  15.021   6.867
 5932POPC   C4A74310  11.219  15.168   7.234
 5932POPC   C1B74311  11.074  15.313   6.368
 5932POPC   C2B74312  11.401  15.294   6.735
 5932POPC   C3B74313  11.516  15.571   7.109
 5932POPC   C4B74314  11.525  15.427   7.562
 5933POPC   NC374315  24.445  15.044   5.375
 5933POPC   PO474316  24.711  15.602   5.507
 5933POPC   GL174317  24.556  15.322   5.873
 5933POPC   GL274318  24.576  14.945   5.871
 5933POPC   C1A74319  24.486  15.446   6.326
 5933POPC   D2A74320  24.353  15.232   6.690
 5933POPC   C3A74321  24.458  15.486   7.038
 5933POPC   C4A74322  24.246  15.508   7.417
 5933POPC   C1B74323  24.766  15.023   6.301
 5933POPC   C2B74324  24.826  15.050   6.755
 5933POPC   C3B74325  24.664  15.038   7.189
 5933POPC   C4B74326  24.889  14.955   7.586
 5934POPC   NC374327  25.488  25.027   5.362
 5934POPC   PO474328  24.986  25.512   5.513
 5934POPC   GL174329  25.262  25.354   5.750
 5934POPC   GL274330  25.186  25.002   5.794
 5934POPC   C1A74331  25.172  25.386   6.162
 5934POPC   D2A74332  25.297  25.296   6.548
 5934POPC   C3A74333  25.199  25.513   6.946
 5934POPC   C4A74334  25.126  25.536   7.381
 5934POPC   C1B74335  25.499  24.946   6.128
 5934POPC   C2B74336  25.592  24.865   6.566
 5934POPC   C3B74337  25.322  24.944   6.921
 5934POPC   C4B74338  25.334  25.092   7.338
 5935POPC   NC374339  36.806   6.061   5.391
 5935POPC   PO474340  36.937   6.672   5.254
 5935POPC   GL174341  36.714   6.587   5.624
 5935POPC   GL274342  36.624   6.890   5.827
 5935POPC   C1A74343  36.860   6.498   6.035
 5935POPC   D2A74344  36.691   6.635   6.429
 5935POPC   C3A74345  36.877   6.702   6.827
 5935POPC   C4A74346  36.882   6.481   7.218
 5935POPC   C1B74347  36.984   6.989   6.168
 5935POPC   C2B74348  37.227   7.003   6.588
 5935POPC   C3B74349  37.164   7.080   7.063
 5935POPC   C4B74350  36.899   6.954   7.436
 5936POPC   NC374351  18.768  40.240   5.458
 5936POPC   PO474352  19.097  39.674   5.402
 5936POPC   GL174353  19.052  39.915   5.767
 5936POPC   GL274354  18.827  39.692   5.881
 5936POPC   C1A74355  19.023  40.268   6.100
 5936POPC   D2A74356  19.024  40.435   6.541
 5936POPC   C3A74357  18.967  40.090   6.841
 5936POPC   C4A74358  19.265  40.094   7.168
 5936POPC   C1B74359  19.162  39.587   6.192
 5936POPC   C2B74360  19.258  39.687   6.645
 5936POPC   C3B74361  19.261  39.593   7.082
 5936POPC   C4B74362  18.970  39.732   7.370
 5937POPC   NC374363   5.012  40.412   5.358
 5937POPC   PO474364   4.970  41.085   5.382
 5937POPC   GL174365   5.128  40.801   5.715
 5937POPC   GL274366   5.500  40.890   5.746
 5937POPC   C1A74367   5.166  40.596   6.136
 5937POPC   D2A74368   5.067  40.767   6.553
 5937POPC   C3A74369   5.233  40.552   6.907
 5937POPC   C4A74370   5.024  40.314   7.237
 5937POPC   C1B74371   5.466  41.018   6.179
 5937POPC   C2B74372   5.448  41.119   6.627
 5937POPC   C3B74373   5.195  41.065   7.009
 5937POPC   C4B74374   4.881  40.826   7.199
 5938POPC   NC374375  34.911  12.108   5.284
 5938POPC   PO474376  34.207  12.005   5.376
 5938POPC   GL174377  34.491  12.159   5.709
 5938POPC   GL274378  34.221  12.361   5.807
 5938POPC   C1A74379  34.765  12.159   6.103
 5938POPC   D2A74380  34.751  11.878   6.477
 5938POPC   C3A74381  34.642  12.036   6.880
 5938POPC   C4A74382  34.655  12.142   7.302
 5938POPC   C1B74383  34.302  12.338   6.224
 5938POPC   C2B74384  34.424  12.441   6.651
 5938POPC   C3B74385  34.230  12.304   7.064
 5938POPC   C4B74386  34.324  12.433   7.517
 5939POPC   NC374387  19.050  37.904   5.469
 5939POPC   PO474388  18.859  37.288   5.197
 5939POPC   GL174389  18.954  37.447   5.699
 5939POPC   GL274390  19.214  37.395   5.972
 5939POPC   C1A74391  18.935  37.778   6.122
 5939POPC   D2A74392  18.800  37.884   6.569
 5939POPC   C3A74393  19.040  37.730   6.949
 5939POPC   C4A74394  19.095  37.870   7.372
 5939POPC   C1B74395  18.839  37.295   6.247
 5939POPC   C2B74396  18.744  37.375   6.706
 5939POPC   C3B74397  18.775  37.316   7.188
 5939POPC   C4B74398  18.864  37.486   7.610
 5940POPC   NC374399  21.615  35.572   5.483
 5940POPC   PO474400  21.020  35.214   5.421
 5940POPC   GL174401  21.256  35.186   5.790
 5940POPC   GL274402  21.623  35.058   5.752
 5940POPC   C1A74403  21.079  35.304   6.213
 5940POPC   D2A74404  20.753  35.241   6.542
 5940POPC   C3A74405  20.985  35.199   6.908
 5940POPC   C4A74406  21.103  35.533   7.170
 5940POPC   C1B74407  21.591  35.248   6.183
 5940POPC   C2B74408  21.426  35.212   6.606
 5940POPC   C3B74409  21.547  35.260   7.045
 5940POPC   C4B74410  21.816  35.330   7.404
 5941POPC   NC374411   3.471  11.604   5.431
 5941POPC   PO474412   3.586  12.238   5.444
 5941POPC   GL174413   3.542  11.952   5.818
 5941POPC   GL274414   3.294  12.148   5.961
 5941POPC   C1A74415   3.549  11.849   6.282
 5941POPC   D2A74416   3.411  12.164   6.607
 5941POPC   C3A74417   3.450  12.048   7.031
 5941POPC   C4A74418   3.596  11.903   7.426
 5941POPC   C1B74419   3.705  12.324   6.189
 5941POPC   C2B74420   3.787  12.513   6.589
 5941POPC   C3B74421   3.933  12.297   6.969
 5941POPC   C4B74422   3.988  12.330   7.395
 5942POPC   NC374423  11.351  19.320   5.523
 5942POPC   PO474424  11.194  18.640   5.461
 5942POPC   GL174425  11.412  18.867   5.787
 5942POPC   GL274426  11.144  19.020   5.891
 5942POPC   C1A74427  11.555  19.008   6.224
 5942POPC   D2A74428  11.553  19.378   6.478
 5942POPC   C3A74429  11.509  19.298   6.886
 5942POPC   C4A74430  11.456  19.133   7.280
 5942POPC   C1B74431  11.076  19.164   6.294
 5942POPC   C2B74432  11.122  19.004   6.691
 5942POPC   C3B74433  11.001  19.219   7.037
 5942POPC   C4B74434  11.028  19.410   7.383
 5943POPC   NC374435  31.099  40.361   5.499
 5943POPC   PO474436  31.647  39.997   5.281
 5943POPC   GL174437  31.678  40.051   5.774
 5943POPC   GL274438  31.350  40.099   5.948
 5943POPC   C1A74439  31.763  40.153   6.255
 5943POPC   D2A74440  31.784  40.251   6.720
 5943POPC   C3A74441  31.609  39.970   7.066
 5943POPC   C4A74442  31.598  40.044   7.535
 5943POPC   C1B74443  31.053  39.877   6.220
 5943POPC   C2B74444  31.043  39.629   6.565
 5943POPC   C3B74445  31.060  39.866   6.931
 5943POPC   C4B74446  31.184  39.805   7.335
 5944POPC   NC374447   8.426  30.935   5.461
 5944POPC   PO474448   8.174  30.369   5.228
 5944POPC   GL174449   8.158  30.531   5.676
 5944POPC   GL274450   8.482  30.616   5.857
 5944POPC   C1A74451   8.027  30.573   6.125
 5944POPC   D2A74452   7.832  30.840   6.458
 5944POPC   C3A74453   8.026  30.857   6.890
 5944POPC   C4A74454   8.232  30.679   7.253
 5944POPC   C1B74455   8.543  30.612   6.310
 5944POPC   C2B74456   8.515  30.688   6.756
 5944POPC   C3B74457   8.648  30.431   7.090
 5944POPC   C4B74458   8.403  30.174   7.381
 5945POPC   NC374459  25.550  20.896   5.265
 5945POPC   PO474460  25.787  20.322   5.429
 5945POPC   GL174461  25.836  20.356   5.841
 5945POPC   GL274462  25.525  20.165   5.864
 5945POPC   C1A74463  26.093  20.435   6.214
 5945POPC   D2A74464  26.318  20.692   6.519
 5945POPC   C3A74465  26.269  20.616   6.945
 5945POPC   C4A74466  26.262  20.813   7.334
 5945POPC   C1B74467  25.597  20.313   6.288
 5945POPC   C2B74468  25.807  20.529   6.634
 5945POPC   C3B74469  25.779  20.505   7.071
 5945POPC   C4B74470  25.938  20.243   7.360
 5946POPC   NC374471  24.818  44.951   5.466
 5946POPC   PO474472  24.227  44.730   5.297
 5946POPC   GL174473  24.350  44.623   5.750
 5946POPC   GL274474  24.661  44.431   5.785
 5946POPC   C1A74475  24.332  44.497   6.206
 5946POPC   D2A74476  24.277  44.711   6.583
 5946POPC   C3A74477  24.277  44.475   6.955
 5946POPC   C4A74478  24.249  44.380   7.400
 5946POPC   C1B74479  24.740  44.764   6.103
 5946POPC   C2B74480  24.816  44.663   6.528
 5946POPC   C3B74481  24.700  44.790   6.925
 5946POPC   C4B74482  24.700  44.541   7.259
 5947POPC   NC374483   2.301  43.354   5.437
 5947POPC   PO474484   1.650  43.243   5.591
 5947POPC   GL174485   1.980  43.215   5.854
 5947POPC   GL274486   2.134  42.898   5.723
 5947POPC   C1A74487   1.799  43.273   6.263
 5947POPC   D2A74488   1.896  43.073   6.629
 5947POPC   C3A74489   1.748  43.305   6.988
 5947POPC   C4A74490   1.805  43.231   7.429
 5947POPC   C1B74491   2.019  42.805   6.160
 5947POPC   C2B74492   2.059  42.597   6.543
 5947POPC   C3B74493   2.118  42.723   6.938
 5947POPC   C4B74494   1.951  42.720   7.322
 5948POPC   NC374495   7.069  14.276   5.398
 5948POPC   PO474496   7.593  14.729   5.357
 5948POPC   GL174497   7.398  14.486   5.710
 5948POPC   GL274498   7.638  14.315   5.839
 5948POPC   C1A74499   7.223  14.364   6.141
 5948POPC   D2A74500   7.527  14.394   6.504
 5948POPC   C3A74501   7.373  14.539   6.897
 5948POPC   C4A74502   7.410  14.383   7.331
 5948POPC   C1B74503   7.592  14.012   6.164
 5948POPC   C2B74504   7.689  13.905   6.554
 5948POPC   C3B74505   7.530  14.040   6.944
 5948POPC   C4B74506   7.667  13.879   7.298
 5949POPC   NC374507  11.589  12.496   5.387
 5949POPC   PO474508  11.123  13.083   5.488
 5949POPC   GL174509  11.264  12.898   5.877
 5949POPC   GL274510  11.364  12.534   5.877
 5949POPC   C1A74511  11.561  12.845   6.263
 5949POPC   D2A74512  11.556  12.789   6.727
 5949POPC   C3A74513  11.313  13.001   7.081
 5949POPC   C4A74514  11.355  13.252   7.467
 5949POPC   C1B74515  11.092  12.599   6.259
 5949POPC   C2B74516  10.968  12.683   6.700
 5949POPC   C3B74517  11.070  12.542   7.127
 5949POPC   C4B74518  11.080  12.805   7.529
 5950POPC   NC374519  30.863   6.695   5.434
 5950POPC   PO474520  30.258   6.298   5.424
 5950POPC   GL174521  30.437   6.589   5.859
 5950POPC   GL274522  30.789   6.688   5.912
 5950POPC   C1A74523  30.530   6.851   6.280
 5950POPC   D2A74524  30.599   6.654   6.655
 5950POPC   C3A74525  30.591   6.872   7.000
 5950POPC   C4A74526  30.519   6.503   7.206
 5950POPC   C1B74527  30.866   6.435   6.265
 5950POPC   C2B74528  31.085   6.488   6.648
 5950POPC   C3B74529  31.003   6.512   7.066
 5950POPC   C4B74530  30.959   6.311   7.455
 5951POPC   NC374531   2.941  29.275   5.240
 5951POPC   PO474532   3.171  29.949   5.263
 5951POPC   GL174533   2.836  29.959   5.611
 5951POPC   GL274534   2.522  30.105   5.722
 5951POPC   C1A74535   2.789  29.890   6.080
 5951POPC   D2A74536   2.623  30.132   6.432
 5951POPC   C3A74537   2.775  29.996   6.831
 5951POPC   C4A74538   2.935  29.989   7.232
 5951POPC   C1B74539   2.332  29.727   6.008
 5951POPC   C2B74540   2.398  29.657   6.463
 5951POPC   C3B74541   2.343  29.726   6.906
 5951POPC   C4B74542   2.613  29.598   7.190
 5952POPC   NC374543   0.986  12.781   5.399
 5952POPC   PO474544   1.336  13.378   5.431
 5952POPC   GL174545   1.314  13.025   5.718
 5952POPC   GL274546   1.679  12.916   5.759
 5952POPC   C1A74547   1.332  12.768   6.124
 5952POPC   D2A74548   1.254  12.584   6.564
 5952POPC   C3A74549   1.201  12.825   6.974
 5952POPC   C4A74550   1.008  13.112   7.289
 5952POPC   C1B74551   1.583  13.254   6.088
 5952POPC   C2B74552   1.443  13.158   6.496
 5952POPC   C3B74553   1.325  13.331   6.878
 5952POPC   C4B74554   1.500  13.195   7.238
 5953POPC   NC374555  14.719  13.516   5.196
 5953POPC   PO474556  14.187  13.818   5.531
 5953POPC   GL174557  14.318  13.494   5.801
 5953POPC   GL274558  14.687  13.429   5.801
 5953POPC   C1A74559  14.416  13.508   6.237
 5953POPC   D2A74560  14.558  13.344   6.617
 5953POPC   C3A74561  14.372  13.681   6.845
 5953POPC   C4A74562  14.323  13.816   7.249
 5953POPC   C1B74563  14.913  13.543   6.220
 5953POPC   C2B74564  14.885  13.726   6.672
 5953POPC   C3B74565  14.808  13.642   7.144
 5953POPC   C4B74566  14.812  13.754   7.591
 5954POPC   NC374567  25.714  30.512   5.307
 5954POPC   PO474568  26.267  30.734   5.633
 5954POPC   GL174569  25.857  30.752   5.776
 5954POPC   GL274570  25.864  31.098   5.744
 5954POPC   C1A74571  25.690  30.681   6.191
 5954POPC   D2A74572  25.661  30.450   6.541
 5954POPC   C3A74573  25.724  30.649   6.923
 5954POPC   C4A74574  26.096  30.628   7.160
 5954POPC   C1B74575  26.067  31.074   6.160
 5954POPC   C2B74576  26.091  30.835   6.538
 5954POPC   C3B74577  26.046  31.072   6.908
 5954POPC   C4B74578  26.314  31.096   7.281
 5955POPC   NC374579   7.609  25.588   5.500
 5955POPC   PO474580   7.660  24.962   5.266
 5955POPC   GL174581   7.439  25.117   5.652
 5955POPC   GL274582   7.146  25.372   5.619
 5955POPC   C1A74583   7.420  25.198   6.104
 5955POPC   D2A74584   7.615  25.231   6.518
 5955POPC   C3A74585   7.456  25.043   6.883
 5955POPC   C4A74586   7.641  24.990   7.286
 5955POPC   C1B74587   6.966  25.528   6.029
 5955POPC   C2B74588   7.088  25.658   6.465
 5955POPC   C3B74589   7.357  25.577   6.848
 5955POPC   C4B74590   7.267  25.326   7.258
 5956POPC   NC374591   0.968  27.716   5.496
 5956POPC   PO474592   1.567  27.525   5.239
 5956POPC   GL174593   1.407  27.549   5.686
 5956POPC   GL274594   1.148  27.308   5.802
 5956POPC   C1A74595   1.472  27.572   6.140
 5956POPC   D2A74596   1.388  27.339   6.534
 5956POPC   C3A74597   1.412  27.597   6.921
 5956POPC   C4A74598   1.653  27.643   7.303
 5956POPC   C1B74599   0.936  27.561   6.149
 5956POPC   C2B74600   0.984  27.661   6.586
 5956POPC   C3B74601   0.897  27.472   7.004
 5956POPC   C4B74602   0.986  27.540   7.455
 5957POPC   NC374603   5.335  27.482   5.321
 5957POPC   PO474604   4.996  28.044   5.441
 5957POPC   GL174605   5.185  27.804   5.762
 5957POPC   GL274606   5.028  27.497   5.758
 5957POPC   C1A74607   5.033  27.791   6.196
 5957POPC   D2A74608   4.904  27.967   6.599
 5957POPC   C3A74609   5.151  27.752   6.882
 5957POPC   C4A74610   5.120  27.478   7.219
 5957POPC   C1B74611   4.877  27.277   6.136
 5957POPC   C2B74612   4.995  27.178   6.556
 5957POPC   C3B74613   4.787  27.233   6.926
 5957POPC   C4B74614   4.641  27.670   7.051
 5958POPC   NC374615  11.194  17.035   5.308
 5958POPC   PO474616  11.759  17.111   5.600
 5958POPC   GL174617  11.368  17.104   5.808
 5958POPC   GL274618  11.181  16.809   5.770
 5958POPC   C1A74619  11.362  16.990   6.253
 5958POPC   D2A74620  11.250  16.650   6.535
 5958POPC   C3A74621  11.447  16.643   6.916
 5958POPC   C4A74622  11.552  16.983   7.203
 5958POPC   C1B74623  10.941  16.752   6.125
 5958POPC   C2B74624  10.857  16.977   6.513
 5958POPC   C3B74625  11.023  16.943   6.903
 5958POPC   C4B74626  11.080  16.731   7.272
 5959POPC   NC374627  12.005   9.898   5.470
 5959POPC   PO474628  12.422   9.357   5.507
 5959POPC   GL174629  12.067   9.387   5.846
 5959POPC   GL274630  11.691   9.274   5.844
 5959POPC   C1A74631  11.972   9.308   6.270
 5959POPC   D2A74632  12.150   9.575   6.553
 5959POPC   C3A74633  12.052   9.713   6.934
 5959POPC   C4A74634  12.344   9.960   7.198
 5959POPC   C1B74635  11.729   9.719   6.073
 5959POPC   C2B74636  11.773   9.938   6.489
 5959POPC   C3B74637  11.751  10.123   6.916
 5959POPC   C4B74638  11.777   9.935   7.310
 5960POPC   NC374639   8.634   9.560   5.471
 5960POPC   PO474640   7.891   9.726   5.421
 5960POPC   GL174641   8.029   9.858   5.819
 5960POPC   GL274642   8.369   9.910   5.777
 5960POPC   C1A74643   7.993   9.704   6.244
 5960POPC   D2A74644   7.865   9.418   6.568
 5960POPC   C3A74645   8.123   9.514   6.930
 5960POPC   C4A74646   7.959   9.832   7.177
 5960POPC   C1B74647   8.518   9.638   6.119
 5960POPC   C2B74648   8.435   9.566   6.528
 5960POPC   C3B74649   8.571   9.780   6.885
 5960POPC   C4B74650   8.478   9.755   7.260
 5961POPC   NC374651   0.854  43.092   5.423
 5961POPC   PO474652   0.224  43.319   5.351
 5961POPC   GL174653   0.450  43.249   5.744
 5961POPC   GL274654   0.188  43.068   5.830
 5961POPC   C1A74655   0.534  43.204   6.225
 5961POPC   D2A74656   0.542  42.905   6.596
 5961POPC   C3A74657   0.640  43.061   7.026
 5961POPC   C4A74658   0.537  43.187   7.472
 5961POPC   C1B74659   0.073  43.400   6.120
 5961POPC   C2B74660   0.154  43.402   6.578
 5961POPC   C3B74661   0.136  43.069   6.883
 5961POPC   C4B74662   0.182  42.908   7.287
 5962POPC   NC374663  20.401   1.658   5.478
 5962POPC   PO474664  20.871   2.061   5.244
 5962POPC   GL174665  20.634   2.089   5.713
 5962POPC   GL274666  20.495   1.809   5.944
 5962POPC   C1A74667  20.573   2.237   6.196
 5962POPC   D2A74668  20.350   2.276   6.594
 5962POPC   C3A74669  20.588   2.239   6.985
 5962POPC   C4A74670  20.591   1.974   7.337
 5962POPC   C1B74671  20.750   1.769   6.326
 5962POPC   C2B74672  20.593   1.740   6.760
 5962POPC   C3B74673  20.430   1.536   7.155
 5962POPC   C4B74674  20.437   1.604   7.626
 5963POPC   NC374675  35.967  32.399   5.469
 5963POPC   PO474676  36.203  31.889   5.463
 5963POPC   GL174677  36.219  32.147   5.837
 5963POPC   GL274678  35.869  32.102   5.893
 5963POPC   C1A74679  36.347  32.425   6.197
 5963POPC   D2A74680  36.407  32.305   6.642
 5963POPC   C3A74681  36.189  32.399   7.032
 5963POPC   C4A74682  36.232  32.170   7.398
 5963POPC   C1B74683  36.032  32.045   6.312
 5963POPC   C2B74684  35.970  32.034   6.734
 5963POPC   C3B74685  35.958  31.867   7.114
 5963POPC   C4B74686  35.936  31.779   7.577
 5964POPC   NC374687  12.771   0.872   5.545
 5964POPC   PO474688  12.392   1.412   5.561
 5964POPC   GL174689  12.757   1.272   5.912
 5964POPC   GL274690  13.032   0.969   5.954
 5964POPC   C1A74691  12.964   1.294   6.343
 5964POPC   D2A74692  13.118   1.133   6.759
 5964POPC   C3A74693  12.939   1.362   7.043
 5964POPC   C4A74694  12.610   1.636   6.938
 5964POPC   C1B74695  12.651   0.897   6.223
 5964POPC   C2B74696  12.532   1.098   6.616
 5964POPC   C3B74697  12.580   0.982   7.020
 5964POPC   C4B74698  12.938   0.848   7.194
 5965POPC   NC374699  42.004  20.520   5.547
 5965POPC   PO474700  41.396  20.845   5.548
 5965POPC   GL174701  41.404  20.616   5.907
 5965POPC   GL274702  41.612  20.348   5.880
 5965POPC   C1A74703  41.464  20.683   6.335
 5965POPC   D2A74704  41.295  20.808   6.695
 5965POPC   C3A74705  41.576  20.867   7.021
 5965POPC   C4A74706  41.572  20.752   7.453
 5965POPC   C1B74707  41.759  20.251   6.313
 5965POPC   C2B74708  41.584  20.332   6.739
 5965POPC   C3B74709  41.699  20.357   7.180
 5965POPC   C4B74710  41.921  20.401   7.587
 5966POPC   NC374711  27.867  34.335   5.268
 5966POPC   PO474712  27.519  34.905   5.303
 5966POPC   GL174713  27.492  34.745   5.725
 5966POPC   GL274714  27.591  34.399   5.733
 5966POPC   C1A74715  27.659  34.734   6.163
 5966POPC   D2A74716  27.663  34.550   6.597
 5966POPC   C3A74717  27.682  34.715   7.027
 5966POPC   C4A74718  27.935  34.464   7.301
 5966POPC   C1B74719  27.428  34.281   6.159
 5966POPC   C2B74720  27.391  34.131   6.609
 5966POPC   C3B74721  27.515  34.215   7.047
 5966POPC   C4B74722  27.446  34.089   7.483
 5967POPC   NC374723  25.490  33.688   5.428
 5967POPC   PO474724  24.881  33.973   5.234
 5967POPC   GL174725  25.071  33.903   5.644
 5967POPC   GL274726  25.001  33.617   5.874
 5967POPC   C1A74727  25.298  34.007   6.047
 5967POPC   D2A74728  25.262  34.235   6.444
 5967POPC   C3A74729  25.367  33.970   6.788
 5967POPC   C4A74730  25.205  33.949   7.202
 5967POPC   C1B74731  25.130  33.338   6.209
 5967POPC   C2B74732  25.237  33.396   6.652
 5967POPC   C3B74733  25.273  33.436   7.107
 5967POPC   C4B74734  25.574  33.553   7.422
 5968POPC   NC374735   1.528   0.191   5.515
 5968POPC   PO474736   1.964   0.440   4.999
 5968POPC   GL174737   1.964   0.498   5.541
 5968POPC   GL274738   2.324   0.473   5.764
 5968POPC   C1A74739   1.934   0.621   6.028
 5968POPC   D2A74740   2.260   0.633   6.387
 5968POPC   C3A74741   2.141   0.487   6.810
 5968POPC   C4A74742   2.031   0.498   7.280
 5968POPC   C1B74743   2.187   0.175   6.144
 5968POPC   C2B74744   1.916   0.059   6.537
 5968POPC   C3B74745   2.006   0.029   6.994
 5968POPC   C4B74746   2.408   0.202   7.148
 5969POPC   NC374747  19.252  44.235   5.095
 5969POPC   PO474748  18.834  44.696   5.433
 5969POPC   GL174749  19.005  44.625   5.806
 5969POPC   GL274750  18.815  44.339   5.837
 5969POPC   C1A74751  19.281  44.710   6.152
 5969POPC   D2A74752  19.167  44.903   6.529
 5969POPC   C3A74753  19.087  44.691   6.887
 5969POPC   C4A74754  18.849  44.810   7.231
 5969POPC   C1B74755  19.055  44.250   6.204
 5969POPC   C2B74756  19.319  44.337   6.553
 5969POPC   C3B74757  19.143  44.164   6.915
 5969POPC   C4B74758  19.074  44.347   7.268
 5970POPC   NC374759  32.622  33.679   5.463
 5970POPC   PO474760  32.226  34.196   5.448
 5970POPC   GL174761  32.135  33.915   5.772
 5970POPC   GL274762  31.744  33.935   5.823
 5970POPC   C1A74763  32.312  33.699   6.160
 5970POPC   D2A74764  32.549  33.726   6.552
 5970POPC   C3A74765  32.350  33.781   6.974
 5970POPC   C4A74766  32.537  33.990   7.335
 5970POPC   C1B74767  31.942  34.095   6.193
 5970POPC   C2B74768  32.083  34.008   6.590
 5970POPC   C3B74769  32.035  34.204   6.979
 5970POPC   C4B74770  32.015  33.980   7.362
 5971POPC   NC374771  11.471  14.469   5.314
 5971POPC   PO474772  12.228  14.456   5.315
 5971POPC   GL174773  12.095  14.471   5.732
 5971POPC   GL274774  11.901  14.170   5.769
 5971POPC   C1A74775  12.177  14.444   6.174
 5971POPC   D2A74776  11.985  14.364   6.564
 5971POPC   C3A74777  12.177  14.427   6.926
 5971POPC   C4A74778  12.001  14.613   7.263
 5971POPC   C1B74779  11.714  14.143   6.191
 5971POPC   C2B74780  11.604  14.034   6.634
 5971POPC   C3B74781  11.675  14.265   7.025
 5971POPC   C4B74782  11.623  14.192   7.470
 5972POPC   NC374783  31.100  30.151   5.233
 5972POPC   PO474784  30.591  29.626   5.324
 5972POPC   GL174785  30.783  29.802   5.705
 5972POPC   GL274786  31.064  29.634   5.704
 5972POPC   C1A74787  30.833  30.016   6.121
 5972POPC   D2A74788  30.619  29.991   6.522
 5972POPC   C3A74789  30.633  29.687   6.807
 5972POPC   C4A74790  30.580  29.920   7.177
 5972POPC   C1B74791  31.176  29.618   6.127
 5972POPC   C2B74792  31.090  29.788   6.529
 5972POPC   C3B74793  30.995  30.017   6.887
 5972POPC   C4B74794  31.087  29.963   7.270
 5973POPC   NC374795   8.715  34.447   5.476
 5973POPC   PO474796   9.288  34.804   5.577
 5973POPC   GL174797   9.101  34.526   5.835
 5973POPC   GL274798   9.364  34.318   5.891
 5973POPC   C1A74799   8.815  34.592   6.198
 5973POPC   D2A74800   8.783  34.339   6.571
 5973POPC   C3A74801   8.831  34.518   6.969
 5973POPC   C4A74802   8.847  34.238   7.309
 5973POPC   C1B74803   9.365  34.563   6.296
 5973POPC   C2B74804   9.448  34.636   6.758
 5973POPC   C3B74805   9.300  34.452   7.182
 5973POPC   C4B74806   9.121  34.642   7.555
 5974POPC   NC374807  29.165  20.434   5.016
 5974POPC   PO474808  28.842  20.764   5.496
 5974POPC   GL174809  29.255  20.812   5.714
 5974POPC   GL274810  29.415  20.462   5.773
 5974POPC   C1A74811  29.153  20.871   6.149
 5974POPC   D2A74812  28.956  20.698   6.508
 5974POPC   C3A74813  29.120  20.814   6.878
 5974POPC   C4A74814  29.070  20.676   7.234
 5974POPC   C1B74815  29.206  20.321   6.189
 5974POPC   C2B74816  29.085  20.183   6.638
 5974POPC   C3B74817  29.225  20.222   7.085
 5974POPC   C4B74818  29.494  20.478   7.433
 5975POPC   NC374819  29.059   1.642   5.490
 5975POPC   PO474820  29.336   2.263   5.529
 5975POPC   GL174821  29.218   2.024   5.900
 5975POPC   GL274822  28.860   1.907   5.913
 5975POPC   C1A74823  29.171   1.999   6.357
 5975POPC   D2A74824  29.262   1.749   6.725
 5975POPC   C3A74825  29.449   1.954   7.083
 5975POPC   C4A74826  29.362   1.961   7.569
 5975POPC   C1B74827  28.809   2.343   6.123
 5975POPC   C2B74828  28.754   2.475   6.566
 5975POPC   C3B74829  29.007   2.209   6.851
 5975POPC   C4B74830  29.143   2.316   7.254
 5976POPC   NC374831  13.281  42.250   5.495
 5976POPC   PO474832  13.790  42.563   5.253
 5976POPC   GL174833  13.703  42.507   5.739
 5976POPC   GL274834  13.402  42.581   5.903
 5976POPC   C1A74835  13.768  42.324   6.189
 5976POPC   D2A74836  13.770  42.503   6.636
 5976POPC   C3A74837  13.715  42.207   6.997
 5976POPC   C4A74838  13.674  42.112   7.475
 5976POPC   C1B74839  13.308  42.134   6.138
 5976POPC   C2B74840  13.346  42.170   6.588
 5976POPC   C3B74841  13.286  42.508   6.873
 5976POPC   C4B74842  13.385  42.513   7.291
 5977POPC   NC374843  40.401   5.683   5.607
 5977POPC   PO474844  39.732   5.685   5.533
 5977POPC   GL174845  39.982   5.731   5.914
 5977POPC   GL274846  40.143   6.053   5.866
 5977POPC   C1A74847  40.236   5.708   6.309
 5977POPC   D2A74848  40.136   5.765   6.762
 5977POPC   C3A74849  40.148   5.673   7.197
 5977POPC   C4A74850  39.750   5.678   7.421
 5977POPC   C1B74851  40.038   6.205   6.262
 5977POPC   C2B74852  39.818   6.158   6.647
 5977POPC   C3B74853  39.869   6.125   7.072
 5977POPC   C4B74854  39.968   6.140   7.485
 5978POPC   NC374855   9.503   2.313   5.559
 5978POPC   PO474856   9.077   1.889   5.155
 5978POPC   GL174857   8.868   2.068   5.615
 5978POPC   GL274858   9.133   2.170   5.848
 5978POPC   C1A74859   8.730   2.079   6.117
 5978POPC   D2A74860   8.809   2.390   6.459
 5978POPC   C3A74861   8.671   2.240   6.857
 5978POPC   C4A74862   8.954   2.184   7.180
 5978POPC   C1B74863   9.283   2.059   6.260
 5978POPC   C2B74864   9.119   2.028   6.676
 5978POPC   C3B74865   8.871   1.759   6.891
 5978POPC   C4B74866   9.075   1.691   7.238
 5979POPC   NC374867  19.591  40.787   5.361
 5979POPC   PO474868  19.832  40.199   5.399
 5979POPC   GL174869  19.672  40.472   5.791
 5979POPC   GL274870  19.884  40.791   5.834
 5979POPC   C1A74871  19.533  40.623   6.242
 5979POPC   D2A74872  19.789  40.760   6.642
 5979POPC   C3A74873  19.896  40.619   7.071
 5979POPC   C4A74874  20.060  40.485   7.500
 5979POPC   C1B74875  19.791  41.063   6.230
 5979POPC   C2B74876  19.688  41.271   6.642
 5979POPC   C3B74877  19.854  41.178   7.063
 5979POPC   C4B74878  19.860  40.938   7.471
 5980POPC   NC374879  28.781  26.952   5.480
 5980POPC   PO474880  28.116  26.880   5.458
 5980POPC   GL174881  28.362  26.899   5.835
 5980POPC   GL274882  28.317  26.575   5.995
 5980POPC   C1A74883  28.321  27.023   6.272
 5980POPC   D2A74884  28.278  26.942   6.737
 5980POPC   C3A74885  28.602  27.051   7.044
 5980POPC   C4A74886  28.674  26.987   7.481
 5980POPC   C1B74887  28.475  26.536   6.437
 5980POPC   C2B74888  28.609  26.539   6.869
 5980POPC   C3B74889  28.353  26.646   7.224
 5980POPC   C4B74890  28.295  26.462   7.617
 5981POPC   NC374891  40.399   7.510   5.229
 5981POPC   PO474892  39.780   7.349   5.355
 5981POPC   GL174893  39.869   7.346   5.763
 5981POPC   GL274894  39.675   7.049   5.812
 5981POPC   C1A74895  39.947   7.609   6.138
 5981POPC   D2A74896  39.838   7.476   6.565
 5981POPC   C3A74897  39.964   7.625   6.970
 5981POPC   C4A74898  39.920   7.512   7.390
 5981POPC   C1B74899  39.878   7.081   6.219
 5981POPC   C2B74900  40.071   7.010   6.638
 5981POPC   C3B74901  39.932   7.084   7.078
 5981POPC   C4B74902  40.097   7.044   7.539
 5982POPC   NC374903  15.042  35.484   5.629
 5982POPC   PO474904  15.589  35.160   5.453
 5982POPC   GL174905  15.394  35.099   5.859
 5982POPC   GL274906  15.033  35.030   5.869
 5982POPC   C1A74907  15.299  35.331   6.258
 5982POPC   D2A74908  15.526  35.458   6.652
 5982POPC   C3A74909  15.211  35.560   6.977
 5982POPC   C4A74910  15.209  35.705   7.407
 5982POPC   C1B74911  14.789  35.054   6.236
 5982POPC   C2B74912  14.769  34.923   6.662
 5982POPC   C3B74913  14.772  35.219   6.991
 5982POPC   C4B74914  14.851  35.334   7.398
 5983POPC   NC374915  19.147  33.468   5.403
 5983POPC   PO474916  19.224  32.801   5.426
 5983POPC   GL174917  18.952  32.974   5.729
 5983POPC   GL274918  19.206  33.175   5.860
 5983POPC   C1A74919  18.920  32.930   6.214
 5983POPC   D2A74920  18.999  32.617   6.550
 5983POPC   C3A74921  18.993  32.795   6.961
 5983POPC   C4A74922  19.050  33.235   7.108
 5983POPC   C1B74923  19.426  33.001   6.253
 5983POPC   C2B74924  19.415  32.971   6.708
 5983POPC   C3B74925  19.461  32.933   7.164
 5983POPC   C4B74926  19.134  32.839   7.445
 5984POPC   NC374927  29.976  30.680   5.373
 5984POPC   PO474928  29.452  30.935   5.483
 5984POPC   GL174929  29.696  30.703   5.788
 5984POPC   GL274930  29.603  30.412   5.879
 5984POPC   C1A74931  29.982  30.780   6.125
 5984POPC   D2A74932  29.914  30.966   6.534
 5984POPC   C3A74933  30.073  30.721   6.872
 5984POPC   C4A74934  29.891  30.803   7.258
 5984POPC   C1B74935  29.931  30.268   6.153
 5984POPC   C2B74936  30.205  30.310   6.510
 5984POPC   C3B74937  30.177  30.179   6.928
 5984POPC   C4B74938  29.828  30.286   7.160
 5985POPC   NC374939  37.163  26.930   5.126
 5985POPC   PO474940  36.735  26.522   5.458
 5985POPC   GL174941  36.942  26.903   5.651
 5985POPC   GL274942  36.660  27.129   5.676
 5985POPC   C1A74943  37.021  26.973   6.099
 5985POPC   D2A74944  36.891  26.713   6.480
 5985POPC   C3A74945  37.148  26.731   6.871
 5985POPC   C4A74946  37.102  26.582   7.325
 5985POPC   C1B74947  36.563  27.221   6.138
 5985POPC   C2B74948  36.789  27.214   6.550
 5985POPC   C3B74949  36.752  27.058   6.981
 5985POPC   C4B74950  37.142  27.085   7.249
 5986POPC   NC374951   7.744  32.333   5.374
 5986POPC   PO474952   7.179  32.059   5.529
 5986POPC   GL174953   7.505  32.036   5.795
 5986POPC   GL274954   7.536  32.373   5.840
 5986POPC   C1A74955   7.685  32.062   6.216
 5986POPC   D2A74956   7.610  31.979   6.665
 5986POPC   C3A74957   7.587  32.334   6.941
 5986POPC   C4A74958   7.529  32.243   7.349
 5986POPC   C1B74959   7.218  32.494   6.167
 5986POPC   C2B74960   7.196  32.358   6.612
 5986POPC   C3B74961   7.126  32.519   7.038
 5986POPC   C4B74962   7.211  32.603   7.477
 5987POPC   NC374963  26.951   6.071   4.943
 5987POPC   PO474964  27.132   5.800   5.471
 5987POPC   GL174965  26.833   5.691   5.840
 5987POPC   GL274966  26.486   5.572   5.787
 5987POPC   C1A74967  26.850   5.700   6.308
 5987POPC   D2A74968  26.774   6.016   6.661
 5987POPC   C3A74969  26.820   5.988   7.154
 5987POPC   C4A74970  27.169   6.125   7.432
 5987POPC   C1B74971  26.387   5.480   6.222
 5987POPC   C2B74972  26.508   5.561   6.652
 5987POPC   C3B74973  26.387   5.558   7.047
 5987POPC   C4B74974  26.455   5.741   7.446
 5988POPC   NC374975  24.697  21.100   5.463
 5988POPC   PO474976  24.110  21.471   5.331
 5988POPC   GL174977  24.346  21.506   5.745
 5988POPC   GL274978  24.048  21.619   5.906
 5988POPC   C1A74979  24.548  21.245   6.150
 5988POPC   D2A74980  24.414  21.063   6.597
 5988POPC   C3A74981  24.573  21.209   6.971
 5988POPC   C4A74982  24.424  21.365   7.330
 5988POPC   C1B74983  24.320  21.711   6.272
 5988POPC   C2B74984  24.273  21.568   6.721
 5988POPC   C3B74985  24.074  21.689   7.109
 5988POPC   C4B74986  24.092  21.673   7.570
 5989POPC   NC374987  11.614  30.068   5.627
 5989POPC   PO474988  11.041  29.784   5.549
 5989POPC   GL174989  11.175  29.891   5.882
 5989POPC   GL274990  11.144  30.246   5.860
 5989POPC   C1A74991  11.403  29.660   6.164
 5989POPC   D2A74992  11.280  29.523   6.541
 5989POPC   C3A74993  11.529  29.545   6.884
 5989POPC   C4A74994  11.400  29.763   7.256
 5989POPC   C1B74995  11.312  30.159   6.288
 5989POPC   C2B74996  11.514  30.376   6.642
 5989POPC   C3B74997  11.313  30.370   7.025
 5989POPC   C4B74998  11.243  30.230   7.433
 5990POPC   NC374999   0.651   7.234   5.392
 5990POPC   PO475000   0.020   7.305   5.560
 5990POPC   GL175001   0.339   7.329   5.880
 5990POPC   GL275002   0.457   7.687   5.845
 5990POPC   C1A75003   0.316   7.458   6.338
 5990POPC   D2A75004   0.222   7.515   6.800
 5990POPC   C3A75005   0.292   7.124   7.039
 5990POPC   C4A75006   0.304   6.859   7.403
 5990POPC   C1B75007   0.795   7.472   6.121
 5990POPC   C2B75008   0.783   7.325   6.566
 5990POPC   C3B75009   0.708   7.450   7.012
 5990POPC   C4B75010   0.619   7.265   7.414
 5991POPC   NC375011  41.045  23.872   5.458
 5991POPC   PO475012  40.372  23.986   5.413
 5991POPC   GL175013  40.449  23.895   5.832
 5991POPC   GL275014  40.759  23.747   5.837
 5991POPC   C1A75015  40.579  24.018   6.246
 5991POPC   D2A75016  40.461  23.811   6.618
 5991POPC   C3A75017  40.655  23.883   6.979
 5991POPC   C4A75018  40.521  24.219   7.226
 5991POPC   C1B75019  41.050  23.848   6.158
 5991POPC   C2B75020  40.978  23.756   6.585
 5991POPC   C3B75021  41.172  23.777   6.993
 5991POPC   C4B75022  41.257  23.855   7.402
 5992POPC   NC375023  27.788  29.138   5.327
 5992POPC   PO475024  27.155  29.144   5.612
 5992POPC   GL175025  27.507  28.984   5.837
 5992POPC   GL275026  27.786  29.243   5.844
 5992POPC   C1A75027  27.461  29.031   6.284
 5992POPC   D2A75028  27.551  29.414   6.529
 5992POPC   C3A75029  27.498  29.261   6.947
 5992POPC   C4A75030  27.736  29.223   7.301
 5992POPC   C1B75031  27.959  29.028   6.213
 5992POPC   C2B75032  27.948  29.083   6.674
 5992POPC   C3B75033  27.922  28.816   7.032
 5992POPC   C4B75034  28.116  28.864   7.431
 5993POPC   NC375035  42.929  43.446   5.518
 5993POPC   PO475036  43.383  42.933   5.417
 5993POPC   GL175037  43.107  43.010   5.735
 5993POPC   GL275038  42.758  42.914   5.688
 5993POPC   C1A75039  43.192  43.253   6.124
 5993POPC   D2A75040  43.270  43.137   6.543
 5993POPC   C3A75041  43.339  43.385   6.897
 5993POPC   C4A75042  43.333  43.093   7.203
 5993POPC   C1B75043  42.674  43.158   6.096
 5993POPC   C2B75044  42.788  43.284   6.515
 5993POPC   C3B75045  42.897  43.170   6.929
 5993POPC   C4B75046  42.892  43.368   7.327
 5994POPC   NC375047  32.792  15.490   5.339
 5994POPC   PO475048  33.407  15.139   5.244
 5994POPC   GL175049  33.157  15.214   5.624
 5994POPC   GL275050  32.998  14.897   5.728
 5994POPC   C1A75051  33.010  15.319   6.041
 5994POPC   D2A75052  33.081  15.139   6.442
 5994POPC   C3A75053  33.304  15.336   6.773
 5994POPC   C4A75054  32.969  15.313   7.057
 5994POPC   C1B75055  32.775  14.837   6.130
 5994POPC   C2B75056  32.633  14.943   6.574
 5994POPC   C3B75057  32.745  14.844   7.003
 5994POPC   C4B75058  32.589  14.777   7.409
 5995POPC   NC375059  16.179  43.961   5.309
 5995POPC   PO475060  15.583  43.669   5.236
 5995POPC   GL175061  15.742  43.941   5.593
 5995POPC   GL275062  15.892  43.635   5.750
 5995POPC   C1A75063  15.866  44.087   6.025
 5995POPC   D2A75064  16.086  44.264   6.396
 5995POPC   C3A75065  16.042  44.324   6.875
 5995POPC   C4A75066  16.235  44.198   7.294
 5995POPC   C1B75067  16.045  43.641   6.197
 5995POPC   C2B75068  16.069  43.790   6.636
 5995POPC   C3B75069  15.949  43.847   7.061
 5995POPC   C4B75070  15.954  43.585   7.419
 5996POPC   NC375071   0.197  36.681   5.029
 5996POPC   PO475072   0.383  37.251   5.437
 5996POPC   GL175073   0.602  37.192   5.846
 5996POPC   GL275074   0.732  36.847   5.790
 5996POPC   C1A75075   0.425  37.136   6.266
 5996POPC   D2A75076   0.298  37.279   6.671
 5996POPC   C3A75077   0.208  36.964   6.991
 5996POPC   C4A75078   0.307  36.491   6.922
 5996POPC   C1B75079   0.829  36.839   6.242
 5996POPC   C2B75080   0.630  36.836   6.684
 5996POPC   C3B75081   0.656  36.790   7.146
 5996POPC   C4B75082   0.734  36.732   7.592
 5997POPC   NC375083  28.917  27.576   5.741
 5997POPC   PO475084  29.400  27.837   5.371
 5997POPC   GL175085  29.339  27.845   5.816
 5997POPC   GL275086  29.444  27.537   5.925
 5997POPC   C1A75087  29.226  27.796   6.310
 5997POPC   D2A75088  29.062  27.591   6.719
 5997POPC   C3A75089  29.110  27.798   7.149
 5997POPC   C4A75090  28.896  27.840   7.568
 5997POPC   C1B75091  29.273  27.285   6.248
 5997POPC   C2B75092  29.449  27.203   6.624
 5997POPC   C3B75093  29.394  27.353   7.047
 5997POPC   C4B75094  28.995  27.317   7.250
 5998POPC   NC375095   0.023  30.220   4.879
 5998POPC   PO475096   0.222  29.812   5.350
 5998POPC   GL175097   0.354  29.992   5.742
 5998POPC   GL275098   0.599  29.752   5.790
 5998POPC   C1A75099   0.392  30.050   6.184
 5998POPC   D2A75100   0.171  29.964   6.560
 5998POPC   C3A75101   0.436  30.125   6.881
 5998POPC   C4A75102   0.267  30.123   7.273
 5998POPC   C1B75103   0.750  29.662   6.199
 5998POPC   C2B75104   0.626  29.703   6.643
 5998POPC   C3B75105   0.502  29.663   7.105
 5998POPC   C4B75106   0.545  29.836   7.559
 5999POPC   NC375107  11.567  31.756   5.468
 5999POPC   PO475108  11.048  31.353   5.377
 5999POPC   GL175109  11.213  31.346   5.780
 5999POPC   GL275110  10.938  31.227   5.896
 5999POPC   C1A75111  11.236  31.500   6.244
 5999POPC   D2A75112  11.507  31.624   6.625
 5999POPC   C3A75113  11.366  31.640   7.066
 5999POPC   C4A75114  11.419  31.646   7.535
 5999POPC   C1B75115  10.965  31.068   6.310
 5999POPC   C2B75116  10.999  31.309   6.713
 5999POPC   C3B75117  10.956  31.307   7.162
 5999POPC   C4B75118  10.755  31.069   7.516
 6000POPC   NC375119  31.699  41.124   5.307
 6000POPC   PO475120  31.170  40.836   5.545
 6000POPC   GL175121  31.486  40.555   5.767
 6000POPC   GL275122  31.867  40.538   5.681
 6000POPC   C1A75123  31.392  40.538   6.220
 6000POPC   D2A75124  31.374  40.951   6.416
 6000POPC   C3A75125  31.449  40.918   6.854
 6000POPC   C4A75126  31.247  40.828   7.251
 6000POPC   C1B75127  31.799  40.798   6.073
 6000POPC   C2B75128  31.862  40.765   6.508
 6000POPC   C3B75129  31.980  40.702   6.908
 6000POPC   C4B75130  31.757  40.710   7.261
 6001POPC   NC375131   9.238  13.320   5.127
 6001POPC   PO475132   8.822  12.857   5.530
 6001POPC   GL175133   8.725  12.747   5.914
 6001POPC   GL275134   8.439  12.977   5.970
 6001POPC   C1A75135   9.073  12.669   6.242
 6001POPC   D2A75136   9.263  12.557   6.669
 6001POPC   C3A75137   9.150  12.862   7.016
 6001POPC   C4A75138   8.772  12.857   7.266
 6001POPC   C1B75139   8.766  13.101   6.269
 6001POPC   C2B75140   8.773  13.007   6.700
 6001POPC   C3B75141   8.512  13.191   6.991
 6001POPC   C4B75142   8.526  13.380   7.400
 6002POPC   NC375143   6.427  20.932   5.690
 6002POPC   PO475144   6.637  21.491   5.366
 6002POPC   GL175145   6.742  21.317   5.774
 6002POPC   GL275146   6.897  21.017   5.895
 6002POPC   C1A75147   6.529  21.333   6.200
 6002POPC   D2A75148   6.335  21.567   6.522
 6002POPC   C3A75149   6.562  21.604   6.892
 6002POPC   C4A75150   6.431  21.487   7.276
 6002POPC   C1B75151   7.005  21.182   6.299
 6002POPC   C2B75152   6.736  21.170   6.665
 6002POPC   C3B75153   6.776  21.169   7.111
 6002POPC   C4B75154   6.615  21.016   7.521
 6003POPC   NC375155   1.270   8.001   5.269
 6003POPC   PO475156   1.018   8.502   5.609
 6003POPC   GL175157   1.393   8.277   5.802
 6003POPC   GL275158   1.560   7.943   5.682
 6003POPC   C1A75159   1.432   8.367   6.253
 6003POPC   D2A75160   1.072   8.333   6.520
 6003POPC   C3A75161   1.159   8.113   6.876
 6003POPC   C4A75162   1.151   8.198   7.276
 6003POPC   C1B75163   1.672   7.857   6.111
 6003POPC   C2B75164   1.524   7.929   6.524
 6003POPC   C3B75165   1.594   7.828   6.937
 6003POPC   C4B75166   1.620   7.994   7.316
 6004POPC   NC375167  31.588  26.455   5.449
 6004POPC   PO475168  31.260  25.931   5.171
 6004POPC   GL175169  31.215  25.996   5.652
 6004POPC   GL275170  31.050  25.678   5.728
 6004POPC   C1A75171  31.382  26.145   6.086
 6004POPC   D2A75172  31.640  26.067   6.489
 6004POPC   C3A75173  31.569  26.289   6.923
 6004POPC   C4A75174  31.511  26.336   7.413
 6004POPC   C1B75175  31.294  25.629   6.080
 6004POPC   C2B75176  31.200  25.789   6.466
 6004POPC   C3B75177  31.390  25.782   6.848
 6004POPC   C4B75178  31.231  25.987   7.185
 6005POPC   NC375179  23.728  31.098   5.485
 6005POPC   PO475180  23.818  30.416   5.344
 6005POPC   GL175181  23.651  30.632   5.692
 6005POPC   GL275182  23.982  30.702   5.745
 6005POPC   C1A75183  23.565  30.632   6.131
 6005POPC   D2A75184  23.783  30.449   6.483
 6005POPC   C3A75185  23.517  30.422   6.842
 6005POPC   C4A75186  23.602  30.344   7.247
 6005POPC   C1B75187  24.075  30.710   6.150
 6005POPC   C2B75188  24.059  30.906   6.535
 6005POPC   C3B75189  23.966  30.688   6.906
 6005POPC   C4B75190  23.694  30.837   7.238
 6006POPC   NC375191   7.810  25.637   5.033
 6006POPC   PO475192   7.157  25.792   5.224
 6006POPC   GL175193   7.206  25.883   5.714
 6006POPC   GL275194   7.431  25.687   5.947
 6006POPC   C1A75195   7.377  26.161   6.070
 6006POPC   D2A75196   7.470  25.994   6.491
 6006POPC   C3A75197   7.294  26.147   6.896
 6006POPC   C4A75198   7.549  26.357   7.230
 6006POPC   C1B75199   7.783  25.596   6.183
 6006POPC   C2B75200   7.866  25.693   6.593
 6006POPC   C3B75201   7.788  25.965   6.922
 6006POPC   C4B75202   7.531  25.854   7.264
 6007POPC   NC375203  32.317  26.570   5.384
 6007POPC   PO475204  32.567  27.126   5.579
 6007POPC   GL175205  32.300  26.925   5.884
 6007POPC   GL275206  32.219  26.583   5.892
 6007POPC   C1A75207  32.057  26.933   6.253
 6007POPC   D2A75208  31.915  27.124   6.624
 6007POPC   C3A75209  32.128  27.123   6.997
 6007POPC   C4A75210  32.166  26.845   7.387
 6007POPC   C1B75211  32.460  26.559   6.246
 6007POPC   C2B75212  32.387  26.778   6.620
 6007POPC   C3B75213  32.492  26.749   7.018
 6007POPC   C4B75214  32.870  26.683   7.144
 6008POPC   NC375215  44.848  31.013   5.463
 6008POPC   PO475216  44.318  30.558   5.432
 6008POPC   GL175217  44.548  30.532   5.807
 6008POPC   GL275218  44.878  30.574   5.726
 6008POPC   C1A75219  44.635  30.746   6.202
 6008POPC   D2A75220  44.489  31.120   6.463
 6008POPC   C3A75221  44.587  31.046   6.896
 6008POPC   C4A75222  44.387  30.864   7.243
 6008POPC   C1B75223  44.971  30.339   6.096
 6008POPC   C2B75224   0.167  30.462   6.480
 6008POPC   C3B75225  44.998  30.385   6.882
 6008POPC   C4B75226  44.641  30.451   7.100
 6009POPC   NC375227  42.922  15.038   5.351
 6009POPC   PO475228  43.426  15.422   5.610
 6009POPC   GL175229  43.084  15.431   5.896
 6009POPC   GL275230  42.706  15.508   5.833
 6009POPC   C1A75231  43.096  15.156   6.273
 6009POPC   D2A75232  42.810  15.051   6.606
 6009POPC   C3A75233  42.945  15.147   7.032
 6009POPC   C4A75234  43.062  14.944   7.443
 6009POPC   C1B75235  42.757  15.516   6.285
 6009POPC   C2B75236  42.944  15.555   6.693
 6009POPC   C3B75237  42.763  15.611   7.120
 6009POPC   C4B75238  42.644  15.304   7.410
 6010POPC   NC375239  11.006  43.921   5.418
 6010POPC   PO475240  11.664  43.828   5.315
 6010POPC   GL175241  11.617  43.752   5.759
 6010POPC   GL275242  11.356  43.934   5.830
 6010POPC   C1A75243  11.680  43.819   6.216
 6010POPC   D2A75244  11.412  43.756   6.628
 6010POPC   C3A75245  11.515  43.889   7.066
 6010POPC   C4A75246  11.502  43.707   7.508
 6010POPC   C1B75247  11.150  43.869   6.204
 6010POPC   C2B75248  11.120  44.189   6.569
 6010POPC   C3B75249  11.012  44.104   6.989
 6010POPC   C4B75250  11.035  43.780   7.295
 6011POPC   NC375251  28.945  21.917   5.505
 6011POPC   PO475252  29.529  22.372   5.542
 6011POPC   GL175253  29.525  22.149   5.922
 6011POPC   GL275254  29.297  21.857   5.923
 6011POPC   C1A75255  29.347  22.369   6.290
 6011POPC   D2A75256  28.978  22.462   6.573
 6011POPC   C3A75257  29.115  22.359   7.000
 6011POPC   C4A75258  29.392  21.983   7.107
 6011POPC   C1B75259  28.999  21.975   6.265
 6011POPC   C2B75260  29.051  21.921   6.719
 6011POPC   C3B75261  28.889  21.941   7.145
 6011POPC   C4B75262  29.123  21.794   7.502
 6012POPC   NC375263   9.929  37.246   5.125
 6012POPC   PO475264   9.770  37.897   5.382
 6012POPC   GL175265   9.541  37.897   5.767
 6012POPC   GL275266   9.661  37.550   5.860
 6012POPC   C1A75267   9.488  37.916   6.223
 6012POPC   D2A75268   9.629  37.774   6.633
 6012POPC   C3A75269   9.646  37.919   7.050
 6012POPC   C4A75270  10.004  37.876   7.267
 6012POPC   C1B75271   9.959  37.687   6.147
 6012POPC   C2B75272   9.985  37.444   6.502
 6012POPC   C3B75273  10.029  37.493   6.922
 6012POPC   C4B75274   9.744  37.436   7.240
 6013POPC   NC375275  39.224  43.300   5.033
 6013POPC   PO475276  38.915  42.990   5.517
 6013POPC   GL175277  39.111  43.082   5.903
 6013POPC   GL275278  39.303  43.400   5.943
 6013POPC   C1A75279  39.196  42.804   6.241
 6013POPC   D2A75280  39.304  42.872   6.668
 6013POPC   C3A75281  39.208  43.264   6.792
 6013POPC   C4A75282  39.167  43.279   7.219
 6013POPC   C1B75283  39.507  43.210   6.309
 6013POPC   C2B75284  39.713  43.217   6.721
 6013POPC   C3B75285  39.596  43.031   7.096
 6013POPC   C4B75286  39.577  43.138   7.517
 6014POPC   NC375287   1.709  10.399   5.421
 6014POPC   PO475288   2.376  10.440   5.365
 6014POPC   GL175289   2.107  10.471   5.749
 6014POPC   GL275290   1.820  10.228   5.900
 6014POPC   C1A75291   2.199  10.445   6.173
 6014POPC   D2A75292   1.934  10.258   6.499
 6014POPC   C3A75293   2.094  10.433   6.880
 6014POPC   C4A75294   2.017  10.711   7.228
 6014POPC   C1B75295   1.477  10.154   6.221
 6014POPC   C2B75296   1.371  10.328   6.626
 6014POPC   C3B75297   1.599  10.541   6.921
 6014POPC   C4B75298   1.752  10.266   7.227
 6015POPC   NC375299  16.340  28.959   5.439
 6015POPC   PO475300  15.683  28.973   5.348
 6015POPC   GL175301  15.854  29.144   5.743
 6015POPC   GL275302  16.156  29.341   5.740
 6015POPC   C1A75303  15.674  29.290   6.189
 6015POPC   D2A75304  15.624  29.484   6.609
 6015POPC   C3A75305  15.524  29.207   6.939
 6015POPC   C4A75306  15.686  29.115   7.358
 6015POPC   C1B75307  16.136  29.083   6.148
 6015POPC   C2B75308  16.080  29.244   6.581
 6015POPC   C3B75309  16.068  29.356   7.045
 6015POPC   C4B75310  16.178  29.275   7.499
 6016POPC   NC375311  14.930   9.138   5.445
 6016POPC   PO475312  15.470   8.863   5.287
 6016POPC   GL175313  15.332   8.878   5.709
 6016POPC   GL275314  15.422   8.560   5.875
 6016POPC   C1A75315  15.181   9.101   6.088
 6016POPC   D2A75316  15.014   8.958   6.496
 6016POPC   C3A75317  15.296   9.025   6.825
 6016POPC   C4A75318  15.245   9.280   7.163
 6016POPC   C1B75319  15.035   8.592   6.126
 6016POPC   C2B75320  15.026   8.460   6.570
 6016POPC   C3B75321  15.157   8.565   6.991
 6016POPC   C4B75322  15.548   8.734   7.177
 6017POPC   NC375323  34.851  44.384   5.456
 6017POPC   PO475324  35.530  44.452   5.416
 6017POPC   GL175325  35.401  44.637   5.828
 6017POPC   GL275326  35.033  44.718   5.813
 6017POPC   C1A75327  35.488  44.684   6.305
 6017POPC   D2A75328  35.386  44.383   6.649
 6017POPC   C3A75329  35.262  44.432   7.060
 6017POPC   C4A75330  34.956  44.406   7.355
 6017POPC   C1B75331  35.182   0.029   6.084
 6017POPC   C2B75332  35.111   0.011   6.508
 6017POPC   C3B75333  35.199  44.928   6.925
 6017POPC   C4B75334  35.243  44.871   7.355
 6018POPC   NC375335  30.219  14.061   5.243
 6018POPC   PO475336  30.068  13.460   5.271
 6018POPC   GL175337  29.776  13.511   5.655
 6018POPC   GL275338  29.618  13.824   5.683
 6018POPC   C1A75339  29.612  13.475   6.114
 6018POPC   D2A75340  29.791  13.363   6.533
 6018POPC   C3A75341  29.672  13.398   6.965
 6018POPC   C4A75342  29.970  13.585   7.264
 6018POPC   C1B75343  29.846  13.922   6.048
 6018POPC   C2B75344  29.987  13.833   6.453
 6018POPC   C3B75345  29.835  13.851   6.875
 6018POPC   C4B75346  29.582  13.994   7.296
 6019POPC   NC375347   4.545  25.778   5.344
 6019POPC   PO475348   3.989  26.108   5.256
 6019POPC   GL175349   4.188  26.126   5.714
 6019POPC   GL275350   4.441  25.892   5.824
 6019POPC   C1A75351   4.269  26.205   6.205
 6019POPC   D2A75352   4.241  26.048   6.631
 6019POPC   C3A75353   4.525  26.239   6.920
 6019POPC   C4A75354   4.584  26.316   7.323
 6019POPC   C1B75355   4.296  25.697   6.220
 6019POPC   C2B75356   4.494  25.568   6.608
 6019POPC   C3B75357   4.442  25.731   7.035
 6019POPC   C4B75358   4.165  26.035   7.240
 6020POPC   NC375359  15.369  38.007   5.500
 6020POPC   PO475360  15.147  37.537   5.081
 6020POPC   GL175361  15.280  37.499   5.560
 6020POPC   GL275362  14.997  37.667   5.728
 6020POPC   C1A75363  15.370  37.568   6.052
 6020POPC   D2A75364  15.236  37.547   6.510
 6020POPC   C3A75365  15.391  37.548   6.956
 6020POPC   C4A75366  15.247  37.546   7.413
 6020POPC   C1B75367  14.850  37.708   6.175
 6020POPC   C2B75368  14.864  37.893   6.596
 6020POPC   C3B75369  14.897  37.728   6.986
 6020POPC   C4B75370  15.084  37.989   7.267
 6021POPC   NC375371  27.992  21.616   5.492
 6021POPC   PO475372  28.634  21.436   5.381
 6021POPC   GL175373  28.377  21.373   5.742
 6021POPC   GL275374  28.396  21.702   5.783
 6021POPC   C1A75375  28.199  21.389   6.148
 6021POPC   D2A75376  28.016  21.328   6.549
 6021POPC   C3A75377  28.198  21.246   6.912
 6021POPC   C4A75378  28.195  21.442   7.283
 6021POPC   C1B75379  28.676  21.607   6.083
 6021POPC   C2B75380  28.695  21.623   6.510
 6021POPC   C3B75381  28.638  21.497   6.933
 6021POPC   C4B75382  28.682  21.551   7.383
 6022POPC   NC375383  15.710  16.050   5.377
 6022POPC   PO475384  16.339  15.865   5.194
 6022POPC   GL175385  16.133  15.789   5.638
 6022POPC   GL275386  15.800  15.669   5.691
 6022POPC   C1A75387  16.169  15.851   6.104
 6022POPC   D2A75388  16.236  15.980   6.544
 6022POPC   C3A75389  15.955  16.181   6.812
 6022POPC   C4A75390  16.019  16.111   7.231
 6022POPC   C1B75391  15.672  15.863   6.082
 6022POPC   C2B75392  15.695  15.822   6.552
 6022POPC   C3B75393  15.617  15.844   7.047
 6022POPC   C4B75394  15.681  15.906   7.555
 6023POPC   NC375395   2.842   8.545   5.655
 6023POPC   PO475396   2.653   8.014   5.234
 6023POPC   GL175397   2.758   7.997   5.729
 6023POPC   GL275398   3.080   8.111   5.831
 6023POPC   C1A75399   2.689   8.203   6.189
 6023POPC   D2A75400   2.446   8.504   6.396
 6023POPC   C3A75401   2.534   8.450   6.822
 6023POPC   C4A75402   2.513   8.201   7.153
 6023POPC   C1B75403   3.184   8.369   6.218
 6023POPC   C2B75404   3.135   8.499   6.675
 6023POPC   C3B75405   3.000   8.356   7.095
 6023POPC   C4B75406   2.861   8.454   7.530
 6024POPC   NC375407  26.430  32.563   5.404
 6024POPC   PO475408  25.824  32.202   5.400
 6024POPC   GL175409  25.998  32.057   5.796
 6024POPC   GL275410  26.237  32.261   5.752
 6024POPC   C1A75411  26.110  31.942   6.217
 6024POPC   D2A75412  25.789  32.006   6.547
 6024POPC   C3A75413  25.865  32.265   6.932
 6024POPC   C4A75414  25.812  32.675   7.118
 6024POPC   C1B75415  26.392  32.379   6.141
 6024POPC   C2B75416  26.203  32.362   6.532
 6024POPC   C3B75417  26.317  32.485   6.919
 6024POPC   C4B75418  26.535  32.448   7.296
 6025POPC   NC375419  19.028  20.850   5.155
 6025POPC   PO475420  18.883  21.330   5.586
 6025POPC   GL175421  18.943  21.298   5.976
 6025POPC   GL275422  19.189  21.087   5.904
 6025POPC   C1A75423  18.873  21.383   6.403
 6025POPC   D2A75424  18.782  21.538   6.819
 6025POPC   C3A75425  18.954  21.257   7.095
 6025POPC   C4A75426  18.741  21.004   7.363
 6025POPC   C1B75427  19.405  21.117   6.259
 6025POPC   C2B75428  19.635  21.062   6.632
 6025POPC   C3B75429  19.457  21.127   7.037
 6025POPC   C4B75430  19.333  21.261   7.448
 6026POPC   NC375431  25.522   8.162   5.406
 6026POPC   PO475432  24.938   7.892   5.543
 6026POPC   GL175433  25.237   8.125   5.865
 6026POPC   GL275434  25.610   8.047   5.882
 6026POPC   C1A75435  25.086   8.421   6.255
 6026POPC   D2A75436  25.251   8.663   6.657
 6026POPC   C3A75437  25.124   8.505   7.037
 6026POPC   C4A75438  24.974   8.077   7.134
 6026POPC   C1B75439  25.532   8.199   6.295
 6026POPC   C2B75440  25.301   8.155   6.677
 6026POPC   C3B75441  25.472   8.117   7.087
 6026POPC   C4B75442  25.774   7.919   7.309
 6027POPC   NC375443  32.762  20.426   5.376
 6027POPC   PO475444  32.118  20.597   5.506
 6027POPC   GL175445  32.012  20.461   5.905
 6027POPC   GL275446  32.121  20.111   5.932
 6027POPC   C1A75447  32.121  20.468   6.344
 6027POPC   D2A75448  32.057  20.742   6.666
 6027POPC   C3A75449  32.333  20.764   6.983
 6027POPC   C4A75450  32.036  20.618   7.269
 6027POPC   C1B75451  32.511  20.413   6.023
 6027POPC   C2B75452  32.674  20.573   6.416
 6027POPC   C3B75453  32.796  20.509   6.852
 6027POPC   C4B75454  32.575  20.398   7.246
 6028POPC   NC375455   9.886   0.341   5.176
 6028POPC   PO475456   9.764  44.697   5.257
 6028POPC   GL175457   9.786  44.685   5.715
 6028POPC   GL275458  10.037  44.485   5.890
 6028POPC   C1A75459   9.690  44.785   6.164
 6028POPC   D2A75460   9.615  44.499   6.527
 6028POPC   C3A75461   9.360  44.589   6.910
 6028POPC   C4A75462   9.326  44.334   7.270
 6028POPC   C1B75463  10.217  44.338   6.281
 6028POPC   C2B75464  10.118  44.437   6.714
 6028POPC   C3B75465  10.155  44.375   7.160
 6028POPC   C4B75466  10.022  44.701   7.419
 6029POPC   NC375467  38.045  33.241   5.441
 6029POPC   PO475468  37.698  32.760   5.264
 6029POPC   GL175469  37.777  32.854   5.720
 6029POPC   GL275470  37.727  33.217   5.881
 6029POPC   C1A75471  37.525  32.795   6.107
 6029POPC   D2A75472  37.666  32.761   6.531
 6029POPC   C3A75473  37.432  32.959   6.897
 6029POPC   C4A75474  37.575  32.821   7.323
 6029POPC   C1B75475  37.548  33.233   6.345
 6029POPC   C2B75476  37.644  33.427   6.759
 6029POPC   C3B75477  37.648  33.316   7.215
 6029POPC   C4B75478  37.683  33.274   7.670
 6030POPC   NC375479  37.005  10.474   5.426
 6030POPC   PO475480  36.447  10.902   5.462
 6030POPC   GL175481  36.765  10.736   5.776
 6030POPC   GL275482  36.836  10.380   5.890
 6030POPC   C1A75483  37.087  10.801   6.091
 6030POPC   D2A75484  37.226  10.597   6.461
 6030POPC   C3A75485  36.989  10.686   6.852
 6030POPC   C4A75486  37.100  10.550   7.257
 6030POPC   C1B75487  36.713  10.522   6.296
 6030POPC   C2B75488  36.639  10.312   6.677
 6030POPC   C3B75489  36.718  10.250   7.118
 6030POPC   C4B75490  36.579  10.494   7.469
 6031POPC   NC375491  37.104  30.120   5.462
 6031POPC   PO475492  36.544  29.773   5.488
 6031POPC   GL175493  36.734  29.717   5.895
 6031POPC   GL275494  37.078  29.833   5.893
 6031POPC   C1A75495  36.734  29.770   6.347
 6031POPC   D2A75496  36.940  29.974   6.681
 6031POPC   C3A75497  36.809  29.955   7.077
 6031POPC   C4A75498  37.196  29.983   7.250
 6031POPC   C1B75499  37.260  29.800   6.297
 6031POPC   C2B75500  37.109  29.505   6.581
 6031POPC   C3B75501  37.115  29.545   6.975
 6031POPC   C4B75502  36.903  29.484   7.285
 6032POPC   NC375503  26.890  28.771   5.584
 6032POPC   PO475504  27.091  28.181   5.350
 6032POPC   GL175505  26.995  28.287   5.775
 6032POPC   GL275506  27.289  28.507   5.776
 6032POPC   C1A75507  26.637  28.440   6.082
 6032POPC   D2A75508  26.453  28.673   6.457
 6032POPC   C3A75509  26.528  28.588   6.886
 6032POPC   C4A75510  26.657  28.418   7.290
 6032POPC   C1B75511  27.174  28.573   6.195
 6032POPC   C2B75512  26.912  28.423   6.515
 6032POPC   C3B75513  26.974  28.334   6.908
 6032POPC   C4B75514  27.157  28.379   7.287
 6033POPC   NC375515  16.078  29.941   5.433
 6033POPC   PO475516  15.450  29.679   5.534
 6033POPC   GL175517  15.775  29.888   5.853
 6033POPC   GL275518  16.186  29.833   5.918
 6033POPC   C1A75519  15.856  29.856   6.303
 6033POPC   D2A75520  16.064  29.761   6.702
 6033POPC   C3A75521  15.780  29.839   7.055
 6033POPC   C4A75522  15.818  30.087   7.445
 6033POPC   C1B75523  16.279  30.193   6.217
 6033POPC   C2B75524  16.362  30.285   6.653
 6033POPC   C3B75525  16.255  30.106   7.036
 6033POPC   C4B75526  16.239  29.768   7.313
 6034POPC   NC375527   3.426  28.162   5.457
 6034POPC   PO475528   3.954  28.546   5.265
 6034POPC   GL175529   3.743  28.579   5.698
 6034POPC   GL275530   3.741  28.226   5.857
 6034POPC   C1A75531   3.498  28.674   6.120
 6034POPC   D2A75532   3.197  28.679   6.520
 6034POPC   C3A75533   3.245  28.450   6.942
 6034POPC   C4A75534   3.558  28.296   7.253
 6034POPC   C1B75535   3.971  28.475   6.146
 6034POPC   C2B75536   3.891  28.714   6.483
 6034POPC   C3B75537   3.795  28.515   6.846
 6034POPC   C4B75538   3.717  28.754   7.174
 6035POPC   NC375539  13.828   2.548   5.439
 6035POPC   PO475540  13.225   2.745   5.296
 6035POPC   GL175541  13.376   2.549   5.721
 6035POPC   GL275542  13.704   2.605   5.905
 6035POPC   C1A75543  13.280   2.667   6.173
 6035POPC   D2A75544  13.372   2.956   6.515
 6035POPC   C3A75545  13.265   2.854   6.929
 6035POPC   C4A75546  13.455   2.871   7.330
 6035POPC   C1B75547  13.772   2.608   6.309
 6035POPC   C2B75548  13.566   2.499   6.629
 6035POPC   C3B75549  13.676   2.538   7.015
 6035POPC   C4B75550  13.868   2.564   7.399
 6036POPC   NC375551   9.280   9.929   5.561
 6036POPC   PO475552  10.044   9.713   5.463
 6036POPC   GL175553   9.744   9.806   5.755
 6036POPC   GL275554   9.525   9.525   5.770
 6036POPC   C1A75555   9.661   9.897   6.193
 6036POPC   D2A75556   9.919   9.790   6.555
 6036POPC   C3A75557   9.752   9.932   6.938
 6036POPC   C4A75558  10.010   9.966   7.240
 6036POPC   C1B75559   9.387   9.458   6.224
 6036POPC   C2B75560   9.434   9.626   6.691
 6036POPC   C3B75561   9.497   9.565   7.180
 6036POPC   C4B75562   9.524   9.379   7.657
 6037POPC   NC375563  28.951  33.563   5.479
 6037POPC   PO475564  28.940  32.854   5.429
 6037POPC   GL175565  29.142  32.978   5.836
 6037POPC   GL275566  29.440  33.195   5.804
 6037POPC   C1A75567  29.134  33.109   6.279
 6037POPC   D2A75568  28.861  33.326   6.578
 6037POPC   C3A75569  28.764  33.112   6.974
 6037POPC   C4A75570  29.055  32.999   7.335
 6037POPC   C1B75571  29.635  33.141   6.232
 6037POPC   C2B75572  29.473  33.052   6.665
 6037POPC   C3B75573  29.237  33.315   6.971
 6037POPC   C4B75574  29.385  33.447   7.376
 6038POPC   NC375575  18.611  27.508   5.447
 6038POPC   PO475576  19.274  27.645   5.373
 6038POPC   GL175577  19.058  27.832   5.705
 6038POPC   GL275578  18.949  27.554   5.842
 6038POPC   C1A75579  19.042  27.939   6.152
 6038POPC   D2A75580  19.007  27.719   6.545
 6038POPC   C3A75581  19.083  27.884   6.943
 6038POPC   C4A75582  19.183  27.690   7.303
 6038POPC   C1B75583  18.825  27.349   6.226
 6038POPC   C2B75584  18.827  27.174   6.612
 6038POPC   C3B75585  18.991  27.309   6.998
 6038POPC   C4B75586  19.127  27.190   7.437
 6039POPC   NC375587  17.281  23.643   5.418
 6039POPC   PO475588  17.938  23.817   5.455
 6039POPC   GL175589  17.666  23.597   5.801
 6039POPC   GL275590  17.301  23.619   5.927
 6039POPC   C1A75591  17.685  23.697   6.264
 6039POPC   D2A75592  17.844  23.620   6.685
 6039POPC   C3A75593  17.595  23.701   7.034
 6039POPC   C4A75594  17.713  23.757   7.460
 6039POPC   C1B75595  17.220  23.924   6.282
 6039POPC   C2B75596  17.356  24.075   6.719
 6039POPC   C3B75597  17.311  24.084   7.181
 6039POPC   C4B75598  17.197  23.731   7.478
 6040POPC   NC375599  15.863  35.504   5.297
 6040POPC   PO475600  16.244  34.962   5.419
 6040POPC   GL175601  16.052  35.272   5.730
 6040POPC   GL275602  15.751  35.505   5.820
 6040POPC   C1A75603  16.197  35.487   6.113
 6040POPC   D2A75604  16.001  35.646   6.526
 6040POPC   C3A75605  16.101  35.472   6.978
 6040POPC   C4A75606  16.051  35.235   7.405
 6040POPC   C1B75607  15.795  35.192   6.181
 6040POPC   C2B75608  15.967  35.116   6.602
 6040POPC   C3B75609  15.763  35.076   7.000
 6040POPC   C4B75610  15.586  35.372   7.266
 6041POPC   NC375611   7.290   1.225   5.072
 6041POPC   PO475612   7.829   1.421   5.388
 6041POPC   GL175613   7.565   1.483   5.787
 6041POPC   GL275614   7.289   1.221   5.815
 6041POPC   C1A75615   7.694   1.423   6.235
 6041POPC   D2A75616   7.695   1.157   6.629
 6041POPC   C3A75617   7.665   1.343   7.018
 6041POPC   C4A75618   7.492   1.441   7.391
 6041POPC   C1B75619   7.357   1.036   6.247
 6041POPC   C2B75620   7.174   1.081   6.650
 6041POPC   C3B75621   7.223   1.088   7.099
 6041POPC   C4B75622   7.038   1.306   7.519
 6042POPC   NC375623  14.326  44.327   5.516
 6042POPC   PO475624  14.471  44.930   5.525
 6042POPC   GL175625  14.663  44.643   5.812
 6042POPC   GL275626  14.372  44.508   5.984
 6042POPC   C1A75627  14.764  44.653   6.262
 6042POPC   D2A75628  14.443  44.557   6.575
 6042POPC   C3A75629  14.664  44.604   6.945
 6042POPC   C4A75630  14.665  44.714   7.389
 6042POPC   C1B75631  14.088  44.314   6.291
 6042POPC   C2B75632  13.920  44.431   6.695
 6042POPC   C3B75633  14.177  44.571   7.050
 6042POPC   C4B75634  14.261  44.424   7.491
 6043POPC   NC375635  25.856  13.160   5.411
 6043POPC   PO475636  26.283  12.602   5.409
 6043POPC   GL175637  26.130  12.801   5.800
 6043POPC   GL275638  25.756  12.829   5.834
 6043POPC   C1A75639  26.065  12.739   6.268
 6043POPC   D2A75640  26.197  13.022   6.603
 6043POPC   C3A75641  26.431  12.839   6.931
 6043POPC   C4A75642  26.287  12.516   7.182
 6043POPC   C1B75643  25.662  13.056   6.260
 6043POPC   C2B75644  25.707  12.928   6.722
 6043POPC   C3B75645  25.943  12.902   7.136
 6043POPC   C4B75646  25.864  13.132   7.550
 6044POPC   NC375647  10.265  29.362   5.492
 6044POPC   PO475648  10.858  28.923   5.556
 6044POPC   GL175649  10.604  29.178   5.841
 6044POPC   GL275650  10.775  29.497   5.875
 6044POPC   C1A75651  10.343  29.092   6.231
 6044POPC   D2A75652  10.439  28.798   6.559
 6044POPC   C3A75653  10.559  28.916   6.966
 6044POPC   C4A75654  10.949  28.956   7.142
 6044POPC   C1B75655  10.649  29.495   6.307
 6044POPC   C2B75656  10.456  29.380   6.731
 6044POPC   C3B75657  10.550  29.397   7.201
 6044POPC   C4B75658  10.615  29.581   7.659
 6045POPC   NC375659  16.229  10.509   5.357
 6045POPC   PO475660  15.555  10.211   5.493
 6045POPC   GL175661  15.716  10.402   5.839
 6045POPC   GL275662  15.953  10.662   5.805
 6045POPC   C1A75663  15.644  10.536   6.237
 6045POPC   D2A75664  15.844  10.418   6.609
 6045POPC   C3A75665  15.723  10.681   6.920
 6045POPC   C4A75666  15.680  10.506   7.301
 6045POPC   C1B75667  16.165  10.667   6.245
 6045POPC   C2B75668  16.199  10.768   6.729
 6045POPC   C3B75669  16.124  10.756   7.209
 6045POPC   C4B75670  16.273  10.838   7.625
 6046POPC   NC375671   8.864  40.127   5.374
 6046POPC   PO475672   9.417  39.663   5.517
 6046POPC   GL175673   9.113  39.901   5.807
 6046POPC   GL275674   8.933  40.250   5.867
 6046POPC   C1A75675   9.010  39.866   6.250
 6046POPC   D2A75676   8.810  39.756   6.642
 6046POPC   C3A75677   8.822  40.001   7.000
 6046POPC   C4A75678   8.961  39.871   7.397
 6046POPC   C1B75679   9.079  40.372   6.284
 6046POPC   C2B75680   9.064  40.405   6.750
 6046POPC   C3B75681   9.225  40.301   7.178
 6046POPC   C4B75682   9.272  40.177   7.625
 6047POPC   NC375683   5.230  36.313   5.326
 6047POPC   PO475684   5.167  35.645   5.415
 6047POPC   GL175685   5.040  35.992   5.734
 6047POPC   GL275686   4.765  36.255   5.685
 6047POPC   C1A75687   5.105  35.896   6.193
 6047POPC   D2A75688   5.191  35.693   6.545
 6047POPC   C3A75689   5.123  35.912   6.909
 6047POPC   C4A75690   5.002  36.045   7.331
 6047POPC   C1B75691   4.839  36.341   6.136
 6047POPC   C2B75692   5.079  36.309   6.541
 6047POPC   C3B75693   5.006  36.437   6.965
 6047POPC   C4B75694   5.299  36.459   7.319
 6048POPC   NC375695  10.408   1.294   5.054
 6048POPC   PO475696  10.822   0.944   5.514
 6048POPC   GL175697  10.682   1.112   5.967
 6048POPC   GL275698  10.462   1.410   5.912
 6048POPC   C1A75699  10.335   1.116   6.320
 6048POPC   D2A75700  10.197   1.062   6.771
 6048POPC   C3A75701  10.590   0.960   6.974
 6048POPC   C4A75702  11.052   1.031   6.991
 6048POPC   C1B75703  10.616   1.546   6.262
 6048POPC   C2B75704  10.718   1.365   6.652
 6048POPC   C3B75705  10.580   1.501   7.045
 6048POPC   C4B75706  10.711   1.727   7.450
 6049POPC   NC375707   1.235   9.353   5.424
 6049POPC   PO475708   1.576   9.960   5.378
 6049POPC   GL175709   1.436   9.853   5.795
 6049POPC   GL275710   1.098   9.894   5.812
 6049POPC   C1A75711   1.314   9.585   6.181
 6049POPC   D2A75712   1.327   9.315   6.557
 6049POPC   C3A75713   1.502   9.423   6.967
 6049POPC   C4A75714   1.222   9.432   7.294
 6049POPC   C1B75715   0.931   9.917   6.189
 6049POPC   C2B75716   1.104   9.906   6.539
 6049POPC   C3B75717   1.149   9.783   6.913
 6049POPC   C4B75718   0.921   9.848   7.255
 6050POPC   NC375719  16.873  12.484   5.253
 6050POPC   PO475720  16.851  11.771   5.365
 6050POPC   GL175721  16.840  11.929   5.810
 6050POPC   GL275722  17.079  11.764   6.035
 6050POPC   C1A75723  16.524  12.099   6.154
 6050POPC   D2A75724  16.147  12.125   6.434
 6050POPC   C3A75725  16.269  12.158   6.860
 6050POPC   C4A75726  16.397  12.037   7.272
 6050POPC   C1B75727  16.661  11.616   6.168
 6050POPC   C2B75728  16.447  11.684   6.548
 6050POPC   C3B75729  16.620  11.688   6.968
 6050POPC   C4B75730  17.031  11.687   7.199
 6051POPC   NC375731  29.616  25.210   5.292
 6051POPC   PO475732  30.243  24.932   5.386
 6051POPC   GL175733  29.921  25.151   5.695
 6051POPC   GL275734  29.609  24.919   5.743
 6051POPC   C1A75735  29.977  25.510   6.008
 6051POPC   D2A75736  30.236  25.587   6.398
 6051POPC   C3A75737  30.022  25.564   6.810
 6051POPC   C4A75738  30.166  25.348   7.203
 6051POPC   C1B75739  29.618  25.159   6.145
 6051POPC   C2B75740  29.768  25.158   6.578
 6051POPC   C3B75741  29.688  25.222   7.030
 6051POPC   C4B75742  29.679  25.089   7.472
 6052POPC   NC375743   0.484  17.021   5.423
 6052POPC   PO475744   1.053  16.907   5.590
 6052POPC   GL175745   0.670  16.847   5.870
 6052POPC   GL275746   0.278  16.777   5.805
 6052POPC   C1A75747   0.522  16.681   6.258
 6052POPC   D2A75748   0.647  16.545   6.671
 6052POPC   C3A75749   0.592  16.808   7.019
 6052POPC   C4A75750   0.467  16.566   7.379
 6052POPC   C1B75751   0.057  16.909   6.182
 6052POPC   C2B75752   0.223  16.888   6.605
 6052POPC   C3B75753   0.050  17.050   6.966
 6052POPC   C4B75754   0.265  17.059   7.337
 6053POPC   NC375755  43.869   0.131   5.182
 6053POPC   PO475756  43.585   0.686   5.392
 6053POPC   GL175757  43.766   0.449   5.787
 6053POPC   GL275758  44.134   0.421   5.859
 6053POPC   C1A75759  43.861   0.487   6.269
 6053POPC   D2A75760  43.839   0.677   6.677
 6053POPC   C3A75761  43.877   0.304   6.907
 6053POPC   C4A75762  43.583   0.070   7.156
 6053POPC   C1B75763  44.374   0.400   6.251
 6053POPC   C2B75764  44.317   0.508   6.685
 6053POPC   C3B75765  44.334   0.375   7.134
 6053POPC   C4B75766  44.345   0.447   7.589
 6054POPC   NC375767  18.054  22.507   5.375
 6054POPC   PO475768  18.205  21.852   5.467
 6054POPC   GL175769  18.160  21.996   5.872
 6054POPC   GL275770  17.942  22.298   5.842
 6054POPC   C1A75771  18.437  22.041   6.235
 6054POPC   D2A75772  18.471  22.244   6.632
 6054POPC   C3A75773  18.494  21.978   6.984
 6054POPC   C4A75774  18.272  21.928   7.361
 6054POPC   C1B75775  17.993  22.306   6.278
 6054POPC   C2B75776  17.962  22.128   6.685
 6054POPC   C3B75777  18.008  22.286   7.077
 6054POPC   C4B75778  18.325  22.511   7.331
 6055POPC   NC375779  34.596  16.610   5.334
 6055POPC   PO475780  34.989  17.115   5.559
 6055POPC   GL175781  34.768  16.818   5.867
 6055POPC   GL275782  34.429  16.722   5.809
 6055POPC   C1A75783  34.672  16.673   6.278
 6055POPC   D2A75784  34.644  16.494   6.672
 6055POPC   C3A75785  34.618  16.715   7.038
 6055POPC   C4A75786  34.751  16.605   7.452
 6055POPC   C1B75787  34.163  16.761   6.188
 6055POPC   C2B75788  34.165  16.818   6.633
 6055POPC   C3B75789  34.073  16.881   7.077
 6055POPC   C4B75790  34.287  16.858   7.468
 6056POPC   NC375791  18.385   0.344   5.423
 6056POPC   PO475792  17.788   0.613   5.186
 6056POPC   GL175793  17.955   0.495   5.675
 6056POPC   GL275794  18.252   0.719   5.818
 6056POPC   C1A75795  18.109   0.303   6.088
 6056POPC   D2A75796  18.343   0.164   6.475
 6056POPC   C3A75797  18.127   0.242   6.896
 6056POPC   C4A75798  18.110   0.574   7.245
 6056POPC   C1B75799  18.477   0.664   6.256
 6056POPC   C2B75800  18.476   0.604   6.740
 6056POPC   C3B75801  18.566   0.324   7.134
 6056POPC   C4B75802  18.502   0.494   7.572
 6057POPC   NC375803  39.908  38.676   5.289
 6057POPC   PO475804  40.361  38.159   5.331
 6057POPC   GL175805  40.105  38.285   5.693
 6057POPC   GL275806  39.841  38.550   5.779
 6057POPC   C1A75807  40.320  38.276   6.088
 6057POPC   D2A75808  40.227  38.185   6.503
 6057POPC   C3A75809  40.264  38.493   6.830
 6057POPC   C4A75810  40.195  38.429   7.249
 6057POPC   C1B75811  39.727  38.596   6.192
 6057POPC   C2B75812  39.788  38.487   6.613
 6057POPC   C3B75813  39.705  38.540   7.033
 6057POPC   C4B75814  39.746  38.587   7.465
 6058POPC   NC375815  31.913  42.805   5.456
 6058POPC   PO475816  31.958  42.157   5.551
 6058POPC   GL175817  32.089  42.366   5.887
 6058POPC   GL275818  32.290  42.636   5.793
 6058POPC   C1A75819  32.186  42.408   6.306
 6058POPC   D2A75820  32.103  42.150   6.633
 6058POPC   C3A75821  32.035  42.360   6.998
 6058POPC   C4A75822  32.357  42.114   7.160
 6058POPC   C1B75823  32.465  42.830   6.190
 6058POPC   C2B75824  32.442  42.749   6.664
 6058POPC   C3B75825  32.447  42.639   7.119
 6058POPC   C4B75826  32.679  42.412   7.475
 6059POPC   NC375827  23.171   7.932   5.430
 6059POPC   PO475828  22.809   8.482   5.327
 6059POPC   GL175829  22.928   8.289   5.754
 6059POPC   GL275830  22.830   7.937   5.819
 6059POPC   C1A75831  22.824   8.302   6.212
 6059POPC   D2A75832  22.983   8.351   6.637
 6059POPC   C3A75833  22.808   8.441   7.048
 6059POPC   C4A75834  22.795   8.189   7.417
 6059POPC   C1B75835  23.017   7.818   6.217
 6059POPC   C2B75836  22.910   7.831   6.649
 6059POPC   C3B75837  23.079   7.907   7.066
 6059POPC   C4B75838  23.187   7.891   7.511
 6060POPC   NC375839  43.545   4.764   5.289
 6060POPC   PO475840  43.256   5.328   5.301
 6060POPC   GL175841  42.981   5.144   5.626
 6060POPC   GL275842  43.238   4.906   5.691
 6060POPC   C1A75843  43.020   5.119   6.099
 6060POPC   D2A75844  43.089   5.311   6.495
 6060POPC   C3A75845  42.955   5.183   6.892
 6060POPC   C4A75846  42.966   5.413   7.290
 6060POPC   C1B75847  43.385   4.693   6.072
 6060POPC   C2B75848  43.403   4.869   6.476
 6060POPC   C3B75849  43.490   4.868   6.911
 6060POPC   C4B75850  43.207   4.943   7.265
 6061POPC   NC375851  44.377   9.755   5.468
 6061POPC   PO475852   0.035   9.571   5.330
 6061POPC   GL175853  44.803   9.492   5.754
 6061POPC   GL275854  44.496   9.324   5.838
 6061POPC   C1A75855  44.908   9.600   6.187
 6061POPC   D2A75856  44.842   9.743   6.589
 6061POPC   C3A75857  44.828   9.632   7.000
 6061POPC   C4A75858  44.583   9.920   7.267
 6061POPC   C1B75859  44.429   9.384   6.280
 6061POPC   C2B75860  44.480   9.299   6.715
 6061POPC   C3B75861  44.337   9.494   7.078
 6061POPC   C4B75862  44.593   9.436   7.411
 6062POPC   NC375863  42.149  28.803   5.566
 6062POPC   PO475864  42.696  28.545   5.661
 6062POPC   GL175865  42.324  28.465   5.960
 6062POPC   GL275866  42.082  28.240   5.795
 6062POPC   C1A75867  42.235  28.476   6.431
 6062POPC   D2A75868  42.554  28.372   6.728
 6062POPC   C3A75869  42.408  28.338   7.109
 6062POPC   C4A75870  42.308  28.703   7.232
 6062POPC   C1B75871  42.195  28.018   6.220
 6062POPC   C2B75872  42.255  27.947   6.686
 6062POPC   C3B75873  42.109  27.924   7.132
 6062POPC   C4B75874  42.130  28.103   7.561
 6063POPC   NC375875  40.155   3.742   5.200
 6063POPC   PO475876  40.555   4.009   5.631
 6063POPC   GL175877  40.251   3.655   5.704
 6063POPC   GL275878  39.971   3.844   5.711
 6063POPC   C1A75879  39.941   3.428   6.028
 6063POPC   D2A75880  39.940   3.247   6.454
 6063POPC   C3A75881  40.136   3.460   6.799
 6063POPC   C4A75882  39.994   3.407   7.206
 6063POPC   C1B75883  40.129   3.884   6.150
 6063POPC   C2B75884  39.837   3.816   6.520
 6063POPC   C3B75885  39.742   3.788   6.967
 6063POPC   C4B75886  40.153   3.887   7.176
 6064POPC   NC375887  44.436  33.225   5.684
 6064POPC   PO475888  43.930  33.040   5.177
 6064POPC   GL175889  43.901  33.033   5.647
 6064POPC   GL275890  43.793  32.681   5.809
 6064POPC   C1A75891  43.927  33.118   6.109
 6064POPC   D2A75892  43.685  32.962   6.467
 6064POPC   C3A75893  43.681  33.184   6.863
 6064POPC   C4A75894  43.505  33.153   7.248
 6064POPC   C1B75895  44.060  32.610   6.207
 6064POPC   C2B75896  44.131  32.711   6.661
 6064POPC   C3B75897  43.824  32.704   7.005
 6064POPC   C4B75898  43.820  32.803   7.458
 6065POPC   NC375899  31.868   8.323   5.550
 6065POPC   PO475900  32.528   8.351   5.501
 6065POPC   GL175901  32.281   8.522   5.837
 6065POPC   GL275902  32.022   8.790   5.729
 6065POPC   C1A75903  32.254   8.218   6.168
 6065POPC   D2A75904  32.432   8.042   6.547
 6065POPC   C3A75905  32.105   7.914   6.832
 6065POPC   C4A75906  32.258   7.880   7.234
 6065POPC   C1B75907  31.875   8.615   6.143
 6065POPC   C2B75908  32.138   8.565   6.517
 6065POPC   C3B75909  32.201   8.411   6.919
 6065POPC   C4B75910  31.924   8.276   7.229
 6066POPC   NC375911   5.006   6.041   5.395
 6066POPC   PO475912   4.455   6.393   5.564
 6066POPC   GL175913   4.816   6.222   5.833
 6066POPC   GL275914   5.217   6.161   5.838
 6066POPC   C1A75915   4.775   5.906   6.154
 6066POPC   D2A75916   4.604   5.949   6.568
 6066POPC   C3A75917   4.953   5.958   6.868
 6066POPC   C4A75918   4.971   5.787   7.303
 6066POPC   C1B75919   5.293   5.818   6.138
 6066POPC   C2B75920   5.401   5.829   6.588
 6066POPC   C3B75921   5.412   5.757   7.047
 6066POPC   C4B75922   5.472   5.986   7.454
 6067POPC   NC375923  15.339   2.922   4.892
 6067POPC   PO475924  14.891   2.917   5.375
 6067POPC   GL175925  15.219   2.743   5.637
 6067POPC   GL275926  15.281   3.041   5.832
 6067POPC   C1A75927  15.327   2.600   6.067
 6067POPC   D2A75928  15.184   2.650   6.478
 6067POPC   C3A75929  15.360   2.589   6.849
 6067POPC   C4A75930  15.284   2.652   7.260
 6067POPC   C1B75931  15.068   3.112   6.237
 6067POPC   C2B75932  14.891   3.027   6.641
 6067POPC   C3B75933  15.155   3.058   6.974
 6067POPC   C4B75934  15.247   3.249   7.343
 6068POPC   NC375935  28.599  13.866   5.387
 6068POPC   PO475936  28.768  13.272   5.589
 6068POPC   GL175937  28.679  13.531   5.909
 6068POPC   GL275938  28.393  13.715   5.837
 6068POPC   C1A75939  28.693  13.721   6.299
 6068POPC   D2A75940  28.619  13.921   6.688
 6068POPC   C3A75941  28.309  13.750   6.936
 6068POPC   C4A75942  28.425  13.787   7.354
 6068POPC   C1B75943  28.191  13.573   6.219
 6068POPC   C2B75944  27.926  13.446   6.544
 6068POPC   C3B75945  28.012  13.264   6.940
 6068POPC   C4B75946  28.032  13.473   7.294
 6069POPC   NC375947  38.706   1.035   5.463
 6069POPC   PO475948  38.208   1.357   5.153
 6069POPC   GL175949  38.249   1.273   5.643
 6069POPC   GL275950  38.249   0.911   5.719
 6069POPC   C1A75951  38.511   1.246   6.067
 6069POPC   D2A75952  38.641   1.553   6.365
 6069POPC   C3A75953  38.606   1.496   6.791
 6069POPC   C4A75954  38.480   1.381   7.199
 6069POPC   C1B75955  38.045   1.078   6.103
 6069POPC   C2B75956  38.176   1.278   6.485
 6069POPC   C3B75957  38.239   1.103   6.876
 6069POPC   C4B75958  38.271   0.878   7.269
 6070POPC   NC375959  29.442  32.761   5.451
 6070POPC   PO475960  29.997  33.183   5.395
 6070POPC   GL175961  29.929  32.980   5.815
 6070POPC   GL275962  29.666  32.738   5.898
 6070POPC   C1A75963  30.086  32.890   6.242
 6070POPC   D2A75964  30.282  33.147   6.584
 6070POPC   C3A75965  30.056  33.039   6.970
 6070POPC   C4A75966  30.045  32.903   7.411
 6070POPC   C1B75967  29.431  32.622   6.257
 6070POPC   C2B75968  29.385  32.435   6.682
 6070POPC   C3B75969  29.349  32.690   7.038
 6070POPC   C4B75970  29.577  32.998   7.209
 6071POPC   NC375971  35.694  29.182   5.415
 6071POPC   PO475972  36.306  28.918   5.348
 6071POPC   GL175973  36.088  29.124   5.718
 6071POPC   GL275974  36.096  29.483   5.669
 6071POPC   C1A75975  36.114  29.075   6.182
 6071POPC   D2A75976  35.985  29.030   6.610
 6071POPC   C3A75977  36.132  29.308   6.931
 6071POPC   C4A75978  36.197  29.204   7.344
 6071POPC   C1B75979  36.304  29.518   6.069
 6071POPC   C2B75980  36.324  29.498   6.495
 6071POPC   C3B75981  36.603  29.537   6.840
 6071POPC   C4B75982  36.428  29.648   7.238
 6072POPC   NC375983  37.768  36.350   5.330
 6072POPC   PO475984  37.301  35.856   5.436
 6072POPC   GL175985  37.594  35.768   5.794
 6072POPC   GL275986  37.976  35.877   5.748
 6072POPC   C1A75987  37.515  35.882   6.252
 6072POPC   D2A75988  37.686  35.838   6.686
 6072POPC   C3A75989  37.446  35.928   7.089
 6072POPC   C4A75990  37.371  36.002   7.539
 6072POPC   C1B75991  38.063  35.948   6.218
 6072POPC   C2B75992  38.199  35.977   6.683
 6072POPC   C3B75993  38.088  36.165   7.108
 6072POPC   C4B75994  37.694  36.344   7.286
 6073POPC   NC375995  33.704  11.652   5.563
 6073POPC   PO475996  34.020  11.046   5.587
 6073POPC   GL175997  34.004  11.331   5.881
 6073POPC   GL275998  33.695  11.168   5.977
 6073POPC   C1A75999  33.947  11.525   6.278
 6073POPC   D2A76000  33.845  11.406   6.696
 6073POPC   C3A76001  34.196  11.220   6.918
 6073POPC   C4A76002  34.374  11.173   7.309
 6073POPC   C1B76003  33.467  10.774   6.134
 6073POPC   C2B76004  33.368  10.754   6.579
 6073POPC   C3B76005  33.469  11.080   6.883
 6073POPC   C4B76006  33.762  11.257   7.204
 6074POPC   NC376007  43.848  25.041   5.336
 6074POPC   PO476008  43.557  25.695   5.439
 6074POPC   GL176009  43.880  25.471   5.669
 6074POPC   GL276010  43.653  25.214   5.785
 6074POPC   C1A76011  44.146  25.401   6.064
 6074POPC   D2A76012  44.056  25.224   6.496
 6074POPC   C3A76013  44.146  25.333   6.937
 6074POPC   C4A76014  44.015  25.291   7.402
 6074POPC   C1B76015  43.562  25.256   6.234
 6074POPC   C2B76016  43.588  25.036   6.635
 6074POPC   C3B76017  43.723  25.059   7.053
 6074POPC   C4B76018  43.569  24.920   7.458
 6075POPC   NC376019  21.737   2.092   4.976
 6075POPC   PO476020  22.296   2.095   5.387
 6075POPC   GL176021  22.049   2.105   5.788
 6075POPC   GL276022  21.899   2.435   5.912
 6075POPC   C1A76023  22.140   1.846   6.172
 6075POPC   D2A76024  22.478   1.675   6.452
 6075POPC   C3A76025  22.445   1.842   6.871
 6075POPC   C4A76026  22.098   1.970   7.171
 6075POPC   C1B76027  22.178   2.351   6.234
 6075POPC   C2B76028  22.137   2.200   6.629
 6075POPC   C3B76029  21.872   2.418   6.875
 6075POPC   C4B76030  21.731   2.365   7.239
 6076POPC   NC376031  27.950  22.286   5.111
 6076POPC   PO476032  28.572  22.371   5.449
 6076POPC   GL176033  28.490  22.198   5.850
 6076POPC   GL276034  28.122  22.122   5.891
 6076POPC   C1A76035  28.574  22.317   6.261
 6076POPC   D2A76036  28.595  22.121   6.653
 6076POPC   C3A76037  28.570  22.404   6.978
 6076POPC   C4A76038  28.246  22.365   7.297
 6076POPC   C1B76039  28.263  21.887   6.272
 6076POPC   C2B76040  28.247  21.745   6.709
 6076POPC   C3B76041  28.394  21.907   7.116
 6076POPC   C4B76042  28.516  21.995   7.566
 6077POPC   NC376043  27.624  15.274   5.111
 6077POPC   PO476044  27.878  14.832   5.611
 6077POPC   GL176045  27.681  15.137   5.950
 6077POPC   GL276046  27.464  15.405   5.781
 6077POPC   C1A76047  27.453  15.013   6.345
 6077POPC   D2A76048  27.337  15.115   6.779
 6077POPC   C3A76049  27.648  14.967   7.085
 6077POPC   C4A76050  28.002  15.047   7.338
 6077POPC   C1B76051  27.351  15.513   6.222
 6077POPC   C2B76052  27.409  15.643   6.670
 6077POPC   C3B76053  27.408  15.519   7.121
 6077POPC   C4B76054  27.700  15.489   7.485
 6078POPC   NC376055  23.222  18.488   5.502
 6078POPC   PO476056  23.205  17.907   5.163
 6078POPC   GL176057  23.008  18.053   5.663
 6078POPC   GL276058  22.851  18.394   5.842
 6078POPC   C1A76059  23.134  18.125   6.150
 6078POPC   D2A76060  22.851  18.117   6.514
 6078POPC   C3A76061  22.970  18.323   6.879
 6078POPC   C4A76062  23.142  18.331   7.293
 6078POPC   C1B76063  23.033  18.622   6.226
 6078POPC   C2B76064  22.878  18.752   6.635
 6078POPC   C3B76065  22.974  18.787   7.093
 6078POPC   C4B76066  22.845  18.739   7.562
 6079POPC   NC376067  34.816  25.547   5.364
 6079POPC   PO476068  34.896  24.932   5.398
 6079POPC   GL176069  34.642  25.212   5.703
 6079POPC   GL276070  34.847  25.520   5.859
 6079POPC   C1A76071  34.582  25.189   6.174
 6079POPC   D2A76072  34.690  24.907   6.538
 6079POPC   C3A76073  34.716  25.134   6.947
 6079POPC   C4A76074  34.353  25.269   7.199
 6079POPC   C1B76075  35.011  25.442   6.259
 6079POPC   C2B76076  34.800  25.548   6.619
 6079POPC   C3B76077  34.647  25.696   7.003
 6079POPC   C4B76078  34.831  25.482   7.337
 6080POPC   NC376079   6.476  41.029   5.341
 6080POPC   PO476080   6.358  40.297   5.492
 6080POPC   GL176081   6.647  40.639   5.616
 6080POPC   GL276082   6.488  40.875   5.829
 6080POPC   C1A76083   6.902  40.703   6.013
 6080POPC   D2A76084   6.930  40.834   6.457
 6080POPC   C3A76085   6.701  40.629   6.783
 6080POPC   C4A76086   6.738  40.628   7.229
 6080POPC   C1B76087   6.404  40.969   6.252
 6080POPC   C2B76088   6.480  41.115   6.647
 6080POPC   C3B76089   6.550  41.053   7.064
 6080POPC   C4B76090   6.439  40.924   7.506
 6081POPC   NC376091  27.652  13.596   5.215
 6081POPC   PO476092  28.135  13.960   5.381
 6081POPC   GL176093  27.781  13.791   5.688
 6081POPC   GL276094  27.915  13.523   5.808
 6081POPC   C1A76095  27.536  13.494   6.112
 6081POPC   D2A76096  27.451  13.652   6.543
 6081POPC   C3A76097  27.530  13.405   6.894
 6081POPC   C4A76098  27.534  13.498   7.298
 6081POPC   C1B76099  27.807  13.910   6.167
 6081POPC   C2B76100  27.737  14.068   6.603
 6081POPC   C3B76101  27.603  13.922   6.997
 6081POPC   C4B76102  27.809  13.908   7.394
 6082POPC   NC376103  41.835  16.259   5.355
 6082POPC   PO476104  41.648  15.605   5.093
 6082POPC   GL176105  41.614  15.839   5.569
 6082POPC   GL276106  41.302  15.988   5.796
 6082POPC   C1A76107  41.785  15.794   6.044
 6082POPC   D2A76108  41.974  15.734   6.510
 6082POPC   C3A76109  41.734  15.736   6.909
 6082POPC   C4A76110  41.536  16.095   7.139
 6082POPC   C1B76111  41.271  15.748   6.199
 6082POPC   C2B76112  41.350  15.563   6.603
 6082POPC   C3B76113  41.243  15.648   7.036
 6082POPC   C4B76114  41.318  15.765   7.449
 6083POPC   NC376115   7.247  41.988   5.508
 6083POPC   PO476116   7.383  42.620   5.223
 6083POPC   GL176117   7.239  42.532   5.647
 6083POPC   GL276118   7.535  42.420   5.721
 6083POPC   C1A76119   7.176  42.513   6.109
 6083POPC   D2A76120   7.288  42.772   6.480
 6083POPC   C3A76121   7.322  42.557   6.889
 6083POPC   C4A76122   7.216  42.307   7.235
 6083POPC   C1B76123   7.695  42.522   6.113
 6083POPC   C2B76124   7.516  42.281   6.466
 6083POPC   C3B76125   7.621  42.115   6.868
 6083POPC   C4B76126   7.718  42.411   7.187
 6084POPC   NC376127  18.738   1.791   5.473
 6084POPC   PO476128  19.304   2.160   5.569
 6084POPC   GL176129  19.051   1.931   5.870
 6084POPC   GL276130  18.752   2.114   5.921
 6084POPC   C1A76131  19.094   1.994   6.308
 6084POPC   D2A76132  19.338   2.048   6.656
 6084POPC   C3A76133  19.099   2.039   7.028
 6084POPC   C4A76134  19.052   2.378   7.322
 6084POPC   C1B76135  18.647   1.757   6.234
 6084POPC   C2B76136  18.853   1.688   6.675
 6084POPC   C3B76137  18.641   1.725   7.089
 6084POPC   C4B76138  18.705   2.030   7.412
 6085POPC   NC376139  40.491   3.254   5.451
 6085POPC   PO476140  40.964   2.716   5.423
 6085POPC   GL176141  41.033   2.797   5.853
 6085POPC   GL276142  41.058   2.394   5.828
 6085POPC   C1A76143  40.722   3.069   6.142
 6085POPC   D2A76144  40.409   3.023   6.544
 6085POPC   C3A76145  40.547   3.071   7.001
 6085POPC   C4A76146  40.642   2.760   7.343
 6085POPC   C1B76147  40.716   2.504   6.112
 6085POPC   C2B76148  40.830   2.728   6.492
 6085POPC   C3B76149  40.882   2.684   6.890
 6085POPC   C4B76150  41.223   2.540   7.036
 6086POPC   NC376151  25.408  31.229   5.145
 6086POPC   PO476152  24.968  31.693   5.415
 6086POPC   GL176153  25.259  31.573   5.756
 6086POPC   GL276154  25.386  31.272   5.652
 6086POPC   C1A76155  25.293  31.530   6.237
 6086POPC   D2A76156  25.466  31.556   6.624
 6086POPC   C3A76157  25.165  31.615   6.927
 6086POPC   C4A76158  25.357  31.633   7.281
 6086POPC   C1B76159  25.460  31.097   6.056
 6086POPC   C2B76160  25.655  31.111   6.480
 6086POPC   C3B76161  25.476  31.108   6.898
 6086POPC   C4B76162  25.317  31.133   7.312
 6087POPC   NC376163  21.478  18.825   5.533
 6087POPC   PO476164  21.329  19.424   5.482
 6087POPC   GL176165  21.238  19.172   5.841
 6087POPC   GL276166  21.566  19.090   5.957
 6087POPC   C1A76167  21.199  19.102   6.301
 6087POPC   D2A76168  21.453  18.959   6.649
 6087POPC   C3A76169  21.274  19.039   7.014
 6087POPC   C4A76170  21.010  19.407   7.112
 6087POPC   C1B76171  21.835  19.013   6.280
 6087POPC   C2B76172  21.899  18.723   6.616
 6087POPC   C3B76173  21.949  18.896   7.009
 6087POPC   C4B76174  21.647  18.893   7.325
 6088POPC   NC376175  14.762  20.115   5.405
 6088POPC   PO476176  14.058  20.138   5.394
 6088POPC   GL176177  14.256  19.978   5.781
 6088POPC   GL276178  14.533  19.759   5.729
 6088POPC   C1A76179  14.219  19.635   6.132
 6088POPC   D2A76180  13.960  19.567   6.507
 6088POPC   C3A76181  14.179  19.600   6.916
 6088POPC   C4A76182  14.594  19.615   7.131
 6088POPC   C1B76183  14.638  19.924   6.169
 6088POPC   C2B76184  14.509  19.841   6.584
 6088POPC   C3B76185  14.424  20.059   6.948
 6088POPC   C4B76186  14.683  20.102   7.282
 6089POPC   NC376187  15.954  12.893   5.306
 6089POPC   PO476188  16.440  12.504   5.424
 6089POPC   GL176189  16.137  12.710   5.738
 6089POPC   GL276190  15.756  12.590   5.699
 6089POPC   C1A76191  16.193  12.873   6.159
 6089POPC   D2A76192  16.213  12.717   6.571
 6089POPC   C3A76193  16.048  12.998   6.887
 6089POPC   C4A76194  16.192  12.974   7.320
 6089POPC   C1B76195  15.730  12.954   5.987
 6089POPC   C2B76196  15.742  13.043   6.443
 6089POPC   C3B76197  15.505  12.968   6.819
 6089POPC   C4B76198  15.681  12.912   7.230
 6090POPC   NC376199  25.220  28.493   5.409
 6090POPC   PO476200  25.195  27.839   5.416
 6090POPC   GL176201  25.108  28.141   5.769
 6090POPC   GL276202  25.425  28.358   5.828
 6090POPC   C1A76203  25.202  28.171   6.227
 6090POPC   D2A76204  25.125  28.382   6.603
 6090POPC   C3A76205  25.268  28.169   6.964
 6090POPC   C4A76206  25.218  28.403   7.347
 6090POPC   C1B76207  25.681  28.372   6.149
 6090POPC   C2B76208  25.630  28.273   6.548
 6090POPC   C3B76209  25.581  28.554   6.858
 6090POPC   C4B76210  25.707  28.339   7.206
 6091POPC   NC376211  23.200  33.328   5.399
 6091POPC   PO476212  22.741  32.890   5.534
 6091POPC   GL176213  22.820  33.082   5.893
 6091POPC   GL276214  22.721  33.416   5.875
 6091POPC   C1A76215  22.753  33.052   6.318
 6091POPC   D2A76216  23.043  32.803   6.572
 6091POPC   C3A76217  23.209  32.971   6.931
 6091POPC   C4A76218  22.839  33.103   7.173
 6091POPC   C1B76219  23.064  33.450   6.219
 6091POPC   C2B76220  23.024  33.382   6.691
 6091POPC   C3B76221  23.061  33.538   7.144
 6091POPC   C4B76222  22.960  33.351   7.624
 6092POPC   NC376223  17.315  33.800   5.395
 6092POPC   PO476224  17.896  33.436   5.391
 6092POPC   GL176225  17.656  33.675   5.759
 6092POPC   GL276226  17.286  33.523   5.834
 6092POPC   C1A76227  17.446  33.929   6.099
 6092POPC   D2A76228  17.166  33.922   6.466
 6092POPC   C3A76229  17.373  33.905   6.861
 6092POPC   C4A76230  17.548  33.960   7.277
 6092POPC   C1B76231  17.540  33.422   6.232
 6092POPC   C2B76232  17.531  33.437   6.682
 6092POPC   C3B76233  17.565  33.483   7.117
 6092POPC   C4B76234  17.446  33.556   7.564
 6093POPC   NC376235  41.776   7.678   5.477
 6093POPC   PO476236  41.394   7.133   5.488
 6093POPC   GL176237  41.507   7.387   5.834
 6093POPC   GL276238  41.184   7.321   5.939
 6093POPC   C1A76239  41.778   7.380   6.221
 6093POPC   D2A76240  41.687   7.307   6.667
 6093POPC   C3A76241  41.620   7.628   7.018
 6093POPC   C4A76242  41.751   7.725   7.407
 6093POPC   C1B76243  41.281   7.435   6.326
 6093POPC   C2B76244  41.239   7.555   6.714
 6093POPC   C3B76245  41.241   7.276   7.046
 6093POPC   C4B76246  41.368   7.240   7.435
 6094POPC   NC376247  32.734   2.105   5.419
 6094POPC   PO476248  33.246   1.623   5.424
 6094POPC   GL176249  33.071   1.719   5.836
 6094POPC   GL276250  32.721   1.705   5.781
 6094POPC   C1A76251  33.205   1.908   6.260
 6094POPC   D2A76252  33.375   2.094   6.643
 6094POPC   C3A76253  33.262   1.859   7.058
 6094POPC   C4A76254  33.242   1.744   7.530
 6094POPC   C1B76255  32.743   2.051   6.090
 6094POPC   C2B76256  32.791   2.174   6.525
 6094POPC   C3B76257  32.956   2.242   6.947
 6094POPC   C4B76258  32.835   2.002   7.310
 6095POPC   NC376259  28.428  43.286   5.462
 6095POPC   PO476260  28.268  42.558   5.411
 6095POPC   GL176261  28.395  42.838   5.741
 6095POPC   GL276262  28.146  43.048   5.825
 6095POPC   C1A76263  28.550  42.845   6.165
 6095POPC   D2A76264  28.535  43.083   6.566
 6095POPC   C3A76265  28.688  42.964   6.977
 6095POPC   C4A76266  28.739  43.064   7.397
 6095POPC   C1B76267  28.197  43.225   6.203
 6095POPC   C2B76268  28.013  43.297   6.568
 6095POPC   C3B76269  28.206  43.213   6.948
 6095POPC   C4B76270  28.242  43.154   7.375
 6096POPC   NC376271  41.275  15.864   5.076
 6096POPC   PO476272  40.768  15.850   5.486
 6096POPC   GL176273  40.729  15.934   5.882
 6096POPC   GL276274  40.438  16.112   5.862
 6096POPC   C1A76275  40.893  16.152   6.234
 6096POPC   D2A76276  41.109  16.018   6.605
 6096POPC   C3A76277  41.118  16.295   6.911
 6096POPC   C4A76278  40.950  16.091   7.253
 6096POPC   C1B76279  40.390  16.088   6.305
 6096POPC   C2B76280  40.612  16.154   6.700
 6096POPC   C3B76281  40.463  16.049   7.083
 6096POPC   C4B76282  40.494  15.956   7.518
 6097POPC   NC376283  39.323  36.386   5.404
 6097POPC   PO476284  39.087  35.749   5.217
 6097POPC   GL176285  39.080  35.945   5.670
 6097POPC   GL276286  38.967  36.280   5.747
 6097POPC   C1A76287  39.112  35.824   6.112
 6097POPC   D2A76288  39.120  35.739   6.587
 6097POPC   C3A76289  39.218  35.938   6.977
 6097POPC   C4A76290  39.279  35.798   7.412
 6097POPC   C1B76291  39.254  36.315   6.100
 6097POPC   C2B76292  39.325  36.281   6.543
 6097POPC   C3B76293  39.395  36.424   6.966
 6097POPC   C4B76294  39.134  36.349   7.316
 6098POPC   NC376295  25.802  10.109   5.428
 6098POPC   PO476296  26.194  10.673   5.503
 6098POPC   GL176297  25.938  10.544   5.821
 6098POPC   GL276298  25.685  10.790   5.895
 6098POPC   C1A76299  26.063  10.465   6.254
 6098POPC   D2A76300  26.267  10.482   6.668
 6098POPC   C3A76301  25.981  10.475   7.024
 6098POPC   C4A76302  25.815  10.165   7.318
 6098POPC   C1B76303  25.902  10.953   6.231
 6098POPC   C2B76304  25.910  10.840   6.641
 6098POPC   C3B76305  25.854  10.994   7.030
 6098POPC   C4B76306  25.855  10.815   7.457
 6099POPC   NC376307   1.992  15.655   5.691
 6099POPC   PO476308   2.089  16.142   5.220
 6099POPC   GL176309   1.898  16.213   5.659
 6099POPC   GL276310   2.192  16.091   5.802
 6099POPC   C1A76311   1.848  16.130   6.151
 6099POPC   D2A76312   1.940  16.267   6.566
 6099POPC   C3A76313   1.865  16.027   6.962
 6099POPC   C4A76314   1.676  16.053   7.388
 6099POPC   C1B76315   2.359  16.001   6.215
 6099POPC   C2B76316   2.239  15.858   6.620
 6099POPC   C3B76317   2.360  16.053   7.005
 6099POPC   C4B76318   2.167  15.874   7.377
 6100POPC   NC376319  12.592  23.625   5.327
 6100POPC   PO476320  13.104  23.973   5.505
 6100POPC   GL176321  12.911  23.661   5.804
 6100POPC   GL276322  12.610  23.443   5.794
 6100POPC   C1A76323  12.712  23.756   6.195
 6100POPC   D2A76324  12.699  23.863   6.610
 6100POPC   C3A76325  12.828  23.646   6.969
 6100POPC   C4A76326  12.677  23.750   7.308
 6100POPC   C1B76327  12.558  23.282   6.185
 6100POPC   C2B76328  12.340  23.500   6.530
 6100POPC   C3B76329  12.382  23.431   6.965
 6100POPC   C4B76330  12.696  23.121   7.062
 6101POPC   NC376331  20.585  33.963   5.332
 6101POPC   PO476332  21.124  33.733   5.528
 6101POPC   GL176333  20.749  33.772   5.784
 6101POPC   GL276334  20.582  34.097   5.843
 6101POPC   C1A76335  20.649  33.676   6.148
 6101POPC   D2A76336  20.878  33.976   6.379
 6101POPC   C3A76337  20.877  33.920   6.801
 6101POPC   C4A76338  20.832  33.731   7.178
 6101POPC   C1B76339  20.344  34.055   6.227
 6101POPC   C2B76340  20.400  33.810   6.607
 6101POPC   C3B76341  20.390  33.972   7.038
 6101POPC   C4B76342  20.420  33.820   7.478
 6102POPC   NC376343  17.577  20.164   5.241
 6102POPC   PO476344  17.639  20.784   5.072
 6102POPC   GL176345  17.497  20.717   5.560
 6102POPC   GL276346  17.348  20.384   5.684
 6102POPC   C1A76347  17.312  20.747   6.017
 6102POPC   D2A76348  17.353  20.904   6.430
 6102POPC   C3A76349  17.542  20.686   6.763
 6102POPC   C4A76350  17.312  20.791   7.113
 6102POPC   C1B76351  17.344  20.188   6.125
 6102POPC   C2B76352  17.540  20.169   6.566
 6102POPC   C3B76353  17.428  20.254   7.020
 6102POPC   C4B76354  17.688  20.511   7.318
 6103POPC   NC376355  40.235   8.453   5.406
 6103POPC   PO476356  39.935   9.010   5.272
 6103POPC   GL176357  39.997   9.026   5.764
 6103POPC   GL276358  40.177   8.708   5.865
 6103POPC   C1A76359  40.135   9.124   6.229
 6103POPC   D2A76360  40.351   9.341   6.632
 6103POPC   C3A76361  40.248   9.280   7.117
 6103POPC   C4A76362  40.059   9.077   7.521
 6103POPC   C1B76363  39.890   8.580   6.223
 6103POPC   C2B76364  39.882   8.634   6.699
 6103POPC   C3B76365  40.143   8.720   7.104
 6103POPC   C4B76366  40.122   8.547   7.528
 6104POPC   NC376367  15.451  37.898   4.960
 6104POPC   PO476368  16.005  37.703   5.330
 6104POPC   GL176369  15.743  37.714   5.698
 6104POPC   GL276370  15.827  37.445   5.869
 6104POPC   C1A76371  15.778  37.861   6.161
 6104POPC   D2A76372  16.010  37.713   6.554
 6104POPC   C3A76373  15.871  37.808   6.983
 6104POPC   C4A76374  16.062  37.849   7.400
 6104POPC   C1B76375  15.793  37.343   6.273
 6104POPC   C2B76376  16.036  37.115   6.557
 6104POPC   C3B76377  16.068  37.328   6.931
 6104POPC   C4B76378  16.190  37.257   7.333
 6105POPC   NC376379  36.475   7.926   5.438
 6105POPC   PO476380  36.332   8.549   5.653
 6105POPC   GL176381  36.332   8.172   5.881
 6105POPC   GL276382  36.022   8.075   5.716
 6105POPC   C1A76383  36.244   8.222   6.312
 6105POPC   D2A76384  36.105   8.276   6.714
 6105POPC   C3A76385  36.346   8.320   7.023
 6105POPC   C4A76386  36.175   8.194   7.365
 6105POPC   C1B76387  35.896   7.871   6.108
 6105POPC   C2B76388  35.992   7.794   6.572
 6105POPC   C3B76389  35.899   7.888   7.028
 6105POPC   C4B76390  35.767   7.844   7.510
 6106POPC   NC376391  35.970   8.786   5.504
 6106POPC   PO476392  36.237   9.340   5.221
 6106POPC   GL176393  36.122   9.270   5.687
 6106POPC   GL276394  36.231   8.990   5.915
 6106POPC   C1A76395  35.824   9.252   6.068
 6106POPC   D2A76396  35.644   9.149   6.479
 6106POPC   C3A76397  35.932   9.140   6.842
 6106POPC   C4A76398  35.819   9.171   7.276
 6106POPC   C1B76399  35.947   8.722   6.196
 6106POPC   C2B76400  35.795   8.681   6.627
 6106POPC   C3B76401  35.948   8.662   7.041
 6106POPC   C4B76402  36.300   8.905   7.171
 6107POPC   NC376403   8.749  44.172   5.447
 6107POPC   PO476404   8.181  43.871   5.296
 6107POPC   GL176405   8.092  44.002   5.705
 6107POPC   GL276406   8.404  43.969   5.800
 6107POPC   C1A76407   7.973  43.795   6.096
 6107POPC   D2A76408   7.804  43.774   6.506
 6107POPC   C3A76409   8.115  43.750   6.876
 6107POPC   C4A76410   8.052  43.963   7.278
 6107POPC   C1B76411   8.474  43.640   6.079
 6107POPC   C2B76412   8.607  43.538   6.487
 6107POPC   C3B76413   8.623  43.523   6.924
 6107POPC   C4B76414   8.357  43.564   7.285
 6108POPC   NC376415  22.614  26.985   5.443
 6108POPC   PO476416  23.059  26.518   5.539
 6108POPC   GL176417  22.958  26.836   5.838
 6108POPC   GL276418  22.630  26.740   5.926
 6108POPC   C1A76419  23.056  26.981   6.265
 6108POPC   D2A76420  22.944  26.831   6.671
 6108POPC   C3A76421  23.029  27.030   7.055
 6108POPC   C4A76422  23.417  27.195   7.096
 6108POPC   C1B76423  22.654  26.542   6.347
 6108POPC   C2B76424  22.910  26.327   6.686
 6108POPC   C3B76425  23.071  26.516   7.054
 6108POPC   C4B76426  22.747  26.605   7.359
 6109POPC   NC376427  27.119  34.099   5.458
 6109POPC   PO476428  26.782  33.474   5.516
 6109POPC   GL176429  27.047  33.713   5.815
 6109POPC   GL276430  26.907  34.035   5.898
 6109POPC   C1A76431  27.210  33.805   6.242
 6109POPC   D2A76432  26.959  33.881   6.616
 6109POPC   C3A76433  27.080  33.905   7.041
 6109POPC   C4A76434  26.836  33.587   7.255
 6109POPC   C1B76435  26.657  33.896   6.194
 6109POPC   C2B76436  26.521  34.151   6.530
 6109POPC   C3B76437  26.741  34.265   6.892
 6109POPC   C4B76438  26.616  34.034   7.227
 6110POPC   NC376439  31.697  41.615   4.912
 6110POPC   PO476440  31.221  41.747   5.349
 6110POPC   GL176441  31.537  41.567   5.678
 6110POPC   GL276442  31.728  41.822   5.879
 6110POPC   C1A76443  31.664  41.320   6.089
 6110POPC   D2A76444  31.648  41.360   6.569
 6110POPC   C3A76445  31.775  41.257   7.039
 6110POPC   C4A76446  31.576  41.176   7.440
 6110POPC   C1B76447  31.338  41.754   6.133
 6110POPC   C2B76448  31.258  41.831   6.575
 6110POPC   C3B76449  31.486  41.655   6.944
 6110POPC   C4B76450  31.465  41.659   7.382
 6111POPC   NC376451  29.638  31.326   5.311
 6111POPC   PO476452  28.940  31.553   5.389
 6111POPC   GL176453  29.052  31.322   5.752
 6111POPC   GL276454  29.393  31.346   5.807
 6111POPC   C1A76455  29.053  31.279   6.210
 6111POPC   D2A76456  29.094  31.623   6.519
 6111POPC   C3A76457  29.075  31.455   6.917
 6111POPC   C4A76458  28.955  31.245   7.296
 6111POPC   C1B76459  29.566  31.224   6.243
 6111POPC   C2B76460  29.513  31.202   6.738
 6111POPC   C3B76461  29.529  31.417   7.162
 6111POPC   C4B76462  29.225  31.706   7.328
 6112POPC   NC376463  34.616  14.015   5.634
 6112POPC   PO476464  34.520  13.450   5.208
 6112POPC   GL176465  34.708  13.490   5.644
 6112POPC   GL276466  34.402  13.355   5.785
 6112POPC   C1A76467  34.689  13.540   6.141
 6112POPC   D2A76468  34.499  13.446   6.562
 6112POPC   C3A76469  34.693  13.548   6.962
 6112POPC   C4A76470  34.896  13.728   7.325
 6112POPC   C1B76471  34.182  13.306   6.175
 6112POPC   C2B76472  33.977  13.326   6.582
 6112POPC   C3B76473  34.201  13.314   6.966
 6112POPC   C4B76474  34.114  13.374   7.366
 6113POPC   NC376475  21.857  42.399   5.357
 6113POPC   PO476476  22.440  42.115   5.375
 6113POPC   GL176477  22.357  42.439   5.717
 6113POPC   GL276478  22.047  42.626   5.761
 6113POPC   C1A76479  22.295  42.474   6.200
 6113POPC   D2A76480  22.162  42.217   6.581
 6113POPC   C3A76481  22.169  42.323   7.028
 6113POPC   C4A76482  22.304  42.422   7.471
 6113POPC   C1B76483  21.792  42.688   6.135
 6113POPC   C2B76484  21.925  42.670   6.540
 6113POPC   C3B76485  21.786  42.688   6.943
 6113POPC   C4B76486  21.796  42.507   7.319
 6114POPC   NC376487  23.791   3.898   5.319
 6114POPC   PO476488  23.979   4.561   5.382
 6114POPC   GL176489  23.770   4.316   5.707
 6114POPC   GL276490  24.078   4.206   5.799
 6114POPC   C1A76491  23.520   4.331   6.122
 6114POPC   D2A76492  23.248   4.226   6.484
 6114POPC   C3A76493  23.326   4.431   6.892
 6114POPC   C4A76494  23.287   4.182   7.262
 6114POPC   C1B76495  24.021   4.383   6.218
 6114POPC   C2B76496  23.762   4.256   6.577
 6114POPC   C3B76497  23.784   4.130   6.979
 6114POPC   C4B76498  23.863   4.490   7.198
 6115POPC   NC376499  33.774  26.957   5.405
 6115POPC   PO476500  33.627  26.330   5.576
 6115POPC   GL176501  33.660  26.693   5.819
 6115POPC   GL276502  34.032  26.682   5.886
 6115POPC   C1A76503  33.687  27.005   6.157
 6115POPC   D2A76504  33.848  26.914   6.571
 6115POPC   C3A76505  33.769  26.842   6.992
 6115POPC   C4A76506  33.519  27.077   7.263
 6115POPC   C1B76507  33.807  26.477   6.258
 6115POPC   C2B76508  33.597  26.300   6.623
 6115POPC   C3B76509  33.689  26.304   7.042
 6115POPC   C4B76510  34.001  26.491   7.284
 6116POPC   NC376511  35.765  31.717   5.467
 6116POPC   PO476512  36.201  31.228   5.338
 6116POPC   GL176513  36.105  31.136   5.738
 6116POPC   GL276514  36.353  31.349   5.839
 6116POPC   C1A76515  35.910  31.378   6.097
 6116POPC   D2A76516  36.056  31.557   6.495
 6116POPC   C3A76517  36.028  31.308   6.852
 6116POPC   C4A76518  35.892  31.387   7.252
 6116POPC   C1B76519  36.370  31.709   6.100
 6116POPC   C2B76520  36.512  31.815   6.509
 6116POPC   C3B76521  36.374  31.689   6.895
 6116POPC   C4B76522  36.373  31.651   7.339
 6117POPC   NC376523  20.927   2.505   5.393
 6117POPC   PO476524  21.497   2.835   5.338
 6117POPC   GL176525  21.378   2.653   5.708
 6117POPC   GL276526  21.127   2.885   5.711
 6117POPC   C1A76527  21.480   2.713   6.163
 6117POPC   D2A76528  21.716   2.837   6.566
 6117POPC   C3A76529  21.472   2.752   6.965
 6117POPC   C4A76530  21.346   2.653   7.377
 6117POPC   C1B76531  21.232   3.151   6.024
 6117POPC   C2B76532  21.294   3.137   6.477
 6117POPC   C3B76533  21.105   3.120   6.900
 6117POPC   C4B76534  21.115   3.082   7.293
 6118POPC   NC376535  21.998  44.950   5.246
 6118POPC   PO476536  22.252  44.320   5.303
 6118POPC   GL176537  22.295  44.672   5.601
 6118POPC   GL276538  21.991  44.627   5.799
 6118POPC   C1A76539  22.407  44.776   6.057
 6118POPC   D2A76540  22.312  44.631   6.497
 6118POPC   C3A76541  22.449  44.751   6.887
 6118POPC   C4A76542  22.114  44.775   7.180
 6118POPC   C1B76543  21.913  44.831   6.222
 6118POPC   C2B76544  21.926  44.961   6.686
 6118POPC   C3B76545  21.661  44.964   7.053
 6118POPC   C4B76546  21.562  44.729   7.435
 6119POPC   NC376547  23.135   5.358   5.496
 6119POPC   PO476548  23.020   4.762   5.184
 6119POPC   GL176549  22.974   4.907   5.667
 6119POPC   GL276550  23.256   5.035   5.871
 6119POPC   C1A76551  22.779   5.067   6.081
 6119POPC   D2A76552  22.725   5.035   6.528
 6119POPC   C3A76553  22.851   5.274   6.882
 6119POPC   C4A76554  22.848   5.115   7.281
 6119POPC   C1B76555  23.384   4.894   6.287
 6119POPC   C2B76556  23.216   4.937   6.719
 6119POPC   C3B76557  23.330   4.951   7.155
 6119POPC   C4B76558  23.270   5.041   7.616
 6120POPC   NC376559  41.159  36.017   5.300
 6120POPC   PO476560  40.516  36.255   5.281
 6120POPC   GL176561  40.817  36.180   5.657
 6120POPC   GL276562  40.857  36.494   5.818
 6120POPC   C1A76563  40.871  35.999   6.108
 6120POPC   D2A76564  40.963  35.806   6.561
 6120POPC   C3A76565  40.886  36.015   6.962
 6120POPC   C4A76566  40.648  36.288   7.233
 6120POPC   C1B76567  41.068  36.528   6.192
 6120POPC   C2B76568  40.985  36.367   6.590
 6120POPC   C3B76569  41.074  36.493   6.994
 6120POPC   C4B76570  41.206  36.370   7.408
 6121POPC   NC376571  12.138  38.306   5.435
 6121POPC   PO476572  11.922  38.925   5.516
 6121POPC   GL176573  11.886  38.587   5.807
 6121POPC   GL276574  12.219  38.594   5.853
 6121POPC   C1A76575  11.981  38.312   6.199
 6121POPC   D2A76576  12.131  38.480   6.605
 6121POPC   C3A76577  12.197  38.267   7.017
 6121POPC   C4A76578  11.949  38.264   7.411
 6121POPC   C1B76579  12.079  38.847   6.225
 6121POPC   C2B76580  12.181  38.998   6.651
 6121POPC   C3B76581  12.011  38.757   7.022
 6121POPC   C4B76582  12.187  38.694   7.454
 6122POPC   NC376583  41.070  32.682   5.472
 6122POPC   PO476584  40.340  32.843   5.420
 6122POPC   GL176585  40.703  32.898   5.763
 6122POPC   GL276586  40.843  33.252   5.814
 6122POPC   C1A76587  40.705  32.910   6.242
 6122POPC   D2A76588  40.603  32.880   6.680
 6122POPC   C3A76589  40.876  32.887   7.003
 6122POPC   C4A76590  40.738  33.172   7.212
 6122POPC   C1B76591  41.131  33.151   6.125
 6122POPC   C2B76592  41.127  33.112   6.571
 6122POPC   C3B76593  41.206  33.269   6.996
 6122POPC   C4B76594  41.219  33.082   7.410
 6123POPC   NC376595  15.153  26.091   5.410
 6123POPC   PO476596  15.678  26.450   5.505
 6123POPC   GL176597  15.423  26.175   5.849
 6123POPC   GL276598  15.109  25.947   5.880
 6123POPC   C1A76599  15.474  25.943   6.245
 6123POPC   D2A76600  15.615  25.869   6.666
 6123POPC   C3A76601  15.340  25.983   7.012
 6123POPC   C4A76602  15.401  26.327   7.283
 6123POPC   C1B76603  14.933  25.955   6.284
 6123POPC   C2B76604  14.970  25.839   6.693
 6123POPC   C3B76605  14.785  25.974   7.058
 6123POPC   C4B76606  14.920  26.139   7.442
 6124POPC   NC376607   0.161  33.116   5.719
 6124POPC   PO476608   0.743  32.928   5.371
 6124POPC   GL176609   0.738  32.999   5.812
 6124POPC   GL276610   0.503  32.729   5.861
 6124POPC   C1A76611   0.713  32.970   6.274
 6124POPC   D2A76612   0.498  32.822   6.637
 6124POPC   C3A76613   0.519  33.079   6.983
 6124POPC   C4A76614   0.557  33.020   7.395
 6124POPC   C1B76615   0.272  32.581   6.217
 6124POPC   C2B76616   0.042  32.552   6.599
 6124POPC   C3B76617   0.064  32.798   6.960
 6124POPC   C4B76618   0.392  32.604   7.153
 6125POPC   NC376619  13.313  27.640   5.559
 6125POPC   PO476620  13.824  27.258   5.353
 6125POPC   GL176621  13.913  27.460   5.754
 6125POPC   GL276622  13.843  27.842   5.743
 6125POPC   C1A76623  13.807  27.508   6.212
 6125POPC   D2A76624  13.470  27.403   6.530
 6125POPC   C3A76625  13.611  27.424   6.969
 6125POPC   C4A76626  13.979  27.452   7.239
 6125POPC   C1B76627  13.726  28.024   6.172
 6125POPC   C2B76628  13.844  27.870   6.595
 6125POPC   C3B76629  13.799  27.886   7.034
 6125POPC   C4B76630  13.385  27.860   7.234
 6126POPC   NC376631  22.986  15.623   5.424
 6126POPC   PO476632  22.809  16.235   5.259
 6126POPC   GL176633  22.808  16.025   5.733
 6126POPC   GL276634  23.127  15.813   5.863
 6126POPC   C1A76635  22.777  16.101   6.215
 6126POPC   D2A76636  22.819  15.898   6.662
 6126POPC   C3A76637  23.092  16.016   7.036
 6126POPC   C4A76638  23.105  16.193   7.466
 6126POPC   C1B76639  22.935  15.629   6.196
 6126POPC   C2B76640  23.104  15.455   6.552
 6126POPC   C3B76641  23.026  15.471   6.971
 6126POPC   C4B76642  22.722  15.671   7.184
 6127POPC   NC376643  38.484  23.443   5.408
 6127POPC   PO476644  38.825  24.031   5.478
 6127POPC   GL176645  38.563  23.859   5.860
 6127POPC   GL276646  38.343  23.599   5.859
 6127POPC   C1A76647  38.206  23.883   6.238
 6127POPC   D2A76648  38.171  23.779   6.680
 6127POPC   C3A76649  38.108  24.078   6.997
 6127POPC   C4A76650  38.390  23.950   7.288
 6127POPC   C1B76651  38.290  23.347   6.246
 6127POPC   C2B76652  38.427  23.313   6.674
 6127POPC   C3B76653  38.433  23.332   7.115
 6127POPC   C4B76654  38.285  23.495   7.520
 6128POPC   NC376655  29.465  35.019   5.540
 6128POPC   PO476656  29.824  35.507   5.165
 6128POPC   GL176657  29.677  35.494   5.633
 6128POPC   GL276658  29.901  35.269   5.804
 6128POPC   C1A76659  29.653  35.596   6.120
 6128POPC   D2A76660  29.880  35.420   6.501
 6128POPC   C3A76661  29.996  35.472   6.942
 6128POPC   C4A76662  30.234  35.297   7.268
 6128POPC   C1B76663  29.724  35.057   6.161
 6128POPC   C2B76664  29.614  34.991   6.580
 6128POPC   C3B76665  29.517  35.230   6.949
 6128POPC   C4B76666  29.480  35.082   7.366
 6129POPC   NC376667   7.773   8.345   5.312
 6129POPC   PO476668   7.181   8.378   5.248
 6129POPC   GL176669   7.292   8.304   5.785
 6129POPC   GL276670   7.555   8.098   5.821
 6129POPC   C1A76671   7.075   8.127   6.173
 6129POPC   D2A76672   7.016   7.888   6.579
 6129POPC   C3A76673   6.989   8.179   6.929
 6129POPC   C4A76674   7.293   8.141   7.240
 6129POPC   C1B76675   7.773   8.125   6.200
 6129POPC   C2B76676   7.836   8.293   6.618
 6129POPC   C3B76677   7.800   8.120   7.041
 6129POPC   C4B76678   7.748   8.131   7.496
 6130POPC   NC376679  43.124  28.611   5.450
 6130POPC   PO476680  42.954  27.926   5.451
 6130POPC   GL176681  43.029  28.181   5.816
 6130POPC   GL276682  43.362  28.256   5.904
 6130POPC   C1A76683  42.932  28.292   6.240
 6130POPC   D2A76684  43.028  28.493   6.593
 6130POPC   C3A76685  43.177  28.227   6.856
 6130POPC   C4A76686  42.913  28.299   7.161
 6130POPC   C1B76687  43.452  28.250   6.369
 6130POPC   C2B76688  43.534  28.566   6.709
 6130POPC   C3B76689  43.306  28.647   7.119
 6130POPC   C4B76690  43.476  28.527   7.554
 6131POPC   NC376691  24.672  33.595   5.442
 6131POPC   PO476692  24.517  32.873   5.399
 6131POPC   GL176693  24.440  32.952   5.833
 6131POPC   GL276694  24.651  33.237   5.803
 6131POPC   C1A76695  24.333  32.899   6.294
 6131POPC   D2A76696  24.235  32.674   6.716
 6131POPC   C3A76697  24.413  32.865   7.110
 6131POPC   C4A76698  24.435  33.144   7.490
 6131POPC   C1B76699  24.606  33.393   6.190
 6131POPC   C2B76700  24.722  33.296   6.574
 6131POPC   C3B76701  24.558  33.341   6.982
 6131POPC   C4B76702  24.795  33.498   7.296
 6132POPC   NC376703  44.207  29.540   5.012
 6132POPC   PO476704  43.932  29.067   5.480
 6132POPC   GL176705  43.829  29.241   5.853
 6132POPC   GL276706  43.557  28.985   5.871
 6132POPC   C1A76707  44.034  29.210   6.231
 6132POPC   D2A76708  44.205  28.978   6.560
 6132POPC   C3A76709  44.130  29.214   6.941
 6132POPC   C4A76710  44.312  29.095   7.312
 6132POPC   C1B76711  43.494  29.232   6.251
 6132POPC   C2B76712  43.692  29.073   6.629
 6132POPC   C3B76713  43.724  28.922   7.042
 6132POPC   C4B76714  43.792  29.198   7.369
 6133POPC   NC376715  19.628  31.829   5.375
 6133POPC   PO476716  20.013  31.338   5.233
 6133POPC   GL176717  20.073  31.553   5.595
 6133POPC   GL276718  19.784  31.379   5.716
 6133POPC   C1A76719  20.055  31.636   6.061
 6133POPC   D2A76720  19.744  31.639   6.427
 6133POPC   C3A76721  19.890  31.529   6.832
 6133POPC   C4A76722  20.020  31.500   7.228
 6133POPC   C1B76723  19.816  31.180   6.159
 6133POPC   C2B76724  19.798  31.046   6.603
 6133POPC   C3B76725  19.731  31.069   7.072
 6133POPC   C4B76726  19.728  31.206   7.527
 6134POPC   NC376727  19.363   9.933   5.448
 6134POPC   PO476728  18.740   9.718   5.461
 6134POPC   GL176729  19.051   9.717   5.805
 6134POPC   GL276730  19.367   9.509   5.772
 6134POPC   C1A76731  19.157   9.818   6.234
 6134POPC   D2A76732  19.182  10.046   6.622
 6134POPC   C3A76733  18.999   9.847   6.968
 6134POPC   C4A76734  19.194   9.905   7.343
 6134POPC   C1B76735  19.528   9.457   6.208
 6134POPC   C2B76736  19.361   9.477   6.643
 6134POPC   C3B76737  19.291   9.451   7.100
 6134POPC   C4B76738  19.400   9.437   7.533
 6135POPC   NC376739  33.145  36.899   5.351
 6135POPC   PO476740  32.721  36.332   5.232
 6135POPC   GL176741  32.892  36.580   5.655
 6135POPC   GL276742  32.723  36.906   5.717
 6135POPC   C1A76743  33.136  36.850   6.025
 6135POPC   D2A76744  33.043  37.093   6.432
 6135POPC   C3A76745  33.230  37.010   6.866
 6135POPC   C4A76746  33.439  37.080   7.270
 6135POPC   C1B76747  32.661  36.705   6.135
 6135POPC   C2B76748  32.627  36.841   6.573
 6135POPC   C3B76749  32.738  36.986   7.001
 6135POPC   C4B76750  32.661  36.683   7.300
 6136POPC   NC376751  13.835   1.550   5.448
 6136POPC   PO476752  13.168   1.231   5.507
 6136POPC   GL176753  13.448   1.263   5.819
 6136POPC   GL276754  13.814   1.235   5.852
 6136POPC   C1A76755  13.455   1.428   6.205
 6136POPC   D2A76756  13.580   1.259   6.549
 6136POPC   C3A76757  13.531   1.503   6.903
 6136POPC   C4A76758  13.712   1.302   7.241
 6136POPC   C1B76759  13.684   0.897   6.139
 6136POPC   C2B76760  13.832   0.700   6.513
 6136POPC   C3B76761  13.705   0.900   6.905
 6136POPC   C4B76762  13.862   0.782   7.304
 6137POPC   NC376763  43.714   1.808   5.289
 6137POPC   PO476764  44.292   2.201   5.448
 6137POPC   GL176765  44.004   2.178   5.790
 6137POPC   GL276766  43.673   1.996   5.785
 6137POPC   C1A76767  43.969   2.046   6.215
 6137POPC   D2A76768  43.952   2.281   6.599
 6137POPC   C3A76769  43.739   2.117   6.958
 6137POPC   C4A76770  44.012   2.220   7.298
 6137POPC   C1B76771  43.603   1.631   6.091
 6137POPC   C2B76772  43.820   1.415   6.442
 6137POPC   C3B76773  44.006   1.510   6.852
 6137POPC   C4B76774  43.946   1.701   7.247
 6138POPC   NC376775  14.058  37.174   5.520
 6138POPC   PO476776  14.648  36.872   5.487
 6138POPC   GL176777  14.676  36.842   5.906
 6138POPC   GL276778  14.305  36.846   5.902
 6138POPC   C1A76779  14.591  36.764   6.336
 6138POPC   D2A76780  14.311  36.611   6.633
 6138POPC   C3A76781  14.386  36.697   7.035
 6138POPC   C4A76782  14.164  36.636   7.396
 6138POPC   C1B76783  14.092  37.041   6.239
 6138POPC   C2B76784  14.201  37.114   6.653
 6138POPC   C3B76785  14.040  37.068   7.058
 6138POPC   C4B76786  14.085  37.385   7.351
 6139POPC   NC376787  36.340  18.178   5.237
 6139POPC   PO476788  37.021  18.268   5.312
 6139POPC   GL176789  36.910  18.424   5.731
 6139POPC   GL276790  36.862  18.089   5.807
 6139POPC   C1A76791  36.731  18.425   6.178
 6139POPC   D2A76792  36.714  18.230   6.584
 6139POPC   C3A76793  36.744  18.478   6.958
 6139POPC   C4A76794  36.639  18.500   7.388
 6139POPC   C1B76795  37.000  17.991   6.211
 6139POPC   C2B76796  37.245  18.057   6.563
 6139POPC   C3B76797  37.034  18.043   6.953
 6139POPC   C4B76798  36.823  18.023   7.348
 6140POPC   NC376799  27.001  26.822   5.138
 6140POPC   PO476800  26.407  26.675   5.400
 6140POPC   GL176801  26.751  26.831   5.672
 6140POPC   GL276802  26.837  26.564   5.875
 6140POPC   C1A76803  26.743  26.952   6.167
 6140POPC   D2A76804  26.767  26.788   6.605
 6140POPC   C3A76805  26.736  27.068   6.978
 6140POPC   C4A76806  26.876  27.045   7.404
 6140POPC   C1B76807  26.655  26.393   6.279
 6140POPC   C2B76808  26.468  26.213   6.653
 6140POPC   C3B76809  26.647  26.239   7.044
 6140POPC   C4B76810  26.890  26.603   7.142
 6141POPC   NC376811  34.098  27.800   5.512
 6141POPC   PO476812  33.541  27.345   5.526
 6141POPC   GL176813  33.779  27.532   5.819
 6141POPC   GL276814  33.703  27.883   5.830
 6141POPC   C1A76815  33.990  27.443   6.177
 6141POPC   D2A76816  33.758  27.432   6.527
 6141POPC   C3A76817  33.994  27.354   6.879
 6141POPC   C4A76818  33.825  27.494   7.242
 6141POPC   C1B76819  34.042  27.960   6.146
 6141POPC   C2B76820  34.177  27.825   6.556
 6141POPC   C3B76821  34.024  27.894   6.969
 6141POPC   C4B76822  34.108  27.876   7.427
 6142POPC   NC376823  22.176   1.649   5.497
 6142POPC   PO476824  21.574   1.410   5.487
 6142POPC   GL176825  21.936   1.248   5.768
 6142POPC   GL276826  21.977   0.904   5.674
 6142POPC   C1A76827  22.200   1.211   6.185
 6142POPC   D2A76828  22.347   1.201   6.664
 6142POPC   C3A76829  22.189   1.427   7.050
 6142POPC   C4A76830  22.277   1.180   7.416
 6142POPC   C1B76831  21.843   0.819   6.098
 6142POPC   C2B76832  21.912   0.919   6.531
 6142POPC   C3B76833  22.005   0.957   6.967
 6142POPC   C4B76834  21.962   0.774   7.323
 6143POPC   NC376835  12.084  11.392   5.175
 6143POPC   PO476836  12.240  10.759   5.288
 6143POPC   GL176837  12.152  11.122   5.625
 6143POPC   GL276838  12.111  11.495   5.679
 6143POPC   C1A76839  11.919  11.166   6.037
 6143POPC   D2A76840  11.876  11.317   6.475
 6143POPC   C3A76841  12.003  11.095   6.822
 6143POPC   C4A76842  11.920  11.211   7.240
 6143POPC   C1B76843  11.977  11.677   6.088
 6143POPC   C2B76844  12.092  11.786   6.539
 6143POPC   C3B76845  12.154  11.577   6.958
 6143POPC   C4B76846  12.396  11.532   7.363
 6144POPC   NC376847  14.094  23.380   5.587
 6144POPC   PO476848  14.496  22.766   5.395
 6144POPC   GL176849  14.594  22.764   5.823
 6144POPC   GL276850  14.546  23.098   5.867
 6144POPC   C1A76851  14.347  22.785   6.242
 6144POPC   D2A76852  14.439  22.993   6.621
 6144POPC   C3A76853  14.345  23.005   7.007
 6144POPC   C4A76854  14.484  22.853   7.339
 6144POPC   C1B76855  14.790  23.015   6.235
 6144POPC   C2B76856  14.870  23.251   6.549
 6144POPC   C3B76857  14.756  23.298   6.940
 6144POPC   C4B76858  14.907  23.137   7.302
 6145POPC   NC376859   9.637  10.873   5.410
 6145POPC   PO476860   9.281  10.334   5.285
 6145POPC   GL176861   9.417  10.480   5.698
 6145POPC   GL276862   9.754  10.326   5.853
 6145POPC   C1A76863   9.490  10.724   6.101
 6145POPC   D2A76864   9.693  10.631   6.492
 6145POPC   C3A76865   9.652  10.879   6.865
 6145POPC   C4A76866   9.953  10.994   7.206
 6145POPC   C1B76867  10.039  10.299   6.267
 6145POPC   C2B76868  10.023  10.326   6.772
 6145POPC   C3B76869   9.875  10.471   7.212
 6145POPC   C4B76870   9.977  10.311   7.649
 6146POPC   NC376871  33.345  14.588   5.226
 6146POPC   PO476872  32.869  14.283   5.363
 6146POPC   GL176873  33.005  14.369   5.785
 6146POPC   GL276874  33.369  14.521   5.748
 6146POPC   C1A76875  32.844  14.341   6.215
 6146POPC   D2A76876  32.988  14.574   6.557
 6146POPC   C3A76877  33.012  14.354   6.927
 6146POPC   C4A76878  33.028  14.536   7.320
 6146POPC   C1B76879  33.350  14.449   6.188
 6146POPC   C2B76880  33.593  14.353   6.526
 6146POPC   C3B76881  33.522  14.387   6.920
 6146POPC   C4B76882  33.387  14.189   7.290
 6147POPC   NC376883  13.146  28.515   5.415
 6147POPC   PO476884  12.715  28.058   5.445
 6147POPC   GL176885  12.785  28.249   5.853
 6147POPC   GL276886  12.987  28.548   5.898
 6147POPC   C1A76887  12.643  28.228   6.290
 6147POPC   D2A76888  12.730  27.909   6.606
 6147POPC   C3A76889  12.823  28.028   7.008
 6147POPC   C4A76890  12.687  28.410   7.169
 6147POPC   C1B76891  13.154  28.315   6.239
 6147POPC   C2B76892  13.054  28.351   6.708
 6147POPC   C3B76893  13.220  28.363   7.157
 6147POPC   C4B76894  13.205  28.565   7.571
 6148POPC   NC376895   2.450   7.645   5.464
 6148POPC   PO476896   2.806   7.071   5.530
 6148POPC   GL176897   2.801   7.343   5.889
 6148POPC   GL276898   2.529   7.602   5.970
 6148POPC   C1A76899   2.733   7.305   6.325
 6148POPC   D2A76900   2.651   7.547   6.663
 6148POPC   C3A76901   2.843   7.364   7.013
 6148POPC   C4A76902   2.791   7.398   7.416
 6148POPC   C1B76903   2.912   7.762   6.199
 6148POPC   C2B76904   2.971   8.010   6.603
 6148POPC   C3B76905   2.869   7.863   7.030
 6148POPC   C4B76906   2.449   7.670   7.142
 6149POPC   NC376907  13.208  35.412   5.404
 6149POPC   PO476908  13.826  34.975   5.250
 6149POPC   GL176909  13.850  35.090   5.712
 6149POPC   GL276910  13.611  35.382   5.757
 6149POPC   C1A76911  13.763  35.018   6.178
 6149POPC   D2A76912  13.426  35.120   6.470
 6149POPC   C3A76913  13.390  35.138   6.922
 6149POPC   C4A76914  13.431  35.304   7.337
 6149POPC   C1B76915  13.726  35.547   6.164
 6149POPC   C2B76916  13.585  35.600   6.587
 6149POPC   C3B76917  13.782  35.512   6.982
 6149POPC   C4B76918  13.704  35.728   7.355
 6150POPC   NC376919  18.259   6.285   5.359
 6150POPC   PO476920  18.392   5.588   5.337
 6150POPC   GL176921  18.283   5.860   5.656
 6150POPC   GL276922  18.569   6.064   5.686
 6150POPC   C1A76923  18.227   6.009   6.097
 6150POPC   D2A76924  18.207   6.114   6.553
 6150POPC   C3A76925  18.117   5.855   6.920
 6150POPC   C4A76926  18.098   5.938   7.355
 6150POPC   C1B76927  18.693   5.841   6.008
 6150POPC   C2B76928  18.654   5.880   6.427
 6150POPC   C3B76929  18.599   5.974   6.853
 6150POPC   C4B76930  18.605   5.805   7.249
 6151POPC   NC376931  10.090  27.813   5.539
 6151POPC   PO476932  10.484  27.294   5.337
 6151POPC   GL176933  10.489  27.541   5.722
 6151POPC   GL276934  10.725  27.310   5.834
 6151POPC   C1A76935  10.377  27.731   6.147
 6151POPC   D2A76936  10.538  27.816   6.586
 6151POPC   C3A76937  10.407  27.976   6.985
 6151POPC   C4A76938  10.534  27.717   7.298
 6151POPC   C1B76939  10.366  27.217   6.139
 6151POPC   C2B76940  10.217  27.395   6.547
 6151POPC   C3B76941  10.386  27.317   6.974
 6151POPC   C4B76942  10.399  27.058   7.350
 6152POPC   NC376943  24.923  43.392   5.513
 6152POPC   PO476944  24.395  42.979   5.181
 6152POPC   GL176945  24.456  43.188   5.618
 6152POPC   GL276946  24.680  42.972   5.817
 6152POPC   C1A76947  24.559  43.437   6.041
 6152POPC   D2A76948  24.463  43.357   6.494
 6152POPC   C3A76949  24.607  43.116   6.857
 6152POPC   C4A76950  24.793  42.869   7.168
 6152POPC   C1B76951  24.319  43.003   6.138
 6152POPC   C2B76952  24.176  42.932   6.588
 6152POPC   C3B76953  24.166  42.942   7.053
 6152POPC   C4B76954  24.120  42.871   7.502
 6153POPC   NC376955  37.892   7.678   5.434
 6153POPC   PO476956  37.408   7.258   5.217
 6153POPC   GL176957  37.456   7.441   5.675
 6153POPC   GL276958  37.777   7.533   5.912
 6153POPC   C1A76959  37.363   7.373   6.146
 6153POPC   D2A76960  37.637   7.548   6.468
 6153POPC   C3A76961  37.520   7.552   6.904
 6153POPC   C4A76962  37.497   7.656   7.335
 6153POPC   C1B76963  37.943   7.188   6.220
 6153POPC   C2B76964  38.210   7.083   6.606
 6153POPC   C3B76965  38.091   7.103   7.050
 6153POPC   C4B76966  37.675   7.177   7.250
 6154POPC   NC376967  34.949  23.885   5.576
 6154POPC   PO476968  34.515  23.522   5.236
 6154POPC   GL176969  34.502  23.626   5.738
 6154POPC   GL276970  34.467  23.963   5.805
 6154POPC   C1A76971  34.765  23.701   6.174
 6154POPC   D2A76972  34.820  23.774   6.644
 6154POPC   C3A76973  34.607  23.412   6.866
 6154POPC   C4A76974  34.210  23.236   7.080
 6154POPC   C1B76975  34.295  23.873   6.233
 6154POPC   C2B76976  34.363  23.998   6.671
 6154POPC   C3B76977  34.331  23.801   7.080
 6154POPC   C4B76978  34.736  23.724   7.299
 6155POPC   NC376979  13.362   0.803   5.524
 6155POPC   PO476980  13.999   0.714   5.518
 6155POPC   GL176981  13.748   0.476   5.826
 6155POPC   GL276982  13.406   0.345   5.768
 6155POPC   C1A76983  13.694   0.247   6.222
 6155POPC   D2A76984  13.527   0.266   6.629
 6155POPC   C3A76985  13.783   0.395   6.944
 6155POPC   C4A76986  13.718   0.297   7.375
 6155POPC   C1B76987  13.256   0.543   6.152
 6155POPC   C2B76988  13.334   0.735   6.541
 6155POPC   C3B76989  13.301   0.582   6.980
 6155POPC   C4B76990  13.365   0.687   7.440
 6156POPC   NC376991  34.900  17.585   5.596
 6156POPC   PO476992  34.283  17.821   5.613
 6156POPC   GL176993  34.450  17.567   5.893
 6156POPC   GL276994  34.490  17.237   5.773
 6156POPC   C1A76995  34.479  17.661   6.320
 6156POPC   D2A76996  34.542  17.617   6.737
 6156POPC   C3A76997  34.237  17.684   6.962
 6156POPC   C4A76998  34.479  17.700   7.279
 6156POPC   C1B76999  34.683  17.202   6.195
 6156POPC   C2B77000  34.608  17.099   6.627
 6156POPC   C3B77001  34.479  17.211   7.057
 6156POPC   C4B77002  34.814  17.087   7.334
 6157POPC   NC377003  42.040  19.494   5.506
 6157POPC   PO477004  42.246  20.143   5.424
 6157POPC   GL177005  42.206  19.863   5.807
 6157POPC   GL277006  42.406  19.561   5.863
 6157POPC   C1A77007  42.221  19.951   6.258
 6157POPC   D2A77008  42.504  19.805   6.593
 6157POPC   C3A77009  42.316  19.848   7.000
 6157POPC   C4A77010  41.971  19.940   7.279
 6157POPC   C1B77011  42.254  19.443   6.282
 6157POPC   C2B77012  42.015  19.649   6.638
 6157POPC   C3B77013  41.969  19.467   7.099
 6157POPC   C4B77014  42.125  19.410   7.549
 6158POPC   NC377015  12.510  22.823   5.438
 6158POPC   PO477016  11.937  23.186   5.549
 6158POPC   GL177017  12.244  23.053   5.826
 6158POPC   GL277018  12.105  22.738   5.792
 6158POPC   C1A77019  12.271  22.869   6.245
 6158POPC   D2A77020  12.450  23.000   6.606
 6158POPC   C3A77021  12.155  22.970   6.903
 6158POPC   C4A77022  12.298  22.919   7.304
 6158POPC   C1B77023  11.981  22.449   6.140
 6158POPC   C2B77024  12.030  22.520   6.580
 6158POPC   C3B77025  11.764  22.598   6.890
 6158POPC   C4B77026  11.821  22.779   7.240
 6159POPC   NC377027  22.309  33.083   5.443
 6159POPC   PO477028  21.650  32.942   5.674
 6159POPC   GL177029  21.981  33.020   6.000
 6159POPC   GL277030  22.312  33.120   5.948
 6159POPC   C1A77031  22.142  32.962   6.441
 6159POPC   D2A77032  21.891  33.029   6.820
 6159POPC   C3A77033  21.823  32.802   7.193
 6159POPC   C4A77034  21.765  33.015   7.627
 6159POPC   C1B77035  22.384  32.700   6.069
 6159POPC   C2B77036  22.565  32.602   6.454
 6159POPC   C3B77037  22.550  32.915   6.778
 6159POPC   C4B77038  22.348  32.926   7.171
 6160POPC   NC377039  18.433  37.269   5.004
 6160POPC   PO477040  18.271  36.765   5.394
 6160POPC   GL177041  18.229  36.674   5.808
 6160POPC   GL277042  17.871  36.672   5.794
 6160POPC   C1A77043  18.398  36.881   6.180
 6160POPC   D2A77044  18.670  36.905   6.523
 6160POPC   C3A77045  18.474  36.988   6.920
 6160POPC   C4A77046  18.356  36.702   7.238
 6160POPC   C1B77047  17.912  37.005   6.146
 6160POPC   C2B77048  18.123  37.143   6.542
 6160POPC   C3B77049  17.953  37.000   6.935
 6160POPC   C4B77050  17.849  36.810   7.330
 6161POPC   NC377051  37.696   9.153   5.341
 6161POPC   PO477052  37.871   8.477   5.474
 6161POPC   GL177053  37.598   8.826   5.739
 6161POPC   GL277054  37.532   9.249   5.807
 6161POPC   C1A77055  37.714   8.965   6.176
 6161POPC   D2A77056  37.555   8.780   6.556
 6161POPC   C3A77057  37.775   8.881   6.930
 6161POPC   C4A77058  37.584   8.817   7.339
 6161POPC   C1B77059  37.401   9.369   6.253
 6161POPC   C2B77060  37.394   9.260   6.693
 6161POPC   C3B77061  37.525   9.260   7.138
 6161POPC   C4B77062  37.270   9.209   7.534
 6162POPC   NC377063  39.004   8.211   5.373
 6162POPC   PO477064  39.720   8.342   5.460
 6162POPC   GL177065  39.357   8.416   5.710
 6162POPC   GL277066  39.263   8.093   5.826
 6162POPC   C1A77067  39.363   8.548   6.123
 6162POPC   D2A77068  39.428   8.381   6.531
 6162POPC   C3A77069  39.083   8.368   6.814
 6162POPC   C4A77070  39.225   8.393   7.231
 6162POPC   C1B77071  39.062   8.142   6.220
 6162POPC   C2B77072  39.129   7.910   6.571
 6162POPC   C3B77073  39.127   7.847   7.000
 6162POPC   C4B77074  39.154   7.948   7.435
 6163POPC   NC377075  10.190  26.932   5.326
 6163POPC   PO477076   9.535  26.881   5.213
 6163POPC   GL177077   9.778  26.974   5.636
 6163POPC   GL277078   9.499  27.089   5.843
 6163POPC   C1A77079   9.886  26.882   6.102
 6163POPC   D2A77080   9.951  26.951   6.560
 6163POPC   C3A77081   9.840  26.645   6.872
 6163POPC   C4A77082   9.968  26.599   7.288
 6163POPC   C1B77083   9.287  26.897   6.195
 6163POPC   C2B77084   9.450  26.809   6.565
 6163POPC   C3B77085   9.426  26.988   6.933
 6163POPC   C4B77086   9.517  26.822   7.280
 6164POPC   NC377087  18.656  29.628   5.418
 6164POPC   PO477088  19.131  30.140   5.534
 6164POPC   GL177089  19.145  29.732   5.702
 6164POPC   GL277090  18.823  29.742   5.892
 6164POPC   C1A77091  19.300  29.756   6.128
 6164POPC   D2A77092  19.063  29.897   6.507
 6164POPC   C3A77093  19.189  30.226   6.781
 6164POPC   C4A77094  19.139  30.188   7.217
 6164POPC   C1B77095  18.844  29.484   6.271
 6164POPC   C2B77096  18.843  29.465   6.718
 6164POPC   C3B77097  19.028  29.719   7.055
 6164POPC   C4B77098  18.950  29.754   7.531
 6165POPC   NC377099  36.121   2.363   5.166
 6165POPC   PO477100  36.004   1.711   5.241
 6165POPC   GL177101  36.013   1.955   5.632
 6165POPC   GL277102  35.972   2.329   5.694
 6165POPC   C1A77103  35.952   1.983   6.084
 6165POPC   D2A77104  35.826   1.811   6.484
 6165POPC   C3A77105  36.027   1.957   6.857
 6165POPC   C4A77106  36.114   1.719   7.237
 6165POPC   C1B77107  36.245   2.408   6.078
 6165POPC   C2B77108  36.371   2.264   6.492
 6165POPC   C3B77109  36.484   2.399   6.885
 6165POPC   C4B77110  36.275   2.226   7.234
 6166POPC   NC377111  44.096  31.784   5.404
 6166POPC   PO477112  43.556  32.175   5.368
 6166POPC   GL177113  43.733  32.014   5.771
 6166POPC   GL277114  44.029  32.181   5.756
 6166POPC   C1A77115  43.695  32.204   6.185
 6166POPC   D2A77116  43.681  32.446   6.543
 6166POPC   C3A77117  43.698  32.135   6.860
 6166POPC   C4A77118  43.740  32.258   7.255
 6166POPC   C1B77119  44.195  32.066   6.153
 6166POPC   C2B77120  44.117  32.185   6.554
 6166POPC   C3B77121  44.204  32.239   6.991
 6166POPC   C4B77122  44.154  31.929   7.317
 6167POPC   NC377123  26.999  17.076   5.427
 6167POPC   PO477124  26.480  17.533   5.523
 6167POPC   GL177125  26.658  17.368   5.889
 6167POPC   GL277126  27.007  17.249   5.911
 6167POPC   C1A77127  26.731  17.455   6.314
 6167POPC   D2A77128  26.672  17.243   6.692
 6167POPC   C3A77129  26.487  17.488   7.011
 6167POPC   C4A77130  26.873  17.339   7.191
 6167POPC   C1B77131  27.256  17.492   6.196
 6167POPC   C2B77132  27.151  17.460   6.607
 6167POPC   C3B77133  27.002  17.718   6.878
 6167POPC   C4B77134  27.228  17.711   7.256
 6168POPC   NC377135  16.784  28.405   5.384
 6168POPC   PO477136  16.336  27.914   5.484
 6168POPC   GL177137  16.501  28.245   5.818
 6168POPC   GL277138  16.561  28.632   5.799
 6168POPC   C1A77139  16.773  28.326   6.217
 6168POPC   D2A77140  16.758  28.588   6.622
 6168POPC   C3A77141  16.816  28.389   7.037
 6168POPC   C4A77142  17.101  28.056   7.140
 6168POPC   C1B77143  16.344  28.612   6.187
 6168POPC   C2B77144  16.271  28.420   6.583
 6168POPC   C3B77145  16.342  28.583   6.972
 6168POPC   C4B77146  16.504  28.731   7.358
 6169POPC   NC377147   2.609  43.963   5.464
 6169POPC   PO477148   3.172  43.595   5.476
 6169POPC   GL177149   3.159  43.605   5.910
 6169POPC   GL277150   3.019  43.928   5.923
 6169POPC   C1A77151   3.109  43.646   6.354
 6169POPC   D2A77152   2.931  43.990   6.593
 6169POPC   C3A77153   2.944  43.873   7.007
 6169POPC   C4A77154   3.121  43.619   7.337
 6169POPC   C1B77155   2.657  43.817   6.208
 6169POPC   C2B77156   2.408  43.890   6.590
 6169POPC   C3B77157   2.415  43.806   7.013
 6169POPC   C4B77158   2.610  43.636   7.382
 6170POPC   NC377159  18.122  18.040   5.127
 6170POPC   PO477160  18.451  18.487   5.453
 6170POPC   GL177161  18.237  18.412   5.807
 6170POPC   GL277162  18.120  18.071   5.753
 6170POPC   C1A77163  18.433  18.439   6.230
 6170POPC   D2A77164  18.456  18.156   6.581
 6170POPC   C3A77165  18.382  18.348   6.978
 6170POPC   C4A77166  18.494  18.097   7.304
 6170POPC   C1B77167  18.037  18.122   6.185
 6170POPC   C2B77168  17.962  17.924   6.570
 6170POPC   C3B77169  18.062  17.960   6.962
 6170POPC   C4B77170  17.993  18.182   7.320
 6171POPC   NC377171   3.337  37.184   5.423
 6171POPC   PO477172   3.926  36.875   5.499
 6171POPC   GL177173   3.797  36.978   5.909
 6171POPC   GL277174   3.423  36.984   5.897
 6171POPC   C1A77175   3.820  37.027   6.376
 6171POPC   D2A77176   3.654  37.221   6.771
 6171POPC   C3A77177   3.616  36.914   7.111
 6171POPC   C4A77178   3.343  36.616   7.270
 6171POPC   C1B77179   3.487  36.662   6.213
 6171POPC   C2B77180   3.438  36.727   6.656
 6171POPC   C3B77181   3.148  36.963   6.904
 6171POPC   C4B77182   3.170  37.095   7.320
 6172POPC   NC377183  20.073  44.005   5.421
 6172POPC   PO477184  19.375  43.859   5.357
 6172POPC   GL177185  19.640  43.918   5.735
 6172POPC   GL277186  19.879  43.717   5.903
 6172POPC   C1A77187  19.565  44.069   6.169
 6172POPC   D2A77188  19.707  43.894   6.536
 6172POPC   C3A77189  19.595  43.922   6.957
 6172POPC   C4A77190  19.623  43.520   7.220
 6172POPC   C1B77191  20.087  44.087   6.130
 6172POPC   C2B77192  20.092  44.257   6.551
 6172POPC   C3B77193  20.083  44.003   6.908
 6172POPC   C4B77194  19.905  44.023   7.348
 6173POPC   NC377195   2.727   5.269   5.408
 6173POPC   PO477196   3.249   4.901   5.525
 6173POPC   GL177197   2.979   4.955   5.857
 6173POPC   GL277198   2.621   5.066   5.859
 6173POPC   C1A77199   2.812   4.817   6.272
 6173POPC   D2A77200   2.711   5.162   6.555
 6173POPC   C3A77201   2.850   5.232   6.975
 6173POPC   C4A77202   3.011   4.862   7.183
 6173POPC   C1B77203   2.357   5.088   6.211
 6173POPC   C2B77204   2.163   5.113   6.582
 6173POPC   C3B77205   2.327   5.238   6.919
 6173POPC   C4B77206   2.437   5.170   7.284
 6174POPC   NC377207   5.375  34.492   5.562
 6174POPC   PO477208   4.752  34.203   5.486
 6174POPC   GL177209   4.908  34.396   5.855
 6174POPC   GL277210   5.040  34.719   5.870
 6174POPC   C1A77211   5.095  34.416   6.276
 6174POPC   D2A77212   5.372  34.275   6.604
 6174POPC   C3A77213   5.160  34.268   6.993
 6174POPC   C4A77214   4.763  34.392   7.011
 6174POPC   C1B77215   4.918  34.913   6.216
 6174POPC   C2B77216   4.829  34.727   6.605
 6174POPC   C3B77217   5.128  34.786   6.938
 6174POPC   C4B77218   5.228  35.070   7.293
 6175POPC   NC377219   7.533  15.803   5.030
 6175POPC   PO477220   7.015  16.237   5.166
 6175POPC   GL177221   7.317  16.020   5.559
 6175POPC   GL277222   7.077  15.812   5.833
 6175POPC   C1A77223   7.475  16.048   6.029
 6175POPC   D2A77224   7.373  16.096   6.459
 6175POPC   C3A77225   7.634  16.068   6.836
 6175POPC   C4A77226   7.535  15.968   7.255
 6175POPC   C1B77227   7.087  15.684   6.299
 6175POPC   C2B77228   7.250  15.676   6.762
 6175POPC   C3B77229   7.067  15.773   7.173
 6175POPC   C4B77230   6.894  15.580   7.566
 6176POPC   NC377231  31.335   3.598   5.472
 6176POPC   PO477232  32.042   3.379   5.376
 6176POPC   GL177233  31.758   3.425   5.718
 6176POPC   GL277234  31.801   3.803   5.681
 6176POPC   C1A77235  31.475   3.336   6.100
 6176POPC   D2A77236  31.499   3.200   6.544
 6176POPC   C3A77237  31.494   3.548   6.807
 6176POPC   C4A77238  31.406   3.576   7.226
 6176POPC   C1B77239  31.831   3.734   6.128
 6176POPC   C2B77240  31.736   3.915   6.526
 6176POPC   C3B77241  31.868   3.919   6.959
 6176POPC   C4B77242  31.686   3.966   7.373
 6177POPC   NC377243  32.103  39.197   5.384
 6177POPC   PO477244  32.756  39.230   5.226
 6177POPC   GL177245  32.592  39.331   5.680
 6177POPC   GL277246  32.238  39.409   5.852
 6177POPC   C1A77247  32.557  39.118   6.121
 6177POPC   D2A77248  32.597  38.920   6.538
 6177POPC   C3A77249  32.421  39.044   6.911
 6177POPC   C4A77250  32.371  39.333   7.205
 6177POPC   C1B77251  32.008  39.435   6.300
 6177POPC   C2B77252  32.037  39.410   6.783
 6177POPC   C3B77253  31.816  39.184   7.133
 6177POPC   C4B77254  31.646  39.083   7.572
 6178POPC   NC377255  10.299  30.814   5.395
 6178POPC   PO477256  10.935  30.590   5.450
 6178POPC   GL177257  10.674  30.820   5.723
 6178POPC   GL277258  10.491  30.508   5.763
 6178POPC   C1A77259  10.385  30.884   6.090
 6178POPC   D2A77260  10.514  30.930   6.515
 6178POPC   C3A77261  10.593  30.662   6.844
 6178POPC   C4A77262  10.485  30.750   7.250
 6178POPC   C1B77263  10.783  30.550   6.135
 6178POPC   C2B77264  10.836  30.330   6.504
 6178POPC   C3B77265  10.738  30.170   6.914
 6178POPC   C4B77266  10.765  30.341   7.322
 6179POPC   NC377267  18.966   8.492   5.382
 6179POPC   PO477268  19.123   7.882   5.462
 6179POPC   GL177269  19.126   8.185   5.789
 6179POPC   GL277270  18.767   8.277   5.830
 6179POPC   C1A77271  19.125   8.109   6.222
 6179POPC   D2A77272  19.297   8.207   6.576
 6179POPC   C3A77273  19.141   8.035   6.905
 6179POPC   C4A77274  19.291   8.167   7.290
 6179POPC   C1B77275  18.805   8.487   6.238
 6179POPC   C2B77276  18.852   8.421   6.685
 6179POPC   C3B77277  19.099   8.544   7.019
 6179POPC   C4B77278  19.005   8.614   7.461
 6180POPC   NC377279  44.469  27.144   5.469
 6180POPC   PO477280   0.085  27.243   5.195
 6180POPC   GL177281  44.921  26.982   5.667
 6180POPC   GL277282  44.683  26.683   5.714
 6180POPC   C1A77283  44.597  26.998   6.088
 6180POPC   D2A77284  44.724  26.980   6.533
 6180POPC   C3A77285  44.473  26.953   6.918
 6180POPC   C4A77286  44.498  27.169   7.325
 6180POPC   C1B77287  44.923  26.618   6.123
 6180POPC   C2B77288  44.971  26.507   6.568
 6180POPC   C3B77289  44.948  26.775   6.958
 6180POPC   C4B77290  44.737  26.741   7.365
 6181POPC   NC377291  16.351  13.804   5.414
 6181POPC   PO477292  15.860  13.328   5.373
 6181POPC   GL177293  15.927  13.562   5.747
 6181POPC   GL277294  16.099  13.889   5.864
 6181POPC   C1A77295  15.779  13.485   6.166
 6181POPC   D2A77296  15.711  13.699   6.569
 6181POPC   C3A77297  15.746  13.434   6.913
 6181POPC   C4A77298  15.851  13.369   7.327
 6181POPC   C1B77299  16.153  13.805   6.318
 6181POPC   C2B77300  16.177  13.461   6.642
 6181POPC   C3B77301  16.307  13.434   7.098
 6181POPC   C4B77302  16.588  13.615   7.452
 6182POPC   NC377303  15.863   3.382   5.171
 6182POPC   PO477304  15.896   3.979   5.419
 6182POPC   GL177305  15.968   3.620   5.739
 6182POPC   GL277306  15.685   3.374   5.741
 6182POPC   C1A77307  16.134   3.744   6.175
 6182POPC   D2A77308  16.273   3.558   6.595
 6182POPC   C3A77309  16.084   3.712   7.000
 6182POPC   C4A77310  16.074   3.800   7.453
 6182POPC   C1B77311  15.568   3.267   6.203
 6182POPC   C2B77312  15.518   3.245   6.677
 6182POPC   C3B77313  15.698   3.357   7.117
 6182POPC   C4B77314  15.617   3.552   7.559
 6183POPC   NC377315  24.009  12.628   5.577
 6183POPC   PO477316  24.580  13.014   5.362
 6183POPC   GL177317  24.489  12.707   5.713
 6183POPC   GL277318  24.306  12.974   5.820
 6183POPC   C1A77319  24.404  12.501   6.149
 6183POPC   D2A77320  24.589  12.536   6.590
 6183POPC   C3A77321  24.538  12.343   7.017
 6183POPC   C4A77322  24.543  12.501   7.458
 6183POPC   C1B77323  24.130  12.936   6.233
 6183POPC   C2B77324  24.089  12.672   6.588
 6183POPC   C3B77325  24.278  12.766   6.942
 6183POPC   C4B77326  24.231  12.869   7.320
 6184POPC   NC377327   9.185  32.100   5.238
 6184POPC   PO477328   8.499  32.093   5.349
 6184POPC   GL177329   8.697  32.202   5.746
 6184POPC   GL277330   9.006  32.419   5.734
 6184POPC   C1A77331   8.757  32.262   6.191
 6184POPC   D2A77332   9.013  32.234   6.560
 6184POPC   C3A77333   8.882  32.136   7.000
 6184POPC   C4A77334   9.042  32.224   7.440
 6184POPC   C1B77335   9.121  32.636   6.146
 6184POPC   C2B77336   9.315  32.646   6.550
 6184POPC   C3B77337   9.264  32.479   6.953
 6184POPC   C4B77338   9.460  32.524   7.341
 6185POPC   NC377339  20.095   6.294   5.409
 6185POPC   PO477340  19.881   6.993   5.267
 6185POPC   GL177341  19.809   6.921   5.749
 6185POPC   GL277342  20.069   6.701   5.864
 6185POPC   C1A77343  19.729   6.795   6.225
 6185POPC   D2A77344  20.004   6.603   6.583
 6185POPC   C3A77345  19.972   6.813   6.958
 6185POPC   C4A77346  19.529   6.923   7.118
 6185POPC   C1B77347  20.015   6.335   6.166
 6185POPC   C2B77348  19.774   6.106   6.455
 6185POPC   C3B77349  19.763   6.218   6.863
 6185POPC   C4B77350  19.767   6.447   7.232
 6186POPC   NC377351  10.792  26.263   5.498
 6186POPC   PO477352  10.105  26.082   5.364
 6186POPC   GL177353  10.312  26.128   5.732
 6186POPC   GL277354  10.355  25.775   5.809
 6186POPC   C1A77355  10.522  26.267   6.110
 6186POPC   D2A77356  10.682  26.077   6.489
 6186POPC   C3A77357  10.624  26.221   6.915
 6186POPC   C4A77358  10.718  26.034   7.306
 6186POPC   C1B77359  10.287  25.804   6.243
 6186POPC   C2B77360  10.152  25.852   6.652
 6186POPC   C3B77361  10.279  25.818   7.062
 6186POPC   C4B77362  10.230  26.177   7.279
 6187POPC   NC377363  28.138  19.011   5.441
 6187POPC   PO477364  28.734  19.195   5.247
 6187POPC   GL177365  28.473  19.318   5.644
 6187POPC   GL277366  28.156  19.507   5.644
 6187POPC   C1A77367  28.411  19.056   6.045
 6187POPC   D2A77368  28.249  19.002   6.484
 6187POPC   C3A77369  28.589  19.003   6.788
 6187POPC   C4A77370  28.719  18.736   7.086
 6187POPC   C1B77371  28.131  19.468   6.108
 6187POPC   C2B77372  28.321  19.524   6.527
 6187POPC   C3B77373  28.211  19.319   6.917
 6187POPC   C4B77374  28.051  19.493   7.300
 6188POPC   NC377375  26.537  38.335   5.301
 6188POPC   PO477376  27.065  38.717   5.495
 6188POPC   GL177377  26.930  38.480   5.859
 6188POPC   GL277378  26.670  38.361   5.783
 6188POPC   C1A77379  26.901  38.269   6.220
 6188POPC   D2A77380  26.783  38.077   6.549
 6188POPC   C3A77381  26.961  38.261   6.903
 6188POPC   C4A77382  26.831  38.132   7.252
 6188POPC   C1B77383  26.517  38.597   6.162
 6188POPC   C2B77384  26.666  38.618   6.596
 6188POPC   C3B77385  26.582  38.693   7.043
 6188POPC   C4B77386  26.884  38.643   7.360
 6189POPC   NC377387   9.198  13.157   5.619
 6189POPC   PO477388   9.028  13.726   5.252
 6189POPC   GL177389   8.932  13.620   5.672
 6189POPC   GL277390   9.230  13.734   5.763
 6189POPC   C1A77391   8.828  13.692   6.150
 6189POPC   D2A77392   8.634  13.517   6.552
 6189POPC   C3A77393   8.790  13.623   6.962
 6189POPC   C4A77394   8.981  13.316   7.187
 6189POPC   C1B77395   9.320  13.529   6.135
 6189POPC   C2B77396   9.370  13.687   6.506
 6189POPC   C3B77397   9.277  13.550   6.862
 6189POPC   C4B77398   9.324  13.685   7.288
 6190POPC   NC377399  37.955   3.287   5.559
 6190POPC   PO477400  37.519   3.765   5.331
 6190POPC   GL177401  37.601   3.600   5.767
 6190POPC   GL277402  37.490   3.251   5.855
 6190POPC   C1A77403  37.841   3.467   6.177
 6190POPC   D2A77404  38.026   3.658   6.540
 6190POPC   C3A77405  37.827   3.520   6.910
 6190POPC   C4A77406  37.791   3.771   7.280
 6190POPC   C1B77407  37.328   3.582   6.184
 6190POPC   C2B77408  37.149   3.717   6.588
 6190POPC   C3B77409  37.307   3.648   7.039
 6190POPC   C4B77410  37.525   3.317   7.280
 6191POPC   NC377411  41.107   7.514   5.475
 6191POPC   PO477412  40.484   7.063   5.400
 6191POPC   GL177413  40.659   7.331   5.727
 6191POPC   GL277414  40.361   7.522   5.809
 6191POPC   C1A77415  40.781   7.547   6.131
 6191POPC   D2A77416  40.828   7.339   6.542
 6191POPC   C3A77417  40.798   7.512   6.965
 6191POPC   C4A77418  40.858   7.327   7.383
 6191POPC   C1B77419  40.351   7.287   6.240
 6191POPC   C2B77420  40.353   7.426   6.695
 6191POPC   C3B77421  40.370   7.302   7.138
 6191POPC   C4B77422  40.402   7.503   7.530
 6192POPC   NC377423  37.927  22.317   5.482
 6192POPC   PO477424  37.627  21.722   5.411
 6192POPC   GL177425  37.600  22.000   5.792
 6192POPC   GL277426  37.939  22.080   5.961
 6192POPC   C1A77427  37.490  22.130   6.228
 6192POPC   D2A77428  37.741  21.993   6.605
 6192POPC   C3A77429  37.531  21.916   7.007
 6192POPC   C4A77430  37.392  22.248   7.278
 6192POPC   C1B77431  37.881  22.466   6.246
 6192POPC   C2B77432  37.877  22.526   6.716
 6192POPC   C3B77433  37.902  22.244   7.090
 6192POPC   C4B77434  37.977  22.219   7.550
 6193POPC   NC377435  10.951  29.354   5.402
 6193POPC   PO477436  11.470  28.943   5.217
 6193POPC   GL177437  11.372  28.938   5.675
 6193POPC   GL277438  11.314  29.308   5.775
 6193POPC   C1A77439  11.603  28.955   6.077
 6193POPC   D2A77440  11.615  29.143   6.459
 6193POPC   C3A77441  11.365  28.990   6.794
 6193POPC   C4A77442  11.398  29.171   7.179
 6193POPC   C1B77443  11.094  29.201   6.172
 6193POPC   C2B77444  10.912  29.164   6.612
 6193POPC   C3B77445  11.002  29.440   6.966
 6193POPC   C4B77446  11.028  29.421   7.409
 6194POPC   NC377447  12.355  13.076   5.484
 6194POPC   PO477448  12.053  12.447   5.309
 6194POPC   GL177449  12.045  12.691   5.681
 6194POPC   GL277450  11.774  12.915   5.784
 6194POPC   C1A77451  12.122  12.710   6.117
 6194POPC   D2A77452  12.295  12.720   6.520
 6194POPC   C3A77453  12.050  12.690   6.880
 6194POPC   C4A77454  11.717  12.534   7.138
 6194POPC   C1B77455  11.955  13.188   6.166
 6194POPC   C2B77456  11.958  13.113   6.604
 6194POPC   C3B77457  11.816  13.135   7.038
 6194POPC   C4B77458  12.069  12.990   7.332
 6195POPC   NC377459  18.395  25.775   5.314
 6195POPC   PO477460  18.246  26.385   5.355
 6195POPC   GL177461  18.385  26.112   5.719
 6195POPC   GL277462  18.127  25.947   5.905
 6195POPC   C1A77463  18.500  26.209   6.186
 6195POPC   D2A77464  18.371  26.264   6.640
 6195POPC   C3A77465  18.559  25.968   6.959
 6195POPC   C4A77466  18.280  25.790   7.302
 6195POPC   C1B77467  17.947  26.135   6.328
 6195POPC   C2B77468  17.890  26.190   6.809
 6195POPC   C3B77469  17.935  26.257   7.280
 6195POPC   C4B77470  17.798  26.334   7.706
 6196POPC   NC377471  12.265  18.964   5.572
 6196POPC   PO477472  11.810  19.413   5.614
 6196POPC   GL177473  11.929  19.205   5.947
 6196POPC   GL277474  11.906  18.822   5.892
 6196POPC   C1A77475  12.068  19.333   6.350
 6196POPC   D2A77476  12.412  19.321   6.650
 6196POPC   C3A77477  12.282  19.425   7.065
 6196POPC   C4A77478  11.873  19.409   7.274
 6196POPC   C1B77479  12.045  18.843   6.304
 6196POPC   C2B77480  11.908  19.022   6.718
 6196POPC   C3B77481  11.957  18.924   7.133
 6196POPC   C4B77482  12.313  18.697   7.232
 6197POPC   NC377483  31.749   0.756   5.425
 6197POPC   PO477484  31.380   1.321   5.322
 6197POPC   GL177485  31.486   1.157   5.729
 6197POPC   GL277486  31.532   1.505   5.831
 6197POPC   C1A77487  31.288   1.013   6.137
 6197POPC   D2A77488  31.460   0.895   6.560
 6197POPC   C3A77489  31.273   1.044   6.967
 6197POPC   C4A77490  31.572   1.104   7.304
 6197POPC   C1B77491  31.618   1.386   6.210
 6197POPC   C2B77492  31.442   1.406   6.571
 6197POPC   C3B77493  31.640   1.410   6.911
 6197POPC   C4B77494  31.519   1.612   7.259
 6198POPC   NC377495  15.388  29.232   5.579
 6198POPC   PO477496  14.989  28.810   5.297
 6198POPC   GL177497  14.955  29.009   5.725
 6198POPC   GL277498  14.942  29.400   5.743
 6198POPC   C1A77499  15.194  28.974   6.140
 6198POPC   D2A77500  15.414  28.922   6.509
 6198POPC   C3A77501  15.101  28.830   6.814
 6198POPC   C4A77502  15.137  28.977   7.226
 6198POPC   C1B77503  14.891  29.380   6.172
 6198POPC   C2B77504  15.119  29.330   6.584
 6198POPC   C3B77505  14.917  29.388   6.997
 6198POPC   C4B77506  14.817  29.381   7.452
 6199POPC   NC377507  12.918  43.455   5.293
 6199POPC   PO477508  13.086  42.724   5.501
 6199POPC   GL177509  12.972  42.915   5.855
 6199POPC   GL277510  13.275  43.113   5.878
 6199POPC   C1A77511  12.677  42.898   6.197
 6199POPC   D2A77512  12.795  43.053   6.579
 6199POPC   C3A77513  12.572  43.006   6.914
 6199POPC   C4A77514  12.599  42.869   7.314
 6199POPC   C1B77515  13.250  42.978   6.312
 6199POPC   C2B77516  13.248  43.031   6.765
 6199POPC   C3B77517  13.081  42.917   7.158
 6199POPC   C4B77518  13.246  42.901   7.586
 6200POPC   NC377519   0.172  17.969   5.367
 6200POPC   PO477520   0.058  17.210   5.402
 6200POPC   GL177521   0.313  17.350   5.781
 6200POPC   GL277522   0.426  17.722   5.776
 6200POPC   C1A77523   0.456  17.216   6.195
 6200POPC   D2A77524   0.624  17.276   6.614
 6200POPC   C3A77525   0.425  17.400   6.997
 6200POPC   C4A77526   0.600  17.479   7.410
 6200POPC   C1B77527   0.562  17.719   6.225
 6200POPC   C2B77528   0.376  17.772   6.652
 6200POPC   C3B77529   0.539  17.901   7.058
 6200POPC   C4B77530   0.615  18.073   7.465
 6201POPC   NC377531  23.676  42.623   5.199
 6201POPC   PO477532  24.083  42.201   5.452
 6201POPC   GL177533  23.888  42.398   5.749
 6201POPC   GL277534  23.634  42.155   5.779
 6201POPC   C1A77535  24.040  42.582   6.152
 6201POPC   D2A77536  23.911  42.492   6.553
 6201POPC   C3A77537  24.014  42.454   6.957
 6201POPC   C4A77538  23.756  42.645   7.237
 6201POPC   C1B77539  23.538  42.486   6.109
 6201POPC   C2B77540  23.414  42.454   6.528
 6201POPC   C3B77541  23.506  42.313   6.940
 6201POPC   C4B77542  23.311  42.398   7.324
 6202POPC   NC377543  23.017  24.172   5.468
 6202POPC   PO477544  23.094  23.505   5.400
 6202POPC   GL177545  22.916  23.684   5.768
 6202POPC   GL277546  22.749  24.015   5.857
 6202POPC   C1A77547  23.087  23.739   6.178
 6202POPC   D2A77548  23.035  23.518   6.558
 6202POPC   C3A77549  23.167  23.714   6.931
 6202POPC   C4A77550  23.298  23.466   7.283
 6202POPC   C1B77551  22.738  24.097   6.304
 6202POPC   C2B77552  22.724  23.910   6.729
 6202POPC   C3B77553  22.818  24.077   7.130
 6202POPC   C4B77554  23.117  23.938   7.407
 6203POPC   NC377555   8.810  26.800   5.351
 6203POPC   PO477556   9.458  26.597   5.644
 6203POPC   GL177557   9.094  26.651   5.762
 6203POPC   GL277558   8.998  27.001   5.766
 6203POPC   C1A77559   8.969  26.467   6.125
 6203POPC   D2A77560   9.089  26.440   6.526
 6203POPC   C3A77561   8.973  26.769   6.797
 6203POPC   C4A77562   9.024  26.690   7.219
 6203POPC   C1B77563   8.829  27.165   6.121
 6203POPC   C2B77564   8.653  27.191   6.537
 6203POPC   C3B77565   8.732  27.359   6.925
 6203POPC   C4B77566   9.037  27.190   7.224
 6204POPC   NC377567  37.093  41.013   5.412
 6204POPC   PO477568  36.566  40.669   5.448
 6204POPC   GL177569  36.854  40.836   5.829
 6204POPC   GL277570  36.931  41.204   5.843
 6204POPC   C1A77571  36.974  40.878   6.281
 6204POPC   D2A77572  36.802  40.593   6.605
 6204POPC   C3A77573  36.806  40.738   6.997
 6204POPC   C4A77574  37.194  40.756   7.194
 6204POPC   C1B77575  36.635  41.224   6.165
 6204POPC   C2B77576  36.672  41.122   6.608
 6204POPC   C3B77577  36.827  41.261   6.982
 6204POPC   C4B77578  36.863  41.065   7.386
 6205POPC   NC377579   4.613   9.966   5.494
 6205POPC   PO477580   4.048   9.527   5.336
 6205POPC   GL177581   4.290   9.601   5.727
 6205POPC   GL277582   4.188   9.952   5.775
 6205POPC   C1A77583   4.348   9.600   6.209
 6205POPC   D2A77584   4.134   9.452   6.599
 6205POPC   C3A77585   4.180   9.691   6.981
 6205POPC   C4A77586   4.550   9.831   7.226
 6205POPC   C1B77587   4.350  10.113   6.174
 6205POPC   C2B77588   4.421   9.994   6.592
 6205POPC   C3B77589   4.309  10.193   6.942
 6205POPC   C4B77590   4.085  10.123   7.287
 6206POPC   NC377591  42.387   6.836   5.550
 6206POPC   PO477592  42.751   6.245   5.489
 6206POPC   GL177593  42.478   6.428   5.857
 6206POPC   GL277594  42.140   6.290   6.004
 6206POPC   C1A77595  42.529   6.773   6.177
 6206POPC   D2A77596  42.820   6.920   6.480
 6206POPC   C3A77597  42.649   6.901   6.882
 6206POPC   C4A77598  42.245   6.836   7.121
 6206POPC   C1B77599  42.022   6.690   6.212
 6206POPC   C2B77600  42.217   6.745   6.605
 6206POPC   C3B77601  42.194   6.371   6.863
 6206POPC   C4B77602  41.993   6.417   7.238
 6207POPC   NC377603  11.742  26.973   5.437
 6207POPC   PO477604  11.171  26.573   5.448
 6207POPC   GL177605  11.227  26.763   5.897
 6207POPC   GL277606  11.217  27.129   5.945
 6207POPC   C1A77607  11.259  26.806   6.379
 6207POPC   D2A77608  10.982  26.919   6.743
 6207POPC   C3A77609  10.970  26.610   7.024
 6207POPC   C4A77610  11.336  26.636   7.232
 6207POPC   C1B77611  11.618  27.129   6.198
 6207POPC   C2B77612  11.704  26.940   6.623
 6207POPC   C3B77613  11.532  27.050   7.018
 6207POPC   C4B77614  11.587  27.278   7.401
 6208POPC   NC377615  22.857  36.491   5.403
 6208POPC   PO477616  22.833  35.799   5.371
 6208POPC   GL177617  23.037  35.999   5.758
 6208POPC   GL277618  22.969  36.337   5.866
 6208POPC   C1A77619  23.013  35.992   6.240
 6208POPC   D2A77620  22.997  36.402   6.503
 6208POPC   C3A77621  23.150  36.370   6.927
 6208POPC   C4A77622  23.235  36.173   7.296
 6208POPC   C1B77623  22.627  36.327   6.140
 6208POPC   C2B77624  22.577  36.100   6.498
 6208POPC   C3B77625  22.669  36.159   6.889
 6208POPC   C4B77626  22.670  36.376   7.241
 6209POPC   NC377627  44.571  17.325   5.420
 6209POPC   PO477628  44.731  17.903   5.467
 6209POPC   GL177629  44.872  17.673   5.769
 6209POPC   GL277630  44.519  17.635   5.880
 6209POPC   C1A77631   0.073  17.595   6.170
 6209POPC   D2A77632   0.089  17.373   6.559
 6209POPC   C3A77633  44.930  17.596   6.940
 6209POPC   C4A77634  44.683  17.523   7.322
 6209POPC   C1B77635  44.217  17.834   6.196
 6209POPC   C2B77636  44.008  17.664   6.569
 6209POPC   C3B77637  44.271  17.633   6.942
 6209POPC   C4B77638  44.488  17.957   7.139
 6210POPC   NC377639  17.461  37.459   5.112
 6210POPC   PO477640  17.574  38.025   5.420
 6210POPC   GL177641  17.434  37.656   5.722
 6210POPC   GL277642  17.721  37.550   5.906
 6210POPC   C1A77643  17.319  37.710   6.196
 6210POPC   D2A77644  17.321  37.512   6.614
 6210POPC   C3A77645  17.377  37.688   7.046
 6210POPC   C4A77646  17.380  37.696   7.498
 6210POPC   C1B77647  17.804  37.554   6.340
 6210POPC   C2B77648  17.805  37.723   6.747
 6210POPC   C3B77649  17.846  37.492   7.128
 6210POPC   C4B77650  17.657  37.259   7.462
 6211POPC   NC377651  23.248   3.704   5.573
 6211POPC   PO477652  22.582   3.527   5.513
 6211POPC   GL177653  22.846   3.421   5.846
 6211POPC   GL277654  23.164   3.217   5.715
 6211POPC   C1A77655  22.775   3.602   6.261
 6211POPC   D2A77656  22.956   3.776   6.612
 6211POPC   C3A77657  22.750   3.707   7.001
 6211POPC   C4A77658  23.060   3.718   7.311
 6211POPC   C1B77659  23.225   3.366   6.163
 6211POPC   C2B77660  23.287   3.306   6.569
 6211POPC   C3B77661  23.079   3.321   6.925
 6211POPC   C4B77662  23.362   3.307   7.245
 6212POPC   NC377663  32.949  22.270   5.293
 6212POPC   PO477664  33.541  22.513   5.525
 6212POPC   GL177665  33.224  22.244   5.749
 6212POPC   GL277666  33.418  21.953   5.828
 6212POPC   C1A77667  32.886  22.244   6.122
 6212POPC   D2A77668  32.852  21.991   6.558
 6212POPC   C3A77669  32.766  22.215   6.967
 6212POPC   C4A77670  32.755  22.347   7.453
 6212POPC   C1B77671  33.296  21.966   6.230
 6212POPC   C2B77672  33.481  22.076   6.592
 6212POPC   C3B77673  33.265  21.987   6.935
 6212POPC   C4B77674  33.205  22.145   7.300
 6213POPC   NC377675  15.456  24.857   5.102
 6213POPC   PO477676  15.038  25.294   5.336
 6213POPC   GL177677  14.893  25.251   5.750
 6213POPC   GL277678  15.122  25.008   5.936
 6213POPC   C1A77679  15.031  25.480   6.122
 6213POPC   D2A77680  15.279  25.476   6.501
 6213POPC   C3A77681  15.070  25.344   6.873
 6213POPC   C4A77682  15.273  25.481   7.221
 6213POPC   C1B77683  15.390  24.984   6.312
 6213POPC   C2B77684  15.425  24.981   6.760
 6213POPC   C3B77685  15.242  24.906   7.173
 6213POPC   C4B77686  14.922  25.071   7.459
 6214POPC   NC377687  22.734   4.447   5.392
 6214POPC   PO477688  23.373   4.130   5.410
 6214POPC   GL177689  23.109   4.240   5.751
 6214POPC   GL277690  23.283   4.533   5.744
 6214POPC   C1A77691  22.857   4.118   6.144
 6214POPC   D2A77692  22.596   4.178   6.527
 6214POPC   C3A77693  22.855   4.201   6.919
 6214POPC   C4A77694  22.772   4.151   7.365
 6214POPC   C1B77695  23.011   4.605   6.110
 6214POPC   C2B77696  22.900   4.574   6.550
 6214POPC   C3B77697  22.791   4.714   6.971
 6214POPC   C4B77698  22.998   4.622   7.383
 6215POPC   NC377699   9.965   2.685   5.403
 6215POPC   PO477700   9.267   2.697   5.544
 6215POPC   GL177701   9.640   2.798   5.824
 6215POPC   GL277702   9.996   2.987   5.830
 6215POPC   C1A77703   9.745   2.649   6.239
 6215POPC   D2A77704   9.944   2.497   6.620
 6215POPC   C3A77705   9.743   2.616   7.023
 6215POPC   C4A77706   9.841   2.804   7.439
 6215POPC   C1B77707   9.884   3.144   6.227
 6215POPC   C2B77708   9.785   3.014   6.662
 6215POPC   C3B77709   9.665   3.172   7.082
 6215POPC   C4B77710   9.598   3.232   7.570
 6216POPC   NC377711   5.647   6.115   5.467
 6216POPC   PO477712   6.158   5.670   5.622
 6216POPC   GL177713   5.919   5.940   5.855
 6216POPC   GL277714   6.166   6.020   6.083
 6216POPC   C1A77715   5.667   6.147   6.161
 6216POPC   D2A77716   5.822   6.192   6.575
 6216POPC   C3A77717   5.644   6.193   6.957
 6216POPC   C4A77718   5.893   6.276   7.284
 6216POPC   C1B77719   5.903   5.726   6.335
 6216POPC   C2B77720   5.866   5.678   6.782
 6216POPC   C3B77721   5.892   5.779   7.207
 6216POPC   C4B77722   6.228   5.727   7.487
 6217POPC   NC377723   0.650  35.711   5.263
 6217POPC   PO477724   0.418  36.298   5.136
 6217POPC   GL177725   0.395  36.055   5.571
 6217POPC   GL277726   0.707  36.136   5.689
 6217POPC   C1A77727   0.391  35.982   6.069
 6217POPC   D2A77728   0.527  35.779   6.469
 6217POPC   C3A77729   0.462  35.996   6.858
 6217POPC   C4A77730   0.261  35.927   7.245
 6217POPC   C1B77731   0.786  36.340   6.089
 6217POPC   C2B77732   0.631  36.355   6.509
 6217POPC   C3B77733   0.814  36.356   6.926
 6217POPC   C4B77734   0.615  36.301   7.345
 6218POPC   NC377735  13.957  41.645   5.494
 6218POPC   PO477736  14.597  41.634   5.433
 6218POPC   GL177737  14.384  41.414   5.791
 6218POPC   GL277738  14.028  41.337   5.899
 6218POPC   C1A77739  14.490  41.519   6.220
 6218POPC   D2A77740  14.691  41.808   6.535
 6218POPC   C3A77741  14.611  41.636   6.944
 6218POPC   C4A77742  14.376  41.718   7.361
 6218POPC   C1B77743  14.029  41.299   6.348
 6218POPC   C2B77744  14.370  41.253   6.672
 6218POPC   C3B77745  14.359  41.251   7.132
 6218POPC   C4B77746  13.965  41.217   7.278
 6219POPC   NC377747  25.114  14.432   5.373
 6219POPC   PO477748  25.700  14.383   5.169
 6219POPC   GL177749  25.464  14.480   5.727
 6219POPC   GL277750  25.169  14.650   5.832
 6219POPC   C1A77751  25.302  14.195   6.082
 6219POPC   D2A77752  25.084  14.071   6.472
 6219POPC   C3A77753  25.257  14.286   6.807
 6219POPC   C4A77754  25.413  14.455   7.157
 6219POPC   C1B77755  24.991  14.571   6.210
 6219POPC   C2B77756  24.843  14.525   6.610
 6219POPC   C3B77757  24.955  14.640   7.021
 6219POPC   C4B77758  24.965  14.471   7.394
 6220POPC   NC377759  24.118  24.701   5.176
 6220POPC   PO477760  23.539  24.389   5.383
 6220POPC   GL177761  23.636  24.282   5.807
 6220POPC   GL277762  23.636  24.566   6.024
 6220POPC   C1A77763  23.695  24.134   6.250
 6220POPC   D2A77764  23.577  24.434   6.561
 6220POPC   C3A77765  23.871  24.494   6.879
 6220POPC   C4A77766  23.924  24.299   7.268
 6220POPC   C1B77767  23.362  24.791   6.238
 6220POPC   C2B77768  23.475  24.934   6.643
 6220POPC   C3B77769  23.442  24.757   7.032
 6220POPC   C4B77770  23.600  24.646   7.408
 6221POPC   NC377771  12.236   4.034   5.364
 6221POPC   PO477772  11.910   4.616   5.470
 6221POPC   GL177773  11.979   4.304   5.749
 6221POPC   GL277774  12.254   4.429   5.822
 6221POPC   C1A77775  12.032   4.119   6.179
 6221POPC   D2A77776  11.899   3.968   6.599
 6221POPC   C3A77777  12.098   4.155   6.933
 6221POPC   C4A77778  12.298   4.275   7.272
 6221POPC   C1B77779  12.040   4.623   6.185
 6221POPC   C2B77780  12.217   4.509   6.570
 6221POPC   C3B77781  12.442   4.619   6.925
 6221POPC   C4B77782  12.276   4.803   7.268
 6222POPC   NC377783  37.421  20.429   5.309
 6222POPC   PO477784  37.967  20.795   5.465
 6222POPC   GL177785  37.569  20.728   5.728
 6222POPC   GL277786  37.485  20.365   5.818
 6222POPC   C1A77787  37.476  20.736   6.175
 6222POPC   D2A77788  37.692  20.725   6.549
 6222POPC   C3A77789  37.416  20.648   6.895
 6222POPC   C4A77790  37.489  20.888   7.264
 6222POPC   C1B77791  37.834  20.384   6.155
 6222POPC   C2B77792  37.888  20.246   6.620
 6222POPC   C3B77793  37.881  20.458   6.998
 6222POPC   C4B77794  37.591  20.387   7.310
 6223POPC   NC377795   3.791  41.454   5.422
 6223POPC   PO477796   4.490  41.575   5.418
 6223POPC   GL177797   4.335  41.542   5.835
 6223POPC   GL277798   3.986  41.691   5.854
 6223POPC   C1A77799   4.559  41.436   6.240
 6223POPC   D2A77800   4.669  41.680   6.603
 6223POPC   C3A77801   4.460  41.680   7.002
 6223POPC   C4A77802   4.236  41.614   7.359
 6223POPC   C1B77803   4.050  41.469   6.264
 6223POPC   C2B77804   4.253  41.324   6.657
 6223POPC   C3B77805   4.090  41.237   7.059
 6223POPC   C4B77806   4.042  41.189   7.539
 6224POPC   NC377807  27.794  17.199   5.454
 6224POPC   PO477808  27.183  17.512   5.507
 6224POPC   GL177809  27.577  17.537   5.781
 6224POPC   GL277810  27.543  17.197   5.880
 6224POPC   C1A77811  27.799  17.494   6.200
 6224POPC   D2A77812  27.654  17.317   6.572
 6224POPC   C3A77813  27.867  17.547   6.908
 6224POPC   C4A77814  27.721  17.596   7.295
 6224POPC   C1B77815  27.364  17.002   6.222
 6224POPC   C2B77816  27.107  16.958   6.563
 6224POPC   C3B77817  27.251  17.018   6.993
 6224POPC   C4B77818  27.310  17.212   7.409
 6225POPC   NC377819  33.177  31.224   5.379
 6225POPC   PO477820  33.055  31.909   5.470
 6225POPC   GL177821  33.083  31.555   5.775
 6225POPC   GL277822  32.757  31.391   5.738
 6225POPC   C1A77823  33.091  31.573   6.229
 6225POPC   D2A77824  32.800  31.470   6.573
 6225POPC   C3A77825  33.022  31.450   6.938
 6225POPC   C4A77826  32.930  31.484   7.358
 6225POPC   C1B77827  32.772  31.184   6.145
 6225POPC   C2B77828  32.908  30.963   6.525
 6225POPC   C3B77829  33.161  30.966   6.908
 6225POPC   C4B77830  33.018  31.005   7.348
 6226POPC   NC377831  10.781  35.120   5.625
 6226POPC   PO477832  10.229  35.482   5.439
 6226POPC   GL177833  10.354  35.300   5.846
 6226POPC   GL277834  10.099  35.079   5.947
 6226POPC   C1A77835  10.650  35.398   6.211
 6226POPC   D2A77836  10.732  35.600   6.597
 6226POPC   C3A77837  10.675  35.398   6.982
 6226POPC   C4A77838  10.384  35.577   7.235
 6226POPC   C1B77839  10.348  35.017   6.354
 6226POPC   C2B77840  10.392  35.008   6.806
 6226POPC   C3B77841  10.367  35.050   7.239
 6226POPC   C4B77842  10.529  34.924   7.651
 6227POPC   NC377843  35.274  30.834   5.025
 6227POPC   PO477844  35.402  31.366   5.496
 6227POPC   GL177845  35.380  31.498   5.917
 6227POPC   GL277846  35.424  31.849   5.872
 6227POPC   C1A77847  35.371  31.300   6.350
 6227POPC   D2A77848  35.031  31.304   6.655
 6227POPC   C3A77849  35.126  31.521   6.999
 6227POPC   C4A77850  35.404  31.261   7.218
 6227POPC   C1B77851  35.608  31.756   6.306
 6227POPC   C2B77852  35.600  31.642   6.793
 6227POPC   C3B77853  35.499  31.772   7.278
 6227POPC   C4B77854  35.458  31.874   7.756
 6228POPC   NC377855   0.213   4.832   5.600
 6228POPC   PO477856   0.769   5.162   5.411
 6228POPC   GL177857   0.576   5.096   5.830
 6228POPC   GL277858   0.240   5.251   5.880
 6228POPC   C1A77859   0.429   4.958   6.244
 6228POPC   D2A77860   0.648   4.750   6.534
 6228POPC   C3A77861   0.556   4.768   6.970
 6228POPC   C4A77862   0.383   5.130   7.140
 6228POPC   C1B77863   0.308   5.453   6.237
 6228POPC   C2B77864   0.305   5.309   6.639
 6228POPC   C3B77865   0.242   5.587   6.963
 6228POPC   C4B77866   0.179   5.565   7.390
 6229POPC   NC377867  12.586  18.559   5.147
 6229POPC   PO477868  13.063  18.106   5.356
 6229POPC   GL177869  13.091  18.066   5.841
 6229POPC   GL277870  12.777  17.926   6.006
 6229POPC   C1A77871  13.118  18.168   6.305
 6229POPC   D2A77872  13.291  18.206   6.720
 6229POPC   C3A77873  13.019  18.140   7.075
 6229POPC   C4A77874  13.178  18.279   7.488
 6229POPC   C1B77875  12.622  18.289   6.283
 6229POPC   C2B77876  12.708  18.361   6.722
 6229POPC   C3B77877  12.456  18.225   7.092
 6229POPC   C4B77878  12.331  17.910   7.416
 6230POPC   NC377879  42.285  37.253   5.479
 6230POPC   PO477880  42.729  37.668   5.422
 6230POPC   GL177881  42.557  37.571   5.853
 6230POPC   GL277882  42.157  37.520   5.904
 6230POPC   C1A77883  42.631  37.660   6.324
 6230POPC   D2A77884  42.389  37.648   6.722
 6230POPC   C3A77885  42.479  37.860   7.137
 6230POPC   C4A77886  42.253  38.056   7.485
 6230POPC   C1B77887  41.897  37.275   6.240
 6230POPC   C2B77888  41.927  37.123   6.664
 6230POPC   C3B77889  41.954  37.469   6.937
 6230POPC   C4B77890  42.099  37.591   7.318
 6231POPC   NC377891  40.453  19.979   5.361
 6231POPC   PO477892  41.038  19.922   5.403
 6231POPC   GL177893  40.705  19.859   5.789
 6231POPC   GL277894  40.540  20.181   5.841
 6231POPC   C1A77895  40.481  19.600   6.136
 6231POPC   D2A77896  40.681  19.517   6.516
 6231POPC   C3A77897  40.590  19.542   6.957
 6231POPC   C4A77898  40.876  19.724   7.278
 6231POPC   C1B77899  40.663  20.045   6.264
 6231POPC   C2B77900  40.370  19.908   6.602
 6231POPC   C3B77901  40.410  20.090   6.986
 6231POPC   C4B77902  40.788  20.247   7.126
 6232W        W77903  35.893  43.587  12.050
 6233W        W77904  29.494  31.958  11.993
 6234W        W77905  20.648  43.374   1.821
 6235W        W77906   7.416  26.232  14.999
 6236W        W77907  32.977  31.594   4.786
 6237W        W77908  39.506  39.700   1.284
 6238W        W77909  21.208  35.592  14.812
 6239W        W77910  31.646   9.613  12.366
 6240W        W77911  36.475   1.403   0.360
 6241W        W77912  27.008  40.509  13.316
 6242W        W77913  29.635  26.433   0.912
 6243W        W77914   8.240   1.924  10.530
 6244W        W77915  43.911  38.602  13.274
 6245W        W77916   9.209  25.296   0.883
 6246W        W77917  15.107  33.956   3.505
 6247W        W77918  31.586  30.183  14.305
 6248W        W77919  28.082   7.605  12.415
 6249W        W77920  37.850  24.040  11.092
 6250W        W77921  29.089  17.651   0.827
 6251W        W77922  15.191  32.681   4.072
 6252W        W77923  24.555  14.205   3.230
 6253W        W77924  27.686   8.308  13.601
 6254W        W77925  32.932   5.807  11.115
 6255W        W77926  25.582  30.979   4.276
 6256W        W77927  15.299  23.551  10.842
 6257W        W77928  26.466  17.363  10.575
 6258W        W77929  20.953  37.496   4.492
 6259W        W77930   4.311  40.120   3.854
 6260W        W77931   2.917  22.053  14.374
 6261W        W77932  25.186  28.897  12.920
 6262W        W77933   9.045   6.953   3.235
 6263W        W77934   2.715  34.089  11.102
 6264W        W77935  16.202  13.641  12.941
 6265W        W77936  15.987  25.550  11.440
 6266W        W77937   1.724  37.077   1.910
 6267W        W77938  41.610   4.007   0.900
 6268W        W77939  26.624   8.442  14.315
 6269W        W77940  40.179  21.230  12.742
 6270W        W77941  12.801  10.682  12.453
 6271W        W77942  35.941  10.730   0.808
 6272W        W77943  15.542  24.023  10.693
 6273W        W77944  27.211  38.820   4.365
 6274W        W77945  29.948  33.078   0.451
 6275W        W77946  18.490  14.747  14.298
 6276W        W77947  32.602  30.232   4.139
 6277W        W77948  31.825   6.169   0.427
 6278W        W77949  13.598   8.660  11.140
 6279W        W77950  25.109  40.169  12.447
 6280W        W77951   6.631  11.628   1.388
 6281W        W77952   6.636  33.535  12.185
 6282W        W77953  27.633  20.230  11.181
 6283W        W77954  16.422  40.573   3.775
 6284W        W77955  15.714  40.005   3.053
 6285W        W77956   8.438  14.308  14.870
 6286W        W77957  25.100  35.868   1.479
 6287W        W77958  30.449   9.293   2.349
 6288W        W77959   5.620  25.021   2.911
 6289W        W77960  40.795   2.321   2.374
 6290W        W77961  32.982  41.562  10.691
 6291W        W77962  41.755  18.995  12.840
 6292W        W77963  18.157  13.379  14.845
 6293W        W77964   3.500  19.937   2.676
 6294W        W77965   6.572  22.732   4.170
 6295W        W77966  19.305  13.579  14.448
 6296W        W77967  18.296  35.895   1.786
 6297W        W77968  22.262  22.948   1.834
 6298W        W77969  38.569   3.742  10.673
 6299W        W77970   0.284   1.858   0.929
 6300W        W77971  43.057  23.478  14.392
 6301W        W77972  31.118  22.598   4.908
 6302W        W77973  18.343   5.237  14.910
 6303W        W77974  43.398  24.758   4.382
 6304W        W77975  13.953   8.735   0.798
 6305W        W77976   9.481   6.602   9.990
 6306W        W77977   6.277  29.175   4.603
 6307W        W77978   4.011  34.068   2.872
 6308W        W77979  17.387  22.301  14.109
 6309W        W77980  28.078   3.904  14.998
 6310W        W77981  13.629  14.130   4.335
 6311W        W77982  37.584  23.739   1.747
 6312W        W77983  10.018  39.779  12.625
 6313W        W77984  37.508  14.142   4.639
 6314W        W77985   6.529  27.320   1.755
 6315W        W77986   6.330   4.198   4.085
 6316W        W77987   3.466  42.338   3.611
 6317W        W77988  24.786  13.950   2.236
 6318W        W77989  11.555  22.567  14.640
 6319W        W77990  16.825   7.247  13.915
 6320W        W77991  24.645  17.228   1.448
 6321W        W77992  42.335   6.951   0.277
 6322W        W77993   0.951  26.590   1.531
 6323W        W77994  16.194  29.245   0.491
 6324W        W77995  31.498  38.269   3.335
 6325W        W77996  18.858  43.713  11.888
 6326W        W77997  43.973  33.112   3.605
 6327W        W77998  27.360  34.750  14.015
 6328W        W77999  10.301  25.176  10.729
 6329W        W78000  25.174  11.769  10.764
 6330W        W78001  24.323  27.621   4.534
 6331W        W78002  27.771  32.493  10.924
 6332W        W78003  29.198   1.201   3.734
 6333W        W78004   3.331   6.212  10.653
 6334W        W78005  39.119  32.226   3.767
 6335W        W78006  20.301  38.492  14.821
 6336W        W78007   2.381   6.401  14.906
 6337W        W78008  18.023  14.040  13.392
 6338W        W78009  16.769  13.765  12.924
 6339W        W78010  44.029  34.318   2.898
 6340W        W78011  14.096  14.893   2.688
 6341W        W78012  43.935  31.354  11.209
 6342W        W78013   7.985  42.835  10.757
 6343W        W78014  26.031   1.122  13.783
 6344W        W78015   1.737  17.945   0.934
 6345W        W78016  12.710  13.313  12.855
 6346W        W78017   4.734  41.988  10.585
 6347W        W78018  21.762  38.808  12.883
 6348W        W78019  43.677  32.733  11.570
 6349W        W78020   5.044  19.775   4.053
 6350W        W78021  40.003   5.104   1.807
 6351W        W78022  31.213  44.457  10.969
 6352W        W78023  37.956   7.046  10.554
 6353W        W78024   6.960  20.195  12.579
 6354W        W78025   8.428  30.037   2.236
 6355W        W78026  42.914  13.256   5.028
 6356W        W78027  26.933  31.598   0.544
 6357W        W78028  44.743  11.753  14.091
 6358W        W78029  41.802  41.383   3.756
 6359W        W78030  25.668  18.141  14.952
 6360W        W78031  21.056  43.170  14.520
 6361W        W78032   3.177   5.882  14.015
 6362W        W78033   7.459  13.419   4.983
 6363W        W78034  33.194   3.478  10.205
 6364W        W78035  29.141  17.763  12.135
 6365W        W78036   3.643  29.844  12.912
 6366W        W78037  42.764   4.193  13.327
 6367W        W78038  26.845  21.492  11.103
 6368W        W78039  15.168  38.082  10.769
 6369W        W78040  34.344  11.842   3.426
 6370W        W78041  14.755  27.959  14.272
 6371W        W78042   0.617  31.097   1.485
 6372W        W78043  41.420  27.541   3.546
 6373W        W78044  37.370   6.807   2.430
 6374W        W78045  26.893  43.710   1.437
 6375W        W78046  34.257  40.995   3.331
 6376W        W78047  26.689   7.278   1.341
 6377W        W78048  21.677  27.680   4.346
 6378W        W78049   2.153  16.358  11.329
 6379W        W78050  44.325   3.844   4.639
 6380W        W78051  15.996  26.722  14.845
 6381W        W78052  14.224  33.847   1.147
 6382W        W78053  25.502   1.847   1.465
 6383W        W78054  29.002  43.892   2.253
 6384W        W78055  30.588   6.502   0.064
 6385W        W78056  37.853   0.262  10.728
 6386W        W78057  37.738  20.602  12.685
 6387W        W78058  22.953   8.278   0.470
 6388W        W78059  38.650   4.420   0.373
 6389W        W78060  40.547  30.045  10.632
 6390W        W78061  21.492  38.939   5.003
 6391W        W78062   1.577   2.694  11.151
 6392W        W78063  28.773  31.647   2.230
 6393W        W78064  23.634  24.204  12.429
 6394W        W78065  16.698   9.689  14.417
 6395W        W78066  20.511  31.165   1.641
 6396W        W78067  32.487  17.877  11.705
 6397W        W78068   2.853  17.122   0.559
 6398W        W78069  34.796  26.049   3.185
 6399W        W78070  34.986  21.995   4.573
 6400W        W78071  23.617   4.599   0.282
 6401W        W78072   1.904  44.849  11.393
 6402W        W78073  16.941   9.192   3.409
 6403W        W78074  22.477  35.602  11.230
 6404W        W78075  27.963  44.551   4.935
 6405W        W78076   4.219  24.442  13.042
 6406W        W78077  11.059  18.714   2.076
 6407W        W78078   8.240  35.005  14.254
 6408W        W78079   6.350  20.239  14.828
 6409W        W78080  33.656   9.473  14.393
 6410W        W78081  27.157   7.212  14.368
 6411W        W78082   5.402  11.446  10.204
 6412W        W78083  25.054  43.379  12.920
 6413W        W78084  18.314   8.284   3.288
 6414W        W78085   5.376  17.508  11.506
 6415W        W78086  25.526  28.594   3.750
 6416W        W78087  34.938   1.877  14.937
 6417W        W78088  35.828  17.329  11.269
 6418W        W78089  43.847  21.280   5.613
 6419W        W78090  38.840  17.222   0.388
 6420W        W78091  28.511  33.610   0.797
 6421W        W78092  18.305  29.444  11.992
 6422W        W78093  30.626  22.162   3.247
 6423W        W78094  11.196  16.262   0.561
 6424W        W78095  31.370   9.605  11.041
 6425W        W78096  34.963  13.883   1.792
 6426W        W78097   2.799  39.039   0.444
 6427W        W78098   4.749  30.138   2.783
 6428W        W78099  40.363  13.194  13.023
 6429W        W78100  22.638  13.561   4.706
 6430W        W78101  16.590  23.247   1.199
 6431W        W78102  14.726  16.623  14.545
 6432W        W78103  44.382  43.823   3.281
 6433W        W78104  40.416  22.118   3.901
 6434W        W78105  31.950  25.992   1.793
 6435W        W78106  43.925  37.014   0.074
 6436W        W78107  33.498  33.697  13.911
 6437W        W78108   2.685   7.031  14.342
 6438W        W78109  37.629  20.846   4.178
 6439W        W78110  28.934  19.199  12.999
 6440W        W78111  23.505  38.842   5.026
 6441W        W78112  36.992  41.570  11.562
 6442W        W78113  29.749  33.517   3.028
 6443W        W78114  15.247   8.413   4.531
 6444W        W78115  41.482  32.074   3.785
 6445W        W78116  41.774  33.990   1.345
 6446W        W78117  25.533   8.763   3.103
 6447W        W78118   2.755  13.593   0.313
 6448W        W78119  23.155   9.359   4.942
 6449W        W78120  17.470  11.913  10.225
 6450W        W78121  38.822  33.649  11.693
 6451W        W78122  24.781  25.188  13.351
 6452W        W78123   7.643  29.030  11.219
 6453W        W78124   0.905  11.397   4.129
 6454W        W78125  37.308  40.818   4.191
 6455W        W78126  42.881   5.436  11.655
 6456W        W78127  23.261  13.790   2.392
 6457W        W78128  34.067  31.747  14.121
 6458W        W78129  22.007  39.143  12.581
 6459W        W78130  38.969  25.717  14.024
 6460W        W78131   3.726   1.038   2.716
 6461W        W78132  40.039   3.971   3.900
 6462W        W78133  14.327  32.106   4.858
 6463W        W78134  36.381  44.984   3.300
 6464W        W78135  44.486  28.628   0.016
 6465W        W78136  12.960  36.163   4.164
 6466W        W78137  13.427   1.462  14.479
 6467W        W78138   9.200  39.064  14.426
 6468W        W78139   7.938  41.796  11.506
 6469W        W78140  26.362  10.355  12.929
 6470W        W78141  39.968  43.747   4.747
 6471W        W78142  25.736  40.781  13.604
 6472W        W78143   6.169  28.376  10.995
 6473W        W78144   4.514  44.906  11.074
 6474W        W78145  31.396  27.991  12.398
 6475W        W78146  19.564  11.342  14.233
 6476W        W78147  10.390  39.937   4.154
 6477W        W78148  10.108  36.949  13.968
 6478W        W78149  36.675  18.357   3.926
 6479W        W78150   2.305  40.695   4.189
 6480W        W78151  35.015  41.617   1.782
 6481W        W78152  10.309   8.661  13.352
 6482W        W78153  24.331   5.755  10.292
 6483W        W78154  37.021   5.615  11.063
 6484W        W78155   2.143  38.437  12.158
 6485W        W78156  15.344  38.466   3.921
 6486W        W78157   9.569  38.393   1.356
 6487W        W78158   5.375  21.155   3.321
 6488W        W78159   2.806  33.789  14.927
 6489W        W78160  31.473  28.002   3.057
 6490W        W78161   7.296   2.256  12.861
 6491W        W78162  16.845  15.299   0.943
 6492W        W78163  11.667   7.134  14.086
 6493W        W78164  12.392   5.200  11.522
 6494W        W78165   4.208  41.905   1.431
 6495W        W78166  10.123  16.073   0.641
 6496W        W78167  12.160  41.241   3.690
 6497W        W78168  13.051  26.008  10.754
 6498W        W78169  31.024  42.919  12.955
 6499W        W78170  32.509  44.721  12.817
 6500W        W78171   5.650  19.827  11.722
 6501W        W78172  27.691  20.004   3.616
 6502W        W78173  30.053  18.014   1.812
 6503W        W78174  28.592  38.295  14.102
 6504W        W78175  20.792  23.209   3.156
 6505W        W78176  35.779   3.853  14.310
 6506W        W78177  43.825  11.437  10.600
 6507W        W78178  29.696  38.293   0.312
 6508W        W78179   5.147  20.995  10.617
 6509W        W78180  36.153  33.560   2.712
 6510W        W78181  22.074  20.593  10.864
 6511W        W78182  32.621  14.846   3.907
 6512W        W78183   1.769  14.255   3.091
 6513W        W78184  43.910  15.456  12.203
 6514W        W78185   1.233  15.218  12.849
 6515W        W78186  12.627  20.652   1.662
 6516W        W78187  12.694  11.597   4.520
 6517W        W78188  23.200  18.744  10.863
 6518W        W78189  14.305  26.918   2.915
 6519W        W78190   0.041   4.961  12.021
 6520W        W78191   7.915  14.247   1.850
 6521W        W78192  34.203  17.212  13.725
 6522W        W78193  28.095  11.293  10.916
 6523W        W78194   7.744  38.246  12.857
 6524W        W78195  30.061  24.639  10.732
 6525W        W78196  30.657  43.423   0.443
 6526W        W78197   8.464   1.961  13.413
 6527W        W78198   2.946  28.236  10.912
 6528W        W78199  44.436  10.260   1.273
 6529W        W78200   9.302  32.140  14.083
 6530W        W78201  11.218  15.318   0.372
 6531W        W78202  32.245  19.549   3.793
 6532W        W78203   9.683   3.322  10.732
 6533W        W78204   7.341  31.923   4.215
 6534W        W78205  12.685  10.317  10.449
 6535W        W78206  31.452  12.157  14.847
 6536W        W78207  27.041  17.314  13.505
 6537W        W78208  27.138  24.436  14.579
 6538W        W78209  39.261  25.311   2.722
 6539W        W78210  33.399  10.802   3.767
 6540W        W78211  34.490  35.585   3.688
 6541W        W78212   8.842  38.092  12.052
 6542W        W78213  10.962  22.432  10.385
 6543W        W78214   1.240  44.270  14.875
 6544W        W78215  12.720  15.132   3.814
 6545W        W78216  40.338  26.400   2.672
 6546W        W78217  38.180  24.647  12.116
 6547W        W78218  32.282  29.978  13.339
 6548W        W78219  21.977  36.838   0.322
 6549W        W78220   7.646   0.208  10.503
 6550W        W78221  20.083  26.005  12.836
 6551W        W78222  44.893  30.890  14.829
 6552W        W78223  34.530   4.692  14.794
 6553W        W78224  28.703  42.899  12.583
 6554W        W78225  38.803  34.113  13.545
 6555W        W78226  25.654   7.395   4.551
 6556W        W78227  16.235  31.049  10.657
 6557W        W78228  10.881  17.924  10.589
 6558W        W78229   7.325   0.395   4.426
 6559W        W78230   7.261  37.273   2.838
 6560W        W78231  10.549  11.294  14.833
 6561W        W78232  26.542  13.166   1.533
 6562W        W78233   1.760  25.492   2.413
 6563W        W78234  36.074  31.064  14.675
 6564W        W78235  29.116  44.268   1.891
 6565W        W78236   0.634  42.837   2.196
 6566W        W78237  31.497  18.985   2.217
 6567W        W78238  40.821  37.099   2.366
 6568W        W78239   9.226   6.564  11.915
 6569W        W78240  31.590  16.690   4.062
 6570W        W78241  16.235   4.861   1.492
 6571W        W78242  15.212  22.778   3.269
 6572W        W78243  32.055  18.136  14.824
 6573W        W78244   9.797   6.585   1.860
 6574W        W78245  15.140   4.908  13.789
 6575W        W78246  30.410  34.985  14.764
 6576W        W78247  13.843  19.369  12.396
 6577W        W78248  32.582   3.549  12.335
 6578W        W78249   0.729  22.432  14.995
 6579W        W78250  42.553  27.847   0.826
 6580W        W78251  14.711   5.501   4.980
 6581W        W78252   9.744  28.017  11.011
 6582W        W78253  31.393  12.603  12.085
 6583W        W78254   2.909  23.353   0.463
 6584W        W78255   8.146  29.850  11.158
 6585W        W78256  15.326  44.866  11.718
 6586W        W78257  21.096  14.216   4.525
 6587W        W78258   2.989   6.959  12.706
 6588W        W78259  21.753  15.999  14.836
 6589W        W78260  32.436   5.310   1.737
 6590W        W78261  34.336  23.157   1.331
 6591W        W78262  40.889  32.996  11.026
 6592W        W78263  33.208  37.508   4.544
 6593W        W78264  25.590  20.657  11.546
 6594W        W78265  33.021  43.994   0.615
 6595W        W78266  37.941  30.942   1.990
 6596W        W78267  44.414  25.002  12.508
 6597W        W78268  43.802   1.285  11.176
 6598W        W78269  20.283   4.981   3.577
 6599W        W78270  24.104  29.387   4.254
 6600W        W78271  12.346   3.751  13.619
 6601W        W78272  43.265  23.115  11.884
 6602W        W78273   9.306  23.309  10.566
 6603W        W78274  13.212   4.706  10.783
 6604W        W78275  27.470   4.069  12.867
 6605W        W78276  41.830  11.580  11.250
 6606W        W78277  16.086  27.932   4.231
 6607W        W78278  28.134  14.139  11.078
 6608W        W78279  15.826  24.726  11.683
 6609W        W78280  18.116   2.824  12.458
 6610W        W78281  17.727  23.767  11.508
 6611W        W78282  25.603  42.377   0.426
 6612W        W78283  42.474  40.537  10.930
 6613W        W78284  15.159  43.487  13.872
 6614W        W78285   7.263  12.774   0.983
 6615W        W78286  37.569  41.006  14.046
 6616W        W78287  28.981  21.296   4.211
 6617W        W78288   7.584  32.869   0.799
 6618W        W78289   6.614  19.250   1.862
 6619W        W78290  35.552  13.143  12.426
 6620W        W78291  32.132   0.605  14.336
 6621W        W78292   8.084  20.043   3.266
 6622W        W78293  39.018  20.547  11.483
 6623W        W78294  31.111  19.202   0.466
 6624W        W78295  40.399   7.822   2.850
 6625W        W78296  44.066  16.849  11.105
 6626W        W78297  40.757  25.830  14.299
 6627W        W78298  22.089  14.831  11.658
 6628W        W78299  28.045  12.137  11.433
 6629W        W78300   1.081  30.212  13.534
 6630W        W78301  23.100  16.968   0.511
 6631W        W78302  34.498  12.556  11.381
 6632W        W78303  21.757   6.022  10.785
 6633W        W78304   4.868  20.064   0.523
 6634W        W78305   5.825   8.898   3.367
 6635W        W78306  32.011   2.813   2.158
 6636W        W78307  25.541  11.288  12.477
 6637W        W78308  42.678  17.794  13.065
 6638W        W78309  12.029  25.544  14.317
 6639W        W78310   9.777  16.511   2.166
 6640W        W78311   7.270  29.259  14.832
 6641W        W78312  18.174  39.034   3.327
 6642W        W78313   3.781  41.513  14.257
 6643W        W78314  26.757  24.050  14.772
 6644W        W78315  28.176   7.214   1.387
 6645W        W78316  44.073  18.688  14.921
 6646W        W78317  25.305  43.240   1.724
 6647W        W78318  34.988  12.959   1.455
 6648W        W78319  42.124  15.839  11.020
 6649W        W78320   3.050   7.187  14.893
 6650W        W78321  18.540  33.859  13.930
 6651W        W78322  29.151   3.725   4.673
 6652W        W78323   3.276  18.786  14.172
 6653W        W78324  44.236   6.424   3.552
 6654W        W78325   7.627   7.509  14.018
 6655W        W78326  13.722  44.258   1.220
 6656W        W78327  20.061  34.823   1.704
 6657W        W78328  15.012   3.400   3.470
 6658W        W78329  20.624  21.384   0.905
 6659W        W78330  28.415  21.698  13.214
 6660W        W78331  10.997  36.365  10.542
 6661W        W78332  44.793  26.984   0.516
 6662W        W78333  44.978  13.123   4.236
 6663W        W78334   4.358  30.100   3.323
 6664W        W78335  21.611  41.946  14.340
 6665W        W78336  12.655   0.270  11.220
 6666W        W78337   8.174  14.652  11.566
 6667W        W78338  36.781  41.903  13.010
 6668W        W78339  17.682  43.572   0.002
 6669W        W78340  13.666   0.682  13.359
 6670W        W78341  28.645  26.199   3.119
 6671W        W78342  24.074   2.136  12.080
 6672W        W78343  28.661  26.580   1.862
 6673W        W78344   1.542  29.005  13.961
 6674W        W78345   7.701   7.858   0.830
 6675W        W78346  21.221  12.683  10.660
 6676W        W78347  36.486  20.765   3.738
 6677W        W78348  38.374  32.085  12.089
 6678W        W78349  17.474  44.458   5.270
 6679W        W78350   3.856  25.312   4.119
 6680W        W78351  20.523  16.240   3.868
 6681W        W78352  35.389  31.059   1.804
 6682W        W78353  10.129  44.011  12.452
 6683W        W78354  22.198   8.583   0.853
 6684W        W78355  36.770   6.457   0.943
 6685W        W78356  29.902   1.541  10.920
 6686W        W78357  28.888  11.601   0.134
 6687W        W78358  21.610   0.769   1.265
 6688W        W78359  29.958  18.841  11.555
 6689W        W78360  11.138  20.139  13.960
 6690W        W78361  25.579  36.130   3.186
 6691W        W78362  10.465  29.479   2.816
 6692W        W78363   8.868   0.451   4.764
 6693W        W78364   3.236  34.903  13.307
 6694W        W78365  36.042  41.407  12.541
 6695W        W78366   4.762  10.142   4.572
 6696W        W78367  20.781   3.762   1.883
 6697W        W78368   5.205  30.094   2.509
 6698W        W78369  20.147  30.691  14.867
 6699W        W78370   4.150  41.517   2.245
 6700W        W78371  36.143  19.086  14.816
 6701W        W78372  38.344  18.962   0.929
 6702W        W78373  35.655  29.658  13.935
 6703W        W78374   7.326  26.943  14.287
 6704W        W78375  29.835  14.388  13.879
 6705W        W78376  31.543   1.423   1.219
 6706W        W78377  14.280  41.670  14.780
 6707W        W78378  22.593  14.359  11.191
 6708W        W78379  31.244  20.708  11.249
 6709W        W78380   0.234   4.411  13.254
 6710W        W78381  11.899  38.644  14.990
 6711W        W78382  19.397  37.982  12.911
 6712W        W78383  34.032  22.613   3.274
 6713W        W78384   8.932  29.603   2.674
 6714W        W78385  32.307  38.217   0.946
 6715W        W78386  38.576  35.433  10.525
 6716W        W78387   4.906  39.536  11.575
 6717W        W78388  30.215  26.349  11.128
 6718W        W78389  23.035  21.105  13.898
 6719W        W78390  34.453  43.888   4.927
 6720W        W78391   2.734  13.150   1.981
 6721W        W78392  15.821  41.371  13.348
 6722W        W78393  37.593   7.834   2.437
 6723W        W78394  37.116  38.075  14.891
 6724W        W78395  20.785   1.188   4.465
 6725W        W78396  11.084  24.124   0.847
 6726W        W78397  22.703   5.463  12.029
 6727W        W78398  42.984   5.770  13.461
 6728W        W78399  35.945  30.102   3.228
 6729W        W78400   2.965   9.341  14.399
 6730W        W78401  15.671  16.246  12.133
 6731W        W78402  20.492  27.080  10.930
 6732W        W78403  27.040   7.697   3.327
 6733W        W78404  34.901  14.356  12.673
 6734W        W78405  33.353  28.955   0.801
 6735W        W78406  21.394  12.083   0.221
 6736W        W78407  34.143  32.113  13.766
 6737W        W78408  28.164  42.600  14.852
 6738W        W78409  17.587  12.277  10.847
 6739W        W78410   2.017  42.979  13.100
 6740W        W78411  13.437  19.459  14.535
 6741W        W78412  40.377  29.393   0.539
 6742W        W78413  24.009   6.881   0.104
 6743W        W78414   1.414  31.510   0.536
 6744W        W78415  37.385  43.768   0.388
 6745W        W78416  29.136  22.074   2.266
 6746W        W78417  32.132   9.463   1.532
 6747W        W78418  42.616  35.852   4.149
 6748W        W78419  16.777  23.440  11.646
 6749W        W78420  23.094  39.011  11.069
 6750W        W78421   9.408   1.461  13.622
 6751W        W78422  11.304  30.619  12.018
 6752W        W78423  43.215  21.656  14.004
 6753W        W78424   0.322  44.930   4.740
 6754W        W78425  18.710  25.740   3.814
 6755W        W78426  28.107   2.199   3.704
 6756W        W78427  25.561  24.040  14.332
 6757W        W78428  20.542  42.244  11.333
 6758W        W78429  12.910  33.012   4.200
 6759W        W78430   7.442  16.638   2.919
 6760W        W78431  37.984  31.291   3.834
 6761W        W78432  31.230  37.012   1.470
 6762W        W78433  15.182  34.692  11.938
 6763W        W78434  20.608  16.589   2.341
 6764W        W78435  23.114  18.682  13.820
 6765W        W78436  42.807   0.791  14.488
 6766W        W78437   7.310  35.314  13.951
 6767W        W78438  12.258  30.764   2.704
 6768W        W78439  23.141  29.467   2.195
 6769W        W78440  44.522  11.883   4.553
 6770W        W78441  44.030  24.169  11.038
 6771W        W78442   0.024   1.563  12.993
 6772W        W78443  17.552  44.118  10.804
 6773W        W78444  19.701  33.172   1.388
 6774W        W78445  13.893   9.301   1.470
 6775W        W78446  44.313  42.257  10.208
 6776W        W78447  16.786  17.783   4.181
 6777W        W78448  23.473  11.134   3.690
 6778W        W78449  43.506  40.512   3.799
 6779W        W78450  30.874  42.825   4.663
 6780W        W78451  27.965  42.529  12.109
 6781W        W78452  11.318  43.287  11.463
 6782W        W78453  23.465  17.347   2.129
 6783W        W78454   3.017  17.710   2.929
 6784W        W78455   9.109  21.736  10.644
 6785W        W78456  17.685  42.435   3.265
 6786W        W78457  25.996  30.678  11.082
 6787W        W78458  13.382   6.210   1.899
 6788W        W78459   1.863   4.147   3.716
 6789W        W78460   0.764   9.152   3.208
 6790W        W78461  14.767  10.769  11.237
 6791W        W78462  19.257  13.861   0.958
 6792W        W78463  20.531  40.234   4.605
 6793W        W78464   3.615   0.006   4.493
 6794W        W78465  11.249  20.544  11.350
 6795W        W78466  21.566  14.362  11.545
 6796W        W78467   9.119  26.484   2.348
 6797W        W78468  12.696  18.928  14.386
 6798W        W78469  33.424  27.252   2.717
 6799W        W78470  20.963  34.385   4.800
 6800W        W78471   5.440  15.954   0.199
 6801W        W78472   5.261   2.893  14.538
 6802W        W78473  29.698  23.468  12.417
 6803W        W78474  38.857  20.070  13.968
 6804W        W78475   6.260  26.533  12.898
 6805W        W78476  10.399  17.614  12.109
 6806W        W78477   3.743   1.980   2.630
 6807W        W78478  32.036  24.930   4.371
 6808W        W78479  28.476  26.205   2.305
 6809W        W78480  26.496  11.698  12.940
 6810W        W78481  24.215  34.694   1.907
 6811W        W78482  15.859  34.326   0.056
 6812W        W78483  43.199  31.060  11.589
 6813W        W78484  15.252  23.255  13.401
 6814W        W78485  18.714  29.622  11.594
 6815W        W78486  36.505  21.651  12.964
 6816W        W78487  21.876  42.104   3.207
 6817W        W78488  29.903   4.483   2.940
 6818W        W78489   4.800  18.974  12.145
 6819W        W78490  20.318  43.664   0.906
 6820W        W78491   4.457  14.069  12.515
 6821W        W78492   0.586  20.790   2.318
 6822W        W78493  21.151  27.247   3.693
 6823W        W78494  26.529  18.404  10.729
 6824W        W78495  12.635  22.227  13.229
 6825W        W78496   4.709   3.925  11.819
 6826W        W78497  37.610  26.063   0.532
 6827W        W78498  29.389  13.094   2.896
 6828W        W78499  16.419  37.958  14.346
 6829W        W78500   5.176  29.672   4.493
 6830W        W78501  31.428  22.781  14.431
 6831W        W78502  12.241  11.793  13.606
 6832W        W78503   1.545  44.956  10.996
 6833W        W78504  41.571   1.344  12.882
 6834W        W78505  39.015  10.760  14.303
 6835W        W78506  28.153  25.034   2.601
 6836W        W78507  17.326  20.508  14.164
 6837W        W78508  28.139  24.565   0.759
 6838W        W78509  27.004   9.878  13.329
 6839W        W78510  39.582  42.512   4.868
 6840W        W78511  31.643   5.521   2.249
 6841W        W78512   5.469   7.711  11.201
 6842W        W78513  25.421   4.926  12.731
 6843W        W78514  33.436  18.175   4.453
 6844W        W78515  27.018  14.230   4.724
 6845W        W78516  41.959  43.798   2.695
 6846W        W78517  40.788  22.603   4.713
 6847W        W78518  31.539  25.113  11.650
 6848W        W78519  17.863  18.700  10.645
 6849W        W78520   6.247  30.869   3.325
 6850W        W78521  29.341  33.106   4.047
 6851W        W78522  11.745  11.057   3.065
 6852W        W78523  40.245  30.378   3.195
 6853W        W78524  28.340  37.429   1.246
 6854W        W78525  34.300  11.599  12.840
 6855W        W78526  10.271  20.475   0.455
 6856W        W78527  19.639  15.125  10.281
 6857W        W78528  32.535  28.572   3.101
 6858W        W78529  21.795  24.607   4.112
 6859W        W78530  43.339  41.443  10.620
 6860W        W78531  40.713  17.661  10.736
 6861W        W78532  13.592  17.359  11.231
 6862W        W78533  36.861  20.554  14.899
 6863W        W78534  26.450  10.239   0.128
 6864W        W78535  34.973   3.363  10.032
 6865W        W78536  42.841   6.762  14.231
 6866W        W78537  13.780  37.852  13.397
 6867W        W78538  18.864  12.438  11.104
 6868W        W78539  32.574  44.208   0.434
 6869W        W78540  25.979  40.508   4.179
 6870W        W78541  35.084  42.367   2.569
 6871W        W78542  18.842  26.741   0.389
 6872W        W78543  22.562  25.411  13.879
 6873W        W78544  32.456  21.454  12.633
 6874W        W78545  32.904   4.824  11.941
 6875W        W78546  16.507  11.122  11.210
 6876W        W78547  33.807   5.826  11.707
 6877W        W78548  32.726   2.944  12.980
 6878W        W78549   2.563  39.585  13.907
 6879W        W78550  22.003  31.747   2.832
 6880W        W78551  31.457  16.514  13.283
 6881W        W78552   2.195  21.203   2.166
 6882W        W78553  28.039   0.965   4.261
 6883W        W78554  43.886  41.647   4.645
 6884W        W78555  40.893  21.584  13.498
 6885W        W78556  26.792  38.587   3.166
 6886W        W78557   9.450  17.246  14.031
 6887W        W78558  21.456   1.747   4.272
 6888W        W78559  26.565  32.985   2.798
 6889W        W78560  28.043  43.261   4.026
 6890W        W78561  41.409  23.885  11.592
 6891W        W78562   6.735  23.665  12.167
 6892W        W78563   4.899  25.198   1.945
 6893W        W78564   9.930  10.146   1.953
 6894W        W78565   3.419  34.697  14.306
 6895W        W78566  36.944  16.559   0.338
 6896W        W78567  36.538   9.961  10.525
 6897W        W78568   5.841  17.534   3.639
 6898W        W78569  29.328  32.817   2.814
 6899W        W78570  21.301   9.326   2.706
 6900W        W78571  41.847  22.014   0.746
 6901W        W78572  16.375  34.908  11.009
 6902W        W78573   5.732  29.693   0.432
 6903W        W78574  38.536  42.441   0.885
 6904W        W78575   9.189  28.080  12.314
 6905W        W78576  44.776  18.757   4.321
 6906W        W78577   5.222  36.426  12.908
 6907W        W78578  18.685  13.582  11.997
 6908W        W78579  44.481   1.575   0.787
 6909W        W78580  21.539   5.704  13.482
 6910W        W78581  27.203  25.559   2.387
 6911W        W78582  24.699  29.919   1.311
 6912W        W78583  39.954  13.833  13.986
 6913W        W78584  14.618  38.185  14.583
 6914W        W78585  29.749  10.911  14.347
 6915W        W78586  32.667  15.822  12.932
 6916W        W78587  38.363  11.339   0.755
 6917W        W78588   3.427   9.603  12.116
 6918W        W78589   3.425  41.396   1.791
 6919W        W78590  44.352  21.010   3.330
 6920W        W78591   8.708  21.970   4.909
 6921W        W78592  33.653  11.726   3.453
 6922W        W78593  20.109  16.625   0.463
 6923W        W78594  17.111  35.638   0.379
 6924W        W78595  38.540  15.815  12.504
 6925W        W78596  25.541  23.704   0.825
 6926W        W78597  25.968   2.777   3.224
 6927W        W78598  42.316   1.995  14.447
 6928W        W78599  37.913  35.550  10.726
 6929W        W78600  32.407  11.862  13.658
 6930W        W78601  19.810  21.067   1.233
 6931W        W78602  14.662  18.781  12.538
 6932W        W78603  16.368  24.761  10.988
 6933W        W78604  16.040  29.699   3.579
 6934W        W78605  34.859  27.685  13.426
 6935W        W78606   7.691  16.554  13.038
 6936W        W78607  35.022  15.516  11.952
 6937W        W78608  18.497  22.997  11.533
 6938W        W78609  14.712  10.325   1.015
 6939W        W78610  32.399  43.829   1.973
 6940W        W78611  37.976  13.435   4.999
 6941W        W78612  42.392  42.149  12.604
 6942W        W78613   9.295  37.354   4.171
 6943W        W78614  36.229  44.139  13.867
 6944W        W78615  31.770   0.991   4.424
 6945W        W78616  25.057   6.609  14.266
 6946W        W78617  23.127  23.204  10.635
 6947W        W78618   6.855   7.138  10.691
 6948W        W78619  29.425  44.513   1.033
 6949W        W78620  36.403  26.523   0.025
 6950W        W78621  40.484   1.941  10.797
 6951W        W78622  34.655  44.319  11.118
 6952W        W78623   3.944  20.768   9.887
 6953W        W78624  36.888  14.261  11.323
 6954W        W78625  37.500  15.533  14.797
 6955W        W78626   1.215  18.233   3.409
 6956W        W78627  32.462  42.989  10.202
 6957W        W78628   2.459  25.559  11.442
 6958W        W78629  28.101  24.545   4.486
 6959W        W78630  44.485  17.104   4.933
 6960W        W78631   0.217  25.195   1.401
 6961W        W78632  20.088  44.171  12.521
 6962W        W78633  12.939  16.014  10.691
 6963W        W78634   4.025  28.576  12.746
 6964W        W78635  34.082  13.288   0.651
 6965W        W78636  18.369  41.086   1.975
 6966W        W78637  39.077   7.290   2.887
 6967W        W78638   7.619  26.294  12.913
 6968W        W78639  37.328  42.353  11.978
 6969W        W78640   5.483  44.003  12.646
 6970W        W78641   8.714  19.054   2.445
 6971W        W78642  29.697   6.867  13.994
 6972W        W78643  29.978  42.683   4.278
 6973W        W78644  38.985  30.523   3.804
 6974W        W78645  16.593  38.293  14.916
 6975W        W78646   1.968  20.055   1.235
 6976W        W78647  41.277  31.370  13.375
 6977W        W78648  44.992  15.577  12.885
 6978W        W78649  12.752  26.747  10.724
 6979W        W78650   0.975  25.968  13.132
 6980W        W78651  43.469  34.890  12.974
 6981W        W78652  30.174   1.940  14.312
 6982W        W78653  11.403  30.438   3.656
 6983W        W78654  19.515  25.923   4.296
 6984W        W78655  18.684  44.816  11.260
 6985W        W78656  40.351  40.029   2.894
 6986W        W78657  11.280  44.722   3.550
 6987W        W78658  23.625   5.416   4.769
 6988W        W78659  26.249  15.389  14.246
 6989W        W78660  11.533  42.238  13.042
 6990W        W78661  28.917  24.761  13.034
 6991W        W78662  43.803  42.755   1.938
 6992W        W78663  20.759  27.134   0.284
 6993W        W78664  37.872  33.233  12.035
 6994W        W78665  24.386  14.757  12.310
 6995W        W78666  41.498  28.946  13.483
 6996W        W78667   1.155   0.787   2.756
 6997W        W78668  40.817  16.461  13.329
 6998W        W78669  37.542  17.519   0.751
 6999W        W78670  19.625  44.367  12.625
 7000W        W78671  43.962  34.319   4.509
 7001W        W78672   8.809  38.620   1.487
 7002W        W78673  36.622  37.445   2.415
 7003W        W78674  30.715  26.962  11.520
 7004W        W78675   0.501  30.184  14.095
 7005W        W78676  20.304  25.752   4.577
 7006W        W78677  35.095  17.686  14.762
 7007W        W78678   8.839  34.819   0.841
 7008W        W78679  26.085  13.329   4.090
 7009W        W78680  40.960  12.632  11.608
 7010W        W78681  36.183  43.369   2.349
 7011W        W78682  26.449   4.650  10.909
 7012W        W78683  44.182  31.430   1.271
 7013W        W78684  41.162  28.177  10.450
 7014W        W78685   6.354   1.228   0.752
 7015W        W78686  34.525   5.444   1.481
 7016W        W78687  26.738   1.859  11.876
 7017W        W78688  21.544  16.854  10.834
 7018W        W78689   5.321   0.982   0.659
 7019W        W78690  17.450  35.455  11.596
 7020W        W78691  26.501  14.273   0.339
 7021W        W78692   6.947  18.869   4.947
 7022W        W78693   3.825  17.929  12.175
 7023W        W78694  25.996  16.805  12.883
 7024W        W78695  32.213   9.984   3.327
 7025W        W78696  20.219   5.812  10.740
 7026W        W78697  33.208  17.395  13.859
 7027W        W78698  37.844  39.034  13.920
 7028W        W78699  11.240  13.180   1.408
 7029W        W78700  21.632  27.263   4.054
 7030W        W78701  19.663  16.617   0.842
 7031W        W78702  34.945  34.503   0.705
 7032W        W78703   1.758   9.804   0.248
 7033W        W78704  32.993  12.152   4.378
 7034W        W78705  28.053  14.530   0.315
 7035W        W78706  37.418  44.930  11.466
 7036W        W78707   1.021  38.981   2.251
 7037W        W78708  17.189   4.513  10.749
 7038W        W78709  35.119  14.263  11.545
 7039W        W78710  14.767   7.254  13.104
 7040W        W78711  10.126   4.799  11.564
 7041W        W78712  42.509  18.798  11.945
 7042W        W78713  24.600  34.619  12.504
 7043W        W78714  38.909  23.931   0.902
 7044W        W78715  37.974   0.271   4.788
 7045W        W78716  14.818   2.372  12.865
 7046W        W78717  26.983  13.873  14.358
 7047W        W78718  27.849  32.885  12.665
 7048W        W78719  43.810  14.267  13.046
 7049W        W78720  33.175  11.322   0.780
 7050W        W78721  20.819  28.382  10.702
 7051W        W78722  29.013  21.121  10.705
 7052W        W78723  40.256   6.122  11.032
 7053W        W78724   0.082  31.568  12.210
 7054W        W78725  20.130   9.818   1.260
 7055W        W78726  15.071  28.539  11.157
 7056W        W78727  34.132   7.737   4.232
 7057W        W78728  15.714   4.196  12.951
 7058W        W78729   3.392  11.775   4.531
 7059W        W78730  23.992  16.476   3.641
 7060W        W78731  31.441   5.902   3.652
 7061W        W78732  42.278  41.233   0.832
 7062W        W78733  31.100  22.357   0.717
 7063W        W78734  35.358  18.725  12.578
 7064W        W78735  19.631   3.711  12.023
 7065W        W78736  38.669  13.249  14.933
 7066W        W78737   9.016  27.109  14.880
 7067W        W78738  40.498  43.790  12.165
 7068W        W78739  43.301  39.068   1.500
 7069W        W78740  25.682  42.303   2.298
 7070W        W78741  37.383   3.035  11.858
 7071W        W78742  15.103   2.416   1.852
 7072W        W78743  36.793  10.627   0.894
 7073W        W78744   2.500  35.490  14.434
 7074W        W78745  33.079  13.668   2.474
 7075W        W78746  38.284  44.382   0.359
 7076W        W78747  16.854  26.111   3.453
 7077W        W78748  16.734  38.066  13.932
 7078W        W78749   9.555   6.347   1.407
 7079W        W78750  36.997  36.009  10.619
 7080W        W78751  33.215   9.594   4.924
 7081W        W78752   6.885  41.233   1.468
 7082W        W78753  30.076  38.864   0.770
 7083W        W78754   5.902  21.167   3.326
 7084W        W78755  22.690  22.369   1.296
 7085W        W78756   6.313  40.511  10.305
 7086W        W78757  39.939  24.065  13.034
 7087W        W78758   6.721  14.738  11.159
 7088W        W78759  15.285   9.928  13.038
 7089W        W78760  35.493   2.933   4.619
 7090W        W78761  28.280   4.851  13.123
 7091W        W78762   3.427  28.154  14.400
 7092W        W78763  40.843  42.042   4.367
 7093W        W78764  39.991  38.344   4.540
 7094W        W78765   4.999  15.695  13.018
 7095W        W78766  29.106  36.090  13.434
 7096W        W78767  13.548  15.178  10.432
 7097W        W78768   2.246  10.578   2.303
 7098W        W78769  42.599  39.852  14.120
 7099W        W78770   1.813  35.422   3.271
 7100W        W78771  12.083  36.446  13.825
 7101W        W78772   8.643  41.891   3.285
 7102W        W78773  18.547  40.327  12.885
 7103W        W78774  13.387  18.579  14.821
 7104W        W78775  27.178  10.783  13.794
 7105W        W78776  41.053   6.319   2.742
 7106W        W78777  21.133  30.899  11.774
 7107W        W78778  33.751   5.900  10.141
 7108W        W78779   9.725  31.962   4.409
 7109W        W78780  29.890  35.856   1.839
 7110W        W78781  23.610  23.587   1.354
 7111W        W78782   0.663   1.986  10.291
 7112W        W78783  32.144   4.456   4.264
 7113W        W78784  42.235  19.199   2.705
 7114W        W78785  42.034   9.789   3.765
 7115W        W78786  43.994  42.884   0.572
 7116W        W78787  26.450   7.770  11.991
 7117W        W78788  13.142   3.788   3.542
 7118W        W78789   9.783   7.681  14.240
 7119W        W78790  20.416  20.116   4.655
 7120W        W78791  14.075  26.146   4.575
 7121W        W78792   7.774  11.413  14.876
 7122W        W78793  28.580   5.919  14.543
 7123W        W78794  13.779   6.968   1.269
 7124W        W78795   1.979  21.961  10.660
 7125W        W78796   9.292  13.348  14.380
 7126W        W78797  22.636  28.408  14.984
 7127W        W78798  27.640   9.875  10.542
 7128W        W78799  40.403  19.086  10.560
 7129W        W78800  39.545  29.016   4.152
 7130W        W78801  20.631  34.418  13.127
 7131W        W78802  23.213   2.067  13.610
 7132W        W78803   3.246  42.922   4.300
 7133W        W78804   0.847  41.442  14.809
 7134W        W78805  43.496  21.745   4.987
 7135W        W78806   1.053  39.507   2.286
 7136W        W78807  21.742   4.421  12.573
 7137W        W78808  28.921  13.840   3.411
 7138W        W78809   6.420  27.557  12.018
 7139W        W78810  25.344  36.847  12.343
 7140W        W78811  17.273  37.452  12.418
 7141W        W78812  11.838  36.893   3.369
 7142W        W78813   0.772  12.384   5.109
 7143W        W78814  19.098  22.302  14.916
 7144W        W78815  12.273  10.226  10.794
 7145W        W78816   1.760   9.808  11.463
 7146W        W78817  37.928  34.524  10.875
 7147W        W78818  31.167  13.135   3.334
 7148W        W78819  13.824  17.164   2.740
 7149W        W78820  12.832  38.060  14.314
 7150W        W78821  44.038  42.818  12.539
 7151W        W78822   5.670  21.188  14.469
 7152W        W78823  16.618   3.921  12.684
 7153W        W78824  36.150   7.796  12.537
 7154W        W78825  27.426  39.578   0.287
 7155W        W78826  15.138  29.646  11.384
 7156W        W78827  34.337  41.915  14.474
 7157W        W78828  15.385  14.157   5.050
 7158W        W78829  24.010  24.700   2.658
 7159W        W78830  22.294  17.108  11.464
 7160W        W78831  26.448  22.169   1.845
 7161W        W78832  23.676  39.539  14.073
 7162W        W78833  18.251  32.669  11.985
 7163W        W78834  35.884  41.437   0.811
 7164W        W78835   1.411   1.848  12.187
 7165W        W78836  33.558  24.000  10.586
 7166W        W78837   2.217  17.205  14.221
 7167W        W78838  18.274   8.646  10.686
 7168W        W78839  39.505   6.260  13.091
 7169W        W78840  27.020   8.340   1.855
 7170W        W78841  38.530  26.083   4.936
 7171W        W78842  18.588  34.036  12.875
 7172W        W78843   7.171   2.807   0.292
 7173W        W78844  14.110  23.245  12.426
 7174W        W78845  39.527  38.978  12.612
 7175W        W78846  33.945   4.118   4.701
 7176W        W78847  17.675  40.463  11.414
 7177W        W78848  26.775  35.457  12.074
 7178W        W78849  36.774  43.498   1.812
 7179W        W78850  23.186  31.828  12.954
 7180W        W78851  16.024  21.586  11.913
 7181W        W78852  10.348   1.833   3.816
 7182W        W78853   1.437  37.894   1.426
 7183W        W78854  26.718  25.741   2.424
 7184W        W78855   5.804  21.557   2.634
 7185W        W78856  40.018   3.498   4.589
 7186W        W78857  18.121  37.517  14.237
 7187W        W78858  29.838  36.681   1.567
 7188W        W78859   0.534   4.733  14.860
 7189W        W78860   7.200  24.754  11.274
 7190W        W78861  44.762  25.569  12.015
 7191W        W78862  40.879   2.214  11.121
 7192W        W78863  42.607  25.009  10.511
 7193W        W78864  42.775  24.594  13.041
 7194W        W78865  19.715  15.519  13.376
 7195W        W78866  26.799  29.736   9.910
 7196W        W78867   0.531   4.303   1.899
 7197W        W78868  39.217  34.418  13.494
 7198W        W78869  18.542  39.961   2.862
 7199W        W78870  29.783  16.665   3.610
 7200W        W78871  24.366  10.725  14.235
 7201W        W78872  20.766  26.417  14.779
 7202W        W78873  36.370  14.621   0.097
 7203W        W78874   8.204  12.887  12.819
 7204W        W78875  11.281  26.657   0.976
 7205W        W78876  22.974  12.329   1.248
 7206W        W78877  39.610  40.036   3.666
 7207W        W78878  36.305  22.075  14.504
 7208W        W78879  33.938  33.146  14.689
 7209W        W78880  42.734  16.142   1.137
 7210W        W78881  17.183  33.396   5.063
 7211W        W78882  10.395  32.833  13.035
 7212W        W78883   1.192  25.137  12.189
 7213W        W78884  35.504  28.454   1.799
 7214W        W78885  14.459   6.515  10.741
 7215W        W78886  10.928  19.222   0.854
 7216W        W78887  41.077  13.629  14.618
 7217W        W78888  28.154  19.160   1.369
 7218W        W78889  33.070  36.376  13.440
 7219W        W78890  24.972  11.859  14.728
 7220W        W78891   1.406  14.144   0.518
 7221W        W78892   3.339  16.950   0.447
 7222W        W78893  17.583  16.262  12.972
 7223W        W78894  43.374  37.470  10.575
 7224W        W78895  23.251  21.720  11.502
 7225W        W78896   3.990   1.799   5.046
 7226W        W78897  24.620  34.827  10.976
 7227W        W78898   9.257  29.040   3.605
 7228W        W78899  11.628  42.938  12.590
 7229W        W78900  27.701   2.787   4.612
 7230W        W78901  20.471  10.407   3.798
 7231W        W78902  11.883  26.874  14.081
 7232W        W78903  39.939  35.732  11.656
 7233W        W78904  12.320   7.335  10.574
 7234W        W78905  19.959  26.618  11.560
 7235W        W78906  36.053  19.563  13.926
 7236W        W78907  15.070  31.494  12.509
 7237W        W78908   2.897   4.252  10.499
 7238W        W78909   6.032  17.341  14.068
 7239W        W78910  40.090  17.064   0.838
 7240W        W78911  38.018  21.047  11.642
 7241W        W78912  22.430   3.544  12.953
 7242W        W78913  31.965  28.957  12.993
 7243W        W78914  16.800   7.948   1.312
 7244W        W78915  35.617  35.024   0.207
 7245W        W78916   1.184  23.514  13.394
 7246W        W78917   5.209  13.068  12.465
 7247W        W78918   4.436   7.128   3.305
 7248W        W78919   7.901  12.444  14.830
 7249W        W78920  38.994  43.981  12.372
 7250W        W78921   4.731  31.445   1.235
 7251W        W78922   2.198  40.682  11.540
 7252W        W78923  15.653   5.158   3.205
 7253W        W78924  44.489  41.515   2.851
 7254W        W78925  27.962   6.235  11.141
 7255W        W78926  34.420  18.127   4.599
 7256W        W78927  36.273  11.899   1.348
 7257W        W78928  17.564  19.205  11.466
 7258W        W78929  11.986  16.600   0.366
 7259W        W78930  23.751   8.472   1.612
 7260W        W78931  23.273  39.678  11.709
 7261W        W78932   2.244  15.817   2.989
 7262W        W78933  18.474  35.469   2.387
 7263W        W78934  40.440  22.500  10.679
 7264W        W78935  11.848  11.448  11.649
 7265W        W78936  25.027  17.526  10.605
 7266W        W78937  32.826  16.546   0.182
 7267W        W78938   5.436   5.857   4.636
 7268W        W78939   6.363   6.936  10.799
 7269W        W78940  35.416  26.478   3.231
 7270W        W78941  31.968  17.208  13.645
 7271W        W78942  12.653  29.113  13.166
 7272W        W78943   2.816   7.947  10.414
 7273W        W78944   6.301  12.716  13.334
 7274W        W78945  44.509   4.095   1.962
 7275W        W78946   1.295  38.557   0.935
 7276W        W78947  38.352  18.637  14.759
 7277W        W78948  11.412   5.305  10.331
 7278W        W78949  28.066  44.986   4.634
 7279W        W78950   9.638  35.206  12.193
 7280W        W78951  28.906  19.891  10.903
 7281W        W78952  24.059  14.050   3.188
 7282W        W78953   9.245  32.192   1.323
 7283W        W78954  26.203  10.889  11.063
 7284W        W78955  15.397  20.247  12.632
 7285W        W78956  15.035   8.610  12.419
 7286W        W78957  34.031   8.216  10.612
 7287W        W78958  24.502   0.374   3.277
 7288W        W78959  34.972  37.049   4.094
 7289W        W78960  29.710   5.463   3.565
 7290W        W78961   5.491  25.065  10.744
 7291W        W78962  30.727   7.024  14.965
 7292W        W78963   1.288  44.296  12.765
 7293W        W78964   8.924  30.428   4.550
 7294W        W78965  17.263  33.621  14.007
 7295W        W78966  29.551  38.139  14.822
 7296W        W78967  28.274  13.406   1.651
 7297W        W78968   9.506  14.864   2.900
 7298W        W78969  20.985   5.676  11.690
 7299W        W78970  19.744  37.848  11.965
 7300W        W78971  28.008  16.165  11.612
 7301W        W78972  24.538   3.523   3.862
 7302W        W78973  21.076   9.967  10.730
 7303W        W78974  44.195  15.741  12.543
 7304W        W78975  16.809  31.046  11.545
 7305W        W78976   8.687   4.724  11.422
 7306W        W78977  11.067  42.503  11.240
 7307W        W78978   5.613   5.367  13.826
 7308W        W78979  43.367  30.556   2.254
 7309W        W78980   7.147  29.991   2.779
 7310W        W78981  44.477  22.953  11.552
 7311W        W78982  31.298   4.572   3.666
 7312W        W78983  16.734   8.754   3.653
 7313W        W78984  42.030   9.754   1.715
 7314W        W78985  25.119  23.773   1.766
 7315W        W78986  26.949  39.639  12.305
 7316W        W78987  32.314  44.436  11.360
 7317W        W78988   3.323  41.304  12.624
 7318W        W78989   5.262  23.850   3.542
 7319W        W78990  23.502  16.702  10.991
 7320W        W78991  39.387   3.350  11.065
 7321W        W78992  41.958  35.347   3.889
 7322W        W78993  40.336  31.472  13.606
 7323W        W78994  41.770  24.864  14.526
 7324W        W78995  32.591  10.172   1.740
 7325W        W78996   7.311  28.127   4.862
 7326W        W78997   6.893  22.948  13.706
 7327W        W78998  20.166  29.075   0.948
 7328W        W78999  31.634   0.768   0.215
 7329W        W79000  34.864  27.514  14.358
 7330W        W79001   6.701  36.395  14.556
 7331W        W79002   4.296  17.610   3.504
 7332W        W79003  43.794  39.874   4.113
 7333W        W79004  18.611  10.051   3.735
 7334W        W79005  27.694  18.147  11.313
 7335W        W79006   5.082  26.470   2.425
 7336W        W79007  36.940  30.316   3.151
 7337W        W79008  22.553  11.696  14.034
 7338W        W79009  42.983  40.080   3.647
 7339W        W79010  20.174   8.275   4.514
 7340W        W79011  27.886   9.652   4.620
 7341W        W79012  20.169  19.317  11.587
 7342W        W79013  19.482  33.611   1.226
 7343W        W79014  34.863  13.363   1.807
 7344W        W79015  30.407  28.035   2.812
 7345W        W79016  36.018  39.171   4.979
 7346W        W79017  24.040  42.743   1.443
 7347W        W79018   0.465  25.674   1.642
 7348W        W79019  21.686  10.557   4.296
 7349W        W79020   9.136  37.618   0.962
 7350W        W79021  20.245  36.095  10.822
 7351W        W79022  10.845  20.997   0.440
 7352W        W79023  32.058  25.515   1.586
 7353W        W79024  28.374  34.460  12.513
 7354W        W79025   2.336  34.571   3.061
 7355W        W79026   7.750  25.508  13.433
 7356W        W79027  28.762  38.754  11.159
 7357W        W79028  17.273  21.047  13.480
 7358W        W79029  15.385  31.884   3.790
 7359W        W79030  13.838  41.549  14.526
 7360W        W79031  13.715   4.563  10.686
 7361W        W79032  20.973  36.704  12.906
 7362W        W79033  40.252  14.334  14.886
 7363W        W79034  24.963  27.194   1.697
 7364W        W79035  44.805  21.174  10.721
 7365W        W79036  22.315  39.086  12.185
 7366W        W79037  44.157  43.163   1.921
 7367W        W79038  10.362   3.401  14.972
 7368W        W79039  41.019  31.959   1.452
 7369W        W79040  14.689   4.448   1.206
 7370W        W79041   9.138  12.555  12.452
 7371W        W79042  24.446  34.032  11.775
 7372W        W79043  26.612   9.106   0.864
 7373W        W79044  16.970  15.737   2.887
 7374W        W79045  36.878  32.835   0.924
 7375W        W79046   7.696  26.964   3.520
 7376W        W79047  24.545  38.479   5.695
 7377W        W79048  17.053   3.557   4.677
 7378W        W79049  20.118  42.822   1.796
 7379W        W79050  15.294  13.652   2.844
 7380W        W79051  29.800   0.183  12.938
 7381W        W79052   4.097  10.291  14.294
 7382W        W79053  32.981  14.754   1.713
 7383W        W79054   0.324  28.068   2.655
 7384W        W79055  39.443  32.987   3.083
 7385W        W79056  33.424  15.005   1.493
 7386W        W79057   5.552  33.334  12.035
 7387W        W79058  12.640  33.799   1.825
 7388W        W79059   0.332  35.382   0.667
 7389W        W79060  39.701  32.611  11.125
 7390W        W79061  11.625  10.763   3.699
 7391W        W79062  25.509  19.491  11.033
 7392W        W79063  40.019  24.356  14.503
 7393W        W79064  19.021  35.534  14.629
 7394W        W79065   9.257  22.591  13.931
 7395W        W79066  29.858   5.578  10.352
 7396W        W79067  34.219  28.772  11.643
 7397W        W79068  38.547  10.268  11.262
 7398W        W79069  12.253   2.652  11.609
 7399W        W79070   1.631   4.320  12.874
 7400W        W79071   3.471  12.699   4.054
 7401W        W79072  27.285  12.424  14.429
 7402W        W79073  25.927  25.019  10.798
 7403W        W79074  19.573   4.705   0.413
 7404W        W79075  34.377  34.134  11.041
 7405W        W79076   6.316   7.698   0.473
 7406W        W79077  27.920  29.023   2.963
 7407W        W79078  28.867  31.885   0.722
 7408W        W79079  34.075  41.585  12.402
 7409W        W79080  41.621  10.056  12.885
 7410W        W79081   4.310   0.179   1.002
 7411W        W79082   4.016  22.683  12.138
 7412W        W79083   2.617  39.602  10.261
 7413W        W79084  41.258  43.018   0.708
 7414W        W79085  31.374  43.895   0.890
 7415W        W79086  12.850  41.415   3.941
 7416W        W79087  34.400  17.231  14.940
 7417W        W79088  40.580  42.915  12.490
 7418W        W79089  23.961  30.562  13.314
 7419W        W79090  26.519  30.679  12.832
 7420W        W79091  14.715  21.703   1.145
 7421W        W79092  26.011  19.047  11.740
 7422W        W79093  11.128  21.087  11.171
 7423W        W79094  34.843  37.879   4.443
 7424W        W79095   6.837  14.018   1.465
 7425W        W79096  19.371  30.389  14.537
 7426W        W79097  33.141  18.757  13.995
 7427W        W79098  22.863  12.999  13.914
 7428W        W79099   2.223  27.485  13.052
 7429W        W79100  41.695  29.672  12.966
 7430W        W79101  14.066  32.481   4.565
 7431W        W79102  11.727  44.369  12.274
 7432W        W79103   9.813  31.474   4.602
 7433W        W79104  44.585   0.884  14.138
 7434W        W79105   4.838  38.008  10.575
 7435W        W79106   8.414   1.613   4.181
 7436W        W79107  23.171  11.574  10.964
 7437W        W79108  24.412  29.197   0.920
 7438W        W79109  41.234  37.953   0.975
 7439W        W79110  24.223  12.909   1.589
 7440W        W79111  17.695   5.954  11.822
 7441W        W79112  23.532  29.036   0.696
 7442W        W79113  32.387  23.727   0.449
 7443W        W79114   6.414  42.362  10.629
 7444W        W79115   3.261  22.247  12.449
 7445W        W79116  20.605  25.432   2.324
 7446W        W79117  39.404  17.796  10.993
 7447W        W79118   6.978  32.530   4.216
 7448W        W79119  38.984  41.074  10.733
 7449W        W79120  31.016  14.156  12.507
 7450W        W79121  25.349  16.161  12.665
 7451W        W79122  38.037  41.288  12.454
 7452W        W79123  11.838  13.650  12.430
 7453W        W79124  31.170  12.835  12.487
 7454W        W79125  38.999   3.904   1.769
 7455W        W79126  11.294   7.349   4.288
 7456W        W79127  31.351  33.643  13.797
 7457W        W79128   4.763  22.908   0.348
 7458W        W79129  13.272  27.927   3.716
 7459W        W79130  29.866  27.874  12.516
 7460W        W79131   4.633  19.744   0.186
 7461W        W79132  41.376  22.600  12.500
 7462W        W79133  16.821  21.619   0.923
 7463W        W79134  19.282  39.317  13.070
 7464W        W79135  24.176  30.071  14.499
 7465W        W79136  37.322  38.676   0.371
 7466W        W79137  43.273  44.878   2.206
 7467W        W79138  43.113  42.860  14.779
 7468W        W79139  12.844  37.464  14.757
 7469W        W79140   1.728  23.394   1.883
 7470W        W79141  21.287  39.869   0.895
 7471W        W79142  25.522   4.257   3.068
 7472W        W79143  22.489  35.953   4.065
 7473W        W79144   4.232  33.845  10.978
 7474W        W79145  38.103  19.577   3.227
 7475W        W79146  13.640   6.734   4.178
 7476W        W79147  13.130  11.863   1.759
 7477W        W79148  14.805  11.077  10.797
 7478W        W79149  31.852  36.870   2.777
 7479W        W79150  29.431  11.689   4.904
 7480W        W79151   7.685   2.251  12.507
 7481W        W79152  16.372  16.650  13.029
 7482W        W79153   6.221  11.107   2.835
 7483W        W79154  34.928   4.205  12.682
 7484W        W79155  30.136  23.620   1.901
 7485W        W79156   7.422  14.434  13.564
 7486W        W79157  12.600   5.703  12.253
 7487W        W79158  14.419   2.001   3.309
 7488W        W79159  28.992  20.664  11.893
 7489W        W79160  27.994   2.344   4.607
 7490W        W79161  32.232  31.070  12.659
 7491W        W79162   2.882  37.291  14.722
 7492W        W79163  16.213   4.534  11.701
 7493W        W79164  18.671  27.077  11.158
 7494W        W79165   8.645   8.099   1.310
 7495W        W79166  14.362   4.393   0.699
 7496W        W79167  12.631   6.443  12.583
 7497W        W79168  41.578  39.083   4.303
 7498W        W79169   9.764  26.755   4.760
 7499W        W79170  25.270  17.275  14.885
 7500W        W79171  35.335  37.457   2.647
 7501W        W79172  27.696   4.684   2.251
 7502W        W79173  44.360  33.677   0.825
 7503W        W79174  20.585  21.559  11.580
 7504W        W79175  19.778  37.528   2.443
 7505W        W79176  28.263  42.957  13.531
 7506W        W79177  10.746  32.665  14.353
 7507W        W79178  19.680  29.664   3.277
 7508W        W79179  24.784  21.537  14.899
 7509W        W79180  10.291  36.508  12.243
 7510W        W79181  30.009  26.303   4.503
 7511W        W79182  39.621  24.692  14.487
 7512W        W79183   6.973  25.525   1.913
 7513W        W79184  20.624  37.221  10.469
 7514W        W79185  19.483  36.635   3.779
 7515W        W79186  31.332   9.740   0.312
 7516W        W79187  36.085  40.541  11.972
 7517W        W79188  21.735  39.956  14.056
 7518W        W79189  24.204  35.792  10.723
 7519W        W79190   9.738  13.639   4.035
 7520W        W79191  32.910  17.663  14.785
 7521W        W79192  16.106  11.407  13.513
 7522W        W79193  37.440  27.954  12.084
 7523W        W79194   4.653   6.491   3.683
 7524W        W79195  44.373  18.760  10.683
 7525W        W79196  38.274   3.905  12.032
 7526W        W79197  24.263  41.902  12.412
 7527W        W79198  42.363  36.447  14.858
 7528W        W79199  42.954  16.715  12.953
 7529W        W79200  21.008  16.577  11.540
 7530W        W79201   9.453  15.845   4.559
 7531W        W79202  26.919  35.960   4.986
 7532W        W79203   3.575  37.480   3.607
 7533W        W79204  12.412  21.257  12.984
 7534W        W79205  36.249  15.548   1.877
 7535W        W79206  42.963  33.645  14.074
 7536W        W79207   6.073   3.142  14.891
 7537W        W79208  26.581   6.744   3.069
 7538W        W79209  26.147  44.328  10.390
 7539W        W79210   1.947  27.579  14.767
 7540W        W79211   4.498  40.740   2.344
 7541W        W79212   3.527  21.641  13.510
 7542W        W79213  10.987  15.701  13.584
 7543W        W79214  32.618  29.674  13.092
 7544W        W79215  44.800  43.930  13.544
 7545W        W79216  43.585  40.312   1.356
 7546W        W79217   2.364  29.036  10.365
 7547W        W79218   5.940  36.542  12.644
 7548W        W79219  27.679  36.800  13.155
 7549W        W79220   6.545  21.963   4.601
 7550W        W79221  26.278   6.676   2.168
 7551W        W79222  38.559   6.972   0.837
 7552W        W79223  41.253   4.755  13.027
 7553W        W79224  33.073   9.901  12.132
 7554W        W79225  18.307  36.420  11.627
 7555W        W79226  41.537  39.989   3.808
 7556W        W79227   0.788  32.114  12.093
 7557W        W79228  39.935  17.603   2.591
 7558W        W79229  40.292   4.868  10.869
 7559W        W79230  38.699  17.946  12.019
 7560W        W79231  36.529  27.222   2.899
 7561W        W79232  26.599  35.959   4.578
 7562W        W79233  30.037  12.383  11.730
 7563W        W79234  29.564  29.206  14.007
 7564W        W79235   9.790   1.923  11.692
 7565W        W79236  23.448  22.499  11.142
 7566W        W79237  14.363   4.842   2.397
 7567W        W79238  31.658  13.258  10.777
 7568W        W79239   9.354  26.335   1.909
 7569W        W79240  29.875  15.934   4.580
 7570W        W79241  30.138   3.146  12.334
 7571W        W79242  15.983   9.822  11.558
 7572W        W79243   0.851  22.360  13.074
 7573W        W79244   9.411  10.352   2.635
 7574W        W79245   0.845  18.018  14.802
 7575W        W79246  15.438  29.578   0.132
 7576W        W79247  21.045  22.750   3.210
 7577W        W79248  18.395   0.081   4.232
 7578W        W79249   3.651  33.011   1.774
 7579W        W79250  23.770  30.215   1.764
 7580W        W79251  27.416  35.965   1.364
 7581W        W79252  23.553  40.029  14.830
 7582W        W79253   5.342  16.826   0.617
 7583W        W79254  21.930  33.188   3.682
 7584W        W79255  36.635  17.942  13.420
 7585W        W79256   9.174  36.469   1.433
 7586W        W79257  13.187  34.017   0.464
 7587W        W79258  18.018  36.464  14.370
 7588W        W79259   3.658  41.799   3.663
 7589W        W79260  19.206  21.195  12.348
 7590W        W79261  19.744  39.370  12.048
 7591W        W79262  21.661  11.268   0.967
 7592W        W79263  33.959  25.288  12.053
 7593W        W79264   9.481   0.541   4.165
 7594W        W79265  18.143  40.703   1.684
 7595W        W79266  24.515   4.886   1.676
 7596W        W79267  15.220  26.555   4.629
 7597W        W79268  16.197  33.005  14.541
 7598W        W79269   3.953  10.662   1.249
 7599W        W79270  15.590  34.658  10.713
 7600W        W79271   3.164   6.951  11.357
 7601W        W79272  16.808  25.459  13.466
 7602W        W79273  31.227  31.412  13.967
 7603W        W79274  27.694  39.849   0.625
 7604W        W79275   2.723   1.834   2.740
 7605W        W79276  26.142   3.222  12.543
 7606W        W79277  12.431  11.363  13.823
 7607W        W79278  18.341  43.791   4.589
 7608W        W79279   5.288   9.212  14.476
 7609W        W79280  33.350  37.304  14.854
 7610W        W79281  25.490  38.481  14.307
 7611W        W79282   0.836   0.535   4.067
 7612W        W79283  14.297  33.567  10.557
 7613W        W79284  19.494  33.578  10.958
 7614W        W79285  23.251  10.138   1.730
 7615W        W79286  30.117   7.709  14.377
 7616W        W79287   4.832  29.639   1.794
 7617W        W79288  22.985  34.968   2.602
 7618W        W79289  36.068  27.749   1.749
 7619W        W79290   9.244  17.035   2.884
 7620W        W79291  38.239  20.879  13.891
 7621W        W79292  43.268   7.904  14.982
 7622W        W79293  36.672  37.287   4.113
 7623W        W79294  43.361  37.278  13.692
 7624W        W79295   5.748  39.107  10.690
 7625W        W79296  38.593  38.282   4.924
 7626W        W79297  25.003  17.993  12.831
 7627W        W79298   1.797  21.023  11.529
 7628W        W79299  29.611  17.232  10.785
 7629W        W79300  29.087  35.430  13.895
 7630W        W79301   0.928   2.948   2.284
 7631W        W79302  23.124  40.005   0.404
 7632W        W79303   9.729  28.014   4.391
 7633W        W79304  10.981  27.534  13.161
 7634W        W79305  20.322  23.690   3.521
 7635W        W79306  15.064  12.112   3.300
 7636W        W79307  31.669  10.997  12.589
 7637W        W79308   5.826  16.257   4.321
 7638W        W79309  39.751   1.807   1.348
 7639W        W79310  24.064  23.561  11.348
 7640W        W79311  38.818  14.166  14.923
 7641W        W79312  13.111  41.314   0.332
 7642W        W79313  30.499  21.765   3.564
 7643W        W79314  25.639  29.918  13.538
 7644W        W79315   4.770  21.411  13.866
 7645W        W79316   0.227  28.940  14.375
 7646W        W79317  31.891  17.750   0.182
 7647W        W79318   6.688  42.970  11.041
 7648W        W79319  32.426  36.662  11.544
 7649W        W79320  32.926   4.637  10.507
 7650W        W79321   2.836  16.468   2.701
 7651W        W79322  36.258  15.276   1.363
 7652W        W79323  21.019  16.807  10.706
 7653W        W79324  17.243   6.022   5.443
 7654W        W79325  13.136  28.562   3.849
 7655W        W79326  21.000   0.527  14.967
 7656W        W79327  20.031  38.775   0.506
 7657W        W79328  20.102  19.619   1.885
 7658W        W79329  27.022  41.856   1.235
 7659W        W79330   2.391  38.884   1.668
 7660W        W79331  37.802  39.911   4.130
 7661W        W79332  33.530  42.663   3.418
 7662W        W79333  32.197  17.805  14.308
 7663W        W79334  43.712  25.490   1.171
 7664W        W79335   1.566  40.017  11.661
 7665W        W79336  21.020   2.495  11.579
 7666W        W79337  14.159  19.739   0.526
 7667W        W79338   2.691  42.011   0.746
 7668W        W79339  34.296  38.624   5.038
 7669W        W79340   5.871  16.070   3.167
 7670W        W79341   8.675  18.351  11.034
 7671W        W79342  35.449   3.416  13.328
 7672W        W79343  32.540   6.646   0.812
 7673W        W79344  11.840  40.997  14.796
 7674W        W79345  29.433  14.573   3.635
 7675W        W79346  43.663   3.829   2.413
 7676W        W79347   5.448  11.582   2.842
 7677W        W79348  41.401   6.393  13.762
 7678W        W79349  28.615   5.845  11.265
 7679W        W79350  24.690  15.125  11.571
 7680W        W79351  34.896  18.338   4.117
 7681W        W79352  25.965  37.302   3.898
 7682W        W79353   9.854  13.978  12.801
 7683W        W79354  12.774  12.240  13.554
 7684W        W79355  41.275  30.538   1.515
 7685W        W79356  36.363  44.983  12.414
 7686W        W79357  28.676   0.260  13.824
 7687W        W79358  11.184  14.218  13.151
 7688W        W79359   5.066  27.092   4.558
 7689W        W79360  14.992  43.189  12.536
 7690W        W79361  40.021  19.611   0.708
 7691W        W79362  35.339  38.010   4.530
 7692W        W79363  28.045  22.095  10.461
 7693W        W79364  31.105   5.437   3.598
 7694W        W79365  25.560  43.335  12.064
 7695W        W79366  19.594   2.511  11.636
 7696W        W79367  29.056  30.757   1.970
 7697W        W79368   0.658  44.768   2.355
 7698W        W79369  27.642  28.192   0.569
 7699W        W79370  27.458  18.099   3.720
 7700W        W79371  18.152  11.588   1.734
 7701W        W79372  32.007   8.491   0.005
 7702W        W79373  21.700   8.464  14.915
 7703W        W79374  15.540  30.424   2.921
 7704W        W79375  36.071  29.485  11.583
 7705W        W79376  31.438  10.878   2.816
 7706W        W79377  23.491   6.340  12.355
 7707W        W79378   2.703  38.661  10.779
 7708W        W79379   3.645  38.339  10.894
 7709W        W79380  36.002  41.202  11.137
 7710W        W79381  19.163  18.976   1.398
 7711W        W79382  20.707  34.490   3.768
 7712W        W79383  35.403   4.379   2.021
 7713W        W79384   7.980   7.419  11.886
 7714W        W79385  10.653  33.440   3.205
 7715W        W79386  42.960  27.184  10.976
 7716W        W79387  24.526  38.832   3.362
 7717W        W79388  31.796  36.017   1.960
 7718W        W79389   5.642  17.615   1.098
 7719W        W79390  30.409   7.777   1.186
 7720W        W79391  31.749  26.772   1.293
 7721W        W79392  21.374  39.213  10.627
 7722W        W79393  33.925  16.623   3.400
 7723W        W79394  19.705   0.792   0.017
 7724W        W79395  27.785  13.186   3.771
 7725W        W79396  21.963  35.999  10.668
 7726W        W79397  22.456   6.026  13.029
 7727W        W79398  42.833  43.516   4.189
 7728W        W79399  22.594  39.208  10.996
 7729W        W79400  40.406  34.003  13.570
 7730W        W79401  44.252  40.065  10.200
 7731W        W79402  39.500  15.270   2.798
 7732W        W79403  38.560  41.478   0.964
 7733W        W79404  18.381  11.116   5.069
 7734W        W79405  44.975  40.726  12.007
 7735W        W79406   1.200  43.657   3.709
 7736W        W79407  32.243  17.818   3.105
 7737W        W79408  17.360  31.101   0.656
 7738W        W79409  18.179  42.530   3.088
 7739W        W79410  23.965   3.920   4.201
 7740W        W79411  41.123  42.357  12.213
 7741W        W79412  27.151   3.659   2.649
 7742W        W79413  33.657  15.618  12.890
 7743W        W79414  42.043  22.776   0.374
 7744W        W79415   3.500  24.679  11.631
 7745W        W79416  36.108  11.193   1.019
 7746W        W79417   9.258  36.431  11.522
 7747W        W79418  24.978  16.076  11.604
 7748W        W79419  28.798  16.408  14.791
 7749W        W79420  33.671   6.333  11.590
 7750W        W79421  31.271  40.107  12.118
 7751W        W79422  23.930  14.735   2.716
 7752W        W79423  17.331  26.185  10.499
 7753W        W79424   5.493  41.025   3.642
 7754W        W79425   2.077   3.910  14.489
 7755W        W79426  13.831  11.217   4.191
 7756W        W79427  24.020  17.319   0.331
 7757W        W79428  44.716  22.239   3.842
 7758W        W79429  41.976  13.630  10.455
 7759W        W79430  34.370  15.192  11.221
 7760W        W79431  27.246  24.479   3.897
 7761W        W79432   5.434  26.123  13.322
 7762W        W79433  24.884  39.893   0.851
 7763W        W79434  23.579   3.397   2.327
 7764W        W79435  27.494  16.194  10.990
 7765W        W79436  39.950  27.501   2.230
 7766W        W79437  33.756  25.194  11.124
 7767W        W79438  27.614  21.279  13.218
 7768W        W79439  30.728  14.349   1.783
 7769W        W79440  44.989  33.066   0.941
 7770W        W79441  25.528  14.934  14.863
 7771W        W79442  36.948  33.954  10.731
 7772W        W79443  24.058   2.066   5.081
 7773W        W79444  31.995  19.300   0.426
 7774W        W79445  27.405  16.579  10.603
 7775W        W79446  31.423  13.163   2.873
 7776W        W79447  41.015   4.278   1.687
 7777W        W79448  25.555   2.252  14.953
 7778W        W79449  31.353  10.561   1.435
 7779W        W79450  20.489  12.670   3.641
 7780W        W79451  21.083  36.141   3.323
 7781W        W79452  32.624  25.990   1.404
 7782W        W79453  14.899  32.100   3.110
 7783W        W79454  32.204  19.854  11.621
 7784W        W79455  26.128   8.379   2.951
 7785W        W79456  25.690  18.093  13.449
 7786W        W79457   6.247  21.529   4.572
 7787W        W79458  17.959   0.859  14.403
 7788W        W79459  20.605  33.299  11.150
 7789W        W79460   0.421  38.723  11.809
 7790W        W79461  42.844  14.565  11.959
 7791W        W79462  41.781  14.340   2.726
 7792W        W79463  19.795  11.203  12.104
 7793W        W79464  24.216  26.903   4.117
 7794W        W79465  37.791  36.342   3.039
 7795W        W79466  15.006  28.187  13.674
 7796W        W79467   8.566   6.821  13.507
 7797W        W79468  23.721   5.196   0.700
 7798W        W79469  38.005  42.536   4.795
 7799W        W79470   4.863  28.606   2.771
 7800W        W79471  29.901  10.428  11.153
 7801W        W79472  18.108  30.769  14.865
 7802W        W79473   6.469   3.833  13.567
 7803W        W79474  42.423   0.947  11.472
 7804W        W79475   8.948  35.699  12.957
 7805W        W79476  38.081  26.336   3.202
 7806W        W79477  15.746   6.563  13.419
 7807W        W79478   0.828  35.620   4.612
 7808W        W79479  11.714  27.574  12.628
 7809W        W79480   9.723  42.323  14.997
 7810W        W79481  34.810  44.859   4.178
 7811W        W79482  32.176  39.925   2.272
 7812W        W79483   9.775  32.077  13.414
 7813W        W79484  44.060   3.834   3.763
 7814W        W79485  38.302  12.356  13.012
 7815W        W79486   4.198  44.030  10.650
 7816W        W79487  27.911  44.777  14.457
 7817W        W79488  43.294  15.178  13.123
 7818W        W79489  39.388  25.630   2.355
 7819W        W79490   2.471  11.355  13.820
 7820W        W79491   6.701  25.181  12.067
 7821W        W79492  42.047  18.518   4.704
 7822W        W79493   3.957  25.617  13.470
 7823W        W79494  22.068   9.416  11.431
 7824W        W79495  40.920   1.302   4.804
 7825W        W79496   2.395  40.592  14.602
 7826W        W79497  17.860  20.243  13.471
 7827W        W79498  26.978  36.480   2.418
 7828W        W79499  12.812  43.992   1.379
 7829W        W79500  18.968  24.600  11.686
 7830W        W79501  29.937   0.429   2.327
 7831W        W79502   8.794  31.766   5.077
 7832W        W79503   9.267  36.304   3.618
 7833W        W79504   6.786  34.653  11.237
 7834W        W79505   0.186  22.644  12.402
 7835W        W79506   5.922   2.706  13.088
 7836W        W79507  24.443  22.785  11.098
 7837W        W79508  21.738   8.731   3.849
 7838W        W79509  36.507  14.689  14.585
 7839W        W79510  24.135  40.953  14.531
 7840W        W79511  11.892  12.419  12.003
 7841W        W79512  38.019  13.877  13.585
 7842W        W79513  22.683   6.916   1.828
 7843W        W79514  36.423  33.817   4.149
 7844W        W79515  18.022  26.491  11.978
 7845W        W79516  11.729  10.148  13.537
 7846W        W79517  38.201  38.051   1.891
 7847W        W79518   9.691  26.072  11.416
 7848W        W79519   1.215  19.204  10.179
 7849W        W79520  13.680  25.984  13.944
 7850W        W79521  11.127  23.033   0.842
 7851W        W79522  11.830  31.560   4.678
 7852W        W79523  14.226   7.695   2.283
 7853W        W79524  24.193  31.945  13.957
 7854W        W79525  18.215  13.361   3.741
 7855W        W79526  44.935  17.057  13.005
 7856W        W79527  17.108  32.492  12.584
 7857W        W79528  14.701  44.494  12.343
 7858W        W79529  25.183  31.690   3.393
 7859W        W79530  22.097  35.910   3.724
 7860W        W79531  20.573   6.561  14.406
 7861W        W79532  38.484  30.925  12.027
 7862W        W79533  18.071  15.325   4.580
 7863W        W79534  33.421   9.386  13.383
 7864W        W79535  23.721  40.747   5.738
 7865W        W79536  31.299  37.037  11.923
 7866W        W79537   9.094   2.421   4.179
 7867W        W79538  43.795  12.171   3.344
 7868W        W79539  28.679  36.940  11.167
 7869W        W79540   5.831  25.683  11.772
 7870W        W79541   5.389  43.830  12.157
 7871W        W79542   7.988  23.872  14.157
 7872W        W79543   3.852  39.793  13.537
 7873W        W79544  21.022  39.539  10.472
 7874W        W79545   4.178  38.077   0.002
 7875W        W79546   6.606   2.339  11.078
 7876W        W79547  41.928   8.768  10.319
 7877W        W79548   2.301  19.691  12.142
 7878W        W79549   0.717  17.889  12.599
 7879W        W79550  43.014  19.505   2.385
 7880W        W79551   7.449  43.422  11.164
 7881W        W79552  17.345   1.290   4.934
 7882W        W79553  35.556   5.760   1.243
 7883W        W79554   7.224  22.165   4.135
 7884W        W79555   0.711  44.473  12.852
 7885W        W79556  31.381  12.336   1.276
 7886W        W79557  41.017  29.539   3.594
 7887W        W79558   9.699   0.409  12.151
 7888W        W79559  27.275  33.058   4.722
 7889W        W79560  12.512   0.484   2.256
 7890W        W79561  43.278  41.518   0.789
 7891W        W79562   2.799  21.663   2.204
 7892W        W79563  42.558  26.794   1.777
 7893W        W79564   7.925  33.992  13.805
 7894W        W79565   6.209  38.422  12.138
 7895W        W79566  16.688  27.568  11.335
 7896W        W79567  12.132  15.044   0.687
 7897W        W79568  26.895  39.803   3.450
 7898W        W79569   9.160  12.170   2.348
 7899W        W79570   1.780  41.561  12.934
 7900W        W79571  40.974  15.094  10.780
 7901W        W79572   4.550  10.327  11.697
 7902W        W79573   4.271  17.841  13.861
 7903W        W79574  11.560  22.319   2.344
 7904W        W79575  17.716  16.551  12.520
 7905W        W79576  22.922   5.231   1.315
 7906W        W79577  12.596  39.959   0.399
 7907W        W79578   1.807  41.213  14.823
 7908W        W79579  12.153   4.944   1.882
 7909W        W79580  22.227  19.283   1.470
 7910W        W79581  24.111  40.777  10.112
 7911W        W79582   7.244  33.155   0.371
 7912W        W79583  24.479  41.221  12.886
 7913W        W79584  41.664   5.303   2.972
 7914W        W79585   8.258  18.355  12.265
 7915W        W79586   2.532  29.712   1.385
 7916W        W79587   0.991   5.672  10.681
 7917W        W79588   8.310  17.764  12.625
 7918W        W79589  27.136   6.134  11.493
 7919W        W79590  14.616  26.591   0.473
 7920W        W79591  25.041  44.356  14.389
 7921W        W79592  42.020  42.853  12.439
 7922W        W79593  36.568  21.760   2.783
 7923W        W79594  29.003  25.164  11.671
 7924W        W79595  11.295  30.642  13.997
 7925W        W79596  28.507   1.296   4.833
 7926W        W79597   5.154   4.148   0.308
 7927W        W79598  13.828  41.755  12.601
 7928W        W79599  34.434  42.812  10.568
 7929W        W79600  15.343  12.807   0.752
 7930W        W79601  40.901  11.874  14.070
 7931W        W79602   3.209  20.257  11.532
 7932W        W79603  23.793  10.378   4.127
 7933W        W79604   6.455  30.627  10.744
 7934W        W79605   2.016   1.260   3.218
 7935W        W79606  36.635  23.149   2.802
 7936W        W79607  23.187  19.647   2.675
 7937W        W79608  33.151  12.635  13.503
 7938W        W79609  15.596  11.099   0.528
 7939W        W79610  24.006  16.633  12.586
 7940W        W79611  27.930  12.350  13.942
 7941W        W79612   6.789  38.000  10.783
 7942W        W79613  28.203  22.756   0.893
 7943W        W79614  10.909  24.967  13.274
 7944W        W79615  40.387  38.668  10.641
 7945W        W79616   9.972  35.613  13.059
 7946W        W79617  15.108  31.179  13.624
 7947W        W79618   6.297  35.797   0.304
 7948W        W79619  17.487  37.949   2.195
 7949W        W79620  39.223  40.205  10.865
 7950W        W79621  24.043   7.167   1.384
 7951W        W79622  38.326  37.924   4.632
 7952W        W79623  34.942  28.214  12.146
 7953W        W79624  41.094  29.034   4.642
 7954W        W79625  24.224  20.972  11.879
 7955W        W79626  32.031  15.816  14.835
 7956W        W79627  13.235  37.302  12.978
 7957W        W79628   2.457  32.636  14.306
 7958W        W79629   8.352  30.346  11.133
 7959W        W79630  18.243  44.944   0.773
 7960W        W79631  21.527  16.240  13.352
 7961W        W79632  20.528   3.759   2.885
 7962W        W79633  24.256  44.220   0.961
 7963W        W79634  15.075  34.387  11.531
 7964W        W79635  16.327  32.455  10.720
 7965W        W79636  39.918  21.476  14.399
 7966W        W79637  29.344   6.473   1.203
 7967W        W79638  34.377  29.732  13.828
 7968W        W79639   6.995  30.948   3.780
 7969W        W79640  41.293  34.388   0.782
 7970W        W79641  32.141   2.824  14.843
 7971W        W79642   3.495  17.846   0.256
 7972W        W79643  16.581  33.425   1.772
 7973W        W79644  11.554  11.267   1.151
 7974W        W79645   3.843  13.841   4.835
 7975W        W79646  14.729  18.858  12.021
 7976W        W79647  18.075  12.722  10.525
 7977W        W79648  12.652  35.869   1.857
 7978W        W79649  27.195  11.857   2.826
 7979W        W79650  33.971   5.496  12.167
 7980W        W79651  44.370  34.165  12.637
 7981W        W79652   5.191  24.613   4.884
 7982W        W79653  40.848  10.745   1.363
 7983W        W79654  27.847  42.318   4.166
 7984W        W79655  14.296  39.524   2.540
 7985W        W79656  40.395  13.011  14.707
 7986W        W79657  12.446  29.390   4.544
 7987W        W79658  13.756  11.847   3.651
 7988W        W79659   8.300  41.288  12.662
 7989W        W79660  20.548   9.864   4.693
 7990W        W79661  14.940  27.935   2.280
 7991W        W79662  34.492   9.634  14.747
 7992W        W79663  15.549   7.918   9.716
 7993W        W79664   7.405  42.330   1.707
 7994W        W79665  33.036  35.949   0.080
 7995W        W79666  38.793  32.254  11.403
 7996W        W79667  27.666  30.058  11.284
 7997W        W79668  20.953  23.108  14.983
 7998W        W79669  30.090  21.168  11.575
 7999W        W79670  17.182  42.279   3.219
 8000W        W79671  36.424  31.701   2.355
 8001W        W79672  41.811  28.010   4.332
 8002W        W79673   5.258   4.417  12.856
 8003W        W79674  42.999  24.588   0.674
 8004W        W79675  31.690  44.903   3.733
 8005W        W79676   1.726  24.765   4.012
 8006W        W79677  12.303   1.277  13.515
 8007W        W79678   6.766   0.733   1.035
 8008W        W79679  41.501  23.546   3.341
 8009W        W79680  25.634  15.909   2.181
 8010W        W79681  11.154  32.349   4.196
 8011W        W79682  38.527  29.671  11.139
 8012W        W79683  27.146  14.760  11.975
 8013W        W79684  33.842   6.714   3.351
 8014W        W79685  44.463  33.824   1.763
 8015W        W79686  43.120  25.611   2.775
 8016W        W79687  11.065  43.035   3.695
 8017W        W79688  41.421   9.864   0.380
 8018W        W79689  29.891  21.876   0.954
 8019W        W79690   0.015  17.871   0.840
 8020W        W79691  22.108  23.156   2.282
 8021W        W79692  41.627  19.792  11.497
 8022W        W79693  19.719   4.904  13.752
 8023W        W79694  14.431  38.086   3.052
 8024W        W79695  43.333  21.007   4.529
 8025W        W79696  35.273  13.763  11.558
 8026W        W79697  26.547  31.619  11.919
 8027W        W79698   1.174  22.546  14.772
 8028W        W79699   2.963   4.648  12.942
 8029W        W79700  11.388   1.312   3.061
 8030W        W79701  21.186  10.920  11.106
 8031W        W79702  17.760   6.135  14.918
 8032W        W79703  31.573   6.684   0.403
 8033W        W79704  20.783  44.002  12.389
 8034W        W79705   5.395   0.081   0.881
 8035W        W79706   0.335  19.309   3.794
 8036W        W79707   6.922  17.821  10.784
 8037W        W79708  42.006  30.473   3.672
 8038W        W79709  44.866  23.153   1.493
 8039W        W79710  12.618  42.073   1.610
 8040W        W79711  43.067  10.185   3.058
 8041W        W79712  11.425   9.799  13.279
 8042W        W79713  24.993  28.520  11.122
 8043W        W79714   4.900   9.483  10.494
 8044W        W79715  15.594   7.068  11.449
 8045W        W79716  37.806   8.171  12.887
 8046W        W79717  28.704  36.978   3.876
 8047W        W79718  40.581  40.528   2.833
 8048W        W79719  22.410  38.593   5.504
 8049W        W79720   3.458  22.012   1.233
 8050W        W79721  22.572  22.112  11.263
 8051W        W79722  26.002  16.745   4.697
 8052W        W79723  14.063  15.320   4.054
 8053W        W79724  37.931  35.528   0.718
 8054W        W79725   2.218  42.860  14.516
 8055W        W79726  21.988  39.481  12.963
 8056W        W79727   5.833  19.820   0.327
 8057W        W79728  18.449  34.439  12.141
 8058W        W79729  19.235  25.574   0.899
 8059W        W79730  38.882  40.537  13.167
 8060W        W79731  29.911  35.586   0.227
 8061W        W79732   0.702  42.022   3.274
 8062W        W79733   1.051  10.701   1.788
 8063W        W79734  37.845  40.864   4.148
 8064W        W79735  41.365  34.730  10.567
 8065W        W79736   7.884  22.646  13.964
 8066W        W79737  28.291  40.534   4.599
 8067W        W79738  36.661  37.871   2.702
 8068W        W79739  21.765  16.166   1.192
 8069W        W79740  16.071  27.504   4.548
 8070W        W79741  44.883  37.922   3.405
 8071W        W79742   7.390  12.090   3.811
 8072W        W79743  18.771  19.188   3.245
 8073W        W79744  16.789  18.900  14.392
 8074W        W79745  23.892  25.651   1.924
 8075W        W79746  35.095  44.585   0.964
 8076W        W79747   8.161  17.193   2.808
 8077W        W79748  21.736   5.806  12.448
 8078W        W79749  15.333  37.161  11.624
 8079W        W79750   3.665  28.524   3.617
 8080W        W79751  31.054  25.497   0.269
 8081W        W79752   5.573  43.464  13.781
 8082W        W79753  11.348  19.598   4.017
 8083W        W79754   7.910  35.638  14.191
 8084W        W79755   0.676  27.588   2.807
 8085W        W79756  21.506  13.566  14.009
 8086W        W79757   8.350   8.708  12.065
 8087W        W79758  35.376   3.295   5.054
 8088W        W79759  33.209  36.994   4.587
 8089W        W79760  15.338  31.907   0.560
 8090W        W79761   1.899  24.404  13.129
 8091W        W79762  34.175   3.213  13.047
 8092W        W79763  12.810  11.270   3.481
 8093W        W79764  23.700  20.031   1.380
 8094W        W79765  18.947  14.543   4.957
 8095W        W79766   6.940  10.228   2.292
 8096W        W79767  13.379  38.731   0.993
 8097W        W79768  24.234  30.363   2.620
 8098W        W79769   6.661   6.958   0.705
 8099W        W79770   2.990  44.355   0.904
 8100W        W79771  37.608   7.474   2.826
 8101W        W79772  29.546  11.443  12.006
 8102W        W79773  33.705  14.389  14.865
 8103W        W79774  12.854  28.371   4.665
 8104W        W79775  35.136  21.625  12.447
 8105W        W79776  10.840  36.571   0.866
 8106W        W79777  17.010  27.337  13.993
 8107W        W79778  33.055  40.749  13.108
 8108W        W79779  35.508  34.567  12.337
 8109W        W79780   7.820  23.007  12.890
 8110W        W79781  33.150  15.709   2.438
 8111W        W79782  14.422  33.993  11.991
 8112W        W79783   2.544  16.123  10.325
 8113W        W79784  23.645   9.331  12.448
 8114W        W79785  17.045  17.274   4.410
 8115W        W79786   7.834  41.489  12.786
 8116W        W79787  30.048  20.673   2.412
 8117W        W79788  26.696  33.954   1.384
 8118W        W79789  12.970  34.384   1.319
 8119W        W79790   6.911  12.875   3.737
 8120W        W79791  28.088  21.969   3.629
 8121W        W79792   3.330   7.372  11.592
 8122W        W79793  44.839   2.269  14.306
 8123W        W79794  37.077  11.729  11.459
 8124W        W79795  12.695  29.043  10.737
 8125W        W79796  24.525   7.620   2.971
 8126W        W79797  11.689  34.013  12.244
 8127W        W79798   9.597  36.057  14.804
 8128W        W79799  24.962  41.021   3.388
 8129W        W79800  14.999   7.334  14.316
 8130W        W79801  19.529   2.203  14.478
 8131W        W79802  18.601  17.343  14.299
 8132W        W79803   9.693  21.989   2.762
 8133W        W79804  23.060  33.648   2.403
 8134W        W79805  30.217   7.321   3.611
 8135W        W79806  20.588  43.416   4.686
 8136W        W79807  13.508  24.243  11.646
 8137W        W79808   6.162  36.291   0.397
 8138W        W79809  32.724  29.826  13.576
 8139W        W79810  38.431   5.408  11.242
 8140W        W79811  13.697  36.988  13.722
 8141W        W79812  41.830  11.156  13.381
 8142W        W79813  23.974  26.998   1.404
 8143W        W79814   6.314  25.429   4.632
 8144W        W79815  27.626  38.091  11.844
 8145W        W79816  37.747   2.759   0.634
 8146W        W79817  37.091  12.144  11.145
 8147W        W79818  10.688  22.785   2.423
 8148W        W79819  35.486  13.514  13.418
 8149W        W79820  22.055  37.081   2.491
 8150W        W79821  26.469  40.366   4.093
 8151W        W79822  24.739  22.469   2.752
 8152W        W79823  29.133  44.862   2.401
 8153W        W79824   8.798  17.196   1.417
 8154W        W79825   8.454   9.408   4.069
 8155W        W79826  12.851   4.813   1.258
 8156W        W79827  40.105  42.223  11.059
 8157W        W79828  15.956  39.750  14.950
 8158W        W79829  44.035  20.706  11.592
 8159W        W79830   9.758  16.057   2.438
 8160W        W79831  11.465   9.800   2.888
 8161W        W79832   7.436   9.893   4.418
 8162W        W79833  18.062  19.053  11.473
 8163W        W79834  31.048  12.266  10.731
 8164W        W79835   1.743   0.508   1.826
 8165W        W79836  10.505   3.710   4.115
 8166W        W79837  28.245  33.672   4.703
 8167W        W79838  33.795  29.958  12.389
 8168W        W79839  44.471  22.039  14.933
 8169W        W79840  31.450  38.614  14.898
 8170W        W79841  11.706  13.809  14.428
 8171W        W79842   8.391  43.763   4.645
 8172W        W79843  19.167  23.574   0.346
 8173W        W79844  14.739  44.479   2.736
 8174W        W79845  22.016  10.203   0.369
 8175W        W79846  38.607  34.090  10.563
 8176W        W79847  24.750  30.614   4.134
 8177W        W79848  10.274  20.245   3.987
 8178W        W79849   9.287  31.613  10.441
 8179W        W79850  24.724  37.222   4.227
 8180W        W79851  19.132  42.816  13.409
 8181W        W79852  39.339  10.149   1.398
 8182W        W79853  27.499  13.841  14.337
 8183W        W79854  34.970  41.652  13.500
 8184W        W79855   8.282   4.200   2.714
 8185W        W79856  43.460  21.549  12.106
 8186W        W79857  42.986   6.467  13.848
 8187W        W79858  38.306   5.794  12.396
 8188W        W79859  18.654  19.659   3.066
 8189W        W79860  18.503  20.629   0.938
 8190W        W79861  32.061  43.525   1.678
 8191W        W79862  14.212  20.559   0.277
 8192W        W79863  24.682  40.245  14.593
 8193W        W79864  41.733  35.464  11.950
 8194W        W79865   3.622  31.752  10.008
 8195W        W79866  35.309  39.325   2.186
 8196W        W79867  18.021  14.456   3.975
 8197W        W79868  41.437  20.057   3.908
 8198W        W79869  25.781  39.046   3.798
 8199W        W79870   7.818   2.730   3.710
 8200W        W79871  42.973  22.318  11.994
 8201W        W79872  39.512   2.728  13.397
 8202W        W79873   7.115   3.712  11.554
 8203W        W79874   2.908  28.011   0.927
 8204W        W79875   0.977   6.476   1.918
 8205W        W79876  31.081  35.002   1.750
 8206W        W79877  24.778  22.534  11.407
 8207W        W79878  34.739   9.850   2.212
 8208W        W79879  18.864  40.126   1.811
 8209W        W79880  43.039  40.194  12.580
 8210W        W79881  25.017   8.930   3.325
 8211W        W79882  39.519  18.862   1.724
 8212W        W79883  10.144  30.720   0.441
 8213W        W79884  19.297  28.382   1.365
 8214W        W79885  12.380  21.038  11.537
 8215W        W79886  37.555   1.328  11.445
 8216W        W79887  36.423   5.423  13.769
 8217W        W79888  29.156  17.135   0.389
 8218W        W79889  15.150  23.295   3.870
 8219W        W79890  13.907  25.987  11.182
 8220W        W79891  25.136  23.238   4.842
 8221W        W79892  32.525  26.202   3.417
 8222W        W79893  12.502  10.630   0.895
 8223W        W79894   0.593  10.193   3.123
 8224W        W79895  18.723  35.501  11.139
 8225W        W79896  23.052  36.386   1.935
 8226W        W79897   1.288  17.195   0.870
 8227W        W79898  43.589  18.236   1.358
 8228W        W79899  34.646   8.607  10.451
 8229W        W79900  11.695  17.059   2.577
 8230W        W79901  27.936  25.613   1.922
 8231W        W79902  17.237  10.551  11.521
 8232W        W79903  44.384  39.525  10.856
 8233W        W79904  26.778  41.839  12.855
 8234W        W79905  35.362  36.021   3.701
 8235W        W79906  27.169   2.918  12.473
 8236W        W79907  11.898   4.784   0.374
 8237W        W79908   3.877   1.765  13.472
 8238W        W79909   6.417  12.424   2.588
 8239W        W79910  23.862  44.908  13.344
 8240W        W79911  16.160  25.044  13.745
 8241W        W79912  25.922  34.612  12.900
 8242W        W79913   2.210  37.579  14.785
 8243W        W79914   5.320   0.849   3.178
 8244W        W79915  38.958  15.713   3.547
 8245W        W79916   1.714  44.678   2.106
 8246W        W79917  24.592  29.672   3.142
 8247W        W79918   3.786   8.767  12.488
 8248W        W79919  42.779  37.789  13.059
 8249W        W79920  18.844   8.274   3.291
 8250W        W79921  17.452  42.100   2.313
 8251W        W79922  15.760  42.909   0.265
 8252W        W79923  39.740   6.761  13.546
 8253W        W79924  42.345   1.385  12.076
 8254W        W79925   4.805  17.759  10.281
 8255W        W79926   0.295   4.784  10.609
 8256W        W79927  34.112  30.208  13.834
 8257W        W79928  22.193  18.841  11.980
 8258W        W79929  12.651  20.517   4.649
 8259W        W79930  35.210   8.172  12.479
 8260W        W79931  24.541  29.054  12.710
 8261W        W79932  28.489  21.898  12.675
 8262W        W79933  27.801  32.964  13.529
 8263W        W79934  41.795  19.551  11.072
 8264W        W79935  18.487  24.690   3.816
 8265W        W79936   6.225  23.652   3.600
 8266W        W79937  37.340   0.422  12.578
 8267W        W79938  35.176   7.810   0.748
 8268W        W79939  27.649  10.864  12.016
 8269W        W79940  22.266  15.290  12.406
 8270W        W79941  40.066  41.552   2.534
 8271W        W79942   5.752  39.981   0.229
 8272W        W79943  19.081   0.398   0.857
 8273W        W79944  16.245  13.775   2.188
 8274W        W79945  13.673  15.207   2.805
 8275W        W79946  22.601  32.029   2.417
 8276W        W79947  31.612  22.045  12.494
 8277W        W79948  33.168  18.593   4.225
 8278W        W79949   7.412  24.055  14.909
 8279W        W79950  34.059  39.968  14.791
 8280W        W79951   4.808  24.579  10.477
 8281W        W79952  26.424  41.282  13.478
 8282W        W79953  32.052  43.512   2.239
 8283W        W79954  16.175  27.311  10.512
 8284W        W79955   8.823  27.612  10.759
 8285W        W79956  25.309  29.071  14.504
 8286W        W79957  11.258  13.539  14.469
 8287W        W79958  42.906  15.795  14.710
 8288W        W79959   9.836  12.048  13.912
 8289W        W79960  25.992  30.050   0.292
 8290W        W79961  39.755  29.839   4.210
 8291W        W79962  22.809  22.517  13.913
 8292W        W79963  22.696  12.806   2.170
 8293W        W79964  29.706   4.324  10.790
 8294W        W79965  13.502  22.430   0.342
 8295W        W79966  25.021  40.969   4.827
 8296W        W79967  39.891  11.181   2.886
 8297W        W79968  41.892   5.292   0.035
 8298W        W79969  34.649  26.131  10.666
 8299W        W79970  23.246  44.682   4.634
 8300W        W79971  35.491  28.546  11.628
 8301W        W79972  35.271   0.135  12.967
 8302W        W79973  37.148   5.784  14.277
 8303W        W79974  40.831  22.733   2.604
 8304W        W79975  24.627  40.313  13.087
 8305W        W79976  40.539  41.002   0.452
 8306W        W79977   7.746  20.686  11.545
 8307W        W79978  27.077  10.154   5.042
 8308W        W79979  10.692  11.659   2.697
 8309W        W79980  26.670  23.839   5.114
 8310W        W79981  10.741  17.668   1.331
 8311W        W79982  12.809  33.695   2.736
 8312W        W79983   0.833  33.560  10.684
 8313W        W79984  39.064  35.271  14.474
 8314W        W79985  40.480  44.402  11.387
 8315W        W79986  27.561   6.941  14.207
 8316W        W79987  41.327  31.648  14.316
 8317W        W79988  41.512  24.978   1.490
 8318W        W79989  14.631   5.638  13.445
 8319W        W79990  42.794   2.424   4.515
 8320W        W79991  12.316  29.425   4.058
 8321W        W79992   0.938   0.326   2.736
 8322W        W79993  16.287  30.696  11.037
 8323W        W79994  37.009  44.493  13.462
 8324W        W79995  19.048  34.438  14.649
 8325W        W79996  24.468  38.911  11.324
 8326W        W79997  34.397   4.242   4.052
 8327W        W79998  34.495  40.641   2.380
 8328W        W79999  16.922  41.886  13.782
 8329W        W80000   8.285  15.482   2.726
 8330W        W80001  29.568   1.456  13.932
 8331W        W80002  26.580  11.928   0.850
 8332W        W80003  24.953   7.188  14.028
 8333W        W80004  24.095  17.995  14.243
 8334W        W80005   7.754  38.433  14.254
 8335W        W80006  44.131  41.793   1.976
 8336W        W80007   1.305  15.595   1.507
 8337W        W80008  29.460   9.381  10.600
 8338W        W80009  32.355  37.939  13.808
 8339W        W80010  33.941  39.121  13.394
 8340W        W80011  21.742   9.539   4.280
 8341W        W80012  14.257   4.010   1.805
 8342W        W80013  35.017  44.747   4.638
 8343W        W80014   6.910  33.993   1.560
 8344W        W80015   0.358  13.159  11.741
 8345W        W80016  32.671  14.023  14.138
 8346W        W80017  19.483   4.256  13.526
 8347W        W80018  14.265   5.475   4.661
 8348W        W80019  27.711  42.765  11.580
 8349W        W80020  18.070  41.400  13.870
 8350W        W80021  35.136   0.599  12.024
 8351W        W80022  23.073   7.039   1.159
 8352W        W80023  22.673   2.752   1.950
 8353W        W80024  36.952  27.154   3.212
 8354W        W80025  42.385  42.240  10.752
 8355W        W80026  16.822  39.510   3.715
 8356W        W80027   9.845  37.773   2.348
 8357W        W80028  14.208  37.988   2.579
 8358W        W80029  24.669  14.839   2.373
 8359W        W80030  38.440  31.922  11.211
 8360W        W80031  24.061  10.298  14.310
 8361W        W80032  40.463  15.832   4.575
 8362W        W80033   9.670  32.203   2.438
 8363W        W80034  40.657  31.570   1.309
 8364W        W80035  11.182  30.908  14.498
 8365W        W80036  35.392  31.399  12.140
 8366W        W80037   9.225  39.909   2.343
 8367W        W80038  39.295  24.754  14.915
 8368W        W80039  31.664  29.505   1.796
 8369W        W80040  38.589   2.480  13.459
 8370W        W80041  21.642  34.510   0.029
 8371W        W80042  27.152   6.021   2.324
 8372W        W80043  33.035  36.971   4.102
 8373W        W80044  21.890   6.283  11.598
 8374W        W80045  29.582  42.291  13.359
 8375W        W80046  28.936  26.591  14.560
 8376W        W80047  17.851  43.872   2.364
 8377W        W80048  18.612  43.994  10.785
 8378W        W80049  17.155  39.119  13.116
 8379W        W80050  40.370  12.964  11.117
 8380W        W80051   6.496  28.154  12.423
 8381W        W80052  10.277   9.327  10.913
 8382W        W80053  42.061  31.696  12.448
 8383W        W80054  40.454  34.743   5.080
 8384W        W80055   0.922  18.949   2.112
 8385W        W80056   3.042  29.419  14.389
 8386W        W80057  14.647  26.182   4.521
 8387W        W80058  38.221   8.939  10.631
 8388W        W80059   5.399  32.137   1.174
 8389W        W80060   6.696  27.513   4.686
 8390W        W80061  25.981   0.789   3.697
 8391W        W80062  10.739   4.788  14.507
 8392W        W80063  40.861  40.494   9.872
 8393W        W80064   1.244  24.225  12.107
 8394W        W80065  44.939  32.807  10.770
 8395W        W80066   7.268  36.618   2.366
 8396W        W80067  40.422  44.084   0.732
 8397W        W80068  44.939  31.415  10.365
 8398W        W80069  11.891  37.374   1.834
 8399W        W80070  30.968  28.049   0.761
 8400W        W80071  18.147  34.045   4.261
 8401W        W80072  14.612   2.250   1.815
 8402W        W80073  21.206   9.828   2.458
 8403W        W80074  21.228   3.296  10.476
 8404W        W80075  36.284  28.052  12.461
 8405W        W80076  31.572  23.766   2.347
 8406W        W80077  15.548  12.993  14.843
 8407W        W80078  35.030  12.150   2.283
 8408W        W80079  21.442   1.882   3.507
 8409W        W80080   0.292  23.110  10.688
 8410W        W80081  16.874  36.513   0.415
 8411W        W80082  36.952  39.404  12.335
 8412W        W80083  25.433   3.739  11.735
 8413W        W80084  14.092  43.546   1.318
 8414W        W80085  40.131  39.469  11.631
 8415W        W80086  29.710  16.062  14.458
 8416W        W80087  26.039  38.415   4.495
 8417W        W80088  28.882   3.031  11.004
 8418W        W80089  30.073  38.914   3.745
 8419W        W80090  24.301  25.597  14.833
 8420W        W80091  21.026  27.795  11.988
 8421W        W80092  38.125  20.767  10.434
 8422W        W80093  27.448  35.326   2.724
 8423W        W80094  11.641  36.015  10.155
 8424W        W80095  13.053   5.232   0.983
 8425W        W80096   3.813  26.438  11.023
 8426W        W80097  43.557  37.355   4.353
 8427W        W80098  16.556   6.347   5.054
 8428W        W80099   7.826  28.491   0.717
 8429W        W80100   7.966  13.626  10.674
 8430W        W80101   1.392  19.700  10.152
 8431W        W80102   4.975  11.333  12.821
 8432W        W80103  20.051  24.590   2.213
 8433W        W80104  13.646  11.654   4.654
 8434W        W80105  38.234   5.874   0.357
 8435W        W80106  37.672  16.274   0.885
 8436W        W80107  44.915  36.346   3.091
 8437W        W80108  14.160   8.019  10.879
 8438W        W80109   2.718  42.613  10.914
 8439W        W80110  39.928  35.375   3.685
 8440W        W80111  26.239  25.668   4.035
 8441W        W80112  32.442  26.431   4.856
 8442W        W80113  15.137   5.055  11.847
 8443W        W80114  12.282   0.459   1.811
 8444W        W80115  40.382  23.681  14.928
 8445W        W80116  25.146  41.570   2.267
 8446W        W80117  22.674  15.907  12.456
 8447W        W80118  31.677  10.442   2.658
 8448W        W80119  39.980   4.192   1.730
 8449W        W80120   1.984  42.483  12.587
 8450W        W80121  19.759  33.556   2.297
 8451W        W80122  17.175  40.277   4.774
 8452W        W80123  28.216  30.294   9.892
 8453W        W80124   4.351  40.337   3.390
 8454W        W80125  32.335  21.531   0.497
 8455W        W80126  42.876   9.490   1.372
 8456W        W80127  34.827  32.572  13.408
 8457W        W80128  27.044   8.342   2.754
 8458W        W80129  17.673  16.800  11.628
 8459W        W80130  40.886  14.307  14.088
 8460W        W80131  23.767  24.577  11.462
 8461W        W80132  15.642  22.277  14.873
 8462W        W80133  20.150   1.923   2.370
 8463W        W80134  19.012  11.366   3.254
 8464W        W80135  43.017  39.714  12.387
 8465W        W80136  14.663   6.828  11.655
 8466W        W80137  31.580  34.364   4.592
 8467W        W80138  33.585  34.338  14.675
 8468W        W80139  36.401  12.569   4.256
 8469W        W80140  28.480  24.999  10.712
 8470W        W80141   4.496  37.615   2.825
 8471W        W80142  37.843  32.189   4.097
 8472W        W80143   6.407   9.205   2.905
 8473W        W80144   4.858  22.201   1.366
 8474W        W80145   0.901  40.510   4.035
 8475W        W80146  12.309   2.789  13.963
 8476W        W80147   4.980  20.651   4.769
 8477W        W80148  32.598  41.779  12.793
 8478W        W80149  18.207  22.054  11.696
 8479W        W80150   8.466   1.696   1.737
 8480W        W80151  36.303  28.951   2.335
 8481W        W80152  17.675   6.051   9.748
 8482W        W80153  37.372   9.845  11.711
 8483W        W80154  43.578  17.578  13.789
 8484W        W80155  41.872  38.730   2.770
 8485W        W80156   9.893  13.414  13.926
 8486W        W80157  37.845  43.889  12.087
 8487W        W80158  40.998   8.228  12.882
 8488W        W80159   9.085  25.910  13.803
 8489W        W80160  15.193   6.380  13.924
 8490W        W80161  10.368  26.620  14.065
 8491W        W80162   5.406  26.287   4.832
 8492W        W80163  19.010  38.471  10.979
 8493W        W80164  10.061  38.835   4.702
 8494W        W80165  21.727   6.885  10.871
 8495W        W80166  40.868  26.663  14.638
 8496W        W80167  18.558  31.143   4.653
 8497W        W80168  12.787  24.185   2.975
 8498W        W80169  27.989  35.002  10.686
 8499W        W80170   4.298   5.129   3.099
 8500W        W80171  15.101  23.159   2.913
 8501W        W80172  35.870  28.819   2.597
 8502W        W80173   7.915  22.616  12.565
 8503W        W80174   4.889   6.204  11.227
 8504W        W80175   4.736  22.604   2.183
 8505W        W80176  10.609  30.674   2.169
 8506W        W80177   8.296   2.003   1.316
 8507W        W80178  15.420  24.681   0.862
 8508W        W80179  28.320  13.185   2.721
 8509W        W80180   8.066  15.997  13.407
 8510W        W80181  28.682  17.988   2.607
 8511W        W80182  33.054  17.739   0.965
 8512W        W80183   6.712  33.057   1.217
 8513W        W80184  13.195  26.010  13.012
 8514W        W80185  23.976  15.109  12.877
 8515W        W80186  10.790  42.796  14.772
 8516W        W80187  34.068   2.177  12.952
 8517W        W80188  36.978  37.909   2.309
 8518W        W80189   8.233  40.269   0.901
 8519W        W80190  24.286  41.377   4.491
 8520W        W80191  19.872  34.841  11.489
 8521W        W80192  31.984  16.764  12.415
 8522W        W80193  21.083  10.765  14.418
 8523W        W80194  11.685   1.498   4.473
 8524W        W80195   1.398  32.162   1.715
 8525W        W80196  37.401  21.129  13.853
 8526W        W80197   6.724  42.471   0.368
 8527W        W80198  15.610   3.697  13.095
 8528W        W80199  18.089  17.315   0.205
 8529W        W80200  19.253   2.273  12.858
 8530W        W80201  31.453  19.798  13.811
 8531W        W80202  37.166  30.687  11.733
 8532W        W80203   7.135  18.788  13.410
 8533W        W80204  25.691   2.302  10.674
 8534W        W80205  17.781  26.139  14.933
 8535W        W80206  42.188  44.090  14.439
 8536W        W80207  18.041   0.140   4.598
 8537W        W80208  34.878  34.251   1.182
 8538W        W80209  10.967  36.800  14.482
 8539W        W80210  19.211   7.860   0.344
 8540W        W80211  34.993  33.319   5.018
 8541W        W80212  32.603  42.998  14.734
 8542W        W80213  27.153   1.014  10.704
 8543W        W80214  20.124  35.329   1.693
 8544W        W80215  16.990  12.895  11.183
 8545W        W80216  26.086   6.368   4.656
 8546W        W80217  29.675  15.035   4.164
 8547W        W80218  19.220  24.084   0.271
 8548W        W80219  44.402  30.542   1.476
 8549W        W80220  39.653  34.535   2.727
 8550W        W80221   7.714  43.513  14.280
 8551W        W80222  29.460   6.437  13.815
 8552W        W80223  32.360  16.108  12.010
 8553W        W80224  35.629  18.789  14.104
 8554W        W80225   7.692  11.587  11.570
 8555W        W80226  19.158  36.032   0.986
 8556W        W80227  15.353   4.526   0.761
 8557W        W80228   0.050  36.899  10.641
 8558W        W80229   6.721   8.420  13.451
 8559W        W80230  12.724  36.384   2.914
 8560W        W80231  29.651  13.974   4.041
 8561W        W80232   2.097  23.831   4.326
 8562W        W80233  24.814   7.193   1.984
 8563W        W80234   5.942   6.649   2.577
 8564W        W80235  38.953  30.752  14.945
 8565W        W80236  19.535   0.941  14.027
 8566W        W80237  44.971  22.741   0.405
 8567W        W80238  42.420  33.873   4.396
 8568W        W80239  17.264  29.400   3.158
 8569W        W80240  35.855   4.365   3.617
 8570W        W80241  30.357   3.338   4.605
 8571W        W80242  17.069   5.721   5.055
 8572W        W80243  23.739  43.352   0.243
 8573W        W80244  19.585  44.279  13.704
 8574W        W80245  12.313   3.215  13.269
 8575W        W80246  34.300   8.709   3.422
 8576W        W80247  41.809  12.853  12.196
 8577W        W80248  21.085  26.618  10.712
 8578W        W80249  24.358  13.240   4.188
 8579W        W80250   1.970  44.611  10.943
 8580W        W80251   8.014  17.776  11.097
 8581W        W80252  35.388  19.585  12.621
 8582W        W80253  31.054   6.754  11.564
 8583W        W80254  17.655  11.197  14.552
 8584W        W80255   5.296   6.271  12.504
 8585W        W80256  34.373  24.129  11.012
 8586W        W80257  37.329  18.016   2.064
 8587W        W80258  28.696  31.528  12.899
 8588W        W80259  31.505  18.771   1.280
 8589W        W80260  24.669  13.324  14.113
 8590W        W80261  15.207   5.178  10.921
 8591W        W80262  25.963  22.242   0.260
 8592W        W80263  19.807   5.431  10.564
 8593W        W80264  26.447  21.716   4.018
 8594W        W80265  41.427  41.241  10.120
 8595W        W80266  15.344  25.169  14.442
 8596W        W80267  37.890  37.630   5.054
 8597W        W80268   2.914  24.292  11.873
 8598W        W80269  21.678  37.092   3.731
 8599W        W80270   1.737  30.551  12.183
 8600W        W80271  42.811   3.861   3.410
 8601W        W80272  43.377  17.539  11.646
 8602W        W80273  43.525  32.647  11.050
 8603W        W80274  36.552  17.896  10.132
 8604W        W80275  19.145  38.577  14.756
 8605W        W80276  40.721  31.617   0.783
 8606W        W80277   2.478  31.667  12.522
 8607W        W80278  35.916   8.254   2.682
 8608W        W80279  33.084   7.435  14.007
 8609W        W80280  31.085  25.110   3.685
 8610W        W80281  22.178   6.866  13.478
 8611W        W80282  10.209  43.370  11.453
 8612W        W80283  42.881  16.801   3.340
 8613W        W80284  28.052   4.663   2.882
 8614W        W80285  30.699  29.872  12.495
 8615W        W80286   5.982   4.573   1.671
 8616W        W80287  15.378  32.660   1.785
 8617W        W80288  27.068   8.998  11.084
 8618W        W80289  24.714   2.677   2.279
 8619W        W80290   4.211   3.096   1.912
 8620W        W80291  20.263  34.628  12.783
 8621W        W80292  30.075  42.441  12.005
 8622W        W80293   1.784  21.214   4.879
 8623W        W80294  16.074   2.048   1.669
 8624W        W80295  26.236  37.453  10.561
 8625W        W80296  21.681  24.121  14.385
 8626W        W80297  15.769  28.441   4.819
 8627W        W80298  11.414  41.426   2.376
 8628W        W80299  25.763   9.424   0.464
 8629W        W80300  29.495   4.823  10.639
 8630W        W80301  35.342  14.323  12.406
 8631W        W80302  20.122   0.993   3.663
 8632W        W80303  10.885  24.248  12.854
 8633W        W80304   5.695  24.252  13.972
 8634W        W80305  27.098  41.069  13.085
 8635W        W80306   0.989  22.681   0.375
 8636W        W80307  24.805  26.980  10.597
 8637W        W80308  42.015  20.306   4.256
 8638W        W80309  43.534  23.602  12.979
 8639W        W80310  43.822  23.477  13.931
 8640W        W80311  27.109   7.543   2.270
 8641W        W80312  31.336   4.333   1.482
 8642W        W80313  14.838  20.351  13.924
 8643W        W80314   1.838   9.171   2.375
 8644W        W80315  28.091  32.174  14.475
 8645W        W80316  34.461  31.976  12.355
 8646W        W80317  26.125  43.334  11.473
 8647W        W80318   4.606   9.464   2.273
 8648W        W80319  34.302  31.703   0.826
 8649W        W80320  15.665   4.152   4.560
 8650W        W80321   1.061   4.994  14.022
 8651W        W80322  19.109  16.094  10.356
 8652W        W80323  42.977  22.036  10.659
 8653W        W80324  39.771  16.445  11.311
 8654W        W80325  37.956  14.733  13.528
 8655W        W80326  20.697  42.859  10.638
 8656W        W80327  18.692   9.212  14.728
 8657W        W80328  22.540  31.687   4.169
 8658W        W80329  14.676  12.606  10.581
 8659W        W80330  17.217  44.299  13.872
 8660W        W80331  40.806   0.084   0.475
 8661W        W80332  40.376  21.243   5.167
 8662W        W80333  26.309  41.309  10.742
 8663W        W80334  42.040   6.814   0.684
 8664W        W80335   5.320  32.623   1.328
 8665W        W80336  17.731  38.968   3.710
 8666W        W80337  11.119  16.343  12.330
 8667W        W80338   0.487  43.861   2.376
 8668W        W80339  12.373  35.484   0.985
 8669W        W80340  10.456   7.498  14.354
 8670W        W80341  20.675  33.468   3.679
 8671W        W80342  22.193  40.559   9.684
 8672W        W80343  19.728  20.258  10.959
 8673W        W80344  26.690  18.337  12.483
 8674W        W80345  37.360   8.920  11.506
 8675W        W80346  12.883  11.905   4.121
 8676W        W80347  15.934   7.227   0.845
 8677W        W80348  25.274  15.253   0.820
 8678W        W80349  41.909   2.870   4.575
 8679W        W80350  22.039  44.979   1.258
 8680W        W80351  42.342  20.587  14.022
 8681W        W80352   1.396  42.453   4.834
 8682W        W80353  33.968  37.610   3.264
 8683W        W80354  44.288   6.287   0.842
 8684W        W80355  35.041  37.509  13.234
 8685W        W80356   7.940  11.704   1.876
 8686W        W80357  35.466  27.395   1.755
 8687W        W80358  39.091   1.709   3.674
 8688W        W80359  43.303  25.747   3.267
 8689W        W80360  31.447  24.176  12.656
 8690W        W80361   5.270  41.992   1.203
 8691W        W80362  19.235  43.862   0.004
 8692W        W80363   1.274   5.837  14.415
 8693W        W80364  15.721  29.137   1.351
 8694W        W80365  30.495   4.187   1.160
 8695W        W80366  29.352  31.152   1.741
 8696W        W80367  36.587  11.447   3.413
 8697W        W80368   4.910  19.128   3.694
 8698W        W80369  37.121   2.430   2.846
 8699W        W80370   0.230  13.807   3.900
 8700W        W80371  14.873  15.723  14.424
 8701W        W80372  44.579  22.977  12.942
 8702W        W80373  41.888  19.476   3.162
 8703W        W80374  39.373  17.657  10.487
 8704W        W80375  34.863  21.458  12.027
 8705W        W80376  28.454  27.404   0.387
 8706W        W80377  42.819  29.938  13.730
 8707W        W80378  15.858  41.044  12.956
 8708W        W80379   3.371  42.029  14.478
 8709W        W80380  14.075  18.720  13.019
 8710W        W80381  24.040  24.789  13.817
 8711W        W80382   1.482  26.719   0.950
 8712W        W80383  41.063  13.630  10.719
 8713W        W80384  12.827  11.396   4.054
 8714W        W80385   7.963  40.878  12.062
 8715W        W80386  23.019  42.366   4.920
 8716W        W80387  23.093  44.647   0.189
 8717W        W80388  21.519   1.483  12.523
 8718W        W80389  10.438  18.295   0.806
 8719W        W80390   2.791   5.882  10.658
 8720W        W80391  37.335  41.522  14.163
 8721W        W80392  23.587  35.153   0.319
 8722W        W80393  20.822  17.775   1.750
 8723W        W80394   8.388  35.335   2.696
 8724W        W80395  30.901  34.455   1.178
 8725W        W80396  10.219  30.581  10.666
 8726W        W80397  18.693  19.837  13.457
 8727W        W80398  32.613  21.768  10.631
 8728W        W80399  40.475  31.461   3.566
 8729W        W80400  17.685  16.011  12.510
 8730W        W80401  43.419  27.703  14.819
 8731W        W80402   3.865  11.148  14.921
 8732W        W80403  16.798  14.613  11.128
 8733W        W80404  28.892  24.955   2.169
 8734W        W80405  34.453  31.367  11.543
 8735W        W80406   3.948  21.181  10.194
 8736W        W80407   8.929   3.934  13.425
 8737W        W80408  27.290   9.292   9.855
 8738W        W80409   3.039  24.214   0.919
 8739W        W80410  39.507  19.005  13.406
 8740W        W80411  14.186  41.212  13.383
 8741W        W80412  25.627  33.413  10.694
 8742W        W80413  25.129  10.334   3.390
 8743W        W80414  40.487   2.946  10.661
 8744W        W80415  25.710   4.638  13.038
 8745W        W80416  28.091  34.370   4.144
 8746W        W80417  29.570  15.770  11.135
 8747W        W80418  10.955  26.227  12.983
 8748W        W80419  43.562   7.383  13.935
 8749W        W80420   3.359  40.477   3.616
 8750W        W80421  35.629  13.670   4.624
 8751W        W80422   8.900  29.357   2.212
 8752W        W80423  32.434  25.732   1.867
 8753W        W80424   1.790  23.664   4.731
 8754W        W80425  16.105   1.694   3.968
 8755W        W80426  40.150  40.717  14.483
 8756W        W80427  13.586   2.913   2.976
 8757W        W80428  12.135  40.398  13.890
 8758W        W80429   2.947   9.725  14.053
 8759W        W80430  30.474  32.055  14.796
 8760W        W80431  13.830  25.204   0.403
 8761W        W80432  40.459   8.906  14.742
 8762W        W80433  24.158   6.780   0.610
 8763W        W80434  16.639  18.693   3.413
 8764W        W80435  11.645   0.717  13.395
 8765W        W80436  44.559  29.939  13.895
 8766W        W80437  42.483  40.469   4.527
 8767W        W80438  29.339   4.454  14.960
 8768W        W80439  27.434  42.665   0.780
 8769W        W80440   5.453  43.657   0.342
 8770W        W80441   6.208   1.517  10.700
 8771W        W80442  16.475  31.322   3.204
 8772W        W80443  29.466  23.280  10.523
 8773W        W80444  12.867  15.486   0.855
 8774W        W80445  15.903   8.892  13.870
 8775W        W80446  20.326  27.917   2.241
 8776W        W80447  16.146  31.569   0.397
 8777W        W80448   3.007  32.992   0.314
 8778W        W80449   5.591  29.926   4.295
 8779W        W80450  26.501  12.200  12.817
 8780W        W80451  36.624  13.721   0.470
 8781W        W80452  12.102  31.121   2.021
 8782W        W80453  42.007   1.960   1.927
 8783W        W80454  25.187  34.889  14.568
 8784W        W80455  39.895   6.239  13.427
 8785W        W80456  14.518   0.230   1.179
 8786W        W80457  20.788  17.488  13.700
 8787W        W80458   4.156  11.635   3.278
 8788W        W80459  40.366  20.971   2.892
 8789W        W80460  26.018  14.385   2.851
 8790W        W80461   8.486  43.554   4.184
 8791W        W80462  22.792  30.180   4.159
 8792W        W80463   8.817  12.456  13.513
 8793W        W80464  42.034  13.280  14.493
 8794W        W80465  30.630  14.767  14.941
 8795W        W80466   3.059  24.326  14.531
 8796W        W80467  35.324   9.589   0.838
 8797W        W80468  43.773  29.953   1.586
 8798W        W80469  20.970  12.879  14.977
 8799W        W80470  28.171  42.012  13.472
 8800W        W80471   4.307  23.159   0.486
 8801W        W80472  15.883   1.290   4.715
 8802W        W80473  20.342   4.184  12.556
 8803W        W80474   6.554   5.402   1.307
 8804W        W80475  35.548  43.458  13.880
 8805W        W80476  22.902  11.909  12.945
 8806W        W80477  40.023  22.434   4.058
 8807W        W80478   6.835   9.455  12.018
 8808W        W80479   6.788   7.714  14.698
 8809W        W80480  28.198  23.702   0.269
 8810W        W80481  17.160   5.501  10.515
 8811W        W80482  24.576  17.782   0.554
 8812W        W80483  19.653  14.299   1.157
 8813W        W80484   9.298  12.223   2.863
 8814W        W80485  42.429  38.027   4.095
 8815W        W80486  20.758  22.269  13.217
 8816W        W80487  34.215   0.543  11.593
 8817W        W80488  43.777  35.334  12.910
 8818W        W80489  31.425   6.926   3.350
 8819W        W80490   3.755  17.185  12.965
 8820W        W80491  27.672   3.277  13.373
 8821W        W80492  21.690   5.378  12.170
 8822W        W80493  39.190  21.353  11.902
 8823W        W80494  35.038   0.207  14.703
 8824W        W80495  10.287  40.401   3.361
 8825W        W80496  42.726   3.386  11.841
 8826W        W80497  37.839  24.792   0.278
 8827W        W80498  16.314   3.815   1.949
 8828W        W80499  42.239  12.118   2.794
 8829W        W80500  27.066  41.813  10.404
 8830W        W80501  24.440  29.734  12.909
 8831W        W80502  15.062  18.461  12.040
 8832W        W80503  10.456  42.789   0.781
 8833W        W80504  13.273  41.559   0.786
 8834W        W80505  25.518   2.735  13.954
 8835W        W80506  31.167  39.842  13.206
 8836W        W80507  42.688  38.530   9.755
 8837W        W80508  24.487  22.233  13.643
 8838W        W80509  27.496  12.577  11.989
 8839W        W80510  10.077  37.422   3.166
 8840W        W80511   8.405  25.291   3.641
 8841W        W80512  41.877  11.299   1.732
 8842W        W80513   4.530   8.731  14.826
 8843W        W80514  17.643  31.703   3.911
 8844W        W80515  25.399  39.402  12.041
 8845W        W80516  42.065   1.785  13.708
 8846W        W80517  26.536   0.758   4.584
 8847W        W80518   2.352  23.183   1.165
 8848W        W80519   7.229  22.189  13.607
 8849W        W80520   3.547  14.234   4.591
 8850W        W80521  33.202   1.517  13.849
 8851W        W80522   5.506  42.598  12.874
 8852W        W80523  19.013  15.725   2.660
 8853W        W80524   6.109  38.435   4.084
 8854W        W80525  40.297  19.286  14.895
 8855W        W80526  43.524  25.594   4.086
 8856W        W80527  22.632  31.630   3.328
 8857W        W80528  12.638  12.733   3.669
 8858W        W80529   6.794  41.512   1.896
 8859W        W80530  15.352  11.939  13.814
 8860W        W80531  25.547  10.931  13.593
 8861W        W80532  26.249  21.167   4.559
 8862W        W80533   9.649  31.542   0.799
 8863W        W80534  34.645   5.797   2.705
 8864W        W80535  20.254  16.135  13.920
 8865W        W80536  22.456  29.572   1.726
 8866W        W80537  22.434  43.964  10.722
 8867W        W80538  35.642  38.262   1.412
 8868W        W80539  43.382  33.843  10.972
 8869W        W80540  20.649  39.500  10.841
 8870W        W80541   7.339   8.594   1.148
 8871W        W80542  28.703   5.181  12.957
 8872W        W80543  39.102  37.601  11.077
 8873W        W80544  31.443   7.751   2.818
 8874W        W80545  27.808  11.186  10.114
 8875W        W80546  23.116  19.318  14.873
 8876W        W80547   8.620  17.920  12.993
 8877W        W80548  11.817   8.134   3.232
 8878W        W80549  21.745  38.343  13.117
 8879W        W80550  15.083  21.995  13.908
 8880W        W80551  12.164  29.258  14.911
 8881W        W80552  41.255  26.365  13.073
 8882W        W80553  20.578  25.081   3.257
 8883W        W80554  18.310  16.246   2.647
 8884W        W80555  23.033  35.054  11.505
 8885W        W80556  44.065  38.122  12.463
 8886W        W80557  31.946   2.701   5.017
 8887W        W80558   7.674   3.468   1.692
 8888W        W80559  22.032  34.201   0.772
 8889W        W80560   8.396  20.253  13.153
 8890W        W80561  32.902   4.234  12.582
 8891W        W80562  26.569   9.436  11.211
 8892W        W80563   1.787  36.601   4.452
 8893W        W80564   5.196  37.721  11.220
 8894W        W80565   3.822  41.721  13.781
 8895W        W80566   5.004  34.027  12.272
 8896W        W80567  40.087  28.997  13.434
 8897W        W80568  41.032  14.342   3.200
 8898W        W80569  10.486   7.899  11.599
 8899W        W80570  42.453  28.593  12.361
 8900W        W80571  11.326  13.712  12.445
 8901W        W80572   0.682  20.312  11.671
 8902W        W80573  43.531  40.427   4.312
 8903W        W80574  20.233  21.174  14.480
 8904W        W80575   4.233  34.961  12.318
 8905W        W80576  41.819  13.311  12.910
 8906W        W80577   0.407   9.399  14.382
 8907W        W80578   4.958   4.183  13.441
 8908W        W80579  10.208  36.468  13.767
 8909W        W80580  19.036  33.375  10.810
 8910W        W80581  23.621  20.898   0.113
 8911W        W80582  22.107  41.218  14.415
 8912W        W80583  43.903   7.153   2.251
 8913W        W80584  17.829  39.158  10.738
 8914W        W80585   7.742  22.491   4.949
 8915W        W80586   3.191   7.870  12.795
 8916W        W80587  10.208  25.214  13.456
 8917W        W80588   0.483  10.770  12.438
 8918W        W80589  29.984   7.657  11.653
 8919W        W80590  24.270  44.695   1.720
 8920W        W80591   0.300  24.539  12.807
 8921W        W80592  24.704  35.360  13.865
 8922W        W80593  30.142   8.647  14.272
 8923W        W80594  26.087  16.142  14.236
 8924W        W80595  36.652  24.581  13.037
 8925W        W80596  22.140   2.741  12.988
 8926W        W80597  26.349  35.198  12.098
 8927W        W80598  31.578  35.472  14.820
 8928W        W80599  21.527  35.034   2.914
 8929W        W80600  27.176  13.408   4.587
 8930W        W80601  31.214  21.467   0.267
 8931W        W80602   1.265  35.513  12.795
 8932W        W80603  13.817  33.495   2.823
 8933W        W80604  23.418  32.652   4.483
 8934W        W80605  10.497  26.354  12.563
 8935W        W80606  16.696  28.621  10.824
 8936W        W80607  10.073   9.620   0.776
 8937W        W80608  10.689  44.512  14.903
 8938W        W80609  10.696  34.333   3.673
 8939W        W80610  10.130  22.701   0.769
 8940W        W80611  37.293  41.983  11.619
 8941W        W80612  25.756  24.581   3.090
 8942W        W80613   6.895  25.540  13.433
 8943W        W80614  43.028  37.536   0.970
 8944W        W80615  12.618  14.602  14.899
 8945W        W80616  32.214  43.364  14.790
 8946W        W80617  18.126  37.602  10.909
 8947W        W80618  27.748  20.909  14.941
 8948W        W80619  20.054   4.920  13.020
 8949W        W80620  35.525  34.107   3.595
 8950W        W80621  26.405  35.379   0.892
 8951W        W80622  26.123  20.773   4.246
 8952W        W80623  14.198   3.839  11.323
 8953W        W80624   2.863  20.159   4.597
 8954W        W80625  39.732  12.300   3.861
 8955W        W80626  35.851  30.431  11.509
 8956W        W80627  26.554   0.954   4.099
 8957W        W80628  35.051  43.018  13.785
 8958W        W80629  27.849  40.795  14.439
 8959W        W80630  38.353  11.961   2.798
 8960W        W80631  19.600  42.841   4.369
 8961W        W80632   0.414  38.796   0.884
 8962W        W80633   9.881   3.678  13.297
 8963W        W80634  37.599  25.667   4.515
 8964W        W80635  27.839  15.703  14.924
 8965W        W80636  44.798  38.420  13.191
 8966W        W80637  14.995   3.289   5.037
 8967W        W80638  27.232  22.237  10.871
 8968W        W80639  13.757  40.070   1.830
 8969W        W80640  22.014  10.865  11.575
 8970W        W80641  31.910  32.962   3.255
 8971W        W80642   2.898   9.484   0.217
 8972W        W80643  33.550  44.048  12.545
 8973W        W80644  30.181  25.560   0.471
 8974W        W80645  19.935   4.878   0.060
 8975W        W80646  20.174   4.152   2.357
 8976W        W80647  13.815  19.116  14.415
 8977W        W80648   1.257   2.522   0.199
 8978W        W80649  27.133  16.137  10.612
 8979W        W80650  22.270  24.418   3.278
 8980W        W80651  36.191  11.784   1.857
 8981W        W80652  35.925  21.351   3.402
 8982W        W80653  34.590  33.638   2.416
 8983W        W80654  23.753   3.903  10.687
 8984W        W80655  21.286  34.913   4.635
 8985W        W80656   6.385  19.946   3.821
 8986W        W80657   3.981  17.022   3.204
 8987W        W80658   7.958  41.450   0.909
 8988W        W80659   4.723  34.916  13.345
 8989W        W80660  44.342  14.354   0.741
 8990W        W80661  20.184   0.922   1.561
 8991W        W80662   4.304  38.919   1.455
 8992W        W80663  24.120  22.052   3.574
 8993W        W80664  34.615   7.234  12.664
 8994W        W80665   7.325  21.966  10.771
 8995W        W80666   5.677   7.207  10.703
 8996W        W80667   2.448   5.171   1.352
 8997W        W80668   7.849   5.414   2.878
 8998W        W80669  41.059  19.674  11.519
 8999W        W80670  16.092  33.332  11.586
 9000W        W80671  41.074   7.335  11.503
 9001W        W80672  39.478  36.970  13.492
 9002W        W80673  32.519  12.842   4.245
 9003W        W80674  30.085  20.665  14.405
 9004W        W80675  15.979  28.056  12.031
 9005W        W80676  32.342  37.093   0.356
 9006W        W80677  31.614  35.400  12.259
 9007W        W80678  18.356   0.487   2.909
 9008W        W80679  38.553  13.326   1.290
 9009W        W80680  17.957   0.876   1.805
 9010W        W80681  28.650  12.269  11.119
 9011W        W80682  14.754  37.581  12.519
 9012W        W80683  42.734  13.751  13.362
 9013W        W80684  36.938  21.752   4.382
 9014W        W80685  29.726  33.370   4.511
 9015W        W80686  26.612  13.669   1.408
 9016W        W80687   6.317   0.357   3.689
 9017W        W80688  39.962  12.203   2.955
 9018W        W80689  25.152  21.712  13.485
 9019W        W80690  27.470   6.885   4.168
 9020W        W80691   9.305  21.114   2.372
 9021W        W80692  27.940  24.227   2.394
 9022W        W80693  39.592  17.067   0.874
 9023W        W80694  19.946  24.478   2.749
 9024W        W80695   0.860  17.760   0.423
 9025W        W80696  16.576   8.702   4.160
 9026W        W80697  34.897  11.348  14.710
 9027W        W80698  31.103   2.948   3.568
 9028W        W80699  16.307  15.687  13.566
 9029W        W80700  13.113  10.799   2.621
 9030W        W80701   3.988  42.318  11.081
 9031W        W80702  20.045  19.728  14.447
 9032W        W80703   6.708   0.827   4.745
 9033W        W80704  27.436  15.027   0.672
 9034W        W80705   5.380  44.066   2.983
 9035W        W80706  17.348  38.536  14.501
 9036W        W80707  12.674   3.346  13.621
 9037W        W80708  42.649  16.400  14.724
 9038W        W80709  29.626   0.558  11.658
 9039W        W80710  40.346  41.019  14.939
 9040W        W80711  33.937  27.733   4.057
 9041W        W80712  10.839  27.061   3.050
 9042W        W80713  32.916   7.161  13.585
 9043W        W80714  43.318   3.761  13.857
 9044W        W80715  41.583  32.030   0.530
 9045W        W80716  35.607   3.874  10.963
 9046W        W80717  24.207  16.072   4.558
 9047W        W80718  28.009   6.000  13.084
 9048W        W80719  22.603  32.378  11.144
 9049W        W80720  13.972  13.834   3.274
 9050W        W80721   1.338   1.346  11.122
 9051W        W80722   1.764   3.553  13.575
 9052W        W80723  35.284  37.159  12.916
 9053W        W80724   0.130  12.553  10.353
 9054W        W80725  32.488  12.601   0.681
 9055W        W80726   2.011  16.800   0.999
 9056W        W80727   2.790  27.943   4.159
 9057W        W80728  32.453   7.972   4.524
 9058W        W80729  24.227  22.212   4.076
 9059W        W80730  29.153  22.757   0.434
 9060W        W80731  24.106  11.301   0.762
 9061W        W80732   4.908  27.030   3.547
 9062W        W80733  37.092  22.043  12.868
 9063W        W80734  16.657  16.015   1.201
 9064W        W80735   1.708   1.464  10.702
 9065W        W80736   2.234  15.792  11.288
 9066W        W80737  19.564   0.565   0.855
 9067W        W80738  33.176  36.363  12.108
 9068W        W80739  16.567  40.803   2.163
 9069W        W80740  22.061  24.144   0.527
 9070W        W80741   2.843   6.246   4.714
 9071W        W80742   4.737  20.565   1.967
 9072W        W80743  19.565   7.956  12.536
 9073W        W80744  17.352  33.042   3.770
 9074W        W80745  31.928  20.842   2.022
 9075W        W80746   3.188  29.980   2.737
 9076W        W80747  33.440   1.046   4.728
 9077W        W80748  27.743  16.710   3.158
 9078W        W80749  30.025  11.811   2.374
 9079W        W80750  17.990  14.618  14.433
 9080W        W80751  22.258  20.646  13.828
 9081W        W80752  34.473  39.619  14.798
 9082W        W80753  21.277  28.260  12.870
 9083W        W80754  33.064   3.420   3.775
 9084W        W80755  22.225  43.797   2.327
 9085W        W80756   3.719  20.802   0.828
 9086W        W80757  23.302  36.760  13.486
 9087W        W80758   6.316   4.110  13.010
 9088W        W80759  25.916  13.067   2.325
 9089W        W80760  13.064  25.139   1.821
 9090W        W80761  22.012   0.473   1.373
 9091W        W80762  35.952  21.706  14.263
 9092W        W80763  21.395   1.386  10.341
 9093W        W80764  44.741  10.174  14.493
 9094W        W80765  11.293  17.015  12.928
 9095W        W80766  35.945  19.787   1.892
 9096W        W80767  36.185  10.519   2.758
 9097W        W80768  17.178   8.128   4.070
 9098W        W80769  17.860  28.931   3.850
 9099W        W80770  40.986  21.679   0.482
 9100W        W80771  14.555  14.634   2.755
 9101W        W80772  29.511  14.686  13.105
 9102W        W80773  24.729  28.473   0.424
 9103W        W80774  32.577  43.255  12.895
 9104W        W80775  37.868  26.681  12.413
 9105W        W80776  24.657  30.453  11.188
 9106W        W80777  19.718  30.642  13.260
 9107W        W80778  30.998   1.595   3.905
 9108W        W80779   2.919  24.476   1.382
 9109W        W80780  27.698  25.713   2.394
 9110W        W80781  35.233  41.132   1.565
 9111W        W80782   3.471  37.374  11.607
 9112W        W80783  17.537  43.909   2.804
 9113W        W80784  14.545  25.993   3.608
 9114W        W80785   3.429  17.779   3.244
 9115W        W80786   9.894  34.578  10.547
 9116W        W80787   8.207  41.992   4.976
 9117W        W80788  34.135  30.448  13.386
 9118W        W80789   9.925   6.897   2.844
 9119W        W80790  22.670  40.119   0.141
 9120W        W80791  41.526   6.193  11.181
 9121W        W80792   1.759   6.011   4.014
 9122W        W80793  36.492  20.121  14.245
 9123W        W80794   6.788  37.627   4.041
 9124W        W80795  13.713  34.391   4.694
 9125W        W80796  36.335  31.037   3.211
 9126W        W80797   8.627  39.025   1.724
 9127W        W80798  28.674   4.416   3.855
 9128W        W80799  11.106  22.228  10.833
 9129W        W80800  35.988  42.476   1.930
 9130W        W80801  40.789   6.766   2.795
 9131W        W80802   1.469  22.714   3.085
 9132W        W80803  10.699  26.883   0.315
 9133W        W80804   6.423  25.811  12.535
 9134W        W80805   5.639  16.541  10.410
 9135W        W80806  10.715  35.622  11.954
 9136W        W80807  42.624  44.529   4.603
 9137W        W80808  27.895   9.381  12.936
 9138W        W80809  36.444  32.305  11.884
 9139W        W80810  14.128   4.021   4.385
 9140W        W80811  26.548  21.534   2.207
 9141W        W80812  27.397  34.022   4.326
 9142W        W80813  36.420   1.822  12.988
 9143W        W80814   8.054  30.916   3.713
 9144W        W80815  30.658  34.868  10.616
 9145W        W80816  16.698   1.826   2.834
 9146W        W80817  10.762   4.020   1.454
 9147W        W80818  33.621  41.455  14.949
 9148W        W80819  33.254  41.409  13.491
 9149W        W80820  28.577   5.912   1.207
 9150W        W80821  29.696  10.408  14.430
 9151W        W80822   7.720  10.652  12.862
 9152W        W80823   7.709  31.398   0.854
 9153W        W80824  42.676  39.320  12.530
 9154W        W80825  23.777  29.898  12.350
 9155W        W80826   3.174   3.455   3.106
 9156W        W80827  39.104   4.310   3.931
 9157W        W80828   1.384   1.197  11.606
 9158W        W80829   4.980  11.860  14.375
 9159W        W80830  36.118  11.413   2.236
 9160W        W80831   0.841  36.813  13.093
 9161W        W80832  36.660  22.807  14.790
 9162W        W80833  17.519   3.110  12.641
 9163W        W80834  44.553   2.692  14.255
 9164W        W80835  39.016  14.621   4.659
 9165W        W80836  19.090  43.468  11.501
 9166W        W80837   0.244  27.216  12.191
 9167W        W80838  28.588  44.929   3.777
 9168W        W80839  16.213  36.158  12.149
 9169W        W80840   9.194  33.429   2.186
 9170W        W80841  32.562  41.317   1.453
 9171W        W80842  10.306  28.569  11.177
 9172W        W80843  26.894  36.315  13.509
 9173W        W80844  32.987   3.354  14.910
 9174W        W80845  24.119  44.858   3.236
 9175W        W80846  39.498   9.150  11.747
 9176W        W80847  29.739  35.645   1.218
 9177W        W80848  41.262  39.109  12.501
 9178W        W80849   6.254  10.915  13.083
 9179W        W80850  30.648  40.489   2.864
 9180W        W80851   0.212  32.013   3.819
 9181W        W80852  19.161  34.318  11.138
 9182W        W80853  13.104   5.542  12.500
 9183W        W80854  18.763  14.506   2.297
 9184W        W80855   2.966  19.567   3.322
 9185W        W80856  19.337  24.153  13.047
 9186W        W80857  21.337  24.718   3.383
 9187W        W80858   4.037  32.342  12.028
 9188W        W80859  32.028   7.305  12.405
 9189W        W80860   4.296  41.337  14.889
 9190W        W80861  22.538   9.635   4.614
 9191W        W80862   6.568   1.569   0.419
 9192W        W80863  34.939  15.308   0.154
 9193W        W80864  30.910  33.141  13.813
 9194W        W80865   6.897  20.989   1.916
 9195W        W80866  25.103  26.064  13.697
 9196W        W80867  39.379  26.129  11.808
 9197W        W80868  21.096  42.118  10.619
 9198W        W80869  22.121  30.525  14.458
 9199W        W80870  38.366   0.689  13.088
 9200W        W80871  37.377  37.676   5.486
 9201W        W80872  17.038   6.050   4.116
 9202W        W80873  30.713  36.557  10.688
 9203W        W80874  25.990   8.875   5.257
 9204W        W80875  13.838  39.990  10.504
 9205W        W80876  39.784  44.694   2.777
 9206W        W80877   0.218   5.737   4.690
 9207W        W80878  40.423  21.747   1.231
 9208W        W80879  26.200  21.444  11.607
 9209W        W80880  18.645   3.176  13.245
 9210W        W80881  42.814  39.898   2.730
 9211W        W80882  34.096  42.481  12.131
 9212W        W80883  11.319   4.275   4.177
 9213W        W80884  29.015  41.342   2.625
 9214W        W80885  23.498  37.997  11.585
 9215W        W80886  19.378   6.383  12.821
 9216W        W80887  17.451  10.143   4.547
 9217W        W80888  11.024  22.671  12.888
 9218W        W80889  31.657   3.125  12.096
 9219W        W80890  16.664  31.897  13.796
 9220W        W80891  40.815   1.112  11.863
 9221W        W80892  21.299   9.778   3.375
 9222W        W80893  16.649  29.258   2.481
 9223W        W80894   1.693  29.916   3.689
 9224W        W80895   2.177  23.368   4.510
 9225W        W80896  34.928  26.525   3.067
 9226W        W80897  39.085  26.011  14.467
 9227W        W80898  36.147  28.371  12.078
 9228W        W80899  30.093  25.319   4.238
 9229W        W80900  43.863   1.525   4.353
 9230W        W80901  16.975  34.856   0.880
 9231W        W80902   5.847  10.934  14.302
 9232W        W80903  14.563  10.292   2.495
 9233W        W80904  23.957  10.898   4.798
 9234W        W80905  31.592  37.905  11.544
 9235W        W80906  22.704  19.228   3.176
 9236W        W80907  43.969  44.512  11.956
 9237W        W80908   9.238   7.114   5.282
 9238W        W80909  14.544  37.432   3.707
 9239W        W80910  38.717  34.240  14.068
 9240W        W80911   4.730  33.572  12.441
 9241W        W80912  25.219  37.478   3.307
 9242W        W80913  23.817  26.670   4.606
 9243W        W80914  14.116  27.625  12.352
 9244W        W80915   4.857  29.138  14.765
 9245W        W80916  15.155  41.768  12.271
 9246W        W80917  25.034  15.520  14.716
 9247W        W80918  33.530   1.902   5.051
 9248W        W80919   0.456   6.483   2.879
 9249W        W80920  39.237  15.589  13.302
 9250W        W80921  29.409  19.895  14.110
 9251W        W80922  13.715   4.608  11.504
 9252W        W80923  34.958  22.776   4.272
 9253W        W80924  19.634  30.995   3.020
 9254W        W80925  13.429  26.031   2.166
 9255W        W80926  26.557  20.847   2.741
 9256W        W80927   1.429  37.817   0.858
 9257W        W80928   4.324  38.903   4.952
 9258W        W80929  40.537  25.205  13.627
 9259W        W80930  20.532   1.233   3.981
 9260W        W80931  41.898  22.988   1.723
 9261W        W80932   7.823  31.214   4.063
 9262W        W80933   4.910  27.686  13.866
 9263W        W80934   2.928  42.265   4.699
 9264W        W80935  23.115  35.534   0.300
 9265W        W80936  10.612  37.516   4.588
 9266W        W80937  31.062  18.839   3.893
 9267W        W80938  33.223  35.658  11.368
 9268W        W80939  43.897  28.960  13.468
 9269W        W80940  39.905  41.760   0.805
 9270W        W80941   2.125  21.217  11.138
 9271W        W80942  10.811  12.764   2.337
 9272W        W80943  43.363   5.935   0.587
 9273W        W80944   2.386  34.543  14.057
 9274W        W80945  39.405  17.279   1.816
 9275W        W80946  27.992  15.561  14.429
 9276W        W80947  12.110   2.251  13.458
 9277W        W80948   5.947   2.864  12.139
 9278W        W80949  39.532  12.861  10.421
 9279W        W80950  22.536  25.833   2.802
 9280W        W80951   7.678   4.233  13.219
 9281W        W80952  30.989  13.684  13.504
 9282W        W80953   3.230  33.012  13.789
 9283W        W80954  25.740  22.131   2.101
 9284W        W80955  10.809   9.371  13.040
 9285W        W80956  25.497   8.181  14.927
 9286W        W80957   1.834  40.540   0.314
 9287W        W80958  16.801  23.263  13.462
 9288W        W80959   8.361  41.477   1.222
 9289W        W80960  21.396   6.710  12.918
 9290W        W80961  19.952   8.889  12.567
 9291W        W80962  32.612  41.800  14.305
 9292W        W80963  40.715  20.417   3.315
 9293W        W80964  17.592  42.397   0.270
 9294W        W80965  22.931   6.541   1.199
 9295W        W80966  30.129  29.643  14.111
 9296W        W80967   1.708  19.438   3.617
 9297W        W80968  41.860  15.839  14.321
 9298W        W80969  15.705  13.148   4.677
 9299W        W80970  28.897   6.881  13.154
 9300W        W80971  11.411   4.044   2.758
 9301W        W80972  42.770  23.584  13.969
 9302W        W80973   4.983  44.585   0.343
 9303W        W80974  37.140   7.696   2.687
 9304W        W80975  13.824  12.619   1.845
 9305W        W80976  32.637  32.418  11.488
 9306W        W80977  31.483  27.477  11.353
 9307W        W80978   0.708  21.587  14.488
 9308W        W80979   1.975   6.719   0.622
 9309W        W80980   3.389  44.650   2.780
 9310W        W80981  14.097  44.776  13.337
 9311W        W80982  13.369   0.988  11.969
 9312W        W80983  16.552  21.524   3.400
 9313W        W80984  33.916  22.822  11.048
 9314W        W80985  38.986  32.078  13.330
 9315W        W80986  43.378   3.460  10.159
 9316W        W80987  25.524   1.203  12.606
 9317W        W80988  38.451   1.039   3.621
 9318W        W80989  12.549  33.520   3.140
 9319W        W80990  28.890  42.503   0.148
 9320W        W80991  34.859   7.116  11.254
 9321W        W80992  12.478   1.395  14.309
 9322W        W80993   2.822  15.730   0.942
 9323W        W80994  35.831   8.884   3.261
 9324W        W80995  42.910   9.479   3.827
 9325W        W80996  37.489  17.986   3.414
 9326W        W80997  32.389  17.349  13.376
 9327W        W80998   2.803  24.610  10.685
 9328W        W80999   7.775   3.029  12.959
 9329W        W81000  12.810  43.433   1.664
 9330W        W81001  25.904  18.224   0.912
 9331W        W81002  24.317  31.527   2.810
 9332W        W81003  38.952   2.339   0.375
 9333W        W81004  20.977  24.680  10.630
 9334W        W81005   0.770  31.557   0.230
 9335W        W81006  12.878   9.258  12.335
 9336W        W81007  14.381  12.215  13.880
 9337W        W81008  23.300  37.383   2.813
 9338W        W81009  24.671  36.173   3.242
 9339W        W81010   1.162  14.557  11.708
 9340W        W81011  17.605  33.679  14.438
 9341W        W81012  16.050  22.569  14.613
 9342W        W81013  39.735  28.920   1.925
 9343W        W81014  43.888  40.640   4.613
 9344W        W81015  24.258  34.518   0.369
 9345W        W81016   3.017  44.132   5.158
 9346W        W81017  44.729  18.858   0.650
 9347W        W81018  15.794  28.319  14.229
 9348W        W81019   4.739  24.138  11.427
 9349W        W81020   3.300  41.583  11.981
 9350W        W81021  36.148  21.629  11.583
 9351W        W81022   8.267  13.875  11.017
 9352W        W81023  15.166  41.439   0.757
 9353W        W81024  21.966  25.688  11.743
 9354W        W81025   2.632  30.626  13.435
 9355W        W81026   3.705  31.084  10.575
 9356W        W81027  37.814   5.142  14.800
 9357W        W81028  14.446  21.821  11.080
 9358W        W81029   2.239  11.304   4.454
 9359W        W81030  12.318  21.215   0.921
 9360W        W81031  13.822  25.996   3.257
 9361W        W81032  39.589  22.508  14.346
 9362W        W81033   2.929  10.683  10.690
 9363W        W81034  18.070  33.672  14.003
 9364W        W81035  33.175  32.662   0.398
 9365W        W81036  36.454  15.266   2.773
 9366W        W81037  29.319   8.710  13.664
 9367W        W81038  36.042  32.090  13.079
 9368W        W81039  19.864  24.220  10.604
 9369W        W81040  31.157  21.202  12.891
 9370W        W81041  28.760   7.390  12.951
 9371W        W81042  41.396  43.105   4.925
 9372W        W81043  16.249  39.537  14.568
 9373W        W81044  14.678  27.908  12.208
 9374W        W81045  10.678   4.914  12.900
 9375W        W81046   0.346   2.449  14.554
 9376W        W81047  25.773  11.177  10.932
 9377W        W81048  14.241  18.033   2.021
 9378W        W81049  32.552  33.880  11.467
 9379W        W81050  43.957  27.780   4.035
 9380W        W81051   4.519   2.887  14.873
 9381W        W81052  16.409  36.731   1.776
 9382W        W81053   6.687  14.429  12.224
 9383W        W81054  42.393  26.409  12.968
 9384W        W81055  19.178   5.735   3.359
 9385W        W81056   2.521  20.120  11.935
 9386W        W81057  34.679  31.425  14.821
 9387W        W81058  33.112  11.438  11.068
 9388W        W81059  40.062   7.391  11.518
 9389W        W81060  10.508   5.825   0.821
 9390W        W81061  38.440  13.522   3.701
 9391W        W81062  33.346  22.244   0.986
 9392W        W81063  12.422  35.428  11.798
 9393W        W81064  17.807  31.006   4.239
 9394W        W81065   1.357   7.699  13.366
 9395W        W81066  34.548  15.361   1.856
 9396W        W81067   6.024   8.951   4.706
 9397W        W81068  28.939  44.479  12.029
 9398W        W81069   4.891  13.658  12.559
 9399W        W81070  18.950  19.732   4.568
 9400W        W81071  14.402  16.688  11.329
 9401W        W81072  17.004  42.833  13.078
 9402W        W81073  14.612  32.691  13.995
 9403W        W81074   9.837  16.351  12.099
 9404W        W81075  23.608   0.329   1.189
 9405W        W81076  20.228   7.201   3.237
 9406W        W81077  27.075  24.926   4.802
 9407W        W81078  12.145  29.454   1.852
 9408W        W81079   5.860   8.652  14.143
 9409W        W81080  25.524  36.148   1.420
 9410W        W81081   4.293  39.904  13.888
 9411W        W81082  13.079   2.767   4.139
 9412W        W81083  42.908  11.353  10.581
 9413W        W81084   2.487  33.524   2.231
 9414W        W81085  14.549   1.894   4.652
 9415W        W81086  38.479  14.143   0.380
 9416W        W81087  17.331   5.211  11.427
 9417W        W81088  28.509  29.212   1.563
 9418W        W81089  27.671  42.581  11.043
 9419W        W81090  24.567  17.599   1.970
 9420W        W81091  19.690  23.185   5.079
 9421W        W81092  31.070  20.209  14.309
 9422W        W81093   7.184  22.917  11.518
 9423W        W81094   6.309  20.488  14.376
 9424W        W81095   6.188  18.639   1.404
 9425W        W81096  25.664   5.749  13.354
 9426W        W81097   5.285  41.901   1.713
 9427W        W81098  10.157   6.212   0.352
 9428W        W81099  23.731  32.027  11.666
 9429W        W81100   2.673  13.276  12.332
 9430W        W81101  43.297  31.881  14.225
 9431W        W81102  26.274   8.662  11.499
 9432W        W81103   2.821  23.828   0.269
 9433W        W81104  13.218   5.288  13.955
 9434W        W81105  40.546  21.994  14.569
 9435W        W81106  37.934  40.073  13.841
 9436W        W81107  18.612  35.102  12.884
 9437W        W81108  27.006  27.570  10.622
 9438W        W81109  41.831  38.302  11.649
 9439W        W81110  26.650   2.101  12.332
 9440W        W81111  18.019  35.424  10.770
 9441W        W81112   6.081   2.411   4.030
 9442W        W81113  39.337  44.921   0.764
 9443W        W81114   0.427  11.118   3.237
 9444W        W81115   1.755  44.389  11.601
 9445W        W81116  38.343  41.274   1.424
 9446W        W81117  23.731  20.980   4.588
 9447W        W81118  40.745   4.839  12.943
 9448W        W81119  19.618   5.445   0.864
 9449W        W81120  39.534   8.805   1.522
 9450W        W81121  29.639  43.021  12.871
 9451W        W81122  28.484  10.711  12.493
 9452W        W81123   0.165  18.550   1.460
 9453W        W81124  38.792  44.778  11.949
 9454W        W81125  18.094   5.296  12.850
 9455W        W81126   5.365  16.697  12.129
 9456W        W81127  35.595  43.064   2.327
 9457W        W81128  40.527   2.039  14.721
 9458W        W81129   7.884   7.952   4.603
 9459W        W81130  16.030  23.404  11.933
 9460W        W81131  35.197  34.031   0.760
 9461W        W81132   9.059  24.421   3.140
 9462W        W81133  33.152  22.876  14.765
 9463W        W81134  34.341  26.012   1.364
 9464W        W81135  25.541   1.269  13.099
 9465W        W81136   8.513  16.580   0.269
 9466W        W81137  31.837   9.161  12.493
 9467W        W81138   8.401   4.336  13.048
 9468W        W81139  11.843  37.027   4.826
 9469W        W81140  18.239  42.585  13.497
 9470W        W81141  33.802   0.971   3.849
 9471W        W81142  41.034  37.518   2.833
 9472W        W81143  26.498  23.614  12.881
 9473W        W81144  39.104  23.781  13.443
 9474W        W81145  22.341  39.231   1.282
 9475W        W81146   3.273   7.929  10.652
 9476W        W81147   9.339  13.241  13.048
 9477W        W81148   2.552   3.406   4.513
 9478W        W81149  33.072  39.396  11.364
 9479W        W81150  19.959   0.217   1.166
 9480W        W81151  16.246  37.933  13.842
 9481W        W81152  20.462  24.029  14.815
 9482W        W81153  38.329  13.908   2.810
 9483W        W81154  31.070  23.071   3.601
 9484W        W81155  19.827  14.855   1.806
 9485W        W81156   9.157  14.620  14.878
 9486W        W81157  23.187  42.015  12.951
 9487W        W81158  24.524  18.214  11.543
 9488W        W81159   4.170  16.807  12.117
 9489W        W81160   0.958  43.153  10.509
 9490W        W81161  34.285   8.365  13.079
 9491W        W81162  33.949  38.332  10.577
 9492W        W81163  18.869  25.489   3.110
 9493W        W81164  20.623  36.460  14.794
 9494W        W81165  20.748  28.679  11.902
 9495W        W81166  29.695   7.377   4.637
 9496W        W81167   7.914  35.723  14.697
 9497W        W81168   9.121   3.919  11.282
 9498W        W81169  17.863  43.958  12.140
 9499W        W81170  21.026  35.868   0.360
 9500W        W81171  15.483  44.060  14.319
 9501W        W81172  40.473  13.442   0.759
 9502W        W81173  33.601  33.537   1.783
 9503W        W81174  22.561  18.217   0.531
 9504W        W81175  25.603   9.874   4.097
 9505W        W81176  35.510  12.894   2.338
 9506W        W81177   0.016  29.555   4.405
 9507W        W81178   6.202  16.876   4.866
 9508W        W81179  16.325  17.980  11.099
 9509W        W81180  17.045  23.905  12.861
 9510W        W81181  31.594  28.562   0.850
 9511W        W81182  20.048   8.242   1.265
 9512W        W81183  15.096   6.617  12.506
 9513W        W81184  37.435  18.198  11.569
 9514W        W81185  43.330  30.131   4.124
 9515W        W81186  33.501   4.421   0.607
 9516W        W81187  25.663  18.191   4.168
 9517W        W81188   5.664  37.072   4.714
 9518W        W81189  33.915  14.962   3.475
 9519W        W81190  10.913   5.457  14.924
 9520W        W81191  29.696  36.449   0.566
 9521W        W81192   8.172   6.542   2.157
 9522W        W81193  41.364  38.137  14.349
 9523W        W81194  29.470  43.563   3.232
 9524W        W81195  17.244  30.995  12.819
 9525W        W81196  32.866  41.924  11.043
 9526W        W81197   9.061   0.980   4.136
 9527W        W81198   2.393  17.539  14.922
 9528W        W81199  19.698  19.556  14.805
 9529W        W81200  17.258  40.857  14.779
 9530W        W81201  11.127  33.635   1.415
 9531W        W81202  12.301  18.029  13.539
 9532W        W81203   8.390  39.566  12.222
 9533W        W81204   0.527  37.095  14.356
 9534W        W81205  33.904  39.753   1.275
 9535W        W81206  20.767   5.760  10.697
 9536W        W81207  40.799  25.570   1.131
 9537W        W81208   8.419  25.048   4.102
 9538W        W81209   0.457   1.444  11.245
 9539W        W81210  23.210  36.181  14.891
 9540W        W81211  28.507  42.852   5.068
 9541W        W81212  37.542  37.485   3.153
 9542W        W81213  12.315  31.520   2.760
 9543W        W81214  23.984  42.852   3.458
 9544W        W81215  37.860   4.294  10.676
 9545W        W81216  30.919   3.449  10.630
 9546W        W81217  14.211  28.596   1.432
 9547W        W81218   0.914   8.031  12.585
 9548W        W81219  18.114   8.291  14.407
 9549W        W81220  14.317  10.178   3.792
 9550W        W81221   0.291  31.902   2.675
 9551W        W81222  32.050  27.037   2.215
 9552W        W81223  19.009  39.094  10.411
 9553W        W81224  32.654   4.906  12.406
 9554W        W81225   4.204   9.316   1.348
 9555W        W81226   6.851  27.115   3.837
 9556W        W81227  30.627   3.770   2.684
 9557W        W81228  15.533  32.399   3.789
 9558W        W81229  16.993  29.591   1.289
 9559W        W81230   3.902   3.945  11.534
 9560W        W81231  42.814  12.768  14.361
 9561W        W81232   1.006  18.935  10.607
 9562W        W81233  10.840   4.916   2.814
 9563W        W81234  29.317  36.974  12.068
 9564W        W81235  15.164  10.810  10.461
 9565W        W81236  23.020   1.935  14.097
 9566W        W81237   1.229  31.614  12.740
 9567W        W81238  39.294  20.939   2.140
 9568W        W81239   3.417  17.285  13.762
 9569W        W81240   8.753  32.867  14.849
 9570W        W81241   2.696  28.780   1.254
 9571W        W81242  16.633  22.089   4.075
 9572W        W81243  12.119  25.306   2.180
 9573W        W81244  27.599  20.486   1.732
 9574W        W81245  19.837  44.686  11.119
 9575W        W81246  30.818  41.740  11.228
 9576W        W81247   4.970  21.863  12.302
 9577W        W81248   4.774   7.391  11.661
 9578W        W81249  10.930  29.941   4.044
 9579W        W81250   2.969  12.595   4.258
 9580W        W81251  39.085   1.930   1.879
 9581W        W81252  25.087  24.941  12.982
 9582W        W81253   6.225  18.994   3.148
 9583W        W81254  26.047  19.491  12.096
 9584W        W81255  36.131   3.760   0.222
 9585W        W81256  18.995   7.845   3.607
 9586W        W81257  11.334  38.035  14.993
 9587W        W81258   8.789  27.525  11.747
 9588W        W81259   4.583   7.435   4.095
 9589W        W81260  28.538  17.120  13.323
 9590W        W81261  20.226  31.381   4.163
 9591W        W81262   3.995  32.561   4.104
 9592W        W81263  18.339  27.572   3.296
 9593W        W81264  21.472  21.954  11.274
 9594W        W81265  17.811  21.781  11.912
 9595W        W81266  21.537   7.759   0.290
 9596W        W81267  43.610  34.408  13.306
 9597W        W81268  33.507  29.022  14.850
 9598W        W81269  43.215  25.471  11.131
 9599W        W81270  12.802  32.166  11.517
 9600W        W81271  16.718  22.926  11.596
 9601W        W81272  34.996  13.421   4.570
 9602W        W81273   7.312  38.333   2.190
 9603W        W81274  16.902  26.743   2.205
 9604W        W81275  33.183   0.473   2.930
 9605W        W81276  13.324  17.694   2.331
 9606W        W81277  25.590  21.877  10.733
 9607W        W81278  41.411  28.563   2.147
 9608W        W81279  42.805  31.841   2.349
 9609W        W81280   9.663  41.084   2.887
 9610W        W81281   6.861  36.280   1.647
 9611W        W81282   0.907   7.765  11.943
 9612W        W81283  33.911  12.879  12.343
 9613W        W81284  40.764  23.301  12.189
 9614W        W81285   9.669   8.121  14.611
 9615W        W81286  22.159  41.337  13.416
 9616W        W81287  34.542  37.362   2.231
 9617W        W81288  29.594  23.301  11.952
 9618W        W81289  16.563  37.761   2.157
 9619W        W81290  23.526  18.351  11.612
 9620W        W81291  26.803   8.161  11.967
 9621W        W81292   3.206  15.785  14.969
 9622W        W81293  22.638   2.934   1.469
 9623W        W81294  22.503   3.321   5.029
 9624W        W81295  42.037   2.976  10.752
 9625W        W81296   7.639  38.444   3.311
 9626W        W81297   5.343  20.191  12.178
 9627W        W81298  30.934  37.987   0.540
 9628W        W81299  34.823   6.430   1.406
 9629W        W81300  24.541  44.366  13.563
 9630W        W81301  44.282  14.061   2.898
 9631W        W81302   0.058  27.435   1.921
 9632W        W81303  25.185  42.246  12.970
 9633W        W81304   6.701  11.172  13.284
 9634W        W81305   6.377  25.291  12.549
 9635W        W81306  11.271  20.575  11.853
 9636W        W81307  18.251  43.072  12.502
 9637W        W81308  31.852  41.272  11.281
 9638W        W81309   2.990  18.522   0.873
 9639W        W81310  24.374  37.578   0.409
 9640W        W81311  19.726  29.802  11.746
 9641W        W81312  12.745  17.122   0.426
 9642W        W81313  18.068  31.579   1.800
 9643W        W81314  40.862  22.265   3.643
 9644W        W81315  23.614  14.365  12.672
 9645W        W81316  42.326  42.313   1.850
 9646W        W81317  14.758  33.015  11.009
 9647W        W81318   6.945  39.056   0.833
 9648W        W81319  32.483  17.575   1.642
 9649W        W81320  42.947  26.558   2.263
 9650W        W81321  34.926  20.673   0.376
 9651W        W81322  15.127  40.446   0.813
 9652W        W81323   5.239  23.610  10.446
 9653W        W81324  35.034  28.868  10.974
 9654W        W81325  35.071  13.244  14.640
 9655W        W81326  29.945   2.767   3.225
 9656W        W81327  43.948  10.158   4.419
 9657W        W81328  29.973  18.866  10.659
 9658W        W81329   3.429   5.889   3.257
 9659W        W81330  43.540  28.488   0.419
 9660W        W81331  24.530  40.817  11.166
 9661W        W81332  43.185  18.169   1.721
 9662W        W81333  11.903  38.320   0.896
 9663W        W81334  15.834   6.674   3.289
 9664W        W81335   9.289  13.620   1.190
 9665W        W81336  44.225  37.796  11.379
 9666W        W81337  15.302   9.859  12.418
 9667W        W81338  15.124  15.206  13.213
 9668W        W81339  25.101  38.368   4.551
 9669W        W81340  21.947   9.381  10.683
 9670W        W81341  18.104   2.746  14.766
 9671W        W81342   5.389  26.076   0.880
 9672W        W81343  38.819  32.730  10.615
 9673W        W81344   8.709  31.357  13.108
 9674W        W81345  40.226  29.350  13.031
 9675W        W81346  43.970   7.855   2.741
 9676W        W81347  16.833   8.813   0.114
 9677W        W81348  16.275  22.495  12.566
 9678W        W81349  20.963  10.757   2.699
 9679W        W81350   4.620  38.292  14.810
 9680W        W81351  18.854   7.194  11.521
 9681W        W81352  10.898  22.355   3.998
 9682W        W81353  36.375  23.089  12.056
 9683W        W81354  22.735  39.013  11.905
 9684W        W81355   3.752  32.531   4.576
 9685W        W81356   3.438  15.173  13.505
 9686W        W81357  16.128  10.896   4.429
 9687W        W81358  30.916   4.351   1.838
 9688W        W81359  11.327  40.589   2.282
 9689W        W81360  14.917  10.764  14.386
 9690W        W81361  38.042   7.351   4.143
 9691W        W81362  36.313  28.750   1.409
 9692W        W81363  13.082  13.971   2.768
 9693W        W81364  18.849  37.638  12.034
 9694W        W81365  44.874  39.856  14.462
 9695W        W81366  27.280   0.321   3.985
 9696W        W81367   7.806   9.802   3.658
 9697W        W81368  42.146   3.468  13.606
 9698W        W81369  43.725   8.735  13.994
 9699W        W81370  42.853  15.294  10.733
 9700W        W81371  35.750  44.434   3.098
 9701W        W81372  36.042  42.869  14.845
 9702W        W81373  19.862   8.779   2.850
 9703W        W81374  41.857  13.316   0.351
 9704W        W81375  12.138  38.935  13.814
 9705W        W81376  32.818   7.851   2.257
 9706W        W81377  32.416  16.687  12.675
 9707W        W81378  18.250  15.160   0.915
 9708W        W81379  16.371  43.227  14.988
 9709W        W81380   3.876  12.623  14.256
 9710W        W81381   0.856  38.790   1.357
 9711W        W81382  34.057  13.821   3.290
 9712W        W81383  32.396  20.093  11.186
 9713W        W81384  41.729   9.232  14.508
 9714W        W81385  17.538  18.310  11.891
 9715W        W81386  10.579  18.125  12.563
 9716W        W81387  14.368  26.590  13.122
 9717W        W81388  20.019  43.824   0.491
 9718W        W81389   3.821  21.698   4.641
 9719W        W81390  14.422   1.148  11.179
 9720W        W81391  32.321  21.477   4.585
 9721W        W81392  37.938   2.673  12.922
 9722W        W81393  13.920  12.909  11.267
 9723W        W81394  27.451   5.452   3.596
 9724W        W81395   3.246  25.617  13.043
 9725W        W81396  39.057   6.035   0.762
 9726W        W81397  37.517  11.516   1.895
 9727W        W81398  22.518   4.346  14.500
 9728W        W81399  27.043  12.216  13.461
 9729W        W81400  24.702   5.025   3.787
 9730W        W81401   2.452  41.693   4.383
 9731W        W81402  31.855  35.452   3.150
 9732W        W81403  23.169   5.964   3.762
 9733W        W81404   7.407  25.518   0.699
 9734W        W81405  21.252   4.334  10.741
 9735W        W81406  12.761  23.572  14.031
 9736W        W81407  11.064  18.521   1.599
 9737W        W81408  34.870  37.825  11.858
 9738W        W81409  24.532  26.573  14.372
 9739W        W81410   2.070  33.932  11.772
 9740W        W81411   6.200  44.434  14.209
 9741W        W81412   7.226  43.803  13.405
 9742W        W81413  43.310  38.557   0.347
 9743W        W81414  19.026  42.579   3.255
 9744W        W81415  26.198  43.477   1.950
 9745W        W81416  28.506  18.737   0.958
 9746W        W81417  44.560   4.018  11.190
 9747W        W81418  12.002  11.923  14.031
 9748W        W81419  38.943  28.729  12.960
 9749W        W81420  17.322  42.079  14.115
 9750W        W81421  21.248  34.884   2.492
 9751W        W81422  26.046  26.987   1.343
 9752W        W81423  27.696  12.680  10.230
 9753W        W81424  15.684   6.853  10.276
 9754W        W81425  33.997  19.823  10.709
 9755W        W81426  41.205  30.867   3.842
 9756W        W81427   2.197  21.005  14.911
 9757W        W81428  13.279  21.782  14.732
 9758W        W81429  26.877   9.835   0.930
 9759W        W81430  26.990  10.630   3.373
 9760W        W81431  34.172  33.949   3.147
 9761W        W81432  14.327  41.789  12.118
 9762W        W81433  41.955  37.486   0.973
 9763W        W81434   2.514  24.286  11.470
 9764W        W81435  27.570  20.795  12.899
 9765W        W81436  36.960  15.177   5.094
 9766W        W81437  43.256  27.053   3.899
 9767W        W81438   5.505   3.423   2.576
 9768W        W81439   7.369  19.744   4.969
 9769W        W81440  13.202  36.319   2.614
 9770W        W81441  36.047  36.447   3.252
 9771W        W81442  27.084  38.131  12.423
 9772W        W81443  19.685  32.805   3.215
 9773W        W81444  31.282  43.908  10.763
 9774W        W81445  20.235  38.757  11.040
 9775W        W81446  20.752  15.071  11.160
 9776W        W81447  44.795  10.672  11.031
 9777W        W81448  18.013   0.845   3.825
 9778W        W81449  31.087  28.739   0.017
 9779W        W81450  24.875  41.130  12.543
 9780W        W81451  27.668  32.385  12.110
 9781W        W81452   1.660   9.070  11.979
 9782W        W81453  38.107   3.847   0.955
 9783W        W81454  33.515  17.231   4.474
 9784W        W81455   9.707   2.030  14.871
 9785W        W81456  37.417  38.908   4.389
 9786W        W81457  21.179  14.677  11.366
 9787W        W81458  14.069  12.296   0.898
 9788W        W81459  40.454   5.417  12.920
 9789W        W81460   1.632  28.341   3.900
 9790W        W81461   7.646  36.345   2.129
 9791W        W81462   9.329   0.738  11.959
 9792W        W81463  21.227  25.263   1.846
 9793W        W81464  32.379  35.341  14.495
 9794W        W81465  35.771   7.547  12.259
 9795W        W81466  12.340   3.156  10.281
 9796W        W81467  44.488  19.603   2.864
 9797W        W81468  12.083  27.560   0.411
 9798W        W81469  32.968  14.085  13.415
 9799W        W81470  10.380  31.723   0.383
 9800W        W81471  38.928  28.227  13.025
 9801W        W81472  18.349  27.930   4.865
 9802W        W81473  17.522  33.222  11.480
 9803W        W81474  13.675  22.968  13.112
 9804W        W81475  17.765  24.665   0.838
 9805W        W81476  13.139  42.399  13.922
 9806W        W81477  29.274  21.137  13.966
 9807W        W81478  10.846  26.666  12.365
 9808W        W81479  25.211   0.854  12.371
 9809W        W81480  28.151  41.427  11.984
 9810W        W81481  41.000  13.696   3.601
 9811W        W81482   8.415   1.270  12.114
 9812W        W81483  29.099  16.891   2.610
 9813W        W81484  31.988  18.731   1.443
 9814W        W81485  32.552  42.566   0.083
 9815W        W81486   2.387  35.210  10.781
 9816W        W81487   5.767  23.303  12.550
 9817W        W81488  37.625  12.893  11.529
 9818W        W81489  22.533  13.105   4.479
 9819W        W81490   0.369  16.621   3.579
 9820W        W81491  29.029   0.470  14.561
 9821W        W81492  40.022  16.598   1.049
 9822W        W81493   8.287  42.576  11.551
 9823W        W81494  10.200  25.768   1.733
 9824W        W81495   7.771  20.184   1.006
 9825W        W81496  36.920  21.186  13.600
 9826W        W81497  32.382  32.482  11.983
 9827W        W81498   2.188  33.717   1.874
 9828W        W81499  43.730  31.927   2.306
 9829W        W81500  19.118  25.294  11.784
 9830W        W81501   0.643   0.491   3.122
 9831W        W81502  16.572  23.012  13.862
 9832W        W81503   5.774  10.557   1.841
 9833W        W81504  23.620  34.270   3.868
 9834W        W81505  41.820  40.520   1.001
 9835W        W81506  11.204  36.481  12.250
 9836W        W81507  40.000   1.624  10.692
 9837W        W81508  20.456  31.866   1.011
 9838W        W81509  19.600  10.189  12.762
 9839W        W81510  20.272  14.686   0.017
 9840W        W81511  25.412  39.761  11.622
 9841W        W81512   0.345  28.938  13.508
 9842W        W81513  31.864  15.749  12.649
 9843W        W81514  30.000   6.711   4.996
 9844W        W81515  23.176  26.913  13.482
 9845W        W81516  30.516  40.798  14.821
 9846W        W81517  16.037  43.289   4.239
 9847W        W81518  12.303  31.134  14.530
 9848W        W81519  21.714  38.076   1.817
 9849W        W81520  10.617  13.225  10.529
 9850W        W81521  27.061  15.508   0.922
 9851W        W81522  34.616  13.624  14.006
 9852W        W81523  24.300  31.620   3.613
 9853W        W81524  32.517  26.111  14.934
 9854W        W81525  26.380  27.185   0.991
 9855W        W81526  34.817  30.021   1.294
 9856W        W81527  35.885  36.544  11.546
 9857W        W81528   0.887  26.290  13.516
 9858W        W81529  28.467  15.141   0.895
 9859W        W81530  17.953   8.519   1.672
 9860W        W81531  22.701  17.736   2.186
 9861W        W81532  29.859  25.991  11.008
 9862W        W81533   0.245  23.336   5.071
 9863W        W81534   4.750  33.411   5.081
 9864W        W81535  43.915  29.608  12.389
 9865W        W81536  29.044  38.627  12.580
 9866W        W81537  29.199  20.761   2.733
 9867W        W81538  18.023   4.510  11.176
 9868W        W81539  10.379   6.664   2.698
 9869W        W81540  36.136  24.383  12.848
 9870W        W81541  34.076  30.698  11.076
 9871W        W81542  10.651  16.127  12.423
 9872W        W81543  32.550  40.596  12.048
 9873W        W81544  23.021  27.161   2.402
 9874W        W81545   0.870   6.405   4.236
 9875W        W81546  38.734  33.489  12.454
 9876W        W81547  33.392  40.231   0.468
 9877W        W81548  28.175  21.608  10.645
 9878W        W81549   9.992  26.574  10.672
 9879W        W81550  38.130   4.338  13.444
 9880W        W81551   3.303  41.550  13.097
 9881W        W81552   2.733  21.783  11.996
 9882W        W81553   5.991   9.603   4.111
 9883W        W81554  24.191  42.125  13.809
 9884W        W81555   3.696  43.812  11.498
 9885W        W81556  22.203   8.587   4.052
 9886W        W81557  44.256  14.079   3.408
 9887W        W81558  44.176  19.798   2.479
 9888W        W81559  21.722  26.198  13.445
 9889W        W81560  44.500  38.367  14.459
 9890W        W81561  38.342  11.112   2.231
 9891W        W81562  40.999  17.113  11.594
 9892W        W81563  29.969  23.652  11.531
 9893W        W81564   2.168   1.793  12.882
 9894W        W81565  13.352  21.265   3.753
 9895W        W81566  35.994  18.897  12.934
 9896W        W81567  33.765   8.185  13.099
 9897W        W81568  16.567  39.200   2.438
 9898W        W81569  19.582  21.534   1.351
 9899W        W81570  44.008  29.617  14.246
 9900W        W81571  29.565  28.191   3.195
 9901W        W81572  14.788   5.265  11.226
 9902W        W81573  24.064  27.172  12.183
 9903W        W81574  41.899  29.252  13.326
 9904W        W81575  14.041  27.225  12.055
 9905W        W81576  13.110   6.456   1.509
 9906W        W81577  17.754  24.384   4.480
 9907W        W81578  40.634   1.624   1.237
 9908W        W81579  11.497  38.995  11.480
 9909W        W81580   1.124  22.736   9.703
 9910W        W81581  23.623   5.196  12.466
 9911W        W81582   7.832  26.962   4.304
 9912W        W81583  43.735  44.226   0.362
 9913W        W81584  22.615  25.173  10.071
 9914W        W81585  33.932  25.508   0.630
 9915W        W81586  22.629  32.673  14.243
 9916W        W81587  13.194  17.520  11.514
 9917W        W81588  15.351   5.868  13.958
 9918W        W81589  40.968  10.597  13.349
 9919W        W81590  35.641  31.065   0.015
 9920W        W81591  41.923  17.089   2.316
 9921W        W81592  37.322  32.601  12.455
 9922W        W81593  24.152  14.382  13.857
 9923W        W81594  13.587  22.966  11.175
 9924W        W81595  31.567  10.715  13.287
 9925W        W81596   6.686  35.390  10.707
 9926W        W81597  17.315  27.635   3.142
 9927W        W81598  38.028  12.360   2.930
 9928W        W81599  20.092  14.947  10.450
 9929W        W81600  10.830  40.841   4.125
 9930W        W81601  28.498   0.038   0.893
 9931W        W81602  23.222  15.033  10.891
 9932W        W81603  14.817  41.275  14.354
 9933W        W81604  14.738   6.604   4.689
 9934W        W81605  16.393  12.244   3.165
 9935W        W81606  41.088  10.766   4.483
 9936W        W81607  42.695  41.457  14.893
 9937W        W81608  21.095  12.802  14.028
 9938W        W81609  13.660  44.403  10.886
 9939W        W81610  11.772   9.550  11.054
 9940W        W81611   7.852  25.782  14.480
 9941W        W81612  35.545  15.234  12.537
 9942W        W81613  37.644   3.716  14.988
 9943W        W81614  43.117  20.513   9.649
 9944W        W81615  11.251  25.302   2.397
 9945W        W81616  41.006  11.742   2.903
 9946W        W81617   5.718   9.565   2.121
 9947W        W81618  21.106  31.425  14.420
 9948W        W81619  23.763   2.317   0.311
 9949W        W81620  13.766  42.510   2.203
 9950W        W81621   2.247  12.929  12.997
 9951W        W81622  28.659  23.120  14.428
 9952W        W81623  22.103  42.837   2.147
 9953W        W81624  18.560  16.060  14.531
 9954W        W81625  25.957   4.013  13.540
 9955W        W81626   6.885  37.773   0.112
 9956W        W81627  26.597  10.287  11.179
 9957W        W81628  44.066  29.494  13.522
 9958W        W81629  23.081  36.537  12.517
 9959W        W81630  33.878   0.784   4.818
 9960W        W81631  37.400   0.470   1.227
 9961W        W81632  28.668  33.458   2.906
 9962W        W81633  23.046  25.592  13.851
 9963W        W81634   5.056  26.476  13.424
 9964W        W81635  23.244  40.921  13.777
 9965W        W81636  15.645  37.910  10.643
 9966W        W81637   2.304  18.028   2.361
 9967W        W81638   0.438  29.996   2.396
 9968W        W81639  39.237  14.101   0.777
 9969W        W81640  28.460  38.392   4.147
 9970W        W81641   6.671  33.429   0.856
 9971W        W81642  16.591   9.682  13.433
 9972W        W81643  25.690  17.115   1.673
 9973W        W81644  44.417   5.676   1.476
 9974W        W81645  20.525  28.356   4.638
 9975W        W81646   2.235   0.470  14.417
 9976W        W81647  22.320  15.846  13.358
 9977W        W81648  42.043  27.735   0.873
 9978W        W81649  16.711   1.981  12.445
 9979W        W81650  15.655  38.242  11.484
 9980W        W81651  40.803  10.846  12.140
 9981W        W81652  17.203  22.165  11.641
 9982W        W81653  29.528  40.578  10.443
 9983W        W81654  20.902  37.521  12.055
 9984W        W81655  16.308  19.066  12.120
 9985W        W81656  39.086  32.779  10.143
 9986W        W81657  26.200  19.324   0.024
 9987W        W81658  38.774  10.887   1.887
 9988W        W81659  21.134  40.847  13.357
 9989W        W81660  36.408  15.704  13.902
 9990W        W81661  40.198  35.470   4.114
 9991W        W81662  18.951  42.806  12.937
 9992W        W81663   8.798  27.668  14.847
 9993W        W81664   1.876  14.718   4.476
 9994W        W81665  31.081  26.974   2.282
 9995W        W81666  30.376  22.143  12.955
 9996W        W81667   4.561  17.291   4.838
 9997W        W81668  34.573  17.241   3.814
 9998W        W81669  33.506  16.099  12.866
 9999W        W81670   7.542   3.965   2.847
10000W        W81671  13.882  37.363   0.884
10001W        W81672   3.902  28.176  13.780
10002W        W81673  18.584  23.040   3.747
10003W        W81674  15.111   0.762   0.291
10004W        W81675  35.940  44.108   1.885
10005W        W81676   9.726   5.335   2.287
10006W        W81677  34.460  14.118  12.848
10007W        W81678   2.026  19.947  13.418
10008W        W81679  44.393  27.439  12.499
10009W        W81680  40.826  33.164   0.621
10010W        W81681   4.404   8.114   0.966
10011W        W81682  43.496  11.800  10.879
10012W        W81683  39.837  18.548   3.669
10013W        W81684  27.050  24.474  13.481
10014W        W81685  18.999  44.424  12.357
10015W        W81686  39.826  36.996   2.422
10016W        W81687  21.264  27.966   4.197
10017W        W81688  40.499  13.107  13.854
10018W        W81689  41.504   9.319  11.633
10019W        W81690  29.691  25.575   0.621
10020W        W81691  33.371   2.334   3.309
10021W        W81692  18.492  39.879  14.507
10022W        W81693  23.666  41.842   0.432
10023W        W81694   8.741  13.137   1.931
10024W        W81695   7.811  20.314  11.146
10025W        W81696  44.440  26.700   3.157
10026W        W81697  24.057  23.663  12.353
10027W        W81698  30.398  29.705  13.018
10028W        W81699   5.477  11.733   3.656
10029W        W81700  19.480  14.335  11.410
10030W        W81701   0.744  15.134  12.925
10031W        W81702   8.387  11.148   4.556
10032W        W81703  25.778  32.984   4.591
10033W        W81704  19.054  37.985  12.505
10034W        W81705  38.411   6.248   2.567
10035W        W81706  20.302   6.447   2.777
10036W        W81707  38.252  21.466  12.665
10037W        W81708  11.158  29.934  13.054
10038W        W81709  14.384  32.160  12.549
10039W        W81710   7.757  38.467   2.402
10040W        W81711   4.564   2.263  13.920
10041W        W81712  12.154  27.971   2.250
10042W        W81713  35.356   7.389   3.674
10043W        W81714  17.749  39.573   0.246
10044W        W81715   8.830  21.433   2.353
10045W        W81716  33.125  29.529  13.433
10046W        W81717  21.161  37.215   0.710
10047W        W81718  39.476  35.326   0.849
10048W        W81719   2.025  34.832   5.141
10049W        W81720  23.018  22.765   4.428
10050W        W81721  14.840   3.558  11.551
10051W        W81722  10.700   3.678  13.299
10052W        W81723  21.132  12.421   2.218
10053W        W81724  33.650   8.355   3.169
10054W        W81725   9.367  23.478  12.441
10055W        W81726  37.381  35.793   1.737
10056W        W81727  11.744  37.340   4.119
10057W        W81728   3.120   3.776  13.459
10058W        W81729  43.488  15.863   3.823
10059W        W81730  14.175  29.406   3.850
10060W        W81731   3.461  29.333   1.013
10061W        W81732  24.212  38.576   2.695
10062W        W81733  32.466  41.821   1.273
10063W        W81734   2.246  33.658  10.695
10064W        W81735  27.436  41.573  12.609
10065W        W81736  44.489  33.519  12.055
10066W        W81737   7.761  32.114   2.790
10067W        W81738  24.313  19.431  11.203
10068W        W81739  11.374  20.466   4.321
10069W        W81740  15.295  25.666   0.898
10070W        W81741  15.839  23.024  14.453
10071W        W81742  19.174  18.335  11.168
10072W        W81743  28.350  38.376  10.645
10073W        W81744  32.885  28.879  11.390
10074W        W81745  34.353   1.728  11.027
10075W        W81746   3.486  12.066   2.904
10076W        W81747  12.725   4.005  11.837
10077W        W81748  11.077  26.218  13.954
10078W        W81749  44.845  30.951  13.838
10079W        W81750   1.910   8.886  11.086
10080W        W81751  15.569  28.251  11.035
10081W        W81752  16.141  41.242  12.575
10082W        W81753  17.536  10.053  13.136
10083W        W81754   1.964  30.618  14.443
10084W        W81755  43.511  41.468  13.512
10085W        W81756  25.820  18.708  11.088
10086W        W81757  21.595   8.540  12.533
10087W        W81758  35.460  43.470  10.362
10088W        W81759  23.788  42.433   1.773
10089W        W81760   2.729   2.447  11.579
10090W        W81761   1.126  39.983   3.317
10091W        W81762  35.863   5.930  14.350
10092W        W81763  37.820  11.902   2.773
10093W        W81764  27.430  11.737   1.910
10094W        W81765   0.371  30.829  13.498
10095W        W81766  11.778   1.576  10.655
10096W        W81767   3.365  30.729  11.130
10097W        W81768  42.796  28.290   3.549
10098W        W81769  40.376  40.771   3.230
10099W        W81770   6.180  10.592   0.073
10100W        W81771  18.459  38.474   4.580
10101W        W81772  36.677   1.746  10.602
10102W        W81773  10.130  23.748  10.921
10103W        W81774  13.288  17.337   1.294
10104W        W81775  21.031  17.508   1.360
10105W        W81776  19.840   8.038   3.238
10106W        W81777  33.497  24.071   3.191
10107W        W81778   9.290  17.636  10.550
10108W        W81779  44.263  10.993   0.066
10109W        W81780  41.091  21.612   5.266
10110W        W81781  38.310  24.480  14.956
10111W        W81782   7.686  10.810   2.290
10112W        W81783  10.199  40.485  11.456
10113W        W81784   2.469  19.165   1.385
10114W        W81785   8.181   0.262   3.610
10115W        W81786   6.154  21.916  11.800
10116W        W81787  36.487  13.052  13.528
10117W        W81788  12.656   7.191   4.276
10118W        W81789  30.230  40.620  12.779
10119W        W81790  16.702   5.380  12.589
10120W        W81791  19.255  13.085  12.135
10121W        W81792  41.879   6.321  14.814
10122W        W81793  23.745  12.929  12.843
10123W        W81794  43.340  21.883   3.217
10124W        W81795  23.569  41.671  14.343
10125W        W81796  42.864   2.342  10.962
10126W        W81797  24.736  42.390   2.111
10127W        W81798  17.174  18.633   0.909
10128W        W81799  44.036  39.831   5.051
10129W        W81800  21.493   4.762   4.680
10130W        W81801   5.707  38.491  11.250
10131W        W81802  32.477  33.141  13.803
10132W        W81803  27.197  43.318   3.709
10133W        W81804  21.382  10.706   1.763
10134W        W81805  12.712  21.810  11.509
10135W        W81806   5.868   0.004   1.064
10136W        W81807  29.666  35.711   3.030
10137W        W81808  39.175  22.684   4.701
10138W        W81809  28.688   6.335  14.231
10139W        W81810  15.857  11.671  14.249
10140W        W81811  17.476   7.218   0.990
10141W        W81812  31.075   2.524   0.360
10142W        W81813   7.149  12.144   0.147
10143W        W81814  10.309  41.313  14.254
10144W        W81815   2.942  38.449  14.152
10145W        W81816  16.311  25.380   0.796
10146W        W81817  18.491   8.803  13.382
10147W        W81818  11.690  36.478  11.613
10148W        W81819  34.495  37.290   4.136
10149W        W81820   1.313  28.813  11.501
10150W        W81821  16.546   9.091   2.696
10151W        W81822  29.935  22.512   3.393
10152W        W81823  17.003  23.372  12.997
10153W        W81824  40.227  43.025  11.529
10154W        W81825  12.880  26.892   3.820
10155W        W81826  36.595  27.490   4.759
10156W        W81827  34.606  34.073  12.956
10157W        W81828  23.133  13.663  12.200
10158W        W81829  37.143   5.680  12.873
10159W        W81830   7.831  27.799  11.617
10160W        W81831  35.340  28.702   4.628
10161W        W81832   6.882  32.207  11.195
10162W        W81833  28.541   3.462   3.607
10163W        W81834  34.132  18.732   0.446
10164W        W81835   1.519   4.490   0.181
10165W        W81836  12.112  13.260   3.725
10166W        W81837  44.281  34.910   4.560
10167W        W81838  23.733  29.528  11.530
10168W        W81839   2.273   2.838  14.404
10169W        W81840   5.145  21.528  13.545
10170W        W81841  22.719  14.640   2.313
10171W        W81842  39.965  10.919   4.662
10172W        W81843   9.724  29.094   4.906
10173W        W81844  29.603   5.910  10.674
10174W        W81845   5.956   4.383  13.992
10175W        W81846  24.746  22.252   4.133
10176W        W81847  17.565  33.515   3.767
10177W        W81848  26.562  16.410   0.854
10178W        W81849  39.791  12.828  12.196
10179W        W81850   4.258  29.592   0.561
10180W        W81851  39.186  27.967  10.747
10181W        W81852  28.586  29.811   3.315
10182W        W81853  23.809   1.373   3.305
10183W        W81854   4.218   1.445   2.222
10184W        W81855   4.417  44.471   1.473
10185W        W81856  21.555   4.855   1.141
10186W        W81857  11.992  10.570  11.913
10187W        W81858  19.565   6.940   2.398
10188W        W81859  43.305   7.657  11.347
10189W        W81860   6.895  10.623   0.299
10190W        W81861  22.244  34.485   3.547
10191W        W81862   7.958  30.518  12.895
10192W        W81863   0.371  17.644  11.818
10193W        W81864  22.111  30.944  14.771
10194W        W81865  29.728  44.364  15.000
10195W        W81866  28.850  16.723   0.226
10196W        W81867  44.983   3.628  12.602
10197W        W81868  17.792  35.797  13.298
10198W        W81869   3.808  21.993  11.698
10199W        W81870  21.610  19.793   4.101
10200W        W81871  14.802   1.864  12.013
10201W        W81872   3.747  37.781   1.346
10202W        W81873  25.454  40.939   0.157
10203W        W81874  25.955  41.971   3.121
10204W        W81875   2.886  38.366  14.734
10205W        W81876  31.537  18.440  13.304
10206W        W81877  35.032   8.616  13.411
10207W        W81878  30.970   1.943  12.420
10208W        W81879  28.758   4.225   1.450
10209W        W81880  42.463   5.027  14.470
10210W        W81881  40.324  23.269  11.097
10211W        W81882  35.468  42.135  14.751
10212W        W81883  39.734   6.364   2.360
10213W        W81884  14.659  30.538  13.842
10214W        W81885  40.350  10.772   1.525
10215W        W81886  16.758  42.860  12.640
10216W        W81887   5.252  11.756  13.488
10217W        W81888  26.570  18.505  13.798
10218W        W81889   4.981  11.098  10.295
10219W        W81890  21.538   1.229   0.755
10220W        W81891  29.698  30.197  12.520
10221W        W81892   7.223  20.012  12.089
10222W        W81893  31.915   0.737  10.533
10223W        W81894  30.740  17.062  10.399
10224W        W81895  28.191   9.328   1.703
10225W        W81896  37.021  40.214   4.504
10226W        W81897   1.361   1.258   2.753
10227W        W81898  43.476  24.960   2.240
10228W        W81899  37.786   8.490   3.273
10229W        W81900  30.459  17.853  14.905
10230W        W81901  35.135  30.116   0.351
10231W        W81902  29.962  44.503   2.269
10232W        W81903  39.815  20.901   4.224
10233W        W81904   5.201   2.761   1.768
10234W        W81905  29.043  19.940   3.106
10235W        W81906  40.399  40.017  10.666
10236W        W81907   0.704  13.800  11.010
10237W        W81908  33.101  25.488  12.043
10238W        W81909  19.637  35.416  13.072
10239W        W81910  19.479  31.612  10.611
10240W        W81911  35.552  38.519   4.618
10241W        W81912  29.953  29.351  13.695
10242W        W81913  15.384   8.847  13.942
10243W        W81914  38.779  27.061   2.170
10244W        W81915  41.238  13.161   5.089
10245W        W81916   4.720  41.420   0.506
10246W        W81917   2.791  15.495  14.886
10247W        W81918  16.390  43.320  11.507
10248W        W81919   8.451   4.705   2.658
10249W        W81920  30.622  10.116   1.537
10250W        W81921  44.453  43.775  11.639
10251W        W81922  13.563  27.999   3.254
10252W        W81923  26.593  36.837   1.814
10253W        W81924   9.231  31.103  10.716
10254W        W81925   4.641  27.480  12.760
10255W        W81926  22.166  10.945  12.902
10256W        W81927  11.402  43.670  14.712
10257W        W81928  14.224  25.398   4.971
10258W        W81929  34.499  19.805  14.432
10259W        W81930  40.372   2.177  13.379
10260W        W81931  13.733   0.652  11.643
10261W        W81932  19.025   4.509  10.944
10262W        W81933  33.954  16.763  12.484
10263W        W81934  24.252  23.033   0.306
10264W        W81935  41.077  27.502  12.057
10265W        W81936   7.858  39.925   0.806
10266W        W81937  31.697   6.489  11.251
10267W        W81938   9.609  12.801   0.543
10268W        W81939  37.438   5.366  12.195
10269W        W81940  38.410  41.806  14.712
10270W        W81941   3.287  22.907  13.979
10271W        W81942  31.064   6.282   4.314
10272W        W81943   6.369  36.892   0.245
10273W        W81944  17.888  15.332  10.887
10274W        W81945  19.817  38.646  11.593
10275W        W81946  26.522  31.535   4.656
10276W        W81947  12.775   5.663   1.226
10277W        W81948  38.318   6.140   1.007
10278W        W81949  43.964  18.239   4.701
10279W        W81950   0.765  26.081   4.725
10280W        W81951  19.291   3.803   3.526
10281W        W81952  23.963  37.925   1.083
10282W        W81953  23.644  39.553  12.074
10283W        W81954   9.681  35.115   2.832
10284W        W81955  13.079  38.445   1.325
10285W        W81956  33.292  11.703   3.082
10286W        W81957  32.118  30.131  14.377
10287W        W81958  17.678  43.142  13.758
10288W        W81959  41.535  41.866   1.683
10289W        W81960  12.367   8.210   2.691
10290W        W81961   5.623  38.058  10.929
10291W        W81962  33.931  38.523   2.438
10292W        W81963  29.649  27.118  14.976
10293W        W81964  22.822  41.013  14.061
10294W        W81965  39.900  13.100   2.275
10295W        W81966   7.398  26.606   0.424
10296W        W81967  33.179  37.793  10.575
10297W        W81968  26.108   6.390  12.295
10298W        W81969   8.660  34.229  14.295
10299W        W81970  41.892  27.161  10.530
10300W        W81971  29.555  37.605   4.559
10301W        W81972  19.733  34.714   3.266
10302W        W81973   0.194  17.205  14.402
10303W        W81974  40.636  35.546   1.701
10304W        W81975  26.451   2.469   0.734
10305W        W81976   0.245  26.413  12.382
10306W        W81977  37.815   3.321   1.502
10307W        W81978  29.568   1.357   2.907
10308W        W81979  14.084  43.803   1.815
10309W        W81980   7.004  43.183  12.834
10310W        W81981  22.986  38.047  11.630
10311W        W81982   1.393  17.844   0.242
10312W        W81983  43.434  19.134   1.254
10313W        W81984  19.030  36.947   0.269
10314W        W81985   8.035  20.426   4.157
10315W        W81986  24.530  20.953   2.729
10316W        W81987  43.270  42.758   3.231
10317W        W81988   5.432  10.162  14.302
10318W        W81989   5.481   8.220   3.768
10319W        W81990  18.769  32.575  11.883
10320W        W81991  17.308  35.174   1.287
10321W        W81992   1.810  33.010  13.912
10322W        W81993  12.530   3.374   2.353
10323W        W81994  36.889  19.064  10.581
10324W        W81995  43.314   9.310  11.060
10325W        W81996  19.861  11.726   3.399
10326W        W81997  35.240   0.366  11.591
10327W        W81998   8.470  26.907  12.475
10328W        W81999  41.059  10.621  11.723
10329W        W82000  30.707  29.277  12.990
10330W        W82001  17.950  24.435  13.840
10331W        W82002  17.508  40.776   2.176
10332W        W82003  18.209  29.848  11.573
10333W        W82004  35.560  17.612   2.115
10334W        W82005  16.828   2.302   3.647
10335W        W82006  28.964  16.632  12.608
10336W        W82007   3.586   6.126   2.727
10337W        W82008  41.663  40.353   4.511
10338W        W82009   5.468  30.940   0.913
10339W        W82010  29.020  11.701   4.170
10340W        W82011  13.476  15.437  14.811
10341W        W82012  41.933  26.162  11.437
10342W        W82013   1.299   7.795  12.851
10343W        W82014   2.771  38.609  11.622
10344W        W82015  22.002  30.345   0.421
10345W        W82016  30.622  22.811  13.552
10346W        W82017   0.342  44.338   0.424
10347W        W82018   1.208  39.512   4.557
10348W        W82019  24.592  16.290   4.283
10349W        W82020  31.173  39.506  11.403
10350W        W82021  14.258  33.379  14.852
10351W        W82022  18.055  36.123  14.760
10352W        W82023  13.083  23.834  14.849
10353W        W82024  33.334  26.490   4.758
10354W        W82025  32.084  25.247  11.924
10355W        W82026  21.551   9.511  11.506
10356W        W82027  13.357   5.242   3.811
10357W        W82028  18.169  43.273  12.036
10358W        W82029   3.278   8.556   0.348
10359W        W82030   9.607   9.709   3.770
10360W        W82031  15.788  10.889  14.202
10361W        W82032   1.508  23.247  10.731
10362W        W82033  32.976  35.073  11.195
10363W        W82034  23.575   3.432  10.507
10364W        W82035   6.973   9.730   4.174
10365W        W82036  21.173   4.146   3.632
10366W        W82037  19.574   0.338  12.336
10367W        W82038  15.066  21.145   1.416
10368W        W82039   7.094   6.449  12.665
10369W        W82040  37.063  25.627  10.780
10370W        W82041  28.965  19.594  14.078
10371W        W82042  31.992  38.549  10.882
10372W        W82043  14.039  21.598  12.839
10373W        W82044  41.702   8.868  10.771
10374W        W82045  13.787  38.591   1.826
10375W        W82046  17.344  23.842  14.617
10376W        W82047   7.153   8.737   2.775
10377W        W82048  26.429  34.547  12.816
10378W        W82049  19.649   5.294  12.042
10379W        W82050  17.821  14.101   2.193
10380W        W82051   0.396  36.107  12.019
10381W        W82052   2.247  39.876   1.063
10382W        W82053  41.363  15.145   3.150
10383W        W82054  31.929  23.667  14.707
10384W        W82055  11.111  18.839   1.190
10385W        W82056   1.722  32.404  11.697
10386W        W82057  15.700   2.760   1.240
10387W        W82058  21.116  11.823   4.560
10388W        W82059   4.332  27.365   4.264
10389W        W82060  24.021  25.463  14.398
10390W        W82061  21.720  42.300   0.196
10391W        W82062   7.647  17.075   3.684
10392W        W82063  16.785   1.706  10.893
10393W        W82064   5.773  24.177  12.680
10394W        W82065  20.526  18.005   3.646
10395W        W82066  15.154  42.399  10.715
10396W        W82067  24.563   3.259   2.932
10397W        W82068  17.288  11.423  11.137
10398W        W82069  11.854  14.631  13.086
10399W        W82070  21.461  39.960   1.896
10400W        W82071  25.430  37.118  14.005
10401W        W82072  26.608  12.061  14.844
10402W        W82073  27.218  18.274  12.508
10403W        W82074  25.518  14.993  13.783
10404W        W82075   3.549  23.012   3.101
10405W        W82076   8.634  44.647  13.258
10406W        W82077  26.625  27.646  13.449
10407W        W82078  32.782  31.413   2.413
10408W        W82079  17.225  11.875  12.007
10409W        W82080   2.696   2.671  13.764
10410W        W82081  18.306  22.284   1.195
10411W        W82082  44.529   9.828   1.880
10412W        W82083   3.642  11.104   2.847
10413W        W82084   7.638  32.221   0.442
10414W        W82085  17.641  13.249   5.214
10415W        W82086  12.938  18.882  12.494
10416W        W82087  16.102   4.843   0.920
10417W        W82088  43.852  28.230  10.995
10418W        W82089   6.981  20.669  13.970
10419W        W82090  14.557   7.096   3.141
10420W        W82091  11.344   6.377  12.027
10421W        W82092  32.368  21.644  13.136
10422W        W82093  23.545  20.120  13.893
10423W        W82094   1.451  14.096   3.934
10424W        W82095  43.300  36.364  12.675
10425W        W82096  42.850  33.549  12.045
10426W        W82097   9.788  39.836   4.631
10427W        W82098   3.236  29.489   0.300
10428W        W82099  42.284  37.351   1.422
10429W        W82100  31.640   3.327   0.363
10430W        W82101   9.257  18.766  13.563
10431W        W82102  32.556  34.680  12.512
10432W        W82103  27.052   8.458  11.034
10433W        W82104  26.525  33.200  12.860
10434W        W82105   6.836   1.726  12.330
10435W        W82106  30.056  24.022   4.858
10436W        W82107  36.423  21.992   2.337
10437W        W82108  21.243  24.033  11.904
10438W        W82109  19.188  11.945   0.896
10439W        W82110  37.321  31.984   0.276
10440W        W82111  18.640   1.961  11.201
10441W        W82112  27.404   0.821   3.479
10442W        W82113  44.238  17.261  11.341
10443W        W82114  15.170  29.589   0.558
10444W        W82115  38.923  34.454  10.735
10445W        W82116  15.987  42.610   2.276
10446W        W82117  18.707  21.250  10.722
10447W        W82118  21.169  25.536   3.411
10448W        W82119   7.235  28.073   1.860
10449W        W82120  14.329  34.530  12.127
10450W        W82121  13.100  16.601   1.331
10451W        W82122  23.662  26.296   3.294
10452W        W82123  33.441  26.571  11.141
10453W        W82124  24.642  25.480   1.210
10454W        W82125  17.102  29.637  11.708
10455W        W82126  18.752  19.551   5.035
10456W        W82127   4.862  23.017  11.933
10457W        W82128  37.879  18.785  12.824
10458W        W82129  30.912  14.842   1.743
10459W        W82130  27.966  37.639   1.522
10460W        W82131  12.609  36.338  11.645
10461W        W82132   6.914  15.031  14.626
10462W        W82133  30.934  30.631   1.828
10463W        W82134  43.849   6.310  12.130
10464W        W82135  15.193   9.048   3.806
10465W        W82136  33.535  14.685   0.649
10466W        W82137  42.963   1.805   1.935
10467W        W82138   4.263   6.103   3.087
10468W        W82139   4.814  44.209   2.257
10469W        W82140  18.196  38.829  11.567
10470W        W82141  30.633   3.644  13.319
10471W        W82142  22.993  44.861  11.590
10472W        W82143   8.443  17.919   1.195
10473W        W82144  15.763  27.084   0.750
10474W        W82145  22.619  22.001  12.140
10475W        W82146  21.050  18.544  13.415
10476W        W82147  22.241  44.572   3.695
10477W        W82148  18.247   1.966   1.295
10478W        W82149  29.028  16.658  11.188
10479W        W82150  40.140  20.747  12.522
10480W        W82151   1.767  19.060   4.959
10481W        W82152  20.080  26.036  12.325
10482W        W82153  11.331  41.804   0.039
10483W        W82154   2.830  41.721  13.325
10484W        W82155  13.156  38.358   3.372
10485W        W82156  29.921  28.548   1.480
10486W        W82157  36.257  38.112   4.978
10487W        W82158  14.116  26.778  14.660
10488W        W82159  40.305  21.564   4.553
10489W        W82160  23.546  39.762  10.250
10490W        W82161  39.429  10.806  12.907
10491W        W82162  37.731   4.879  12.831
10492W        W82163   9.432  10.319   3.197
10493W        W82164  19.293  24.163   2.292
10494W        W82165  21.295  21.735  14.834
10495W        W82166  11.457  28.527   0.902
10496W        W82167  11.155  28.753  10.823
10497W        W82168  13.882   2.458   1.004
10498W        W82169   3.001  21.188   2.296
10499W        W82170  11.820  29.622   0.031
10500W        W82171  34.196  11.161  13.093
10501W        W82172  12.637  16.550  12.967
10502W        W82173  19.792   6.460   4.534
10503W        W82174  14.731  12.789   1.410
10504W        W82175   0.545  27.308  11.159
10505W        W82176  24.580   0.886   3.139
10506W        W82177  33.582  29.028   1.247
10507W        W82178  26.310   4.332   0.842
10508W        W82179  43.052   7.977  13.059
10509W        W82180  13.150   6.825  13.007
10510W        W82181   8.355  13.706   2.571
10511W        W82182  41.936  22.563   4.978
10512W        W82183  34.590  27.440  12.719
10513W        W82184  42.580  19.071  11.096
10514W        W82185   0.976  41.746  13.315
10515W        W82186   1.459  33.015  10.438
10516W        W82187  37.569   3.637   0.744
10517W        W82188  41.302   1.305  13.530
10518W        W82189   8.393  37.789  11.490
10519W        W82190  10.430  24.955  13.039
10520W        W82191  16.389  20.910  14.020
10521W        W82192   2.858   4.674   0.649
10522W        W82193  42.577  25.128   3.379
10523W        W82194  30.362  22.111   1.026
10524W        W82195   8.228  10.789   0.248
10525W        W82196  17.519  25.722  13.086
10526W        W82197  21.714  21.617  10.709
10527W        W82198  25.540  30.526   4.632
10528W        W82199  11.909   6.293  12.904
10529W        W82200   8.039  33.585  13.018
10530W        W82201   9.896  25.923  10.980
10531W        W82202   7.824  29.267  10.791
10532W        W82203   8.493   3.704   3.414
10533W        W82204  12.649   6.332  13.529
10534W        W82205   9.217  43.855  10.784
10535W        W82206  13.317   6.024   0.303
10536W        W82207   9.864  28.509  10.871
10537W        W82208  16.001  26.481  10.583
10538W        W82209   3.491  23.481   1.387
10539W        W82210   8.460  26.491   4.050
10540W        W82211  39.519  23.771  14.756
10541W        W82212  41.839  10.630   2.869
10542W        W82213  29.622  39.779  13.606
10543W        W82214  41.911  10.644   3.407
10544W        W82215  18.340  19.615  10.773
10545W        W82216  14.873   4.376   0.741
10546W        W82217   8.292  33.640   1.920
10547W        W82218  16.355  41.805  13.797
10548W        W82219  22.099  20.685  12.495
10549W        W82220  17.717   6.336  12.174
10550W        W82221  41.839  40.311  14.569
10551W        W82222   2.567  32.066   3.204
10552W        W82223  38.815  36.325  12.964
10553W        W82224   7.923  22.211   3.687
10554W        W82225  17.024  13.759  13.382
10555W        W82226  32.956  33.369   4.814
10556W        W82227  22.678   0.559   2.218
10557W        W82228  34.589  30.040   3.340
10558W        W82229  38.368  44.296   3.200
10559W        W82230  42.507  21.051  10.627
10560W        W82231  32.371  10.063  12.483
10561W        W82232  16.272  28.405  14.393
10562W        W82233   4.302  12.690   2.955
10563W        W82234   8.682  10.487   0.445
10564W        W82235  26.183  21.962  11.604
10565W        W82236  43.964  17.609   3.317
10566W        W82237  36.390  22.128  13.080
10567W        W82238  17.880  38.878  11.167
10568W        W82239   0.263  41.419   1.219
10569W        W82240  31.954   6.482   4.149
10570W        W82241  14.577  38.851  13.818
10571W        W82242   7.770  28.258   4.365
10572W        W82243  44.423  23.567   4.072
10573W        W82244   3.888   7.315   4.613
10574W        W82245  33.403  21.173  14.989
10575W        W82246  30.578  21.775  13.313
10576W        W82247  40.610  18.675   3.354
10577W        W82248   4.582  23.019   3.401
10578W        W82249  38.897   7.621  12.950
10579W        W82250  25.083   7.314   0.910
10580W        W82251  25.105  19.001   1.890
10581W        W82252  27.756  14.565  14.318
10582W        W82253   1.862  21.286   1.229
10583W        W82254  26.107  31.618  11.014
10584W        W82255  23.587  35.400  14.822
10585W        W82256  14.658  10.320   3.411
10586W        W82257  20.749  21.229  12.938
10587W        W82258  20.003  34.341  12.441
10588W        W82259  34.620  18.712   2.868
10589W        W82260  34.634  25.812  11.690
10590W        W82261  18.089   8.888  12.118
10591W        W82262  12.865  26.154  11.215
10592W        W82263   6.330   3.872   0.910
10593W        W82264  39.834   8.661   0.884
10594W        W82265  26.626  22.368   3.114
10595W        W82266   1.701   6.491   1.333
10596W        W82267  17.268  38.378  11.486
10597W        W82268   8.231   1.915  14.997
10598W        W82269   6.040   8.251   0.751
10599W        W82270  16.972  20.188  13.957
10600W        W82271  36.685   6.356  12.241
10601W        W82272  21.256  15.849   0.559
10602W        W82273  14.553  25.169   0.896
10603W        W82274  44.885  33.584   4.552
10604W        W82275   3.806  43.193   1.472
10605W        W82276  26.854   4.003   1.427
10606W        W82277  38.427  40.309  13.908
10607W        W82278  23.643  28.453  14.238
10608W        W82279  32.885  27.952   3.107
10609W        W82280  17.444   4.361  12.425
10610W        W82281  26.042   7.859   3.102
10611W        W82282   0.907  12.669   2.690
10612W        W82283  34.856  23.265   4.076
10613W        W82284  11.919  31.073  12.139
10614W        W82285  18.775  40.324   4.173
10615W        W82286   6.394  21.072  11.894
10616W        W82287   4.895   1.878   1.988
10617W        W82288   2.979  25.649  14.903
10618W        W82289   8.573  11.154   3.197
10619W        W82290  21.665  26.266   0.364
10620W        W82291  27.031  25.279  11.175
10621W        W82292   5.821  19.473  12.959
10622W        W82293  37.107  16.640   4.097
10623W        W82294  25.430  30.209  12.577
10624W        W82295  41.374  43.728   2.266
10625W        W82296  21.497  39.858   0.391
10626W        W82297  13.187  17.684  10.524
10627W        W82298  19.674  14.991  14.246
10628W        W82299  35.129  16.107  10.372
10629W        W82300  40.808  13.540   3.150
10630W        W82301  19.505  20.626   3.355
10631W        W82302  15.598  25.926  12.920
10632W        W82303  30.375  12.830   2.177
10633W        W82304  27.448   6.228  13.781
10634W        W82305  26.647  19.421   3.283
10635W        W82306  25.796  24.063  12.339
10636W        W82307  27.485  33.986  11.128
10637W        W82308  42.262  22.001   2.162
10638W        W82309  37.771  29.893  12.485
10639W        W82310  22.640  14.303  13.656
10640W        W82311   0.283  27.507   3.692
10641W        W82312  19.193  39.325   3.740
10642W        W82313  19.765  30.146   2.339
10643W        W82314  35.528  39.135   2.867
10644W        W82315  21.263  39.878  10.145
10645W        W82316   7.748   0.438   4.131
10646W        W82317  12.736  27.619   4.180
10647W        W82318  12.076  21.200   1.371
10648W        W82319  44.281  26.173  11.645
10649W        W82320  22.596   3.975   1.702
10650W        W82321   3.463  44.086   1.302
10651W        W82322   9.166  35.750  10.900
10652W        W82323  36.248  41.792   1.006
10653W        W82324  13.796   6.639   3.203
10654W        W82325   3.798   6.269   0.883
10655W        W82326  19.437  24.287  13.940
10656W        W82327  36.441  11.778  12.155
10657W        W82328  15.653  39.106  13.958
10658W        W82329   4.477  31.950  11.262
10659W        W82330  11.180  17.776  14.812
10660W        W82331   3.839  37.995  14.054
10661W        W82332  34.699  11.321   0.189
10662W        W82333   6.276   6.896   4.665
10663W        W82334   5.572  27.003   0.184
10664W        W82335  38.400  22.287   1.420
10665W        W82336  25.804  24.233   2.594
10666W        W82337  12.973  38.562  10.696
10667W        W82338   4.285  16.086  13.370
10668W        W82339  40.307   6.467  11.997
10669W        W82340  17.265  43.093   2.269
10670W        W82341  38.009   3.534  13.974
10671W        W82342  37.525  15.778  13.516
10672W        W82343  33.513   7.168  13.854
10673W        W82344  44.404  23.335   2.157
10674W        W82345  22.684   5.873   0.902
10675W        W82346  43.812  35.148  14.378
10676W        W82347  11.079  23.277   0.388
10677W        W82348  19.903   3.977  11.634
10678W        W82349  26.968   2.919   3.239
10679W        W82350  18.098  17.580   3.915
10680W        W82351  39.041  13.159   1.956
10681W        W82352  21.619   0.536  14.478
10682W        W82353  23.818   1.378  13.370
10683W        W82354   2.119  23.101   0.249
10684W        W82355  43.807  26.749  14.009
10685W        W82356  37.748  10.080  14.345
10686W        W82357  26.434  39.618  12.157
10687W        W82358  44.307   5.385  13.077
10688W        W82359  44.317  40.548  13.423
10689W        W82360  19.150  43.552   1.231
10690W        W82361  12.983  44.473  13.399
10691W        W82362   8.225   7.822  11.668
10692W        W82363  14.059   5.203  14.528
10693W        W82364  36.614  10.245   2.719
10694W        W82365  17.012   6.629   3.436
10695W        W82366  42.089  34.170  12.966
10696W        W82367  34.633  20.785   1.228
10697W        W82368  15.692   4.867   5.117
10698W        W82369  15.205   1.933  14.336
10699W        W82370  18.816   9.780  14.304
10700W        W82371  32.250  31.629  13.643
10701W        W82372   4.968   7.654  11.226
10702W        W82373  20.497  19.622   0.454
10703W        W82374  31.202  44.974   2.207
10704W        W82375  41.366  41.405   1.889
10705W        W82376  20.811  28.740  13.013
10706W        W82377   0.683  22.521   0.934
10707W        W82378   7.715   1.247   1.471
10708W        W82379  36.281  15.291   0.815
10709W        W82380  10.628  21.741  13.464
10710W        W82381  41.527  43.573   3.615
10711W        W82382  27.028  37.280   1.403
10712W        W82383  13.297  24.267  14.089
10713W        W82384  15.183  11.309  13.111
10714W        W82385  41.337  28.712  13.052
10715W        W82386  24.439  16.137  11.574
10716W        W82387  24.291  11.665  14.009
10717W        W82388  31.693  24.627  12.547
10718W        W82389  38.920  31.625  13.074
10719W        W82390  18.023   6.194   3.175
10720W        W82391  44.298  25.541  13.862
10721W        W82392  31.977  36.145   5.118
10722W        W82393   8.805  32.405   0.038
10723W        W82394  33.550   7.409  14.319
10724W        W82395  23.227   7.515  14.316
10725W        W82396  22.684   5.749   2.468
10726W        W82397  28.983  22.498   3.214
10727W        W82398  11.209  27.942  11.588
10728W        W82399  16.298  42.974  11.118
10729W        W82400  28.047  39.149   3.186
10730W        W82401  21.995   7.778  13.437
10731W        W82402   7.352   9.562   0.805
10732W        W82403  42.340  26.177  14.314
10733W        W82404  40.393  32.489   1.955
10734W        W82405  35.395  40.809   4.617
10735W        W82406   4.724  38.463  11.083
10736W        W82407  32.861  37.417  14.704
10737W        W82408  17.222   1.692  10.618
10738W        W82409  33.953  38.101  13.552
10739W        W82410  12.780  33.528  11.417
10740W        W82411  32.324  27.135  10.845
10741W        W82412  39.886  19.921  12.101
10742W        W82413  23.089  40.179  11.708
10743W        W82414   2.797  16.661   3.188
10744W        W82415  14.267  16.076   1.210
10745W        W82416  33.382   0.455  12.039
10746W        W82417  42.674  38.429   0.997
10747W        W82418   7.139   3.126  12.499
10748W        W82419  42.455  27.186  11.138
10749W        W82420  25.170  23.070   3.757
10750W        W82421  29.500  28.607  10.476
10751W        W82422  33.435   6.905   0.271
10752W        W82423  34.227  19.622  13.982
10753W        W82424  29.392   0.281   2.814
10754W        W82425   9.999   1.174   2.218
10755W        W82426   2.025   1.196  12.056
10756W        W82427   1.397  20.369  13.857
10757W        W82428  15.063   4.823  11.401
10758W        W82429  40.606  33.545  11.995
10759W        W82430  23.569  38.013  14.697
10760W        W82431  31.122  21.985  11.629
10761W        W82432  28.852  24.030   1.621
10762W        W82433   6.191  17.935  11.823
10763W        W82434  22.769  43.478   4.311
10764W        W82435  42.766  19.108  12.963
10765W        W82436  16.133  31.122   3.739
10766W        W82437  40.035  43.825  12.402
10767W        W82438  36.793  30.210  14.430
10768W        W82439   2.540   8.313  13.446
10769W        W82440  22.779  30.247   1.409
10770W        W82441  27.575  22.175  11.716
10771W        W82442  43.098  41.945   5.492
10772W        W82443  30.046  44.775   4.036
10773W        W82444  29.386  18.002   4.209
10774W        W82445  16.176  12.523   4.129
10775W        W82446  11.144  13.064  13.589
10776W        W82447  18.052  10.192  13.882
10777W        W82448  23.005   7.989   2.968
10778W        W82449  26.889  38.396   4.299
10779W        W82450  15.372  11.552  14.128
10780W        W82451  30.987   7.664   2.600
10781W        W82452  30.441  23.888   3.816
10782W        W82453  10.767  34.995   4.190
10783W        W82454  35.455  32.671  13.857
10784W        W82455   5.711  14.387   0.812
10785W        W82456  21.306   0.984   2.328
10786W        W82457   2.734  21.289  11.154
10787W        W82458  11.391   5.501  13.607
10788W        W82459  41.872  19.250  13.766
10789W        W82460  37.386  10.474  14.350
10790W        W82461  26.499   9.960   1.783
10791W        W82462  14.793  12.865   4.402
10792W        W82463  32.306  23.662   3.642
10793W        W82464  24.989  25.680  11.363
10794W        W82465  11.099   0.600  12.051
10795W        W82466   5.550  33.175  13.480
10796W        W82467  10.223  39.205  10.698
10797W        W82468  44.270   8.755   0.888
10798W        W82469  17.144  38.370  14.012
10799W        W82470  17.248  21.140   2.756
10800W        W82471  16.076   9.324  11.660
10801W        W82472   0.237  12.322   5.197
10802W        W82473  32.643  12.647  13.355
10803W        W82474   9.767  34.577  11.045
10804W        W82475  34.298  11.981  14.500
10805W        W82476   2.397  10.811   4.319
10806W        W82477  36.409  38.812  14.972
10807W        W82478  12.617  25.314  12.042
10808W        W82479  40.106   4.793  14.909
10809W        W82480   2.228   9.227  14.982
10810W        W82481  33.107  42.453   4.629
10811W        W82482  43.973  43.633   3.756
10812W        W82483  41.713  20.124  11.908
10813W        W82484  24.550  12.124   0.440
10814W        W82485   8.199  43.562  14.894
10815W        W82486  41.027  20.660  11.777
10816W        W82487  36.590  41.100  13.403
10817W        W82488   8.786  14.071  13.538
10818W        W82489  29.383  44.972   0.767
10819W        W82490  25.606   5.569  12.112
10820W        W82491  31.602   3.688  11.091
10821W        W82492  18.920  36.906   1.249
10822W        W82493  19.020   7.893  13.420
10823W        W82494  12.324  12.251  13.284
10824W        W82495  25.540  24.138   3.421
10825W        W82496  34.099  27.269  12.943
10826W        W82497  10.241  21.020   2.314
10827W        W82498  16.639  43.774  11.489
10828W        W82499  41.479  14.191  12.423
10829W        W82500   0.305  15.578   2.289
10830W        W82501  25.558  11.602   3.690
10831W        W82502   1.252  27.099  10.545
10832W        W82503  29.485  32.547   1.904
10833W        W82504  34.432   6.651  13.858
10834W        W82505  37.852  30.948  12.467
10835W        W82506  38.350  19.945   1.829
10836W        W82507  43.220   9.383   4.216
10837W        W82508  22.492  32.444   0.635
10838W        W82509  21.440  11.766   0.973
10839W        W82510  32.941  22.524   1.157
10840W        W82511  34.898   2.963  11.917
10841W        W82512   1.482  39.786   4.204
10842W        W82513   0.971  20.614  14.388
10843W        W82514  11.138  27.580   1.854
10844W        W82515   9.865  27.690  13.846
10845W        W82516  41.394  26.633  11.997
10846W        W82517  18.334  11.443   0.817
10847W        W82518  12.737  18.002   1.661
10848W        W82519  20.256  24.638   4.575
10849W        W82520  31.423  33.018   1.967
10850W        W82521  10.546  35.978  14.950
10851W        W82522  15.362   0.053   2.708
10852W        W82523  10.746  20.743  11.167
10853W        W82524  21.672  18.012  14.706
10854W        W82525  19.357   8.120  12.999
10855W        W82526  26.190  40.817  12.306
10856W        W82527  13.411  16.596   1.791
10857W        W82528  31.083  24.429   2.050
10858W        W82529  22.460  41.632  11.060
10859W        W82530  23.557  31.390   2.087
10860W        W82531  21.235  30.636   0.868
10861W        W82532  32.910  13.905   0.784
10862W        W82533  44.345  12.722   4.928
10863W        W82534  14.101  31.786  12.775
10864W        W82535  20.466  19.831  10.801
10865W        W82536   9.408   4.707   2.768
10866W        W82537  22.346  22.768  10.081
10867W        W82538   5.473  25.045   4.654
10868W        W82539  40.297  25.117   0.686
10869W        W82540  39.974  44.428  10.537
10870W        W82541  22.695  30.854  11.064
10871W        W82542  14.745  29.293   9.909
10872W        W82543  17.937   0.423  14.846
10873W        W82544  28.476  12.260  12.943
10874W        W82545   3.297  23.795   4.138
10875W        W82546  41.705  14.060  10.510
10876W        W82547   6.730  44.289  12.091
10877W        W82548  34.952  24.390  14.438
10878W        W82549   7.330  12.271  10.959
10879W        W82550  13.584  12.380   1.170
10880W        W82551  14.243  22.564   1.380
10881W        W82552   4.218  14.333   0.581
10882W        W82553  25.374   1.949  11.567
10883W        W82554  36.191  13.229   1.601
10884W        W82555   4.921   7.318   0.751
10885W        W82556  25.967  43.905   2.175
10886W        W82557  13.220  13.359   1.781
10887W        W82558  24.060  33.039  14.477
10888W        W82559   2.183  42.906  13.579
10889W        W82560  36.591  26.169  12.519
10890W        W82561  30.244  12.819  11.551
10891W        W82562  31.239   5.222   3.144
10892W        W82563  18.399  24.551   5.469
10893W        W82564  31.067  31.682   4.905
10894W        W82565  30.493  18.435   1.273
10895W        W82566  15.175   2.938  13.341
10896W        W82567   6.778  32.852  11.622
10897W        W82568  18.340  26.886   1.735
10898W        W82569  25.983   8.600   4.267
10899W        W82570  38.044  27.681   3.393
10900W        W82571  14.549  44.061  11.689
10901W        W82572  18.799  22.211   1.406
10902W        W82573  26.434  12.631  11.577
10903W        W82574   8.520  30.468   4.861
10904W        W82575  15.685  40.501   3.211
10905W        W82576  25.290  11.071  11.506
10906W        W82577  34.938   8.019   0.332
10907W        W82578  28.010  26.960   1.193
10908W        W82579   9.096   1.761  11.412
10909W        W82580  30.832  32.945   2.783
10910W        W82581  30.115   9.940  11.136
10911W        W82582  38.057  41.622  14.384
10912W        W82583  40.692  13.831  14.300
10913W        W82584  29.719  15.309  11.274
10914W        W82585  36.942  25.656   2.226
10915W        W82586  24.999  38.818   4.830
10916W        W82587  14.321  27.438   2.869
10917W        W82588  29.030   2.450  11.626
10918W        W82589  17.577  38.616  12.889
10919W        W82590  33.633  41.291   5.424
10920W        W82591  42.949  23.213   2.289
10921W        W82592  35.576   0.745  14.320
10922W        W82593  42.929  44.502   4.183
10923W        W82594  19.694  14.349   1.676
10924W        W82595  22.979  37.413   1.994
10925W        W82596  12.481  28.082   1.856
10926W        W82597  17.439  19.435  11.030
10927W        W82598  22.229  37.803  14.382
10928W        W82599  18.426   2.749   4.421
10929W        W82600  37.915  36.690  14.400
10930W        W82601   5.456  26.220  13.826
10931W        W82602  40.090  26.513   4.774
10932W        W82603   9.655  30.477   1.514
10933W        W82604  20.197  32.411  12.295
10934W        W82605  39.488  29.200  11.018
10935W        W82606  15.092  35.589   4.117
10936W        W82607   5.229  13.705  13.126
10937W        W82608  25.983  16.132  13.631
10938W        W82609  38.916  21.137  14.479
10939W        W82610  41.886  37.602  13.154
10940W        W82611  16.111   1.707   4.482
10941W        W82612  25.468  10.356  12.538
10942W        W82613   0.946  37.884   1.603
10943W        W82614  35.532  30.368   3.106
10944W        W82615  20.226  22.254  14.903
10945W        W82616   3.708  16.580  10.642
10946W        W82617  26.343  20.506  11.246
10947W        W82618  44.591   9.651  14.559
10948W        W82619  24.102  26.495  11.598
10949W        W82620   3.872  15.219   2.395
10950W        W82621   3.622  39.541   0.411
10951W        W82622  15.231  22.522  13.959
10952W        W82623  24.033  23.630   1.614
10953W        W82624  40.832  44.105   0.266
10954W        W82625  30.822  24.030   0.782
10955W        W82626   1.552   6.360  12.445
10956W        W82627   5.514  22.518  12.011
10957W        W82628  42.399   3.035   0.268
10958W        W82629  15.952   3.689  11.512
10959W        W82630  32.872  35.518  10.976
10960W        W82631  23.726  14.911  13.563
10961W        W82632  10.585  17.847   4.665
10962W        W82633   9.849  31.686   1.647
10963W        W82634  34.822  24.662  14.871
10964W        W82635  40.833  16.618   4.260
10965W        W82636  20.024   1.926   2.875
10966W        W82637   6.007  39.572  10.713
10967W        W82638  39.346  29.965  14.577
10968W        W82639   3.118  44.994  14.261
10969W        W82640  27.931   1.074  12.872
10970W        W82641  35.115  20.600   4.672
10971W        W82642  38.544  30.962   4.603
10972W        W82643  35.324   1.138   1.878
10973W        W82644  13.378  30.620   5.059
10974W        W82645  31.507   0.027   4.551
10975W        W82646  21.977  13.395   1.355
10976W        W82647   6.832  14.702   3.614
10977W        W82648  35.303  17.423   2.964
10978W        W82649  22.023  34.139  12.908
10979W        W82650  44.425  42.045  14.600
10980W        W82651  11.525  22.799  12.976
10981W        W82652   5.097  23.838   2.658
10982W        W82653  44.488  13.140   4.034
10983W        W82654   3.630   7.309  11.184
10984W        W82655  11.245  30.953   3.523
10985W        W82656   2.818  10.141  12.574
10986W        W82657   8.451  22.650   2.375
10987W        W82658   0.998  34.665   1.374
10988W        W82659  42.813  27.112   4.150
10989W        W82660  15.859   7.284  14.025
10990W        W82661  16.113  23.194   1.377
10991W        W82662  17.767   8.869  12.505
10992W        W82663  11.697   7.908   2.781
10993W        W82664   3.842  16.359  12.679
10994W        W82665  22.021  36.947  10.564
10995W        W82666  44.963  34.190   3.900
10996W        W82667  17.651  27.705   1.807
10997W        W82668   8.189  21.575  10.718
10998W        W82669  29.493  35.532   1.994
10999W        W82670   3.160  31.366  13.223
11000W        W82671  20.796  38.944   1.446
11001W        W82672  41.939  29.978  14.431
11002W        W82673  17.842  29.382   4.126
11003W        W82674  20.705   6.365   3.647
11004W        W82675  32.958  16.399  13.827
11005W        W82676   8.621   3.783   4.337
11006W        W82677  28.169  10.740   1.142
11007W        W82678  28.979  27.408  11.665
11008W        W82679   2.226  41.013  10.676
11009W        W82680  29.570  40.115   3.837
11010W        W82681  20.761  36.753   4.665
11011W        W82682  22.542  25.139  10.680
11012W        W82683   2.727  33.179   1.454
11013W        W82684  25.109  30.907  12.433
11014W        W82685  41.305   1.467  11.070
11015W        W82686  12.222  10.315   4.831
11016W        W82687  37.027  22.462  12.551
11017W        W82688  37.139   2.997  14.502
11018W        W82689  20.661   1.877  13.462
11019W        W82690   4.476   0.493   4.135
11020W        W82691  28.230  42.809  10.694
11021W        W82692  15.040   1.896  12.831
11022W        W82693  44.991  12.791  14.460
11023W        W82694  21.457   7.285   1.070
11024W        W82695   6.873  12.306  11.391
11025W        W82696   4.902   3.092  13.743
11026W        W82697  36.109  27.066  14.295
11027W        W82698  33.261  39.092  11.972
11028W        W82699  44.410   0.241   9.966
11029W        W82700  36.093  41.154  13.954
11030W        W82701  43.900   3.005   2.806
11031W        W82702  13.750  10.282   0.188
11032W        W82703   4.318  38.387  11.374
11033W        W82704   6.690  22.971   1.887
11034W        W82705  33.485  15.063   2.819
11035W        W82706  20.086  30.218  12.419
11036W        W82707  15.242  38.013   0.888
11037W        W82708   7.848  41.061   3.548
11038W        W82709  33.446  27.109  12.414
11039W        W82710   1.341   2.147   1.466
11040W        W82711  36.953  18.345   1.855
11041W        W82712  40.270  43.348  12.341
11042W        W82713   1.662  30.221  14.280
11043W        W82714  14.329  32.496   0.847
11044W        W82715   6.900  34.867   1.447
11045W        W82716  21.245  29.115   0.253
11046W        W82717  37.676   7.200  10.106
11047W        W82718   7.174   8.104  13.918
11048W        W82719  38.860  29.188   1.427
11049W        W82720  19.152  27.622   3.105
11050W        W82721   8.261  34.906  11.497
11051W        W82722  26.580  37.914  14.002
11052W        W82723  27.219  28.069  10.618
11053W        W82724   7.896  44.569   4.182
11054W        W82725  18.378  40.744  13.130
11055W        W82726  37.831   8.770  11.472
11056W        W82727  21.231   8.459   0.898
11057W        W82728  38.306  40.503  11.056
11058W        W82729  22.722  29.887  12.934
11059W        W82730  35.095   4.911  11.569
11060W        W82731   6.435  27.489   1.260
11061W        W82732  44.716  15.367   2.748
11062W        W82733  23.505  30.988  13.226
11063W        W82734  13.292  37.942   3.063
11064W        W82735  34.639   8.759  10.945
11065W        W82736   4.759   0.212   1.738
11066W        W82737  30.641  29.419  11.282
11067W        W82738  44.121  25.474   0.184
11068W        W82739   9.758  11.418  12.388
11069W        W82740  38.884  18.738  12.016
11070W        W82741  15.609  21.231  10.622
11071W        W82742  16.400  10.433  14.774
11072W        W82743  35.483  10.246  13.250
11073W        W82744  33.618   5.156  14.816
11074W        W82745   7.857  32.898   4.822
11075W        W82746  11.589  20.772  12.513
11076W        W82747   8.830  36.655   4.539
11077W        W82748   1.259   5.667   2.389
11078W        W82749  28.106   2.495   1.401
11079W        W82750  35.638  36.083  11.472
11080W        W82751  15.864  17.383  13.444
11081W        W82752   5.212  23.116   0.170
11082W        W82753  41.792  13.833   3.175
11083W        W82754   7.966  42.845  14.952
11084W        W82755  33.292   2.815   0.438
11085W        W82756  31.969  10.116  11.636
11086W        W82757   7.870  13.096   4.745
11087W        W82758  33.395   0.686   1.953
11088W        W82759  17.714   6.444   1.897
11089W        W82760  35.557  29.083  12.856
11090W        W82761  16.732  40.397   1.321
11091W        W82762  33.621   8.868  11.634
11092W        W82763   5.626   2.475   2.778
11093W        W82764  16.662  12.741   4.261
11094W        W82765  12.717  40.859   1.549
11095W        W82766   8.098  20.300  14.773
11096W        W82767  19.497  38.473  10.735
11097W        W82768  35.596  35.984  12.331
11098W        W82769  15.560  25.351   5.071
11099W        W82770   8.257  34.096   4.264
11100W        W82771  27.691  37.340   1.886
11101W        W82772  25.890  23.539  12.552
11102W        W82773  11.631  30.147  12.935
11103W        W82774   4.998  36.486   3.826
11104W        W82775   5.296  44.577  14.468
11105W        W82776  31.404  11.715   3.766
11106W        W82777  28.861  19.172   2.219
11107W        W82778  12.273  26.678  14.398
11108W        W82779  27.945  41.927  11.981
11109W        W82780  38.575  16.665  13.889
11110W        W82781   9.127  43.640  14.858
11111W        W82782  13.859  44.020  12.221
11112W        W82783  18.766  39.256   4.992
11113W        W82784  42.397  21.562  10.591
11114W        W82785  31.225  11.293  14.357
11115W        W82786   4.414  27.743  14.799
11116W        W82787  40.499   7.710   4.387
11117W        W82788  28.489  35.623   1.820
11118W        W82789  24.178  23.796   3.162
11119W        W82790   5.724  28.155  11.180
11120W        W82791  43.055  17.333  10.575
11121W        W82792  29.583   3.774  13.502
11122W        W82793  32.363  11.822  12.913
11123W        W82794   6.808  25.951  13.794
11124W        W82795  44.675  42.464  10.531
11125W        W82796  10.351  29.099  11.385
11126W        W82797   4.723  43.766   1.968
11127W        W82798  17.257   6.991  13.670
11128W        W82799  10.849   7.636   4.100
11129W        W82800  22.705  37.341  11.540
11130W        W82801  17.105  11.804  14.976
11131W        W82802  38.470  10.417   3.215
11132W        W82803  17.141  28.614   2.967
11133W        W82804  42.792  26.049  12.960
11134W        W82805  12.657  15.158   3.301
11135W        W82806  11.106  23.281  13.694
11136W        W82807   3.074  18.235   3.386
11137W        W82808  44.338  38.522  11.113
11138W        W82809  34.897  23.608  12.890
11139W        W82810  26.184  11.558  14.533
11140W        W82811  41.475  37.469   1.898
11141W        W82812  17.569  35.800   4.658
11142W        W82813  16.691   0.697   0.466
11143W        W82814  44.087  27.984   1.144
11144W        W82815  38.902  40.841  11.615
11145W        W82816  28.508  37.401   3.554
11146W        W82817   0.037  38.465  11.566
11147W        W82818  41.406  41.438   2.934
11148W        W82819  23.775  29.416  13.347
11149W        W82820   6.686  43.342  11.590
11150W        W82821  38.425   0.474   4.591
11151W        W82822  40.633  40.081   3.772
11152W        W82823  17.810  14.778  11.031
11153W        W82824  30.954  12.229   3.324
11154W        W82825  38.406   3.509  12.879
11155W        W82826  22.218  20.681  14.828
11156W        W82827   5.969  38.568  12.660
11157W        W82828  44.433  41.840  12.950
11158W        W82829  13.700  27.041  13.858
11159W        W82830  12.032  42.082   4.360
11160W        W82831  40.522  41.560  11.644
11161W        W82832  12.311  37.212   0.983
11162W        W82833   5.751  41.261  13.946
11163W        W82834  15.304   8.416  12.828
11164W        W82835  24.947  29.987   2.372
11165W        W82836  37.434  39.499  14.779
11166W        W82837   4.770  34.900  14.829
11167W        W82838  12.204  33.420  11.489
11168W        W82839  42.079  10.220   3.163
11169W        W82840   3.957  37.021  13.867
11170W        W82841  23.511  24.493   4.203
11171W        W82842   4.369  10.054   3.245
11172W        W82843   9.191   3.660  13.073
11173W        W82844  17.124  44.748  11.458
11174W        W82845   2.453  21.626  11.423
11175W        W82846   7.260  39.789  13.309
11176W        W82847  16.073  31.056   0.614
11177W        W82848  35.011  39.764  12.834
11178W        W82849  35.675   1.388  12.002
11179W        W82850   9.381  36.756   3.350
11180W        W82851  12.160   7.730   2.657
11181W        W82852  37.914  16.081  12.439
11182W        W82853   9.182  41.820   0.421
11183W        W82854   8.044  12.458  13.920
11184W        W82855   4.860  31.105  12.201
11185W        W82856  39.444  26.425  13.782
11186W        W82857  23.387  39.825  12.796
11187W        W82858  15.365  30.583   1.971
11188W        W82859  18.775  10.435   3.364
11189W        W82860  29.395  21.149   3.033
11190W        W82861  18.179  19.792   2.877
11191W        W82862   2.438  15.642   4.267
11192W        W82863  32.864  24.610  10.975
11193W        W82864  21.657  24.010   1.403
11194W        W82865  40.315   2.181  12.500
11195W        W82866  37.517  31.673  14.865
11196W        W82867  16.222  25.480   4.556
11197W        W82868   5.094   1.733   0.976
11198W        W82869  31.238  16.749  14.157
11199W        W82870  42.597  10.230   3.240
11200W        W82871  32.024  29.134   0.129
11201W        W82872   4.825  12.330   1.742
11202W        W82873  28.636  27.897  14.281
11203W        W82874  13.377  27.645  11.680
11204W        W82875   8.727  40.557  12.466
11205W        W82876  29.458  42.277  10.985
11206W        W82877  14.411  21.089  14.477
11207W        W82878  44.447  33.043   1.254
11208W        W82879  42.718   2.027   0.983
11209W        W82880  31.417  12.916   3.797
11210W        W82881   2.066  19.574   2.617
11211W        W82882   1.681  14.940   0.822
11212W        W82883  40.342  11.280   4.558
11213W        W82884   1.344  13.213   4.174
11214W        W82885  34.423   3.688  13.786
11215W        W82886  31.874   9.080   5.023
11216W        W82887  24.502  41.191  13.766
11217W        W82888   7.262   1.858   2.174
11218W        W82889  38.357   7.409  10.664
11219W        W82890   6.966   4.793   2.832
11220W        W82891  37.884   6.254  13.600
11221W        W82892   1.027  14.776   4.374
11222W        W82893  10.610  29.996   1.914
11223W        W82894  29.884  29.420   2.913
11224W        W82895   7.342  24.687  14.858
11225W        W82896  13.571  23.476   4.156
11226W        W82897  16.653  41.958   0.917
11227W        W82898  28.118   4.469  12.420
11228W        W82899   2.318   2.325  13.605
11229W        W82900   7.747   8.686   1.934
11230W        W82901  14.183   1.949  10.983
11231W        W82902  27.950   1.437  14.815
11232W        W82903   6.272  26.688  13.886
11233W        W82904  21.171  39.593   3.156
11234W        W82905  37.747  33.181  13.976
11235W        W82906  23.127  33.803   1.896
11236W        W82907  12.747   7.949   2.390
11237W        W82908  27.434  40.879   0.416
11238W        W82909   2.928  27.971  14.258
11239W        W82910  43.244  11.677  14.950
11240W        W82911  22.740  22.052   0.884
11241W        W82912   4.674  36.425  10.596
11242W        W82913  28.005   4.484   0.003
11243W        W82914   9.480  19.221  14.502
11244W        W82915   4.941   9.695  12.131
11245W        W82916  14.120  33.990  13.759
11246W        W82917  23.889   4.402   2.160
11247W        W82918  31.729  31.868   0.248
11248W        W82919  21.675  21.625   2.850
11249W        W82920  20.771  34.892  12.019
11250W        W82921  21.050  25.498  13.961
11251W        W82922  12.320   1.235  12.043
11252W        W82923  37.841  26.582  10.710
11253W        W82924   7.639  38.777  12.855
11254W        W82925  35.027  27.430   0.233
11255W        W82926   0.070  26.556  11.557
11256W        W82927   4.418   7.270   4.553
11257W        W82928  15.425  24.775  11.254
11258W        W82929  27.723  22.735   3.733
11259W        W82930  28.787   2.224   1.907
11260W        W82931  11.396  10.695   4.675
11261W        W82932   1.524  33.829   1.159
11262W        W82933  17.586  28.959  13.135
11263W        W82934  37.114   3.458  11.684
11264W        W82935   5.653  28.558  13.807
11265W        W82936  26.077  30.922  12.963
11266W        W82937  42.845  38.907   2.541
11267W        W82938  32.366  29.964  14.813
11268W        W82939   1.504  17.640   4.826
11269W        W82940   7.858  31.524   4.878
11270W        W82941  35.782  40.928   0.249
11271W        W82942  26.480  28.302   0.539
11272W        W82943  42.456  19.095  12.373
11273W        W82944  25.287  25.426   5.106
11274W        W82945  34.625  24.493   1.211
11275W        W82946   6.685  40.400   3.847
11276W        W82947  14.873  10.016  10.720
11277W        W82948   1.230  17.045  10.607
11278W        W82949   9.428  31.762   2.228
11279W        W82950   4.261  37.640   1.305
11280W        W82951  25.101   7.678  13.368
11281W        W82952  20.281  22.721  11.760
11282W        W82953  18.606  42.809  14.420
11283W        W82954  38.412   7.768  12.082
11284W        W82955   5.649   2.781   1.420
11285W        W82956   5.392  10.749   2.595
11286W        W82957  43.763  33.979   3.654
11287W        W82958  19.706   2.041   4.263
11288W        W82959   3.444  32.974  13.322
11289W        W82960  20.211  20.272  10.742
11290W        W82961  30.984  38.081  13.980
11291W        W82962  37.482  35.234  11.492
11292W        W82963  28.393  18.310   2.867
11293W        W82964   9.903  36.677   3.274
11294W        W82965   8.350   6.821   4.771
11295W        W82966  33.359  19.058  14.334
11296W        W82967   8.900  39.358  11.025
11297W        W82968  26.695  14.436  11.150
11298W        W82969  15.605  27.504   4.808
11299W        W82970  36.614  30.710  13.397
11300W        W82971  43.069  11.029  11.896
11301W        W82972  27.435  20.123  11.641
11302W        W82973  42.913  20.110   0.860
11303W        W82974  12.172   8.858   3.652
11304W        W82975  33.515  38.957  11.529
11305W        W82976  43.281  35.172  11.578
11306W        W82977  43.437  22.667   1.345
11307W        W82978  43.533   1.374   3.267
11308W        W82979  37.648  36.343   3.586
11309W        W82980  39.868  17.036  13.570
11310W        W82981  38.079  43.089  14.870
11311W        W82982  40.346   5.235  12.454
11312W        W82983  29.596  43.946   2.829
11313W        W82984  43.253  22.289   4.162
11314W        W82985  39.538  13.615   2.660
11315W        W82986  41.749  43.571  13.343
11316W        W82987  19.260  29.955  12.940
11317W        W82988  20.477  33.398   1.344
11318W        W82989  30.449  38.427  14.300
11319W        W82990  29.214  30.183  11.759
11320W        W82991  29.987   0.687  14.684
11321W        W82992  38.536  43.862  10.955
11322W        W82993  24.027  28.082  13.516
11323W        W82994  24.751  22.537  14.011
11324W        W82995   2.700  13.262  13.560
11325W        W82996  34.987  31.722  12.138
11326W        W82997  28.150  24.257   0.349
11327W        W82998  18.856  22.174   0.336
11328W        W82999  29.622  10.382   5.017
11329W        W83000  41.916   4.325   0.562
11330W        W83001  30.688  20.395  12.858
11331W        W83002   3.906   2.738   2.114
11332W        W83003  31.094   6.676  14.207
11333W        W83004  11.857   4.910  13.617
11334W        W83005  14.208  33.022   4.715
11335W        W83006  41.622  30.180   2.388
11336W        W83007  14.381  27.556  10.716
11337W        W83008   7.224  13.792  14.732
11338W        W83009  23.981  11.233  10.726
11339W        W83010  15.054  22.503  14.488
11340W        W83011   2.978   2.289   2.738
11341W        W83012  16.710   0.048  12.094
11342W        W83013  12.421  19.010  12.536
11343W        W83014   9.267  36.860   2.845
11344W        W83015  28.594  24.712  11.127
11345W        W83016  36.708  21.491   3.221
11346W        W83017  28.498  39.080   2.936
11347W        W83018  26.631  13.116  14.110
11348W        W83019  26.040   4.627  11.271
11349W        W83020  30.241  18.057  11.683
11350W        W83021  36.520  11.786  10.882
11351W        W83022  32.912  37.470   3.184
11352W        W83023  32.173  35.648  11.602
11353W        W83024  23.574  43.463   4.815
11354W        W83025  39.487  42.821  13.479
11355W        W83026  17.192  32.884   3.317
11356W        W83027  26.700   4.898  13.578
11357W        W83028   3.938  41.311   4.474
11358W        W83029  11.723   8.140   4.019
11359W        W83030   1.355   7.349   0.403
11360W        W83031  41.912  44.486   0.890
11361W        W83032  39.904  29.595  14.246
11362W        W83033  27.799  27.417  14.098
11363W        W83034   5.931  10.750   1.388
11364W        W83035  40.583   1.376  14.434
11365W        W83036  17.626   4.225   1.789
11366W        W83037  42.568  25.680  13.446
11367W        W83038   7.843  13.826   3.182
11368W        W83039  28.748   3.878  11.049
11369W        W83040  20.353  21.155   3.249
11370W        W83041  24.034   6.049   2.715
11371W        W83042  42.231  40.477   1.905
11372W        W83043  39.525  15.801  11.947
11373W        W83044   3.763  38.639   3.438
11374W        W83045  33.424   3.278  11.074
11375W        W83046  18.224  40.139  11.259
11376W        W83047  12.871  20.462  11.141
11377W        W83048  34.570  25.127  12.523
11378W        W83049   4.732   8.427  12.469
11379W        W83050  21.959   8.647  11.919
11380W        W83051   5.504  41.491  10.872
11381W        W83052  18.117  21.836  12.589
11382W        W83053  21.959  38.980   4.800
11383W        W83054  38.588  43.524  14.299
11384W        W83055  38.321  40.316   3.598
11385W        W83056  17.074  40.774  13.445
11386W        W83057  36.065  20.017   2.886
11387W        W83058  32.713   9.698   4.066
11388W        W83059  29.441   2.855   3.475
11389W        W83060  10.377  22.471  13.611
11390W        W83061  40.570  31.533  14.625
11391W        W83062  42.292  27.457   1.230
11392W        W83063  43.195  30.898   1.829
11393W        W83064  40.315  43.895  10.652
11394W        W83065   4.850  26.722   1.814
11395W        W83066   8.867  24.102   0.359
11396W        W83067   3.163  22.690   1.450
11397W        W83068   6.379   0.170  11.416
11398W        W83069   6.326  35.868   2.835
11399W        W83070  25.618   8.314  13.012
11400W        W83071  18.476  42.793   5.078
11401W        W83072   7.244  11.415   2.755
11402W        W83073   0.382  18.251  14.825
11403W        W83074  10.915   1.391   4.119
11404W        W83075   0.272  20.117  13.345
11405W        W83076   5.950   3.050   1.745
11406W        W83077  43.667  44.863  12.237
11407W        W83078  43.057  34.979  14.887
11408W        W83079   7.347   5.665   1.923
11409W        W83080   1.996  17.805  13.505
11410W        W83081  44.879  17.092  10.960
11411W        W83082  12.265  21.869   3.541
11412W        W83083  25.715  20.668   0.549
11413W        W83084   5.731  13.035   2.662
11414W        W83085  21.461  43.242   1.262
11415W        W83086   2.826  33.392  11.745
11416W        W83087  14.792  37.771  10.989
11417W        W83088   5.025  14.874  10.367
11418W        W83089  27.114   9.137  13.363
11419W        W83090   9.823   7.943   0.080
11420W        W83091   9.793  14.208   0.503
11421W        W83092  15.405   6.869   5.264
11422W        W83093  42.021   8.160  11.260
11423W        W83094  38.623   6.516  12.892
11424W        W83095  16.684  32.024  11.435
11425W        W83096  23.695   0.829   1.001
11426W        W83097   4.771  25.165  12.242
11427W        W83098  23.400   7.258  12.026
11428W        W83099  21.609  44.714   1.254
11429W        W83100   8.427  38.233  11.755
11430W        W83101  23.122  36.265   2.850
11431W        W83102  16.754  31.535   4.626
11432W        W83103  39.107  37.364   4.791
11433W        W83104  13.568  30.076  14.316
11434W        W83105   2.187  14.703  13.408
11435W        W83106   9.357  33.965   1.102
11436W        W83107  17.812  10.550  14.814
11437W        W83108  17.560  11.276   0.046
11438W        W83109  19.262  25.969  13.362
11439W        W83110  39.716  28.575   3.198
11440W        W83111  27.386  39.849   1.953
11441W        W83112  23.905  37.369  13.308
11442W        W83113  38.465  20.374   4.200
11443W        W83114   0.193   5.221   3.245
11444W        W83115  21.576  26.051  14.817
11445W        W83116  20.066  44.247  10.372
11446W        W83117   1.664  32.938  12.947
11447W        W83118   4.540  26.163  11.461
11448W        W83119  36.539  18.053  11.481
11449W        W83120   9.303  28.881  11.028
11450W        W83121  39.337  22.252  12.243
11451W        W83122   2.370  24.972   0.771
11452W        W83123  18.587   0.270   0.938
11453W        W83124  32.033  15.571   0.797
11454W        W83125  35.923   5.664  14.788
11455W        W83126  26.709   9.655   1.385
11456W        W83127  17.181  19.907  11.034
11457W        W83128  30.169  11.274  13.387
11458W        W83129   0.690  16.152   2.200
11459W        W83130  22.994  16.703  13.992
11460W        W83131  33.627  15.650  14.322
11461W        W83132   6.745  25.498   2.364
11462W        W83133  13.202   7.058  13.477
11463W        W83134  42.866   4.736  14.279
11464W        W83135   3.850   9.914   0.770
11465W        W83136  41.944  15.355   3.908
11466W        W83137  22.783  20.269   0.387
11467W        W83138  22.263  14.618  10.742
11468W        W83139  28.949  13.561   2.291
11469W        W83140  20.291  19.989   3.285
11470W        W83141  36.922   8.439  11.794
11471W        W83142  43.943  28.429  14.361
11472W        W83143   1.644  32.541  13.794
11473W        W83144  17.542  18.276  13.945
11474W        W83145  25.941  21.066   1.328
11475W        W83146  18.693  20.628   4.583
11476W        W83147  16.296   7.784   3.232
11477W        W83148   3.006  25.569  12.590
11478W        W83149  23.226  43.594   1.748
11479W        W83150   6.183  26.536  14.905
11480W        W83151  19.788  29.101  10.565
11481W        W83152  37.911  40.034   0.992
11482W        W83153  11.861  26.061   2.737
11483W        W83154  33.140  37.261   1.375
11484W        W83155   1.937  20.848  14.476
11485W        W83156  15.624  41.921   0.854
11486W        W83157  29.059  12.338   1.387
11487W        W83158  32.132  30.969   0.511
11488W        W83159  16.189  23.216   4.807
11489W        W83160   8.159   7.831  14.822
11490W        W83161  42.821  38.868  10.979
11491W        W83162   8.741  10.333   2.739
11492W        W83163  11.452   2.367   0.890
11493W        W83164  21.671  12.512   0.349
11494W        W83165  11.358  12.719   1.219
11495W        W83166  31.930  10.370   2.171
11496W        W83167  26.254  29.026   3.219
11497W        W83168  28.506  17.705   0.531
11498W        W83169  20.346   3.351  14.245
11499W        W83170  39.016  21.798   3.231
11500W        W83171  37.432   5.179   3.797
11501W        W83172  17.115  39.851   2.443
11502W        W83173  10.758  41.508  14.119
11503W        W83174  19.864  25.577   0.810
11504W        W83175  32.896  28.020   2.334
11505W        W83176  19.832  15.362  10.687
11506W        W83177  11.200  38.011  12.522
11507W        W83178  20.117  23.626  14.939
11508W        W83179  31.411  44.076  11.235
11509W        W83180   5.637  15.561  14.931
11510W        W83181  18.671   4.265   0.058
11511W        W83182  42.506  42.443   3.172
11512W        W83183   4.841   5.398   3.930
11513W        W83184   2.433  30.915   3.174
11514W        W83185  40.945   4.565   3.059
11515W        W83186  42.168  17.230   2.829
11516W        W83187  31.355  35.329   3.126
11517W        W83188  28.472  19.638   5.178
11518W        W83189  27.509  28.860  13.415
11519W        W83190  43.741  36.868  13.593
11520W        W83191  44.425  42.943   3.670
11521W        W83192  20.684  22.477  11.151
11522W        W83193   2.837  26.270  11.963
11523W        W83194  10.111  30.085  14.759
11524W        W83195  24.244   8.590  11.067
11525W        W83196   4.268  29.558  10.594
11526W        W83197  38.324  16.235  12.738
11527W        W83198   2.577  24.078   0.728
11528W        W83199  29.898  24.331   3.205
11529W        W83200  14.038  17.055  11.217
11530W        W83201   7.480  28.464  10.994
11531W        W83202  43.114   3.926   1.697
11532W        W83203   9.745   3.492   2.257
11533W        W83204  43.268  38.613  11.172
11534W        W83205   0.751  38.975  14.846
11535W        W83206   1.063  28.598  14.151
11536W        W83207  43.023  23.614   3.413
11537W        W83208  39.922  16.575  10.836
11538W        W83209   8.853  42.452  11.886
11539W        W83210  24.524  19.198   2.711
11540W        W83211  19.339  37.783   2.377
11541W        W83212  29.132  35.611  12.032
11542W        W83213  13.946  38.072  12.925
11543W        W83214  40.085  41.405  11.920
11544W        W83215  11.277   8.619   1.168
11545W        W83216  14.846  34.487  13.574
11546W        W83217   2.293  24.500  14.852
11547W        W83218  42.371   6.613   2.758
11548W        W83219  12.653  22.738   3.269
11549W        W83220   7.284   1.980   0.950
11550W        W83221  37.590  38.510   4.106
11551W        W83222  27.412  41.853   1.940
11552W        W83223  32.011  35.484  13.011
11553W        W83224  31.592  26.868   2.442
11554W        W83225  21.102  25.005   0.828
11555W        W83226  12.646  10.753  10.742
11556W        W83227   7.356  29.011   2.812
11557W        W83228   9.999  11.303   4.740
11558W        W83229   2.705  38.403   2.425
11559W        W83230  42.542  11.765  14.422
11560W        W83231  24.150  24.529   1.140
11561W        W83232  12.703  30.012  11.509
11562W        W83233   7.888  34.895   0.469
11563W        W83234  32.103  40.069   0.031
11564W        W83235  38.383  34.600  11.582
11565W        W83236  22.122   1.328   1.654
11566W        W83237  25.948  15.210   0.195
11567W        W83238  33.798  29.108  14.416
11568W        W83239   2.252   4.159   1.231
11569W        W83240  14.748   1.602   3.174
11570W        W83241  44.323  25.219  11.970
11571W        W83242  24.999   4.398   2.827
11572W        W83243   8.689   2.357   1.448
11573W        W83244  34.153  10.720  13.408
11574W        W83245  39.497  10.762   0.917
11575W        W83246  19.933  23.661   3.189
11576W        W83247  19.230  23.705  12.795
11577W        W83248  11.940  16.074  14.844
11578W        W83249  20.631  40.914   0.980
11579W        W83250  42.863  14.558  13.839
11580W        W83251   5.242  19.482   2.369
11581W        W83252   8.715  31.574   0.023
11582W        W83253  14.730  13.859  14.169
11583W        W83254   9.516  44.191  11.051
11584W        W83255  17.122  27.865   1.724
11585W        W83256   9.623  31.778  11.200
11586W        W83257  37.678   4.291   4.133
11587W        W83258  28.284  26.407  11.268
11588W        W83259  16.644  27.675  12.365
11589W        W83260   9.717  44.472  10.646
11590W        W83261  38.874  23.979  11.026
11591W        W83262  24.417  35.977   3.657
11592W        W83263  32.544  36.892  12.912
11593W        W83264  41.124  17.320   2.704
11594W        W83265  38.945   2.515  11.142
11595W        W83266  12.471   8.891  14.406
11596W        W83267  43.293  32.456   3.585
11597W        W83268  29.478  34.826   3.652
11598W        W83269  43.712   2.496   4.904
11599W        W83270  18.720  35.044  11.912
11600W        W83271  30.523  22.097  13.980
11601W        W83272  26.386  34.796   1.795
11602W        W83273  22.049  16.305  13.296
11603W        W83274  27.933   7.578   4.078
11604W        W83275  30.366  23.335   2.295
11605W        W83276  34.356  20.555   1.601
11606W        W83277  44.061  20.368   3.765
11607W        W83278  34.875   9.559  11.664
11608W        W83279  24.426  27.292  12.622
11609W        W83280  31.033   6.117   2.350
11610W        W83281  41.577  38.581   4.703
11611W        W83282  34.322  32.137   3.645
11612W        W83283   3.412  10.143   0.892
11613W        W83284  36.885  14.715   1.732
11614W        W83285  10.141  25.373  12.461
11615W        W83286  39.996  15.655  10.275
11616W        W83287  11.085  38.452   1.396
11617W        W83288   6.773  27.244  13.044
11618W        W83289  27.862  31.520   0.837
11619W        W83290  17.550  13.963   9.674
11620W        W83291   3.775  20.556  12.931
11621W        W83292  36.796  22.442  13.069
11622W        W83293  12.741  20.627  14.171
11623W        W83294   4.309  33.389   1.805
11624W        W83295  29.235  33.896   1.279
11625W        W83296  29.242   5.183  12.451
11626W        W83297  15.244  23.505  13.880
11627W        W83298  27.951  39.520   1.372
11628W        W83299   3.905   5.223  12.018
11629W        W83300  12.827  29.888   4.667
11630W        W83301  13.817  29.979  13.877
11631W        W83302   0.230  32.952  13.035
11632W        W83303   9.152  31.317   2.358
11633W        W83304  44.522  30.907   4.560
11634W        W83305  27.992  42.597  13.116
11635W        W83306  14.124  40.776  14.519
11636W        W83307  21.955   5.856  11.946
11637W        W83308  18.759  23.443   2.170
11638W        W83309  14.865   7.971  10.424
11639W        W83310   4.250  44.764   2.843
11640W        W83311  28.948  32.931  12.887
11641W        W83312  40.380  35.512   2.359
11642W        W83313  18.203  14.352  14.002
11643W        W83314  38.060  38.884  14.367
11644W        W83315  15.662   3.503  13.801
11645W        W83316  14.120  14.004   4.540
11646W        W83317   9.171   2.976   4.312
11647W        W83318  29.131  41.935  14.479
11648W        W83319   9.595   2.860   4.606
11649W        W83320  14.093  38.783   4.068
11650W        W83321   9.391   9.886   1.061
11651W        W83322  33.549   8.414   0.341
11652W        W83323  35.058  13.222   3.130
11653W        W83324   6.396  18.446   0.980
11654W        W83325  10.417  21.826  12.402
11655W        W83326  44.405   5.669  11.246
11656W        W83327   7.968  12.994  11.049
11657W        W83328  40.246  36.176   4.657
11658W        W83329  21.157  41.182   3.814
11659W        W83330  18.701  30.579  11.655
11660W        W83331  24.591  43.006   2.744
11661W        W83332   6.647  16.188   3.673
11662W        W83333  17.557  42.003   0.720
11663W        W83334  44.102  36.100  13.342
11664W        W83335  40.553  22.021   2.689
11665W        W83336  15.311  42.539   3.852
11666W        W83337  23.617  24.718  12.415
11667W        W83338  36.649   1.722   0.857
11668W        W83339  38.340  38.056   4.130
11669W        W83340  15.091  31.995  14.070
11670W        W83341  39.677  37.292  13.066
11671W        W83342   9.818  42.618   4.459
11672W        W83343  43.707   6.707   1.593
11673W        W83344  22.687  14.610   4.899
11674W        W83345  22.040  32.415  13.424
11675W        W83346  29.026  35.869  14.159
11676W        W83347  21.585  39.417  11.034
11677W        W83348  26.961  35.503   0.214
11678W        W83349  41.052  37.304   4.170
11679W        W83350  13.218  10.479  11.210
11680W        W83351  43.699  27.723  11.028
11681W        W83352  41.573  17.789   1.781
11682W        W83353  38.517  29.496   4.631
11683W        W83354   2.855  20.646  12.744
11684W        W83355  37.538  33.015  12.635
11685W        W83356  14.879  44.961   3.624
11686W        W83357  25.454  15.402  11.104
11687W        W83358  38.627   2.929   0.323
11688W        W83359   3.176   2.235   1.820
11689W        W83360  41.822  37.689   2.406
11690W        W83361  24.971  33.523  14.913
11691W        W83362  28.399   2.373  10.402
11692W        W83363  40.837  10.763  10.761
11693W        W83364  28.064  26.053   4.486
11694W        W83365  24.216  13.938   5.078
11695W        W83366  23.241   4.428  12.628
11696W        W83367   9.274  28.098   4.111
11697W        W83368  26.980   9.554  11.873
11698W        W83369  21.669  40.284   4.158
11699W        W83370  40.139   3.364  13.082
11700W        W83371  32.599  21.632   5.016
11701W        W83372  22.653  21.836   1.339
11702W        W83373   3.654  20.475   2.761
11703W        W83374  33.418  16.090   3.243
11704W        W83375  39.876  18.368   1.245
11705W        W83376  42.014  14.586  14.925
11706W        W83377  35.470  22.341   3.396
11707W        W83378  39.783   1.476   2.369
11708W        W83379   4.290   4.407  14.968
11709W        W83380   9.311  42.608  14.845
11710W        W83381  32.936   8.851  13.005
11711W        W83382  34.186   4.048  14.848
11712W        W83383  36.787   8.232   2.282
11713W        W83384   0.801  40.608  12.458
11714W        W83385  23.918  14.047  11.049
11715W        W83386  43.345  22.377   1.780
11716W        W83387   2.354  35.028  13.151
11717W        W83388  35.115  38.146   1.355
11718W        W83389  37.317  31.519   2.340
11719W        W83390   5.873   7.219   3.585
11720W        W83391  13.519  12.862  10.294
11721W        W83392   4.801  40.353   0.735
11722W        W83393  37.496   4.922  11.881
11723W        W83394  34.075  10.786  12.444
11724W        W83395  38.730   3.998  11.094
11725W        W83396   5.567   2.603   4.043
11726W        W83397  21.968  28.465  11.510
11727W        W83398   2.410  28.066  14.445
11728W        W83399  18.274  15.580  13.324
11729W        W83400  22.182  39.899  11.136
11730W        W83401  32.460  23.492  13.094
11731W        W83402  19.521  34.380  12.090
11732W        W83403  28.152  27.172  11.930
11733W        W83404  34.071  32.274   1.709
11734W        W83405   2.617  12.831   1.164
11735W        W83406  13.120  35.125  14.860
11736W        W83407  30.131  20.776  10.336
11737W        W83408  15.641  18.031   4.858
11738W        W83409  21.298   2.765   3.361
11739W        W83410  44.518   1.715   3.365
11740W        W83411  22.126   7.459  12.762
11741W        W83412  42.911   5.756  14.064
11742W        W83413  18.512  27.071  13.405
11743W        W83414   8.859  27.670   0.782
11744W        W83415  15.554  27.370  14.350
11745W        W83416  25.103  41.410   1.373
11746W        W83417  12.306  44.945   0.939
11747W        W83418  21.675  17.826  12.482
11748W        W83419  26.412  18.513  14.770
11749W        W83420  40.697  12.659   0.788
11750W        W83421  23.975  13.232   1.260
11751W        W83422  11.338   9.495   0.868
11752W        W83423   9.610  38.627   4.395
11753W        W83424  27.170  12.439  11.027
11754W        W83425  35.998  38.299  12.332
11755W        W83426  18.269  42.339   2.574
11756W        W83427   9.171  19.223  12.608
11757W        W83428  41.392  32.964  14.121
11758W        W83429  44.895  12.751  13.310
11759W        W83430   4.379  10.864  13.430
11760W        W83431  22.521   6.157   1.330
11761W        W83432  18.461   7.160  13.298
11762W        W83433  39.527  32.532   4.992
11763W        W83434  31.660  13.095  12.486
11764W        W83435  22.513  29.149  13.592
11765W        W83436  32.984  23.138   4.862
11766W        W83437   6.231  32.128   0.484
11767W        W83438  42.028  31.614   1.839
11768W        W83439  29.010  35.656   1.852
11769W        W83440  30.406  31.565   1.734
11770W        W83441  31.988  26.485  13.289
11771W        W83442   2.510  30.118   3.608
11772W        W83443  24.086  28.031  11.993
11773W        W83444  13.135  24.878   0.000
11774W        W83445  13.876   4.772   2.207
11775W        W83446  24.180  32.510   3.793
11776W        W83447   3.924  40.304   2.633
11777W        W83448  21.946  19.362   3.780
11778W        W83449  33.533  40.898  13.313
11779W        W83450   7.529  23.207   1.436
11780W        W83451   8.151  21.614  13.478
11781W        W83452  21.190  42.030  13.947
11782W        W83453  34.529  15.780   3.296
11783W        W83454   9.916  40.544   0.531
11784W        W83455  18.487  10.728   2.218
11785W        W83456  22.136  11.231   0.742
11786W        W83457   5.345  30.194  12.561
11787W        W83458  17.590  15.516  12.250
11788W        W83459   5.666   9.245   1.304
11789W        W83460  31.518  14.071   1.282
11790W        W83461  19.193  32.868  12.951
11791W        W83462   2.913  28.661  12.977
11792W        W83463  25.695   5.242  10.541
11793W        W83464  40.526  40.006   4.813
11794W        W83465  40.799  37.066   2.883
11795W        W83466   3.336  36.877  11.600
11796W        W83467  25.517  42.074  10.715
11797W        W83468  11.656   1.079   3.622
11798W        W83469  33.438  44.019   3.155
11799W        W83470   6.792  41.761  14.489
11800W        W83471  20.709  32.939   2.947
11801W        W83472  12.731  27.660   1.687
11802W        W83473  42.752  21.654  13.047
11803W        W83474  17.119  22.893   1.850
11804W        W83475  17.835  17.878   4.271
11805W        W83476  35.257   3.466   1.298
11806W        W83477   8.924  19.742   2.714
11807W        W83478   4.355  16.261   0.715
11808W        W83479   1.098   9.948  12.202
11809W        W83480   7.217  32.675   3.767
11810W        W83481   3.603  24.119  14.398
11811W        W83482  44.441  16.718   4.300
11812W        W83483  36.381  41.102  11.936
11813W        W83484  30.920  29.409  12.501
11814W        W83485  38.359   8.828   4.757
11815W        W83486  27.785   5.774  12.255
11816W        W83487   0.065  24.710  11.510
11817W        W83488  36.771   3.978  12.581
11818W        W83489  19.914  14.164   4.159
11819W        W83490  23.127  25.409  12.759
11820W        W83491   2.711  38.724  13.770
11821W        W83492  26.432  17.117   3.228
11822W        W83493  14.746  22.648  14.894
11823W        W83494   3.974  40.782   2.374
11824W        W83495  44.384  40.843   1.188
11825W        W83496  43.735  19.963  12.920
11826W        W83497  25.503  19.692   2.198
11827W        W83498   5.657  40.258  14.772
11828W        W83499  39.358  14.878   4.212
11829W        W83500  42.287   9.352   2.289
11830W        W83501   1.456  29.975  13.858
11831W        W83502  36.490  10.802  11.141
11832W        W83503  24.322   8.179   3.285
11833W        W83504   1.431   6.959   4.739
11834W        W83505  31.679   9.393   4.607
11835W        W83506  26.450  24.769  12.443
11836W        W83507   9.404  23.752  14.917
11837W        W83508  42.765   6.816  14.726
11838W        W83509  33.894  29.069  12.958
11839W        W83510  10.379  29.981   4.152
11840W        W83511  32.068  12.614   4.347
11841W        W83512  22.957  29.341   1.026
11842W        W83513  21.568   0.934  14.079
11843W        W83514  26.178   3.469  10.644
11844W        W83515  27.180  28.675   0.414
11845W        W83516  35.348  36.872   0.891
11846W        W83517   7.714  11.784   4.623
11847W        W83518  29.581   8.210   1.885
11848W        W83519   1.398  28.402  12.508
11849W        W83520  27.272   5.640  11.385
11850W        W83521  24.901  27.024  12.237
11851W        W83522  17.091  34.473  11.699
11852W        W83523   8.345  22.578  11.807
11853W        W83524  40.945  38.919   3.582
11854W        W83525  13.580  28.548  14.172
11855W        W83526  39.422  35.615   0.386
11856W        W83527  16.296   6.756  11.855
11857W        W83528  20.116   1.483   1.079
11858W        W83529  21.167  28.457   4.259
11859W        W83530  12.458  12.832   0.452
11860W        W83531  27.554  44.185   0.869
11861W        W83532   5.799  19.830   3.117
11862W        W83533  37.449  13.613  13.345
11863W        W83534  40.997  25.517   1.601
11864W        W83535   8.385  27.503   2.472
11865W        W83536   9.721  33.020  10.707
11866W        W83537  21.236  33.401  13.595
11867W        W83538  32.445  28.124   3.319
11868W        W83539  36.838  31.420   0.769
11869W        W83540  12.606   7.063  11.957
11870W        W83541   3.704  43.161  10.232
11871W        W83542  15.795  25.689   4.772
11872W        W83543  33.896  42.577  12.592
11873W        W83544  25.660  30.861   3.746
11874W        W83545   1.351   8.459   0.606
11875W        W83546  39.862  37.654  12.765
11876W        W83547  39.777  42.989   2.379
11877W        W83548  21.245   2.281  13.911
11878W        W83549  12.604  10.289   1.821
11879W        W83550   5.826  14.765  14.135
11880W        W83551  25.651  10.822  12.708
11881W        W83552  42.596  22.042  13.352
11882W        W83553  18.130  22.478   2.372
11883W        W83554  31.147  16.599   2.329
11884W        W83555  25.924  34.349  11.517
11885W        W83556   0.860  19.971  14.402
11886W        W83557  20.545  11.662  12.512
11887W        W83558  12.789   3.598  12.173
11888W        W83559   1.415  20.251   1.871
11889W        W83560  33.667  27.031   3.126
11890W        W83561  27.277  32.885   2.157
11891W        W83562   3.235  35.374  11.635
11892W        W83563  44.804  28.206  14.965
11893W        W83564  29.746  42.220  10.563
11894W        W83565  25.495  28.777  14.090
11895W        W83566  31.021   1.764   2.876
11896W        W83567  33.183  37.149  14.376
11897W        W83568  31.145  37.041   4.684
11898W        W83569  27.729  25.581  11.559
11899W        W83570   3.764   4.118   2.358
11900W        W83571  38.867  21.309   3.303
11901W        W83572  29.422  18.774   2.807
11902W        W83573  31.297  13.329   2.345
11903W        W83574  12.749   9.423  12.825
11904W        W83575  34.068  40.828   0.432
11905W        W83576   6.673  44.760  13.491
11906W        W83577  32.130  26.456   1.499
11907W        W83578  10.695  10.142  13.558
11908W        W83579  32.474  23.657  11.159
11909W        W83580  37.421  23.021  13.097
11910W        W83581  16.225  40.470  13.590
11911W        W83582  27.639  40.866   4.170
11912W        W83583  16.066   0.211   0.828
11913W        W83584  18.464  41.879  10.796
11914W        W83585  35.079  33.140  14.664
11915W        W83586  34.480  30.198   2.308
11916W        W83587  17.810   4.856   4.317
11917W        W83588  30.848  31.638   3.476
11918W        W83589  34.921  20.791  12.982
11919W        W83590  32.585  14.357   4.018
11920W        W83591  25.495  21.509  11.082
11921W        W83592  41.286  37.902  12.892
11922W        W83593  18.631  34.848   2.871
11923W        W83594  23.695  18.532   2.109
11924W        W83595  23.264  35.525  12.538
11925W        W83596   8.342  30.594   3.441
11926W        W83597   1.218  28.962  10.760
11927W        W83598  24.856  27.593   4.510
11928W        W83599  19.159  38.419  12.759
11929W        W83600  23.160   4.341   0.814
11930W        W83601   3.924   4.823  10.360
11931W        W83602  27.966  29.831  12.958
11932W        W83603  29.937   0.424   1.425
11933W        W83604  28.707  32.094  12.470
11934W        W83605  29.072   4.507   1.767
11935W        W83606  30.140  28.395   0.593
11936W        W83607  16.035  36.705  14.984
11937W        W83608  34.812  25.311  11.854
11938W        W83609   0.335  14.782  11.165
11939W        W83610  34.786   3.293  13.856
11940W        W83611  33.560  39.555   3.702
11941W        W83612  15.834  44.546   4.198
11942W        W83613  10.240  27.709   1.954
11943W        W83614   1.968  31.362   3.727
11944W        W83615  28.734   6.538   5.066
11945W        W83616  15.373  21.712  11.217
11946W        W83617  24.203   9.311   0.390
11947W        W83618  27.614  20.946   3.913
11948W        W83619  38.022  27.274   1.326
11949W        W83620  17.734   7.626   0.171
11950W        W83621  13.673  34.166  14.844
11951W        W83622  18.603   5.694  14.908
11952W        W83623  10.146  36.597  12.901
11953W        W83624  33.899  44.331   0.360
11954W        W83625  29.294  34.498  12.504
11955W        W83626  12.293   9.153   2.438
11956W        W83627  20.829   4.651   5.111
11957W        W83628  22.806   7.622   4.596
11958W        W83629  38.429   3.705  13.658
11959W        W83630  16.279   2.930  11.196
11960W        W83631  32.955  29.923  11.531
11961W        W83632  30.325  41.026  12.441
11962W        W83633   9.581  28.261   1.838
11963W        W83634   6.829  20.771   1.215
11964W        W83635  39.230  19.441   0.932
11965W        W83636   8.775  44.197   3.124
11966W        W83637  10.309  12.806   2.075
11967W        W83638  13.749  38.848   3.347
11968W        W83639  42.524  44.541  12.949
11969W        W83640  35.844  27.590  13.550
11970W        W83641  25.503  33.612  12.657
11971W        W83642  23.240  40.095   2.179
11972W        W83643  15.748  37.844  11.169
11973W        W83644  41.379  33.089   3.740
11974W        W83645  37.096  16.543   3.359
11975W        W83646  36.917  34.121  13.382
11976W        W83647  34.166   9.640  10.709
11977W        W83648  13.172  16.220   4.782
11978W        W83649   1.005  20.717   0.003
11979W        W83650  23.239  34.780   0.329
11980W        W83651  11.221  13.255   0.898
11981W        W83652  15.170  33.107   3.780
11982W        W83653   7.863  28.158   1.140
11983W        W83654  22.011  25.202   1.386
11984W        W83655  39.587  31.905  14.987
11985W        W83656  38.017  19.500  10.852
11986W        W83657  28.739  25.761   2.277
11987W        W83658  31.384   5.960  12.832
11988W        W83659  40.344  24.054  11.619
11989W        W83660  21.584  31.133   0.892
11990W        W83661   8.586  13.934   3.261
11991W        W83662   7.795  21.496   4.327
11992W        W83663  34.313  37.081  14.048
11993W        W83664  33.392  41.466  14.495
11994W        W83665   8.325  35.831  14.983
11995W        W83666  14.697  15.838   1.376
11996W        W83667  25.587  44.496   3.379
11997W        W83668  16.649  20.522  11.930
11998W        W83669   3.730   3.866   1.464
11999W        W83670  15.832  39.566   4.465
12000W        W83671  36.351  20.143  11.884
12001W        W83672  18.199  11.315   4.631
12002W        W83673  34.789  25.806  13.830
12003W        W83674  11.174  38.108  14.487
12004W        W83675  13.635  21.506   4.950
12005W        W83676  33.126  24.707   2.214
12006W        W83677  37.585  13.632   4.694
12007W        W83678   2.345  29.984  12.581
12008W        W83679  34.699  29.285   3.181
12009W        W83680  15.095  24.449  14.862
12010W        W83681  36.013  20.543   4.706
12011W        W83682  21.137   0.482   3.231
12012W        W83683  39.676  30.117   2.772
12013W        W83684  23.203   5.618   4.154
12014W        W83685  24.325  40.137   5.104
12015W        W83686  22.865  44.811   3.813
12016W        W83687  15.630  35.170   0.472
12017W        W83688  24.700   7.944   4.721
12018W        W83689  17.522  35.183   2.724
12019W        W83690  29.623  18.707   4.504
12020W        W83691  17.235  16.227  12.199
12021W        W83692   7.300   1.371  13.428
12022W        W83693  21.139   0.490   2.298
12023W        W83694  42.353  22.726   0.833
12024W        W83695  21.998  16.895   1.741
12025W        W83696  17.693  21.359  14.118
12026W        W83697  33.841  14.373   3.714
12027W        W83698  14.588  26.082   0.003
12028W        W83699  25.057  41.292  12.070
12029W        W83700  13.877   9.847   1.990
12030W        W83701  29.716  18.563   3.729
12031W        W83702  36.041  29.328  12.485
12032W        W83703   7.299  10.431   2.604
12033W        W83704  24.692  40.634   3.563
12034W        W83705   6.514   8.914  13.354
12035W        W83706   7.684  10.665   1.793
12036W        W83707   3.722   8.117   2.334
12037W        W83708  43.892  23.750   0.461
12038W        W83709  33.744   5.704   0.976
12039W        W83710   0.793  10.343  12.396
12040W        W83711  16.457  10.411  11.237
12041W        W83712  42.866   1.326   1.755
12042W        W83713  19.979   1.284   0.607
12043W        W83714  39.109  32.091   0.134
12044W        W83715   7.931  28.917   0.417
12045W        W83716  29.243  34.031  10.656
12046W        W83717  10.245  34.496   1.145
12047W        W83718  19.239  20.754   4.078
12048W        W83719  16.220   9.614   2.384
12049W        W83720  24.289  42.528  11.105
12050W        W83721  43.119   6.403  12.509
12051W        W83722  31.124  44.944  11.162
12052W        W83723  30.042  41.305  12.056
12053W        W83724  13.238  30.668  14.952
12054W        W83725  42.338  42.582   2.290
12055W        W83726   0.404  43.044   0.812
12056W        W83727  38.037  28.941  13.789
12057W        W83728  10.456   4.855  12.416
12058W        W83729  14.684  39.735  10.525
12059W        W83730  31.558  44.414   9.845
12060W        W83731  37.012   9.908   4.329
12061W        W83732  28.726   2.818   4.466
12062W        W83733  25.690  29.809   1.325
12063W        W83734  10.677  39.084  11.763
12064W        W83735  24.570  26.615   3.204
12065W        W83736  30.635   1.807  13.379
12066W        W83737  24.541  43.727   0.624
12067W        W83738  11.880  25.411  12.106
12068W        W83739   8.441  30.955   1.691
12069W        W83740  39.761  43.781   4.260
12070W        W83741  41.785  16.418   1.229
12071W        W83742   0.219   9.488  13.008
12072W        W83743  27.719  25.659   3.247
12073W        W83744  30.377   8.867   1.802
12074W        W83745  26.245  13.554   1.789
12075W        W83746  36.608  19.657  10.216
12076W        W83747  32.430  18.769   1.128
12077W        W83748  39.221  27.943   1.266
12078W        W83749  44.906  25.167  11.697
12079W        W83750   8.280  12.766  12.320
12080W        W83751  33.906   3.765   0.705
12081W        W83752  40.911  12.658  13.550
12082W        W83753  17.673  33.130  13.547
12083W        W83754  25.797  22.655  13.997
12084W        W83755  16.265   6.437   4.140
12085W        W83756  31.982   3.945   2.951
12086W        W83757   9.740   8.207  12.020
12087W        W83758  24.030   9.305  14.413
12088W        W83759   4.402  38.559  14.413
12089W        W83760  38.827   2.838   3.933
12090W        W83761  19.221  12.157  13.015
12091W        W83762   1.332  36.408   3.312
12092W        W83763  39.410  38.476  14.326
12093W        W83764  16.724  10.799   1.506
12094W        W83765  16.044  37.531  13.039
12095W        W83766  16.117  25.712   2.538
12096W        W83767  29.065   2.314  12.557
12097W        W83768   2.881  12.048   3.542
12098W        W83769  18.208  31.620  14.929
12099W        W83770  35.178  35.592  11.741
12100W        W83771  23.264  22.658   2.717
12101W        W83772  14.283  14.860  10.412
12102W        W83773  30.831  13.612  11.523
12103W        W83774  34.585  37.649  10.545
12104W        W83775   5.662  27.394   3.337
12105W        W83776  26.888   7.334   0.449
12106W        W83777  36.896  28.964   0.763
12107W        W83778   2.346   4.809   2.333
12108W        W83779  13.577  29.078  11.966
12109W        W83780  18.557   8.119   3.718
12110W        W83781  43.979  37.892   0.215
12111W        W83782  40.835   9.191  14.989
12112W        W83783  24.080  37.244   4.588
12113W        W83784  33.859  20.346  10.651
12114W        W83785  27.397  36.352   4.436
12115W        W83786  37.738  24.547  13.554
12116W        W83787   2.975  30.216  13.398
12117W        W83788  16.030  32.904   0.044
12118W        W83789  40.167   7.365   1.320
12119W        W83790  28.155   6.206   1.246
12120W        W83791   1.824  15.765  12.602
12121W        W83792  25.550  17.872   2.176
12122W        W83793  41.373  43.882  11.667
12123W        W83794  38.562  39.606   0.275
12124W        W83795  22.786   8.332  11.190
12125W        W83796  32.644  19.124   2.393
12126W        W83797  25.530  26.664  13.467
12127W        W83798  20.840   5.475  12.830
12128W        W83799  41.940  44.705  14.018
12129W        W83800   6.168  21.583  11.185
12130W        W83801   5.216   7.891   3.124
12131W        W83802  17.302  22.104   2.779
12132W        W83803  38.594  34.033   3.841
12133W        W83804   2.438   4.896   5.149
12134W        W83805  19.536  23.087   1.356
12135W        W83806  12.854  19.795   4.113
12136W        W83807  44.966  22.984   4.603
12137W        W83808  32.366   1.995   2.378
12138W        W83809   9.448   6.813  12.323
12139W        W83810  41.536   5.740   1.240
12140W        W83811  25.397  20.054   3.246
12141W        W83812   8.263  23.127  13.865
12142W        W83813  31.594  30.096   0.487
12143W        W83814  37.728  39.998  10.469
12144W        W83815  32.548  32.815  14.618
12145W        W83816  43.082  26.189  11.984
12146W        W83817   1.662  38.277   0.711
12147W        W83818   4.561  28.843   4.544
12148W        W83819   1.722   3.262  10.690
12149W        W83820  35.524  33.920   4.500
12150W        W83821   9.664  18.284   1.294
12151W        W83822  38.003  31.718  12.051
12152W        W83823  36.564   0.219   2.691
12153W        W83824  23.643  18.028  14.829
12154W        W83825  38.086   5.315  13.530
12155W        W83826   4.748  24.003   1.687
12156W        W83827  27.179   6.044   4.387
12157W        W83828   9.051  35.041  13.986
12158W        W83829  40.670   5.905  14.798
12159W        W83830  10.194  35.133  12.515
12160W        W83831  36.170   9.299  12.075
12161W        W83832  16.067  19.971   0.969
12162W        W83833  20.438  16.229  13.394
12163W        W83834   6.920   8.756  12.395
12164W        W83835   4.274   9.187  14.983
12165W        W83836  18.529  34.138   2.250
12166W        W83837  36.187  18.609   2.659
12167W        W83838  10.607  25.300   0.920
12168W        W83839   4.192   7.044  13.364
12169W        W83840  36.057   1.423  13.850
12170W        W83841  30.043  21.989  14.956
12171W        W83842  18.560  11.787  14.564
12172W        W83843  27.119   7.360   4.587
12173W        W83844  22.730  34.594  14.468
12174W        W83845  26.471   7.865   4.654
12175W        W83846  42.403   7.712   5.018
12176W        W83847  29.627  31.259  12.512
12177W        W83848  24.504  13.095   0.413
12178W        W83849  36.799  38.446  10.210
12179W        W83850  27.183  15.739  14.020
12180W        W83851   1.163  21.587  14.258
12181W        W83852   4.322  39.857   2.249
12182W        W83853   0.369  29.226  13.081
12183W        W83854   1.955  38.937   0.022
12184W        W83855  35.938  43.070  12.008
12185W        W83856  18.682   8.607   3.623
12186W        W83857  15.074   9.358   0.794
12187W        W83858  12.228  40.566  11.818
12188W        W83859  13.244  33.618   3.902
12189W        W83860   8.741  42.898  11.641
12190W        W83861   6.282  19.330  10.770
12191W        W83862  19.774  38.110   2.379
12192W        W83863  44.421  12.025  14.393
12193W        W83864  10.168  16.897  11.088
12194W        W83865  30.537  18.562  12.355
12195W        W83866  23.742  38.322  10.206
12196W        W83867  17.306  37.554  14.608
12197W        W83868  34.422  20.263   4.246
12198W        W83869   5.732  42.538   3.880
12199W        W83870  32.117  38.550  11.522
12200W        W83871  31.419  10.854  11.918
12201W        W83872  36.680  40.875   0.981
12202W        W83873  21.133   1.423  10.794
12203W        W83874  44.686  35.783   1.756
12204W        W83875  33.927  38.882  14.277
12205W        W83876  16.391  25.446   1.617
12206W        W83877  43.708  29.996   1.076
12207W        W83878   5.832  32.648  11.104
12208W        W83879  43.911  18.331  12.882
12209W        W83880  30.129  25.771   2.264
12210W        W83881  10.003  12.540  14.057
12211W        W83882  21.245  13.808  11.343
12212W        W83883   2.745  36.361  10.527
12213W        W83884   4.791  35.894   4.109
12214W        W83885   3.132  21.437   0.830
12215W        W83886  36.397  29.965  11.598
12216W        W83887  29.913  22.045  11.126
12217W        W83888  26.172  31.018   1.691
12218W        W83889  36.978  20.279   3.131
12219W        W83890  44.238   9.368   4.246
12220W        W83891  44.565  28.385  11.197
12221W        W83892  10.842   8.471   1.835
12222W        W83893  19.777  12.401  11.023
12223W        W83894  12.375   2.216   0.834
12224W        W83895  33.481  16.381   0.043
12225W        W83896  42.897  24.350  12.573
12226W        W83897  25.945  25.521   0.425
12227W        W83898   9.763  11.376   0.376
12228W        W83899  27.298  16.364  12.199
12229W        W83900  36.625   3.957  13.557
12230W        W83901   7.884  36.016  13.830
12231W        W83902   6.507  31.310   1.268
12232W        W83903  31.596  24.006   4.757
12233W        W83904   7.395  38.581  11.974
12234W        W83905  14.433  17.583   1.886
12235W        W83906   3.450   6.904  13.240
12236W        W83907  22.803  24.585  12.326
12237W        W83908  33.529  26.768  12.970
12238W        W83909  19.271  10.382  11.526
12239W        W83910  21.356   7.098  12.155
12240W        W83911  10.223  42.709   1.772
12241W        W83912  22.040  35.285   3.047
12242W        W83913  32.543  16.071  11.045
12243W        W83914  38.279  40.013   1.893
12244W        W83915   5.231  23.283   2.696
12245W        W83916  26.812   2.981  14.557
12246W        W83917  15.063  23.113   4.909
12247W        W83918  39.832  40.509   3.692
12248W        W83919  19.393  19.310  11.107
12249W        W83920  29.983  30.354   3.833
12250W        W83921  29.399  11.788  11.154
12251W        W83922  24.251  21.716   1.656
12252W        W83923  39.997  22.950   3.966
12253W        W83924  32.860  20.020  14.958
12254W        W83925   5.404  30.600   0.444
12255W        W83926  20.155  12.062   4.237
12256W        W83927  42.000  36.953  10.778
12257W        W83928  36.297  25.779  10.825
12258W        W83929  33.419  44.803   0.887
12259W        W83930  23.954  31.530   2.450
12260W        W83931  31.018  10.445   3.364
12261W        W83932  30.629  41.298  13.417
12262W        W83933  20.649   4.195   2.142
12263W        W83934  39.163  20.661  14.478
12264W        W83935   5.231  13.738   1.256
12265W        W83936   4.654  21.237  14.347
12266W        W83937  32.010  24.576   2.140
12267W        W83938  36.559  38.991  13.555
12268W        W83939  32.254  20.295  12.495
12269W        W83940  12.023  29.081  14.440
12270W        W83941  15.689   8.271  10.898
12271W        W83942  35.180   7.844   4.114
12272W        W83943  11.138  41.181  11.377
12273W        W83944  16.139  16.832  10.625
12274W        W83945   7.630  43.909   4.117
12275W        W83946  26.088  19.157   4.639
12276W        W83947  33.056   7.175   2.578
12277W        W83948  12.005  43.794   1.680
12278W        W83949   1.411   5.014   0.019
12279W        W83950   0.336  10.638   2.306
12280W        W83951  38.090  17.172   1.833
12281W        W83952   9.168  17.521   2.176
12282W        W83953  28.028  44.954   1.180
12283W        W83954  26.519   7.722   3.381
12284W        W83955  24.208   0.088  13.726
12285W        W83956  25.224  31.332  11.197
12286W        W83957  31.225  31.658   3.858
12287W        W83958  12.681   0.253   3.587
12288W        W83959  24.635  36.999  14.542
12289W        W83960  21.138  23.044   2.795
12290W        W83961   7.866   6.718   0.098
12291W        W83962  41.427  27.221   5.082
12292W        W83963  25.541  16.680  12.591
12293W        W83964  28.590  31.918   4.505
12294W        W83965  12.475  19.700   3.202
12295W        W83966  30.144  42.942  13.013
12296W        W83967  10.977  28.067   1.579
12297W        W83968  15.589  12.652  14.447
12298W        W83969   6.429  30.090   0.936
12299W        W83970  44.404   6.791   0.755
12300W        W83971  10.264  10.941   3.190
12301W        W83972  28.737  22.938  11.922
12302W        W83973  40.499  44.885   3.306
12303W        W83974  35.113  14.935  11.119
12304W        W83975  29.538  32.295  11.548
12305W        W83976   1.731  11.372   1.826
12306W        W83977  12.398  37.030   4.425
12307W        W83978  15.152   9.953   2.636
12308W        W83979  34.511  22.102   3.411
12309W        W83980  32.850  23.968  13.232
12310W        W83981  32.499  14.516  14.089
12311W        W83982  27.289  43.828  10.639
12312W        W83983  39.990  26.996   4.563
12313W        W83984   5.583   4.855  10.857
12314W        W83985  42.256  21.065  11.124
12315W        W83986  36.893   0.929  14.045
12316W        W83987  24.178  23.690   2.103
12317W        W83988  29.373  15.288  12.142
12318W        W83989   3.547  44.848  11.353
12319W        W83990  13.555  18.036   2.712
12320W        W83991  36.134  44.043   0.861
12321W        W83992  24.905  34.037   2.125
12322W        W83993  26.029  12.379  12.522
12323W        W83994   2.655  39.945  12.511
12324W        W83995  18.055  28.874  11.336
12325W        W83996  29.732   4.858  13.667
12326W        W83997   1.931   0.343   1.292
12327W        W83998  21.259  33.657   3.305
12328W        W83999  26.578  14.944  11.137
12329W        W84000   6.185   8.935  10.284
12330W        W84001   9.267  28.526  12.088
12331W        W84002  36.870   7.807   1.695
12332W        W84003  10.925  16.714  11.984
12333W        W84004  42.750  25.948  11.653
12334W        W84005  13.600  13.304   0.944
12335W        W84006   8.654   4.729   1.642
12336W        W84007  40.973  24.155  12.408
12337W        W84008  16.240  24.155   3.127
12338W        W84009  31.192   0.380  12.508
12339W        W84010   1.785  13.225   4.455
12340W        W84011   2.954  33.604  12.617
12341W        W84012   9.234  33.436   4.261
12342W        W84013  11.107   2.477   3.751
12343W        W84014   3.308  35.362   3.350
12344W        W84015  10.035  22.989  14.500
12345W        W84016  40.443  20.313  13.376
12346W        W84017  18.711  31.519   2.382
12347W        W84018  18.726  21.525   4.122
12348W        W84019  17.883   1.792  13.510
12349W        W84020  20.741  18.057   0.763
12350W        W84021  15.651  37.396   2.075
12351W        W84022  23.286   7.156   3.235
12352W        W84023   2.396  26.167   1.096
12353W        W84024  26.901  16.578  10.479
12354W        W84025  21.163  27.334   2.752
12355W        W84026   7.042  19.163  13.046
12356W        W84027  43.791   1.507   3.799
12357W        W84028  26.712  34.525   0.792
12358W        W84029   1.765  27.005   4.653
12359W        W84030  28.902  23.171   1.772
12360W        W84031  42.949   5.365   0.115
12361W        W84032  23.867  28.216   2.381
12362W        W84033  40.032  12.791  14.001
12363W        W84034  34.404  43.374  13.399
12364W        W84035  26.127  43.290  12.949
12365W        W84036   9.806  32.106  14.427
12366W        W84037  27.790  36.129  12.046
12367W        W84038  14.242   1.507   4.298
12368W        W84039  12.395  23.553   1.801
12369W        W84040  22.538  39.201   1.776
12370W        W84041  16.768  20.149   3.736
12371W        W84042  18.647  12.600  10.366
12372W        W84043  34.605  15.911   2.778
12373W        W84044  31.208  14.311  14.255
12374W        W84045  23.325  39.940  12.155
12375W        W84046  19.318  33.197   0.511
12376W        W84047  29.942   9.313  14.963
12377W        W84048  28.117   0.540   0.978
12378W        W84049  33.536   2.345  10.856
12379W        W84050  23.211   5.495  11.887
12380W        W84051   2.313  13.937  11.197
12381W        W84052  34.514  15.540  12.016
12382W        W84053  29.879  10.211  12.200
12383W        W84054  31.134  18.144   3.814
12384W        W84055  29.431  40.264   2.355
12385W        W84056  33.952  31.548   1.187
12386W        W84057  18.331  42.764  14.894
12387W        W84058  19.097  16.228   1.845
12388W        W84059  17.019  14.598  11.599
12389W        W84060  10.928  37.549   2.712
12390W        W84061  15.865   7.359  11.101
12391W        W84062   1.033  14.422   3.992
12392W        W84063   1.699  22.716  13.132
12393W        W84064  37.755   0.502   2.371
12394W        W84065   6.689  31.888  11.596
12395W        W84066  34.454   7.862   4.645
12396W        W84067  33.424  21.635   2.720
12397W        W84068  29.003  44.499   1.444
12398W        W84069  18.172  39.233   3.833
12399W        W84070  44.849  18.795  12.431
12400W        W84071   6.355  19.990   0.275
12401W        W84072  26.663  10.451   4.218
12402W        W84073   8.664   5.374  14.899
12403W        W84074  43.531  27.094   4.850
12404W        W84075  11.743  34.627   4.595
12405W        W84076  29.673  19.261   3.021
12406W        W84077  23.170  35.164   0.675
12407W        W84078  37.098  17.770  14.500
12408W        W84079  29.528   1.644  11.614
12409W        W84080  10.963  11.664  14.778
12410W        W84081  38.968  28.516   3.696
12411W        W84082  42.644  22.033   1.207
12412W        W84083  38.133   7.730   0.341
12413W        W84084   0.124  40.010  11.961
12414W        W84085  19.683  40.052   2.365
12415W        W84086  23.571  36.471   3.679
12416W        W84087  32.688  17.811   3.417
12417W        W84088  20.317  33.658   0.886
12418W        W84089  32.860  12.029   4.894
12419W        W84090  18.754  36.107   1.808
12420W        W84091   6.937  35.957   3.918
12421W        W84092  25.862  15.545  10.773
12422W        W84093   0.944   3.634  13.138
12423W        W84094  36.541   3.375   4.963
12424W        W84095   2.908  37.639   1.760
12425W        W84096  15.268   5.162   1.457
12426W        W84097  41.774  11.887  12.689
12427W        W84098  16.064  30.970  11.944
12428W        W84099  13.136  19.226  13.120
12429W        W84100   0.930  26.019   1.722
12430W        W84101   4.985  12.796   1.497
12431W        W84102  15.303  34.335  10.435
12432W        W84103   4.613  27.960   1.244
12433W        W84104  32.507  39.410   4.772
12434W        W84105  22.044  27.019  12.757
12435W        W84106   2.216  34.355   2.598
12436W        W84107  19.716  43.326  13.952
12437W        W84108  27.973   3.999  12.830
12438W        W84109   2.448  16.030   4.853
12439W        W84110  34.820   9.163   4.197
12440W        W84111  17.459   9.107   3.775
12441W        W84112  38.104  39.724  13.507
12442W        W84113   5.961  25.102  14.040
12443W        W84114  34.568  12.831  14.956
12444W        W84115  25.831  23.543   1.223
12445W        W84116  26.923  10.349  13.056
12446W        W84117  41.991  44.912  13.540
12447W        W84118  25.404  33.293  10.238
12448W        W84119  41.919  13.833   4.045
12449W        W84120   2.727  42.945  12.472
12450W        W84121  29.004  41.778   4.096
12451W        W84122   0.200  31.531  12.972
12452W        W84123  41.744  10.369  14.369
12453W        W84124  25.576  14.905   2.097
12454W        W84125  11.088   9.975   0.950
12455W        W84126  21.606  42.896  11.942
12456W        W84127  36.416  23.677  13.125
12457W        W84128  20.541  29.576   1.328
12458W        W84129  34.471  24.436   3.173
12459W        W84130  39.257  33.865  13.521
12460W        W84131   7.109  39.317   1.828
12461W        W84132  25.739  41.842   1.196
12462W        W84133  14.012  39.281  12.500
12463W        W84134  23.240  20.664   0.858
12464W        W84135  31.195  35.510   1.607
12465W        W84136  29.825  13.892  13.002
12466W        W84137  19.424  36.986  13.652
12467W        W84138  22.168  14.559  14.360
12468W        W84139  13.125   4.530  12.618
12469W        W84140  33.897  44.431  12.577
12470W        W84141  27.506  43.048  11.208
12471W        W84142   2.490  18.624   4.659
12472W        W84143  28.965  42.055  10.949
12473W        W84144  33.032  30.456   3.778
12474W        W84145  32.399  26.254  10.727
12475W        W84146  27.937   1.569  12.992
12476W        W84147  39.388  41.245   1.407
12477W        W84148  41.284  39.753  10.274
12478W        W84149   3.000   2.787   0.422
12479W        W84150  20.647  20.731  12.642
12480W        W84151  28.509  28.995   0.524
12481W        W84152   1.041   5.331   4.646
12482W        W84153  31.833   6.749   4.618
12483W        W84154  34.849  30.870  12.863
12484W        W84155  14.101  41.990  14.398
12485W        W84156  13.105  23.479   3.869
12486W        W84157  31.828  42.161   2.853
12487W        W84158  28.166  28.685   2.650
12488W        W84159  43.707  43.518   2.254
12489W        W84160  25.351   2.770  10.710
12490W        W84161  23.438  16.728   0.198
12491W        W84162  24.487   3.437  14.298
12492W        W84163   1.721   6.020  13.508
12493W        W84164  11.427   4.351  11.587
12494W        W84165  14.141   1.460   0.860
12495W        W84166  27.441   6.926  14.711
12496W        W84167  28.129  18.413  11.268
12497W        W84168  21.454  15.122  10.636
12498W        W84169   5.035  11.585  11.508
12499W        W84170  19.599  16.335   1.970
12500W        W84171  39.360  10.419  12.082
12501W        W84172  24.868  25.786  13.315
12502W        W84173  38.535  20.566   3.728
12503W        W84174  31.277   4.728  14.881
12504W        W84175  36.570  33.616  11.473
12505W        W84176  24.244  19.969  12.122
12506W        W84177  26.049  34.254   0.243
12507W        W84178  32.376  30.223  11.832
12508W        W84179   6.154  23.543   4.488
12509W        W84180  19.702  35.603   0.357
12510W        W84181  40.936  40.002  10.670
12511W        W84182  27.891  12.656  14.876
12512W        W84183  37.838  39.765  14.498
12513W        W84184  41.470  12.305  12.496
12514W        W84185  12.814  13.588   2.008
12515W        W84186  36.946  29.345   3.407
12516W        W84187   8.128  14.293   2.450
12517W        W84188  36.851  37.877   0.901
12518W        W84189  32.052  44.834   1.673
12519W        W84190  42.496  36.522   3.659
12520W        W84191  21.531  29.943  14.101
12521W        W84192  27.221  36.021   2.295
12522W        W84193  20.937  34.018  13.829
12523W        W84194  41.663  21.730   3.346
12524W        W84195  27.912  11.215  13.038
12525W        W84196  15.582  14.108  14.351
12526W        W84197   2.865   3.695  13.974
12527W        W84198  26.039  20.160  11.542
12528W        W84199  36.320  25.717  12.457
12529W        W84200  16.198  23.036  10.632
12530W        W84201  34.855  13.665   3.881
12531W        W84202  38.343  37.069  12.955
12532W        W84203  40.291   2.456  13.993
12533W        W84204  37.243  41.101  14.458
12534W        W84205  28.211   6.456  14.968
12535W        W84206  21.536  18.810   1.765
12536W        W84207  37.521   5.423   0.384
12537W        W84208  32.650  44.062   3.748
12538W        W84209  19.254  11.161  12.915
12539W        W84210   6.265   5.413   0.862
12540W        W84211   6.178   6.534  14.564
12541W        W84212  10.226  18.465  12.974
12542W        W84213  44.596  23.267   2.768
12543W        W84214  44.937  15.304   1.905
12544W        W84215   0.816  19.526   3.764
12545W        W84216   8.353  23.926  13.686
12546W        W84217  22.254   2.294  10.641
12547W        W84218  41.014  16.091   4.685
12548W        W84219  14.381  32.986   3.294
12549W        W84220  14.200  23.975   1.750
12550W        W84221  39.733  41.330   2.858
12551W        W84222  32.379   8.386  10.846
12552W        W84223  23.042  25.901  12.959
12553W        W84224   6.492   2.180   3.168
12554W        W84225  13.334   7.262   2.873
12555W        W84226  33.422  23.007  11.044
12556W        W84227  22.187  16.366   4.667
12557W        W84228  31.907  30.033  13.921
12558W        W84229  38.530  40.276  12.419
12559W        W84230  19.164  13.898   3.698
12560W        W84231  15.174  12.277   2.329
12561W        W84232  16.054  22.187  10.733
12562W        W84233  25.443   7.321  13.945
12563W        W84234  35.440  14.552   0.237
12564W        W84235  26.773  24.582   4.095
12565W        W84236  26.133  28.027  12.472
12566W        W84237  42.129  20.766  10.370
12567W        W84238  42.490   8.954  13.356
12568W        W84239  27.153  35.865   4.496
12569W        W84240  17.004  13.726  12.468
12570W        W84241   0.172   9.904   2.716
12571W        W84242  43.724  30.884   1.738
12572W        W84243  26.093  28.979   4.027
12573W        W84244   3.751   5.919  13.357
12574W        W84245  32.951  12.608   3.551
12575W        W84246   0.529  11.281   0.123
12576W        W84247  38.689  41.973  11.706
12577W        W84248  32.119  25.979   0.271
12578W        W84249  38.748  11.675  14.149
12579W        W84250  36.356  35.863   0.286
12580W        W84251  27.085   9.307  10.323
12581W        W84252   9.189  33.567  11.614
12582W        W84253  41.526  36.827   4.923
12583W        W84254  15.090  36.393   3.157
12584W        W84255  13.351   2.845  13.336
12585W        W84256  12.861  42.306  12.930
12586W        W84257  32.128  14.707   3.132
12587W        W84258  18.385  43.661   3.757
12588W        W84259  23.277   0.277  11.466
12589W        W84260  13.274  35.027  12.911
12590W        W84261   5.949   1.500   2.831
12591W        W84262  20.001  39.869   2.864
12592W        W84263  15.083  19.215   4.901
12593W        W84264  26.700  40.055  12.070
12594W        W84265  30.521   3.292  12.651
12595W        W84266   9.762   0.964   1.205
12596W        W84267   5.392   6.803  12.649
12597W        W84268  43.485   0.869   2.084
12598W        W84269  26.744  40.577  14.506
12599W        W84270  39.545   1.437  11.607
12600W        W84271   8.109  39.877   0.329
12601W        W84272   8.767  11.058  12.542
12602W        W84273  44.426  43.099   1.464
12603W        W84274  43.809  16.285   3.058
12604W        W84275  23.527  34.865   1.675
12605W        W84276   3.733   0.417  11.515
12606W        W84277  41.815  39.094   3.102
12607W        W84278  32.655  13.216   2.851
12608W        W84279   5.881  32.815   1.320
12609W        W84280  12.777  12.379  12.019
12610W        W84281  20.350  18.719   0.543
12611W        W84282  13.722  38.260  12.467
12612W        W84283  30.669  43.366   0.956
12613W        W84284  21.919  35.715  11.528
12614W        W84285   4.684  33.283  13.263
12615W        W84286  36.578  39.885   4.580
12616W        W84287  23.886  34.323  11.610
12617W        W84288  35.451  31.642  13.901
12618W        W84289  19.837  24.455   1.453
12619W        W84290  20.762  18.098  14.402
12620W        W84291  33.893  26.610   0.397
12621W        W84292  21.593  28.419   3.331
12622W        W84293  18.636  32.922   4.695
12623W        W84294   6.879  38.082   2.361
12624W        W84295  35.356   8.797   1.572
12625W        W84296  35.895   6.502   0.242
12626W        W84297  15.850  30.603   3.342
12627W        W84298  34.056  19.565  11.572
12628W        W84299   8.414  40.040  14.896
12629W        W84300  25.933  22.721   2.118
12630W        W84301  21.955  37.810   5.254
12631W        W84302  23.058  24.229   0.255
12632W        W84303  20.013   4.236  11.155
12633W        W84304  34.404  12.210   0.607
12634W        W84305  11.309  38.505  12.647
12635W        W84306  34.454  23.063   0.265
12636W        W84307   5.730  10.185  10.662
12637W        W84308   3.683  11.645   0.259
12638W        W84309  41.452   8.409   5.014
12639W        W84310  27.734  26.551  13.498
12640W        W84311  13.856  27.181   0.283
12641W        W84312  44.369  17.715  11.550
12642W        W84313   5.781  37.199  11.942
12643W        W84314  44.903  16.742   0.777
12644W        W84315  18.213  18.146  13.118
12645W        W84316  29.245  21.079  12.072
12646W        W84317  35.193  34.482   3.744
12647W        W84318  39.422  16.741  14.873
12648W        W84319  14.616  31.529   0.243
12649W        W84320   3.554  30.397  11.657
12650W        W84321   8.358  33.374   3.667
12651W        W84322  18.305  40.840   2.774
12652W        W84323  10.344  18.703  11.186
12653W        W84324   4.989  42.293   1.879
12654W        W84325  15.755  15.317   0.974
12655W        W84326  23.792  20.580  14.758
12656W        W84327  31.427   3.329   1.224
12657W        W84328  17.176  35.669   3.551
12658W        W84329  31.321  33.091  10.737
12659W        W84330  15.157  24.905   2.659
12660W        W84331  14.766  11.732  11.245
12661W        W84332  26.273  17.762   1.448
12662W        W84333  41.520  33.428   0.275
12663W        W84334  43.792  37.954  14.318
12664W        W84335   5.473   0.496  14.351
12665W        W84336   9.617   8.835   0.378
12666W        W84337   8.243  44.460   2.282
12667W        W84338  40.257  41.413   0.286
12668W        W84339  37.408  22.086  10.615
12669W        W84340  19.556   3.444  12.463
12670W        W84341   2.265  14.180   3.268
12671W        W84342  21.562  32.580  10.611
12672W        W84343  37.113  31.640  12.174
12673W        W84344  32.222  43.737   3.712
12674W        W84345  36.396  12.364  11.676
12675W        W84346  30.382  38.708  12.534
12676W        W84347  32.610  37.396   1.481
12677W        W84348   6.516  39.377  10.640
12678W        W84349  30.728  15.844   2.876
12679W        W84350  39.266  29.514   1.448
12680W        W84351  27.429  25.026  13.006
12681W        W84352  26.930  33.783  12.808
12682W        W84353  11.946   8.730  10.665
12683W        W84354   5.793  29.131   3.766
12684W        W84355  41.542   5.721  12.132
12685W        W84356  36.909  16.111   3.068
12686W        W84357   6.771  33.025   4.137
12687W        W84358  17.054  15.112   3.778
12688W        W84359  27.562  21.502  14.264
12689W        W84360  10.849  40.947  13.835
12690W        W84361  14.813  43.593  11.655
12691W        W84362   9.331  36.638  10.461
12692W        W84363  14.703   2.824  13.615
12693W        W84364  39.307  32.360   0.806
12694W        W84365   4.056  30.617  12.507
12695W        W84366  15.187   7.887   0.246
12696W        W84367  40.561   1.995   4.821
12697W        W84368  44.256   4.160   2.428
12698W        W84369   1.031   6.935   1.689
12699W        W84370  17.134  31.894  11.656
12700W        W84371   0.788  12.648   3.769
12701W        W84372   8.226  44.723   1.714
12702W        W84373  36.888   9.815  11.827
12703W        W84374   1.786  27.135  14.526
12704W        W84375  18.967  18.697   1.806
12705W        W84376  42.413   7.867   1.311
12706W        W84377  44.198  32.348   0.457
12707W        W84378  19.897  24.783  10.600
12708W        W84379  27.009  12.394  13.964
12709W        W84380  37.914   0.912  11.590
12710W        W84381  44.136  15.894   3.198
12711W        W84382   3.988  22.307   4.630
12712W        W84383   3.729  41.264   3.609
12713W        W84384  44.852  20.362  12.400
12714W        W84385  20.820  41.019  11.373
12715W        W84386   3.342  34.469  13.832
12716W        W84387  17.371  43.771  13.035
12717W        W84388  41.402  32.390   3.152
12718W        W84389   9.969  24.523  13.871
12719W        W84390   8.151  20.689  12.942
12720W        W84391  29.904  26.038   2.659
12721W        W84392  22.271  22.150   2.938
12722W        W84393  38.984  15.135  11.618
12723W        W84394  41.435  22.270  12.060
12724W        W84395  28.535  14.781  13.157
12725W        W84396  34.885   9.774  12.149
12726W        W84397  26.620  13.234  13.622
12727W        W84398  16.026  33.525   1.828
12728W        W84399  40.052  28.426   1.347
12729W        W84400  32.574  34.822   2.847
12730W        W84401   0.802   3.361   4.667
12731W        W84402   6.251  25.288  10.301
12732W        W84403   3.769  38.321   2.801
12733W        W84404  33.539  38.096   3.850
12734W        W84405  43.340  19.453  13.949
12735W        W84406  42.012  41.788  11.602
12736W        W84407  18.350  17.594  12.496
12737W        W84408  16.072  20.178   3.336
12738W        W84409  42.335  36.279  11.422
12739W        W84410  44.232   7.580   2.229
12740W        W84411  17.821  15.088  12.439
12741W        W84412   5.203  38.556  11.298
12742W        W84413  26.219  20.257   3.095
12743W        W84414  36.590  26.754  13.377
12744W        W84415   1.975   1.435  14.564
12745W        W84416  38.903  39.781   1.340
12746W        W84417  20.547  30.073   3.625
12747W        W84418  22.093   7.254  10.852
12748W        W84419  42.033   9.624  13.308
12749W        W84420  31.457  24.024  10.589
12750W        W84421   5.326  28.671  12.642
12751W        W84422  18.306   2.246   4.293
12752W        W84423  35.133   7.861  14.857
12753W        W84424  20.749  12.193   5.102
12754W        W84425   8.325   1.298  14.946
12755W        W84426  18.532  19.782   0.343
12756W        W84427  32.677  44.301   4.671
12757W        W84428  18.268  20.198   3.777
12758W        W84429  17.176   1.399  11.056
12759W        W84430   4.926  20.762  14.472
12760W        W84431  36.648  22.681  11.888
12761W        W84432  20.224  16.592  12.658
12762W        W84433  44.114  40.355   1.360
12763W        W84434  29.184   8.223  14.432
12764W        W84435  36.906  28.497   2.759
12765W        W84436  25.243  14.241  11.438
12766W        W84437  21.804  44.884   0.806
12767W        W84438  29.457  18.755  10.607
12768W        W84439  44.993   3.845  13.074
12769W        W84440   6.269  42.950  12.421
12770W        W84441  20.999  26.845  11.588
12771W        W84442  27.586  23.252   1.485
12772W        W84443  19.690  22.550  12.521
12773W        W84444  23.140  34.802  12.030
12774W        W84445  30.643  21.988  10.584
12775W        W84446   2.484   0.606  13.032
12776W        W84447  23.807  36.839  13.386
12777W        W84448  11.426  40.673   4.667
12778W        W84449  16.850  34.865  13.583
12779W        W84450  12.797  31.656   0.625
12780W        W84451  12.882  29.009   0.885
12781W        W84452  14.081  26.667  13.634
12782W        W84453  19.152  14.184  12.689
12783W        W84454   9.198  13.366   2.656
12784W        W84455  26.904   8.856   2.762
12785W        W84456  16.678  34.101  14.464
12786W        W84457  12.807  29.704   2.400
12787W        W84458  14.153   6.931   3.434
12788W        W84459   0.833  35.452  14.331
12789W        W84460  41.278  41.613   0.757
12790W        W84461  12.214   6.293  10.684
12791W        W84462   2.458   5.469  11.447
12792W        W84463   3.942   6.462   0.010
12793W        W84464   9.654  24.785  12.821
12794W        W84465  25.409  31.819   0.927
12795W        W84466  38.765  33.011   0.186
12796W        W84467  22.457  36.888   4.287
12797W        W84468  19.356  39.427  14.524
12798W        W84469  16.817   2.200   4.800
12799W        W84470  43.085  27.113   1.189
12800W        W84471  11.940  42.960   0.569
12801W        W84472   2.864  24.255   4.618
12802W        W84473  33.681  16.971  12.862
12803W        W84474  11.449  11.121  11.608
12804W        W84475  11.713   0.521   2.690
12805W        W84476   0.067   5.539   0.387
12806W        W84477  26.331  44.113  12.543
12807W        W84478   3.554   6.307  11.122
12808W        W84479  25.676  39.314  14.867
12809W        W84480   6.928  43.755   4.574
12810W        W84481   5.439  15.738  14.485
12811W        W84482   2.007   2.452   2.989
12812W        W84483  19.584  31.971   4.604
12813W        W84484   6.293  21.798  14.802
12814W        W84485   6.411   6.193  14.905
12815W        W84486  21.726   5.355  14.367
12816W        W84487  44.534  41.439  14.959
12817W        W84488   7.425  26.649   4.129
12818W        W84489   7.969  16.199  13.925
12819W        W84490  30.971  35.647   3.148
12820W        W84491   6.765  26.033  11.585
12821W        W84492  38.295  16.608   0.076
12822W        W84493  29.225  14.708   4.557
12823W        W84494  31.152  38.755  14.450
12824W        W84495  35.434  21.077   0.933
12825W        W84496   7.756  19.978   0.026
12826W        W84497   3.095  27.739  12.952
12827W        W84498  41.420  38.879  12.065
12828W        W84499  20.723   2.268  13.874
12829W        W84500  16.881  15.659   1.851
12830W        W84501  39.443  17.470  11.461
12831W        W84502  10.302   1.459   1.888
12832W        W84503   8.712  30.334   3.700
12833W        W84504  20.551   6.024  11.084
12834W        W84505   5.218   5.446   2.374
12835W        W84506  25.042  18.044  10.536
12836W        W84507   1.234  30.394  14.034
12837W        W84508  16.750  30.379   4.844
12838W        W84509  33.538  37.931   1.059
12839W        W84510  36.782  32.073   2.225
12840W        W84511   7.296  19.765  11.634
12841W        W84512  31.582  29.465  14.878
12842W        W84513   3.797  37.802   2.733
12843W        W84514  42.271  35.473  12.789
12844W        W84515  19.752  12.572   1.194
12845W        W84516   7.284  10.762   4.898
12846W        W84517   9.226  28.166  12.827
12847W        W84518  36.322  24.080  14.526
12848W        W84519   9.832  41.024   3.383
12849W        W84520  33.086  34.543  14.686
12850W        W84521  36.608  17.548  11.441
12851W        W84522  10.808  39.239   2.310
12852W        W84523  40.339  12.294   2.598
12853W        W84524   0.687  32.895   0.236
12854W        W84525  16.380  22.652   4.609
12855W        W84526  25.932  38.779  14.329
12856W        W84527  19.867   7.139   0.088
12857W        W84528  21.138  34.237  10.583
12858W        W84529  19.429  41.911   0.457
12859W        W84530  19.039  23.248   1.327
12860W        W84531  28.037   5.876  10.645
12861W        W84532  42.785  37.470  11.192
12862W        W84533   0.540   4.532   0.730
12863W        W84534  16.657  44.661  11.709
12864W        W84535  23.100   5.770   1.703
12865W        W84536   7.175   0.548   0.753
12866W        W84537   0.985  42.720   1.251
12867W        W84538  32.413  21.993  12.726
12868W        W84539   0.859  41.905   0.670
12869W        W84540  20.934  13.908   4.099
12870W        W84541  18.239  20.713   3.864
12871W        W84542  20.558  17.091   2.442
12872W        W84543  16.069  19.603  14.745
12873W        W84544  35.603   3.631   3.202
12874W        W84545  33.309  29.668   2.305
12875W        W84546  37.536  17.079  13.070
12876W        W84547  11.831  28.595   1.858
12877W        W84548   3.132   5.218  12.860
12878W        W84549  42.166   7.079   1.516
12879W        W84550  20.796  28.291   1.892
12880W        W84551  13.124   3.552   1.466
12881W        W84552  20.277  20.134   0.410
12882W        W84553  21.347  44.551   1.689
12883W        W84554  22.171  23.576   3.823
12884W        W84555  19.302  24.243   9.875
12885W        W84556  34.839  21.110   3.234
12886W        W84557  16.789  24.986  14.266
12887W        W84558  20.602  25.086  10.539
12888W        W84559  18.586  25.592   5.756
12889W        W84560  28.936  19.443   3.054
12890W        W84561  32.550  25.777  11.168
12891W        W84562  20.607  18.911  12.953
12892W        W84563   8.330  23.553  13.292
12893W        W84564  24.270   0.820  14.618
12894W        W84565  32.487   4.858   4.527
12895W        W84566  37.033  25.583   0.769
12896W        W84567  11.185  23.547   3.755
12897W        W84568  22.052  23.988  13.772
12898W        W84569   7.310  41.486  13.812
12899W        W84570   3.973   9.218  11.738
12900W        W84571  44.732   4.256  13.293
12901W        W84572  14.863   5.380   2.705
12902W        W84573   1.406  12.937  13.032
12903W        W84574  43.411   4.788   4.669
12904W        W84575   7.202  14.395   2.348
12905W        W84576  36.955  34.409   2.625
12906W        W84577  29.467  27.646  13.971
12907W        W84578  36.413  10.149   3.735
12908W        W84579  15.089   4.184   2.344
12909W        W84580  13.364   3.239  11.598
12910W        W84581  19.303  17.730  14.023
12911W        W84582  43.321  34.882   4.891
12912W        W84583   3.196   9.063   0.339
12913W        W84584  26.929   8.789  10.638
12914W        W84585  16.585  23.823  14.738
12915W        W84586   5.878  14.625   3.185
12916W        W84587  35.140  26.188  13.741
12917W        W84588  30.151  13.752   2.630
12918W        W84589  16.420   7.720  14.176
12919W        W84590  28.011  34.632   4.591
12920W        W84591  28.510  34.602   1.440
12921W        W84592  43.838  22.215   1.797
12922W        W84593  15.673  33.406  11.885
12923W        W84594  32.643  28.444  11.207
12924W        W84595  33.081  31.659   4.281
12925W        W84596   7.270   1.769  13.062
12926W        W84597  11.720  36.339  11.112
12927W        W84598  19.144  18.559  14.548
12928W        W84599  44.301  16.766  10.190
12929W        W84600  31.011   8.646   1.023
12930W        W84601  11.107   6.311  14.226
12931W        W84602  16.885   5.620  12.010
12932W        W84603  31.360  42.902  11.014
12933W        W84604  29.544   7.697   1.817
12934W        W84605   3.320  36.621   3.243
12935W        W84606  12.554  28.128   3.315
12936W        W84607  37.749  13.217  13.132
12937W        W84608   1.314  16.177  12.356
12938W        W84609  21.995  21.218   4.734
12939W        W84610  25.279  40.514   4.786
12940W        W84611  14.921  33.081   4.681
12941W        W84612  29.123  37.936  10.760
12942W        W84613  42.028  40.759  14.755
12943W        W84614  39.866  29.469   4.929
12944W        W84615   3.244  10.624   4.665
12945W        W84616   3.552   8.898   3.941
12946W        W84617  18.118  42.042   5.003
12947W        W84618  44.003  33.389  13.083
12948W        W84619   4.676  18.148   4.594
12949W        W84620  43.271   6.640  14.486
12950W        W84621  21.990  38.061   4.055
12951W        W84622   2.546  34.679   1.733
12952W        W84623  21.591   1.707  10.692
12953W        W84624  18.040   4.783  10.750
12954W        W84625  43.027  10.394  10.613
12955W        W84626  19.664   7.592  14.904
12956W        W84627  44.434  16.299  11.379
12957W        W84628  39.622  13.273  14.787
12958W        W84629  22.116  41.835  13.619
12959W        W84630  41.791  18.409   1.359
12960W        W84631  30.873  10.499   4.929
12961W        W84632  30.150   9.824  13.322
12962W        W84633  31.618  33.446   0.837
12963W        W84634   7.840  11.188  13.573
12964W        W84635  24.953  23.739  12.521
12965W        W84636  28.536  21.044  12.557
12966W        W84637   2.090  28.693  11.178
12967W        W84638   5.369  15.739   2.425
12968W        W84639   5.353  13.398  11.400
12969W        W84640  39.733  16.001  10.999
12970W        W84641  43.786   8.340  13.320
12971W        W84642   5.661  22.498   3.241
12972W        W84643   7.791   4.156   2.450
12973W        W84644  43.928  21.050  10.726
12974W        W84645  29.153   9.267   1.916
12975W        W84646  44.037  40.361   5.021
12976W        W84647  18.556  13.733   1.605
12977W        W84648  22.543  18.723  10.214
12978W        W84649   8.832  13.040   2.840
12979W        W84650  38.069  29.126  11.991
12980W        W84651  26.401  42.257   1.766
12981W        W84652   6.191  10.708   3.178
12982W        W84653  29.401   1.202   4.358
12983W        W84654  38.684   9.593   1.274
12984W        W84655  26.600  15.974  10.963
12985W        W84656  36.614   4.800   2.664
12986W        W84657  28.045  38.991   1.344
12987W        W84658  41.067  11.852   2.021
12988W        W84659  28.177  36.206   4.148
12989W        W84660  12.459  40.176  12.156
12990W        W84661  33.081   8.342   2.211
12991W        W84662  21.030  38.588  10.436
12992W        W84663  30.899  35.056   4.682
12993W        W84664   8.432   8.341  11.658
12994W        W84665  39.074  25.996   1.267
12995W        W84666  39.111   8.724  11.960
12996W        W84667  20.541   7.651   4.180
12997W        W84668  18.763  35.017  10.910
12998W        W84669  21.024  43.694  14.530
12999W        W84670  34.618  21.712  14.807
13000W        W84671  44.885  42.496   2.003
13001W        W84672   9.601  32.541  14.654
13002W        W84673   0.918   9.965   2.182
13003W        W84674  22.087   3.227  12.064
13004W        W84675  15.467  18.113  11.991
13005W        W84676  35.582  35.860   0.977
13006W        W84677  24.487   6.852   2.339
13007W        W84678  28.723  38.424   3.675
13008W        W84679  32.223  37.403   4.105
13009W        W84680  28.719  19.183  13.873
13010W        W84681  37.339  13.357  11.440
13011W        W84682  41.238  15.747   4.226
13012W        W84683  23.559  22.764  12.845
13013W        W84684  33.045  27.942  13.604
13014W        W84685  28.915  16.254  11.552
13015W        W84686  15.324  30.055   0.378
13016W        W84687  31.035  15.362   1.631
13017W        W84688  17.210  29.070   2.740
13018W        W84689  11.407  37.152  13.086
13019W        W84690   2.227   0.251   1.794
13020W        W84691  15.187  12.654  11.348
13021W        W84692  43.914  16.688   0.444
13022W        W84693   0.250  11.432  13.415
13023W        W84694  27.699  13.334   4.718
13024W        W84695   8.493   3.421   1.278
13025W        W84696  23.110  15.626   3.274
13026W        W84697  13.423   6.944  12.087
13027W        W84698  17.077  40.577  14.383
13028W        W84699  14.824  11.948  13.855
13029W        W84700  35.359  22.137  13.485
13030W        W84701   1.476  27.575   3.192
13031W        W84702  37.020  34.446   0.988
13032W        W84703  23.478  29.430   2.610
13033W        W84704  29.879  29.395   0.303
13034W        W84705  38.027  27.370   2.961
13035W        W84706  12.272   6.913   1.686
13036W        W84707  30.828   9.682   0.402
13037W        W84708  37.896  19.152  10.482
13038W        W84709  25.194  19.680   3.698
13039W        W84710   9.648  15.282  13.542
13040W        W84711  14.122  32.437   0.312
13041W        W84712  35.512  21.687   1.776
13042W        W84713  36.546  19.027  14.346
13043W        W84714   3.345   4.807   2.370
13044W        W84715  32.173  28.599   1.359
13045W        W84716  12.734  38.565  12.526
13046W        W84717  17.419   6.850   4.986
13047W        W84718  21.544   2.902   0.096
13048W        W84719  39.063  30.896  13.558
13049W        W84720  12.050  21.034  11.939
13050W        W84721  18.151  31.953  14.469
13051W        W84722  42.864  23.680   2.434
13052W        W84723   4.905  15.104   2.266
13053W        W84724  10.799   9.906   4.314
13054W        W84725  22.538  32.414  12.113
13055W        W84726  31.358  43.022   2.865
13056W        W84727   9.224  29.906   1.771
13057W        W84728  39.502  13.312  10.669
13058W        W84729  30.589  42.245   1.117
13059W        W84730   5.458  18.749  10.556
13060W        W84731  28.495  13.799   4.866
13061W        W84732   3.889  16.656  14.275
13062W        W84733  28.753  26.523  11.085
13063W        W84734  22.208   6.202  11.077
13064W        W84735   4.391  23.572   3.226
13065W        W84736   7.347  41.617  11.186
13066W        W84737  13.454   0.956   0.752
13067W        W84738  33.811  23.248  13.438
13068W        W84739  15.928  37.050   1.470
13069W        W84740   1.470  15.409   3.299
13070W        W84741  24.968  15.441  12.383
13071W        W84742   3.856  38.152   0.948
13072W        W84743  24.637  29.912  14.315
13073W        W84744   1.377  35.889   3.615
13074W        W84745   6.766  31.432   3.817
13075W        W84746  23.511  24.766  11.861
13076W        W84747  10.534  40.980   2.020
13077W        W84748  31.054   2.652  14.862
13078W        W84749  33.570  40.054   1.918
13079W        W84750  32.833  37.950  14.661
13080W        W84751  21.027  39.998   0.231
13081W        W84752  12.651  38.432   3.315
13082W        W84753  22.925  38.527   0.733
13083W        W84754  30.243  22.360   0.281
13084W        W84755  16.327  22.658  13.510
13085W        W84756   1.012  17.639  14.475
13086W        W84757  36.959  36.159  12.470
13087W        W84758  16.236  21.612   2.740
13088W        W84759  38.044   5.982   4.773
13089W        W84760  23.608   3.754   1.852
13090W        W84761  15.707  27.532  10.434
13091W        W84762  22.092  38.307   0.399
13092W        W84763  28.621  10.355   5.040
13093W        W84764   6.043   8.453  14.588
13094W        W84765  30.375  32.853  11.551
13095W        W84766  34.352  18.528   3.689
13096W        W84767   7.345  40.238   2.625
13097W        W84768   6.812  20.590   4.741
13098W        W84769  34.454  21.271   2.299
13099W        W84770  36.607   4.307   0.401
13100W        W84771  13.161  43.913  14.067
13101W        W84772  40.343  24.214  13.313
13102W        W84773  22.705   7.885  12.167
13103W        W84774  32.836  27.133   3.611
13104W        W84775  29.430   9.210   2.360
13105W        W84776  21.085  36.054  11.199
13106W        W84777  21.677  36.120   3.971
13107W        W84778  11.829  31.170   3.828
13108W        W84779  15.484  11.399   1.368
13109W        W84780   3.446  25.079  10.682
13110W        W84781  28.087   9.466   0.811
13111W        W84782  33.174   1.318  12.649
13112W        W84783  18.607  18.074   0.376
13113W        W84784  32.470  35.899   5.026
13114W        W84785  40.270   2.804   3.927
13115W        W84786  36.937  32.125   3.893
13116W        W84787  28.037  14.892  12.040
13117W        W84788  17.330  42.471   0.737
13118W        W84789  22.199  32.924  11.425
13119W        W84790  31.892   4.902   1.272
13120W        W84791  24.788   3.881  14.355
13121W        W84792   5.445  42.963   0.857
13122W        W84793  23.250  18.789  13.308
13123W        W84794  14.682  43.764  12.943
13124W        W84795  32.886   2.959   4.590
13125W        W84796  40.220  29.475   3.084
13126W        W84797  13.345  43.314   2.392
13127W        W84798  33.508  36.031   2.874
13128W        W84799  36.489  15.093  12.296
13129W        W84800  13.906  43.846   4.283
13130W        W84801  21.047  32.926  13.487
13131W        W84802   0.797  14.115   3.198
13132W        W84803  41.594   1.874   3.732
13133W        W84804   5.705  39.308  11.981
13134W        W84805  36.535   9.778  14.924
13135W        W84806  13.168  31.074   4.090
13136W        W84807  23.263  29.289   4.021
13137W        W84808  27.092  21.179   3.302
13138W        W84809  37.361  13.194   0.469
13139W        W84810   6.227  23.570   0.168
13140W        W84811  30.072  32.530   3.091
13141W        W84812  17.812  27.860   1.344
13142W        W84813  22.915  37.965   2.034
13143W        W84814  30.041  12.235  14.939
13144W        W84815  27.453   5.609  11.902
13145W        W84816  41.417  38.994   2.741
13146W        W84817  31.566  20.018   4.043
13147W        W84818  43.564   0.322   4.529
13148W        W84819  12.614  43.039  14.589
13149W        W84820  19.495   6.592  11.472
13150W        W84821  38.975  44.539   0.877
13151W        W84822  32.209  21.022  11.960
13152W        W84823  41.978   5.769  12.497
13153W        W84824  39.792  22.270  13.094
13154W        W84825  21.232  16.143  12.929
13155W        W84826  22.048  16.597   1.216
13156W        W84827  20.139  21.666  14.267
13157W        W84828  13.548  16.869  14.540
13158W        W84829   5.287   5.692  10.698
13159W        W84830  24.872  44.643  14.797
13160W        W84831   6.384  17.552   1.813
13161W        W84832  21.000  16.201  13.391
13162W        W84833  18.809  38.554   0.992
13163W        W84834  36.006  10.196   3.430
13164W        W84835  35.101  28.590  14.414
13165W        W84836  31.699   7.211   3.714
13166W        W84837  29.414  44.941   3.359
13167W        W84838   3.290  30.498   4.764
13168W        W84839  16.692  36.951  12.999
13169W        W84840   0.400  36.919   4.622
13170W        W84841  20.621  12.676  10.824
13171W        W84842  10.736   3.277  14.127
13172W        W84843  13.505   7.430   2.412
13173W        W84844  26.885  15.673  10.669
13174W        W84845  26.572  32.354  12.614
13175W        W84846  26.005  14.022   1.874
13176W        W84847   8.945   3.715   3.160
13177W        W84848  26.142  42.980  14.223
13178W        W84849   0.743  17.397   1.737
13179W        W84850  44.036  23.626  14.908
13180W        W84851  36.234   7.096  10.415
13181W        W84852  39.322  26.434  12.779
13182W        W84853  34.905  43.507  13.563
13183W        W84854   2.108   3.306   1.746
13184W        W84855   8.755   6.161   2.065
13185W        W84856   1.767   6.264   0.750
13186W        W84857  39.343   6.756  13.928
13187W        W84858  14.219  18.737  12.053
13188W        W84859  36.216  39.612   0.258
13189W        W84860  29.188  43.280  10.678
13190W        W84861  26.614  22.246  14.177
13191W        W84862  25.446   7.452   5.027
13192W        W84863   6.464  42.552   0.856
13193W        W84864  20.649  38.856  12.113
13194W        W84865  19.867   6.776  12.110
13195W        W84866   7.413  15.070  11.704
13196W        W84867  22.360   5.913   4.969
13197W        W84868  33.792  23.512  12.214
13198W        W84869  15.166   2.496  14.563
13199W        W84870  38.321  26.541  12.703
13200W        W84871  32.670  30.385   1.534
13201W        W84872  15.286  43.264   3.379
13202W        W84873  24.401  37.164  12.745
13203W        W84874  12.202   5.341  11.073
13204W        W84875  36.873   4.722   2.198
13205W        W84876  39.796  41.984   2.450
13206W        W84877  41.044  25.028  14.052
13207W        W84878  31.198  26.194  13.649
13208W        W84879  37.094   4.877   3.555
13209W        W84880  40.334   8.914  13.242
13210W        W84881   3.022  31.568  10.505
13211W        W84882  26.516  14.652  14.484
13212W        W84883   7.816  22.554  11.930
13213W        W84884  41.563   4.805  12.531
13214W        W84885   5.437  38.892  12.040
13215W        W84886  42.101   8.789   0.283
13216W        W84887  31.173  35.922   2.777
13217W        W84888  23.468  29.579  12.078
13218W        W84889  13.162  34.055   2.763
13219W        W84890  10.568  24.512  13.842
13220W        W84891  14.239  42.691   2.353
13221W        W84892  10.138   6.512   5.078
13222W        W84893  36.912  15.122   2.553
13223W        W84894  38.137  20.539   2.269
13224W        W84895  31.429   7.098  11.215
13225W        W84896  31.249  41.500  12.138
13226W        W84897   6.250   4.814   2.077
13227W        W84898  29.376  33.410   1.155
13228W        W84899   7.110  25.034   1.884
13229W        W84900  35.201  25.707  13.504
13230W        W84901  12.438  14.891   2.202
13231W        W84902  16.303  17.099  13.343
13232W        W84903  35.208  27.650   4.581
13233W        W84904  34.618  26.965  13.490
13234W        W84905  22.870  25.630  10.213
13235W        W84906  13.865   8.051   1.790
13236W        W84907  35.338  16.281   1.356
13237W        W84908  44.417  11.308   3.125
13238W        W84909   7.630  40.377   3.385
13239W        W84910  44.453   0.460   2.806
13240W        W84911  31.955  34.513  12.955
13241W        W84912   3.870  15.022  13.814
13242W        W84913  40.831  35.829   3.306
13243W        W84914  39.424  37.523  10.696
13244W        W84915   4.233  44.582   0.054
13245W        W84916  40.002  20.865   1.183
13246W        W84917  15.067  29.637  10.876
13247W        W84918  14.071   6.798  10.963
13248W        W84919  14.436  36.124   0.304
13249W        W84920   8.250   7.846   2.775
13250W        W84921   6.838  37.637  11.157
13251W        W84922   6.212  37.653   3.456
13252W        W84923  25.193   8.410  10.547
13253W        W84924   3.444  28.193   3.966
13254W        W84925   2.695   7.581   1.427
13255W        W84926  22.581   8.558   0.230
13256W        W84927  15.112  14.387  10.587
13257W        W84928  21.562  33.947  13.029
13258W        W84929  31.349  32.890   2.864
13259W        W84930  32.901  35.068  12.039
13260W        W84931  29.481  12.671  10.980
13261W        W84932  36.081  16.719  10.868
13262W        W84933  34.057   4.529   3.737
13263W        W84934  33.002   8.234   0.380
13264W        W84935  41.450  34.894   0.836
13265W        W84936  31.150  16.858  11.148
13266W        W84937  37.973  10.452   4.636
13267W        W84938  31.016  13.639   2.642
13268W        W84939  37.443  20.338  11.901
13269W        W84940   9.282   9.293   0.320
13270W        W84941  18.582  23.042   0.128
13271W        W84942  35.645  13.882   2.186
13272W        W84943  19.019  18.191   2.746
13273W        W84944  21.513  29.636   4.126
13274W        W84945  44.889  14.514   9.789
13275W        W84946  22.040  24.109   3.777
13276W        W84947   4.368   8.267  13.909
13277W        W84948   1.422  25.130  10.899
13278W        W84949  32.643  13.537  14.302
13279W        W84950  12.492  21.732  13.428
13280W        W84951  19.176  15.550  14.435
13281W        W84952  11.218   3.269  13.937
13282W        W84953  27.028  13.338  14.360
13283W        W84954  11.451  29.604  13.366
13284W        W84955   3.068  16.629   3.623
13285W        W84956  29.023  25.627  14.348
13286W        W84957  16.208  41.844   2.763
13287W        W84958  41.526  10.326  10.543
13288W        W84959  33.629  26.130  14.304
13289W        W84960  19.622  40.592   2.372
13290W        W84961   1.906   6.732  14.224
13291W        W84962   3.958  13.707  10.385
13292W        W84963  18.090   0.368  13.954
13293W        W84964   1.125  43.374   3.239
13294W        W84965  28.782  40.025  13.539
13295W        W84966   5.046  43.569  14.481
13296W        W84967  31.607  42.611   4.146
13297W        W84968  38.493  32.503   2.360
13298W        W84969   8.422   7.269  10.986
13299W        W84970  39.081   7.871   3.552
13300W        W84971  17.636   4.860   2.373
13301W        W84972   4.797  35.527   3.736
13302W        W84973   2.092  31.814  12.224
13303W        W84974  23.720  25.661  11.291
13304W        W84975  21.834  15.774   4.165
13305W        W84976  28.057  16.397   4.142
13306W        W84977  18.267  37.665  14.733
13307W        W84978  24.784   2.275   4.481
13308W        W84979  40.183   1.539   0.397
13309W        W84980  14.245  12.291  14.762
13310W        W84981  27.467  11.097  13.255
13311W        W84982   5.267  37.543   1.826
13312W        W84983   1.048   0.734  12.883
13313W        W84984  29.421  42.920   0.851
13314W        W84985  21.177   3.411  12.037
13315W        W84986  17.166   7.615   3.175
13316W        W84987   6.705   0.274   0.675
13317W        W84988  42.200  14.391  11.090
13318W        W84989  41.510  40.505   2.826
13319W        W84990  39.454  37.039  12.560
13320W        W84991  27.386  15.698  10.656
13321W        W84992   8.742  10.236  13.282
13322W        W84993  22.321  35.575   1.953
13323W        W84994  16.595  32.872   1.780
13324W        W84995  28.810  40.904   3.808
13325W        W84996  15.059  13.238   2.593
13326W        W84997  24.863  19.297  13.296
13327W        W84998  44.008  30.099  12.285
13328W        W84999  16.270   7.014  14.851
13329W        W85000  34.388  27.525  10.616
13330W        W85001  27.657  43.890  10.990
13331W        W85002  26.841  40.935   1.198
13332W        W85003  30.394  13.864  11.551
13333W        W85004   9.620  32.946   3.523
13334W        W85005  42.264   3.238  11.635
13335W        W85006  42.997   8.813   1.982
13336W        W85007  44.957  14.264  13.597
13337W        W85008  28.751  25.632  11.615
13338W        W85009  22.121  32.863   1.482
13339W        W85010  15.884  24.358  12.026
13340W        W85011  11.131  44.312   1.402
13341W        W85012   1.233  22.604  13.315
13342W        W85013  14.288   0.351   1.610
13343W        W85014  31.264  42.530   0.964
13344W        W85015  25.720  40.258   3.284
13345W        W85016  20.050  38.421  13.811
13346W        W85017  30.034  40.948   2.434
13347W        W85018   8.124  12.169   3.738
13348W        W85019   3.627  10.066   4.207
13349W        W85020  23.750  13.357  13.547
13350W        W85021   8.833  20.912   2.272
13351W        W85022   4.355  15.838   0.365
13352W        W85023   6.790  20.081   2.804
13353W        W85024  35.549  40.549  11.738
13354W        W85025  37.136  32.880   4.125
13355W        W85026   8.367   5.326  13.032
13356W        W85027   9.666   4.207  12.515
13357W        W85028  42.726  40.326  14.348
13358W        W85029   7.799  16.545   3.271
13359W        W85030  43.863  33.629   0.833
13360W        W85031  28.443  12.766  10.834
13361W        W85032  17.065  13.409   0.844
13362W        W85033   9.165  41.422  11.589
13363W        W85034  16.786  16.305   0.237
13364W        W85035  18.237  27.861  14.941
13365W        W85036  35.008   5.977  14.966
13366W        W85037  34.040  39.094   3.335
13367W        W85038  43.577  35.540   0.929
13368W        W85039  31.885   8.377   0.819
13369W        W85040   1.377   6.142   1.100
13370W        W85041   2.186   8.704   1.195
13371W        W85042   7.673   7.848   3.775
13372W        W85043  18.855   8.221   0.491
13373W        W85044  28.232  18.720  11.722
13374W        W85045   8.362  38.637  12.088
13375W        W85046  37.808   0.998  11.086
13376W        W85047   6.697   8.253  14.949
13377W        W85048  31.827  35.734   4.310
13378W        W85049  42.263  37.011   1.847
13379W        W85050  42.029  23.296   0.342
13380W        W85051  18.528  28.921   2.207
13381W        W85052  36.328  32.414  14.403
13382W        W85053  32.453   4.044  12.391
13383W        W85054  11.152  30.923  11.627
13384W        W85055  24.057  25.214   2.749
13385W        W85056  42.498  42.973  11.095
13386W        W85057   8.154  17.534   3.202
13387W        W85058  15.350  14.800  13.458
13388W        W85059  35.965  24.619   3.224
13389W        W85060  14.831  44.856  11.138
13390W        W85061  13.525  10.663  13.503
13391W        W85062  30.977  17.665  13.360
13392W        W85063  18.832  20.782   1.345
13393W        W85064  15.723  26.117  12.036
13394W        W85065  36.920  23.028   3.227
13395W        W85066   3.223  32.060  10.517
13396W        W85067  38.064  10.720   3.401
13397W        W85068  32.032  36.116   4.607
13398W        W85069  21.638  24.346   0.368
13399W        W85070  40.805  24.606   1.223
13400W        W85071  22.034  44.907  10.541
13401W        W85072   8.154   3.771   0.493
13402W        W85073  41.418  43.352   1.819
13403W        W85074  44.800   7.182  12.520
13404W        W85075  44.945  42.762  11.643
13405W        W85076  17.337   3.156  10.472
13406W        W85077   8.858  41.063   1.139
13407W        W85078  17.717  20.713  13.898
13408W        W85079  28.550  15.678  12.633
13409W        W85080  28.258  23.710   3.217
13410W        W85081   6.734   3.486   3.707
13411W        W85082  22.831  16.688   9.987
13412W        W85083  38.903   5.223  13.092
13413W        W85084  24.070   7.040   4.998
13414W        W85085   0.502  35.451  13.924
13415W        W85086  11.454   8.600  10.710
13416W        W85087  38.402  12.429  13.942
13417W        W85088  20.564   0.511  14.369
13418W        W85089  35.561  32.026   4.585
13419W        W85090  28.143  17.711  13.899
13420W        W85091  30.145  34.117   1.370
13421W        W85092  38.494  10.326   4.714
13422W        W85093  44.288  44.291   1.205
13423W        W85094  42.290   2.245  13.676
13424W        W85095  30.562   6.778   1.381
13425W        W85096  38.122  24.049   2.203
13426W        W85097   3.881  25.119   3.656
13427W        W85098  37.238   0.635   3.198
13428W        W85099  33.935   9.302   2.654
13429W        W85100   1.071  35.916   5.037
13430W        W85101  10.219  18.757   1.710
13431W        W85102  25.997   9.240   5.643
13432W        W85103  10.788  24.193   2.295
13433W        W85104  20.344  13.863  11.851
13434W        W85105  13.067  40.500  10.726
13435W        W85106  15.168  41.555   1.275
13436W        W85107  42.742  38.879   1.258
13437W        W85108  11.304  16.385   3.271
13438W        W85109   1.406   7.501   3.845
13439W        W85110  26.116   5.988   2.810
13440W        W85111   9.779  13.380   4.959
13441W        W85112   6.476  21.518   1.302
13442W        W85113  36.450  12.847  12.977
13443W        W85114  36.651  15.353   3.358
13444W        W85115  26.540   3.598   2.364
13445W        W85116  23.285  44.891   1.887
13446W        W85117  27.394   9.330   1.221
13447W        W85118  32.717  31.512  13.459
13448W        W85119   0.599  25.754  12.857
13449W        W85120  10.646  12.267   3.850
13450W        W85121  15.698   4.891   4.215
13451W        W85122   6.370  17.007   1.817
13452W        W85123   0.758  19.043   3.881
13453W        W85124  30.029  20.996  12.638
13454W        W85125   6.863   3.443  10.610
13455W        W85126   9.171  19.828   3.183
13456W        W85127  35.419  17.734   2.579
13457W        W85128  25.455   1.885  13.673
13458W        W85129  42.307  44.747   2.174
13459W        W85130  25.033   2.773   4.562
13460W        W85131  20.788  17.255  10.836
13461W        W85132  37.015  34.295   4.063
13462W        W85133  25.808  27.858  13.662
13463W        W85134  23.193  14.146   0.386
13464W        W85135  29.770  35.034  13.121
13465W        W85136  32.512   9.283   1.258
13466W        W85137   7.093   4.352   4.074
13467W        W85138  33.797  26.134   3.469
13468W        W85139  31.292  31.733  11.639
13469W        W85140   0.743   6.574   2.393
13470W        W85141  16.131  39.968   2.623
13471W        W85142  16.110  18.705   0.218
13472W        W85143   7.208   6.265   0.477
13473W        W85144   5.711   9.489   0.408
13474W        W85145  13.655   9.648   3.196
13475W        W85146  13.080  20.354  14.961
13476W        W85147   9.347  33.521   0.748
13477W        W85148  31.018  20.216  11.146
13478W        W85149  30.859  36.420  12.486
13479W        W85150   2.418  34.625  11.607
13480W        W85151   3.870  19.081  12.912
13481W        W85152  21.674  28.347  10.146
13482W        W85153  12.239  20.677   4.944
13483W        W85154  44.612  32.501  11.967
13484W        W85155  22.803  27.455   1.948
13485W        W85156  38.813  27.492   0.329
13486W        W85157   0.143  12.371   3.758
13487W        W85158   2.823   2.258  13.476
13488W        W85159  26.187  21.779  13.966
13489W        W85160  12.652  26.112   5.016
13490W        W85161   6.345  38.849   2.801
13491W        W85162  37.025  38.712  14.322
13492W        W85163  38.379  37.482   1.951
13493W        W85164  44.800  24.680   4.537
13494W        W85165  38.402  34.449  14.479
13495W        W85166  29.124  23.634   1.833
13496W        W85167   1.321  44.667   1.779
13497W        W85168   3.805  33.896  13.547
13498W        W85169  21.854  25.784   4.611
13499W        W85170  29.224  20.571  13.012
13500W        W85171  10.702  14.349   3.813
13501W        W85172  35.281  18.506  14.431
13502W        W85173  21.630  19.296   4.219
13503W        W85174  16.753  23.203  11.165
13504W        W85175  40.493  36.694  12.001
13505W        W85176  33.024   8.724   4.561
13506W        W85177  38.905  17.457  12.045
13507W        W85178  19.546  33.799  14.355
13508W        W85179  36.267  38.624  10.270
13509W        W85180  21.030  24.963  13.284
13510W        W85181  37.448  38.514   1.175
13511W        W85182  23.535  12.803   0.854
13512W        W85183   5.938  26.591   1.374
13513W        W85184  29.600  25.966  11.967
13514W        W85185  15.317  36.466   2.703
13515W        W85186  31.439  36.976   3.723
13516W        W85187  16.066  38.374  11.184
13517W        W85188  24.558  36.067  14.278
13518W        W85189  30.373  32.897   1.877
13519W        W85190  18.459  35.417  11.579
13520W        W85191  26.101  41.278   2.592
13521W        W85192  42.418  29.381   2.680
13522W        W85193  41.085  39.328  10.469
13523W        W85194   9.207   5.474   3.164
13524W        W85195  33.941  34.764  12.457
13525W        W85196   2.064  31.895   3.244
13526W        W85197   9.357  36.550  14.770
13527W        W85198  20.180  41.619   0.774
13528W        W85199  29.034  16.155   4.613
13529W        W85200  17.282  15.541   0.349
13530W        W85201   6.299  35.132  13.571
13531W        W85202  39.553  44.035   2.934
13532W        W85203  22.069  39.434   1.689
13533W        W85204  39.846  31.565  11.957
13534W        W85205  27.648   3.956  14.752
13535W        W85206  32.866  38.554  11.059
13536W        W85207   6.754   0.530  11.449
13537W        W85208  27.246  27.715   4.182
13538W        W85209  34.999  32.193  14.380
13539W        W85210  39.670  24.937  13.939
13540W        W85211  22.988  41.405   5.334
13541W        W85212  10.406  36.361  13.291
13542W        W85213  25.729  24.679   0.300
13543W        W85214  18.566  12.769   0.982
13544W        W85215  23.089  23.719  14.375
13545W        W85216  19.271  28.953   0.301
13546W        W85217  25.093   6.884  10.699
13547W        W85218  38.955  31.977   0.645
13548W        W85219  39.830   9.282  13.907
13549W        W85220  22.866  24.849   4.752
13550W        W85221  22.138  30.761   4.195
13551W        W85222   6.339  39.334  14.055
13552W        W85223  35.879  19.009   2.810
13553W        W85224   4.893  33.460  14.671
13554W        W85225  18.739  32.432   4.884
13555W        W85226  26.849  13.515  12.473
13556W        W85227   8.654   0.362  11.124
13557W        W85228   7.556  15.260   4.739
13558W        W85229   7.722  10.930   0.043
13559W        W85230  12.789  18.817   2.883
13560W        W85231   9.289   0.456   0.000
13561W        W85232   1.451  16.165   1.500
13562W        W85233  33.511  12.440   0.788
13563W        W85234  14.845  10.832   0.333
13564W        W85235  35.580  36.551   4.568
13565W        W85236  19.822  18.097  11.053
13566W        W85237  19.942  33.703  11.148
13567W        W85238  28.595  28.520   2.369
13568W        W85239  20.175  20.670   3.658
13569W        W85240   2.411  41.282  14.194
13570W        W85241  11.720   6.585   4.229
13571W        W85242  41.076   5.082   2.248
13572W        W85243  25.802  28.898  14.703
13573W        W85244  22.945  26.433  12.952
13574W        W85245  36.498  13.155  14.900
13575W        W85246  32.078  32.089  13.185
13576W        W85247   9.115  25.684   4.234
13577W        W85248  22.941  21.024   2.723
13578W        W85249  30.641  35.309   3.915
13579W        W85250  39.331  24.775   2.865
13580W        W85251  11.961  16.207   3.951
13581W        W85252  38.836  19.427  14.296
13582W        W85253   8.284  22.876   1.048
13583W        W85254  21.148  41.449   0.493
13584W        W85255  32.551   2.491   2.346
13585W        W85256  44.057  28.293   4.072
13586W        W85257  12.058  13.162  12.423
13587W        W85258  21.655  10.326  11.901
13588W        W85259  16.260  31.008   1.626
13589W        W85260  39.886  17.548   3.085
13590W        W85261  17.400  18.785  13.961
13591W        W85262  41.126  33.500   1.371
13592W        W85263  25.981  32.421   1.229
13593W        W85264   4.847  19.851  11.080
13594W        W85265  30.954   0.949   0.825
13595W        W85266   6.467  29.835   1.396
13596W        W85267  27.091   3.974  10.698
13597W        W85268  17.491  10.417  11.053
13598W        W85269  31.601  41.715  14.817
13599W        W85270  27.831  30.893   2.810
13600W        W85271  18.309   2.110  10.677
13601W        W85272  37.923   1.505  11.093
13602W        W85273   6.292  23.112   3.577
13603W        W85274  10.142  22.459   1.211
13604W        W85275  24.174  30.127  13.123
13605W        W85276  16.356  40.434   0.415
13606W        W85277  17.249  29.608   2.277
13607W        W85278  25.530  20.917   0.148
13608W        W85279  15.575  29.867   3.664
13609W        W85280  22.992  10.818   4.104
13610W        W85281  20.300  41.583  10.700
13611W        W85282  44.978   3.327   2.239
13612W        W85283  19.708   6.173  13.446
13613W        W85284  32.139  39.458  12.418
13614W        W85285  32.523  38.237   2.855
13615W        W85286  37.905  35.954   3.358
13616W        W85287   0.606  16.245  14.633
13617W        W85288  36.570  42.269  14.796
13618W        W85289  26.080  34.554  14.830
13619W        W85290   9.805   4.379   1.823
13620W        W85291   9.124  15.501  11.445
13621W        W85292  30.656  27.130   0.855
13622W        W85293  12.716  11.703  13.426
13623W        W85294   0.126  23.091  11.188
13624W        W85295   8.351  31.677   4.833
13625W        W85296  12.174   8.846   2.830
13626W        W85297  16.374  11.215  10.724
13627W        W85298  31.373  30.057  14.996
13628W        W85299  26.112   9.570   4.160
13629W        W85300  16.280  41.478   3.722
13630W        W85301  43.531  17.136   2.581
13631W        W85302  19.793  33.213  11.265
13632W        W85303   1.924  20.971   3.639
13633W        W85304  10.336   7.164   0.319
13634W        W85305  25.625  30.477  10.790
13635W        W85306  17.130  13.171  11.634
13636W        W85307  16.292  30.356   3.209
13637W        W85308  12.316  17.427   2.203
13638W        W85309  34.457  36.695  14.871
13639W        W85310  10.074  28.160   1.819
13640W        W85311   8.189  17.153  14.526
13641W        W85312  32.063  33.219   5.084
13642W        W85313  38.457   6.068   1.510
13643W        W85314  12.619  41.747  11.125
13644W        W85315   1.812   6.846  10.719
13645W        W85316  14.500   0.944   4.720
13646W        W85317  21.091  30.593   1.961
13647W        W85318   5.934   0.876  11.154
13648W        W85319  31.891  27.159  10.561
13649W        W85320  42.044  14.715   4.526
13650W        W85321  19.067   9.028  12.108
13651W        W85322  31.931  15.904   1.477
13652W        W85323  38.170  42.298  11.597
13653W        W85324  43.600  27.513   3.156
13654W        W85325  41.308  43.856   3.167
13655W        W85326  20.543  25.125  12.545
13656W        W85327  20.716  38.504  11.156
13657W        W85328  22.606  19.828  11.599
13658W        W85329   3.267  33.071   2.691
13659W        W85330  20.861  30.536  12.570
13660W        W85331  31.865   1.137  11.669
13661W        W85332   0.647  37.989  14.285
13662W        W85333  15.970  23.584   4.151
13663W        W85334   2.999   7.824  12.267
13664W        W85335   4.482  12.808  10.286
13665W        W85336  24.742  28.882  13.158
13666W        W85337  43.557  34.469   3.632
13667W        W85338  28.013  40.910  11.981
13668W        W85339  43.167  36.578   0.192
13669W        W85340   2.441  33.508   0.851
13670W        W85341  15.646   0.232   1.500
13671W        W85342  34.325  42.999  11.025
13672W        W85343   2.685  31.749  13.027
13673W        W85344  28.099  35.551   4.454
13674W        W85345  24.597  15.857  10.633
13675W        W85346  19.007  25.682  12.920
13676W        W85347  36.046  21.600   3.866
13677W        W85348  32.134  41.147  12.449
13678W        W85349   2.869  35.950  10.836
13679W        W85350  26.960  42.443  13.606
13680W        W85351  26.819  20.223  13.842
13681W        W85352  21.078  27.874  14.350
13682W        W85353  31.595   6.407   0.846
13683W        W85354  14.118   8.224  12.416
13684W        W85355   4.296  30.648   4.868
13685W        W85356  16.134  43.353   3.109
13686W        W85357  38.474  43.973  14.519
13687W        W85358  33.798  42.854   1.812
13688W        W85359  15.760  25.686  14.683
13689W        W85360  40.939  43.751  11.003
13690W        W85361  10.267  35.951   3.597
13691W        W85362  28.204   5.857  14.107
13692W        W85363   4.590  35.886  12.222
13693W        W85364  39.821  29.252   0.223
13694W        W85365  33.197  25.152  14.331
13695W        W85366   3.458  27.006  13.483
13696W        W85367  36.243  10.313  11.221
13697W        W85368  23.628  31.125  12.750
13698W        W85369  41.495  22.158   1.761
13699W        W85370  42.342  11.971  13.561
13700W        W85371  22.511  29.249   1.306
13701W        W85372  41.243   2.406   2.626
13702W        W85373  30.903  36.886  12.252
13703W        W85374  36.511  10.186   0.764
13704W        W85375  20.608  44.817   3.808
13705W        W85376  32.627  24.762  12.509
13706W        W85377  21.275   8.229   3.137
13707W        W85378  34.131  34.419   4.839
13708W        W85379  15.048  11.722  13.427
13709W        W85380  33.140  37.747   0.016
13710W        W85381  22.957   0.592  13.855
13711W        W85382  10.689  43.606   2.388
13712W        W85383  12.291  43.744  13.074
13713W        W85384  11.310  16.627  13.275
13714W        W85385   0.541  21.974   1.437
13715W        W85386  10.185  34.793  13.168
13716W        W85387  36.355  28.732   2.811
13717W        W85388  14.371  38.211  11.852
13718W        W85389  44.234  43.162   4.991
13719W        W85390  24.034   3.250  10.273
13720W        W85391  19.696  21.450  11.501
13721W        W85392  18.769  23.332   4.645
13722W        W85393   5.850  39.468   1.106
13723W        W85394  25.562  39.115   1.353
13724W        W85395  28.828  35.825   2.802
13725W        W85396  34.151   2.244  14.282
13726W        W85397  32.955  30.624   4.776
13727W        W85398   8.572  30.192   3.210
13728W        W85399   9.170  23.978   1.254
13729W        W85400  41.551   5.927  13.896
13730W        W85401  37.430   7.862  11.117
13731W        W85402  40.954   9.684   0.083
13732W        W85403  40.985  30.077   1.335
13733W        W85404   1.733  33.326  13.285
13734W        W85405  17.782  17.349  11.584
13735W        W85406  28.701  10.375   2.090
13736W        W85407   0.057  29.597  12.866
13737W        W85408  42.728  18.187  12.571
13738W        W85409  16.090  17.053   0.484
13739W        W85410  13.260   9.242  12.673
13740W        W85411  13.337  25.251   3.261
13741W        W85412  44.628  32.333   5.003
13742W        W85413  20.647  38.080  13.440
13743W        W85414  11.015   9.329   1.754
13744W        W85415   3.440  13.390   1.263
13745W        W85416  13.814  31.524  13.962
13746W        W85417   9.611  13.672   2.646
13747W        W85418   6.747   9.222  11.565
13748W        W85419  32.483  44.991   1.907
13749W        W85420  37.913  42.310   1.293
13750W        W85421   1.977  25.288   0.900
13751W        W85422  12.785  29.509  11.945
13752W        W85423  39.064  17.093  11.093
13753W        W85424  44.433   6.186  11.182
13754W        W85425  35.168  30.965   0.229
13755W        W85426  18.048  11.112  13.722
13756W        W85427  36.028  24.115   1.347
13757W        W85428  27.103  26.546   1.940
13758W        W85429   6.691   1.289  12.539
13759W        W85430  26.992  10.183   1.960
13760W        W85431  16.600  19.049   1.325
13761W        W85432  28.154  14.238  13.580
13762W        W85433  25.807   0.506  11.551
13763W        W85434  23.034  42.512  12.845
13764W        W85435  31.365   1.442  14.479
13765W        W85436  17.598  34.680   2.842
13766W        W85437  29.328   2.767  12.423
13767W        W85438   1.337   7.721  11.017
13768W        W85439  43.977  40.673   3.690
13769W        W85440  25.103  43.317   3.594
13770W        W85441  36.776   9.180   2.422
13771W        W85442  35.980  26.477   4.408
13772W        W85443  29.662  42.735   1.269
13773W        W85444  29.638  30.124   1.727
13774W        W85445  23.549  22.167   3.427
13775W        W85446   6.804  39.002   4.250
13776W        W85447  35.462  31.426  12.985
13777W        W85448  39.163  28.666  14.933
13778W        W85449  18.275  30.805   4.357
13779W        W85450   6.866  21.104   4.721
13780W        W85451  27.224  22.780   4.631
13781W        W85452   0.965  44.804   0.433
13782W        W85453  19.538   2.023   0.727
13783W        W85454  42.737  40.101   3.199
13784W        W85455  11.723  32.109  12.815
13785W        W85456  25.553  13.360   0.709
13786W        W85457  13.189   9.279   4.316
13787W        W85458  21.681  31.819  13.794
13788W        W85459  19.978  14.477   0.395
13789W        W85460   7.329  33.011  14.885
13790W        W85461  14.479  37.187   4.603
13791W        W85462   4.293  18.110  11.102
13792W        W85463  39.601  18.767  11.251
13793W        W85464  28.018  30.235  12.615
13794W        W85465  24.094  23.446  13.349
13795W        W85466  12.308   1.708  11.787
13796W        W85467   0.888  40.080  13.839
13797W        W85468  34.133  30.188  11.112
13798W        W85469  28.418  43.783  12.905
13799W        W85470  16.631  17.794  11.608
13800W        W85471  40.021  31.008  13.536
13801W        W85472  24.651  24.496  11.680
13802W        W85473  20.634  36.772  13.808
13803W        W85474  13.274  22.637  10.884
13804W        W85475  40.060  32.370  13.175
13805W        W85476  10.344  40.121  12.855
13806W        W85477  30.582  12.353  10.494
13807W        W85478  43.906  21.909   4.696
13808W        W85479  44.045  41.099   1.965
13809W        W85480  40.491  37.724   3.354
13810W        W85481  39.439  40.023   0.457
13811W        W85482  38.698  10.338  13.118
13812W        W85483   7.273  11.744   4.904
13813W        W85484  44.166  22.449  12.447
13814W        W85485  36.800   1.794   4.195
13815W        W85486  31.306  18.147  12.681
13816W        W85487  22.800  31.453   3.788
13817W        W85488  15.845  22.898  11.860
13818W        W85489  15.562  34.136  13.923
13819W        W85490  29.090  41.730   0.891
13820W        W85491  41.939  35.904  14.524
13821W        W85492   1.414   2.706  14.264
13822W        W85493  12.034   1.086  14.962
13823W        W85494  27.886   8.235   2.281
13824W        W85495   5.766  29.677   1.884
13825W        W85496  42.310  27.413  11.608
13826W        W85497  10.627  15.372   2.927
13827W        W85498  38.517  27.317  10.779
13828W        W85499   8.111  21.246   0.310
13829W        W85500  44.230   4.953  14.380
13830W        W85501   4.054  27.613   3.876
13831W        W85502  43.861  32.309  10.845
13832W        W85503  36.628  12.854  11.687
13833W        W85504  37.625  13.135   1.363
13834W        W85505   1.717  22.204  10.162
13835W        W85506  11.795  32.602  13.022
13836W        W85507  17.462  12.747  11.061
13837W        W85508  10.601  29.111   4.126
13838W        W85509  17.162  36.079  13.091
13839W        W85510  43.843  28.229  13.824
13840W        W85511  37.614  10.388   5.338
13841W        W85512  20.523  12.212  11.730
13842W        W85513  19.294   2.013   1.828
13843W        W85514  41.920  14.688  12.259
13844W        W85515  23.448  11.716  13.679
13845W        W85516  15.545  35.897  10.979
13846W        W85517   3.862  32.170  10.267
13847W        W85518  33.092  39.305   3.616
13848W        W85519  10.127  34.808  14.069
13849W        W85520  40.253   7.140   3.296
13850W        W85521  32.399  10.534   4.630
13851W        W85522  42.296   8.141   2.721
13852W        W85523   4.856   6.456  14.373
13853W        W85524   3.589  11.315  10.751
13854W        W85525  32.086  11.271   4.820
13855W        W85526  42.068  20.929  14.965
13856W        W85527  39.510  26.124   3.801
13857W        W85528  36.131  40.136   0.962
13858W        W85529   1.907  15.334   1.595
13859W        W85530  20.462   4.844  10.484
13860W        W85531   5.767  10.853   4.644
13861W        W85532  29.576   0.151  13.402
13862W        W85533  37.195  17.470   1.377
13863W        W85534   4.838   2.192  11.511
13864W        W85535  30.894   7.871  10.917
13865W        W85536  43.362  11.934  12.609
13866W        W85537  10.120  38.900   3.376
13867W        W85538  44.568  43.804  12.327
13868W        W85539  31.140  25.061  11.969
13869W        W85540  21.691  33.351   3.238
13870W        W85541  25.268  30.528   4.183
13871W        W85542   4.265   3.226  11.973
13872W        W85543   1.106   4.464  12.855
13873W        W85544  25.674  22.993   3.610
13874W        W85545  32.129  14.322  13.349
13875W        W85546  18.068  12.241  14.006
13876W        W85547  11.477  20.549   0.982
13877W        W85548  26.646  17.572   2.987
13878W        W85549  18.996  35.582   4.109
13879W        W85550   6.032  22.090   4.577
13880W        W85551  39.995  32.292   4.683
13881W        W85552  15.659  16.629  13.948
13882W        W85553   5.116  18.065  13.846
13883W        W85554  17.531  22.270  12.063
13884W        W85555  44.860  26.375  14.812
13885W        W85556  37.429  18.544   2.140
13886W        W85557  41.425  42.260   0.348
13887W        W85558  27.997  36.900   0.571
13888W        W85559  39.029   0.208   1.103
13889W        W85560  31.593  10.843  14.615
13890W        W85561  19.375  27.181   1.788
13891W        W85562   9.018  32.918  12.691
13892W        W85563  44.862  22.667   1.277
13893W        W85564   5.366   6.693   4.118
13894W        W85565  28.023   3.972  11.515
13895W        W85566  25.714   3.187   1.529
13896W        W85567  12.561  32.107   0.413
13897W        W85568  24.602  23.636  14.628
13898W        W85569  26.083  38.371  13.796
13899W        W85570  12.410  31.968   5.027
13900W        W85571  41.803  32.673   1.727
13901W        W85572  29.192  16.668   1.686
13902W        W85573   5.283  44.817   1.311
13903W        W85574  29.111  32.664  12.457
13904W        W85575  37.267  37.055   1.329
13905W        W85576   4.427   8.854   3.596
13906W        W85577  36.571  23.187  13.065
13907W        W85578  40.917  39.693   1.788
13908W        W85579   1.644  19.514  14.071
13909W        W85580  42.518  38.650   2.832
13910W        W85581   8.553   1.180   1.848
13911W        W85582  22.601  18.532  14.704
13912W        W85583  11.585  31.965   2.855
13913W        W85584   6.428   9.189  11.107
13914W        W85585  14.381  44.048   4.158
13915W        W85586  36.158  26.525  13.542
13916W        W85587  31.091   2.222   4.716
13917W        W85588  35.852  16.973   3.307
13918W        W85589  27.175  38.795  13.369
13919W        W85590  37.437   6.889  13.128
13920W        W85591  39.080  16.927  13.918
13921W        W85592  41.737  43.931   0.281
13922W        W85593   9.381   5.932  13.822
13923W        W85594   2.482  41.964  14.969
13924W        W85595  19.995  38.326   0.219
13925W        W85596  14.253  27.169  11.585
13926W        W85597   6.793  22.339   3.363
13927W        W85598  13.563  42.338   4.841
13928W        W85599  34.385  20.313  10.617
13929W        W85600  35.998  12.740   2.391
13930W        W85601   3.823  27.163  13.813
13931W        W85602  11.355  31.593  12.867
13932W        W85603   4.162  35.813   3.310
13933W        W85604  26.378   9.018   4.103
13934W        W85605  36.445  37.277   1.939
13935W        W85606  23.314  42.326  13.797
13936W        W85607   4.274  19.193   0.865
13937W        W85608  17.330  38.033  14.411
13938W        W85609  33.534   9.883   0.756
13939W        W85610  17.125  17.642  10.392
13940W        W85611  41.333  12.571   4.381
13941W        W85612  16.341  27.583   2.129
13942W        W85613  35.854   4.521   3.091
13943W        W85614  27.627  37.848   3.196
13944W        W85615  33.335   6.903  13.429
13945W        W85616  32.057  41.404  13.575
13946W        W85617  25.005  16.003  14.530
13947W        W85618  17.250  14.893  12.191
13948W        W85619  26.183  32.929  13.768
13949W        W85620   8.230  41.884   4.082
13950W        W85621  27.723  36.667  11.178
13951W        W85622  36.663  30.111  11.203
13952W        W85623  26.637  31.223   0.835
13953W        W85624  42.249  25.073   0.350
13954W        W85625   9.635  14.691  11.449
13955W        W85626  14.215  30.273  12.466
13956W        W85627  19.250   7.272  10.583
13957W        W85628  26.549   3.030   2.400
13958W        W85629  17.019  44.349   0.268
13959W        W85630  23.236  41.820  13.932
13960W        W85631  25.699  44.737  13.034
13961W        W85632  41.628  33.450   1.286
13962W        W85633  39.805  25.161  11.073
13963W        W85634  33.129  17.829  10.667
13964W        W85635  23.980  37.161  11.966
13965W        W85636  26.702  10.715  10.909
13966W        W85637   3.380  44.464  10.584
13967W        W85638  25.066  42.436  13.897
13968W        W85639   7.816  16.511   4.582
13969W        W85640   0.247  23.987   4.598
13970W        W85641  26.551  30.384  13.276
13971W        W85642  23.108  33.610  13.793
13972W        W85643  16.846  18.749  10.620
13973W        W85644  41.926  40.838  13.762
13974W        W85645  39.095  15.834   4.576
13975W        W85646  44.157   8.567   3.169
13976W        W85647  16.626  39.055  10.695
13977W        W85648   0.688  26.587   0.557
13978W        W85649   2.171  36.408  12.232
13979W        W85650  13.866   6.731  12.276
13980W        W85651   8.722  37.634   4.719
13981W        W85652  38.133  23.301  13.783
13982W        W85653  38.558  11.934  13.146
13983W        W85654  32.275   6.856   4.299
13984W        W85655   1.311  39.429   2.762
13985W        W85656   3.627  38.889  14.276
13986W        W85657  32.094  42.952  14.017
13987W        W85658  13.567  28.868   3.665
13988W        W85659   8.739  40.090   0.914
13989W        W85660   9.346   7.295  12.097
13990W        W85661  41.457  36.023  13.375
13991W        W85662   1.324  24.078   0.922
13992W        W85663  22.977  26.610  10.808
13993W        W85664  23.731  38.788   2.806
13994W        W85665  26.013  24.632  14.867
13995W        W85666   8.884  40.987   0.115
13996W        W85667  27.616  42.097  14.292
13997W        W85668  10.565  38.348   1.406
13998W        W85669  18.622  26.242   3.703
13999W        W85670  43.372  30.744   0.769
14000W        W85671  17.645  10.611   4.602
14001W        W85672  35.060  29.415  14.924
14002W        W85673  24.646  24.704  13.126
14003W        W85674   0.850  42.237   3.811
14004W        W85675  27.626  34.091  12.103
14005W        W85676  25.692  16.495   4.372
14006W        W85677  14.406  30.670   0.998
14007W        W85678  13.747  20.197   4.551
14008W        W85679  37.393  44.151  14.316
14009W        W85680  43.058  25.703   4.268
14010W        W85681  29.465  34.817   3.103
14011W        W85682  21.301  32.617   3.694
14012W        W85683  10.601  42.132  12.881
14013W        W85684   5.396  19.779  12.968
14014W        W85685  20.581   8.481   3.522
14015W        W85686  25.077  31.025   4.090
14016W        W85687  18.771   7.701   4.738
14017W        W85688  18.133  35.387  13.398
14018W        W85689  11.556  37.276  11.216
14019W        W85690  16.529  20.412   1.651
14020W        W85691   8.961  19.175  14.545
14021W        W85692  16.516  18.485  11.177
14022W        W85693   1.518  27.591  12.099
14023W        W85694  26.387  27.651   0.784
14024W        W85695  42.453   2.041   0.414
14025W        W85696  36.357  39.369  13.867
14026W        W85697   6.573  21.508  10.654
14027W        W85698  13.575  32.003  10.861
14028W        W85699   0.724  41.561  10.656
14029W        W85700   6.214  31.852  10.249
14030W        W85701  41.463  21.963  10.701
14031W        W85702  38.503  12.300  10.424
14032W        W85703  17.593  41.335  11.515
14033W        W85704  28.997  23.146   3.744
14034W        W85705  44.388  32.995   3.298
14035W        W85706   3.897  32.144   1.171
14036W        W85707  26.560  39.512  12.631
14037W        W85708   3.035  24.545   3.027
14038W        W85709  30.960  36.384  13.041
14039W        W85710   2.708  21.124  10.680
14040W        W85711  12.893   8.278  12.988
14041W        W85712  34.210  28.679  13.018
14042W        W85713  29.663   0.891   1.603
14043W        W85714  21.186   0.168  12.106
14044W        W85715  10.435  14.218   1.806
14045W        W85716  39.532  44.456  11.796
14046W        W85717  35.290  24.061   4.170
14047W        W85718  36.280   3.367   4.521
14048W        W85719  40.521   7.215  14.366
14049W        W85720  34.312  44.805  10.456
14050W        W85721  12.651  30.990   4.018
14051W        W85722  12.742  26.835   4.485
14052W        W85723  29.611  17.715   2.644
14053W        W85724   7.135  29.337  12.485
14054W        W85725   0.366  22.454   1.359
14055W        W85726  24.568  22.774   3.136
14056W        W85727  35.674  27.815  14.437
14057W        W85728  15.361   9.680   0.006
14058W        W85729  12.328  42.518   4.160
14059W        W85730   2.474  18.072   4.689
14060W        W85731  12.941   4.367   0.968
14061W        W85732  13.197  18.226  12.894
14062W        W85733  14.303  41.703  13.510
14063W        W85734  27.405  44.798  14.433
14064W        W85735  10.493  27.705  12.964
14065W        W85736  28.028  10.827   2.624
14066W        W85737  33.563  11.445  14.376
14067W        W85738   5.200  14.306  14.956
14068W        W85739  23.172   3.124  13.518
14069W        W85740   6.738   3.957   0.517
14070W        W85741  41.852  21.210  11.636
14071W        W85742   7.910  26.124  14.875
14072W        W85743  32.645  16.370  14.485
14073W        W85744  12.808  37.384   0.757
14074W        W85745  16.096   0.894  11.254
14075W        W85746  43.255  13.694  13.412
14076W        W85747  22.967  40.093   4.556
14077W        W85748  32.431  25.230   3.755
14078W        W85749  33.989   6.792   3.821
14079W        W85750  24.050   3.279  13.393
14080W        W85751  27.469  35.159  13.012
14081W        W85752  21.611  16.632   4.279
14082W        W85753  24.981  26.455  10.655
14083W        W85754  36.929  26.208   1.329
14084W        W85755   2.956  21.765  11.133
14085W        W85756  41.968  27.060  11.895
14086W        W85757  43.791  25.226  13.095
14087W        W85758   5.334  23.634   3.079
14088W        W85759   3.611  42.429  11.536
14089W        W85760  42.280  40.711   0.578
14090W        W85761  42.965  34.114  12.030
14091W        W85762  22.706  30.573   0.858
14092W        W85763  29.130  33.215  10.919
14093W        W85764  16.833  22.755  13.440
14094W        W85765  41.662  15.244   0.410
14095W        W85766  41.077  29.886   4.248
14096W        W85767  10.695  14.818  10.594
14097W        W85768  35.913  26.639  12.821
14098W        W85769  34.334  33.617  11.934
14099W        W85770  17.995  28.854  14.885
14100W        W85771  24.058  24.264   2.922
14101W        W85772   5.149  17.253   0.388
14102W        W85773  17.393  42.256  11.491
14103W        W85774  23.268  18.108  10.331
14104W        W85775   5.955   5.049  13.621
14105W        W85776   6.976  14.278   3.872
14106W        W85777  26.094  29.011   0.495
14107W        W85778   9.273  23.534   1.901
14108W        W85779  41.014   2.778  10.860
14109W        W85780   9.886  40.591  12.296
14110W        W85781  24.168  38.705  12.065
14111W        W85782   2.957   4.150   0.688
14112W        W85783  28.450  40.565   3.637
14113W        W85784   3.748  22.323   0.249
14114W        W85785   8.411  41.695  13.511
14115W        W85786  43.253  44.703   3.795
14116W        W85787   3.847  14.481  13.907
14117W        W85788  16.115  37.107   1.977
14118W        W85789  30.651  21.965   2.380
14119W        W85790   3.288  18.898   4.018
14120W        W85791  41.277  38.988  10.805
14121W        W85792  42.433  13.820  12.380
14122W        W85793  24.784  44.034   5.130
14123W        W85794  29.954  39.846  12.150
14124W        W85795   8.953  17.059  13.484
14125W        W85796  11.143  10.734  14.284
14126W        W85797   4.310  15.379  14.006
14127W        W85798  14.276   2.359  14.417
14128W        W85799  32.527   9.211   2.326
14129W        W85800   4.250  34.381   3.422
14130W        W85801  39.965   3.301  14.089
14131W        W85802  44.731  34.499  13.423
14132W        W85803  30.023  36.963  12.407
14133W        W85804  38.610  38.034  14.470
14134W        W85805  11.564   4.350   4.699
14135W        W85806  40.991  28.222  13.011
14136W        W85807   2.632   9.230   4.599
14137W        W85808  43.959  15.822  14.791
14138W        W85809  33.287  42.065   1.860
14139W        W85810  44.000  26.603   2.929
14140W        W85811  16.347  12.737   3.526
14141W        W85812  35.423   6.236   1.085
14142W        W85813  31.874  38.988   1.448
14143W        W85814  44.486  44.953   4.537
14144W        W85815  29.231  40.873   2.012
14145W        W85816  32.734  17.767  12.973
14146W        W85817  43.635  39.022  13.340
14147W        W85818  40.350  22.812  13.498
14148W        W85819  42.785  37.012   1.799
14149W        W85820  38.530  40.315   4.125
14150W        W85821  43.916  33.057   3.093
14151W        W85822  42.229  16.043   0.439
14152W        W85823  20.628  27.074  13.563
14153W        W85824   5.468  44.718   4.377
14154W        W85825  25.991   6.197   0.408
14155W        W85826  18.273   2.771  14.285
14156W        W85827  24.768  34.594  10.528
14157W        W85828  15.305  23.931   0.388
14158W        W85829  43.700  10.732   1.453
14159W        W85830   3.515  44.385   0.869
14160W        W85831   8.256  15.784  13.829
14161W        W85832   8.314   0.482  13.562
14162W        W85833  30.920   9.204  14.474
14163W        W85834  21.156   6.674   0.770
14164W        W85835  24.135   3.936  12.374
14165W        W85836  15.028  35.667  13.153
14166W        W85837  22.586  30.644   3.210
14167W        W85838  26.755  37.753  13.225
14168W        W85839  31.623   8.485   0.383
14169W        W85840  19.305  42.398  12.945
14170W        W85841  34.827  32.374   1.303
14171W        W85842  26.693  35.851  13.327
14172W        W85843  22.902  26.519   0.304
14173W        W85844  15.239  34.559  13.915
14174W        W85845  28.661   6.438  14.733
14175W        W85846  24.933  15.094   1.724
14176W        W85847  11.885  32.423   0.956
14177W        W85848  36.114  33.675  14.447
14178W        W85849  15.732   9.782  10.104
14179W        W85850  34.552  26.487   4.605
14180W        W85851  28.500  12.509  12.132
14181W        W85852  44.946  29.236  13.376
14182W        W85853   6.295   0.232  14.813
14183W        W85854   2.906  34.295  14.915
14184W        W85855  44.349  12.490   1.159
14185W        W85856  18.729  16.118   1.478
14186W        W85857  39.566  11.299  13.979
14187W        W85858  13.120  39.757  11.180
14188W        W85859  24.532   6.748  14.308
14189W        W85860  10.178  29.911   3.660
14190W        W85861  17.317  40.043  12.835
14191W        W85862  18.324  37.056  13.088
14192W        W85863  30.488  28.906  11.125
14193W        W85864  44.228  15.832  10.105
14194W        W85865  16.486   0.845   3.763
14195W        W85866   3.166  38.967  10.733
14196W        W85867  18.616  24.489  12.068
14197W        W85868  33.388  16.598   3.352
14198W        W85869  21.896  41.029   9.616
14199W        W85870  17.240   1.338   3.588
14200W        W85871   8.191  22.342  12.240
14201W        W85872   2.737  23.085  14.594
14202W        W85873  11.313   2.964   3.656
14203W        W85874   6.959  22.497   3.826
14204W        W85875   4.937   3.534  12.055
14205W        W85876  13.135  18.052   4.334
14206W        W85877  39.885  33.922   1.972
14207W        W85878  25.595  38.345  12.095
14208W        W85879  21.234  25.008  13.773
14209W        W85880   8.540  29.004   2.280
14210W        W85881   5.514  29.106   2.746
14211W        W85882  23.312  24.188  14.420
14212W        W85883  36.015  42.852  10.676
14213W        W85884  26.221   8.130   4.269
14214W        W85885   6.462  13.257   2.232
14215W        W85886  33.085   0.288   1.972
14216W        W85887   3.205  37.316   2.141
14217W        W85888  43.339  44.799  10.584
14218W        W85889   7.680  19.828  11.076
14219W        W85890  10.324  20.737   2.729
14220W        W85891   2.763  42.012  14.335
14221W        W85892  19.068   7.910   1.496
14222W        W85893  29.591  28.992   1.226
14223W        W85894  15.764  33.589   1.394
14224W        W85895   0.419   1.499  12.660
14225W        W85896  42.269  37.981  13.130
14226W        W85897  32.135   3.612   4.673
14227W        W85898  16.518  19.191  12.946
14228W        W85899  40.215  14.744  11.212
14229W        W85900   4.744  29.383   4.536
14230W        W85901   3.349  44.274   4.189
14231W        W85902  17.174   1.650  11.559
14232W        W85903   4.298   1.341   0.339
14233W        W85904  32.878  37.701   2.704
14234W        W85905  38.979  17.568   4.375
14235W        W85906  29.957  23.182   0.185
14236W        W85907  33.873  30.969   1.851
14237W        W85908  26.556   6.064   4.563
14238W        W85909  34.758  25.938  11.132
14239W        W85910  37.028  20.154   4.193
14240W        W85911  29.752  15.656   2.806
14241W        W85912  24.494  15.851   3.250
14242W        W85913  40.080  17.317  13.951
14243W        W85914  14.863  13.035   0.874
14244W        W85915  39.328  32.576  13.911
14245W        W85916  35.132  13.925  13.453
14246W        W85917   3.469  34.936   3.585
14247W        W85918  27.007   1.196   2.226
14248W        W85919  25.560  10.777   0.002
14249W        W85920  18.227   4.703  14.149
14250W        W85921  17.434  35.982   3.119
14251W        W85922  20.117   0.692  10.958
14252W        W85923  30.305  22.767  11.616
14253W        W85924  31.981  22.251   3.749
14254W        W85925  43.266   5.951   1.910
14255W        W85926   8.576  29.634   0.337
14256W        W85927   4.200  10.338   2.836
14257W        W85928  20.803   4.194  13.507
14258W        W85929  24.975  22.731  14.427
14259W        W85930  23.685  23.560   2.394
14260W        W85931  23.696  29.711   3.081
14261W        W85932   1.253  33.100   4.823
14262W        W85933  27.294  10.637  14.866
14263W        W85934   8.190  39.297   4.131
14264W        W85935  29.282  44.767   2.888
14265W        W85936  40.561  16.680  12.906
14266W        W85937   2.865  29.546   3.157
14267W        W85938  12.272  30.635  14.180
14268W        W85939  27.498  21.169   2.948
14269W        W85940  42.383  11.330   2.434
14270W        W85941  18.776  30.834  13.969
14271W        W85942  38.795   3.461  10.248
14272W        W85943  31.352  13.823  14.410
14273W        W85944  39.637   1.900   1.866
14274W        W85945  10.843  31.129  13.532
14275W        W85946   8.148  37.864   0.190
14276W        W85947  17.304  12.605  10.176
14277W        W85948  43.270   1.829   3.217
14278W        W85949  10.840  26.633   9.918
14279W        W85950  37.834  23.753  13.888
14280W        W85951  37.899  39.775   2.801
14281W        W85952  30.596  43.725   3.842
14282W        W85953  37.477  25.537   4.988
14283W        W85954  17.064   4.982   5.525
14284W        W85955  28.154   0.188  13.508
14285W        W85956   3.375  38.473   3.128
14286W        W85957  15.657  32.927  13.275
14287W        W85958  16.431  19.232   1.757
14288W        W85959  15.723  38.772  10.747
14289W        W85960  37.949   7.170  13.087
14290W        W85961  28.634   7.393   0.330
14291W        W85962  34.869  40.011  12.364
14292W        W85963  33.495  30.012   2.639
14293W        W85964  38.283  42.871   3.643
14294W        W85965  35.585   2.652   1.669
14295W        W85966  22.318  32.959   2.850
14296W        W85967  30.489  32.997   3.168
14297W        W85968  18.584  18.217   5.039
14298W        W85969   2.887  36.098   1.022
14299W        W85970  23.532  23.937  11.501
14300W        W85971  12.529  13.654  10.785
14301W        W85972  36.756   7.848  13.474
14302W        W85973  41.534  42.842   1.460
14303W        W85974  16.019  22.238   0.836
14304W        W85975  33.165   8.235   1.274
14305W        W85976   0.588  39.912   3.369
14306W        W85977  14.115  12.029   1.388
14307W        W85978  39.367  14.100   2.720
14308W        W85979  26.037  11.595  11.722
14309W        W85980  36.269  42.040  13.167
14310W        W85981  23.930  28.215   1.824
14311W        W85982   8.703  22.361   0.890
14312W        W85983  27.087  13.257  10.688
14313W        W85984  31.971  17.706   3.567
14314W        W85985  13.717  12.226  12.507
14315W        W85986  28.818   9.426  14.450
14316W        W85987  25.957  40.518  11.971
14317W        W85988   2.045  31.642   2.660
14318W        W85989  21.140  31.993   0.907
14319W        W85990  26.125  35.485  13.915
14320W        W85991   6.728  30.662  14.887
14321W        W85992   9.832  40.809  13.827
14322W        W85993   7.847  39.556   2.326
14323W        W85994  11.871  23.152  11.343
14324W        W85995  40.237   5.357   2.406
14325W        W85996  38.303  23.208   0.888
14326W        W85997   2.196  38.492  14.834
14327W        W85998  32.430  32.186   0.799
14328W        W85999  12.016  13.598  10.652
14329W        W86000  27.029  30.098   1.380
14330W        W86001  31.707  14.750  12.691
14331W        W86002  39.405   1.415   3.351
14332W        W86003   4.536  25.896   4.500
14333W        W86004  20.818  33.530   4.202
14334W        W86005  20.986  23.226  13.807
14335W        W86006   3.644   3.680  13.474
14336W        W86007   7.615   8.742   5.032
14337W        W86008  41.865  31.710   3.195
14338W        W86009  43.900  30.236   0.080
14339W        W86010  28.875  38.047  11.197
14340W        W86011  36.892  36.593   3.433
14341W        W86012  13.639  36.456  10.998
14342W        W86013   1.317   3.706  11.877
14343W        W86014  30.054  24.560   4.936
14344W        W86015   9.586  33.880   1.604
14345W        W86016  19.193   1.080   1.452
14346W        W86017  12.170  20.740  14.791
14347W        W86018   2.878  23.700  11.012
14348W        W86019  16.209  33.116  12.038
14349W        W86020  34.622   6.163   1.828
14350W        W86021   0.993  11.836  13.877
14351W        W86022  30.565  28.206  12.900
14352W        W86023  14.071  14.373   2.700
14353W        W86024  28.144  35.475  14.032
14354W        W86025  41.956   2.657   2.547
14355W        W86026  29.618  44.704  13.099
14356W        W86027  33.028   3.711  12.522
14357W        W86028  22.126  30.598  10.914
14358W        W86029   7.761  43.046   4.122
14359W        W86030  38.030  14.543   2.794
14360W        W86031  43.293  27.433   2.330
14361W        W86032  38.047  22.789   0.673
14362W        W86033  21.213  24.086  10.452
14363W        W86034  19.592  22.782   0.946
14364W        W86035  37.906  19.069  13.716
14365W        W86036  34.629  18.240  12.391
14366W        W86037  39.092  35.896  12.502
14367W        W86038   7.742   6.254   2.228
14368W        W86039   6.495   0.850   4.265
14369W        W86040  12.833  40.424  12.539
14370W        W86041  24.328  24.525  13.492
14371W        W86042  37.643  39.414   4.111
14372W        W86043  17.077  39.351   0.787
14373W        W86044  44.443  20.030   3.137
14374W        W86045  43.780   7.163   4.873
14375W        W86046   4.088   6.864   2.518
14376W        W86047  30.102  12.128   3.706
14377W        W86048  32.087  23.029   1.460
14378W        W86049  39.339  30.685   0.280
14379W        W86050   4.105  41.816   4.468
14380W        W86051  18.224   1.545  13.053
14381W        W86052  27.245  36.317   3.709
14382W        W86053  42.081  20.211   0.710
14383W        W86054  30.147  29.401   1.776
14384W        W86055  26.465  22.747  12.997
14385W        W86056  18.820  30.970  11.071
14386W        W86057  29.951  22.611  11.965
14387W        W86058  33.971  12.671   2.327
14388W        W86059  22.987  39.334   0.716
14389W        W86060  37.298   0.786  13.074
14390W        W86061  42.289   2.963  11.199
14391W        W86062   4.450  15.326   0.517
14392W        W86063  10.710   7.934  14.439
14393W        W86064  13.120  40.489   4.109
14394W        W86065  40.177  10.150  13.075
14395W        W86066  30.396  33.393  11.041
14396W        W86067  43.003   0.342   3.171
14397W        W86068  33.599  24.027  11.505
14398W        W86069  23.008   2.349   2.764
14399W        W86070  30.300  41.780  11.230
14400W        W86071  23.468  20.493  11.220
14401W        W86072  38.011  14.868  10.331
14402W        W86073  17.059   6.741  10.498
14403W        W86074  34.284  32.500   1.296
14404W        W86075   9.812  16.619   4.103
14405W        W86076  32.695  17.943  14.393
14406W        W86077  35.889  17.472   3.296
14407W        W86078  27.086  15.543  12.248
14408W        W86079  23.100  14.608  11.167
14409W        W86080  16.520  31.134   2.299
14410W        W86081   1.715  32.298  10.525
14411W        W86082  11.079  25.300  13.973
14412W        W86083   1.726  41.971  14.459
14413W        W86084   2.289  14.717   2.626
14414W        W86085  10.314  16.871  11.570
14415W        W86086   5.172  15.339   4.621
14416W        W86087   3.286  27.500   2.664
14417W        W86088   6.726  10.326   3.808
14418W        W86089  12.490  38.008  11.120
14419W        W86090  34.054   8.326   1.995
14420W        W86091  14.864   8.448   2.356
14421W        W86092  28.584   0.256  10.979
14422W        W86093   2.587  24.569  14.433
14423W        W86094  20.963  17.711   2.903
14424W        W86095  24.730  44.507  10.665
14425W        W86096  27.232  11.566   1.461
14426W        W86097  29.572   1.680   4.254
14427W        W86098  28.547   7.005   1.669
14428W        W86099  39.932  15.550  11.703
14429W        W86100  42.926  27.257   2.717
14430W        W86101  28.043  29.440   0.963
14431W        W86102  19.693  15.775  12.572
14432W        W86103  15.554  30.901   4.559
14433W        W86104  34.412  15.259  13.769
14434W        W86105  11.741  22.666   4.647
14435W        W86106  19.715   9.153  10.596
14436W        W86107  14.185   4.272   1.221
14437W        W86108   6.663  24.189   2.337
14438W        W86109  14.639  20.613  14.346
14439W        W86110  12.419  31.530   0.297
14440W        W86111  35.530  27.647   0.293
14441W        W86112   9.818  41.054   0.471
14442W        W86113  35.907  36.561   4.155
14443W        W86114   6.875  29.662  10.928
14444W        W86115   4.325  25.713   3.172
14445W        W86116  33.143  39.839   3.666
14446W        W86117  41.876  42.276   1.590
14447W        W86118  23.182  43.287   2.207
14448W        W86119  35.727  34.598   3.713
14449W        W86120   3.709   2.470  12.340
14450W        W86121  36.529   1.946  11.960
14451W        W86122  27.946  21.010  12.394
14452W        W86123  14.646  28.021   0.802
14453W        W86124  41.452  13.061   4.213
14454W        W86125  42.343  17.998  10.675
14455W        W86126   7.855  30.786  11.940
14456W        W86127  20.119  14.459  10.632
14457W        W86128  23.260  21.194   4.597
14458W        W86129   3.621  10.447  14.430
14459W        W86130  21.474   8.047  12.580
14460W        W86131  21.169  14.055   4.989
14461W        W86132   7.098  36.223   4.361
14462W        W86133   5.505  17.171  12.008
14463W        W86134  43.014  30.369   0.787
14464W        W86135  18.076   5.694  14.947
14465W        W86136  16.866  10.072  14.790
14466W        W86137   0.268  11.275  12.412
14467W        W86138  44.533  11.801   3.114
14468W        W86139  18.801  17.826  14.109
14469W        W86140  15.638  32.950   4.681
14470W        W86141  18.588  30.209   2.758
14471W        W86142  36.462  23.003  11.534
14472W        W86143  44.297  20.314   5.147
14473W        W86144  19.598  32.909   0.953
14474W        W86145  42.784  31.157  11.325
14475W        W86146  42.847  12.862   0.865
14476W        W86147   9.824  20.763   1.278
14477W        W86148  13.911   7.027  12.690
14478W        W86149  39.305  26.551   0.374
14479W        W86150  30.734   7.946  12.084
14480W        W86151   3.846  39.493   3.092
14481W        W86152  32.885   0.896  12.520
14482W        W86153   0.341  23.021   2.301
14483W        W86154  29.419  13.153   1.442
14484W        W86155  16.719  35.514   3.285
14485W        W86156  42.069  41.479   4.199
14486W        W86157  32.934  10.701   2.926
14487W        W86158  12.121   1.342   1.775
14488W        W86159   5.480  34.131  14.914
14489W        W86160  18.666  38.603  14.932
14490W        W86161  16.823  21.089   1.432
14491W        W86162  42.884  37.542  11.678
14492W        W86163  15.991  43.807   0.881
14493W        W86164  21.501  36.070  12.088
14494W        W86165  25.338  11.443  13.306
14495W        W86166  28.447  17.533  12.629
14496W        W86167  30.918   8.498  14.740
14497W        W86168  18.059   0.446   3.328
14498W        W86169  24.547  42.213  11.500
14499W        W86170  25.119  11.297   1.389
14500W        W86171  32.813  34.379  14.256
14501W        W86172  32.061  18.731   4.473
14502W        W86173  44.910   9.337  14.229
14503W        W86174   7.437   0.517  14.029
14504W        W86175  42.026  30.388   1.873
14505W        W86176  43.762  12.675   2.384
14506W        W86177  41.890  24.698   0.318
14507W        W86178  15.633  28.200   3.331
14508W        W86179  28.349  27.946   1.747
14509W        W86180  32.103  22.562  13.465
14510W        W86181   2.393  15.971  10.821
14511W        W86182   9.861  28.270   0.868
14512W        W86183   5.280   0.657  10.042
14513W        W86184  14.220  22.856   3.955
14514W        W86185  22.353  36.330   0.335
14515W        W86186  38.948  24.682   3.191
14516W        W86187  17.194  20.568  12.625
14517W        W86188  38.590  19.742   2.775
14518W        W86189  33.205   9.850   2.405
14519W        W86190  11.704   4.694   1.712
14520W        W86191  17.195  41.231   4.072
14521W        W86192  15.107  34.569   0.762
14522W        W86193  12.635  17.099  14.914
14523W        W86194  23.496  26.020  14.941
14524W        W86195  22.219   4.967  12.410
14525W        W86196   2.734  15.286  11.190
14526W        W86197  26.713   8.257   3.739
14527W        W86198  38.341  35.916   3.668
14528W        W86199  12.456  35.371  10.701
14529W        W86200   9.838  41.576   1.982
14530W        W86201  39.779  22.037  12.001
14531W        W86202  25.074  35.241   4.150
14532W        W86203  23.662   0.861   0.431
14533W        W86204  19.136   2.700  11.639
14534W        W86205  15.300  25.931   0.421
14535W        W86206   6.872   7.401  11.139
14536W        W86207  40.071  10.770  13.385
14537W        W86208  18.053  41.507  11.663
14538W        W86209  41.502  19.739   2.956
14539W        W86210  15.286  20.568  11.138
14540W        W86211  20.722  31.930  10.564
14541W        W86212  19.690  10.700   4.180
14542W        W86213  44.381  13.285   0.842
14543W        W86214   6.844  35.853   2.178
14544W        W86215  20.013  40.341   1.249
14545W        W86216   5.532  18.569   0.597
14546W        W86217  25.514  16.353  13.623
14547W        W86218  33.752  38.069   3.371
14548W        W86219  30.578   8.343   4.793
14549W        W86220  14.590   0.814  11.538
14550W        W86221  21.170  16.675   0.941
14551W        W86222  40.146  29.016   4.806
14552W        W86223   9.101  20.471   2.190
14553W        W86224  15.255  12.715  12.773
14554W        W86225  43.823  27.049   3.203
14555W        W86226   6.122  37.025   2.239
14556W        W86227  40.874  19.382  13.117
14557W        W86228   9.383  11.547   1.044
14558W        W86229   5.001   5.485  12.494
14559W        W86230  42.281   6.737  12.534
14560W        W86231  21.222   1.468   1.587
14561W        W86232   7.423  27.082  11.617
14562W        W86233  14.818  37.035  13.753
14563W        W86234  28.288  36.500   0.403
14564W        W86235  25.620  35.723  10.676
14565W        W86236   8.427   8.238   0.467
14566W        W86237  35.245   4.689  13.407
14567W        W86238  35.344  33.874  13.449
14568W        W86239  39.064  35.220  11.593
14569W        W86240   1.000  30.929   4.100
14570W        W86241   2.099   3.957  13.526
14571W        W86242  41.895  10.474  11.409
14572W        W86243  13.059   4.931  10.259
14573W        W86244  17.414  39.063   1.469
14574W        W86245  34.491  43.939  14.893
14575W        W86246  27.329  22.820   0.736
14576W        W86247  33.199  43.864   1.441
14577W        W86248  25.772  41.394   0.871
14578W        W86249  22.112  32.134   3.812
14579W        W86250  12.525  15.927  13.277
14580W        W86251  14.067  38.839   2.220
14581W        W86252  36.977  39.956   4.921
14582W        W86253  19.955  12.323  11.906
14583W        W86254   1.779  23.541  14.323
14584W        W86255  27.974  20.587  13.608
14585W        W86256  40.366  39.542  12.527
14586W        W86257  33.800  12.240   4.627
14587W        W86258  20.922  23.404  14.315
14588W        W86259  38.602  26.713  14.891
14589W        W86260  19.171  11.240   3.732
14590W        W86261  25.564  32.989  12.930
14591W        W86262  33.844  42.291   0.295
14592W        W86263  11.153  10.787   0.329
14593W        W86264   8.014  32.958  13.411
14594W        W86265  15.068   2.649   3.178
14595W        W86266   0.091  21.586   4.450
14596W        W86267   2.757  16.022  13.998
14597W        W86268  32.572  36.375   1.593
14598W        W86269  24.676  19.292  14.424
14599W        W86270   3.692  15.812  11.990
14600W        W86271  39.021  27.727  13.115
14601W        W86272  22.381  11.639   0.032
14602W        W86273  36.740  24.296   3.306
14603W        W86274  41.351  18.177   4.093
14604W        W86275  27.055   9.395   0.115
14605W        W86276  37.293   0.107   3.245
14606W        W86277  25.105  31.907   2.901
14607W        W86278  30.668  13.290   3.316
14608W        W86279  16.547  30.479   2.805
14609W        W86280   2.645  22.804  12.002
14610W        W86281  13.103  33.661  13.023
14611W        W86282  38.009   3.677   3.107
14612W        W86283  39.905  24.128  13.581
14613W        W86284  22.716  32.535   2.105
14614W        W86285  13.133  29.254   0.245
14615W        W86286  25.146   3.794   1.786
14616W        W86287  37.261  12.094  13.112
14617W        W86288   1.496   3.798  14.857
14618W        W86289  43.610  15.807   3.195
14619W        W86290   3.227   3.981  12.162
14620W        W86291  33.003  10.626  14.352
14621W        W86292  44.885  19.585  12.038
14622W        W86293  10.771  27.571  11.617
14623W        W86294  41.022   9.155  13.004
14624W        W86295  39.491  41.005   0.861
14625W        W86296   8.729   9.912   2.122
14626W        W86297  17.739  18.046   3.367
14627W        W86298  37.463  31.953  11.903
14628W        W86299   3.255  42.880  10.261
14629W        W86300  10.570  30.462   3.263
14630W        W86301  14.898  11.430  13.904
14631W        W86302  41.918  27.111   2.322
14632W        W86303  29.614  24.898   4.858
14633W        W86304   1.569  28.882  12.481
14634W        W86305  10.464  10.305  14.007
14635W        W86306  12.651  23.725   1.364
14636W        W86307   8.385  23.172  11.125
14637W        W86308  10.861  21.637  13.968
14638W        W86309  31.569  29.628  13.935
14639W        W86310  20.201  43.302  11.891
14640W        W86311  13.193  28.603   2.851
14641W        W86312   0.032  11.579  11.188
14642W        W86313  18.098  22.046   4.226
14643W        W86314  23.051   8.239  12.448
14644W        W86315   2.418   6.880  12.461
14645W        W86316  20.439  24.590  10.595
14646W        W86317   5.559  25.248   2.013
14647W        W86318  44.197  30.135   1.162
14648W        W86319  17.587  29.621  11.458
14649W        W86320   2.365  29.362   0.975
14650W        W86321  15.804  13.645  10.712
14651W        W86322  25.970  11.389   0.005
14652W        W86323  21.646  19.276  12.486
14653W        W86324  23.259   0.347   1.583
14654W        W86325  12.374  14.684  12.003
14655W        W86326  25.957  29.034  13.414
14656W        W86327  31.846  43.759  13.931
14657W        W86328  23.057  40.959   5.076
14658W        W86329  18.145  31.238   0.308
14659W        W86330  30.047  41.303   5.104
14660W        W86331  37.938  38.161  10.644
14661W        W86332   1.884   2.696  14.002
14662W        W86333   6.831  19.728  11.848
14663W        W86334   9.081  41.334   2.866
14664W        W86335  15.730  22.805  11.369
14665W        W86336  15.524  37.495  12.065
14666W        W86337  31.011  16.673  11.605
14667W        W86338  44.040  20.077   0.251
14668W        W86339  18.723  15.801  13.240
14669W        W86340   7.755  26.003   3.892
14670W        W86341  25.072  41.985   1.940
14671W        W86342  42.864  43.489   3.295
14672W        W86343  11.350  37.796   3.196
14673W        W86344   2.938  27.811  10.630
14674W        W86345  35.991  16.260   2.925
14675W        W86346  32.386  39.556  14.944
14676W        W86347  24.786  23.146   4.152
14677W        W86348  23.579   9.635   1.221
14678W        W86349  38.508  42.042  13.471
14679W        W86350   6.484  34.743   3.731
14680W        W86351  16.079  13.605   1.159
14681W        W86352   0.332   6.833  13.155
14682W        W86353  26.437  43.393  14.333
14683W        W86354  40.864  18.125   1.326
14684W        W86355  25.133   0.517   0.974
14685W        W86356  24.739  24.171  12.343
14686W        W86357   2.811   9.871   4.164
14687W        W86358   6.838   0.704   2.303
14688W        W86359  16.987  13.761   0.482
14689W        W86360  40.850  43.585  11.488
14690W        W86361   0.274   5.202   1.496
14691W        W86362  12.241  25.729   4.591
14692W        W86363  35.067  25.201   3.670
14693W        W86364   4.268  27.040  13.591
14694W        W86365   3.845  22.020   4.235
14695W        W86366  39.278   1.301   2.526
14696W        W86367  37.821  31.202   1.450
14697W        W86368  28.944  36.121  12.654
14698W        W86369  33.556  11.713   1.345
14699W        W86370  15.065  26.938  14.990
14700W        W86371  41.830  30.205  14.954
14701W        W86372  17.649  41.889   1.231
14702W        W86373  18.274  11.736  14.117
14703W        W86374   5.357  17.684   3.249
14704W        W86375  27.103  33.049  10.423
14705W        W86376  21.240  22.723  11.626
14706W        W86377  26.379   9.432  12.962
14707W        W86378  41.465  26.093   1.208
14708W        W86379  28.223  38.495   1.267
14709W        W86380   3.800   4.375  11.780
14710W        W86381  43.510   2.895  11.947
14711W        W86382   1.361  21.683   3.159
14712W        W86383  32.987  41.082   0.523
14713W        W86384  17.306  42.537   3.666
14714W        W86385   5.290  31.815   0.770
14715W        W86386  10.350  40.517  12.509
14716W        W86387  36.548  35.270  11.643
14717W        W86388  26.596  17.013   2.202
14718W        W86389   4.136  37.980  11.115
14719W        W86390  21.917  31.615  11.567
14720W        W86391  18.722  38.848  10.781
14721W        W86392  36.759  42.014   3.628
14722W        W86393  22.781   0.363  10.578
14723W        W86394  32.521  33.860   3.700
14724W        W86395  10.551   2.802  12.016
14725W        W86396  27.854  41.617  13.413
14726W        W86397   0.384  35.856  11.543
14727W        W86398  11.240  14.169   1.138
14728W        W86399   5.927  43.436  11.154
14729W        W86400  37.777   9.529  11.931
14730W        W86401   0.332  19.212  14.223
14731W        W86402  30.583  29.194  12.148
14732W        W86403  10.603   8.965  14.315
14733W        W86404  27.009  14.074  11.394
14734W        W86405  36.050  40.068   0.070
14735W        W86406  35.439   9.793  12.203
14736W        W86407   0.523  19.176   0.246
14737W        W86408   1.001  23.417  12.898
14738W        W86409  16.169  12.306  11.424
14739W        W86410  12.154  23.778   2.269
14740W        W86411  36.540  34.122  11.599
14741W        W86412  29.511  17.974   0.895
14742W        W86413  16.848  43.399  11.765
14743W        W86414  17.578  33.637  11.109
14744W        W86415   9.390  39.251  13.112
14745W        W86416  31.457  37.380  10.795
14746W        W86417  32.582  37.848   0.677
14747W        W86418  34.198  25.659   1.784
14748W        W86419  12.196  16.142   0.968
14749W        W86420  35.934  16.478   1.941
14750W        W86421  30.249  32.382   3.930
14751W        W86422  31.135   9.924   0.788
14752W        W86423  30.871  15.098   4.591
14753W        W86424  40.300  39.755   0.709
14754W        W86425   9.268  19.047   4.764
14755W        W86426  32.263  19.091  12.895
14756W        W86427  11.224  10.118  10.641
14757W        W86428  28.811  36.435   0.333
14758W        W86429  26.594  27.122  10.797
14759W        W86430  33.538  33.885   4.212
14760W        W86431  33.056  29.971   1.951
14761W        W86432   2.438  23.749  11.565
14762W        W86433  21.063  43.569   1.313
14763W        W86434  13.123   5.341  12.978
14764W        W86435  36.003  21.623   2.005
14765W        W86436   5.445  18.350  12.503
14766W        W86437  19.469   1.146  13.340
14767W        W86438  42.517  36.454   2.745
14768W        W86439   0.587  12.780  10.395
14769W        W86440   3.972   5.442   4.387
14770W        W86441  16.562   3.930   0.371
14771W        W86442   8.685  20.538   3.547
14772W        W86443   8.727  29.959  12.495
14773W        W86444  15.115   4.154   1.402
14774W        W86445  38.057  20.562  13.534
14775W        W86446  24.986  30.480   4.612
14776W        W86447  27.282  10.703  12.359
14777W        W86448  41.525  32.955   0.055
14778W        W86449  40.929   9.105   1.905
14779W        W86450  25.154  19.633   0.791
14780W        W86451  12.139  29.988   1.785
14781W        W86452  22.811  21.993   4.661
14782W        W86453  34.933   0.280   4.566
14783W        W86454  43.269  37.938   0.747
14784W        W86455  26.661  19.230  13.379
14785W        W86456  40.103   0.467  14.860
14786W        W86457  12.191   2.360   2.419
14787W        W86458   4.675   9.543   1.228
14788W        W86459  40.389   2.678  11.602
14789W        W86460  44.785  15.910  14.747
14790W        W86461  29.654  12.968   4.084
14791W        W86462   3.307  26.971   3.380
14792W        W86463  43.297  36.017   3.670
14793W        W86464  20.688   5.822  13.824
14794W        W86465  38.611   5.498  12.699
14795W        W86466  36.106  24.185  14.976
14796W        W86467  43.253  40.473  13.344
14797W        W86468   7.761   7.039  12.149
14798W        W86469  39.288   3.911  13.030
14799W        W86470   6.378  24.758  12.542
14800W        W86471  43.239  23.145   4.209
14801W        W86472   7.177  11.195   1.145
14802W        W86473  38.858   6.527   4.528
14803W        W86474  41.017  15.657   2.196
14804W        W86475  25.094   6.173   2.661
14805W        W86476   5.892   9.147   2.896
14806W        W86477  16.558  44.924   3.549
14807W        W86478  42.184   7.594   4.205
14808W        W86479   1.717  20.914  12.058
14809W        W86480  34.547   8.403  14.439
14810W        W86481   5.409  28.153  14.924
14811W        W86482  33.355  37.699  13.788
14812W        W86483  33.915   1.752  14.989
14813W        W86484  44.724  41.058  12.358
14814W        W86485  24.843  34.350  11.018
14815W        W86486   7.718  27.458  13.532
14816W        W86487  25.666   1.865   0.962
14817W        W86488  20.785   3.820   3.672
14818W        W86489  37.488  27.977   4.139
14819W        W86490   8.325  33.004   4.116
14820W        W86491   8.608  38.959  13.106
14821W        W86492  12.519  26.624   0.424
14822W        W86493  36.603  35.972  13.936
14823W        W86494  17.266  35.821   2.654
14824W        W86495  30.617  26.117   4.262
14825W        W86496  13.510  11.232   2.693
14826W        W86497  33.409  43.424   1.228
14827W        W86498  23.472  37.286   0.920
14828W        W86499  13.156  34.069   3.606
14829W        W86500  33.020  23.199  10.666
14830W        W86501  26.616   1.654  12.613
14831W        W86502  11.268  26.225   4.432
14832W        W86503  28.894  11.109  13.337
14833W        W86504  41.175  15.346   5.134
14834W        W86505  15.287  43.772   2.183
14835W        W86506  29.546  22.705   2.971
14836W        W86507  43.165  10.380   4.955
14837W        W86508  17.155  29.928  14.471
14838W        W86509  39.500   1.910   4.551
14839W        W86510  10.434  17.882   3.831
14840W        W86511   3.864  14.841   3.633
14841W        W86512  16.752  33.503  14.816
14842W        W86513  38.413   1.167   1.853
14843W        W86514  11.369  30.081  14.875
14844W        W86515  23.462   3.885   1.352
14845W        W86516   7.590  28.876   0.029
14846W        W86517  41.782   9.916   4.186
14847W        W86518  30.999  36.419  14.820
14848W        W86519  38.928  36.849   3.878
14849W        W86520  22.718  29.749   0.275
14850W        W86521   0.547  36.922  10.765
14851W        W86522  13.587  28.176  13.819
14852W        W86523  28.430  15.269  13.420
14853W        W86524  22.095  10.357  11.632
14854W        W86525   2.311  38.484   2.905
14855W        W86526  40.255  34.543  11.158
14856W        W86527  10.586  30.586   4.536
14857W        W86528  10.594   3.601  10.730
14858W        W86529  19.036  32.821   2.497
14859W        W86530  20.310  24.657   3.126
14860W        W86531  43.827  11.666   1.469
14861W        W86532   5.331  14.177   3.773
14862W        W86533  25.156  15.839  12.039
14863W        W86534  42.538  29.143  12.729
14864W        W86535   1.603  28.001  14.560
14865W        W86536   7.207   5.264  10.766
14866W        W86537   2.106  28.612  10.588
14867W        W86538  18.026  26.353  13.594
14868W        W86539  22.135  30.193  12.135
14869W        W86540   8.704  28.682   0.802
14870W        W86541  18.550  27.942  10.005
14871W        W86542   6.427  11.882  12.760
14872W        W86543  23.283   6.776  12.505
14873W        W86544  17.952  35.971   3.156
14874W        W86545  43.915  34.666   0.001
14875W        W86546   1.328   4.418  11.134
14876W        W86547  25.868  13.909   5.052
14877W        W86548  39.265  21.225  12.418
14878W        W86549   0.369  35.593  12.061
14879W        W86550   7.323  41.312   3.465
14880W        W86551  13.513  35.357   2.917
14881W        W86552  39.125  25.611  13.533
14882W        W86553  23.046  42.226  10.422
14883W        W86554  30.499  41.701   0.259
14884W        W86555  18.787  32.116  10.300
14885W        W86556  22.081  29.144  14.861
14886W        W86557  21.978  18.803   4.628
14887W        W86558  23.107  35.587   2.340
14888W        W86559  35.299  25.282   2.803
14889W        W86560  11.890  17.737   1.888
14890W        W86561  17.824  23.152  13.633
14891W        W86562  41.790  31.367  13.379
14892W        W86563   6.849  18.134  12.887
14893W        W86564   3.899  39.852   0.077
14894W        W86565  30.468  23.079   0.314
14895W        W86566  32.907  30.227  13.963
14896W        W86567  13.625  37.621  12.070
14897W        W86568  15.637  23.780   0.025
14898W        W86569  36.105  41.088   3.629
14899W        W86570  25.744  29.788   2.240
14900W        W86571  11.396   6.346  12.939
14901W        W86572  22.827   0.807   2.783
14902W        W86573  19.159  15.326   0.921
14903W        W86574   2.986  16.940   4.673
14904W        W86575   6.894  37.542  12.013
14905W        W86576  13.788  17.063   0.294
14906W        W86577   3.406   8.412   4.106
14907W        W86578  40.850  36.974  10.750
14908W        W86579  10.326  33.098   2.272
14909W        W86580  12.093   8.804   4.496
14910W        W86581  13.725  23.090   3.180
14911W        W86582  30.983  22.501   2.139
14912W        W86583  29.770   3.790  12.545
14913W        W86584   2.215   3.770   4.368
14914W        W86585  27.094  36.390   0.835
14915W        W86586  36.423  29.247   2.805
14916W        W86587  32.159  38.417   4.098
14917W        W86588   7.622  43.894  12.859
14918W        W86589  44.432  28.184   1.499
14919W        W86590  28.150  41.342   0.505
14920W        W86591   2.317   8.754   4.697
14921W        W86592  21.769  24.721  11.505
14922W        W86593  40.205  38.207  10.675
14923W        W86594  18.266  20.460   4.308
14924W        W86595   6.779  11.254   2.927
14925W        W86596  16.511  31.587   1.368
14926W        W86597  43.325  44.741  14.946
14927W        W86598  30.638  19.651   4.692
14928W        W86599  24.412  20.898   0.684
14929W        W86600  35.283   1.805   0.328
14930W        W86601  42.617  10.373  11.404
14931W        W86602  10.643   9.929   0.222
14932W        W86603   6.765  20.797   3.421
14933W        W86604  16.098  37.325   4.966
14934W        W86605  17.535   9.546  13.183
14935W        W86606   0.354  44.055   1.916
14936W        W86607  24.569  18.206  12.997
14937W        W86608  18.041  32.998  14.842
14938W        W86609  38.082  14.906   3.233
14939W        W86610  44.184  35.841   1.825
14940W        W86611  26.321   8.209   3.395
14941W        W86612  25.060  27.906  12.151
14942W        W86613  40.908  24.802   4.118
14943W        W86614   5.680  25.936  14.526
14944W        W86615  17.066  22.322  12.928
14945W        W86616  34.426  39.776   1.207
14946W        W86617   5.425  12.906  11.523
14947W        W86618  10.182  19.987  11.558
14948W        W86619  39.355  32.374   1.772
14949W        W86620  40.645  15.057   0.463
14950W        W86621  11.608  24.043   0.866
14951W        W86622  29.868   3.318   4.426
14952W        W86623  40.938  39.547   0.437
14953W        W86624  27.635  14.312  12.599
14954W        W86625  23.816  31.370   0.161
14955W        W86626  36.052  28.562   2.108
14956W        W86627  13.613  19.473   2.818
14957W        W86628   3.206  33.456   3.109
14958W        W86629   0.736  19.988   5.025
14959W        W86630  11.300  30.587   0.826
14960W        W86631  22.345  35.558   0.975
14961W        W86632  37.460   8.206   3.943
14962W        W86633   7.694  31.575  14.984
14963W        W86634  36.900  12.671  12.076
14964W        W86635  34.443   1.897   4.144
14965W        W86636  18.549  43.090   2.641
14966W        W86637  35.542   3.229   0.437
14967W        W86638   2.984  44.003   2.299
14968W        W86639   8.918  42.594   0.895
14969W        W86640  36.847  40.425   2.730
14970W        W86641  23.712   2.290  11.401
14971W        W86642  23.252  29.456   4.514
14972W        W86643  32.176  22.048   2.302
14973W        W86644   7.413  44.925   4.151
14974W        W86645   3.509   6.975  12.736
14975W        W86646  37.517  18.583  14.358
14976W        W86647  27.416  18.173   1.405
14977W        W86648   3.272   9.439  10.864
14978W        W86649  35.486   1.853  14.857
14979W        W86650  21.749  32.396  14.320
14980W        W86651  28.552  30.960   4.202
14981W        W86652  20.868  43.510   0.395
14982W        W86653  36.686  16.032  13.121
14983W        W86654  18.578  18.005  12.284
14984W        W86655  14.688   9.356   0.441
14985W        W86656  28.624   6.518   0.309
14986W        W86657  22.636   9.726  11.332
14987W        W86658  24.557  43.531   2.857
14988W        W86659   6.884   9.240  14.080
14989W        W86660   0.886  30.685  12.800
14990W        W86661   9.031   7.845  12.031
14991W        W86662  29.904  17.170   1.455
14992W        W86663   0.812  40.832   2.393
14993W        W86664  33.500   2.762  11.214
14994W        W86665   2.084  14.881  12.943
14995W        W86666  31.214  37.651   0.192
14996W        W86667  32.796  22.203   4.273
14997W        W86668  14.882  15.671   1.834
14998W        W86669  17.330  13.660  11.568
14999W        W86670   0.632  25.232   2.824
15000W        W86671  16.678  17.283   4.049
15001W        W86672  18.196   3.484  13.141
15002W        W86673   8.528  19.528  13.652
15003W        W86674   3.925  14.321   1.897
15004W        W86675  15.997  36.623  14.055
15005W        W86676   8.803   3.830  12.439
15006W        W86677  19.063  20.327  14.933
15007W        W86678  25.112  36.350   2.945
15008W        W86679   6.130  37.726  14.351
15009W        W86680  32.897  29.526   2.591
15010W        W86681  13.949  41.400  12.925
15011W        W86682   7.450  17.165   4.137
15012W        W86683   8.615  10.273   1.323
15013W        W86684   4.287  14.093   1.266
15014W        W86685  36.015   0.912   0.502
15015W        W86686  42.746  18.457   1.901
15016W        W86687   6.127  17.034  11.436
15017W        W86688   6.102  19.624  11.626
15018W        W86689  32.460  23.284   1.199
15019W        W86690  33.156  39.147   2.677
15020W        W86691   4.758  22.138  10.574
15021W        W86692  30.009  29.771  12.670
15022W        W86693   7.328  34.057   0.713
15023W        W86694  14.327   7.488  12.137
15024W        W86695  38.795  42.800  12.856
15025W        W86696   7.713  37.157  11.751
15026W        W86697   5.949  13.818  13.892
15027W        W86698  11.153   9.363  13.968
15028W        W86699  14.709  39.812   2.328
15029W        W86700  30.668  41.522  14.778
15030W        W86701  29.210  43.252   4.047
15031W        W86702  13.637   1.427   0.770
15032W        W86703   2.293   2.808  13.425
15033W        W86704  41.556   5.262  11.908
15034W        W86705  36.524   5.494  10.913
15035W        W86706  31.018  24.765  14.007
15036W        W86707  43.534  13.572  10.604
15037W        W86708  37.360  16.430  14.995
15038W        W86709   1.781  39.039   1.451
15039W        W86710  30.440   7.513  12.596
15040W        W86711   6.180  15.125   0.950
15041W        W86712  20.602  30.752   1.963
15042W        W86713   6.381  36.926  12.704
15043W        W86714  44.472   5.834  13.403
15044W        W86715  33.510   3.274   3.567
15045W        W86716  42.790  21.167   2.361
15046W        W86717  40.480  23.975   4.174
15047W        W86718  17.191  27.132  12.322
15048W        W86719   6.713  36.756   1.837
15049W        W86720  41.800  10.745   1.801
15050W        W86721  32.435  35.087   0.803
15051W        W86722  27.065   2.716  14.964
15052W        W86723  35.576  39.587   0.767
15053W        W86724  26.484  24.475  14.734
15054W        W86725  24.525  10.573  12.836
15055W        W86726  34.824   2.884  14.452
15056W        W86727  28.467  25.848   2.753
15057W        W86728  43.255  27.686   2.774
15058W        W86729  14.536  42.255  14.395
15059W        W86730  29.439   7.884  11.878
15060W        W86731  10.299  32.811   2.710
15061W        W86732  37.608   8.863  12.428
15062W        W86733  28.874  33.494  14.454
15063W        W86734  41.063  39.573  13.987
15064W        W86735  11.272  35.870  10.498
15065W        W86736  26.459   6.777   1.313
15066W        W86737   6.285  25.483   1.661
15067W        W86738  12.478  18.483   0.374
15068W        W86739  24.176  25.596  11.025
15069W        W86740  25.248  28.699   4.188
15070W        W86741  23.462  18.204   0.270
15071W        W86742  11.917  44.471  11.310
15072W        W86743  34.921  28.865   0.728
15073W        W86744  20.349  15.061  12.409
15074W        W86745  21.647  29.488   2.274
15075W        W86746  26.460   7.514   1.745
15076W        W86747  10.621  32.973   1.866
15077W        W86748   7.831  16.177   0.670
15078W        W86749   2.238  25.254   5.028
15079W        W86750  31.979  20.957   4.147
15080W        W86751   1.041  33.325   3.832
15081W        W86752   9.323  13.741  12.878
15082W        W86753  37.937  16.688   4.752
15083W        W86754   6.176  37.306   3.840
15084W        W86755  23.038  17.643  13.078
15085W        W86756  18.542  24.944  12.848
15086W        W86757  32.673  17.827   2.069
15087W        W86758   3.064  26.933   1.803
15088W        W86759   9.874   3.007  13.868
15089W        W86760  11.909  35.089  11.576
15090W        W86761  29.321  10.894  13.567
15091W        W86762  27.186  25.680  14.910
15092W        W86763  18.615  38.481   2.791
15093W        W86764  29.874  16.751   1.138
15094W        W86765  27.187  23.927  14.517
15095W        W86766  34.184  15.413  11.642
15096W        W86767  22.092  39.401  10.967
15097W        W86768  15.294  39.374  14.320
15098W        W86769  13.097  36.033  12.898
15099W        W86770   6.159  31.514  13.436
15100W        W86771   1.890   8.456   0.660
15101W        W86772  10.173  42.736  12.042
15102W        W86773  38.568   9.832  13.051
15103W        W86774   8.322  41.462   3.345
15104W        W86775  34.614  39.348  10.229
15105W        W86776  24.706  44.197  14.021
15106W        W86777  11.242  32.465   4.701
15107W        W86778  36.399  23.293  14.959
15108W        W86779  25.162   9.013  12.868
15109W        W86780  32.130  35.360  13.489
15110W        W86781  16.280  11.292   0.902
15111W        W86782   0.405  13.302  10.640
15112W        W86783  37.585  27.518  10.213
15113W        W86784  14.717  35.141   3.405
15114W        W86785   9.361   5.843  12.509
15115W        W86786  15.126  37.406   2.835
15116W        W86787  27.909  13.643   2.171
15117W        W86788  23.722  40.806   9.762
15118W        W86789  35.302  28.544  10.673
15119W        W86790   4.487  25.805   2.690
15120W        W86791  38.436   6.570   1.262
15121W        W86792  30.541  20.167   3.340
15122W        W86793  27.915  18.244   3.559
15123W        W86794   3.007   2.443   4.497
15124W        W86795  38.526  16.373   1.885
15125W        W86796  39.749  10.181  14.489
15126W        W86797  16.558  15.675  10.240
15127W        W86798  28.947  25.623   2.760
15128W        W86799  20.215  30.652  11.503
15129W        W86800  40.445  22.259  11.167
15130W        W86801   6.284  16.232  14.887
15131W        W86802  14.625  24.079   0.753
15132W        W86803  37.594  27.434  12.996
15133W        W86804  29.598  21.077   1.705
15134W        W86805  31.726  41.664  13.961
15135W        W86806  16.276  44.993  11.568
15136W        W86807  41.900  25.301   1.376
15137W        W86808  13.688  20.812  12.544
15138W        W86809   7.815  10.295   4.845
15139W        W86810   3.330  38.590   0.069
15140W        W86811  37.111  40.213  14.259
15141W        W86812   8.841   8.915  12.067
15142W        W86813   2.704  13.907   2.245
15143W        W86814   0.862  26.994  12.870
15144W        W86815   2.419  23.794  12.478
15145W        W86816   0.158  24.770   4.151
15146W        W86817  25.523  35.359   0.782
15147W        W86818  33.887   1.269  14.424
15148W        W86819   8.515  32.769   2.243
15149W        W86820  23.723   4.900  10.332
15150W        W86821   1.879  15.714  13.155
15151W        W86822  10.384  37.412   2.157
15152W        W86823  36.474  29.436   2.329
15153W        W86824  39.509   6.492  12.640
15154W        W86825   9.267  40.954  10.647
15155W        W86826  23.810  36.850   4.366
15156W        W86827   8.216  12.425  13.042
15157W        W86828  40.309  16.261  14.307
15158W        W86829  16.481   2.345   1.584
15159W        W86830  31.124  42.604   0.326
15160W        W86831  42.993  21.953   1.651
15161W        W86832   1.503  16.207  13.415
15162W        W86833  40.739  20.058  10.759
15163W        W86834  33.097  17.051   2.290
15164W        W86835  40.726  32.022   2.783
15165W        W86836  18.040   4.694  11.650
15166W        W86837  11.272   5.419   1.860
15167W        W86838  34.524   2.139  10.691
15168W        W86839  12.242  32.404  11.387
15169W        W86840  21.580   3.888  12.923
15170W        W86841   8.422  32.698  13.963
15171W        W86842   1.212  23.322  11.971
15172W        W86843  29.068  39.817  11.873
15173W        W86844  19.140   3.829   2.998
15174W        W86845  41.382  28.819  11.197
15175W        W86846  37.415   1.875   1.439
15176W        W86847  27.413  40.089   0.167
15177W        W86848  13.356  40.335  14.442
15178W        W86849  36.612  36.362   2.185
15179W        W86850  27.032  37.803  11.061
15180W        W86851  37.122   3.641   5.014
15181W        W86852  41.053  31.757   3.676
15182W        W86853  13.226  34.560   4.695
15183W        W86854  43.972   5.894   4.218
15184W        W86855  27.347  42.286   2.761
15185W        W86856  42.057  32.484  14.300
15186W        W86857  16.014   4.889  11.383
15187W        W86858   4.715  44.981   0.063
15188W        W86859  20.548  23.970   1.481
15189W        W86860  31.060  39.683   4.179
15190W        W86861  38.247   7.189  11.935
15191W        W86862   8.667  30.878   4.540
15192W        W86863  30.480  28.930   4.801
15193W        W86864  41.568   9.669   2.850
15194W        W86865  12.820   7.165  10.488
15195W        W86866   5.572  25.101   0.207
15196W        W86867  32.444  12.138   0.930
15197W        W86868  15.732  18.538   3.335
15198W        W86869   7.292  33.824   4.088
15199W        W86870  22.558  33.061   1.862
15200W        W86871   5.867  13.533  12.518
15201W        W86872   3.377  44.306  13.421
15202W        W86873  39.284   4.031   4.357
15203W        W86874   3.309  32.321   4.738
15204W        W86875   3.830   2.900  10.709
15205W        W86876  15.916  32.145   3.121
15206W        W86877   9.857  30.409  12.039
15207W        W86878   0.574  15.576   2.719
15208W        W86879  25.434  40.381  13.391
15209W        W86880   3.718   8.697   4.399
15210W        W86881  16.743  26.654   4.206
15211W        W86882  17.512   8.776  13.759
15212W        W86883  14.077   5.255   2.273
15213W        W86884   4.616  20.760   0.085
15214W        W86885   7.820  17.093   0.823
15215W        W86886  27.051  16.299   4.074
15216W        W86887   0.501  41.347  14.392
15217W        W86888  37.538  15.280  12.566
15218W        W86889  27.563  37.618  12.135
15219W        W86890  34.349  39.315  11.592
15220W        W86891  29.717  30.173  11.025
15221W        W86892  42.833   4.029  11.614
15222W        W86893   8.241  42.638   0.406
15223W        W86894  26.533  22.241  14.694
15224W        W86895  27.970  30.008   2.650
15225W        W86896  11.345  17.673   3.644
15226W        W86897  38.843  21.175   5.479
15227W        W86898  21.720  41.338   0.432
15228W        W86899   7.658  43.805   3.198
15229W        W86900  16.799  16.192   3.126
15230W        W86901   4.018  40.932  11.209
15231W        W86902  15.684  11.562   2.313
15232W        W86903  28.869  14.307   3.689
15233W        W86904  14.592   5.599  14.006
15234W        W86905  28.212   9.578   4.992
15235W        W86906   0.904   0.955   4.340
15236W        W86907  25.567   6.073   2.888
15237W        W86908  26.685  25.942  12.908
15238W        W86909  29.427   2.346  11.199
15239W        W86910  42.836  37.547  12.171
15240W        W86911  33.429  12.868   2.254
15241W        W86912  20.194  29.366  13.331
15242W        W86913  20.288  39.547   0.065
15243W        W86914  29.162  11.236   3.879
15244W        W86915  15.686  34.075   4.728
15245W        W86916  11.791  30.488  14.771
15246W        W86917   1.697   4.996   4.059
15247W        W86918   5.533  40.938  10.986
15248W        W86919  39.547  16.518   2.315
15249W        W86920  34.591  36.434  14.430
15250W        W86921  36.515  22.988  11.008
15251W        W86922  28.791  35.094  13.315
15252W        W86923  29.638  34.182   1.442
15253W        W86924  22.854  21.492   4.753
15254W        W86925   3.641  24.159   4.181
15255W        W86926  12.235   7.816  11.974
15256W        W86927  32.860  20.849  12.152
15257W        W86928  27.984   8.746  11.864
15258W        W86929  40.510  34.333  11.554
15259W        W86930  33.923  37.339   1.829
15260W        W86931   7.263   2.419   3.784
15261W        W86932  28.476  40.429   3.134
15262W        W86933  29.240   3.311   3.206
15263W        W86934  29.112  22.663  11.670
15264W        W86935  38.649  28.606  11.090
15265W        W86936   0.707  22.741  12.366
15266W        W86937  39.790  43.445  13.452
15267W        W86938  32.093  10.149   4.510
15268W        W86939  31.444  23.561   3.100
15269W        W86940  28.124   1.830  11.616
15270W        W86941   0.941  18.321  12.900
15271W        W86942  31.471  27.697  12.852
15272W        W86943  12.896  41.238  11.511
15273W        W86944   6.827   4.882   3.697
15274W        W86945  20.676  10.425  14.463
15275W        W86946  11.094  26.588   4.777
15276W        W86947  36.552  14.127  13.292
15277W        W86948  24.298  31.916   3.177
15278W        W86949  28.029  25.521   4.573
15279W        W86950  32.932   5.673   0.585
15280W        W86951  38.357  17.087   1.341
15281W        W86952  19.361  19.562   3.296
15282W        W86953  16.719  27.951   2.771
15283W        W86954  36.909  12.575  10.936
15284W        W86955  21.316   9.431  11.041
15285W        W86956  10.782  32.523   2.766
15286W        W86957  24.248  28.550  13.589
15287W        W86958   8.419   1.556  14.484
15288W        W86959  30.730  33.918  13.140
15289W        W86960   0.187  40.131  14.867
15290W        W86961   7.863  17.469  14.293
15291W        W86962  18.089  23.587   1.276
15292W        W86963  18.973  30.382   0.545
15293W        W86964   5.426   3.625  11.924
15294W        W86965  41.445  35.283   3.843
15295W        W86966   8.479  24.020  13.006
15296W        W86967  43.387  33.601   3.658
15297W        W86968  12.005  39.480   0.044
15298W        W86969  38.081  29.571  13.949
15299W        W86970  20.403  10.850   0.803
15300W        W86971  37.328  33.950  11.066
15301W        W86972   9.245   6.069  13.325
15302W        W86973   2.392  26.241  12.667
15303W        W86974   1.518  21.742   0.354
15304W        W86975   6.899  42.845   0.837
15305W        W86976  32.438   2.474   4.773
15306W        W86977  20.790  23.553   1.705
15307W        W86978  40.981  27.667   3.786
15308W        W86979  36.785   0.890  13.087
15309W        W86980  38.931  23.879   4.975
15310W        W86981  37.033  13.196   3.603
15311W        W86982  40.723  10.262  11.021
15312W        W86983  40.820  15.948  13.281
15313W        W86984   3.702  33.875   2.496
15314W        W86985  11.991   1.334  14.491
15315W        W86986  37.536  40.851  10.973
15316W        W86987  40.207  36.711   4.410
15317W        W86988  25.135  27.889  13.130
15318W        W86989   9.363   4.464  12.869
15319W        W86990  24.588   6.976  13.432
15320W        W86991  29.087  30.716   4.314
15321W        W86992  37.930  25.421   2.771
15322W        W86993  19.982   0.292   4.698
15323W        W86994  22.272  25.428   1.898
15324W        W86995  14.568  19.801  12.162
15325W        W86996  15.770  17.879  11.064
15326W        W86997  29.121  29.209  11.060
15327W        W86998   6.401  22.852  13.833
15328W        W86999  39.336   2.769  11.589
15329W        W87000  11.055  32.020   2.888
15330W        W87001   3.137   4.448   3.838
15331W        W87002  10.918  10.819   4.565
15332W        W87003  43.492   8.359   4.694
15333W        W87004  31.990  41.312  13.071
15334W        W87005   9.438  10.640   1.514
15335W        W87006   7.106  42.302   4.280
15336W        W87007  31.149   7.435  12.109
15337W        W87008  38.902  28.009   3.604
15338W        W87009  22.518  12.580  14.892
15339W        W87010  28.630  18.309  14.347
15340W        W87011   0.306  30.764   0.444
15341W        W87012  27.642   5.310  10.484
15342W        W87013   4.194   3.548  13.253
15343W        W87014  34.406  39.550   5.034
15344W        W87015  21.713  40.422  11.054
15345W        W87016  18.649  36.009  11.080
15346W        W87017  14.531   0.881   3.796
15347W        W87018  30.381  33.569  14.640
15348W        W87019  16.172  40.398  10.071
15349W        W87020  36.151   5.757  12.991
15350W        W87021  35.871   5.455   1.532
15351W        W87022  39.289  18.492  11.577
15352W        W87023  17.590  40.383  13.267
15353W        W87024   4.965  30.757   0.885
15354W        W87025  39.058  15.153   1.378
15355W        W87026   1.380  24.128  14.931
15356W        W87027  31.066  23.984   4.717
15357W        W87028  11.354  31.344   0.464
15358W        W87029  24.624  44.876  13.524
15359W        W87030  40.080  33.097   4.335
15360W        W87031  16.893   5.347   4.153
15361W        W87032  41.458  19.318  12.521
15362W        W87033   1.256  40.417   2.786
15363W        W87034  43.375  17.761   1.412
15364W        W87035  32.928  39.012   4.043
15365W        W87036  25.689  35.450   0.273
15366W        W87037  40.918  40.544   0.478
15367W        W87038  14.696  14.668  14.741
15368W        W87039  34.406  20.801  14.362
15369W        W87040  19.295  17.523   1.805
15370W        W87041  43.222  31.840  12.108
15371W        W87042   5.644  31.077   1.390
15372W        W87043  40.910  27.656  13.426
15373W        W87044   2.352  41.442  12.974
15374W        W87045  30.311  36.514   1.471
15375W        W87046  33.477  29.519  10.729
15376W        W87047  26.151  31.127  12.496
15377W        W87048  22.117  25.270   4.555
15378W        W87049  38.279  24.455   2.533
15379W        W87050  28.712  40.244   4.764
15380W        W87051   9.272  19.689   4.055
15381W        W87052  28.327  30.090  11.583
15382W        W87053  27.101   7.643  11.477
15383W        W87054  15.093   1.822   4.539
15384W        W87055  37.825  35.146  12.088
15385W        W87056  24.481   9.344   3.694
15386W        W87057  14.620  24.832   3.147
15387W        W87058  15.693   5.460  12.355
15388W        W87059  11.394  15.593   1.936
15389W        W87060  12.703  44.773  13.065
15390W        W87061  29.593  44.343   4.580
15391W        W87062  17.640  14.385  13.563
15392W        W87063  24.689  10.707  13.814
15393W        W87064  37.076  15.676   3.358
15394W        W87065   8.797   4.444   0.900
15395W        W87066  25.363   3.198   4.633
15396W        W87067  41.889   3.708  12.362
15397W        W87068  40.779   6.360  11.713
15398W        W87069  20.242  28.552  14.373
15399W        W87070  23.704  22.606  14.820
15400W        W87071  30.576   6.457   4.153
15401W        W87072  32.241   0.079  13.683
15402W        W87073  22.231  31.105  11.085
15403W        W87074  40.560   2.837   1.317
15404W        W87075   8.891  23.163  10.846
15405W        W87076  38.963  18.139   0.349
15406W        W87077  36.942   2.767   4.256
15407W        W87078  20.161  10.466  10.688
15408W        W87079  29.204  42.982  13.801
15409W        W87080  17.818   3.431   4.359
15410W        W87081   1.730  14.802   2.762
15411W        W87082  23.490  37.754   4.163
15412W        W87083   6.882  29.880   3.650
15413W        W87084  36.083  38.800  12.134
15414W        W87085  25.782  28.404  14.963
15415W        W87086  17.104  25.769   4.607
15416W        W87087  36.507  44.365   3.243
15417W        W87088  30.459  22.980  12.333
15418W        W87089  13.253  43.515   3.745
15419W        W87090  32.878   9.315  13.355
15420W        W87091  41.478  32.386  11.203
15421W        W87092  38.324  39.388  10.333
15422W        W87093  22.002  39.410   2.234
15423W        W87094  21.552  17.574   1.276
15424W        W87095   5.812  10.779   0.871
15425W        W87096   6.516  27.004  14.215
15426W        W87097   9.861  36.488  14.724
15427W        W87098  24.068  38.035  14.537
15428W        W87099   1.123   1.268   1.941
15429W        W87100   4.467  10.251  14.649
15430W        W87101   4.619  10.159  14.130
15431W        W87102  10.324   7.451   3.350
15432W        W87103  18.146  21.324  13.371
15433W        W87104  12.580  36.602   0.292
15434W        W87105   3.785  40.524   0.263
15435W        W87106   6.621  14.252   3.517
15436W        W87107  13.409   6.922   4.585
15437W        W87108  23.969  30.387   4.430
15438W        W87109  39.299  22.796  11.003
15439W        W87110  18.160  22.088   2.733
15440W        W87111  36.551  11.292  14.790
15441W        W87112  14.050   1.880  13.876
15442W        W87113   9.790  37.739  11.119
15443W        W87114  26.657  18.503   4.744
15444W        W87115   3.616  31.878   3.427
15445W        W87116  35.309  38.903  14.335
15446W        W87117  33.841   0.680   1.684
15447W        W87118  30.947  18.172   2.465
15448W        W87119  21.018   1.688  11.221
15449W        W87120  14.712  19.656   2.271
15450W        W87121   1.152  42.909  10.006
15451W        W87122  38.169   1.943   0.252
15452W        W87123  22.513   0.963   1.888
15453W        W87124  25.601  35.882   0.927
15454W        W87125  10.693  36.468   0.242
15455W        W87126  36.806  22.273   3.707
15456W        W87127  15.197  43.292   2.364
15457W        W87128  17.085  11.533   0.469
15458W        W87129  14.866  38.081  12.465
15459W        W87130  26.425  18.738   3.917
15460W        W87131  29.126   9.628   2.291
15461W        W87132   0.353  42.444   3.714
15462W        W87133   8.826   8.146  12.898
15463W        W87134   7.905  29.659  12.072
15464W        W87135  18.704  40.690   1.885
15465W        W87136  34.685   4.168  14.888
15466W        W87137   5.465  20.067   4.176
15467W        W87138   4.360  35.223   3.978
15468W        W87139   0.223  19.280  11.579
15469W        W87140  39.573  13.799  14.796
15470W        W87141  21.979  43.798  14.629
15471W        W87142   2.478  19.747   3.238
15472W        W87143   8.426  44.311   1.190
15473W        W87144  29.832  31.825  14.413
15474W        W87145   5.641  21.605  13.403
15475W        W87146  34.851  27.630   3.695
15476W        W87147  16.606  32.248  12.018
15477W        W87148  28.505  10.904  14.782
15478W        W87149  37.551  32.685  14.872
15479W        W87150  35.003  19.670   0.220
15480W        W87151  10.119  24.135  12.532
15481W        W87152  21.414  41.489   0.052
15482W        W87153  40.115  19.915  13.409
15483W        W87154  29.470  16.100   0.888
15484W        W87155  44.341  21.786   4.967
15485W        W87156   7.032  16.735   2.521
15486W        W87157  21.765  26.562   1.349
15487W        W87158  29.129  21.210   3.731
15488W        W87159  42.380  25.097   1.207
15489W        W87160  36.445  18.645   2.122
15490W        W87161  22.864  36.507  13.399
15491W        W87162  19.793  12.659   4.568
15492W        W87163  36.426  33.142   4.812
15493W        W87164  22.664   2.572  12.010
15494W        W87165  21.543   4.303  11.175
15495W        W87166   7.660  37.029  13.508
15496W        W87167  40.026  17.645  13.540
15497W        W87168  18.255  34.599   1.036
15498W        W87169  22.420  21.711   0.526
15499W        W87170   0.871  24.492   1.666
15500W        W87171  34.609  43.756   2.839
15501W        W87172  14.602   7.362   1.489
15502W        W87173  41.483   5.806   3.056
15503W        W87174   7.125  11.232   4.675
15504W        W87175   4.938   9.879  11.145
15505W        W87176  29.673  14.684  14.523
15506W        W87177  18.585  22.270  14.433
15507W        W87178  43.813  13.826   0.405
15508W        W87179  18.187   7.753   3.619
15509W        W87180  21.576  32.188  13.456
15510W        W87181  37.728  21.707   0.475
15511W        W87182  15.896   3.326   2.301
15512W        W87183   0.313  34.774   4.555
15513W        W87184  21.745  33.174   2.759
15514W        W87185   2.415   6.266  12.624
15515W        W87186   8.159   0.809   0.121
15516W        W87187  13.216  23.138  11.497
15517W        W87188  24.523  30.421  12.050
15518W        W87189  25.215   0.560   4.811
15519W        W87190  19.339  37.067   5.063
15520W        W87191  27.129  26.906  11.495
15521W        W87192  33.575  29.555  13.095
15522W        W87193  18.789  19.776   1.134
15523W        W87194  30.383  16.615   4.225
15524W        W87195   3.682  41.153   1.417
15525W        W87196   5.802   2.725  14.160
15526W        W87197  42.679  10.917   0.821
15527W        W87198  13.229  38.020   1.590
15528W        W87199  39.261   1.189   3.855
15529W        W87200  33.026  24.245  11.329
15530W        W87201  26.122  10.353   2.486
15531W        W87202   5.418  25.191   1.233
15532W        W87203  32.502  44.344  13.192
15533W        W87204  18.782  27.102   2.603
15534W        W87205  42.795  17.224   1.849
15535W        W87206  22.107  17.152   4.920
15536W        W87207  20.025  15.305  12.977
15537W        W87208   1.743  30.535  10.867
15538W        W87209  40.490  27.619   1.462
15539W        W87210   5.315  32.877   1.972
15540W        W87211  34.993   1.250  12.631
15541W        W87212   2.504   1.069   3.075
15542W        W87213  31.628  17.158   4.915
15543W        W87214  42.316  20.729   4.247
15544W        W87215  32.827   7.320  11.312
15545W        W87216  31.631   5.925  11.622
15546W        W87217  42.970  15.532   5.395
15547W        W87218  24.562  38.065  12.385
15548W        W87219  40.427  44.277  12.001
15549W        W87220  42.715  37.428   3.765
15550W        W87221  29.597  16.172   2.844
15551W        W87222  19.323  19.208  12.067
15552W        W87223  11.917   8.317  10.077
15553W        W87224  36.079  43.253   1.373
15554W        W87225  33.178  34.917   2.411
15555W        W87226   5.500  23.659   1.399
15556W        W87227  28.050   1.338   4.605
15557W        W87228  36.266   4.396  11.914
15558W        W87229  10.397   2.157   3.093
15559W        W87230  13.894  20.386  11.458
15560W        W87231  32.979  32.596  14.312
15561W        W87232  25.893   1.939   5.042
15562W        W87233  28.870  16.749  11.706
15563W        W87234   2.628  35.876   1.398
15564W        W87235  43.722   1.480   2.364
15565W        W87236  33.428  25.238   5.122
15566W        W87237   6.707  42.695  14.558
15567W        W87238   9.122  29.559  11.605
15568W        W87239  24.405  41.985   3.819
15569W        W87240  25.805   2.947  14.337
15570W        W87241  28.487   5.589   4.972
15571W        W87242  27.926   4.215  11.996
15572W        W87243   0.931  20.045   1.162
15573W        W87244  27.111  22.476   4.222
15574W        W87245  32.162  39.038   1.012
15575W        W87246  42.089  27.489  12.111
15576W        W87247  30.153  15.256   1.579
15577W        W87248  10.614  19.286  13.827
15578W        W87249   2.556  15.321  14.443
15579W        W87250  28.999  14.423   0.152
15580W        W87251  36.848  10.437   0.424
15581W        W87252  31.166   5.926  10.715
15582W        W87253  40.503  41.879   0.223
15583W        W87254  30.268  29.633  11.598
15584W        W87255  16.378  28.075  14.979
15585W        W87256   1.754  36.137   4.699
15586W        W87257  18.495   9.781   4.201
15587W        W87258  11.073  36.077   3.202
15588W        W87259  32.311   4.315   0.335
15589W        W87260   9.680  29.660  11.564
15590W        W87261  32.487  35.113   4.108
15591W        W87262  35.637  17.207  12.392
15592W        W87263  28.994  36.291  13.880
15593W        W87264  27.572  10.361   4.096
15594W        W87265  40.814  17.814   0.880
15595W        W87266  27.635  29.180   4.331
15596W        W87267  35.009  15.782  13.339
15597W        W87268  44.268  19.162  13.292
15598W        W87269  24.952  29.926  10.693
15599W        W87270  14.181   7.914   5.075
15600W        W87271  24.925  39.877   4.058
15601W        W87272  14.598  15.672   2.742
15602W        W87273  11.816  31.784   3.295
15603W        W87274  32.982   7.450   3.352
15604W        W87275  40.114  13.397  14.890
15605W        W87276  27.629  13.102  13.814
15606W        W87277   6.039  31.038  13.260
15607W        W87278  43.718  40.109  11.987
15608W        W87279  11.928  40.336   1.419
15609W        W87280   8.612   3.637   0.245
15610W        W87281  10.711  33.988   5.069
15611W        W87282   0.701  24.723   1.208
15612W        W87283  27.745   7.762   1.816
15613W        W87284  30.016  24.147  12.102
15614W        W87285  40.417  13.837   2.223
15615W        W87286  16.064  34.740  11.456
15616W        W87287  10.540  43.566  12.644
15617W        W87288  33.506  28.548  14.632
15618W        W87289   1.195  40.958   3.782
15619W        W87290  13.244  22.631  11.403
15620W        W87291   1.224  44.413   3.334
15621W        W87292  40.977  42.295  14.833
15622W        W87293  13.823  19.302  14.907
15623W        W87294  14.616  24.983  10.685
15624W        W87295  17.144   6.756   2.927
15625W        W87296  33.971   5.891  14.630
15626W        W87297  11.321  31.629   1.700
15627W        W87298  12.721  44.713   4.325
15628W        W87299  25.409  43.103   1.235
15629W        W87300  37.890   7.633  14.862
15630W        W87301  15.811  40.574   1.623
15631W        W87302  37.560  42.310   3.753
15632W        W87303  27.128   8.148  11.581
15633W        W87304   2.764   9.836   2.450
15634W        W87305  27.429  11.095   1.428
15635W        W87306   6.195  26.438   1.781
15636W        W87307   9.733   6.669  13.355
15637W        W87308  17.088  29.338  13.462
15638W        W87309   7.210  13.072   1.440
15639W        W87310   2.308   1.179  11.635
15640W        W87311  39.631   5.186  14.374
15641W        W87312  16.061  17.291   4.663
15642W        W87313  39.482   8.631  14.464
15643W        W87314   8.569  16.060  13.342
15644W        W87315  20.660  15.199   2.781
15645W        W87316  40.465  43.769  12.672
15646W        W87317  34.824  41.852   2.618
15647W        W87318  23.557  10.087  14.261
15648W        W87319   6.454  39.941   3.763
15649W        W87320   4.968  40.534   0.258
15650W        W87321  19.120  24.992  11.376
15651W        W87322  37.877  23.108   2.295
15652W        W87323  18.929  32.145  13.575
15653W        W87324  27.627  43.676  11.827
15654W        W87325  26.092   8.854  11.060
15655W        W87326  19.809  29.615  13.068
15656W        W87327  14.059   5.681   0.781
15657W        W87328   8.812  32.823  14.316
15658W        W87329  28.923   7.746  10.330
15659W        W87330  10.148   4.220   1.461
15660W        W87331  28.473  35.526  13.354
15661W        W87332  17.995   6.978  12.416
15662W        W87333   3.933   7.826   0.286
15663W        W87334  32.716  21.587   1.891
15664W        W87335  35.828  16.408   0.406
15665W        W87336  37.886  38.763   2.601
15666W        W87337   7.913  42.456  13.772
15667W        W87338  13.397  40.219   2.201
15668W        W87339  41.046  32.819  12.465
15669W        W87340  41.526   2.748  14.883
15670W        W87341   9.846  19.001   1.966
15671W        W87342  35.385  36.556  11.703
15672W        W87343  27.526  33.061  11.751
15673W        W87344  26.190  23.007   3.784
15674W        W87345  32.342  19.307  10.752
15675W        W87346  26.805  44.796  11.157
15676W        W87347  26.513  15.823  14.308
15677W        W87348   9.059   1.028   1.834
15678W        W87349  40.561  15.854  11.064
15679W        W87350  16.772  23.255  12.554
15680W        W87351  24.416  29.159  13.456
15681W        W87352  19.567   0.009  10.812
15682W        W87353  31.015  18.744   2.171
15683W        W87354   3.956   0.315   0.218
15684W        W87355  28.175  29.457   3.279
15685W        W87356  43.277  11.227  11.447
15686W        W87357  44.174   8.346  12.956
15687W        W87358  39.750  12.403   0.879
15688W        W87359  37.851  32.110   1.385
15689W        W87360  36.886  38.771   1.178
15690W        W87361  19.561  35.913   3.853
15691W        W87362   5.199  28.998  12.024
15692W        W87363  25.033  34.469  14.832
15693W        W87364  38.096  14.691  11.333
15694W        W87365   2.011   4.542   1.952
15695W        W87366   4.341   2.412  11.490
15696W        W87367  32.030  44.983   2.170
15697W        W87368  16.113  25.764   3.061
15698W        W87369  13.312  20.000   4.304
15699W        W87370  11.737  19.116   1.755
15700W        W87371  30.993  35.366   4.269
15701W        W87372   8.963  23.612  10.058
15702W        W87373  20.187  22.286  12.506
15703W        W87374   1.548  22.333  13.769
15704W        W87375  37.911  15.179  14.893
15705W        W87376  34.994  30.444  14.947
15706W        W87377  21.114  35.613   3.380
15707W        W87378  21.759  23.575  14.037
15708W        W87379  44.524  16.662   3.381
15709W        W87380   8.110  43.032   2.554
15710W        W87381  20.578   0.954   2.802
15711W        W87382  20.784  11.146   1.036
15712W        W87383   5.614  19.318  11.595
15713W        W87384  43.009  36.472   1.609
15714W        W87385   9.623  38.877  12.780
15715W        W87386  21.213  39.039  13.946
15716W        W87387   8.667   8.885  11.593
15717W        W87388  35.602   4.273  10.567
15718W        W87389   1.247  35.331   2.308
15719W        W87390   3.887  40.384  10.731
15720W        W87391  22.892  40.425  12.102
15721W        W87392  39.455  18.729   4.674
15722W        W87393   8.176  28.141  13.128
15723W        W87394  37.871  37.598  11.474
15724W        W87395  43.442   9.382   1.466
15725W        W87396  35.338   9.423  14.771
15726W        W87397  26.690  25.430  14.892
15727W        W87398   3.651  14.695  13.469
15728W        W87399  26.834  14.692  10.731
15729W        W87400   8.076  22.627  10.475
15730W        W87401  34.899   3.394  11.149
15731W        W87402  41.866  28.421  11.084
15732W        W87403  36.844  44.533   0.373
15733W        W87404   4.317  35.739   3.841
15734W        W87405  41.874  40.283  11.457
15735W        W87406   1.554  36.336   2.759
15736W        W87407  21.567  33.831   0.495
15737W        W87408  22.650  16.194  13.620
15738W        W87409  12.246  33.800  12.906
15739W        W87410  16.818   5.279  11.062
15740W        W87411  10.606  35.541   2.581
15741W        W87412  39.791   3.132   1.728
15742W        W87413   4.643  13.734   3.301
15743W        W87414  18.762   8.358  13.349
15744W        W87415   2.054  22.087   2.678
15745W        W87416  22.376  13.343  11.344
15746W        W87417  12.730   0.031   1.403
15747W        W87418  42.469  19.500   0.435
15748W        W87419  36.381  42.312  11.904
15749W        W87420   6.164  35.633   3.355
15750W        W87421  26.750   8.119   4.260
15751W        W87422  34.497  11.488   3.062
15752W        W87423  27.480  19.090  14.488
15753W        W87424  31.796  27.486  13.195
15754W        W87425  44.961   4.165  10.735
15755W        W87426  39.916  13.650   2.264
15756W        W87427  42.494   6.458  14.468
15757W        W87428  19.991   3.315   4.189
15758W        W87429  25.241  19.524   0.278
15759W        W87430   3.749  15.685  10.686
15760W        W87431  33.958  26.324   1.155
15761W        W87432  22.098  39.269  13.459
15762W        W87433  24.534  24.993  10.882
15763W        W87434  25.654  11.602  12.900
15764W        W87435  15.180  27.951  14.587
15765W        W87436  39.826   1.879   4.162
15766W        W87437  23.654  16.265   0.304
15767W        W87438   0.052  10.751  11.471
15768W        W87439   9.902  16.023   4.243
15769W        W87440  13.998  11.706   4.254
15770W        W87441   7.963  18.582  13.044
15771W        W87442  21.956  33.930  13.789
15772W        W87443  39.867  13.793   4.831
15773W        W87444  25.117  22.264  14.265
15774W        W87445   4.717  34.258  11.910
15775W        W87446   3.496  17.044  10.696
15776W        W87447  34.085  25.499  12.966
15777W        W87448  22.083  32.884   1.996
15778W        W87449   5.506  19.789   3.744
15779W        W87450  29.525  33.874  11.861
15780W        W87451  18.579   2.919   2.299
15781W        W87452   1.774  36.010  13.388
15782W        W87453   3.720  26.438   2.250
15783W        W87454  27.496   2.969  11.546
15784W        W87455  20.647  25.788   3.562
15785W        W87456  36.437   6.453   0.516
15786W        W87457  17.051  19.255  11.570
15787W        W87458   0.364  17.601   1.158
15788W        W87459  29.608  41.040   0.193
15789W        W87460  43.777   3.507   2.838
15790W        W87461  10.692  41.402  13.608
15791W        W87462   4.952  18.196  11.614
15792W        W87463  17.733  37.863  11.129
15793W        W87464  39.526  26.965   0.146
15794W        W87465  17.674  20.947  14.397
15795W        W87466  31.125  31.871  10.350
15796W        W87467  33.628  26.586  12.152
15797W        W87468   8.757  37.725   5.259
15798W        W87469  31.953  39.642  13.867
15799W        W87470  19.067  26.658   2.835
15800W        W87471  37.425  26.838  10.014
15801W        W87472  38.445  24.943  14.776
15802W        W87473  37.267  34.925   1.714
15803W        W87474  38.910  40.585  10.495
15804W        W87475  41.101  17.981   1.777
15805W        W87476   7.102  13.811   4.018
15806W        W87477   1.792   6.908  13.084
15807W        W87478  13.585  14.769  13.573
15808W        W87479   6.250  25.655   2.275
15809W        W87480  12.031  44.213  13.069
15810W        W87481   1.825  18.932  11.542
15811W        W87482  20.628   2.931   4.645
15812W        W87483  20.957  23.061   3.665
15813W        W87484   7.008  41.308  10.877
15814W        W87485  43.716   8.194  12.802
15815W        W87486  22.337  17.260  13.129
15816W        W87487  37.030   5.094   2.926
15817W        W87488  41.496   2.295   3.412
15818W        W87489  10.766   1.503   2.731
15819W        W87490   8.171  21.106  14.310
15820W        W87491  10.143  26.183  13.515
15821W        W87492   7.934  16.058   3.303
15822W        W87493  28.929  13.160  10.619
15823W        W87494   5.188  19.749  11.475
15824W        W87495  39.397   2.748   3.761
15825W        W87496   7.409  15.617   0.344
15826W        W87497  28.163  11.389   2.246
15827W        W87498   0.690  11.401  10.341
15828W        W87499  32.886  21.141  12.584
15829W        W87500   9.745  42.851   0.022
15830W        W87501  40.325  30.886   4.252
15831W        W87502  29.444  26.442  11.830
15832W        W87503   4.928  29.217   4.076
15833W        W87504   6.668  21.663   4.001
15834W        W87505   9.258  38.857   0.344
15835W        W87506   1.629  19.826   2.799
15836W        W87507  38.242  16.695   2.211
15837W        W87508  32.826  25.583  11.591
15838W        W87509   6.806  10.208  12.909
15839W        W87510  35.873  43.983  13.459
15840W        W87511  25.420  18.188   0.742
15841W        W87512  21.509   0.082   3.828
15842W        W87513  28.713  36.897   4.414
15843W        W87514  14.270  36.434  11.171
15844W        W87515  44.786  27.036   2.148
15845W        W87516  20.482  18.079   4.170
15846W        W87517  44.269   9.120  11.015
15847W        W87518  42.590  13.489  11.087
15848W        W87519  25.525  19.083  11.967
15849W        W87520   8.057  44.595  14.929
15850W        W87521  36.650  32.637   2.816
15851W        W87522  19.742  27.532  10.778
15852W        W87523  29.192   0.739  12.565
15853W        W87524  26.496   3.937   4.074
15854W        W87525  30.725  32.027  10.659
15855W        W87526  20.862  39.036  10.671
15856W        W87527  32.697   5.876   1.211
15857W        W87528  11.065  33.550  13.999
15858W        W87529  35.825   7.439  11.714
15859W        W87530  20.454  31.798   0.478
15860W        W87531  16.128  36.576   3.296
15861W        W87532  37.085   5.205   4.193
15862W        W87533  35.901  43.650   1.654
15863W        W87534  22.809  16.078   0.419
15864W        W87535  11.956  16.628   2.723
15865W        W87536   7.190   5.806   3.206
15866W        W87537  31.030  32.712  11.398
15867W        W87538  17.585  18.529   1.927
15868W        W87539  38.228  33.055  13.817
15869W        W87540  19.853  21.764  11.126
15870W        W87541   5.330  10.779  13.540
15871W        W87542  35.554  10.132  12.741
15872W        W87543   4.383  38.426   0.967
15873W        W87544  21.243  36.071   1.993
15874W        W87545   2.245  22.511   4.101
15875W        W87546  23.544  19.023  14.957
15876W        W87547  30.349  37.916  11.337
15877W        W87548  34.579  28.449  11.826
15878W        W87549   0.875  20.232  10.301
15879W        W87550  13.079  36.571   4.480
15880W        W87551  13.599  28.523  12.402
15881W        W87552  20.998   8.331  14.443
15882W        W87553   1.019  12.192   0.036
15883W        W87554  31.329  38.494   1.768
15884W        W87555   1.661   1.510   4.096
15885W        W87556  35.902  23.659  10.495
15886W        W87557  41.930  26.406   3.053
15887W        W87558  31.559  29.564   2.313
15888W        W87559  14.646   8.410  13.587
15889W        W87560  19.397  12.985   4.516
15890W        W87561   8.369  26.191   2.674
15891W        W87562   4.189   0.537   3.683
15892W        W87563  32.417  38.991  12.368
15893W        W87564   3.833   2.720  13.339
15894W        W87565   9.306  30.659   4.262
15895W        W87566  22.703  36.580  12.134
15896W        W87567  24.572  18.938   4.666
15897W        W87568  39.949  32.347  11.495
15898W        W87569  39.633  23.438   3.861
15899W        W87570   9.899  23.143   4.939
15900W        W87571  35.921  34.466   0.469
15901W        W87572  35.538  18.618  13.064
15902W        W87573  27.005  19.370   4.786
15903W        W87574   8.876  18.112  13.876
15904W        W87575  29.637  21.692   3.909
15905W        W87576  15.313  22.804   3.799
15906W        W87577  13.045  17.662   4.657
15907W        W87578  13.574  32.104  13.857
15908W        W87579  18.364  41.944   0.393
15909W        W87580   6.829  24.994  12.541
15910W        W87581   6.923  26.136  13.318
15911W        W87582  43.161  22.350   2.270
15912W        W87583  36.098   4.208   0.484
15913W        W87584   3.463  31.535   2.699
15914W        W87585  21.518  24.966   1.197
15915W        W87586  14.610  35.557  11.778
15916W        W87587   6.946  17.856  12.464
15917W        W87588  16.736  26.535  13.394
15918W        W87589  31.717  24.243  11.573
15919W        W87590  24.492  24.565  10.617
15920W        W87591   1.879   1.204   2.302
15921W        W87592   2.215  40.861  12.526
15922W        W87593  11.654   9.194   1.748
15923W        W87594  40.562   1.957   3.757
15924W        W87595   3.979  29.088   2.747
15925W        W87596  20.419  23.734  13.477
15926W        W87597  17.729  35.642   1.895
15927W        W87598  40.460  13.689  11.944
15928W        W87599  37.691  12.151   3.282
15929W        W87600   8.914  40.479  12.958
15930W        W87601  17.170  22.732  13.882
15931W        W87602  23.002   6.768  12.064
15932W        W87603  38.591  34.788  12.413
15933W        W87604  13.249  20.568  12.417
15934W        W87605  15.956  19.715   5.029
15935W        W87606  30.672  33.031   3.648
15936W        W87607  13.685   6.929  10.650
15937W        W87608  36.233   5.077  12.014
15938W        W87609   9.097  14.558   0.819
15939W        W87610  12.649  12.997  14.926
15940W        W87611  24.606  21.974   1.911
15941W        W87612   0.837  13.709   2.591
15942W        W87613  35.639  18.797  13.568
15943W        W87614   3.257   8.399  14.754
15944W        W87615   6.244  41.451  13.984
15945W        W87616  39.957  22.750   4.474
15946W        W87617  13.096   4.061  13.878
15947W        W87618   0.500  39.357  14.359
15948W        W87619  37.571  39.086   2.893
15949W        W87620  39.057   4.739   1.364
15950W        W87621  43.497  32.945   4.860
15951W        W87622  20.856   7.889  14.219
15952W        W87623  21.430  23.023  12.056
15953W        W87624  13.701  26.621  14.965
15954W        W87625   5.210   1.828  12.604
15955W        W87626   3.053  17.616  11.420
15956W        W87627   9.294  18.917   1.312
15957W        W87628  23.712  40.600  13.011
15958W        W87629  27.328   6.246   5.298
15959W        W87630  43.831   7.218  14.418
15960W        W87631   9.489  32.497   3.292
15961W        W87632  11.368  39.354   3.742
15962W        W87633  13.127  38.829   2.619
15963W        W87634   0.858  35.000   4.442
15964W        W87635  43.314  11.578   9.665
15965W        W87636  36.068  43.110  11.123
15966W        W87637  17.771   7.387   3.194
15967W        W87638   5.262  19.289   4.037
15968W        W87639  25.004   5.751   3.564
15969W        W87640  12.283   3.169  11.510
15970W        W87641   4.416   8.843  12.588
15971W        W87642  34.453   4.243  12.425
15972W        W87643  41.391  16.229  13.940
15973W        W87644  22.218  29.505   0.357
15974W        W87645  30.734  36.856  14.549
15975W        W87646  18.009  19.745   0.519
15976W        W87647  29.401  11.759  14.318
15977W        W87648  19.779   9.682  13.934
15978W        W87649  34.414  11.822  13.966
15979W        W87650  25.102  39.648   1.626
15980W        W87651  37.858   7.672  13.738
15981W        W87652  17.663  16.751   2.992
15982W        W87653   6.035  24.272   1.789
15983W        W87654  34.545  20.300   3.311
15984W        W87655   0.485  38.612   3.097
15985W        W87656  18.056  34.845  12.102
15986W        W87657  12.240  42.821   4.575
15987W        W87658   9.944   0.308   4.125
15988W        W87659  37.055   6.904   1.672
15989W        W87660   5.057  26.975  10.265
15990W        W87661  35.562   8.740  14.243
15991W        W87662   9.860  30.398  14.035
15992W        W87663  15.767  35.681  11.369
15993W        W87664  10.707   9.235   2.207
15994W        W87665   9.358  28.642  10.555
15995W        W87666   0.124  22.052   2.314
15996W        W87667  41.140   3.264   2.322
15997W        W87668   7.827  11.935  14.920
15998W        W87669  24.776   8.905  14.862
15999W        W87670  33.782   8.207   4.423
16000W        W87671  41.455  26.671   0.504
16001W        W87672  21.420  22.953  12.995
16002W        W87673   1.932  33.423  11.523
16003W        W87674  13.705  18.966   2.913
16004W        W87675  15.222   6.010   1.883
16005W        W87676  34.306  11.280   1.711
16006W        W87677  13.399  12.729  12.077
16007W        W87678   0.903  18.820  12.228
16008W        W87679   5.651  31.939  10.681
16009W        W87680  36.141   0.502   1.661
16010W        W87681  21.605  34.132  14.321
16011W        W87682  13.295  22.770  13.846
16012W        W87683  17.733  44.304   2.096
16013W        W87684  32.327  15.280   1.990
16014W        W87685  43.276  39.340  12.599
16015W        W87686  43.133  13.889  10.561
16016W        W87687   1.931  34.155  13.907
16017W        W87688  11.424   8.506   3.150
16018W        W87689  42.870   8.644  11.553
16019W        W87690  43.495  34.301  14.456
16020W        W87691   1.813   5.280  10.791
16021W        W87692  33.035  27.441   3.148
16022W        W87693  38.484  18.762   3.342
16023W        W87694  15.337   3.132   3.158
16024W        W87695  27.053  34.855   4.865
16025W        W87696  30.995  31.034  11.430
16026W        W87697  37.862  35.514  11.677
16027W        W87698  41.907  19.353  11.581
16028W        W87699   0.180  20.125   5.483
16029W        W87700   3.968   6.153  11.838
16030W        W87701  20.224  36.870  12.346
16031W        W87702  44.273  22.755  12.001
16032W        W87703  34.320  29.636   3.123
16033W        W87704  31.692  10.846   3.357
16034W        W87705   2.077  19.135   3.893
16035W        W87706  16.657  41.830  14.208
16036W        W87707  44.408  35.082  10.715
16037W        W87708  35.927  37.404  14.845
16038W        W87709  17.489  25.959  11.377
16039W        W87710  43.388  42.455   3.665
16040W        W87711  10.636  24.646   4.379
16041W        W87712  22.749  13.104  11.602
16042W        W87713   9.361  38.087  14.844
16043W        W87714  27.666  38.960  13.446
16044W        W87715  38.293   9.628   4.118
16045W        W87716  40.604   1.930  12.071
16046W        W87717   7.742  13.559   0.914
16047W        W87718  19.765   0.171  13.314
16048W        W87719  29.889  21.156  14.382
16049W        W87720  44.608  20.530   4.598
16050W        W87721  37.036  24.219  12.501
16051W        W87722  32.590   5.804  12.390
16052W        W87723   1.896   8.491   3.279
16053W        W87724  38.562  23.529  13.467
16054W        W87725  22.496  20.180  13.865
16055W        W87726  14.120  19.271   1.316
16056W        W87727  14.613  24.617  14.144
16057W        W87728  17.578  14.606   4.202
16058W        W87729  15.749   8.938  10.589
16059W        W87730  41.229   3.924  13.502
16060W        W87731  23.981  32.554   3.324
16061W        W87732   5.286  42.753   4.169
16062W        W87733  32.840  17.078  13.345
16063W        W87734  34.291   7.898   1.793
16064W        W87735  23.284  25.476   3.262
16065W        W87736  36.374  44.457  12.923
16066W        W87737   0.803  40.279   3.060
16067W        W87738  32.697  24.629   0.863
16068W        W87739  32.666  18.798   0.675
16069W        W87740   8.560  25.436  12.774
16070W        W87741  43.492   0.233  14.873
16071W        W87742  17.580  15.139   1.269
16072W        W87743  31.227   4.976   4.022
16073W        W87744  24.174  20.003  13.609
16074W        W87745  37.261  31.989  14.413
16075W        W87746  16.520  36.071  13.688
16076W        W87747  21.760  27.754   3.848
16077W        W87748  33.453  17.771   1.360
16078W        W87749  11.838  24.850   0.529
16079W        W87750   6.405  23.751  13.738
16080W        W87751  10.115   4.935  13.305
16081W        W87752  41.387  13.322   0.843
16082W        W87753  30.320  23.116  13.843
16083W        W87754   4.771  26.001   3.175
16084W        W87755  15.741  13.889   3.335
16085W        W87756   5.642  20.929  12.373
16086W        W87757  23.869  18.879  12.808
16087W        W87758   4.392   3.967   4.616
16088W        W87759   1.811   5.240  12.908
16089W        W87760   6.818  13.200  12.380
16090W        W87761  15.203  14.694   3.888
16091W        W87762  21.360  38.857  11.763
16092W        W87763  16.559   5.340  10.626
16093W        W87764  44.594  30.705  10.956
16094W        W87765  16.530  10.173  14.354
16095W        W87766   0.504  26.071  13.813
16096W        W87767  39.441   0.127  10.901
16097W        W87768  13.581  29.707   4.086
16098W        W87769  20.182   4.974   0.517
16099W        W87770  44.194  44.315   2.430
16100W        W87771  21.634  40.268  12.799
16101W        W87772  34.894  36.802   3.653
16102W        W87773  28.557  20.202  13.086
16103W        W87774  21.754  19.126   1.341
16104W        W87775   8.343  43.989  13.822
16105W        W87776  11.187  21.670  10.851
16106W        W87777  39.869  26.583  11.020
16107W        W87778  26.142  42.383   3.549
16108W        W87779  22.985  15.984   1.859
16109W        W87780  14.881  36.517   4.087
16110W        W87781  28.008  10.640  11.587
16111W        W87782  11.630  31.373  12.456
16112W        W87783  25.149  32.893  13.973
16113W        W87784   6.835  10.318   2.846
16114W        W87785   5.192  27.556   4.701
16115W        W87786  40.957  43.390  11.968
16116W        W87787  29.041  11.550  13.148
16117W        W87788  20.698  22.675   1.274
16118W        W87789  34.559   1.913   2.585
16119W        W87790  10.828  13.735   0.270
16120W        W87791  44.239  27.493   2.824
16121W        W87792   1.671  33.059  12.452
16122W        W87793  24.081  31.568  12.327
16123W        W87794  11.391  29.773   3.133
16124W        W87795  16.527   8.267  12.433
16125W        W87796  33.470  17.839   1.986
16126W        W87797   3.931  39.453  10.583
16127W        W87798  22.245  21.565  13.874
16128W        W87799  25.576  13.902   0.634
16129W        W87800  44.903  21.729  12.482
16130W        W87801  16.243  14.717  13.539
16131W        W87802  25.726  12.693  12.812
16132W        W87803  23.317   8.809  13.212
16133W        W87804  26.174  40.748  11.547
16134W        W87805   0.350  12.511   1.353
16135W        W87806  13.247  33.387   2.823
16136W        W87807   5.724  43.773   2.191
16137W        W87808  38.163  29.622   3.344
16138W        W87809  10.116  19.112  10.937
16139W        W87810  11.761  42.240  11.217
16140W        W87811  21.296  16.172  13.818
16141W        W87812  44.999  14.410   0.451
16142W        W87813  16.597  19.931   1.849
16143W        W87814   8.774  13.914   4.452
16144W        W87815   6.701   3.182   0.984
16145W        W87816  10.115  34.165   3.373
16146W        W87817  36.506  18.204   2.404
16147W        W87818  31.045  26.440   1.856
16148W        W87819   6.208   0.857  13.066
16149W        W87820  22.488  11.203   3.561
16150W        W87821  33.965   3.141  14.402
16151W        W87822   9.790  36.154  13.827
16152W        W87823   5.833  16.886  14.328
16153W        W87824   0.416  24.551  13.301
16154W        W87825  28.086   4.561  10.653
16155W        W87826  36.647   2.942  14.748
16156W        W87827  31.502  42.003   2.297
16157W        W87828  38.612  17.215  13.928
16158W        W87829  32.677  28.046   1.703
16159W        W87830  10.686   2.375   4.942
16160W        W87831  23.668  24.281  11.872
16161W        W87832  42.834   6.488   2.537
16162W        W87833  32.397  34.991   1.686
16163W        W87834  24.929  37.858  14.027
16164W        W87835  43.518  14.291   1.664
16165W        W87836  28.161  34.202   4.868
16166W        W87837  44.782   9.687  11.078
16167W        W87838  25.180   7.173   4.604
16168W        W87839   8.403  34.024  14.755
16169W        W87840   7.112  20.372  14.433
16170W        W87841  41.847  40.403   0.491
16171W        W87842   3.366  26.433  14.967
16172W        W87843  19.531  14.761   1.348
16173W        W87844  33.167  39.470  12.542
16174W        W87845  16.445  31.614  11.181
16175W        W87846  21.741   2.534  14.825
16176W        W87847  20.074  14.583  11.418
16177W        W87848  21.240  11.430  11.114
16178W        W87849  44.341  43.985  13.778
16179W        W87850  10.717  37.338  10.643
16180W        W87851  13.828  13.365  11.481
16181W        W87852   0.468  25.168   4.170
16182W        W87853  16.214  30.904  14.770
16183W        W87854  43.486  33.681  14.901
16184W        W87855  26.555  12.537   2.770
16185W        W87856  23.612  36.029  13.836
16186W        W87857  30.681   5.880   2.665
16187W        W87858  19.657  44.822  12.373
16188W        W87859   2.792   9.249   1.255
16189W        W87860   1.232  28.284  11.567
16190W        W87861  37.483  20.573   4.611
16191W        W87862   1.296  35.122  13.126
16192W        W87863  26.512  17.759  11.478
16193W        W87864  36.115  20.910  11.123
16194W        W87865  41.316   7.590  11.108
16195W        W87866  33.582   5.280  11.923
16196W        W87867   6.995  26.623   1.369
16197W        W87868  21.740  23.544   0.700
16198W        W87869   8.526  28.636  11.596
16199W        W87870  34.634  38.851   2.701
16200W        W87871  37.781   9.400   1.260
16201W        W87872  18.798  32.954  12.581
16202W        W87873   0.395   2.439   4.290
16203W        W87874  18.684  26.580  11.960
16204W        W87875  19.006  37.576  10.641
16205W        W87876  40.734  41.748  12.085
16206W        W87877  35.451  41.333   2.005
16207W        W87878  10.350  24.045   1.355
16208W        W87879  36.793  16.397  11.772
16209W        W87880  23.713  26.635   3.724
16210W        W87881  17.573  28.660   1.485
16211W        W87882  34.803   7.021   0.325
16212W        W87883  22.823  11.793  12.015
16213W        W87884  13.252  26.883  10.652
16214W        W87885  10.184   8.436   1.291
16215W        W87886  36.904   6.921  12.612
16216W        W87887  18.557  27.532   4.525
16217W        W87888  32.995   4.897  11.412
16218W        W87889  42.039  32.710   4.856
16219W        W87890   4.863   0.850  12.935
16220W        W87891  32.467  20.019  13.495
16221W        W87892  27.833   1.834  10.438
16222W        W87893  23.311  27.862  12.321
16223W        W87894  41.833  40.341  12.952
16224W        W87895  15.779  21.599  14.397
16225W        W87896   8.095  22.483  14.648
16226W        W87897   5.787  43.246   3.341
16227W        W87898  32.059  29.587  10.463
16228W        W87899  21.516  33.508   1.371
16229W        W87900  22.532  13.168  14.297
16230W        W87901  18.749  41.198   4.711
16231W        W87902  23.560  37.333  11.152
16232W        W87903  30.127  41.250  11.223
16233W        W87904   3.361  44.321  14.978
16234W        W87905  38.181  28.639  10.700
16235W        W87906  42.795   7.887  14.122
16236W        W87907  34.003  12.850   2.822
16237W        W87908  13.368  11.138  10.506
16238W        W87909  31.458  39.976   1.771
16239W        W87910  28.232  16.809   2.880
16240W        W87911  14.122   8.212   2.213
16241W        W87912  23.765  21.759  11.697
16242W        W87913  26.386  16.431   1.911
16243W        W87914  41.483  11.308  14.736
16244W        W87915  31.379   2.367  14.583
16245W        W87916  14.841  39.051   0.272
16246W        W87917  13.208   8.948  10.985
16247W        W87918  12.819  39.117   3.929
16248W        W87919  44.960   6.569  14.314
16249W        W87920  14.555   5.867  11.543
16250W        W87921  20.994   7.794  11.081
16251W        W87922   2.691  14.310   4.570
16252W        W87923  41.463   4.028   3.624
16253W        W87924  20.111  16.314   4.244
16254W        W87925  16.120  26.477   3.365
16255W        W87926  34.048  13.313  13.084
16256W        W87927  19.512  12.382  12.639
16257W        W87928   9.296  22.027  14.674
16258W        W87929  36.818  39.072  13.992
16259W        W87930   0.445  29.958  13.106
16260W        W87931   3.446  10.694   1.766
16261W        W87932   0.040   4.723  13.950
16262W        W87933  19.462  15.057   2.144
16263W        W87934  28.237  16.308   2.681
16264W        W87935   7.004  13.341   2.271
16265W        W87936  42.789  40.422   0.780
16266W        W87937   4.849  13.840  10.565
16267W        W87938  13.108  12.375   0.865
16268W        W87939   2.863  31.934   3.811
16269W        W87940   3.517  38.779   0.511
16270W        W87941  37.820  15.751  12.046
16271W        W87942  30.493  44.326   2.841
16272W        W87943   2.796  26.262   1.408
16273W        W87944  30.272   4.289  14.615
16274W        W87945  12.866  36.405   0.732
16275W        W87946  42.457  30.931  12.480
16276W        W87947  40.523  19.052   2.402
16277W        W87948  30.512  31.033  11.608
16278W        W87949  17.455  23.273   2.294
16279W        W87950   7.837  34.078   0.513
16280W        W87951  32.058  32.431  14.007
16281W        W87952  43.336  20.733   1.181
16282W        W87953  43.297  25.180   1.217
16283W        W87954  36.719  26.246  13.422
16284W        W87955   3.176  42.581  11.820
16285W        W87956   1.627  40.899  10.678
16286W        W87957   5.655  12.679  11.927
16287W        W87958  25.510  32.561   2.217
16288W        W87959  28.933  34.882  11.543
16289W        W87960   4.227  22.826  11.503
16290W        W87961   6.000  32.624  13.438
16291W        W87962  39.297  31.551  10.857
16292W        W87963  35.496  23.283   0.875
16293W        W87964  10.681  40.988   2.811
16294W        W87965  17.136  41.973  14.606
16295W        W87966  27.713  44.420   2.358
16296W        W87967  34.385  33.299  11.495
16297W        W87968  23.559  32.358   2.362
16298W        W87969   7.647  31.612   2.750
16299W        W87970  17.167  29.521   1.771
16300W        W87971  36.086   3.606  11.689
16301W        W87972  15.776  30.882   1.457
16302W        W87973  26.632   2.178  14.277
16303W        W87974   6.468  13.192  13.442
16304W        W87975  18.809  40.338   4.951
16305W        W87976  28.987   7.847  12.190
16306W        W87977  28.509  34.340   0.308
16307W        W87978  24.632  34.850  13.911
16308W        W87979   9.640   9.955   5.215
16309W        W87980  19.949  25.525  13.876
16310W        W87981  14.926  27.816  10.006
16311W        W87982  42.521  29.003   2.325
16312W        W87983   7.157  42.993  12.390
16313W        W87984  20.681   0.989  13.494
16314W        W87985  42.842  28.065  11.111
16315W        W87986  12.184  29.540   0.902
16316W        W87987  25.686  33.590   2.332
16317W        W87988  17.605  39.118   0.705
16318W        W87989  22.636   2.671  11.205
16319W        W87990  22.827  15.788   0.847
16320W        W87991  33.538  44.226  10.824
16321W        W87992  21.630  12.547   1.406
16322W        W87993  16.119  41.081  14.357
16323W        W87994  34.419  20.897  12.801
16324W        W87995  39.746  43.373  12.371
16325W        W87996  32.719  11.236   0.562
16326W        W87997  22.639  24.277  11.041
16327W        W87998  23.932  23.234   0.662
16328W        W87999  20.277  18.810  14.059
16329W        W88000  38.039  16.132  11.425
16330W        W88001  41.966  20.277  11.482
16331W        W88002  11.869  20.491  13.522
16332W        W88003  36.584  22.629  13.618
16333W        W88004  26.455  39.850  11.673
16334W        W88005  22.756  23.547  13.738
16335W        W88006  41.390   3.805  14.997
16336W        W88007  27.612  17.674  11.209
16337W        W88008   6.328  40.326   2.669
16338W        W88009  13.148  20.574  14.511
16339W        W88010  44.754  11.322  12.495
16340W        W88011  27.923   3.655   2.268
16341W        W88012  18.225   7.615  14.472
16342W        W88013  13.649  20.258   3.548
16343W        W88014  12.120  17.365   0.819
16344W        W88015  19.626  18.122  14.045
16345W        W88016   3.449  40.622  11.618
16346W        W88017  28.094  24.147   5.072
16347W        W88018  40.346  40.516   3.696
16348W        W88019  14.709  20.078  10.881
16349W        W88020  23.786  33.037   3.363
16350W        W88021   2.359   3.742   0.947
16351W        W88022  12.283  24.725   0.982
16352W        W88023  24.636   5.278  12.861
16353W        W88024   1.573  31.358   2.572
16354W        W88025  16.838  28.649  13.226
16355W        W88026  31.164  44.852   3.620
16356W        W88027   5.881  22.575   2.765
16357W        W88028   7.723  14.084   0.942
16358W        W88029   0.782  23.470   1.805
16359W        W88030   5.263  44.308  10.906
16360W        W88031  26.115  43.822  13.780
16361W        W88032  25.921  29.996  13.968
16362W        W88033  28.813  39.601  14.798
16363W        W88034  17.687  11.577   4.579
16364W        W88035   7.255   7.712   2.044
16365W        W88036  22.243  42.456   3.012
16366W        W88037  14.490  44.032   0.790
16367W        W88038  30.624  37.506  11.482
16368W        W88039  20.045   4.357  12.944
16369W        W88040   4.758  41.758  14.340
16370W        W88041  23.185  28.812   4.177
16371W        W88042  18.273   6.811   4.945
16372W        W88043  39.549  22.129  13.547
16373W        W88044  43.738  39.965  10.224
16374W        W88045   7.601  21.847   3.991
16375W        W88046  20.554  42.838   3.210
16376W        W88047  25.949  26.633   2.603
16377W        W88048  28.126   2.937   1.009
16378W        W88049  25.643  18.565  13.626
16379W        W88050  19.154  19.292  11.563
16380W        W88051  13.023  10.787   0.808
16381W        W88052  18.647  13.807  11.111
16382W        W88053  36.850  27.767   2.363
16383W        W88054  27.961  20.084  12.449
16384W        W88055  17.883  17.372  10.752
16385W        W88056   8.814  24.467  14.987
16386W        W88057   6.863  19.657  11.348
16387W        W88058  20.527  14.593  11.132
16388W        W88059  43.508  18.733  10.425
16389W        W88060  11.625  26.429   4.756
16390W        W88061  36.647   4.381   4.024
16391W        W88062   4.891  28.184   1.613
16392W        W88063  43.611  14.781  12.168
16393W        W88064  28.944  17.524  12.538
16394W        W88065   1.478  29.528   3.334
16395W        W88066   3.923  28.280  10.756
16396W        W88067  11.288  26.536   1.918
16397W        W88068  13.231  12.301  12.326
16398W        W88069   0.314   3.491   2.964
16399W        W88070  11.101  10.335   4.403
16400W        W88071  42.451   1.462  12.581
16401W        W88072   8.326  21.585   0.983
16402W        W88073   0.029  39.476   0.267
16403W        W88074  34.315  10.341  12.541
16404W        W88075  43.517  17.206   3.858
16405W        W88076   7.893  16.331  12.152
16406W        W88077  41.043  33.138  12.867
16407W        W88078  41.934   5.434   2.056
16408W        W88079   4.413  29.351   0.997
16409W        W88080  21.306   5.397  11.391
16410W        W88081  21.265  12.950   2.271
16411W        W88082  41.415  31.896   3.315
16412W        W88083  28.406  31.571  10.706
16413W        W88084   9.659  21.995   4.085
16414W        W88085  17.589   8.245  14.527
16415W        W88086  28.142  18.753  14.743
16416W        W88087  23.730  13.610   1.492
16417W        W88088  16.550  12.314  12.532
16418W        W88089  38.429   9.581  14.084
16419W        W88090  31.109   8.384  12.029
16420W        W88091  10.974  24.109   3.230
16421W        W88092  27.083  29.570  14.814
16422W        W88093  29.048  11.568  12.101
16423W        W88094   2.385  35.442   1.522
16424W        W88095  34.242   0.989  11.995
16425W        W88096  26.979   1.657   3.797
16426W        W88097  44.786  28.111  10.601
16427W        W88098   3.421  40.553  12.109
16428W        W88099   1.409   3.964   1.588
16429W        W88100  38.602  13.412   1.802
16430W        W88101  42.301  12.630   2.861
16431W        W88102   5.054  30.556   0.093
16432W        W88103  17.174  26.510  13.110
16433W        W88104  19.536  23.740  11.493
16434W        W88105   1.300  25.665   0.711
16435W        W88106  28.642  41.995  11.642
16436W        W88107  11.299  37.532   1.244
16437W        W88108  21.462  35.551   2.226
16438W        W88109  24.816  44.742  12.015
16439W        W88110  34.176  33.888  11.521
16440W        W88111  34.839  10.357  12.520
16441W        W88112  26.467  26.482   0.229
16442W        W88113  27.280  12.863   2.333
16443W        W88114  33.140  11.174   4.521
16444W        W88115  28.227  31.326  11.138
16445W        W88116   4.855   4.150  11.242
16446W        W88117  26.933  44.850  13.804
16447W        W88118  20.559  41.372  14.008
16448W        W88119   7.292  26.656  11.932
16449W        W88120  10.717  25.123   4.024
16450W        W88121  10.290   0.867  12.189
16451W        W88122  35.371  35.070  12.460
16452W        W88123  11.593   4.755  14.502
16453W        W88124   0.525  44.243  11.093
16454W        W88125  40.005  37.895   3.243
16455W        W88126  41.779  26.608  14.059
16456W        W88127   8.305   1.236   4.539
16457W        W88128   5.490  15.620  13.076
16458W        W88129  40.483   9.794  14.888
16459W        W88130  38.764  11.082  13.066
16460W        W88131   1.022  16.538   1.279
16461W        W88132  43.803  11.986  12.897
16462W        W88133  25.398  13.639   4.264
16463W        W88134  18.618  19.808   2.575
16464W        W88135  18.589   5.240  10.544
16465W        W88136  24.853  13.193   1.653
16466W        W88137  33.627  13.679   4.230
16467W        W88138  20.013   9.769  12.389
16468W        W88139  38.980   3.165   3.129
16469W        W88140  32.570   0.395   4.134
16470W        W88141  13.336  23.707  12.467
16471W        W88142  16.546  17.761   1.742
16472W        W88143   1.348  37.788   1.934
16473W        W88144  27.402  39.827   3.305
16474W        W88145  23.481   8.769   2.422
16475W        W88146  20.743  37.810   5.078
16476W        W88147  34.022  27.104   4.527
16477W        W88148  19.074  17.201   3.914
16478W        W88149  14.921   1.757   5.015
16479W        W88150   8.252  39.080  12.334
16480W        W88151   0.918   2.711  13.565
16481W        W88152   1.724  44.179  11.120
16482W        W88153   4.243  13.188   2.846
16483W        W88154  36.023  20.993   3.767
16484W        W88155  39.107  26.467   4.719
16485W        W88156  13.201  27.257  12.978
16486W        W88157  28.963   3.638  12.842
16487W        W88158  10.607  37.445  12.747
16488W        W88159  30.095   5.185  11.678
16489W        W88160  14.281  24.557  11.528
16490W        W88161  25.792  22.798  10.360
16491W        W88162   3.790  26.972   2.165
16492W        W88163  26.064  30.061   4.548
16493W        W88164  32.161  16.298   0.028
16494W        W88165   5.422  17.120  12.995
16495W        W88166  44.933  16.280  13.472
16496W        W88167  10.302  14.820   3.209
16497W        W88168  28.698  35.733  12.937
16498W        W88169  33.816  43.333   1.581
16499W        W88170  40.830  28.172  12.496
16500W        W88171  29.628   4.898  11.470
16501W        W88172  30.485  31.968   4.364
16502W        W88173  21.892  25.627   1.085
16503W        W88174  16.358  13.125   1.265
16504W        W88175   6.019  39.350  11.572
16505W        W88176  11.768  24.093   0.064
16506W        W88177  24.205   5.378   3.224
16507W        W88178  15.060  36.946  14.786
16508W        W88179  33.472  13.540   0.587
16509W        W88180   1.326  22.705   2.136
16510W        W88181  30.334  25.854  11.144
16511W        W88182  22.772  25.446   2.124
16512W        W88183  24.828  18.201  13.844
16513W        W88184  29.659  39.996   0.089
16514W        W88185  24.139   4.780  11.132
16515W        W88186  21.628   9.196  13.075
16516W        W88187  13.238  38.420  12.424
16517W        W88188   2.812  17.297   2.397
16518W        W88189  38.410  32.783  13.416
16519W        W88190  34.116   6.336  12.497
16520W        W88191  38.888  17.574   3.860
16521W        W88192  39.739  31.939  12.439
16522W        W88193  33.641  41.238  11.285
16523W        W88194  18.289  13.584   4.225
16524W        W88195  36.017  41.347  10.650
16525W        W88196  34.805  12.675  11.790
16526W        W88197  33.368  28.598   1.452
16527W        W88198   7.196  37.988  12.081
16528W        W88199  26.409  27.207  13.606
16529W        W88200  35.295  42.244   3.827
16530W        W88201  28.838  40.917   0.550
16531W        W88202  32.557   3.337   2.695
16532W        W88203  35.110  40.537  11.466
16533W        W88204  24.431   2.211   0.736
16534W        W88205  18.261  26.446   0.801
16535W        W88206  20.614  12.600  14.081
16536W        W88207   0.369  43.374   3.699
16537W        W88208  28.997  33.299  12.540
16538W        W88209  31.488   6.325   4.011
16539W        W88210  12.323  22.761   0.813
16540W        W88211  26.809  14.814   0.225
16541W        W88212  39.350  29.214  11.526
16542W        W88213  30.381  11.319   3.144
16543W        W88214  27.889  27.990   4.844
16544W        W88215  31.431  25.782  10.421
16545W        W88216  10.822  19.987   2.697
16546W        W88217  15.229  21.142  14.960
16547W        W88218   7.190   7.175   2.762
16548W        W88219  41.497  19.729  13.699
16549W        W88220  23.126   0.418   4.067
16550W        W88221  25.925   7.778  12.028
16551W        W88222  43.922   9.395   1.701
16552W        W88223   4.582  41.367  11.477
16553W        W88224   3.741  15.657   1.889
16554W        W88225   6.642  16.339   2.783
16555W        W88226  14.555  28.058  11.538
16556W        W88227  40.078   6.840   3.681
16557W        W88228  12.150  18.339  10.678
16558W        W88229   9.141  40.717   1.891
16559W        W88230  25.186  43.010  12.512
16560W        W88231   5.140  21.364   0.857
16561W        W88232  32.466  34.318   2.785
16562W        W88233  11.942  29.653   1.387
16563W        W88234  30.439  31.950   0.735
16564W        W88235  19.409  28.134   1.819
16565W        W88236  21.535  40.084   4.682
16566W        W88237  12.278  39.767   3.398
16567W        W88238  12.090  11.711   3.676
16568W        W88239   9.801  21.348   3.181
16569W        W88240  39.327  21.130   3.106
16570W        W88241   1.164   6.688  12.516
16571W        W88242   0.958   7.529  13.624
16572W        W88243  12.557  33.580  11.911
16573W        W88244  28.682  26.599  13.079
16574W        W88245  13.623  30.325   4.700
16575W        W88246   6.744   0.537   1.815
16576W        W88247  42.236  38.156  14.138
16577W        W88248   5.158  16.611   1.960
16578W        W88249  39.433  12.797  14.727
16579W        W88250  31.366   5.728   1.831
16580W        W88251  17.838  43.784   0.430
16581W        W88252  18.085  30.162  14.087
16582W        W88253  13.644  28.958  13.863
16583W        W88254  13.369  14.399   0.348
16584W        W88255  44.494  27.210  14.811
16585W        W88256  16.583  30.399  10.740
16586W        W88257   0.902  41.808   2.832
16587W        W88258  23.596  40.404   3.887
16588W        W88259  18.326  13.134  10.670
16589W        W88260  20.712  40.442   1.866
16590W        W88261  34.352  42.695   4.117
16591W        W88262  15.750   0.014   1.969
16592W        W88263  30.530  34.545   2.432
16593W        W88264  27.452   1.521   1.336
16594W        W88265  33.653  23.673   0.730
16595W        W88266  36.788  35.768  14.958
16596W        W88267  23.146  17.133  14.233
16597W        W88268  10.634  43.390  11.183
16598W        W88269  38.951  19.566   3.112
16599W        W88270  14.893  17.846   2.174
16600W        W88271  19.303   3.924   1.899
16601W        W88272   8.982  14.978   2.436
16602W        W88273  14.335  32.097  10.876
16603W        W88274  14.644   2.794  14.634
16604W        W88275  26.863  31.954   2.210
16605W        W88276  37.456  11.744   5.096
16606W        W88277  24.791  12.405   1.722
16607W        W88278  41.418   6.459  13.269
16608W        W88279  33.862  38.524  11.034
16609W        W88280  20.143   9.953  10.694
16610W        W88281  37.853  27.224  12.613
16611W        W88282  25.113  43.609  13.546
16612W        W88283  29.028  34.973   3.411
16613W        W88284   2.432  29.481  12.593
16614W        W88285  36.530  35.930   1.250
16615W        W88286  17.131  27.134   4.880
16616W        W88287  35.251  41.505   0.253
16617W        W88288  25.592  16.203  14.450
16618W        W88289  14.721   6.362  12.833
16619W        W88290  28.139  22.225   2.232
16620W        W88291  24.546   4.155   2.737
16621W        W88292  11.633  25.831   0.207
16622W        W88293  20.083  42.894   4.168
16623W        W88294  43.875  19.032  10.676
16624W        W88295  22.244  38.946  10.672
16625W        W88296  27.053  37.272   2.731
16626W        W88297  40.798  13.208  14.412
16627W        W88298  24.973  34.425   2.469
16628W        W88299   9.211   3.276  12.043
16629W        W88300   8.874   8.018  11.087
16630W        W88301  24.291  21.147  14.532
16631W        W88302  38.483  29.427  13.082
16632W        W88303  32.026  41.905  10.654
16633W        W88304  13.148  28.470  14.909
16634W        W88305  22.070  43.941   4.379
16635W        W88306  29.074   0.881   0.344
16636W        W88307  24.302  23.494  14.222
16637W        W88308  41.512  21.730  12.443
16638W        W88309  36.209  19.134   4.770
16639W        W88310  32.796  22.843   2.828
16640W        W88311  39.482   8.762   4.535
16641W        W88312  21.008  37.966  13.814
16642W        W88313   9.835  11.344   1.240
16643W        W88314  28.899  27.051   1.863
16644W        W88315  31.079   9.565   3.978
16645W        W88316  11.407   0.575  10.702
16646W        W88317  35.242  11.326  12.763
16647W        W88318   6.860  24.331   1.357
16648W        W88319  33.897  15.184  13.774
16649W        W88320   1.462  41.810  13.483
16650W        W88321  18.550   9.091  12.016
16651W        W88322  19.182  35.944  13.776
16652W        W88323   0.695  30.405  12.090
16653W        W88324  15.183   2.941   3.611
16654W        W88325  39.923  16.082  11.652
16655W        W88326  37.605  42.906  14.936
16656W        W88327   9.595  20.773   4.649
16657W        W88328  35.093   8.513   0.243
16658W        W88329  43.319  34.496   3.167
16659W        W88330  18.850  43.361   0.837
16660W        W88331   8.079   3.976   3.118
16661W        W88332   5.876   7.156   4.088
16662W        W88333  43.995  19.237  14.288
16663W        W88334  32.533  32.178  13.906
16664W        W88335  19.973  10.971  11.624
16665W        W88336  18.101  39.080   2.403
16666W        W88337   1.486  44.784  12.817
16667W        W88338   1.153  28.032   1.948
16668W        W88339  29.403  29.722  11.903
16669W        W88340  34.382  28.005   0.797
16670W        W88341  16.030  29.063   0.023
16671W        W88342  16.862  28.723  12.645
16672W        W88343  35.903   5.188   4.080
16673W        W88344  12.809   2.684  11.619
16674W        W88345   3.229  31.204   4.002
16675W        W88346  39.283   3.977  12.080
16676W        W88347  44.925  21.121   1.767
16677W        W88348  22.151  26.417   3.249
16678W        W88349  20.442   0.031   1.271
16679W        W88350  35.050  39.507  12.362
16680W        W88351   6.042  10.982   3.595
16681W        W88352   9.696  28.461   4.138
16682W        W88353  15.703  23.474  13.620
16683W        W88354  32.081  29.367   2.344
16684W        W88355   3.478  39.561   2.303
16685W        W88356   8.953  31.021   1.832
16686W        W88357  40.986  17.732   3.956
16687W        W88358  35.853  23.875  14.510
16688W        W88359   8.805   9.582   1.722
16689W        W88360  21.573  31.206  11.591
16690W        W88361  23.748  33.284  13.045
16691W        W88362  34.152  35.165   1.235
16692W        W88363  20.301  35.146   0.682
16693W        W88364  34.085  36.285  14.451
16694W        W88365   2.633   3.163   1.787
16695W        W88366  23.201  43.299  14.573
16696W        W88367  12.634  35.067   0.818
16697W        W88368  22.955   2.904  11.721
16698W        W88369   0.060  21.035   0.783
16699W        W88370  30.863  31.131  14.764
16700W        W88371  17.242  12.586   1.809
16701W        W88372  14.099  30.070   3.118
16702W        W88373   6.973  40.990   3.267
16703W        W88374  19.694   0.040  14.300
16704W        W88375  34.169  28.351  10.182
16705W        W88376  35.772  17.248   1.198
16706W        W88377  23.618  35.432  12.125
16707W        W88378  21.546  36.448   1.325
16708W        W88379  39.839  37.029  12.212
16709W        W88380  10.897  34.996  12.672
16710W        W88381  10.087  18.796   0.017
16711W        W88382  17.357  10.296   3.341
16712W        W88383   1.114  35.596  13.293
16713W        W88384   4.868  35.458   1.309
16714W        W88385  17.532  16.028   1.446
16715W        W88386  42.285   9.341   4.650
16716W        W88387  39.005  22.681  13.012
16717W        W88388  10.619  30.646  11.530
16718W        W88389  31.830  16.147   2.941
16719W        W88390   1.636  11.825   3.117
16720W        W88391  28.983  28.138   2.703
16721W        W88392  11.888  35.025   0.287
16722W        W88393  29.909  10.095  14.064
16723W        W88394  30.389  10.235  10.509
16724W        W88395   1.894  41.410   3.171
16725W        W88396  39.289  21.876  11.861
16726W        W88397  16.157  35.372  11.732
16727W        W88398  40.963  34.433   3.742
16728W        W88399  42.771  42.525  14.480
16729W        W88400   9.500  25.402   0.448
16730W        W88401   7.813  44.347  14.512
16731W        W88402  33.130  24.078  14.237
16732W        W88403   1.432  25.716  13.985
16733W        W88404  10.342  13.313   4.228
16734W        W88405  20.691  22.043  11.741
16735W        W88406  33.596   8.311   2.256
16736W        W88407  39.951   8.134   1.725
16737W        W88408   0.794  11.528   3.229
16738W        W88409  21.514   8.668  11.022
16739W        W88410  15.920   6.808   1.961
16740W        W88411  37.066  33.122  11.081
16741W        W88412  19.982  11.366  13.957
16742W        W88413  31.912  22.730  13.909
16743W        W88414  38.518  25.994   1.235
16744W        W88415  35.109  29.369   0.723
16745W        W88416  15.832  36.521  11.124
16746W        W88417   3.758  12.707  11.878
16747W        W88418   7.949  36.822   1.435
16748W        W88419  30.116  13.640   1.610
16749W        W88420   9.744   1.485  11.973
16750W        W88421   9.000  40.254  10.840
16751W        W88422  11.414   3.309  14.877
16752W        W88423  40.414  14.611   0.307
16753W        W88424  15.202  19.809  14.278
16754W        W88425   5.879  39.870   4.055
16755W        W88426  30.196  18.366  12.659
16756W        W88427  10.829  10.364   0.423
16757W        W88428  17.117  30.349  13.378
16758W        W88429  20.309  41.033   1.372
16759W        W88430  34.806  31.945   3.718
16760W        W88431  20.792  15.174   4.563
16761W        W88432   6.898  17.431  11.638
16762W        W88433  38.696  38.092   1.812
16763W        W88434  38.764  41.910   3.664
16764W        W88435  32.957  11.872   2.729
16765W        W88436  44.965  26.591   1.872
16766W        W88437  44.033   1.403   3.343
16767W        W88438  38.540  26.830  10.629
16768W        W88439   3.851  26.235  14.860
16769W        W88440   9.249   3.196   0.943
16770W        W88441  29.077  32.106   4.694
16771W        W88442   0.304  20.762  10.370
16772W        W88443  29.414  19.802  10.740
16773W        W88444  24.109  11.245  13.777
16774W        W88445  17.673  26.200  10.949
16775W        W88446  38.048  18.173  10.683
16776W        W88447  39.403  36.299   1.845
16777W        W88448  27.084  41.389  14.453
16778W        W88449  20.548  14.835   3.269
16779W        W88450  28.975  17.194   2.221
16780W        W88451  25.176  17.230   1.317
16781W        W88452  22.649   6.199   2.724
16782W        W88453  42.011   4.292   1.942
16783W        W88454  35.336  43.869   0.401
16784W        W88455  43.368  33.492   0.836
16785W        W88456  22.044  40.290  10.681
16786W        W88457  17.606  12.609   3.382
16787W        W88458  29.241  31.886  11.537
16788W        W88459  33.222   9.671  12.569
16789W        W88460  27.935  15.048   4.773
16790W        W88461  25.645  37.641  11.303
16791W        W88462  21.760  31.995   0.692
16792W        W88463  14.719  33.823   2.264
16793W        W88464  23.809  44.869   1.860
16794W        W88465   0.525  30.957   4.297
16795W        W88466   7.958  39.783  14.407
16796W        W88467  28.835   6.922  13.664
16797W        W88468  44.880   2.383   0.351
16798W        W88469  12.773  24.452  13.478
16799W        W88470  44.961  39.668   1.901
16800W        W88471  33.768  44.713  12.148
16801W        W88472  37.228   2.203  10.548
16802W        W88473   0.986  38.958  13.096
16803W        W88474  29.128   1.688   2.801
16804W        W88475  22.644  42.193   2.824
16805W        W88476   3.257  37.603  10.278
16806W        W88477  23.720   4.200   4.644
16807W        W88478  14.580  10.827   3.357
16808W        W88479  15.140   4.459   2.801
16809W        W88480  28.206  44.678  13.613
16810W        W88481   4.905  11.168  13.307
16811W        W88482  39.967   4.019   0.401
16812W        W88483  42.492  39.860  13.593
16813W        W88484  31.090  29.553  13.752
16814W        W88485   2.895  25.596  13.989
16815W        W88486  11.974  13.832   2.313
16816W        W88487  38.469  13.822  13.816
16817W        W88488   5.921  23.319   2.250
16818W        W88489  20.123  41.873  11.914
16819W        W88490   9.896  32.930   0.456
16820W        W88491  18.866  11.159  10.694
16821W        W88492  38.804  33.125  11.916
16822W        W88493  44.524  26.565   4.254
16823W        W88494  21.196  29.755   1.728
16824W        W88495  31.141   0.205  14.771
16825W        W88496  40.725  15.362  11.166
16826W        W88497   6.379  34.414  14.292
16827W        W88498  33.498  36.060  12.915
16828W        W88499   4.144   9.864  10.706
16829W        W88500   5.483  11.911  13.062
16830W        W88501  31.673  31.994  10.953
16831W        W88502  18.215  37.287   3.124
16832W        W88503   6.233  24.759   1.805
16833W        W88504  25.062  33.013   2.748
16834W        W88505  11.730  19.594   1.376
16835W        W88506   7.506  35.162  12.794
16836W        W88507  31.412  12.767  10.774
16837W        W88508  18.124   8.481  13.108
16838W        W88509  16.004   4.855  10.878
16839W        W88510  34.418  34.345   4.262
16840W        W88511  37.867   9.733   0.835
16841W        W88512  16.637  32.578  12.407
16842W        W88513  27.979  34.481  10.642
16843W        W88514   4.364  17.684   4.542
16844W        W88515  15.322   0.926   2.812
16845W        W88516  17.227   7.410  10.864
16846W        W88517  34.019  22.296  11.093
16847W        W88518  27.519  40.421  12.485
16848W        W88519  31.413  37.136   2.641
16849W        W88520  42.215  18.289   2.724
16850W        W88521  31.443  18.491  10.736
16851W        W88522  26.955  42.483   0.859
16852W        W88523  36.802   9.741  14.217
16853W        W88524  42.838  39.783   2.215
16854W        W88525   7.537  25.049  11.060
16855W        W88526  32.109   1.859  10.986
16856W        W88527  26.911  27.937   2.489
16857W        W88528   8.395   7.646  14.418
16858W        W88529  21.186  33.356  11.531
16859W        W88530  25.489  30.616  12.253
16860W        W88531  25.720  23.202  12.894
16861W        W88532  34.029  37.007   4.174
16862W        W88533  36.011   4.009   3.211
16863W        W88534  41.415  15.412   4.679
16864W        W88535  21.554  15.666  12.781
16865W        W88536  42.348  35.957   2.227
16866W        W88537   3.788  20.128   0.441
16867W        W88538  28.026   0.523  12.088
16868W        W88539  13.611  14.220  11.945
16869W        W88540  12.600  36.612  11.212
16870W        W88541  43.918  33.540   3.898
16871W        W88542  32.382  37.630  14.785
16872W        W88543   2.118  10.451  14.377
16873W        W88544  21.780  34.618  14.395
16874W        W88545  11.823   6.158   4.531
16875W        W88546  18.450  25.625   3.376
16876W        W88547   7.887  41.239   1.389
16877W        W88548  44.894  43.088  13.040
16878W        W88549  18.337  43.520   2.987
16879W        W88550  22.547   1.463  13.033
16880W        W88551   4.281  17.780  12.032
16881W        W88552  37.143  32.196  13.535
16882W        W88553  10.672  38.082  13.875
16883W        W88554  23.594   2.698  11.135
16884W        W88555  31.055  29.140   1.735
16885W        W88556  39.712  26.069  13.453
16886W        W88557  29.729  14.052   1.820
16887W        W88558  12.058  38.419  14.502
16888W        W88559   7.400  22.327   4.586
16889W        W88560  30.027   3.925   0.468
16890W        W88561  36.424   2.439  11.918
16891W        W88562   1.239  41.587  12.899
16892W        W88563  39.883  31.125  12.428
16893W        W88564  43.159  17.187  13.748
16894W        W88565   7.669  28.685   2.094
16895W        W88566   9.872  25.462  10.730
16896W        W88567  10.136  20.970   4.026
16897W        W88568  21.126  31.647   3.839
16898W        W88569  33.523  43.134   3.637
16899W        W88570  24.467  11.637   0.868
16900W        W88571  29.471  21.075  12.754
16901W        W88572   8.892   3.211   2.171
16902W        W88573  32.182   6.323  10.500
16903W        W88574  39.474  33.128  12.933
16904W        W88575  32.509   3.060   0.823
16905W        W88576  14.166  32.659   3.651
16906W        W88577  34.975  44.523  10.748
16907W        W88578  27.036  28.983   4.458
16908W        W88579  41.578  13.732  12.661
16909W        W88580  11.836  11.679   1.336
16910W        W88581   1.961   7.938   0.781
16911W        W88582   6.697   3.340   5.240
16912W        W88583  37.550  16.346   4.645
16913W        W88584  36.003  17.168   2.844
16914W        W88585  24.270  13.124   3.295
16915W        W88586  19.586  14.266   4.553
16916W        W88587  22.672  29.562  13.345
16917W        W88588  28.175  40.635   1.384
16918W        W88589   2.519  14.843   0.514
16919W        W88590  41.547  16.012  13.007
16920W        W88591  23.982  15.608   4.351
16921W        W88592   9.725  24.457   0.476
16922W        W88593  24.018  37.984  11.597
16923W        W88594  42.969  14.576  14.388
16924W        W88595  26.022  33.866  12.367
16925W        W88596  19.279   7.742  12.055
16926W        W88597  22.171  21.754  13.325
16927W        W88598   2.891  19.023   0.060
16928W        W88599  34.006  30.437  11.528
16929W        W88600  39.522  13.327   1.693
16930W        W88601  28.707  10.360  11.608
16931W        W88602  23.863  42.558  12.979
16932W        W88603   8.259   9.807  10.717
16933W        W88604   6.229  25.551  12.106
16934W        W88605  17.507   0.838   2.736
16935W        W88606  30.710   4.169   3.087
16936W        W88607  31.872  31.575   3.357
16937W        W88608  30.733   1.074   4.146
16938W        W88609  14.534   4.433   1.699
16939W        W88610  30.671  43.323   4.701
16940W        W88611  27.467   3.293  11.153
16941W        W88612  38.795  39.301  12.213
16942W        W88613  24.960  32.585   3.129
16943W        W88614  29.118  10.870   1.349
16944W        W88615  40.969  12.837  12.076
16945W        W88616  15.345  35.185  12.001
16946W        W88617  37.505   0.351  12.059
16947W        W88618  15.454  18.772   3.704
16948W        W88619  35.787  37.048  14.502
16949W        W88620  10.141  28.547   3.780
16950W        W88621   8.808  14.383  12.431
16951W        W88622   8.860   1.566   2.789
16952W        W88623   7.146  10.246   1.236
16953W        W88624  11.868  36.088   2.770
16954W        W88625   9.898  27.219   2.649
16955W        W88626   6.932  36.840   3.696
16956W        W88627  24.588  35.871  12.951
16957W        W88628  38.970  32.719   3.760
16958W        W88629   8.267  26.015   4.046
16959W        W88630  42.877  15.083   1.741
16960W        W88631  29.378  27.220   4.679
16961W        W88632   3.161  11.785   3.199
16962W        W88633  18.232  37.826   4.836
16963W        W88634  13.191  10.907   4.918
16964W        W88635  10.630  39.894   1.309
16965W        W88636   6.137  42.467   4.185
16966W        W88637  25.887  41.228  12.406
16967W        W88638  44.865  30.632   0.683
16968W        W88639  29.082   2.410  13.578
16969W        W88640  36.973   3.280  10.673
16970W        W88641  32.342   9.330  10.806
16971W        W88642  42.453  35.383   1.536
16972W        W88643  15.123  22.747   0.941
16973W        W88644  28.279  21.921   1.813
16974W        W88645   7.354  33.223   1.272
16975W        W88646  41.841  36.044  10.668
16976W        W88647  23.215  14.567  10.657
16977W        W88648  13.256   1.960  13.418
16978W        W88649  22.208  40.201   2.101
16979W        W88650  36.926   0.219   1.140
16980W        W88651  27.720  13.585   0.286
16981W        W88652  13.750  33.846   2.311
16982W        W88653  12.126  21.532  12.653
16983W        W88654  33.182  34.595   4.976
16984W        W88655   7.877  28.396  11.294
16985W        W88656  13.694  34.331   3.614
16986W        W88657  10.573  44.312  10.079
16987W        W88658  35.320  33.080   2.006
16988W        W88659   6.230  25.299   3.614
16989W        W88660   2.762   0.084   3.170
16990W        W88661   6.916   0.196   2.163
16991W        W88662   4.394  16.279   4.066
16992W        W88663   0.809  10.950   0.899
16993W        W88664  32.179   1.833   3.258
16994W        W88665  33.667  38.994  11.041
16995W        W88666  37.795   0.208   1.446
16996W        W88667   6.659   8.076   1.375
16997W        W88668   8.216  24.826   0.673
16998W        W88669  27.403  24.164  13.254
16999W        W88670  35.008  14.394  13.654
17000W        W88671  31.089  34.538  10.627
17001W        W88672  23.069   6.517   0.298
17002W        W88673   6.283  10.683   3.951
17003W        W88674  29.192  40.563   0.294
17004W        W88675  29.152   0.439   1.879
17005W        W88676  28.035  30.188  13.359
17006W        W88677   9.283  14.304  13.527
17007W        W88678  35.695  21.322  12.950
17008W        W88679  14.706  35.842   2.365
17009W        W88680  41.729  11.630   4.489
17010W        W88681  24.132  30.510   3.599
17011W        W88682  30.551  39.243   3.258
17012W        W88683   9.880   4.470   3.724
17013W        W88684  21.945  41.363  14.961
17014W        W88685  33.716   9.746   2.284
17015W        W88686  39.911  34.178  14.858
17016W        W88687  38.572   0.316   1.380
17017W        W88688  23.992  28.187   5.171
17018W        W88689  43.899   1.922  13.542
17019W        W88690  10.349  26.078   3.896
17020W        W88691   4.647  43.419  12.452
17021W        W88692  27.156  31.552   2.425
17022W        W88693  18.084  44.045  10.767
17023W        W88694  26.159  41.995   4.180
17024W        W88695  30.495  33.377  14.149
17025W        W88696  38.718  15.209   0.354
17026W        W88697  18.817   0.481  14.529
17027W        W88698  30.630  21.062   4.243
17028W        W88699  24.485  31.846   1.255
17029W        W88700  24.898  37.440  10.788
17030W        W88701  25.786  35.336  13.392
17031W        W88702  42.529  11.865   1.794
17032W        W88703  28.577   6.891  10.054
17033W        W88704  29.525  28.967  14.474
17034W        W88705  26.635  35.571  13.778
17035W        W88706  24.786  32.092   3.276
17036W        W88707  36.438  37.604   1.536
17037W        W88708  28.846   1.724  13.880
17038W        W88709   3.909  39.380   4.099
17039W        W88710  33.446   7.959  13.449
17040W        W88711   6.551  19.354  11.649
17041W        W88712  40.122   1.344   4.828
17042W        W88713  19.733  17.339  12.064
17043W        W88714  32.661   2.067  12.064
17044W        W88715  21.285  23.579   0.962
17045W        W88716  30.942  27.063  10.717
17046W        W88717  30.990  18.291  12.308
17047W        W88718  14.513  25.195  11.140
17048W        W88719   6.201  26.620   0.910
17049W        W88720  28.207  30.828   3.176
17050W        W88721  36.390  27.001   1.036
17051W        W88722   7.960  39.449  12.582
17052W        W88723  42.579  11.029   3.403
17053W        W88724  18.204   9.351   4.274
17054W        W88725  21.052  36.788  14.792
17055W        W88726  19.121  38.326   0.203
17056W        W88727  17.606  27.639  12.066
17057W        W88728  29.537  31.138  14.339
17058W        W88729  43.787  39.636   4.574
17059W        W88730  19.620  15.352   1.735
17060W        W88731  42.435  18.747   1.187
17061W        W88732   7.966  43.590  13.841
17062W        W88733   2.557   4.195   0.318
17063W        W88734  43.305   0.269   3.664
17064W        W88735  23.321  26.407   2.922
17065W        W88736  39.283  41.796   1.339
17066W        W88737  37.431  31.214  13.296
17067W        W88738  18.452   0.672   3.611
17068W        W88739  24.197  10.265   1.373
17069W        W88740   9.857  33.108   1.346
17070W        W88741   8.939   4.964  14.669
17071W        W88742  31.587  34.401   2.717
17072W        W88743  25.159  25.875  14.184
17073W        W88744   7.380  31.059   1.956
17074W        W88745  36.932  10.324  12.489
17075W        W88746   5.217   7.759  10.752
17076W        W88747  32.627   6.286   2.112
17077W        W88748  23.189  41.251  11.647
17078W        W88749   9.930  12.084   2.717
17079W        W88750   2.813  28.719   0.011
17080W        W88751   3.265  20.287   0.335
17081W        W88752  39.159   4.945  13.971
17082W        W88753   0.921  13.903   0.339
17083W        W88754  14.561   7.871   3.629
17084W        W88755  10.994  28.359  13.322
17085W        W88756  23.622  32.531   1.888
17086W        W88757   4.334  37.556   4.224
17087W        W88758  40.574  22.009  11.651
17088W        W88759  24.523  43.393  11.169
17089W        W88760  14.374   0.244   2.261
17090W        W88761  12.701  17.396   4.355
17091W        W88762  11.898   1.332   3.123
17092W        W88763  44.962  21.213   1.251
17093W        W88764   8.858  24.244   1.877
17094W        W88765  36.526  25.041   2.235
17095W        W88766   0.399  43.365  14.528
17096W        W88767  33.695  44.392   4.086
17097W        W88768  10.139  33.539  14.419
17098W        W88769   8.687  19.957  12.395
17099W        W88770  14.484  36.514   5.122
17100W        W88771  11.568  25.092  14.024
17101W        W88772  24.517  38.075  11.434
17102W        W88773  42.677  22.676  13.933
17103W        W88774  35.398  10.927   4.605
17104W        W88775  28.501  18.710  13.819
17105W        W88776  35.384  17.350  10.997
17106W        W88777  31.900   6.109  12.828
17107W        W88778  44.207  29.096  14.293
17108W        W88779  17.083   9.824  13.848
17109W        W88780  17.274  22.497  13.401
17110W        W88781  27.411  23.938  10.749
17111W        W88782  32.140  12.143   2.380
17112W        W88783  41.349  38.598  14.088
17113W        W88784  40.908  18.112   4.369
17114W        W88785  32.577  30.049   0.268
17115W        W88786  33.577   4.032  13.124
17116W        W88787  13.147  32.140  11.116
17117W        W88788  24.887  42.575  14.857
17118W        W88789   4.896  18.548  10.659
17119W        W88790   6.117   9.328   3.319
17120W        W88791   0.995   5.755   1.304
17121W        W88792   3.376  24.162  11.646
17122W        W88793   1.130  31.033   1.389
17123W        W88794   7.059  27.624  12.814
17124W        W88795  39.832  17.666  10.694
17125W        W88796   8.690   7.260  12.596
17126W        W88797  18.108  37.350  10.444
17127W        W88798  10.413  25.919   2.593
17128W        W88799  17.582  39.932  13.519
17129W        W88800  40.559  17.863  12.211
17130W        W88801  11.871  28.640   4.304
17131W        W88802  17.058  34.184  12.984
17132W        W88803   2.363  23.987  13.424
17133W        W88804  25.759  27.999   0.910
17134W        W88805  37.990  20.019   0.456
17135W        W88806  22.815   7.874  10.981
17136W        W88807  16.388   3.927   0.856
17137W        W88808  17.843  19.435   1.828
17138W        W88809  24.939  23.109   3.241
17139W        W88810  34.458  15.516  14.236
17140W        W88811  38.449  36.005   4.173
17141W        W88812  41.161  27.165  11.202
17142W        W88813  22.006  37.642   1.739
17143W        W88814  41.398  37.141  11.942
17144W        W88815  28.010  29.514  11.844
17145W        W88816  28.104  27.677  11.908
17146W        W88817   5.141  14.850  13.531
17147W        W88818  20.653  37.287  14.927
17148W        W88819  10.604  35.133  11.877
17149W        W88820  13.599   3.737   1.403
17150W        W88821  23.483  44.342  11.001
17151W        W88822   4.999   1.924  11.964
17152W        W88823   2.205  37.530   2.268
17153W        W88824  16.115   8.264   1.971
17154W        W88825   7.293  14.801  13.238
17155W        W88826  40.767  10.813   1.894
17156W        W88827   4.785  29.848   3.220
17157W        W88828  21.019  15.603  12.266
17158W        W88829  27.504   9.654   0.241
17159W        W88830  27.044  12.400   4.542
17160W        W88831   1.811  42.683   4.577
17161W        W88832  38.485   2.768   2.494
17162W        W88833   3.733   8.392  14.538
17163W        W88834  28.246  12.152   3.771
17164W        W88835  27.706  38.346   0.395
17165W        W88836  39.624  24.960  12.995
17166W        W88837  17.083  22.376   1.810
17167W        W88838   6.191  40.410  14.602
17168W        W88839   8.196  17.303   4.533
17169W        W88840  34.388  44.163   3.082
17170W        W88841  19.185  35.209   0.278
17171W        W88842  31.418  36.954   0.933
17172W        W88843  13.364  43.377  14.855
17173W        W88844   3.700  43.915   0.321
17174W        W88845   9.869   4.963  12.052
17175W        W88846  10.545  36.635   5.174
17176W        W88847  22.782  21.197   1.858
17177W        W88848  25.383  43.369  14.086
17178W        W88849  23.734  25.959  13.376
17179W        W88850  22.044  22.417  14.878
17180W        W88851  28.665  41.491   4.546
17181W        W88852  32.200   6.799   2.142
17182W        W88853  37.910  10.154  14.832
17183W        W88854  21.887  23.707  10.100
17184W        W88855  33.967   7.791   4.782
17185W        W88856  40.275  22.053  12.218
17186W        W88857  33.580   7.378  11.622
17187W        W88858  30.274  16.162   0.205
17188W        W88859  38.036   5.289  12.604
17189W        W88860  17.325   5.154  14.840
17190W        W88861  27.229  17.465   1.781
17191W        W88862  12.409   4.672   0.399
17192W        W88863  28.922  44.746   1.925
17193W        W88864  34.574  25.494   0.086
17194W        W88865  22.082  13.745  13.737
17195W        W88866  31.511  22.026  10.507
17196W        W88867   5.718  21.426  10.439
17197W        W88868  24.358  42.660  12.846
17198W        W88869  24.715  24.980   2.845
17199W        W88870  24.696   6.223   1.714
17200W        W88871  26.964  23.978   1.642
17201W        W88872  15.079  25.086   4.176
17202W        W88873   5.964   4.857  13.141
17203W        W88874  44.329  28.192  10.804
17204W        W88875  21.031  42.940   0.003
17205W        W88876  42.389   0.870   1.326
17206W        W88877   6.533  32.106   1.921
17207W        W88878  11.095  26.611   2.915
17208W        W88879  41.367  16.631  12.547
17209W        W88880   1.872  18.669   3.355
17210W        W88881  12.194  16.352  13.240
17211W        W88882  19.046   8.568   0.899
17212W        W88883  16.330  11.703  12.163
17213W        W88884  43.988  12.457   3.757
17214W        W88885  28.070  35.412   1.025
17215W        W88886  18.809  23.023  13.806
17216W        W88887  36.609   5.336  13.299
17217W        W88888  37.257  34.704  12.800
17218W        W88889   8.551  10.289  10.747
17219W        W88890   6.905  29.560   1.495
17220W        W88891  22.390   1.926  11.594
17221W        W88892   3.515  35.527  11.179
17222W        W88893  19.548   0.725  11.988
17223W        W88894  40.303  16.358   4.179
17224W        W88895  32.495  13.408  10.945
17225W        W88896   8.767   1.719  10.992
17226W        W88897  27.123  36.746   2.839
17227W        W88898  38.407  44.685   0.773
17228W        W88899   9.191  35.950   4.163
17229W        W88900  19.632  18.316  14.511
17230W        W88901   8.343   3.559   4.734
17231W        W88902  19.978   9.878  12.910
17232W        W88903  33.908  36.167  11.191
17233W        W88904  29.595  15.215   2.233
17234W        W88905  32.188   6.913  13.991
17235W        W88906  23.089   6.495   2.650
17236W        W88907  29.134  34.606   4.155
17237W        W88908  33.355  19.618   9.987
17238W        W88909   0.207  20.012   3.287
17239W        W88910  10.085  22.116  12.078
17240W        W88911  40.277  31.315   0.883
17241W        W88912  33.782  25.224   4.212
17242W        W88913  39.901  42.493  13.687
17243W        W88914   9.653   6.895  12.860
17244W        W88915  24.487  27.065  11.375
17245W        W88916  26.070   9.253   4.618
17246W        W88917  36.868  33.927  12.535
17247W        W88918  30.956  43.282   3.121
17248W        W88919  16.049   5.315  10.648
17249W        W88920  18.303  14.315  13.020
17250W        W88921  25.631   3.848   0.932
17251W        W88922  16.313   1.239  14.858
17252W        W88923  39.091  25.259  14.858
17253W        W88924  11.308   1.416  13.766
17254W        W88925  40.281   8.215   2.280
17255W        W88926  26.727   7.378   3.750
17256W        W88927  21.554   4.473   2.936
17257W        W88928   9.777  11.001   1.659
17258W        W88929  21.252  30.205   1.164
17259W        W88930  18.730  23.950   3.178
17260W        W88931  19.496  24.714   4.205
17261W        W88932  42.280  29.468   1.173
17262W        W88933  21.159  38.536   4.768
17263W        W88934  35.749  43.509   2.127
17264W        W88935  17.753   6.449  13.995
17265W        W88936  25.688  15.658   0.395
17266W        W88937   3.355   7.297   2.191
17267W        W88938  14.866   5.888  11.985
17268W        W88939  13.718   8.656  13.072
17269W        W88940  37.559  42.805  12.124
17270W        W88941  36.354  43.291  14.866
17271W        W88942   3.932  43.210  13.897
17272W        W88943   1.114  21.757   4.529
17273W        W88944  31.604   3.931  13.333
17274W        W88945  17.621   6.891  11.526
17275W        W88946  22.612  43.397  10.717
17276W        W88947   2.736  35.364  13.972
17277W        W88948  11.839   3.158   3.109
17278W        W88949   3.057  34.903   3.273
17279W        W88950  28.531  27.666  11.595
17280W        W88951   7.810   9.630  12.123
17281W        W88952  12.124  23.560  11.163
17282W        W88953  42.710  43.826   1.934
17283W        W88954  11.905  37.934   0.540
17284W        W88955  21.311  29.301  13.051
17285W        W88956  19.591   5.827  11.983
17286W        W88957  18.666  11.069   4.646
17287W        W88958  37.783  28.953   3.661
17288W        W88959   6.472  21.943  10.929
17289W        W88960  22.963  28.289  11.453
17290W        W88961  31.919   8.202   4.595
17291W        W88962  17.062   6.619  11.406
17292W        W88963  41.002  42.859   4.629
17293W        W88964  16.899  16.662  11.139
17294W        W88965  43.305  19.208   4.248
17295W        W88966  27.056  10.382   0.381
17296W        W88967   5.369  28.448  13.111
17297W        W88968  29.083   5.342  11.986
17298W        W88969  42.382  31.628  13.152
17299W        W88970  28.480  10.156  10.295
17300W        W88971  30.725   0.821  14.262
17301W        W88972  25.572   9.832  11.540
17302W        W88973  40.592  30.259   2.630
17303W        W88974  17.796  25.937  10.519
17304W        W88975  43.062  18.288   0.678
17305W        W88976   6.176   9.810  14.048
17306W        W88977  22.935  42.075  13.568
17307W        W88978   9.614  27.812  14.267
17308W        W88979  16.156  21.720   2.240
17309W        W88980  16.347  22.991  11.944
17310W        W88981   9.823   7.092  11.243
17311W        W88982   2.742   0.333  14.436
17312W        W88983  30.173  41.905   1.072
17313W        W88984  34.357  36.467   2.338
17314W        W88985  14.145  33.154   3.789
17315W        W88986   5.337   1.501  11.993
17316W        W88987  18.093  43.527  10.775
17317W        W88988  35.386   1.757  11.422
17318W        W88989  14.657  26.178  13.251
17319W        W88990   4.251  31.895  12.714
17320W        W88991  16.323  18.447   2.204
17321W        W88992  35.069  28.958  13.010
17322W        W88993  18.129  30.927  10.516
17323W        W88994  42.229  24.292  13.512
17324W        W88995  32.469  24.705  13.034
17325W        W88996  21.466  28.357  11.528
17326W        W88997   5.375  16.387  14.834
17327W        W88998  39.478  42.446   2.709
17328W        W88999  32.314   8.769  11.239
17329W        W89000  18.578  44.630   2.365
17330W        W89001   8.158  33.160   3.214
17331W        W89002  10.358  38.397  13.614
17332W        W89003  11.344  39.769  11.904
17333W        W89004  27.365  40.071   4.599
17334W        W89005  42.834  34.295   3.190
17335W        W89006  43.937  24.127  14.737
17336W        W89007  38.475  34.555   1.300
17337W        W89008   9.273  35.612  11.371
17338W        W89009  33.288  27.790   4.410
17339W        W89010  16.884  13.259   1.308
17340W        W89011   4.095   8.059  14.319
17341W        W89012  15.112  43.702   2.719
17342W        W89013  19.186  27.126  14.544
17343W        W89014  26.102   4.397  13.241
17344W        W89015  12.574  25.593  13.428
17345W        W89016   0.358  33.679  12.596
17346W        W89017  18.683   2.428   3.204
17347W        W89018  35.978  25.588  11.176
17348W        W89019  18.579  31.894   3.617
17349W        W89020  33.683   5.535   4.642
17350W        W89021  23.216   7.536   1.140
17351W        W89022  34.685   7.425  10.847
17352W        W89023   7.280  34.829  11.150
17353W        W89024  43.896  19.584  10.691
17354W        W89025  20.234   8.059   0.304
17355W        W89026  29.200  24.474   2.855
17356W        W89027  39.073   9.867  12.932
17357W        W89028  37.153  20.683   4.137
17358W        W89029  18.287  35.241   2.792
17359W        W89030  38.903  42.364  10.305
17360W        W89031  41.955  25.973   1.859
17361W        W89032  24.651  21.508  11.462
17362W        W89033   5.869  27.602  14.203
17363W        W89034  34.639  39.865   3.776
17364W        W89035   3.135   2.525  12.435
17365W        W89036  38.506  13.637   2.409
17366W        W89037  19.998  13.854   1.797
17367W        W89038  18.142  19.615   2.386
17368W        W89039  15.406   4.117  12.102
17369W        W89040  44.016   1.183   0.400
17370W        W89041  21.317   1.948  10.330
17371W        W89042  11.636  23.928   3.745
17372W        W89043  37.051   7.595  11.832
17373W        W89044  30.506  27.275  11.983
17374W        W89045  40.166  29.538  11.702
17375W        W89046  18.021   7.803  10.905
17376W        W89047  33.531  39.030   3.761
17377W        W89048  26.925  30.921  11.973
17378W        W89049  38.932  14.569  11.780
17379W        W89050  29.308  42.379  12.410
17380W        W89051  18.706  38.105   4.858
17381W        W89052  24.592  29.146   4.749
17382W        W89053  41.327  30.147  12.953
17383W        W89054   8.313  41.394   1.713
17384W        W89055   1.316  26.444   2.338
17385W        W89056  21.761  23.125   1.891
17386W        W89057  38.443  41.413   3.332
17387W        W89058  18.109  11.251  14.221
17388W        W89059  35.054  29.638   4.820
17389W        W89060  42.831  41.425  10.599
17390W        W89061   9.328   9.337   4.630
17391W        W89062   2.292  26.671   3.295
17392W        W89063  39.631  32.896   4.138
17393W        W89064   3.331  12.477  11.671
17394W        W89065  32.587   5.004  10.132
17395W        W89066  19.060   0.767  11.714
17396W        W89067   1.175  34.114   4.096
17397W        W89068  22.482   2.900  14.772
17398W        W89069  16.797  28.999  13.734
17399W        W89070  15.002  29.604  10.345
17400W        W89071  36.167  22.664  14.879
17401W        W89072  21.769  29.050  13.044
17402W        W89073  34.833  14.423   1.160
17403W        W89074  29.139  41.398  10.482
17404W        W89075  36.765  31.941  12.621
17405W        W89076   5.376  34.507  13.515
17406W        W89077  13.405  24.746   1.881
17407W        W89078  14.215  41.796   5.091
17408W        W89079  19.576  28.516  14.892
17409W        W89080   5.766  40.444  14.295
17410W        W89081  15.633   3.863  12.541
17411W        W89082  11.180  44.947   3.107
17412W        W89083  37.049  43.671   2.235
17413W        W89084  24.249   4.265   1.835
17414W        W89085  20.350  36.524   0.566
17415W        W89086  21.083  19.395  11.322
17416W        W89087  12.138  24.528  10.627
17417W        W89088  12.901   4.728   3.195
17418W        W89089  35.608  17.672  14.853
17419W        W89090   9.152  33.220  14.957
17420W        W89091  24.568  44.269   1.932
17421W        W89092  14.747  28.890  12.396
17422W        W89093  21.186  10.522  11.978
17423W        W89094  42.946  37.562  13.517
17424W        W89095  32.960  44.525   3.912
17425W        W89096  35.519   2.875   3.713
17426W        W89097  32.534  27.672  14.321
17427W        W89098  24.396  24.122  10.879
17428W        W89099   2.264  15.236  12.062
17429W        W89100   4.776  41.784   3.196
17430W        W89101  12.389   8.380  12.095
17431W        W89102  42.214   3.993   0.308
17432W        W89103  32.441   0.076  12.318
17433W        W89104   6.344   9.419  11.857
17434W        W89105  17.161   8.933   1.570
17435W        W89106  31.888  27.712  12.217
17436W        W89107  26.603  19.020   4.865
17437W        W89108  15.217   4.070   5.033
17438W        W89109  19.483   8.846  12.372
17439W        W89110  16.153  16.621   3.630
17440W        W89111  24.983  24.210   3.271
17441W        W89112  10.656   6.157  11.688
17442W        W89113  44.756  23.977  10.753
17443W        W89114   8.607  25.044   1.240
17444W        W89115  32.204  36.413  10.510
17445W        W89116  17.217  17.227   5.182
17446W        W89117  30.485   5.481  12.435
17447W        W89118   1.286  27.367   0.314
17448W        W89119  25.726  42.764   2.718
17449W        W89120  42.494  16.682  12.017
17450W        W89121  38.204  28.490  12.639
17451W        W89122  13.151  12.789  11.654
17452W        W89123   7.103  20.021   0.860
17453W        W89124   6.258  40.383   3.571
17454W        W89125   1.538  40.538  14.394
17455W        W89126   1.833   0.480  11.673
17456W        W89127  14.276  34.541   1.978
17457W        W89128  15.535  19.053  11.626
17458W        W89129  14.120  22.782  14.190
17459W        W89130  26.629  34.108  11.182
17460W        W89131  32.031  37.518  11.412
17461W        W89132   6.113  44.467   2.181
17462W        W89133  27.495  10.074  13.357
17463W        W89134   7.990   7.763   2.337
17464W        W89135  39.439   9.399   2.358
17465W        W89136  17.583  16.637  13.510
17466W        W89137  24.136   0.830   0.669
17467W        W89138  21.731  28.994   2.146
17468W        W89139  41.794  44.083   4.475
17469W        W89140   3.889  25.485   1.306
17470W        W89141  14.040  27.416  11.087
17471W        W89142   6.508  41.312   0.751
17472W        W89143  13.315  18.525  12.473
17473W        W89144  38.447  34.506   4.176
17474W        W89145  27.079  17.023  11.467
17475W        W89146  23.985  13.307   4.544
17476W        W89147   2.419  21.152   3.697
17477W        W89148  37.493  29.159   4.620
17478W        W89149  32.024  17.347   3.087
17479W        W89150   4.607  44.905   0.549
17480W        W89151  38.087  21.358  13.878
17481W        W89152   8.734   3.056   0.908
17482W        W89153  17.860  28.607   0.426
17483W        W89154  29.337  42.899  12.030
17484W        W89155   8.317  14.580   0.309
17485W        W89156   5.718  36.304  14.231
17486W        W89157  26.851   3.274  10.283
17487W        W89158  20.744  32.565   4.600
17488W        W89159  25.698  37.140   3.478
17489W        W89160   4.856  21.300   1.268
17490W        W89161   1.947  22.579  13.559
17491W        W89162   1.302  15.871   3.385
17492W        W89163  35.097  32.163   2.397
17493W        W89164  44.598  15.362  14.204
17494W        W89165  20.259  31.195   0.779
17495W        W89166   1.781  40.491   2.088
17496W        W89167  13.127  37.717  13.962
17497W        W89168  12.366  34.123   2.302
17498W        W89169  37.298  30.075  14.405
17499W        W89170   4.846   2.936  10.789
17500W        W89171  30.642  37.671  12.667
17501W        W89172   7.726  22.304   1.388
17502W        W89173  13.629  26.729   1.938
17503W        W89174  28.626  20.148  13.608
17504W        W89175  34.297   0.430   1.790
17505W        W89176  28.570  16.305   1.459
17506W        W89177  31.851  10.455   1.310
17507W        W89178  22.742  35.208  10.996
17508W        W89179  36.163  15.826  11.672
17509W        W89180  10.241  43.346   4.108
17510W        W89181  42.988  30.361   4.418
17511W        W89182   8.999  44.471   5.002
17512W        W89183  27.111  39.020  10.338
17513W        W89184   6.883  16.090   3.195
17514W        W89185  26.608  42.908   2.400
17515W        W89186  16.192  30.925   1.100
17516W        W89187  31.374  25.204  13.508
17517W        W89188  17.350  32.511   3.656
17518W        W89189  39.951  43.283  13.927
17519W        W89190  20.019  18.135   3.728
17520W        W89191  39.316  14.213   0.036
17521W        W89192  14.962  23.221  11.169
17522W        W89193  23.488  39.591   3.270
17523W        W89194  36.266   7.265   0.478
17524W        W89195   0.302  30.100   4.421
17525W        W89196  33.171  12.133  13.365
17526W        W89197  24.938  24.083  10.908
17527W        W89198  35.031  15.755   0.991
17528W        W89199  27.332  12.542   4.970
17529W        W89200  22.512  27.541   3.248
17530W        W89201  30.536  31.386  12.589
17531W        W89202  34.573   9.761   3.722
17532W        W89203  27.077  40.878  12.368
17533W        W89204   9.907  14.341  11.786
17534W        W89205   6.904  39.276  14.016
17535W        W89206  42.860  22.510  14.423
17536W        W89207  29.666   9.787  13.128
17537W        W89208  39.450  40.123  11.635
17538W        W89209  37.841  18.239   1.239
17539W        W89210   9.689  19.040  14.075
17540W        W89211  42.571   9.876   4.530
17541W        W89212  40.403  10.164   2.339
17542W        W89213  22.644  43.359   2.806
17543W        W89214  16.656  38.011   4.897
17544W        W89215  24.741  36.431  11.189
17545W        W89216  42.308  16.499  14.278
17546W        W89217  29.446  33.076  12.547
17547W        W89218  13.137  13.122  14.080
17548W        W89219  35.693  34.988   2.358
17549W        W89220  38.538  12.193  10.921
17550W        W89221   2.425  36.596   2.670
17551W        W89222  36.213  17.261  11.630
17552W        W89223  35.790  43.336  10.748
17553W        W89224  34.802  39.524  11.502
17554W        W89225  14.856   9.076  12.526
17555W        W89226  12.386  31.922  12.588
17556W        W89227   3.479  16.427   0.500
17557W        W89228   8.871  42.560  12.377
17558W        W89229   9.323  17.913   1.202
17559W        W89230  38.146  12.124   1.435
17560W        W89231  22.742  39.029   4.324
17561W        W89232  14.795  14.599   3.590
17562W        W89233   9.255  25.068  11.157
17563W        W89234  26.503  40.347   1.689
17564W        W89235  24.998   1.787  13.886
17565W        W89236  20.221  35.203  11.410
17566W        W89237  43.943  33.935  13.459
17567W        W89238  37.499  36.721  14.691
17568W        W89239  16.229  28.572   4.562
17569W        W89240  33.095  15.264   4.746
17570W        W89241  35.681   0.943   0.105
17571W        W89242  37.807   3.367   0.388
17572W        W89243  17.624  10.092   1.032
17573W        W89244  30.931  32.910   0.176
17574W        W89245  22.141  14.365   1.512
17575W        W89246  10.584  13.743   1.613
17576W        W89247  11.589  19.290   3.224
17577W        W89248   7.533  29.188   2.176
17578W        W89249  34.095  28.365   1.379
17579W        W89250   8.360   4.487   4.342
17580W        W89251  30.036   9.771   3.287
17581W        W89252  31.867  23.164  10.609
17582W        W89253  24.099  15.557  12.648
17583W        W89254  36.322   6.747   3.628
17584W        W89255  38.932  29.432   3.749
17585W        W89256   2.014  27.897  12.813
17586W        W89257  10.866  40.433   1.308
17587W        W89258  25.968  37.884   2.583
17588W        W89259  29.087   1.172   2.679
17589W        W89260  40.351  26.385  11.017
17590W        W89261  19.812  43.535   2.428
17591W        W89262  15.979  37.856   3.791
17592W        W89263  14.926   8.275   2.813
17593W        W89264  16.749  26.239   2.200
17594W        W89265   3.944  42.027   0.390
17595W        W89266  32.311  36.057  11.904
17596W        W89267  21.645  25.636   2.602
17597W        W89268   8.177  38.411  14.572
17598W        W89269  32.226  17.569   0.537
17599W        W89270  37.778  14.748   4.265
17600W        W89271  16.893  17.610  12.036
17601W        W89272  35.575   0.651  12.296
17602W        W89273  29.328  16.229  11.160
17603W        W89274  21.593  34.949  14.783
17604W        W89275  33.537  18.759   1.671
17605W        W89276  17.179  25.975  10.955
17606W        W89277   3.314  25.903  11.820
17607W        W89278  29.521  35.773  13.394
17608W        W89279  44.890  34.669  11.582
17609W        W89280  33.487  23.672  13.058
17610W        W89281  37.725  39.281  14.387
17611W        W89282  12.166  23.603   3.850
17612W        W89283  37.086  13.759   4.741
17613W        W89284  32.953  35.529  12.296
17614W        W89285  37.170  32.654   2.847
17615W        W89286   0.767  22.219   0.499
17616W        W89287  24.151   4.966  10.654
17617W        W89288  21.773  39.447   4.940
17618W        W89289  10.253  37.850  10.963
17619W        W89290  36.978  24.920   4.383
17620W        W89291  17.663  40.365   4.941
17621W        W89292  44.400  28.370   1.007
17622W        W89293   8.296  15.743  14.995
17623W        W89294   4.859  33.375   0.202
17624W        W89295  36.221  15.549   3.638
17625W        W89296  11.303  39.111   4.561
17626W        W89297  16.453   0.535  14.529
17627W        W89298  12.290  15.191   4.614
17628W        W89299  35.315  37.081  14.223
17629W        W89300  22.733   2.433  10.766
17630W        W89301   5.357  17.039  11.098
17631W        W89302  12.330  10.821  12.226
17632W        W89303  11.268  26.036   1.736
17633W        W89304  16.051   6.268  12.542
17634W        W89305  39.154  37.501   1.284
17635W        W89306  30.654  27.516  14.261
17636W        W89307  42.045  41.260  11.623
17637W        W89308  33.596  17.775  14.006
17638W        W89309   3.241  27.901   2.986
17639W        W89310  20.919  12.690   1.820
17640W        W89311  43.692  19.396   0.835
17641W        W89312  37.876   6.496   4.748
17642W        W89313  34.609  13.360  14.861
17643W        W89314  25.787  23.224  11.039
17644W        W89315  16.519   2.526   0.381
17645W        W89316  37.378  22.247   3.262
17646W        W89317  20.755  30.022  12.025
17647W        W89318   4.418  19.049   3.544
17648W        W89319   2.792  25.156   3.667
17649W        W89320   9.614  40.905  11.017
17650W        W89321  44.821   0.644  12.032
17651W        W89322  31.953  21.790   0.855
17652W        W89323  29.969   7.447   1.879
17653W        W89324  25.468  29.015   1.721
17654W        W89325  11.187  17.400  12.476
17655W        W89326  27.219  35.919   0.073
17656W        W89327   8.742  29.507   5.078
17657W        W89328  22.314  43.694   1.077
17658W        W89329  27.520   2.363  11.087
17659W        W89330  30.084  11.525   1.923
17660W        W89331  16.152  11.228  14.374
17661W        W89332  15.319   0.540  11.659
17662W        W89333  42.744  23.794  14.820
17663W        W89334  31.025   0.206  13.423
17664W        W89335  41.462  15.837   0.902
17665W        W89336  20.799  15.244   1.257
17666W        W89337  26.323  24.035  11.499
17667W        W89338  26.659  18.544   1.002
17668W        W89339  20.032  13.287  12.442
17669W        W89340   7.879  26.517   3.239
17670W        W89341  37.038   9.442  11.495
17671W        W89342  33.388  34.531  13.116
17672W        W89343  44.333  14.747   1.680
17673W        W89344  18.136  37.403   1.355
17674W        W89345   8.325  33.401  10.728
17675W        W89346  25.622  41.277  13.445
17676W        W89347  22.162  18.263   3.298
17677W        W89348   2.753  21.093  14.924
17678W        W89349  14.732  41.813   4.966
17679W        W89350  39.067  30.409   0.820
17680W        W89351  29.381  14.754   1.971
17681W        W89352  43.593  44.708  13.602
17682W        W89353  28.153  25.959   3.151
17683W        W89354  24.472  30.725   3.268
17684W        W89355   3.582  20.926  13.283
17685W        W89356  31.506  10.397   4.457
17686W        W89357  29.626  25.160  14.808
17687W        W89358  12.624  17.075  12.881
17688W        W89359  36.074  39.214   9.524
17689W        W89360   2.792   1.763   4.585
17690W        W89361  18.487  10.962   0.856
17691W        W89362   3.361   7.772  11.888
17692W        W89363  10.802  44.104   2.494
17693W        W89364  41.918  30.932   0.497
17694W        W89365  20.538  40.410  13.918
17695W        W89366   2.903   2.116   4.099
17696W        W89367  31.709  35.944  14.975
17697W        W89368  13.053  28.433  12.439
17698W        W89369   6.284  15.047   0.456
17699W        W89370  30.617  42.309  13.550
17700W        W89371  36.968   9.401   0.370
17701W        W89372  22.633  20.273   1.309
17702W        W89373  31.166  42.826   9.752
17703W        W89374  12.240  17.531   4.149
17704W        W89375  37.768   2.620  10.641
17705W        W89376   0.166  40.904  10.368
17706W        W89377  16.401   4.427   4.145
17707W        W89378  20.304   1.388   0.200
17708W        W89379  17.306   8.715  11.458
17709W        W89380  33.482  19.652  12.019
17710W        W89381  20.422  26.756   4.579
17711W        W89382  37.888  13.606   2.772
17712W        W89383  11.933  23.249   4.677
17713W        W89384  13.331   0.802  10.716
17714W        W89385  21.095  21.034   2.178
17715W        W89386  22.310  29.084   4.324
17716W        W89387  33.907  36.381   0.444
17717W        W89388  14.702   2.737   2.588
17718W        W89389  42.361  29.970  14.924
17719W        W89390  19.010  11.727   2.820
17720W        W89391  31.437  42.526   2.729
17721W        W89392  30.017  22.948   3.116
17722W        W89393  12.688   7.866  14.295
17723W        W89394  35.403  32.344   3.215
17724W        W89395  23.943  17.851   2.720
17725W        W89396  37.174  15.912  14.938
17726W        W89397  38.000  13.025  13.987
17727W        W89398  26.940  38.346  13.532
17728W        W89399  18.227  19.487  12.565
17729W        W89400  33.930   9.306   3.993
17730W        W89401  23.837  29.085   2.390
17731W        W89402   2.891  30.539  11.215
17732W        W89403  10.114   6.202  12.514
17733W        W89404  36.191  22.115   1.892
17734W        W89405  23.795  18.095   1.831
17735W        W89406  15.510   9.839   1.423
17736W        W89407  10.308  39.737   4.637
17737W        W89408  44.991  10.186   3.123
17738W        W89409   6.351  12.115   3.579
17739W        W89410  25.788  16.324  12.907
17740W        W89411   6.137  33.515   1.739
17741W        W89412   2.915  43.479   3.348
17742W        W89413  11.178  28.613   0.451
17743W        W89414  14.275  18.551   0.878
17744W        W89415  14.399   2.257  10.613
17745W        W89416   5.958  40.974   3.175
17746W        W89417  16.756   9.229   1.804
17747W        W89418  23.241  27.191   3.266
17748W        W89419  30.949  20.705   0.884
17749W        W89420   3.377  43.291   3.102
17750W        W89421   4.378  22.644  13.291
17751W        W89422  20.269  17.448  13.090
17752W        W89423  10.864   9.811  14.760
17753W        W89424  34.322  33.425   3.312
17754W        W89425  33.992   3.973  13.506
17755W        W89426  27.239   5.833  12.397
17756W        W89427   4.722  25.727  10.563
17757W        W89428  43.786  33.650   0.314
17758W        W89429  35.690  22.534  13.541
17759W        W89430  13.601  40.867  12.124
17760W        W89431  41.908  34.999   0.416
17761W        W89432  11.146   6.444  13.403
17762W        W89433  18.967   3.592   1.693
17763W        W89434  39.096   2.962  14.666
17764W        W89435  16.115  12.827  11.306
17765W        W89436  38.296  29.080  11.507
17766W        W89437  43.605   6.732  10.962
17767W        W89438  20.536   5.459   4.752
17768W        W89439  14.363  22.603  10.709
17769W        W89440   3.781  30.955   3.680
17770W        W89441  25.929  42.758   3.227
17771W        W89442   9.781  36.659   3.786
17772W        W89443   9.891   1.902  11.203
17773W        W89444  10.230  21.888  11.152
17774W        W89445  32.083  40.449   2.307
17775W        W89446  19.082  14.187  11.704
17776W        W89447   7.361  19.715   1.845
17777W        W89448  29.495  15.870  13.052
17778W        W89449  41.913   9.770   0.690
17779W        W89450  29.351  36.168   1.212
17780W        W89451  27.772  27.330   0.840
17781W        W89452  31.484  31.048   2.102
17782W        W89453  17.058  42.763   4.052
17783W        W89454  27.638  21.539   4.692
17784W        W89455  32.836   3.058   0.365
17785W        W89456  25.715  17.761  11.823
17786W        W89457  13.793   0.427   2.196
17787W        W89458   5.908   9.788   3.105
17788W        W89459  36.572   9.656  13.307
17789W        W89460  27.019   9.558   3.202
17790W        W89461  41.262  32.051  11.498
17791W        W89462  23.547  22.823  14.353
17792W        W89463  14.834  40.774  11.491
17793W        W89464   1.722  23.148   4.671
17794W        W89465  17.526  25.104  14.930
17795W        W89466  36.878   4.344  10.766
17796W        W89467  25.516   5.826  13.850
17797W        W89468  23.567  42.949  13.131
17798W        W89469  31.944  26.278  14.398
17799W        W89470  37.452   2.776  12.791
17800W        W89471  27.209  29.106  10.830
17801W        W89472  38.312  34.795   0.865
17802W        W89473  34.531  33.078   1.780
17803W        W89474  31.118  18.836   4.409
17804W        W89475  44.621  34.799  11.125
17805W        W89476   6.286  41.846  12.287
17806W        W89477   2.506  36.930   4.177
17807W        W89478  19.180  10.736  13.967
17808W        W89479  41.518  39.444   9.622
17809W        W89480  30.127  10.287  13.613
17810W        W89481  41.469   0.015   1.729
17811W        W89482  20.239  40.594   0.864
17812W        W89483  42.609  24.039   2.696
17813W        W89484   5.921  30.834  12.439
17814W        W89485  20.035  19.857   1.379
17815W        W89486   4.421  23.105   1.355
17816W        W89487  22.225  33.413  11.575
17817W        W89488  20.389  43.771  12.630
17818W        W89489  23.249  42.789  11.068
17819W        W89490  11.675  37.169  13.534
17820W        W89491  15.864  15.784  11.933
17821W        W89492  38.977  19.428   2.222
17822W        W89493   4.811  13.098   0.698
17823W        W89494  28.530  29.623  11.562
17824W        W89495  28.569   8.903   1.339
17825W        W89496  36.009   2.295   1.324
17826W        W89497  12.344  34.113   4.522
17827W        W89498  28.021  20.465  10.587
17828W        W89499   3.373  25.437  11.970
17829W        W89500  44.377  11.621   4.115
17830W        W89501  15.091  11.628  11.951
17831W        W89502  10.415  32.568  12.070
17832W        W89503   7.473  19.684   4.468
17833W        W89504  40.997  12.699   2.602
17834W        W89505  34.266  19.000  12.619
17835W        W89506  20.139  36.662  12.820
17836W        W89507  12.924  37.080   4.478
17837W        W89508  19.714  26.138  13.590
17838W        W89509  12.047  11.761   4.582
17839W        W89510  28.039  13.680  13.483
17840W        W89511  40.405   9.503  11.904
17841W        W89512  39.961  19.446   5.146
17842W        W89513  32.006  19.062   3.728
17843W        W89514  11.565  12.684  10.774
17844W        W89515  32.737  21.336   3.676
17845W        W89516  16.320  31.950   2.774
17846W        W89517  19.145   4.453  14.326
17847W        W89518  31.996  13.501   0.812
17848W        W89519  21.681   6.617   2.647
17849W        W89520  40.990  31.231  13.776
17850W        W89521   8.173  16.815  12.979
17851W        W89522  37.582  21.245  11.424
17852W        W89523  11.722   0.809  10.216
17853W        W89524   4.214  15.708  11.623
17854W        W89525  30.256  35.591   1.364
17855W        W89526  15.912   9.717   0.870
17856W        W89527  31.625  40.882   0.195
17857W        W89528  38.312   8.087   3.659
17858W        W89529  22.686  29.894   3.727
17859W        W89530   8.440  37.481   1.542
17860W        W89531  32.982  28.207  14.061
17861W        W89532  15.103  19.638   0.688
17862W        W89533  18.487  14.692  12.322
17863W        W89534  28.381  30.139  12.982
17864W        W89535  22.500  17.592   4.122
17865W        W89536  31.413  15.118   1.891
17866W        W89537  12.484  43.170   3.423
17867W        W89538  38.783  16.696   4.904
17868W        W89539  12.271  16.717   1.739
17869W        W89540  35.229  39.880  10.865
17870W        W89541  32.861  36.439  11.385
17871W        W89542  15.762  37.773  12.486
17872W        W89543  11.397   5.214   1.300
17873W        W89544  25.507  13.851   1.970
17874W        W89545  27.587  15.222   1.665
17875W        W89546  34.543  42.250  11.381
17876W        W89547   7.729  39.703   3.686
17877W        W89548  42.133  33.552   1.287
17878W        W89549   4.568  38.465   1.454
17879W        W89550  22.577  24.243  14.889
17880W        W89551  14.112  13.156  13.894
17881W        W89552   7.361  29.521   2.854
17882W        W89553   1.544   4.317   0.668
17883W        W89554   5.381  10.197   1.708
17884W        W89555  37.561  27.066   3.932
17885W        W89556  37.298  38.274  10.257
17886W        W89557  33.000  37.645   1.767
17887W        W89558  44.161  12.440  10.691
17888W        W89559  22.667  31.018  12.499
17889W        W89560  34.055  37.579  14.925
17890W        W89561  41.001  20.424  14.071
17891W        W89562  41.589  22.247   2.792
17892W        W89563  40.325  18.339   3.615
17893W        W89564  40.781  30.149  12.934
17894W        W89565  26.017  16.764   0.826
17895W        W89566   5.877  18.084   3.648
17896W        W89567   8.788   6.716  14.722
17897W        W89568  23.165  27.000   0.963
17898W        W89569  27.608   1.249   0.910
17899W        W89570   4.820   9.129  12.969
17900W        W89571  32.217   0.024  13.167
17901W        W89572   5.487  27.596   2.888
17902W        W89573  19.521  23.532   2.895
17903W        W89574  35.563  29.271   0.494
17904W        W89575   8.067   6.152  12.615
17905W        W89576   7.291  18.381  12.991
17906W        W89577  13.844   5.497   4.960
17907W        W89578  39.333   8.361  13.842
17908W        W89579  39.939  23.440  10.766
17909W        W89580  39.458  21.692   1.462
17910W        W89581  31.941  14.248   3.663
17911W        W89582  43.945   5.699  13.402
17912W        W89583  29.946  10.206   4.599
17913W        W89584   3.319  23.409  12.174
17914W        W89585  32.869  43.377   2.640
17915W        W89586  39.601  33.140  12.421
17916W        W89587   6.905  13.639   1.803
17917W        W89588  39.282   7.307  12.104
17918W        W89589  25.848  10.393  10.703
17919W        W89590  36.117  30.642  13.170
17920W        W89591  32.109  41.945   3.219
17921W        W89592  32.028  35.661   4.875
17922W        W89593   0.521  12.143  14.952
17923W        W89594   1.484  25.449   4.607
17924W        W89595  34.479   1.263   2.256
17925W        W89596  42.466  31.993  12.538
17926W        W89597  10.013  27.179  13.808
17927W        W89598  15.222   0.477   1.262
17928W        W89599  41.526  35.944  14.823
17929W        W89600   1.362  42.068  11.987
17930W        W89601  14.091  30.551   0.078
17931W        W89602  16.812  19.734  10.698
17932W        W89603  15.887   7.649   1.179
17933W        W89604  43.803   1.759   1.811
17934W        W89605   8.113  18.612   1.877
17935W        W89606  19.979  28.419  11.063
17936W        W89607   2.082  37.971  10.743
17937W        W89608   5.406  11.412   0.497
17938W        W89609  29.958  10.517   0.393
17939W        W89610  19.306  42.190   0.853
17940W        W89611  16.388  37.065  14.811
17941W        W89612   6.615   8.984  12.001
17942W        W89613  35.333  30.989   4.515
17943W        W89614  43.422   3.647  12.366
17944W        W89615  17.107  43.359   1.864
17945W        W89616  11.311  41.341  12.925
17946W        W89617  27.174  31.388   3.289
17947W        W89618  17.143  22.054   3.830
17948W        W89619  36.203  18.179   3.782
17949W        W89620   0.786   8.845  11.530
17950W        W89621   9.656  40.814  14.382
17951W        W89622  37.343   4.604  13.284
17952W        W89623  37.407  29.329   3.713
17953W        W89624  30.429   0.103   4.164
17954W        W89625  32.565   0.567  12.268
17955W        W89626  19.333   3.876   4.920
17956W        W89627  22.835  26.349   2.762
17957W        W89628  32.009  23.195   4.619
17958W        W89629  28.662  24.857   2.712
17959W        W89630   4.390  28.050   3.844
17960W        W89631  38.311  23.674   2.693
17961W        W89632  16.705  16.777  14.318
17962W        W89633  21.489  24.487  10.583
17963W        W89634  15.538   9.098   4.228
17964W        W89635   5.891  14.338  13.841
17965W        W89636  42.690   5.244   3.324
17966W        W89637   6.814   5.228   2.600
17967W        W89638   5.783  43.273   2.390
17968W        W89639  19.524  42.757  14.803
17969W        W89640  37.938  17.276   3.544
17970W        W89641  29.530  32.963   1.376
17971W        W89642  41.058   8.167   0.884
17972W        W89643  10.636   2.173  12.972
17973W        W89644  28.538  21.599   0.827
17974W        W89645   1.122   0.884  11.192
17975W        W89646  33.452   9.166  12.511
17976W        W89647  21.515  21.896   3.255
17977W        W89648  36.604  28.029   4.575
17978W        W89649  16.787  16.520  14.766
17979W        W89650  27.569  33.656  14.823
17980W        W89651  38.945  31.204  11.078
17981W        W89652   1.399  18.670  13.470
17982W        W89653  23.249  12.745   1.289
17983W        W89654  10.798  13.794  14.290
17984W        W89655   9.340  39.352   3.701
17985W        W89656   9.226  17.938   2.921
17986W        W89657  13.093  10.683  10.476
17987W        W89658  16.573  37.972   4.401
17988W        W89659  28.457   5.866  10.320
17989W        W89660  36.651  44.916  12.839
17990W        W89661  42.982  40.482  10.300
17991W        W89662   3.251  36.362  10.703
17992W        W89663  35.546   0.035   3.732
17993W        W89664  16.338  22.999  12.467
17994W        W89665   4.798  40.302  13.426
17995W        W89666  20.592  13.073  12.194
17996W        W89667  17.830  36.647   4.228
17997W        W89668   7.080  25.744   1.459
17998W        W89669  22.467   9.295  10.579
17999W        W89670   4.954  40.916   2.986
18000W        W89671  28.702  31.944   0.234
18001W        W89672  21.099   3.916  14.449
18002W        W89673   2.022  37.351  12.881
18003W        W89674  27.937   8.414  12.800
18004W        W89675  24.594   8.273  13.022
18005W        W89676  41.624  33.359   3.356
18006W        W89677  36.409  19.220  11.515
18007W        W89678  32.943  21.738  13.964
18008W        W89679   1.811  37.452   4.397
18009W        W89680  28.734  39.092  10.199
18010W        W89681   5.153  34.289   2.402
18011W        W89682  26.729  22.511   0.741
18012W        W89683   4.743   4.426   3.706
18013W        W89684  41.518  11.539  12.057
18014W        W89685  38.976  11.056   0.340
18015W        W89686  25.030  20.130  10.769
18016W        W89687   8.119   8.247  12.114
18017W        W89688  38.083  32.448   2.028
18018W        W89689  43.083  26.210   3.460
18019W        W89690  28.948   7.237   3.791
18020W        W89691  13.498  42.917  14.668
18021W        W89692  29.087  44.940  13.805
18022W        W89693  37.915  43.525  12.452
18023W        W89694  11.697   7.988  12.502
18024W        W89695  12.039  14.045   0.669
18025W        W89696  26.786  32.910   1.993
18026W        W89697   0.502  21.087   1.047
18027W        W89698  25.621  41.281   4.251
18028W        W89699  34.434  41.145   4.144
18029W        W89700  18.016  36.318   1.129
18030W        W89701  31.470  28.062   0.836
18031W        W89702  38.296  32.938  11.934
18032W        W89703  11.266   5.648   3.179
18033W        W89704  35.942  17.703   3.741
18034W        W89705  20.291  42.351   1.438
18035W        W89706  26.974  40.047  13.025
18036W        W89707  33.606   0.339  13.605
18037W        W89708  17.748  43.065  12.494
18038W        W89709  38.454  21.780   1.352
18039W        W89710   8.806  41.535   0.930
18040W        W89711  11.724  41.574   3.176
18041W        W89712  35.623  42.480   0.138
18042W        W89713   4.831  31.157   1.796
18043W        W89714   3.343  21.545   0.329
18044W        W89715  18.133  23.528  10.741
18045W        W89716  25.134  32.924  12.663
18046W        W89717  16.280   0.980   0.324
18047W        W89718  31.396  14.591   1.764
18048W        W89719  21.223   9.413   0.786
18049W        W89720  32.851  39.586   3.985
18050W        W89721  40.231  44.438   5.203
18051W        W89722   6.077  36.537  10.474
18052W        W89723  17.802  21.500   0.070
18053W        W89724  35.033  19.387  12.945
18054W        W89725  37.054  19.347   3.113
18055W        W89726  10.067  24.676   3.183
18056W        W89727  21.324  34.154  14.775
18057W        W89728  31.395  18.102   3.340
18058W        W89729   5.320  31.892  12.092
18059W        W89730  23.890  10.134   2.828
18060W        W89731   1.180  30.427   4.271
18061W        W89732   1.301   8.726  10.844
18062W        W89733  38.494  39.755  11.600
18063W        W89734  21.068  12.048  12.969
18064W        W89735  34.288   7.348  13.583
18065W        W89736  42.030   6.781  11.974
18066W        W89737  17.121  39.807  13.266
18067W        W89738  27.914   9.610   3.698
18068W        W89739   8.386  14.065   3.825
18069W        W89740   7.218   0.470  12.560
18070W        W89741  10.298  36.535   4.124
18071W        W89742   6.651  36.680  13.162
18072W        W89743   9.149  24.979   1.313
18073W        W89744   3.200   9.395   2.252
18074W        W89745  36.022  42.348   0.424
18075W        W89746   8.919  33.103  13.231
18076W        W89747  28.241  14.024   2.091
18077W        W89748  25.501  27.676  12.006
18078W        W89749   1.007   5.755   1.822
18079W        W89750  23.053  31.600  12.393
18080W        W89751  25.694  19.869  12.199
18081W        W89752  25.184   1.712  14.360
18082W        W89753  17.149  39.519  14.428
18083W        W89754   5.830  36.833  14.295
18084W        W89755  17.127   2.791  12.536
18085W        W89756  29.505  39.583  12.041
18086W        W89757  41.889  15.693   2.194
18087W        W89758  31.451  37.450   4.542
18088W        W89759  41.750  17.857  12.452
18089W        W89760  25.982  31.353   4.203
18090W        W89761  28.677  18.472  13.399
18091W        W89762  31.947  15.253  11.726
18092W        W89763  17.990  17.751  12.850
18093W        W89764  22.801  17.994  13.814
18094W        W89765  39.071   3.537   2.775
18095W        W89766  19.001  17.457  13.078
18096W        W89767  32.133  13.283   2.274
18097W        W89768  32.699  17.198  14.894
18098W        W89769   7.135  26.767  12.407
18099W        W89770  34.492  42.881   2.737
18100W        W89771   8.154   5.414  14.868
18101W        W89772  30.933  24.140  12.408
18102W        W89773  35.160  35.545   2.853
18103W        W89774  37.078  41.942  14.358
18104W        W89775   8.839   1.050   2.833
18105W        W89776  28.084  28.057  12.810
18106W        W89777  23.975   8.119  13.836
18107W        W89778   4.810  14.676  12.542
18108W        W89779  20.381  31.470   3.136
18109W        W89780   1.540   5.868  11.046
18110W        W89781  16.945  16.617  12.026
18111W        W89782   7.190  24.256   3.792
18112W        W89783  19.606  10.655   1.436
18113W        W89784  38.920  37.339  12.866
18114W        W89785  43.950  35.123   4.119
18115W        W89786  12.103  40.399   2.777
18116W        W89787  41.032  32.134  11.048
18117W        W89788  30.724  21.751   4.022
18118W        W89789  37.427  10.082  10.769
18119W        W89790  18.038  25.067   0.386
18120W        W89791   3.493  22.365   3.827
18121W        W89792  18.185  37.874  10.450
18122W        W89793  21.407  44.452  11.001
18123W        W89794  25.986   6.897   3.748
18124W        W89795   7.105  43.115  13.956
18125W        W89796   5.270   9.204   0.445
18126W        W89797  26.010  12.470   3.894
18127W        W89798  41.240  41.890  12.032
18128W        W89799  43.377  22.147  13.898
18129W        W89800  24.067  35.798   4.898
18130W        W89801  40.784  15.314  14.090
18131W        W89802   2.502  25.468  14.759
18132W        W89803  17.262  13.918  12.023
18133W        W89804  41.464   1.213   0.263
18134W        W89805   4.374  15.563   2.309
18135W        W89806  25.188  24.406   3.711
18136W        W89807  20.576  25.175  13.527
18137W        W89808  32.010   7.593  12.844
18138W        W89809  33.947  20.404   4.451
18139W        W89810  17.189  26.997  14.328
18140W        W89811   2.753  24.412  12.774
18141W        W89812  12.825  20.044   3.629
18142W        W89813  34.592  34.655  14.965
18143W        W89814  39.076  32.353   4.750
18144W        W89815  26.954  35.456   3.192
18145W        W89816  24.395  36.811   0.725
18146W        W89817  13.873  14.558  13.223
18147W        W89818   7.619  38.886  14.620
18148W        W89819  32.831   5.774   3.496
18149W        W89820   2.044  20.088  14.857
18150W        W89821   1.975   9.659  14.782
18151W        W89822  20.074  24.563  11.947
18152W        W89823  31.640  37.577  14.806
18153W        W89824   3.279  32.857   3.694
18154W        W89825  41.855  43.610  11.007
18155W        W89826   8.657   0.181   3.393
18156W        W89827   2.497  12.852   3.584
18157W        W89828  38.930  21.296  11.239
18158W        W89829   9.682  30.694  12.436
18159W        W89830  27.552  24.206  14.237
18160W        W89831  37.338  15.160  11.381
18161W        W89832   1.875  21.818   1.289
18162W        W89833  24.521  34.391  14.808
18163W        W89834  37.580  41.467   1.981
18164W        W89835  32.963   4.934   3.352
18165W        W89836  23.518  36.919   0.535
18166W        W89837  37.061  17.526   3.710
18167W        W89838  22.988  12.774   0.793
18168W        W89839   8.685  43.361  14.845
18169W        W89840   5.472  17.662   2.350
18170W        W89841  24.745  23.474   1.943
18171W        W89842  12.658  43.856   0.871
18172W        W89843  13.207   3.538  12.573
18173W        W89844  11.099  39.023  12.836
18174W        W89845   3.020  19.864  14.884
18175W        W89846   7.284  20.684   2.133
18176W        W89847  20.374  26.425   5.492
18177W        W89848  34.685  36.844   1.457
18178W        W89849  33.120  15.836  11.985
18179W        W89850  23.949   7.083  13.936
18180W        W89851  38.059  37.771  13.151
18181W        W89852  19.053  44.623  14.338
18182W        W89853  20.089  18.278  11.462
18183W        W89854  36.382  28.088   0.948
18184W        W89855   5.555   0.051  14.586
18185W        W89856  13.841  38.756   1.323
18186W        W89857  37.242  21.926   1.808
18187W        W89858  38.617  23.136   4.290
18188W        W89859  41.336  41.863   2.157
18189W        W89860   4.816  14.806  14.588
18190W        W89861  24.582  26.618  13.836
18191W        W89862  30.118  29.855  13.596
18192W        W89863  42.086  20.030  12.246
18193W        W89864  44.292  11.475   0.264
18194W        W89865  40.775   5.737   1.721
18195W        W89866  16.567  27.946   3.288
18196W        W89867  17.227   9.716   2.695
18197W        W89868   3.123  19.546   2.675
18198W        W89869  26.487   0.750   3.643
18199W        W89870  37.329  10.673  13.879
18200W        W89871  12.590   4.408   2.848
18201W        W89872  10.777  41.846   3.402
18202W        W89873  35.020  19.964  12.082
18203W        W89874   6.024  38.967   3.199
18204W        W89875  33.079  44.618  14.764
18205W        W89876  39.390  13.714   3.560
18206W        W89877  21.485  35.613   1.432
18207W        W89878  36.402  30.100  12.597
18208W        W89879  11.884  33.971   2.372
18209W        W89880   5.479  31.091   3.808
18210W        W89881  36.043  41.018  14.726
18211W        W89882  30.860  27.886   1.249
18212W        W89883   7.241  32.720  12.734
18213W        W89884  41.266  24.164  11.995
18214W        W89885  22.189   3.076  12.599
18215W        W89886  23.928  22.519   3.731
18216W        W89887   3.417  35.097   4.075
18217W        W89888   8.972  31.894   3.696
18218W        W89889  17.698  32.604   2.155
18219W        W89890  26.357   8.804   9.793
18220W        W89891   7.301  44.479   2.409
18221W        W89892  16.594  23.937   2.776
18222W        W89893  26.978   0.480  12.059
18223W        W89894  25.055  44.342  12.380
18224W        W89895   9.255  43.295   1.250
18225W        W89896  22.454  26.511   2.123
18226W        W89897  41.463  44.349   3.930
18227W        W89898  44.486   2.944  14.692
18228W        W89899   9.289  21.213  10.540
18229W        W89900  44.366  37.600   4.149
18230W        W89901  17.623  30.374   3.445
18231W        W89902  21.023  35.071  11.138
18232W        W89903  13.697  13.108   4.629
18233W        W89904  40.900  34.419  10.647
18234W        W89905  38.168   7.333  14.468
18235W        W89906  35.610   3.052  14.074
18236W        W89907  12.235  38.861   1.696
18237W        W89908  10.412  16.660  13.325
18238W        W89909  28.062   6.935   9.800
18239W        W89910  14.327  20.496   2.457
18240W        W89911  10.855  30.245  11.133
18241W        W89912  42.768  43.834  13.001
18242W        W89913  15.085  24.715  13.406
18243W        W89914  10.240  32.498  11.583
18244W        W89915  17.164  43.730  12.172
18245W        W89916  14.917  40.026   1.039
18246W        W89917  16.803  36.599  12.291
18247W        W89918  30.775  12.868  14.023
18248W        W89919   1.711  22.155   0.891
18249W        W89920  34.411  38.130   0.810
18250W        W89921  32.021  16.143  13.455
18251W        W89922  15.960  38.824   1.492
18252W        W89923  32.878  10.827  12.028
18253W        W89924  20.775   5.746   3.096
18254W        W89925  24.687  38.513  13.982
18255W        W89926  31.081  31.901  14.008
18256W        W89927  22.229  20.267  13.413
18257W        W89928  43.764  27.579   1.147
18258W        W89929  34.344  38.422   2.778
18259W        W89930  22.953  20.210   4.498
18260W        W89931  14.621  13.833   3.396
18261W        W89932  37.457  27.957   5.057
18262W        W89933  37.918  34.508   0.738
18263W        W89934  14.716  32.464   3.905
18264W        W89935  41.172  29.673  13.016
18265W        W89936  11.616  39.495  11.544
18266W        W89937  25.779  10.867   4.138
18267W        W89938  26.617   2.411  13.242
18268W        W89939  41.367  35.826  11.974
18269W        W89940  44.757  14.964   5.789
18270W        W89941  22.533   4.467   0.440
18271W        W89942  10.899  35.635   1.613
18272W        W89943   4.235  33.414  13.523
18273W        W89944   7.394   5.791   0.338
18274W        W89945  14.635  33.098   0.392
18275W        W89946  23.529  17.526   0.872
18276W        W89947  43.600  17.626   2.405
18277W        W89948  29.501  28.453  11.366
18278W        W89949   4.352  37.089   1.767
18279W        W89950  24.556  28.664   1.811
18280W        W89951   1.718  34.408  14.823
18281W        W89952  24.542  32.955  13.294
18282W        W89953  39.396  44.086  13.465
18283W        W89954  42.897  18.330  11.606
18284W        W89955   9.558  13.229   2.315
18285W        W89956   1.756  32.037  13.880
18286W        W89957  26.194  20.619   1.473
18287W        W89958  20.302  39.834  11.286
18288W        W89959  27.408  31.222   2.739
18289W        W89960  26.654  35.832   0.932
18290W        W89961  17.025  43.387   4.589
18291W        W89962   3.370  37.059  14.685
18292W        W89963  11.592  27.662   1.628
18293W        W89964  13.240   7.666  11.670
18294W        W89965  33.811  14.254  11.006
18295W        W89966  31.160  22.479  11.537
18296W        W89967  33.505  21.971  13.519
18297W        W89968   8.980  21.570   4.663
18298W        W89969  10.736  38.853   1.386
18299W        W89970  35.175   0.963  13.039
18300W        W89971  11.597  31.018   2.226
18301W        W89972   2.292   1.957   4.576
18302W        W89973  29.592  42.530   3.166
18303W        W89974  36.491  35.350   4.117
18304W        W89975  36.405  44.337  10.710
18305W        W89976   9.278  43.302  10.524
18306W        W89977  34.457   4.379   1.592
18307W        W89978  20.796  30.364  13.960
18308W        W89979   7.493   4.267  13.697
18309W        W89980  38.098  14.946   0.353
18310W        W89981  14.882  25.492   1.148
18311W        W89982  13.135   8.386  11.074
18312W        W89983  18.074  30.049   0.973
18313W        W89984  19.560  19.284   2.325
18314W        W89985   8.258  42.823  12.910
18315W        W89986  29.019  28.693  11.099
18316W        W89987  42.564  40.192   4.954
18317W        W89988   2.533   7.079  12.915
18318W        W89989  17.074  38.014   0.324
18319W        W89990  12.807  24.762   0.916
18320W        W89991  10.643  33.195  14.404
18321W        W89992  36.018   8.934  11.514
18322W        W89993   3.465  39.932  12.902
18323W        W89994  28.693  40.486  14.355
18324W        W89995  44.441  31.876  11.567
18325W        W89996  13.406   7.248   3.811
18326W        W89997   0.210   6.703   2.502
18327W        W89998  18.183  39.223  12.332
18328W        W89999  16.499  13.713  13.377
18329W        W90000  19.062  41.891  14.531
18330W        W90001  41.255   5.827   0.817
18331W        W90002  31.252  14.498  14.941
18332W        W90003  20.046   3.910   0.304
18333W        W90004  16.240  39.649   3.981
18334W        W90005   9.553   4.814   1.765
18335W        W90006   6.823  10.837  13.968
18336W        W90007  34.951  17.642  14.278
18337W        W90008   7.750  19.133   4.574
18338W        W90009   4.687  35.152  11.149
18339W        W90010  10.939  28.991   1.289
18340W        W90011  31.586  24.137  11.078
18341W        W90012   2.763   2.332  11.075
18342W        W90013   4.833  22.108   4.369
18343W        W90014  19.743  42.373   0.647
18344W        W90015   1.544   0.184  13.194
18345W        W90016  37.388   2.436  14.164
18346W        W90017  14.878  10.881  13.043
18347W        W90018  39.606  21.785  11.064
18348W        W90019   0.808   3.232  11.132
18349W        W90020   0.929  21.133   0.290
18350W        W90021  18.607  14.390   5.303
18351W        W90022  21.448  19.473   4.972
18352W        W90023  43.776  11.690  14.953
18353W        W90024   0.393  10.658   0.976
18354W        W90025  27.377   0.948   4.345
18355W        W90026  38.168  14.097  10.235
18356W        W90027  42.554  44.407  11.098
18357W        W90028  12.821  12.765  13.370
18358W        W90029  41.443  13.843  14.934
18359W        W90030  32.894  14.239  10.654
18360W        W90031  27.506   7.798   3.789
18361W        W90032  25.576  27.729   1.348
18362W        W90033   4.145  26.201   2.058
18363W        W90034  27.942  12.706   1.306
18364W        W90035  15.664   4.429   0.294
18365W        W90036  40.754  25.508  11.095
18366W        W90037   7.137  32.084   0.429
18367W        W90038  13.684  22.739   1.700
18368W        W90039  19.587  25.141   0.836
18369W        W90040   4.649  18.025  14.220
18370W        W90041   6.025   5.458  13.327
18371W        W90042   9.316   7.134   1.165
18372W        W90043   5.903  32.985   3.283
18373W        W90044   1.572   9.207   2.826
18374W        W90045  43.756  21.452   2.295
18375W        W90046  27.874  14.097  12.055
18376W        W90047  27.008  25.999  13.600
18377W        W90048  17.753  32.558  14.833
18378W        W90049   9.455  17.578  14.463
18379W        W90050  44.736  41.756  14.277
18380W        W90051  44.384  34.025  10.765
18381W        W90052   4.690   1.226   1.849
18382W        W90053  36.727   2.708   1.659
18383W        W90054  37.766  37.351   5.481
18384W        W90055  13.565  25.716   2.892
18385W        W90056   0.286  36.598  12.080
18386W        W90057  39.447  43.303  13.821
18387W        W90058   1.870  13.289   3.423
18388W        W90059  42.360  17.715   2.858
18389W        W90060  43.474   1.361   1.046
18390W        W90061  11.129  29.866  12.517
18391W        W90062  15.998  17.122   3.724
18392W        W90063   7.486  42.394  13.442
18393W        W90064  24.629  27.196   4.092
18394W        W90065  24.019  12.841   2.641
18395W        W90066  34.699  19.650   2.763
18396W        W90067   7.343  13.225  12.162
18397W        W90068  22.763  22.191   2.769
18398W        W90069  42.412  40.860   2.217
18399W        W90070   2.695  14.717  13.340
18400W        W90071  30.180  27.542  12.785
18401W        W90072   6.208  37.320   0.998
18402W        W90073  21.046   4.463   2.354
18403W        W90074   6.831   7.176  14.814
18404W        W90075  38.789  20.821   0.814
18405W        W90076  19.557  33.550   4.618
18406W        W90077  20.228   5.332  14.166
18407W        W90078  31.035  21.201  11.129
18408W        W90079  29.647  26.195  11.441
18409W        W90080  36.447  29.208  14.967
18410W        W90081  44.371  38.496  13.477
18411W        W90082  29.513   1.728   1.170
18412W        W90083  25.051  25.086  13.872
18413W        W90084  26.781  24.597   0.544
18414W        W90085  16.016  24.900  13.267
18415W        W90086  40.689   0.003   3.770
18416W        W90087   6.750  14.575   0.897
18417W        W90088  44.965   7.681   1.474
18418W        W90089   8.452   9.498   9.938
18419W        W90090   4.236  25.789  10.709
18420W        W90091  31.193  32.956  13.408
18421W        W90092  28.401  25.985  13.842
18422W        W90093  42.578  15.229   1.320
18423W        W90094  33.134   1.719   0.688
18424W        W90095  40.458  30.435   5.014
18425W        W90096  28.414   2.138   3.202
18426W        W90097  44.940  26.825  12.380
18427W        W90098   6.190   6.398  11.605
18428W        W90099  36.557  36.131   0.755
18429W        W90100   4.178  12.453   4.616
18430W        W90101  35.022   5.391   4.456
18431W        W90102  29.592  29.871  13.411
18432W        W90103  23.601   5.775  14.580
18433W        W90104  16.548  17.514  12.443
18434W        W90105  34.963  39.992  13.767
18435W        W90106   2.019  42.756   2.270
18436W        W90107  10.928  38.743   2.291
18437W        W90108   1.012   6.723  13.452
18438W        W90109  36.155   2.277  12.871
18439W        W90110  28.505  18.698  12.461
18440W        W90111  24.110   5.876   1.849
18441W        W90112  24.916  33.583   1.022
18442W        W90113  10.617  40.432  13.999
18443W        W90114   1.426  16.780   2.374
18444W        W90115  41.880  30.172  13.033
18445W        W90116   3.924  18.632  14.943
18446W        W90117  33.540  18.526  14.298
18447W        W90118  30.155  22.173  10.636
18448W        W90119  21.185  36.863  14.289
18449W        W90120   3.435  34.301   2.923
18450W        W90121  12.073   2.959  10.682
18451W        W90122  32.313  22.661   3.731
18452W        W90123   2.392  19.639   9.761
18453W        W90124  43.840  41.568  13.930
18454W        W90125   2.242  12.396   3.579
18455W        W90126  28.002   4.659  14.499
18456W        W90127  32.559  28.104   9.778
18457W        W90128  18.728  27.055  11.698
18458W        W90129  44.746  13.158  13.741
18459W        W90130  36.886  36.999   0.978
18460W        W90131  31.018  33.423  13.227
18461W        W90132  17.515  44.259  13.120
18462W        W90133   9.642  13.726   0.309
18463W        W90134  11.498  37.774  11.107
18464W        W90135  28.854   7.818  11.702
18465W        W90136  25.526   2.388  12.827
18466W        W90137  43.477  44.212  13.471
18467W        W90138  13.156  33.874   1.857
18468W        W90139  12.647   3.417   4.667
18469W        W90140   4.998  36.927  11.475
18470W        W90141  40.759  25.053   2.803
18471W        W90142  19.766  12.134   0.840
18472W        W90143  17.633  20.448   3.244
18473W        W90144  26.017  18.366   3.769
18474W        W90145  27.997  39.029  13.054
18475W        W90146  36.603  44.062   3.771
18476W        W90147   6.995  40.581   2.495
18477W        W90148  42.373  27.457   3.655
18478W        W90149  22.061   8.445   3.561
18479W        W90150   2.281  44.993  14.672
18480W        W90151  20.487  36.977   3.121
18481W        W90152  29.747  31.480  11.050
18482W        W90153  12.848  28.047   0.002
18483W        W90154  27.497  20.556  10.656
18484W        W90155  41.776  23.981  14.839
18485W        W90156  20.551  42.185  13.349
18486W        W90157  35.511  17.285  13.838
18487W        W90158  25.539  33.653   3.211
18488W        W90159  10.296  33.636  12.623
18489W        W90160  28.490  17.201  10.670
18490W        W90161  23.409   1.912  11.549
18491W        W90162  26.390  36.595  12.891
18492W        W90163  28.808  23.211  12.926
18493W        W90164  23.886  13.001  13.922
18494W        W90165  33.898  39.357  11.351
18495W        W90166  40.464  39.029   3.777
18496W        W90167  32.011  20.312  10.652
18497W        W90168   7.919  18.654   0.681
18498W        W90169  11.699  10.236   3.039
18499W        W90170   9.199   4.916  10.740
18500W        W90171   2.368  42.589  12.244
18501W        W90172  26.360  30.295  13.960
18502W        W90173  27.128  30.093  13.547
18503W        W90174  11.779  39.752   0.862
18504W        W90175  21.672  32.086   4.551
18505W        W90176  31.647   2.641   0.862
18506W        W90177  26.205  18.516   3.287
18507W        W90178  13.107  12.570   1.346
18508W        W90179  11.216  24.728  10.621
18509W        W90180  42.427   2.783   2.785
18510W        W90181   0.435  30.661  12.499
18511W        W90182  24.717  12.252  14.952
18512W        W90183  41.709  27.509   4.472
18513W        W90184  30.473  12.089   1.258
18514W        W90185   4.830  19.014   1.834
18515W        W90186  21.141  23.004  10.844
18516W        W90187  38.608  41.021   0.675
18517W        W90188  17.612  28.945   3.345
18518W        W90189  22.455  38.171   3.808
18519W        W90190  10.234  34.103   0.296
18520W        W90191  43.958  32.494  12.747
18521W        W90192   8.374  11.697   1.118
18522W        W90193   1.011   3.834  11.037
18523W        W90194  28.530  33.049   2.049
18524W        W90195  40.504  43.045   0.028
18525W        W90196  42.325   6.642   1.694
18526W        W90197  30.535  25.687   2.590
18527W        W90198  34.584  32.870   0.432
18528W        W90199  41.460   6.315   1.763
18529W        W90200   9.732  23.104   4.236
18530W        W90201  18.677  18.836   1.337
18531W        W90202  37.150  24.457  11.196
18532W        W90203  15.587  14.272   2.682
18533W        W90204  40.874  25.532  12.912
18534W        W90205   8.365  25.503   1.234
18535W        W90206  18.165  25.139  13.643
18536W        W90207  18.083  12.240  10.700
18537W        W90208  29.972  23.070  12.211
18538W        W90209   0.690  39.518   4.450
18539W        W90210  25.067  43.510   1.326
18540W        W90211  20.814  13.603  13.106
18541W        W90212   6.354  42.672  14.920
18542W        W90213  42.607  27.947  13.058
18543W        W90214   9.135   7.539  11.643
18544W        W90215  42.415   2.371   4.862
18545W        W90216  28.530   8.242   0.765
18546W        W90217  39.043  13.664   2.440
18547W        W90218  10.849   2.847   2.191
18548W        W90219  10.404  21.262   1.878
18549W        W90220  16.208  25.083  11.529
18550W        W90221  44.398  15.698   0.025
18551W        W90222  42.561  23.411  14.502
18552W        W90223  34.870   0.992   3.300
18553W        W90224  32.953  31.129   2.823
18554W        W90225  44.887  23.580   3.779
18555W        W90226  14.188  10.131  14.941
18556W        W90227  11.739  20.943  13.329
18557W        W90228  29.463   0.334   4.298
18558W        W90229  22.113   4.513   2.742
18559W        W90230  10.487  41.271   4.110
18560W        W90231  17.043  44.369  12.932
18561W        W90232  27.429   0.471   1.324
18562W        W90233  12.003  36.439  10.448
18563W        W90234  43.998  27.434   1.600
18564W        W90235   6.941   1.282  11.162
18565W        W90236  31.414  44.414  12.833
18566W        W90237  20.229  24.170   4.337
18567W        W90238   9.863  32.579  14.214
18568W        W90239  31.660  12.287   3.151
18569W        W90240  25.650  34.127  12.608
18570W        W90241  38.020  13.663   2.251
18571W        W90242  29.671  28.924  13.561
18572W        W90243  13.191  15.127   1.070
18573W        W90244  40.774   9.272   2.831
18574W        W90245  38.981  16.568  11.058
18575W        W90246  22.721  30.069  13.414
18576W        W90247   2.685   1.978  10.648
18577W        W90248   6.336  29.141  13.937
18578W        W90249   8.177   1.730  13.033
18579W        W90250  30.692   9.770  14.075
18580W        W90251  30.449  30.312  14.828
18581W        W90252  15.741  17.284  14.769
18582W        W90253  43.582  12.831  13.061
18583W        W90254  24.244  42.437   3.222
18584W        W90255  17.846  23.938   4.217
18585W        W90256  28.923  32.894  14.912
18586W        W90257  22.582  24.417  14.036
18587W        W90258   6.900  20.224   0.349
18588W        W90259  16.499   2.420   4.023
18589W        W90260  29.530  26.596   1.553
18590W        W90261  34.785  23.606  12.388
18591W        W90262  23.183  28.124  13.847
18592W        W90263  26.045  22.497   3.009
18593W        W90264  17.266  30.268   5.035
18594W        W90265  41.437  32.503  11.701
18595W        W90266  21.254  44.214   3.660
18596W        W90267  25.891  19.544   4.886
18597W        W90268  35.892  19.383  12.010
18598W        W90269  28.135   3.662  14.457
18599W        W90270  25.674   2.447   4.159
18600W        W90271   5.714  24.760   1.893
18601W        W90272   8.174  24.506   4.086
18602W        W90273  28.526  17.385  11.151
18603W        W90274  20.582  11.729  10.981
18604W        W90275  19.321   5.277  11.632
18605W        W90276  10.210  33.963   0.961
18606W        W90277  38.575  14.797  12.478
18607W        W90278  37.326  32.710  10.766
18608W        W90279  36.496  38.592   0.427
18609W        W90280  28.405  33.004  10.504
18610W        W90281  37.476  29.955  12.951
18611W        W90282  13.632  18.147   1.703
18612W        W90283   6.286  12.342  12.016
18613W        W90284  36.887  27.069  11.546
18614W        W90285  10.316  23.607   0.345
18615W        W90286  22.564  23.381   0.628
18616W        W90287  29.640  21.120  14.883
18617W        W90288  29.908  11.731   4.718
18618W        W90289  40.594  28.202  12.038
18619W        W90290  41.971  33.062   1.401
18620W        W90291  16.805  39.856   1.230
18621W        W90292   0.823  28.818   2.266
18622W        W90293   3.603  26.213   0.366
18623W        W90294  29.047  20.798  14.475
18624W        W90295  37.961  30.673   4.940
18625W        W90296   1.398  23.956  12.535
18626W        W90297  36.829  28.562  10.609
18627W        W90298   5.396  42.774  12.391
18628W        W90299  44.827  16.762   2.463
18629W        W90300  18.340  13.942  14.322
18630W        W90301   8.089  32.912   3.667
18631W        W90302   0.187  28.187   0.332
18632W        W90303  37.104   6.250  14.001
18633W        W90304  43.033  35.189  12.894
18634W        W90305  33.653  26.051  12.388
18635W        W90306  28.179  21.192   4.984
18636W        W90307  21.628  32.212   1.689
18637W        W90308  44.906  14.068   5.506
18638W        W90309   7.670  19.074  13.370
18639W        W90310  33.367  21.218   0.881
18640W        W90311  12.285   4.835  10.939
18641W        W90312  43.406  21.985   0.498
18642W        W90313  34.012   8.707  13.354
18643W        W90314  32.018   0.108  14.305
18644W        W90315  30.621  38.444   2.154
18645W        W90316   6.657   3.146  10.984
18646W        W90317  25.095  39.584   3.663
18647W        W90318   2.874  43.247   3.818
18648W        W90319   6.243  18.020   3.272
18649W        W90320  14.215  41.002  11.489
18650W        W90321   3.717   4.192  14.369
18651W        W90322  37.857  42.070  12.413
18652W        W90323  16.572  36.884   3.748
18653W        W90324   0.697  41.770   4.116
18654W        W90325  29.616  37.303  12.393
18655W        W90326  30.088  41.325  13.422
18656W        W90327  28.146  25.691  13.506
18657W        W90328  14.723   4.970   5.011
18658W        W90329  15.113  40.909  10.980
18659W        W90330  21.724  37.219   4.635
18660W        W90331  35.599   8.665   2.804
18661W        W90332  37.547   8.165  10.711
18662W        W90333  43.825   4.920   2.379
18663W        W90334  38.371   6.111   3.724
18664W        W90335   0.309  37.861  10.493
18665W        W90336  11.273  25.961   0.548
18666W        W90337  23.607  17.432   3.959
18667W        W90338   0.208  21.386  10.953
18668W        W90339  33.309   4.600   3.186
18669W        W90340  20.586  38.527  14.378
18670W        W90341  37.698   1.541   2.899
18671W        W90342  27.498  27.195  12.455
18672W        W90343  14.564  31.156   3.726
18673W        W90344  33.127  34.595  11.305
18674W        W90345  40.823  29.516   4.522
18675W        W90346  13.604  26.420   4.538
18676W        W90347  19.576  33.590  11.543
18677W        W90348  24.995  15.732   3.273
18678W        W90349  28.504  35.076   0.921
18679W        W90350   9.484  14.222  13.050
18680W        W90351   4.190  22.887   0.911
18681W        W90352  33.859  30.226   2.919
18682W        W90353  42.385  15.610  14.835
18683W        W90354  21.763   9.765   0.223
18684W        W90355  34.822  28.742   3.898
18685W        W90356   5.403   9.862  11.947
18686W        W90357  38.099  42.514   2.714
18687W        W90358   6.299  37.572   4.282
18688W        W90359  16.581  14.313  11.623
18689W        W90360  19.122  13.166   1.764
18690W        W90361  34.909  36.509  11.434
18691W        W90362  20.271  11.032  12.035
18692W        W90363  26.505  36.448  14.997
18693W        W90364   8.703   9.355  11.024
18694W        W90365   7.879  36.822  12.607
18695W        W90366  10.032  11.229  11.591
18696W        W90367   1.293  21.803   0.883
18697W        W90368  40.385  43.251   2.140
18698W        W90369  34.887  23.889  13.679
18699W        W90370  14.769  44.112  13.306
18700W        W90371  24.212   1.483  12.517
18701W        W90372  11.311  25.821  12.991
18702W        W90373   9.172  32.350  13.618
18703W        W90374  24.218  25.708   3.174
18704W        W90375  35.916  27.613  10.759
18705W        W90376  27.110  23.428   1.717
18706W        W90377  41.402  43.746  11.195
18707W        W90378   0.615  25.214  14.530
18708W        W90379   9.257  25.553   3.166
18709W        W90380   4.443  24.399   1.877
18710W        W90381  43.484  12.383  12.828
18711W        W90382  21.568  42.454   1.163
18712W        W90383   2.243   6.134   4.162
18713W        W90384  27.085  43.215   4.891
18714W        W90385  20.529  10.888  13.441
18715W        W90386  19.631  18.077  10.574
18716W        W90387   4.615  20.077   4.524
18717W        W90388   4.955  13.921  14.051
18718W        W90389  43.376  40.239   3.370
18719W        W90390   1.729  34.183  12.090
18720W        W90391  36.941  19.351   0.778
18721W        W90392  33.478   0.159  14.556
18722W        W90393   7.017  15.183  12.016
18723W        W90394  12.668  34.199   2.725
18724W        W90395  14.280  42.042  12.598
18725W        W90396  13.231  18.645  10.459
18726W        W90397  10.419  41.784   0.985
18727W        W90398  20.336  20.850   4.152
18728W        W90399  23.092  32.402   1.756
18729W        W90400  42.476   4.239  12.367
18730W        W90401   3.998  29.460   3.380
18731W        W90402  16.491   9.219   3.702
18732W        W90403  27.466   9.329   2.148
18733W        W90404  44.680  44.796  11.537
18734W        W90405   2.739   9.946   0.389
18735W        W90406  17.719   2.038  14.317
18736W        W90407  24.944  23.223  12.670
18737W        W90408  37.251  26.137  13.501
18738W        W90409   1.745   0.347   3.257
18739W        W90410  14.646   6.325  11.803
18740W        W90411  14.452  30.455   1.499
18741W        W90412  31.537   4.880  13.412
18742W        W90413  34.981   9.867   0.411
18743W        W90414   7.631  28.688  12.092
18744W        W90415  39.505  31.081   4.891
18745W        W90416  15.645  36.188  11.501
18746W        W90417   6.883  21.195  10.903
18747W        W90418  17.544  11.314  12.440
18748W        W90419  14.057  16.875   2.160
18749W        W90420  37.131  24.570   3.524
18750W        W90421  28.637  35.484  12.056
18751W        W90422  16.593  24.584   2.365
18752W        W90423  15.068  28.684   1.624
18753W        W90424  35.216  22.634  13.708
18754W        W90425  27.543  13.319  14.288
18755W        W90426   0.256  38.266  12.005
18756W        W90427  31.684   8.298  11.384
18757W        W90428  41.802  10.287  12.402
18758W        W90429  14.315   6.500   3.070
18759W        W90430  24.886   6.954   0.035
18760W        W90431  27.418  30.002   0.474
18761W        W90432  39.886  10.089   3.740
18762W        W90433   0.902  33.223  12.006
18763W        W90434   3.552  22.033  13.856
18764W        W90435  18.616  39.509  12.458
18765W        W90436  10.981  28.188  13.947
18766W        W90437   8.163  39.833  13.539
18767W        W90438  16.591  11.226  13.482
18768W        W90439  13.722   1.175  13.476
18769W        W90440   8.768  32.573  10.644
18770W        W90441   7.172  28.765   3.212
18771W        W90442   9.820  12.162  12.044
18772W        W90443  27.935   9.105  14.711
18773W        W90444  15.836   0.384   4.964
18774W        W90445   9.832  30.456  14.538
18775W        W90446  21.485  16.261   3.555
18776W        W90447  15.464  33.382   1.022
18777W        W90448  27.150  38.521   4.783
18778W        W90449   0.352  11.137   2.269
18779W        W90450   4.801  10.527  10.384
18780W        W90451  31.735  39.553   0.868
18781W        W90452  44.370   2.457   0.578
18782W        W90453   8.768  35.941  14.738
18783W        W90454   0.003  10.839   1.942
18784W        W90455  14.112   6.726   3.898
18785W        W90456   8.650  13.668   4.916
18786W        W90457   6.337  12.824   1.441
18787W        W90458   3.417  28.143   1.817
18788W        W90459   8.140  41.659   4.565
18789W        W90460   4.835  41.417  11.037
18790W        W90461   3.644   3.012  11.533
18791W        W90462  23.332  21.684   2.304
18792W        W90463  38.638  38.261   2.837
18793W        W90464  40.474  37.437   1.336
18794W        W90465  21.094   6.228  12.388
18795W        W90466   1.243   2.995   1.701
18796W        W90467  20.820   3.957  12.629
18797W        W90468  18.307  31.060   1.798
18798W        W90469  22.712  44.069  13.998
18799W        W90470  40.189  31.665   2.144
18800W        W90471  33.204  39.566  14.404
18801W        W90472  10.125  28.595   3.238
18802W        W90473   3.282  40.588  14.213
18803W        W90474  44.412  21.504  12.487
18804W        W90475  25.942   8.141   0.407
18805W        W90476  15.918  14.839  12.659
18806W        W90477   0.943  37.832  10.976
18807W        W90478  21.559  21.126   3.792
18808W        W90479  29.439   4.809  14.494
18809W        W90480  35.178  22.646  11.607
18810W        W90481   4.319  14.733   3.857
18811W        W90482  41.719  39.349  12.631
18812W        W90483  19.609  32.097   1.439
18813W        W90484  12.818  41.355   4.466
18814W        W90485  42.816  38.377  11.109
18815W        W90486  39.036  39.459  10.490
18816W        W90487   6.155  30.915   1.410
18817W        W90488  42.882  29.034  13.581
18818W        W90489   8.855  42.818  14.973
18819W        W90490   8.769   2.932  12.039
18820W        W90491  29.083  15.871  13.378
18821W        W90492  17.815  29.957   3.188
18822W        W90493   7.111  27.167  11.191
18823W        W90494   7.842  21.815   2.239
18824W        W90495  13.231  33.738   3.196
18825W        W90496   2.173  18.767  11.149
18826W        W90497   9.301  43.239  11.032
18827W        W90498  26.313  24.484   1.879
18828W        W90499  18.841  27.578   2.332
18829W        W90500   0.583  32.805  11.588
18830W        W90501  39.626  44.274  11.335
18831W        W90502   5.185  44.986   2.834
18832W        W90503   9.600   7.395  11.565
18833W        W90504  40.415  29.711  12.104
18834W        W90505  34.067  25.541   1.284
18835W        W90506  33.058  36.038   3.113
18836W        W90507  44.608  22.020   2.338
18837W        W90508  39.075  15.158  14.073
18838W        W90509  39.183  13.163   2.750
18839W        W90510  36.667   8.889   4.259
18840W        W90511   5.143  42.732   5.034
18841W        W90512  30.157   8.665  13.567
18842W        W90513  15.548  40.006   4.491
18843W        W90514  18.987  32.431  13.132
18844W        W90515  31.363   9.782  11.515
18845W        W90516  16.193   5.499   1.508
18846W        W90517  18.512  23.286   1.375
18847W        W90518  26.614  40.837   1.894
18848W        W90519  22.963  18.517  10.465
18849W        W90520  22.557  38.931  13.481
18850W        W90521  32.974  17.530   1.432
18851W        W90522  42.995  32.126   2.744
18852W        W90523  18.565   1.296  10.484
18853W        W90524  12.581   6.871   0.372
18854W        W90525  21.992  16.316   0.761
18855W        W90526   0.717  30.933   3.238
18856W        W90527   8.656  32.002   0.341
18857W        W90528   5.382  14.759  13.058
18858W        W90529  28.211  17.730   1.733
18859W        W90530  14.157  36.740   4.727
18860W        W90531  11.438  36.080   2.259
18861W        W90532  35.394   7.736   0.281
18862W        W90533  31.114  21.695   3.097
18863W        W90534  23.188  16.727   2.605
18864W        W90535  15.120  42.067  13.337
18865W        W90536  22.739  25.114  12.094
18866W        W90537  31.392  17.396   2.343
18867W        W90538   1.809  34.425   3.383
18868W        W90539  25.046  40.887  11.132
18869W        W90540  23.090  25.169   1.276
18870W        W90541  12.949   1.655  14.739
18871W        W90542   5.861  32.479   0.500
18872W        W90543  36.126  42.446  11.492
18873W        W90544  29.915  22.941  11.258
18874W        W90545   9.460  35.988   4.898
18875W        W90546  43.799  22.369   3.844
18876W        W90547  13.085   0.512   3.767
18877W        W90548  31.028  43.098   0.223
18878W        W90549  31.698  12.346   2.134
18879W        W90550  25.686  37.606   1.258
18880W        W90551   4.113   9.582   3.103
18881W        W90552  37.035  35.177  12.751
18882W        W90553  27.240  29.697   1.718
18883W        W90554  20.252  33.590  14.069
18884W        W90555  36.518  19.823  13.817
18885W        W90556  21.144   0.959  10.510
18886W        W90557  16.816  24.122   0.298
18887W        W90558  28.397  24.008  14.477
18888W        W90559  32.617  12.683   1.707
18889W        W90560  43.591  36.388  13.446
18890W        W90561   1.408  26.010  12.433
18891W        W90562  26.967  38.844  12.065
18892W        W90563  41.167  22.958  10.716
18893W        W90564  36.306   8.817  12.127
18894W        W90565  15.324  14.084  12.424
18895W        W90566  15.613  39.566  10.134
18896W        W90567  10.234  35.875   2.749
18897W        W90568  12.345  35.935   0.400
18898W        W90569  24.721  19.666   2.744
18899W        W90570  12.609  43.033   1.974
18900W        W90571  42.881  40.963   0.031
18901W        W90572  34.405  18.209   4.100
18902W        W90573  33.880  14.251   2.314
18903W        W90574   6.169   9.317   1.416
18904W        W90575  27.468  26.167  10.783
18905W        W90576  38.040  41.231  12.990
18906W        W90577  11.835  19.477  14.902
18907W        W90578  17.679  29.576   1.743
18908W        W90579  18.144  20.851  14.164
18909W        W90580  31.477  20.641   2.785
18910W        W90581  17.338  16.375  11.691
18911W        W90582  20.047   6.122  11.204
18912W        W90583   3.178  23.034   0.165
18913W        W90584   4.781   2.749   2.963
18914W        W90585  41.924  20.813   2.720
18915W        W90586  27.643  38.511   4.586
18916W        W90587   3.949   8.490  10.675
18917W        W90588   3.725  33.341   2.561
18918W        W90589  28.690  31.141  10.660
18919W        W90590  27.097   6.550   0.030
18920W        W90591  36.478   1.022   4.573
18921W        W90592  21.759  35.452   2.652
18922W        W90593  14.574  15.050  11.889
18923W        W90594   1.927  39.230   0.762
18924W        W90595   5.713   7.168  12.961
18925W        W90596  17.551  34.961   4.083
18926W        W90597   1.392  17.056  12.546
18927W        W90598  30.887  27.532   3.779
18928W        W90599  15.164  40.995  10.458
18929W        W90600   5.624  33.462   4.121
18930W        W90601   4.810   6.230  14.853
18931W        W90602  12.590  35.938  14.003
18932W        W90603  19.129  30.460  14.067
18933W        W90604  41.328  21.929   3.686
18934W        W90605  32.922  35.324   1.056
18935W        W90606  36.030  17.002   1.916
18936W        W90607  23.017  23.504   3.181
18937W        W90608   8.429  38.203  14.962
18938W        W90609  10.907  15.904  14.059
18939W        W90610   4.345  34.741   3.077
18940W        W90611   0.722  34.825   0.514
18941W        W90612   0.157  11.270  14.751
18942W        W90613  10.046  37.404  14.210
18943W        W90614  10.827  32.520  13.010
18944W        W90615  12.634  17.328   0.885
18945W        W90616  37.512  40.429   1.966
18946W        W90617  22.056  43.045   3.423
18947W        W90618   3.524  43.095   2.236
18948W        W90619  18.101  20.395  11.584
18949W        W90620  32.897  33.984  11.096
18950W        W90621  27.151  23.306   4.615
18951W        W90622  12.635  39.510   3.157
18952W        W90623  36.956  41.449  11.070
18953W        W90624  12.184  26.603  13.339
18954W        W90625  35.488  38.863   2.309
18955W        W90626   6.187  43.945   1.959
18956W        W90627  44.943  15.731  14.302
18957W        W90628  38.812  20.707   1.741
18958W        W90629  32.669  27.481   3.935
18959W        W90630   1.384  44.990   0.181
18960W        W90631  26.567  23.290   3.224
18961W        W90632  16.746  43.777  14.937
18962W        W90633  12.994  18.768   4.922
18963W        W90634  35.994  38.302  12.851
18964W        W90635  19.112  25.022   4.402
18965W        W90636   9.958  23.465   4.531
18966W        W90637  13.354  40.910   4.382
18967W        W90638  20.688  14.603   2.023
18968W        W90639  34.916  23.119   0.547
18969W        W90640   1.795  15.770   1.318
18970W        W90641  10.539  25.286   1.765
18971W        W90642  19.155  17.082  13.455
18972W        W90643  15.552   6.370  12.540
18973W        W90644   0.765  18.035   4.743
18974W        W90645   3.051  20.573   4.291
18975W        W90646   9.132   9.801   0.556
18976W        W90647  24.276   6.887   1.847
18977W        W90648   7.590  37.496  14.410
18978W        W90649  31.029  43.782   2.619
18979W        W90650   0.965   4.377   3.248
18980W        W90651  29.477   2.442   5.021
18981W        W90652  23.120  25.174   1.802
18982W        W90653   1.355   3.211  14.269
18983W        W90654  44.008  11.551   9.727
18984W        W90655  28.933  23.306   4.277
18985W        W90656  22.425  44.252   3.327
18986W        W90657  22.014  44.022  11.709
18987W        W90658   6.013  26.132   2.412
18988W        W90659   1.662  19.006   4.183
18989W        W90660  36.348  40.451   2.777
18990W        W90661  33.649   9.473  12.125
18991W        W90662   3.501   9.664  14.917
18992W        W90663  12.824  18.354  12.393
18993W        W90664  31.531  14.235  11.471
18994W        W90665   0.549   7.168   1.686
18995W        W90666  44.362  44.547   3.755
18996W        W90667  37.372   2.954  10.602
18997W        W90668  35.160  43.390   0.354
18998W        W90669  19.474   7.758   2.187
18999W        W90670   3.386  35.458  13.602
19000W        W90671  27.037   2.385  14.554
19001W        W90672  43.015   4.730  11.953
19002W        W90673  23.032  12.672   2.890
19003W        W90674  19.720  42.825  13.892
19004W        W90675   3.137  14.758  13.016
19005W        W90676   6.829  27.771  14.912
19006W        W90677  11.210  28.003   3.568
19007W        W90678  27.633  16.717   4.111
19008W        W90679   2.648  33.581   4.662
19009W        W90680   3.906  29.907   3.139
19010W        W90681   5.495  11.900  14.367
19011W        W90682  38.952  36.476   1.645
19012W        W90683  13.825  15.126  13.911
19013W        W90684  16.643  31.474  10.705
19014W        W90685  35.932  43.899  14.550
19015W        W90686   5.454  24.100   4.674
19016W        W90687   9.151  38.377   2.226
19017W        W90688   8.312  25.263  13.919
19018W        W90689  20.344  19.176   1.761
19019W        W90690  44.974  42.508  12.080
19020W        W90691   8.414  10.347  13.958
19021W        W90692  43.077  30.373   4.921
19022W        W90693  40.934  44.003   2.315
19023W        W90694  37.299   6.024   1.782
19024W        W90695  22.747  12.695  10.708
19025W        W90696   1.874  21.302   0.291
19026W        W90697   3.734  24.046   0.355
19027W        W90698  21.776  13.660  13.155
19028W        W90699  14.156  34.813   4.710
19029W        W90700  11.379  23.457   1.853
19030W        W90701  31.093  18.991  13.799
19031W        W90702  12.142  32.422   0.479
19032W        W90703  20.601   7.227   2.831
19033W        W90704  17.543   7.854  11.622
19034W        W90705  20.042   1.820   0.691
19035W        W90706  21.458  10.785   0.814
19036W        W90707  29.500  38.026   0.712
19037W        W90708  10.641   0.454   1.816
19038W        W90709  24.273  34.484   2.814
19039W        W90710  36.084  40.316  13.480
19040W        W90711  43.447  35.299   4.568
19041W        W90712   9.220  24.649  11.589
19042W        W90713  42.719  35.053  13.881
19043W        W90714  39.367  23.806  11.042
19044W        W90715  21.980  19.603  14.417
19045W        W90716  32.898  23.060  11.140
19046W        W90717   4.671  13.721  14.429
19047W        W90718  23.392   0.509   3.626
19048W        W90719  42.236  10.772  11.656
19049W        W90720  26.232  17.848   2.796
19050W        W90721  11.194  42.361   0.190
19051W        W90722  44.552  31.046   1.370
19052W        W90723  19.775  15.810   3.861
19053W        W90724   5.694  42.514   4.405
19054W        W90725  16.686   9.406   2.291
19055W        W90726  33.613  35.964  11.650
19056W        W90727  10.450  37.226   1.315
19057W        W90728  12.237  35.411  14.377
19058W        W90729   6.836  23.478   2.808
19059W        W90730  17.703   9.568   2.845
19060W        W90731   0.488  43.512  13.647
19061W        W90732  38.360  33.830  10.917
19062W        W90733  19.872  25.069   3.912
19063W        W90734  15.590   3.827   1.391
19064W        W90735   0.269  17.248  10.669
19065W        W90736  33.625  43.340   4.731
19066W        W90737  24.078  34.278  14.535
19067W        W90738  41.268   3.309   1.795
19068W        W90739  21.202  22.685   1.326
19069W        W90740   1.169  33.015  12.552
19070W        W90741  19.319  24.999   2.671
19071W        W90742  23.702  28.105  12.935
19072W        W90743  41.943  20.313   1.979
19073W        W90744  35.419  26.167   2.824
19074W        W90745  23.596  37.453   4.604
19075W        W90746  25.888   9.286  12.919
19076W        W90747  23.471   9.411  10.709
19077W        W90748  12.858  19.168   0.945
19078W        W90749  28.443  38.846   4.866
19079W        W90750  24.969  18.711  14.827
19080W        W90751  11.731  26.657  12.213
19081W        W90752   0.446   2.560   3.010
19082W        W90753  30.739  18.248   0.861
19083W        W90754  10.341  28.565  12.043
19084W        W90755  36.110  29.751   1.549
19085W        W90756  16.582  40.991  10.841
19086W        W90757  10.745   6.859   1.412
19087W        W90758   7.841  21.167   2.914
19088W        W90759  20.534  10.835   2.417
19089W        W90760  29.486  42.081  13.910
19090W        W90761  23.998  16.792   1.884
19091W        W90762  38.109   6.553  10.425
19092W        W90763  29.596  25.781   3.042
19093W        W90764   2.922  27.491   0.927
19094W        W90765  24.377   8.787  12.516
19095W        W90766  20.307  37.997  14.522
19096W        W90767  36.899   6.089   0.038
19097W        W90768  14.740  19.316  13.419
19098W        W90769  33.327  14.338   3.622
19099W        W90770  26.467  40.654   3.641
19100W        W90771  31.630  17.475  11.603
19101W        W90772  20.473  35.368  10.295
19102W        W90773   4.979  16.841   3.288
19103W        W90774  13.099  30.380  11.553
19104W        W90775  13.331  16.759   0.903
19105W        W90776  21.420  25.099  11.520
19106W        W90777  21.260  17.250   3.766
19107W        W90778  14.291   4.663   2.869
19108W        W90779  26.481  19.973   2.593
19109W        W90780  20.120   6.762   0.824
19110W        W90781  39.828   5.387   4.276
19111W        W90782  26.688  24.206  11.823
19112W        W90783  36.768  40.059   1.587
19113W        W90784  40.397  35.245   4.915
19114W        W90785  33.471  12.697   2.798
19115W        W90786  27.954  39.781  10.486
19116W        W90787  13.461  26.494   2.406
19117W        W90788   9.582  26.588  10.368
19118W        W90789  15.380  15.778   1.804
19119W        W90790  30.750   3.391   4.185
19120W        W90791   6.845  41.470  11.343
19121W        W90792  42.888  15.458  12.160
19122W        W90793  23.141  37.624   9.896
19123W        W90794  21.631  11.902   4.678
19124W        W90795  30.297  17.060   1.119
19125W        W90796  21.802  17.189  13.045
19126W        W90797  41.928  31.854  13.373
19127W        W90798  38.789   6.821  10.284
19128W        W90799  40.239   0.877   0.687
19129W        W90800   8.733   2.788   3.017
19130W        W90801  36.066  30.024   3.735
19131W        W90802  16.175  29.431  11.106
19132W        W90803  17.073   7.215   4.261
19133W        W90804  19.690  37.116  12.409
19134W        W90805  42.270   1.970   3.236
19135W        W90806  35.588   6.763   2.464
19136W        W90807  18.092  36.348  12.091
19137W        W90808  16.257  29.947  14.490
19138W        W90809  11.633  35.310   3.572
19139W        W90810  33.459  38.082   4.635
19140W        W90811   4.278  22.560   3.444
19141W        W90812   6.159   0.323   0.735
19142W        W90813   7.408  30.507  12.049
19143W        W90814  15.777  18.467   4.617
19144W        W90815  14.208  27.730  14.248
19145W        W90816  42.233  25.133   3.765
19146W        W90817   6.736  31.157  14.063
19147W        W90818  19.275  39.466   1.419
19148W        W90819  18.802   6.521   0.906
19149W        W90820  33.453   3.771   2.284
19150W        W90821  19.650  10.453   0.215
19151W        W90822  20.224   5.175   0.985
19152W        W90823  11.795  36.604  12.603
19153W        W90824   6.607  37.114   2.734
19154W        W90825  33.648  26.108  11.468
19155W        W90826  11.290  29.473   2.187
19156W        W90827  21.678  38.468  11.576
19157W        W90828  18.480   8.491  14.055
19158W        W90829  30.552  14.077   1.301
19159W        W90830   9.725  23.024   0.799
19160W        W90831  30.531   6.078   3.132
19161W        W90832  20.607  35.373  11.783
19162W        W90833  18.521  34.827   4.151
19163W        W90834  43.424  40.135  11.548
19164W        W90835  42.053  12.985   1.280
19165W        W90836  31.129   9.251   0.363
19166W        W90837  37.577   5.960  14.568
19167W        W90838  19.643   9.311   4.518
19168W        W90839  16.601  26.436  14.318
19169W        W90840  10.566   2.831   4.181
19170W        W90841  36.585  15.121  10.710
19171W        W90842  41.861   6.154   0.342
19172W        W90843   1.591  20.134   4.982
19173W        W90844  21.761  17.156   0.323
19174W        W90845   2.435  25.619  14.274
19175W        W90846  18.153  20.576  12.089
19176W        W90847  26.483  33.175  10.992
19177W        W90848  19.130  40.529   2.542
19178W        W90849  18.611  12.191   0.362
19179W        W90850  16.080  36.116  13.966
19180W        W90851  44.866  35.323  13.094
19181W        W90852  36.499  30.918  12.935
19182W        W90853  28.038  43.411  12.552
19183W        W90854  19.854  14.909   4.941
19184W        W90855   8.301  31.201   4.678
19185W        W90856   8.116  19.571   3.044
19186W        W90857  23.398  24.876   2.135
19187W        W90858  11.087  44.244  12.392
19188W        W90859  44.636  24.243   2.814
19189W        W90860  35.564   5.699  12.083
19190W        W90861   7.260  32.586  13.232
19191W        W90862   9.411  44.780   4.843
19192W        W90863   0.914  21.595  11.948
19193W        W90864   6.517  15.691   4.257
19194W        W90865  16.977  27.720   3.545
19195W        W90866  40.087  37.011  14.139
19196W        W90867  24.526  19.083  11.884
19197W        W90868   8.934  12.377   1.542
19198W        W90869   2.210  34.096   3.203
19199W        W90870  25.777  34.560  11.958
19200W        W90871  28.168  41.435   2.255
19201W        W90872  12.164  16.664  11.682
19202W        W90873  10.195  16.727  10.218
19203W        W90874  23.975  22.110  14.693
19204W        W90875  23.970  13.122  11.089
19205W        W90876  34.852  15.759  12.392
19206W        W90877  10.428  16.058  12.899
19207W        W90878  24.658  20.304  14.326
19208W        W90879   0.367  12.805   3.550
19209W        W90880  21.607  19.722   3.586
19210W        W90881  17.616  20.088   4.212
19211W        W90882  20.498   1.725  12.992
19212W        W90883   2.434   1.828  13.476
19213W        W90884  43.839  37.026  14.563
19214W        W90885  19.560   8.251   3.698
19215W        W90886  31.472   1.626  14.949
19216W        W90887  33.026  11.684  11.526
19217W        W90888  14.356  44.683   2.352
19218W        W90889  31.665  34.501  12.508
19219W        W90890  41.112   8.123  11.934
19220W        W90891   0.891  20.435   4.841
19221W        W90892  22.450   4.531  11.397
19222W        W90893  23.211  22.561  14.936
19223W        W90894   2.055  41.650  11.474
19224W        W90895  39.895  38.234   1.229
19225W        W90896   8.275  39.661  11.091
19226W        W90897  20.747   0.001  11.137
19227W        W90898  19.650  36.508   1.966
19228W        W90899  37.890   7.151  12.571
19229W        W90900  25.146   5.936  10.974
19230W        W90901  42.899  33.345   0.995
19231W        W90902  27.653  30.555  14.185
19232W        W90903  23.251   9.211   4.151
19233W        W90904   2.592  40.964   0.516
19234W        W90905  41.518  25.119  11.296
19235W        W90906  39.989  18.099   4.430
19236W        W90907  38.328  26.019   2.907
19237W        W90908  18.314  16.249  12.049
19238W        W90909  18.709  42.784   4.082
19239W        W90910  39.056  12.214   4.570
19240W        W90911   6.561  21.984   2.259
19241W        W90912  42.827   5.617  10.643
19242W        W90913  30.029  31.879  11.108
19243W        W90914   8.725  18.372  12.019
19244W        W90915   9.761   4.596   4.211
19245W        W90916  11.374   9.784  13.795
19246W        W90917  10.193  22.117   2.774
19247W        W90918  38.134  16.175  13.286
19248W        W90919   9.290  38.464   2.734
19249W        W90920   0.982  33.365  11.131
19250W        W90921  37.356  36.943   4.827
19251W        W90922  21.015  29.081  12.690
19252W        W90923   2.429   1.501  14.293
19253W        W90924   7.843  38.041  10.673
19254W        W90925  23.599  42.535  11.681
19255W        W90926  44.477  15.527   3.181
19256W        W90927   7.710   9.304  10.699
19257W        W90928  43.864  13.333   4.024
19258W        W90929   9.117  26.477  10.928
19259W        W90930  29.042  35.018  12.358
19260W        W90931  13.743  39.896   3.228
19261W        W90932  15.514  35.854   5.160
19262W        W90933  22.040  18.828  14.961
19263W        W90934  35.121   5.112  13.705
19264W        W90935  13.680  18.000  12.971
19265W        W90936  36.820  13.264   4.547
19266W        W90937  25.549  31.263   0.937
19267W        W90938  24.208  31.444  13.823
19268W        W90939  19.860   4.678   3.606
19269W        W90940  13.582  19.784   3.234
19270W        W90941  25.212  30.026   1.371
19271W        W90942  19.308  23.627   3.842
19272W        W90943  39.527  37.008  10.731
19273W        W90944  22.990  27.453   0.166
19274W        W90945  44.497  42.707  12.325
19275W        W90946  26.208  43.353   1.044
19276W        W90947  20.145   7.732   0.728
19277W        W90948  10.898  30.603   3.675
19278W        W90949   5.629  41.655   2.670
19279W        W90950  30.928  42.184  14.320
19280W        W90951  23.059  25.885   2.049
19281W        W90952   9.817   9.958  10.799
19282W        W90953  36.877  26.974   1.779
19283W        W90954  44.934  11.306  12.005
19284W        W90955  31.958   1.257  11.176
19285W        W90956  30.391  41.359   1.863
19286W        W90957   6.728  10.879  14.857
19287W        W90958  38.677  25.772   3.701
19288W        W90959  21.586   8.188   2.693
19289W        W90960  40.128  23.483   3.963
19290W        W90961   3.883  33.562  12.614
19291W        W90962  44.934  28.789  10.923
19292W        W90963  29.773  20.130  12.507
19293W        W90964  25.939  25.522  12.901
19294W        W90965  19.691  31.548  13.357
19295W        W90966  41.483   3.702   3.188
19296W        W90967   6.342  26.596   5.057
19297W        W90968  21.757   8.623  14.388
19298W        W90969  16.824  29.517  12.145
19299W        W90970  26.525   1.478  12.144
19300W        W90971   9.763  41.262   2.402
19301W        W90972  22.039  36.456   4.525
19302W        W90973  11.905  34.571  13.998
19303W        W90974  30.421  35.822   3.652
19304W        W90975  12.323  13.186  10.543
19305W        W90976  16.583  24.392  13.995
19306W        W90977  26.628  22.222  11.575
19307W        W90978  32.206  38.795   3.690
19308W        W90979  27.043  33.366   1.998
19309W        W90980  17.677  21.618  14.585
19310W        W90981   2.940   6.471  11.450
19311W        W90982  16.115   8.589  10.729
19312W        W90983   6.688   4.382   3.737
19313W        W90984  20.736  40.144  13.444
19314W        W90985  36.737  35.016   1.760
19315W        W90986  27.758   5.824  11.515
19316W        W90987   4.834  16.690   9.848
19317W        W90988  17.308  42.149   1.542
19318W        W90989  44.513  38.378   3.696
19319W        W90990  12.303  38.324  14.958
19320W        W90991  15.022   4.758  12.517
19321W        W90992   0.415  39.866  12.353
19322W        W90993  30.549  24.011   4.583
19323W        W90994  43.843  15.089   4.306
19324W        W90995   9.798  26.924   3.063
19325W        W90996  15.286   8.633  10.649
19326W        W90997  26.165   1.795  11.041
19327W        W90998  28.153   7.262  11.142
19328W        W90999  20.984  12.758  13.526
19329W        W91000   6.599   7.824   3.183
19330W        W91001   3.254  12.445   2.175
19331W        W91002  40.418   7.939   1.693
19332W        W91003  15.226  20.202   0.650
19333W        W91004  14.266  40.069  11.956
19334W        W91005   6.963  16.111  13.900
19335W        W91006  39.861  21.770  13.963
19336W        W91007  27.255  39.209  13.653
19337W        W91008  20.299  44.677   2.864
19338W        W91009  44.570  14.134   0.326
19339W        W91010  34.565  12.572  10.596
19340W        W91011  18.118  29.472  14.351
19341W        W91012   9.297   0.201   4.543
19342W        W91013  35.816  43.430   4.086
19343W        W91014  15.079  31.661   4.161
19344W        W91015  26.607  31.765   4.195
19345W        W91016   1.440   7.005   1.353
19346W        W91017  39.853  22.934  14.502
19347W        W91018  20.139  41.862  13.397
19348W        W91019  24.184  29.766  14.052
19349W        W91020  27.213   7.255  11.813
19350W        W91021  40.852  39.796  12.100
19351W        W91022  36.915  27.145  14.277
19352W        W91023  39.439  21.646  14.305
19353W        W91024   7.389   4.412  12.829
19354W        W91025   8.801  33.759  13.999
19355W        W91026   6.040  19.470  12.498
19356W        W91027  27.943  31.688   1.824
19357W        W91028  36.013  30.347  12.377
19358W        W91029  27.047  22.246   3.767
19359W        W91030  24.506  34.018  11.242
19360W        W91031  13.365  12.579   2.449
19361W        W91032   2.473  34.813   3.891
19362W        W91033  24.759  29.596  13.287
19363W        W91034  27.661  21.491  11.515
19364W        W91035  37.862  27.360  11.205
19365W        W91036  38.381  25.623   2.607
19366W        W91037  25.964  39.960  11.145
19367W        W91038  38.572  40.554  11.954
19368W        W91039  29.877  33.325  12.432
19369W        W91040  38.345   2.148   3.373
19370W        W91041  41.513  31.571   2.818
19371W        W91042   9.987   0.457  11.441
19372W        W91043  35.073  27.911   1.277
19373W        W91044  38.920  42.827  12.104
19374W        W91045  24.056  16.672  13.130
19375W        W91046   2.121  40.016  10.760
19376W        W91047  41.980  43.090  11.076
19377W        W91048  42.316  40.091  11.183
19378W        W91049   7.618  40.050   4.694
19379W        W91050  18.148  36.578   0.692
19380W        W91051   9.775  31.982  13.922
19381W        W91052  37.288  14.617   0.243
19382W        W91053  41.370   2.200   1.297
19383W        W91054  19.995  10.165  13.957
19384W        W91055  35.405  21.315   0.203
19385W        W91056  38.633  25.781  12.047
19386W        W91057   1.922  16.872  12.478
19387W        W91058  11.126  26.903   3.710
19388W        W91059  21.318  24.161  12.645
19389W        W91060  25.680  41.395   2.920
19390W        W91061  27.029  42.980   0.947
19391W        W91062  24.124  13.249  10.608
19392W        W91063   1.752  42.799   2.733
19393W        W91064  33.135  34.069  13.014
19394W        W91065  43.484  14.533  14.349
19395W        W91066  41.406  27.612  11.085
19396W        W91067   8.072  12.938   2.195
19397W        W91068  34.615   8.948   0.394
19398W        W91069  26.929  41.778   3.730
19399W        W91070  16.796   2.521   3.179
19400W        W91071   9.155   4.840  13.167
19401W        W91072  37.542   8.042   0.022
19402W        W91073  20.630  34.596   2.800
19403W        W91074   1.277   0.758   4.654
19404W        W91075  19.454  34.417  10.637
19405W        W91076  13.644  16.541  10.698
19406W        W91077  24.985  32.511  14.800
19407W        W91078  39.248  26.668  11.908
19408W        W91079   6.467   2.895  11.962
19409W        W91080   8.303  25.772   4.566
19410W        W91081   0.471  17.388   3.953
19411W        W91082   9.386   5.327  12.971
19412W        W91083  32.185  34.328  12.537
19413W        W91084   4.239  19.307  13.512
19414W        W91085  13.890  36.645  12.818
19415W        W91086   0.543  36.383  13.930
19416W        W91087  32.501  31.930   3.683
19417W        W91088  37.503  39.239   5.846
19418W        W91089  10.101  29.086  12.944
19419W        W91090   8.209  32.540  11.712
19420W        W91091  38.137  15.732  14.252
19421W        W91092  38.883  30.467  10.293
19422W        W91093  40.377  14.268   2.622
19423W        W91094   5.382  35.346  11.648
19424W        W91095  30.272  39.414   1.792
19425W        W91096  12.956  33.253  14.494
19426W        W91097  13.234  38.916   4.164
19427W        W91098  40.610  25.538   2.858
19428W        W91099  38.731  15.748   5.067
19429W        W91100  23.737   5.107   0.177
19430W        W91101  18.791   1.370   4.517
19431W        W91102  29.056  26.704  13.856
19432W        W91103  13.310  38.339   3.894
19433W        W91104  30.441  43.660   2.384
19434W        W91105  41.325  37.394   4.654
19435W        W91106  25.753  42.367   1.391
19436W        W91107   1.227  13.757  11.146
19437W        W91108  37.913  42.103  11.130
19438W        W91109  42.067  33.548  14.524
19439W        W91110  34.175   3.261   5.039
19440W        W91111   4.705  12.519   4.544
19441W        W91112  40.540   9.113   1.050
19442W        W91113  23.453   6.196   4.177
19443W        W91114   9.050  31.585   1.486
19444W        W91115  39.830  11.563   2.384
19445W        W91116  43.081  18.709  10.729
19446W        W91117  18.838   5.935  13.417
19447W        W91118  11.883  38.875   0.962
19448W        W91119  23.902   7.281  12.126
19449W        W91120  32.811  10.327  12.058
19450W        W91121  35.353  11.930   1.010
19451W        W91122  39.803  24.532  12.791
19452W        W91123  28.416   3.257  10.830
19453W        W91124  44.779  20.731   1.451
19454W        W91125  30.970   2.498  12.621
19455W        W91126  41.861  23.797  14.371
19456W        W91127  27.833  13.337   2.584
19457W        W91128  36.578  29.753   2.721
19458W        W91129  11.432   8.757  11.224
19459W        W91130   0.392  35.311   4.623
19460W        W91131  24.804  36.662   3.259
19461W        W91132   3.455  25.137   4.737
19462W        W91133  44.776   5.212  13.322
19463W        W91134  24.948  29.180  13.557
19464W        W91135  26.133  42.420   4.558
19465W        W91136  42.775  39.706   1.491
19466W        W91137  18.965   8.708   1.835
19467W        W91138  33.898  39.440  10.323
19468W        W91139  23.187  32.711   2.187
19469W        W91140  44.004   7.901  12.501
19470W        W91141  31.091  14.372   1.314
19471W        W91142  40.782  26.652   3.580
19472W        W91143   4.697  15.575   4.569
19473W        W91144   6.766   5.383  10.535
19474W        W91145   7.850  12.160   2.156
19475W        W91146  28.753   8.709  10.706
19476W        W91147  15.720  12.789   2.864
19477W        W91148  38.315  38.783  13.931
19478W        W91149  25.020  21.564  10.388
19479W        W91150  20.292  21.534   3.614
19480W        W91151  31.702  13.401  11.624
19481W        W91152   1.449   8.808  14.815
19482W        W91153  18.637  14.233  11.424
19483W        W91154  38.788  22.224  13.003
19484W        W91155   4.376  27.983  13.903
19485W        W91156  15.025   8.428  10.239
19486W        W91157  43.294  19.786   1.217
19487W        W91158  23.564   3.722  13.730
19488W        W91159  39.562   3.770  11.321
19489W        W91160   7.491   8.974  13.319
19490W        W91161  39.464   8.296   1.737
19491W        W91162   1.904  32.646   0.708
19492W        W91163  29.398  40.909  11.624
19493W        W91164  30.675  10.595  11.470
19494W        W91165  27.448  39.546   4.720
19495W        W91166  38.115  16.637  14.186
19496W        W91167  30.756  16.801   3.904
19497W        W91168  37.981  30.689  10.785
19498W        W91169  10.819  15.606   4.261
19499W        W91170  28.059  44.032  14.200
19500W        W91171  18.226  16.050   0.341
19501W        W91172  37.883   2.364   3.527
19502W        W91173   6.717   0.971  12.946
19503W        W91174   0.211  34.946  14.067
19504W        W91175  36.045  39.139  11.543
19505W        W91176   3.428   2.482   5.108
19506W        W91177  28.222  41.674   1.479
19507W        W91178   2.411  10.798   0.576
19508W        W91179  27.180   2.381   3.636
19509W        W91180   9.662  17.703  14.009
19510W        W91181  34.500  41.916   4.566
19511W        W91182  42.071  41.560  12.051
19512W        W91183  16.163  18.758   3.188
19513W        W91184  18.333  14.098  10.697
19514W        W91185  16.610  40.982   5.024
19515W        W91186  34.977   6.134  10.443
19516W        W91187   8.837  17.085  12.478
19517W        W91188  44.929  25.587   2.353
19518W        W91189  27.693   8.238   3.365
19519W        W91190  21.848  36.469  14.624
19520W        W91191  20.358  18.389   0.939
19521W        W91192  28.066   8.430   0.927
19522W        W91193  42.928   4.228  12.062
19523W        W91194  13.710   3.251   1.202
19524W        W91195  13.381  20.641   1.941
19525W        W91196  21.102   5.278   0.518
19526W        W91197  37.896  33.431   0.480
19527W        W91198  10.234  11.092   3.669
19528W        W91199   7.962   9.870  13.344
19529W        W91200  43.510  11.507   5.144
19530W        W91201  26.141  37.858   1.253
19531W        W91202   7.717  34.199  11.994
19532W        W91203  14.724  23.322   3.254
19533W        W91204  18.107  38.343  13.873
19534W        W91205   3.210   6.213  12.546
19535W        W91206  41.423  23.946  12.495
19536W        W91207  19.720  30.245  10.336
19537W        W91208   4.246   2.499  13.583
19538W        W91209   2.320  21.297   4.777
19539W        W91210  16.311  25.047   1.303
19540W        W91211  42.727  22.278   2.616
19541W        W91212  41.264  28.064   1.776
19542W        W91213  41.542   9.386   3.335
19543W        W91214   8.342  31.964  14.379
19544W        W91215   8.966  43.893   2.760
19545W        W91216  16.452  34.797   1.055
19546W        W91217  32.797   4.359  13.563
19547W        W91218  37.828   1.445  13.446
19548W        W91219  39.885  26.516  12.487
19549W        W91220  31.200  42.849  14.780
19550W        W91221   0.892  41.109   1.815
19551W        W91222  15.423   8.801  10.171
19552W        W91223  34.178  31.856  13.327
19553W        W91224  14.783   5.077   2.184
19554W        W91225   3.894  17.501  11.794
19555W        W91226  33.006   2.348  13.498
19556W        W91227  21.177  33.533   3.842
19557W        W91228  16.078  38.470   3.079
19558W        W91229  14.533  12.947  10.222
19559W        W91230  35.934  31.197   1.729
19560W        W91231   8.803   6.613  12.937
19561W        W91232  12.765  15.351  11.032
19562W        W91233   5.522  18.003   1.974
19563W        W91234  42.692  33.085  11.816
19564W        W91235  40.292   3.933  11.966
19565W        W91236   1.164  35.655   0.114
19566W        W91237  30.114  10.163   1.629
19567W        W91238  19.791  16.288  11.088
19568W        W91239  23.732  33.475  12.545
19569W        W91240   0.459  20.526  11.182
19570W        W91241  29.793  19.792  11.562
19571W        W91242   3.390  36.951   1.807
19572W        W91243  25.068  26.715   4.855
19573W        W91244   3.986  31.067   4.659
19574W        W91245  36.153  25.152   3.197
19575W        W91246  14.588  36.501  11.566
19576W        W91247  35.973  39.485   2.626
19577W        W91248  23.239   7.934  13.328
19578W        W91249   7.162  10.773   2.186
19579W        W91250  26.105  35.959  12.491
19580W        W91251  35.353  15.799   4.593
19581W        W91252  37.518  39.944   1.307
19582W        W91253  18.998   0.360  12.919
19583W        W91254  41.252  35.818   3.015
19584W        W91255  42.933  44.303  12.011
19585W        W91256   1.822  36.917  13.064
19586W        W91257   0.716  26.586  12.546
19587W        W91258   5.932  18.095  12.570
19588W        W91259  25.413  38.263  12.564
19589W        W91260   0.029  29.681   3.624
19590W        W91261   5.541  22.274   0.140
19591W        W91262  13.606  30.332   2.422
19592W        W91263  31.214  26.056   1.311
19593W        W91264  43.530  21.232   0.988
19594W        W91265  12.020  42.030  13.049
19595W        W91266  25.561   1.692  14.931
19596W        W91267   1.730   8.158   0.298
19597W        W91268  44.932  44.069  13.080
19598W        W91269  14.773  17.347   2.173
19599W        W91270   9.650   4.900  13.011
19600W        W91271  20.991  16.699   0.459
19601W        W91272  30.261  20.160  12.690
19602W        W91273   1.088   0.285  10.685
19603W        W91274  32.890  12.606  10.597
19604W        W91275  29.393   6.941  11.646
19605W        W91276   2.934  31.084  11.134
19606W        W91277  42.997  35.395   1.726
19607W        W91278   3.239   3.750  11.253
19608W        W91279   0.231  30.014  10.781
19609W        W91280  42.070   4.533  11.736
19610W        W91281  41.081  34.378   1.265
19611W        W91282  15.283  18.251   2.137
19612W        W91283   2.975  14.492  13.979
19613W        W91284  11.746   7.617   3.215
19614W        W91285  42.446  18.198  11.126
19615W        W91286   3.533  37.386   2.557
19616W        W91287  29.060  34.486   3.119
19617W        W91288  32.466  21.771   0.951
19618W        W91289  38.835  36.374   4.696
19619W        W91290  38.855   5.007   2.851
19620W        W91291  12.833  34.010  11.177
19621W        W91292  14.069  20.052   3.365
19622W        W91293  14.819   5.249   1.709
19623W        W91294  38.105  30.928   3.391
19624W        W91295  43.046  21.102   1.903
19625W        W91296  39.462  10.736   4.634
19626W        W91297  36.776  11.234  11.071
19627W        W91298  44.642   3.744  14.434
19628W        W91299  16.304  35.851   4.116
19629W        W91300  43.343  25.158  12.865
19630W        W91301  38.958  29.913   3.204
19631W        W91302  11.373   1.485  13.261
19632W        W91303  19.400  18.943  13.011
19633W        W91304   2.886  26.994  12.719
19634W        W91305  34.901  29.727  13.505
19635W        W91306  44.481  42.911   0.783
19636W        W91307   1.267  20.193  11.622
19637W        W91308  41.772   0.439  10.929
19638W        W91309  10.557  12.774  10.797
19639W        W91310  44.557  26.596  11.598
19640W        W91311  11.553   3.796   4.153
19641W        W91312  35.026  22.729   2.301
19642W        W91313  29.533  33.567  10.771
19643W        W91314  34.470   7.975  11.570
19644W        W91315  40.286  40.147  14.482
19645W        W91316  13.832  11.006  12.527
19646W        W91317   3.364  21.745   2.953
19647W        W91318  40.251  25.451  11.021
19648W        W91319  28.133  26.045  14.750
19649W        W91320  27.089  29.598  13.357
19650W        W91321  19.307   0.884  10.720
19651W        W91322   8.448  33.964  11.699
19652W        W91323  20.062  21.819  12.339
19653W        W91324  28.451  42.947   4.166
19654W        W91325  24.313  40.434   4.239
19655W        W91326  26.015  18.140   2.409
19656W        W91327  31.463   4.724  11.058
19657W        W91328  28.085  14.668  11.073
19658W        W91329  22.147  36.866   3.798
19659W        W91330  37.402   2.895   2.938
19660W        W91331   7.382   0.314   4.944
19661W        W91332  22.918  24.009  12.820
19662W        W91333   4.237  28.643  14.268
19663W        W91334  39.382  32.057  14.117
19664W        W91335  31.066  14.115   3.393
19665W        W91336  11.369   1.692   4.127
19666W        W91337  34.424  15.293  14.977
19667W        W91338  11.720  40.746   1.199
19668W        W91339  29.918  38.416  10.651
19669W        W91340  42.409  30.454   3.274
19670W        W91341  40.095  24.759  11.876
19671W        W91342  22.985  36.900  11.032
19672W        W91343  40.683  28.652  12.567
19673W        W91344   3.457  21.387  10.230
19674W        W91345   4.448   6.774   2.864
19675W        W91346  13.433  35.172   0.307
19676W        W91347  11.513  10.199  12.209
19677W        W91348  17.547  41.590  12.447
19678W        W91349  38.290  25.144  13.325
19679W        W91350  17.248  25.615   1.300
19680W        W91351   2.182  29.916   3.937
19681W        W91352  19.732   7.851   4.655
19682W        W91353  44.230  19.698  13.009
19683W        W91354   4.307  31.276  11.534
19684W        W91355   0.631  17.807   3.711
19685W        W91356  28.931  23.988   3.147
19686W        W91357  18.074  37.882  12.533
19687W        W91358   6.269   7.270  14.101
19688W        W91359  34.206  42.320   0.645
19689W        W91360   8.797  18.865  11.085
19690W        W91361  40.265  21.323   3.248
19691W        W91362   1.932  42.990  10.391
19692W        W91363  29.944  42.947   3.726
19693W        W91364  17.251  37.969  13.409
19694W        W91365  21.183  26.325  13.274
19695W        W91366  32.596  26.150  12.566
19696W        W91367  12.804  10.354  14.293
19697W        W91368  34.830  40.811  11.116
19698W        W91369  24.564   4.152   4.093
19699W        W91370  40.785  30.440   4.087
19700W        W91371  44.985  39.331  14.337
19701W        W91372  35.526  15.613   1.174
19702W        W91373  38.102  34.895   0.405
19703W        W91374  36.572   8.941  14.493
19704W        W91375   3.842  37.448   0.359
19705W        W91376   2.007   4.234  12.498
19706W        W91377  25.070  43.462  11.993
19707W        W91378   0.413  26.429  13.435
19708W        W91379  35.742   1.533   0.295
19709W        W91380  38.518   0.251  11.237
19710W        W91381   1.508  14.745   2.301
19711W        W91382  32.146  11.536   3.684
19712W        W91383   7.607  44.507   2.872
19713W        W91384   2.244  17.973  12.452
19714W        W91385  41.507  32.984  12.620
19715W        W91386  12.633  28.920   4.654
19716W        W91387  14.260   3.727   0.418
19717W        W91388  40.564  36.403   2.335
19718W        W91389  27.138  26.647   3.419
19719W        W91390  20.555  36.912   3.654
19720W        W91391  21.740  32.086  10.647
19721W        W91392  23.977  43.128   4.917
19722W        W91393  16.179  35.505   3.297
19723W        W91394  13.287  43.550  10.723
19724W        W91395  19.691  38.304   0.917
19725W        W91396  12.729  22.205   4.167
19726W        W91397  38.611  14.080  11.958
19727W        W91398  29.590   5.886  11.537
19728W        W91399  19.441  12.032   5.383
19729W        W91400  20.071  11.895  12.559
19730W        W91401   6.152  12.845   2.405
19731W        W91402  23.660   6.991  11.611
19732W        W91403   3.968  14.640  10.557
19733W        W91404  44.353  34.889   0.204
19734W        W91405   3.468   3.496  11.651
19735W        W91406  28.308  20.251   2.264
19736W        W91407  24.934  28.679  14.937
19737W        W91408  18.172  13.800   1.256
19738W        W91409  22.826  39.893  12.048
19739W        W91410  23.534  12.119   0.435
19740W        W91411  35.382  11.139   1.810
19741W        W91412  36.845  31.428   1.604
19742W        W91413   2.779  42.391  13.018
19743W        W91414  22.833  35.104   0.289
19744W        W91415  28.336  27.424  14.054
19745W        W91416   9.460   8.821  11.185
19746W        W91417  40.325   2.472   3.077
19747W        W91418  40.047  27.122  13.829
19748W        W91419  21.594  32.192   3.671
19749W        W91420  33.910   8.429  13.978
19750W        W91421  11.108  16.077   1.863
19751W        W91422  18.565   1.802   3.161
19752W        W91423  20.726  27.913  14.827
19753W        W91424  11.801   7.601   4.108
19754W        W91425  33.377   0.890  12.342
19755W        W91426  18.165   6.819  10.922
19756W        W91427  26.214  17.831  13.746
19757W        W91428  42.942  42.953   0.941
19758W        W91429  33.637  32.097   4.306
19759W        W91430  26.115  27.566  13.347
19760W        W91431  35.825   1.276  13.377
19761W        W91432  22.237   6.257   0.336
19762W        W91433  32.523  23.409  13.627
19763W        W91434   5.338  11.107   1.841
19764W        W91435   0.963  15.193   1.762
19765W        W91436  26.927  26.147   3.349
19766W        W91437  10.358   4.143   4.455
19767W        W91438   1.256  27.567  13.847
19768W        W91439  31.651   8.729   4.249
19769W        W91440  30.325  30.514  11.571
19770W        W91441  19.698  30.100  10.827
19771W        W91442  18.210  39.353  13.941
19772W        W91443  12.296  15.322  13.459
19773W        W91444  12.865   5.978  12.613
19774W        W91445  44.869  16.662  14.296
19775W        W91446  15.548  42.418  11.097
19776W        W91447  31.720  42.580  10.809
19777W        W91448  26.085  28.506  13.276
19778W        W91449  10.764  28.843  13.324
19779W        W91450  26.626  32.392   1.956
19780W        W91451  39.748  29.164  11.880
19781W        W91452  17.752   5.865   2.235
19782W        W91453  21.063  32.690   3.234
19783W        W91454  23.991  20.430  11.072
19784W        W91455  20.503   1.240   3.418
19785W        W91456  18.744   9.127   0.236
19786W        W91457  27.106  42.172   5.012
19787W        W91458  39.578   2.424  10.793
19788W        W91459   6.454  31.461  14.435
19789W        W91460  34.558   1.397   0.865
19790W        W91461  30.994  43.800   3.153
19791W        W91462   3.699  21.186  10.655
19792W        W91463  40.846  44.330   0.994
19793W        W91464  16.873  43.056   9.796
19794W        W91465  24.885  22.286   4.635
19795W        W91466  31.897  26.858  10.987
19796W        W91467   1.679  27.163   0.034
19797W        W91468   6.793   2.074  13.307
19798W        W91469  42.378   3.699  14.862
19799W        W91470  35.037  33.596   0.511
19800W        W91471  16.401  39.179   3.784
19801W        W91472  43.370  13.221   0.029
19802W        W91473  20.206  37.271   3.807
19803W        W91474  36.093  30.404   0.136
19804W        W91475  35.041  15.277  12.462
19805W        W91476  35.399  27.235   1.028
19806W        W91477   6.995  23.647  14.218
19807W        W91478   4.837   0.694  13.834
19808W        W91479  26.605  31.818   0.152
19809W        W91480  37.409  30.340   2.902
19810W        W91481  33.443  40.994  14.784
19811W        W91482   7.044  31.468  13.787
19812W        W91483   7.655  24.705   2.857
19813W        W91484   7.846  31.027   4.548
19814W        W91485  44.554   2.733   3.878
19815W        W91486  13.907  41.880  13.843
19816W        W91487  32.873  27.919   4.116
19817W        W91488  23.411  10.235  12.485
19818W        W91489  27.006  43.903  14.785
19819W        W91490  19.901   1.816   3.360
19820W        W91491  39.733  29.461   3.354
19821W        W91492  32.076  22.547   2.370
19822W        W91493  34.310  41.831  11.122
19823W        W91494   6.130  18.627  11.861
19824W        W91495  19.082  33.313   4.703
19825W        W91496  35.004  30.897  13.819
19826W        W91497   5.008  43.251   5.031
19827W        W91498  12.685  26.533  13.531
19828W        W91499  33.283  32.744   1.471
19829W        W91500  30.580  28.091   3.285
19830W        W91501  20.397  31.014  11.194
19831W        W91502  12.327  34.751  12.626
19832W        W91503  25.597  40.866  14.663
19833W        W91504  28.607  43.691  11.099
19834W        W91505  37.866  38.029   3.312
19835W        W91506  40.064  41.295   4.188
19836W        W91507  27.832   4.969  10.862
19837W        W91508  33.149  18.889  13.039
19838W        W91509  18.709   8.917   0.725
19839W        W91510  41.587  41.497  10.924
19840W        W91511   2.168  11.145   3.137
19841W        W91512  33.423  31.591   9.910
19842W        W91513  27.460  33.151   3.261
19843W        W91514  15.775  24.976  12.801
19844W        W91515  22.123   7.948  11.568
19845W        W91516   9.622  15.688  10.691
19846W        W91517  24.139   3.739   1.829
19847W        W91518  10.339  23.659  13.269
19848W        W91519  25.764  26.817  12.218
19849W        W91520  14.110  11.345   4.631
19850W        W91521  38.731  42.938   3.407
19851W        W91522  26.879  16.316  12.486
19852W        W91523   7.606  18.014   4.215
19853W        W91524   7.186  23.665   3.137
19854W        W91525  23.477  42.368   2.186
19855W        W91526  39.359   4.376   2.168
19856W        W91527  12.703  18.571   3.658
19857W        W91528   9.871  39.309   1.074
19858W        W91529  32.565  43.683   0.438
19859W        W91530  43.032  32.485   1.498
19860W        W91531  26.718  23.727  11.620
19861W        W91532  22.435   9.268   3.825
19862W        W91533  32.431  21.820  12.197
19863W        W91534  35.458  14.116   4.427
19864W        W91535  26.951  21.971  14.450
19865W        W91536  38.985  13.973  11.021
19866W        W91537  19.057  24.050   1.272
19867W        W91538  38.973  31.279  10.558
19868W        W91539  33.660   7.795   2.516
19869W        W91540  29.512  20.886   3.601
19870W        W91541  11.369   6.879  11.638
19871W        W91542  37.064   1.399  13.920
19872W        W91543  35.027   1.891   2.810
19873W        W91544  10.250  29.572  14.943
19874W        W91545  36.993  11.833   0.929
19875W        W91546  24.621  14.234   4.228
19876W        W91547   7.066  10.756  13.498
19877W        W91548  14.263  26.703  11.119
19878W        W91549  19.677  42.769   0.317
19879W        W91550  16.820  20.084   1.383
19880W        W91551   0.747  23.997  10.592
19881W        W91552  35.044  31.960  11.682
19882W        W91553   3.138  34.891  14.861
19883W        W91554  26.492  39.935  11.174
19884W        W91555  21.229  39.899   2.357
19885W        W91556   3.225  26.540  13.545
19886W        W91557  22.783  14.865  14.977
19887W        W91558  25.607  41.793  14.361
19888W        W91559  30.895  34.200  13.565
19889W        W91560   4.305  33.277  12.439
19890W        W91561  19.757  35.081   3.641
19891W        W91562   3.495   0.501   2.229
19892W        W91563  17.624  26.239   1.843
19893W        W91564   3.425  31.051  14.536
19894W        W91565  25.403  44.446  13.513
19895W        W91566  37.508  10.171   2.823
19896W        W91567  35.568  19.461   1.755
19897W        W91568   9.550  34.430  14.200
19898W        W91569  29.622  44.648   0.429
19899W        W91570  15.700   1.583   2.798
19900W        W91571  43.858   0.001  10.610
19901W        W91572  21.545  16.719   2.339
19902W        W91573  25.621   8.599  12.045
19903W        W91574  21.110  42.016  12.088
19904W        W91575  37.863   7.090  11.499
19905W        W91576  26.747  30.997  14.945
19906W        W91577  12.826  34.390  10.426
19907W        W91578  41.904   0.671  14.406
19908W        W91579  32.026  12.715   3.067
19909W        W91580  10.801  39.879   4.481
19910W        W91581  42.071  35.149  14.943
19911W        W91582  43.469  17.713   1.911
19912W        W91583  37.087  34.023  12.091
19913W        W91584  27.983  20.137   2.652
19914W        W91585  23.529   9.644   2.642
19915W        W91586  28.015  36.088   3.640
19916W        W91587  13.999  31.758  11.054
19917W        W91588  13.031  19.741   0.265
19918W        W91589  27.675   4.923  14.800
19919W        W91590  29.116   9.312  10.973
19920W        W91591  24.672  11.541  11.223
19921W        W91592   4.243  35.313  11.458
19922W        W91593   2.466  30.134  14.806
19923W        W91594  44.702   9.821  13.319
19924W        W91595   6.906  28.319  14.241
19925W        W91596  20.656  27.207   3.742
19926W        W91597  21.439   5.230   4.942
19927W        W91598  32.212  18.570  11.174
19928W        W91599  35.560  10.380   0.213
19929W        W91600   4.808  29.725   4.941
19930W        W91601  14.511  11.719   4.218
19931W        W91602  41.319  33.727  11.079
19932W        W91603  30.951  29.482   1.343
19933W        W91604  35.054  34.639  12.566
19934W        W91605   3.513  24.687   3.022
19935W        W91606  36.407   0.514   4.598
19936W        W91607   8.744   5.646  10.913
19937W        W91608  17.695  32.584   4.315
19938W        W91609   8.260  34.506  14.491
19939W        W91610  44.218  25.548  10.909
19940W        W91611  13.965  27.181   4.441
19941W        W91612  14.194  22.190   4.600
19942W        W91613  16.636  16.561   0.995
19943W        W91614  25.239  35.349   4.615
19944W        W91615  29.795  32.899   0.927
19945W        W91616  19.497  40.399  13.891
19946W        W91617  25.081  44.311  11.375
19947W        W91618  39.195   0.740   4.115
19948W        W91619   1.946  13.665   4.664
19949W        W91620  39.478  25.973   3.237
19950W        W91621   1.045  20.599   0.550
19951W        W91622   2.360  38.401   4.439
19952W        W91623  39.604  39.982  12.950
19953W        W91624  13.169  20.566  13.322
19954W        W91625   8.215  30.592  13.344
19955W        W91626   0.486  15.069  13.389
19956W        W91627   9.729  23.006  11.469
19957W        W91628  29.545   8.815  11.400
19958W        W91629  20.590  42.776   4.075
19959W        W91630  31.103  12.134   3.885
19960W        W91631   3.888  14.663  14.777
19961W        W91632   6.351  43.111   4.863
19962W        W91633  35.942  31.605  12.917
19963W        W91634  13.783  16.702   5.037
19964W        W91635  42.911   4.691  10.471
19965W        W91636  30.270  28.091  13.734
19966W        W91637  12.256   0.202  11.679
19967W        W91638  34.104  18.134   1.475
19968W        W91639  32.166  14.829   2.221
19969W        W91640  27.927  35.899   3.146
19970W        W91641  37.314  27.536   2.256
19971W        W91642  42.468  41.733   0.977
19972W        W91643  16.985   4.784   5.057
19973W        W91644  43.811  25.609   4.972
19974W        W91645  18.078  30.589   1.778
19975W        W91646   2.314  18.317  12.841
19976W        W91647  37.588   1.419  13.893
19977W        W91648   9.615   5.178   3.221
19978W        W91649  30.041  18.149   1.273
19979W        W91650  26.763  11.586   2.874
19980W        W91651  37.897  18.756  10.147
19981W        W91652  38.270  39.971  14.299
19982W        W91653  17.084  11.375  13.386
19983W        W91654  41.367  17.148   2.233
19984W        W91655  11.876  12.164   1.579
19985W        W91656   2.340  33.953   4.436
19986W        W91657  20.205  36.484  13.597
19987W        W91658  31.603  21.255   1.933
19988W        W91659  12.887  44.709   3.260
19989W        W91660  17.332  41.495   3.648
19990W        W91661  13.843  21.660   1.822
19991W        W91662  18.576  37.741   5.221
19992W        W91663   9.384  37.907   4.146
19993W        W91664  21.764  31.840  12.883
19994W        W91665  31.188  24.642  12.650
19995W        W91666   6.617   6.237  14.424
19996W        W91667  15.034  21.570   2.127
19997W        W91668   9.531  27.056  14.880
19998W        W91669  14.190   9.806   1.583
19999W        W91670  39.733  16.247  12.096
20000W        W91671  36.134  16.645   1.492
20001W        W91672  22.116  20.017   3.193
20002W        W91673  13.359  14.676  10.934
20003W        W91674  12.318  31.324  11.929
20004W        W91675   8.865  27.894  13.607
20005W        W91676  13.704  24.188  13.787
20006W        W91677  18.336   6.600  12.497
20007W        W91678  14.174  13.558   1.445
20008W        W91679  17.109  19.071   1.193
20009W        W91680   4.217  34.824   4.280
20010W        W91681  35.849  44.967   3.252
20011W        W91682   4.170  39.876   1.282
20012W        W91683  19.702  33.207   4.219
20013W        W91684  40.234  28.525  11.824
20014W        W91685  42.304   1.005  14.426
20015W        W91686   8.876  28.327   3.718
20016W        W91687  25.233  22.914  13.486
20017W        W91688   8.425  10.168  12.486
20018W        W91689  26.663  23.713   9.783
20019W        W91690  27.118  26.322   3.826
20020W        W91691   2.461  13.345   2.630
20021W        W91692   6.679  29.553  12.610
20022W        W91693  37.550  24.193  13.914
20023W        W91694   7.981   4.894   2.803
20024W        W91695   5.020   2.353  12.925
20025W        W91696  35.008  18.070   4.561
20026W        W91697   6.894  29.273  11.823
20027W        W91698  18.044  21.745  13.735
20028W        W91699  38.000  44.334   4.404
20029W        W91700  27.554  17.172   2.187
20030W        W91701  15.790  27.190   1.771
20031W        W91702  18.693  22.151  11.789
20032W        W91703  40.279  20.762  11.057
20033W        W91704  32.355  23.685  11.956
20034W        W91705  16.538   4.900  12.397
20035W        W91706  25.741  41.720   4.021
20036W        W91707   4.425  15.717  11.163
20037W        W91708  20.992  27.903  10.663
20038W        W91709  32.048  25.081  11.455
20039W        W91710   7.673  40.279  11.515
20040W        W91711  31.488  35.809   3.336
20041W        W91712   0.107   6.069   0.428
20042W        W91713  14.078  36.117   3.938
20043W        W91714   8.750  28.405   0.341
20044W        W91715  22.750  11.358  11.156
20045W        W91716  25.954   9.821   1.801
20046W        W91717  30.437  19.500   4.257
20047W        W91718  38.363  40.056   2.862
20048W        W91719   9.729   0.355  12.663
20049W        W91720  15.503  23.268  11.950
20050W        W91721  14.777  42.846   2.892
20051W        W91722  28.602  44.964  13.391
20052W        W91723   1.325  40.291   1.888
20053W        W91724  21.878  11.838  12.967
20054W        W91725  32.570  18.254  12.972
20055W        W91726  36.606  20.181   1.266
20056W        W91727  38.960  13.796  13.995
20057W        W91728  26.257  13.326  11.216
20058W        W91729  19.742   0.278   2.960
20059W        W91730  33.559  17.703   0.855
20060W        W91731  18.749   7.440  11.087
20061W        W91732  44.449   5.876  14.779
20062W        W91733  10.065  17.482   3.777
20063W        W91734  27.053  12.618  12.472
20064W        W91735   6.450   7.366  12.056
20065W        W91736  21.119  34.195  12.985
20066W        W91737  44.413  14.597   5.064
20067W        W91738  13.127  15.477   3.751
20068W        W91739   4.615   1.821   4.840
20069W        W91740   7.756  21.665  13.145
20070W        W91741  34.634  44.264  13.882
20071W        W91742  14.089  37.580  13.075
20072W        W91743  29.300  37.439   1.528
20073W        W91744   7.160  37.938  13.588
20074W        W91745   2.494   7.853   0.761
20075W        W91746  13.386   9.341   3.854
20076W        W91747  23.763   3.900  12.006
20077W        W91748  25.584  43.222  12.987
20078W        W91749   4.188   0.292   2.791
20079W        W91750  14.923  36.546   1.011
20080W        W91751  22.649   2.404   2.387
20081W        W91752  43.275  18.670  14.520
20082W        W91753  13.207  37.402  14.369
20083W        W91754  11.848  24.005   3.133
20084W        W91755   9.751   7.439   4.565
20085W        W91756  16.039  21.464   4.143
20086W        W91757  38.507  32.173   1.958
20087W        W91758   9.921   1.448  10.964
20088W        W91759  13.291   0.458  11.467
20089W        W91760  12.274   9.564  13.062
20090W        W91761  10.370   7.333   4.222
20091W        W91762  35.852   1.932  13.751
20092W        W91763  34.441  38.659   9.446
20093W        W91764  41.876  28.130   3.832
20094W        W91765  22.290   1.886   3.713
20095W        W91766  14.800   0.314  13.909
20096W        W91767   3.059  35.615  14.314
20097W        W91768  10.409  26.046   4.389
20098W        W91769  25.964  19.693   1.933
20099W        W91770   8.738  43.463  14.343
20100W        W91771  26.643  23.216  13.270
20101W        W91772  42.965  25.726  10.764
20102W        W91773  26.220  42.961  12.506
20103W        W91774  38.100   8.667  11.061
20104W        W91775  40.652  14.058   3.416
20105W        W91776  34.400  25.868  14.147
20106W        W91777  28.596  14.091  11.376
20107W        W91778  38.474  21.267   4.534
20108W        W91779   1.600  10.202   4.192
20109W        W91780  34.596  16.289   1.881
20110W        W91781  19.574  25.161  13.557
20111W        W91782  12.147   2.763   1.887
20112W        W91783  24.129  39.126   1.997
20113W        W91784   7.301  25.646  14.804
20114W        W91785   8.843  37.162  11.892
20115W        W91786  10.632   2.133  12.065
20116W        W91787  18.713   2.734  13.489
20117W        W91788  31.943  29.578   4.588
20118W        W91789  30.523  23.365  13.445
20119W        W91790  22.194   6.246   3.547
20120W        W91791  35.609  20.305   1.375
20121W        W91792   0.286  36.033  14.988
20122W        W91793  32.641  20.938   2.740
20123W        W91794  21.866  10.638  14.027
20124W        W91795  33.846  25.958   1.549
20125W        W91796  37.998  19.569  14.529
20126W        W91797   2.848  22.299   0.438
20127W        W91798  28.233  27.566   3.365
20128W        W91799  22.772  37.645  11.948
20129W        W91800  10.922  32.031   3.578
20130W        W91801  23.098  14.984  12.396
20131W        W91802   2.786  23.183   3.817
20132W        W91803   8.336  32.884  10.744
20133W        W91804  38.758  35.063   1.703
20134W        W91805   2.758   3.323   3.582
20135W        W91806   1.979  15.301  11.285
20136W        W91807   4.690  17.782  11.160
20137W        W91808  43.112  39.878  14.159
20138W        W91809  25.151  41.873  10.390
20139W        W91810  12.705   4.783  14.360
20140W        W91811  30.548  26.963  12.405
20141W        W91812   6.694  31.469  12.565
20142W        W91813  36.877  36.644  12.343
20143W        W91814   8.269  26.285   4.495
20144W        W91815  27.546  40.607   2.642
20145W        W91816  33.498  26.959   4.560
20146W        W91817   9.756  24.447   2.746
20147W        W91818  44.446  15.263  12.309
20148W        W91819  32.446  16.191  12.537
20149W        W91820  28.599   0.498   3.112
20150W        W91821  38.083   6.625  10.924
20151W        W91822  16.783  24.514  11.707
20152W        W91823  39.102  43.960   2.179
20153W        W91824  33.065  14.252  13.924
20154W        W91825  30.660  28.319  11.935
20155W        W91826  22.563  41.364   3.707
20156W        W91827   4.779  22.247  14.377
20157W        W91828  26.409  39.573   0.263
20158W        W91829  16.157  14.514   1.065
20159W        W91830  25.524  25.517  12.071
20160W        W91831   2.972  23.470   1.316
20161W        W91832  33.592   8.952  13.550
20162W        W91833  43.937  32.978  13.465
20163W        W91834  15.252  20.004  13.791
20164W        W91835  27.455  25.473   3.694
20165W        W91836   4.438   0.818  11.161
20166W        W91837  23.349  26.565  12.097
20167W        W91838  28.554   3.102  12.175
20168W        W91839  37.328  29.552  11.113
20169W        W91840  33.810  10.903   3.394
20170W        W91841  20.418  26.981  10.440
20171W        W91842  19.982  10.684   4.620
20172W        W91843  41.909  39.490  13.078
20173W        W91844  36.311  30.576  11.978
20174W        W91845  13.557   3.046  14.831
20175W        W91846   5.682   1.543  12.437
20176W        W91847  31.524  39.903   2.772
20177W        W91848  20.863  25.753   2.623
20178W        W91849   0.299  15.571   1.281
20179W        W91850   8.247  19.774   2.451
20180W        W91851  33.590  12.869  10.478
20181W        W91852   6.203  15.118   4.664
20182W        W91853  31.552  37.768   3.241
20183W        W91854  31.447  17.985  14.044
20184W        W91855  22.930  34.320  13.067
20185W        W91856  41.917  33.142  12.052
20186W        W91857  26.204  22.297  12.927
20187W        W91858   9.760  10.299  13.519
20188W        W91859  44.373  20.433   0.454
20189W        W91860  35.797   4.972   0.397
20190W        W91861  36.972  10.333   3.108
20191W        W91862   4.375   4.323   0.919
20192W        W91863  26.173  25.643   3.540
20193W        W91864  32.628   7.725  14.052
20194W        W91865  40.827   4.324  11.466
20195W        W91866  23.994  38.224  13.235
20196W        W91867  18.765  20.471   2.172
20197W        W91868  12.388   2.914  12.471
20198W        W91869   2.846  35.046   1.917
20199W        W91870  15.784  44.035   4.276
20200W        W91871  23.059   6.952  13.475
20201W        W91872  30.158  44.984   0.204
20202W        W91873   4.337  39.618  14.311
20203W        W91874   5.232  15.267  13.846
20204W        W91875  31.112  23.636  10.698
20205W        W91876   7.577   2.289  10.746
20206W        W91877  36.809  38.952   0.692
20207W        W91878   2.010  21.067  13.860
20208W        W91879  12.381  40.548  12.810
20209W        W91880  24.128  23.645  10.840
20210W        W91881  15.229  38.825  14.276
20211W        W91882  43.368  39.441  14.843
20212W        W91883  28.705  32.425   0.039
20213W        W91884  33.091  26.145  13.557
20214W        W91885  41.162  35.896  11.258
20215W        W91886   0.452  38.717  13.792
20216W        W91887  22.200   5.688  14.976
20217W        W91888  19.573  25.935  11.641
20218W        W91889  22.004   2.977  14.883
20219W        W91890   1.336  12.774  13.888
20220W        W91891   9.082  17.274   4.750
20221W        W91892  27.161  37.596   3.161
20222W        W91893   5.184  23.387  13.646
20223W        W91894  29.000  21.553  11.962
20224W        W91895  13.288  26.772   4.330
20225W        W91896  12.173  21.373  14.431
20226W        W91897  31.985  27.779   0.852
20227W        W91898  12.389  22.759   2.097
20228W        W91899  25.450  11.868  12.507
20229W        W91900   1.674  25.194   2.814
20230W        W91901  39.929   4.994   4.585
20231W        W91902  26.174  40.059  12.043
20232W        W91903  12.410  42.434  13.390
20233W        W91904  27.533   1.241  12.553
20234W        W91905   7.248  29.857  11.215
20235W        W91906  30.862  28.047  12.347
20236W        W91907  31.277  34.510  11.275
20237W        W91908  27.137  10.340  12.022
20238W        W91909   4.976  33.071   4.775
20239W        W91910  21.734  21.684  13.600
20240W        W91911  34.393  31.539  11.068
20241W        W91912  38.561  27.692  14.810
20242W        W91913  37.776  10.351  13.512
20243W        W91914  33.192  36.893   2.192
20244W        W91915   1.946  24.975  14.870
20245W        W91916  19.698  38.545  12.523
20246W        W91917  19.846   6.300  14.880
20247W        W91918  22.051  43.901   3.324
20248W        W91919  10.198  14.294  14.039
20249W        W91920   1.289  13.168  10.831
20250W        W91921  38.538  37.885   2.266
20251W        W91922  26.789  23.060   1.942
20252W        W91923  10.292  23.519   4.121
20253W        W91924  29.663  13.364   3.240
20254W        W91925  12.238  36.801   1.269
20255W        W91926  43.904   5.180  13.360
20256W        W91927  44.824  12.126  10.319
20257W        W91928   2.770  16.015   4.440
20258W        W91929   0.672  24.865   2.450
20259W        W91930  32.834  19.609   0.719
20260W        W91931   4.327  25.175  11.218
20261W        W91932   6.803  37.373   0.723
20262W        W91933  20.506  44.471  10.546
20263W        W91934  33.173   7.655  11.587
20264W        W91935  12.128  11.318  13.391
20265W        W91936   4.744  17.519  10.731
20266W        W91937  33.960  38.909  14.812
20267W        W91938  42.214   4.706   0.727
20268W        W91939  13.607   8.382   3.498
20269W        W91940   6.826  39.990  14.741
20270W        W91941  32.537  12.606   0.172
20271W        W91942  27.394  44.686   1.846
20272W        W91943  20.020  16.163  11.548
20273W        W91944  31.547   4.358   0.950
20274W        W91945  29.790   3.025  11.948
20275W        W91946   1.937   5.664  12.632
20276W        W91947   6.744   4.839  13.378
20277W        W91948  31.355  29.637   0.346
20278W        W91949  35.746  13.662  14.275
20279W        W91950  18.136  16.856   0.715
20280W        W91951   3.663  41.938  12.128
20281W        W91952  42.030  37.402   2.817
20282W        W91953  27.115  20.140   4.396
20283W        W91954   1.546  12.814  14.368
20284W        W91955   8.529  23.714   0.140
20285W        W91956   3.652  36.352  12.446
20286W        W91957  27.559  16.229   4.351
20287W        W91958   5.883   8.560   4.336
20288W        W91959  38.563  30.217   0.398
20289W        W91960  18.747  42.563   1.940
20290W        W91961  17.171  25.086  13.890
20291W        W91962  33.848  23.120   3.168
20292W        W91963  30.576  20.667  10.590
20293W        W91964  27.428   6.486  13.331
20294W        W91965   1.683  39.074  12.526
20295W        W91966  33.466  30.203  11.686
20296W        W91967  43.545  28.069   1.204
20297W        W91968  40.413  10.378   4.048
20298W        W91969  19.170  44.022  11.130
20299W        W91970  12.168   4.768  14.516
20300W        W91971  35.457  29.893  14.344
20301W        W91972  20.396  24.985   2.148
20302W        W91973   9.747   8.140  13.137
20303W        W91974   4.923  44.749  14.115
20304W        W91975  23.602  38.570   2.333
20305W        W91976  23.767  39.061  12.107
20306W        W91977  36.786  32.184  14.508
20307W        W91978  36.958  42.215   1.485
20308W        W91979  40.636  23.029  10.699
20309W        W91980   6.412  16.065   0.384
20310W        W91981  13.893  11.601  14.567
20311W        W91982   8.954  20.196  14.338
20312W        W91983  31.036   6.733   0.262
20313W        W91984  16.032   9.969   1.320
20314W        W91985  17.267  31.696  14.880
20315W        W91986   0.716   2.245  13.608
20316W        W91987  33.630   9.861  13.512
20317W        W91988  22.635  35.064   1.268
20318W        W91989  21.268  12.916   3.158
20319W        W91990  15.661  30.144  11.897
20320W        W91991   9.452  28.846   1.721
20321W        W91992  19.712   4.237  14.515
20322W        W91993   9.807  19.162   3.835
20323W        W91994   6.177  42.053  10.992
20324W        W91995  21.170  12.749   0.836
20325W        W91996  15.324   8.558   1.027
20326W        W91997  23.667  43.075  11.133
20327W        W91998  41.203  43.955   1.024
20328W        W91999   9.715  36.659  13.797
20329W        W92000  17.996  32.958  11.545
20330W        W92001  26.461  23.980   3.680
20331W        W92002   3.281   2.898   4.640
20332W        W92003  26.717   5.671   2.126
20333W        W92004  22.626  24.344  10.164
20334W        W92005  37.392  35.405  14.490
20335W        W92006  26.989  37.979   0.383
20336W        W92007  22.558  33.365   0.765
20337W        W92008  30.574  29.702  13.815
20338W        W92009   7.334  41.558   2.594
20339W        W92010  44.731  11.670   2.639
20340W        W92011  34.461  38.647   0.799
20341W        W92012  43.206   3.899  10.429
20342W        W92013  17.615  38.507  13.800
20343W        W92014  36.880  23.597   4.545
20344W        W92015  42.828   8.168   3.370
20345W        W92016  24.804  43.364   1.857
20346W        W92017  36.587   9.277   1.061
20347W        W92018   7.785  44.683   2.371
20348W        W92019  38.231  43.486   0.122
20349W        W92020  30.616   9.431  13.691
20350W        W92021  20.154  16.333   2.243
20351W        W92022   0.470  22.979   4.773
20352W        W92023  30.165  13.874  14.736
20353W        W92024  43.505   4.983  12.059
20354W        W92025  28.366   7.281  14.365
20355W        W92026  20.948  42.310  11.632
20356W        W92027  12.801  26.105   2.849
20357W        W92028   8.001  22.576   4.513
20358W        W92029   8.105  41.858   1.488
20359W        W92030  32.430  18.375  13.456
20360W        W92031  23.966  22.569  11.185
20361W        W92032  28.623  33.588   1.703
20362W        W92033  37.575  38.978  13.433
20363W        W92034  33.455  41.897   3.588
20364W        W92035  11.579  33.063   3.836
20365W        W92036  37.041  22.107   0.188
20366W        W92037  31.592   1.325  14.037
20367W        W92038   6.171  38.964   1.382
20368W        W92039  22.263  14.666  13.477
20369W        W92040  12.736  30.231  14.636
20370W        W92041   1.974  26.535  13.927
20371W        W92042  21.486  36.060  10.404
20372W        W92043  33.800  34.793  12.942
20373W        W92044  27.974   9.260   2.250
20374W        W92045  37.896  32.897  11.583
20375W        W92046  12.148  14.287  13.582
20376W        W92047  37.516   7.972   2.946
20377W        W92048  39.874   1.719  14.037
20378W        W92049  15.996  40.054  13.803
20379W        W92050  21.255  28.676   3.754
20380W        W92051  14.592  38.909  11.437
20381W        W92052  16.785   7.252  10.654
20382W        W92053  10.387  14.083  14.906
20383W        W92054  40.826  43.771   1.343
20384W        W92055  26.578   3.762   0.430
20385W        W92056   9.764  14.097   2.399
20386W        W92057  41.541   1.208   1.266
20387W        W92058   9.260   0.415  14.402
20388W        W92059   5.278   7.673  12.183
20389W        W92060  25.266  39.212   4.571
20390W        W92061  44.887  18.567   0.227
20391W        W92062  36.897  41.675  12.545
20392W        W92063  41.781  31.543  12.048
20393W        W92064  12.601  26.594   2.837
20394W        W92065   1.967  16.205   1.665
20395W        W92066  43.472  28.510  10.739
20396W        W92067  12.391   8.804  14.922
20397W        W92068  23.326  11.875  12.147
20398W        W92069  12.442  16.059  10.622
20399W        W92070  41.846  41.983   0.217
20400W        W92071   1.828  14.759   4.988
20401W        W92072  34.774  41.823   1.335
20402W        W92073   0.051  28.294  11.002
20403W        W92074  34.524   7.608   2.142
20404W        W92075  38.253   9.051  13.908
20405W        W92076   0.171  40.411  13.556
20406W        W92077  31.118   4.474   2.779
20407W        W92078  20.754  38.902   2.287
20408W        W92079  38.941  34.256   1.061
20409W        W92080   7.155  41.890  14.146
20410W        W92081  11.303  14.118   4.544
20411W        W92082  42.895  39.057  12.133
20412W        W92083   1.944   6.435  13.282
20413W        W92084  30.448   8.318   4.288
20414W        W92085  21.761  24.429   0.867
20415W        W92086  11.995  12.309  11.004
20416W        W92087  25.511  33.984   1.343
20417W        W92088   3.730   0.514   2.723
20418W        W92089  11.902  12.604   3.275
20419W        W92090   1.466  24.120   2.865
20420W        W92091  42.523  33.437   3.264
20421W        W92092   8.702  23.254   1.855
20422W        W92093  32.570   8.634   1.895
20423W        W92094  13.800  34.350   2.127
20424W        W92095  23.480   1.397  11.094
20425W        W92096  15.873   4.816   2.868
20426W        W92097  13.362  18.107  13.373
20427W        W92098  12.702  40.818   0.283
20428W        W92099  43.925  12.474   0.479
20429W        W92100  20.822  23.623   1.180
20430W        W92101  39.086  30.943   3.001
20431W        W92102  42.451  44.716  10.691
20432W        W92103   6.558  27.864  11.626
20433W        W92104  17.780  41.440  10.505
20434W        W92105   3.389  29.612  13.967
20435W        W92106  30.982  10.354   4.438
20436W        W92107  18.728  32.644   2.113
20437W        W92108  25.018  13.715   4.610
20438W        W92109  24.438   6.946  14.779
20439W        W92110  10.326  42.444   2.362
20440W        W92111   4.898  30.674   9.754
20441W        W92112  44.039  10.108   0.013
20442W        W92113  22.710  40.864  13.591
20443W        W92114  23.524  22.200  11.576
20444W        W92115  10.196  30.310  13.333
20445W        W92116  29.403  35.276  13.413
20446W        W92117  29.985  38.416   3.299
20447W        W92118   5.792  37.429   2.178
20448W        W92119   2.911   1.420   2.962
20449W        W92120  13.756  30.834   4.767
20450W        W92121  19.739  33.532  13.926
20451W        W92122  31.039   1.855   2.310
20452W        W92123  44.704  42.695   2.458
20453W        W92124  44.961  25.942   3.135
20454W        W92125   0.436  22.150   3.252
20455W        W92126  37.350  20.638   0.784
20456W        W92127  41.413  23.726  11.123
20457W        W92128   9.422   3.768  13.543
20458W        W92129   0.033   4.110   2.881
20459W        W92130  42.382   5.873  10.669
20460W        W92131   5.834  44.776  10.705
20461W        W92132  29.045   9.370  11.480
20462W        W92133   5.368  21.132   1.288
20463W        W92134  22.317  44.974  14.959
20464W        W92135  26.947  11.648  12.675
20465W        W92136  40.513  14.295  14.454
20466W        W92137  26.126  37.280  12.113
20467W        W92138  22.049  38.163   4.899
20468W        W92139  22.889  43.484  13.126
20469W        W92140   5.415  41.949   3.254
20470W        W92141   0.272  32.677  14.797
20471W        W92142  41.397  18.654   2.231
20472W        W92143  15.857  44.473   3.277
20473W        W92144  23.510   0.778   4.058
20474W        W92145  41.421  29.046  10.738
20475W        W92146  24.155  19.445   1.791
20476W        W92147  16.638  32.361  12.864
20477W        W92148  23.642  29.998   4.633
20478W        W92149  14.587  31.452   4.161
20479W        W92150  25.192  34.631  13.317
20480W        W92151  41.452  44.049   2.695
20481W        W92152  40.025   3.625  11.145
20482W        W92153  28.378  14.105  12.037
20483W        W92154  40.080   7.919   0.398
20484W        W92155  34.109  30.965   2.341
20485W        W92156  18.991  11.244  13.354
20486W        W92157  37.510  33.302   4.096
20487W        W92158  40.811  23.068  11.726
20488W        W92159   7.785   5.975  13.043
20489W        W92160  44.777  33.361   3.137
20490W        W92161  40.098  30.523  11.810
20491W        W92162  34.936  30.055   2.633
20492W        W92163  31.144   9.704  12.518
20493W        W92164  18.613  44.783   3.065
20494W        W92165  37.106   0.986   1.450
20495W        W92166  20.789   3.998  10.832
20496W        W92167   0.036  38.549  12.386
20497W        W92168  38.257  11.237  14.465
20498W        W92169  35.408  13.663   3.163
20499W        W92170  34.913   2.660  13.518
20500W        W92171  18.559  40.839  12.668
20501W        W92172   8.145  37.927  11.073
20502W        W92173  24.192  20.597  10.631
20503W        W92174   0.913  30.397   4.717
20504W        W92175  39.894  38.024   2.735
20505W        W92176   2.514  44.620  12.947
20506W        W92177  28.836  10.280   2.957
20507W        W92178   5.384   3.255   3.077
20508W        W92179  17.101  35.745  10.184
20509W        W92180  31.941  37.382  13.597
20510W        W92181  27.856  23.018  11.864
20511W        W92182  17.802  31.665   3.237
20512W        W92183  35.529  12.751  13.921
20513W        W92184  29.040  11.433   2.407
20514W        W92185  11.402  23.652   0.266
20515W        W92186   7.845  33.909   1.920
20516W        W92187  32.955   7.821   4.567
20517W        W92188  26.654  31.224  11.585
20518W        W92189   6.209   0.252   4.685
20519W        W92190  23.176  42.756   5.223
20520W        W92191  24.620  12.478  11.061
20521W        W92192  13.696  12.195  11.972
20522W        W92193  35.120  14.508  14.151
20523W        W92194  26.195  32.584   3.756
20524W        W92195   3.061   6.120  11.082
20525W        W92196  17.995  12.134   2.392
20526W        W92197  38.776  40.796   4.113
20527W        W92198  22.274   7.968  10.351
20528W        W92199  28.269  11.197  13.986
20529W        W92200  24.007  11.069   3.728
20530W        W92201  36.525  36.533   5.469
20531W        W92202   6.447   7.156  10.344
20532W        W92203  37.046  34.571  14.419
20533W        W92204  26.045  29.424  12.870
20534W        W92205  12.598  26.294   3.681
20535W        W92206  35.991  44.532   1.011
20536W        W92207  27.210   5.953   3.890
20537W        W92208  44.090  18.961  11.930
20538W        W92209  25.452  43.825   4.483
20539W        W92210  29.544   5.946  14.447
20540W        W92211  14.285  29.133  12.339
20541W        W92212  16.437  13.695   4.892
20542W        W92213  41.121  14.233   0.077
20543W        W92214  28.448  39.435   3.705
20544W        W92215  35.525  38.381  11.561
20545W        W92216  20.141  24.186   0.944
20546W        W92217  19.477  33.460   2.719
20547W        W92218  14.197  17.820  10.469
20548W        W92219   8.381  40.562  12.076
20549W        W92220  18.526  39.486  13.448
20550W        W92221   2.491  42.550   4.513
20551W        W92222   5.631  43.619  11.541
20552W        W92223  15.332  22.709  13.444
20553W        W92224  27.384   3.731  13.462
20554W        W92225  34.382   3.730   3.858
20555W        W92226  22.601   3.405   2.586
20556W        W92227  34.042   7.331   5.022
20557W        W92228  43.801   8.679  14.938
20558W        W92229  17.363   1.327  14.938
20559W        W92230  36.310  24.918  12.817
20560W        W92231  11.708   0.305   0.761
20561W        W92232  42.827  18.068   3.935
20562W        W92233   3.417   3.777  13.020
20563W        W92234  37.987  33.118  11.086
20564W        W92235  41.272   4.446  13.480
20565W        W92236  43.302   4.254  14.512
20566W        W92237  18.103  38.421  12.876
20567W        W92238  11.382  41.853  13.846
20568W        W92239  18.434  17.445   4.916
20569W        W92240  36.605  36.298   1.643
20570W        W92241  12.109  11.413  11.032
20571W        W92242  17.232  37.900  11.687
20572W        W92243  27.030  26.219  13.143
20573W        W92244  17.139  29.889  14.992
20574W        W92245  18.683  40.091  10.989
20575W        W92246  21.685  41.267   2.162
20576W        W92247  26.947  31.056  11.155
20577W        W92248  34.213  35.997  13.991
20578W        W92249  44.543  39.680   3.170
20579W        W92250  39.755  29.022  14.408
20580W        W92251   4.446   9.591  12.023
20581W        W92252  23.935  33.997   4.763
20582W        W92253  41.286  25.983   3.590
20583W        W92254  15.293  16.702  14.348
20584W        W92255  36.433  32.347  12.462
20585W        W92256  27.339  25.977   4.133
20586W        W92257  42.001  23.791   4.150
20587W        W92258   2.052   7.512   1.635
20588W        W92259  24.926  15.333   0.443
20589W        W92260  27.942  40.509  10.979
20590W        W92261  21.231   2.291  13.005
20591W        W92262  25.249  38.836  13.525
20592W        W92263  41.791  33.677  13.838
20593W        W92264  19.254  12.675  12.957
20594W        W92265  26.602  32.307   1.422
20595W        W92266  16.865  10.312   1.357
20596W        W92267  38.128  38.174  12.066
20597W        W92268  11.331  27.248  10.468
20598W        W92269  19.459  34.098  13.888
20599W        W92270  27.022  33.540   4.344
20600W        W92271   8.155   3.960  11.590
20601W        W92272   0.909  35.948  14.763
20602W        W92273  41.851   4.098   3.274
20603W        W92274  21.601  13.280   2.994
20604W        W92275  25.005  16.458   1.210
20605W        W92276  29.855  35.072   3.332
20606W        W92277  19.557  29.171   3.243
20607W        W92278  44.457  36.840   4.601
20608W        W92279  13.405  40.317   0.313
20609W        W92280  12.709  33.514   2.267
20610W        W92281   4.605  20.004  10.534
20611W        W92282  25.710   0.598   5.020
20612W        W92283  27.376   9.445  10.741
20613W        W92284  36.682  21.438  13.965
20614W        W92285  18.186   1.810   0.305
20615W        W92286  21.618  11.048   1.432
20616W        W92287  23.083  11.678  11.475
20617W        W92288   5.252  21.568  13.040
20618W        W92289  42.194  33.541  12.567
20619W        W92290   0.329  17.845   2.181
20620W        W92291   9.762  14.272   1.028
20621W        W92292  44.753  42.294  11.610
20622W        W92293  15.403  10.831  14.541
20623W        W92294  27.946  22.981  10.646
20624W        W92295  41.563  32.549  14.372
20625W        W92296  23.054  38.036   1.544
20626W        W92297   5.962   8.143  13.041
20627W        W92298  26.523  38.579  11.997
20628W        W92299   7.274  13.302   0.976
20629W        W92300   8.741  14.557   5.031
20630W        W92301  41.539  10.420  14.980
20631W        W92302  44.749   6.317  11.553
20632W        W92303   1.341  18.823  12.955
20633W        W92304   0.049  12.861   0.334
20634W        W92305  16.807  30.403  12.074
20635W        W92306  44.253  34.324  14.775
20636W        W92307  39.871  17.585  11.197
20637W        W92308  30.605  25.024   3.455
20638W        W92309  12.131  11.773   0.403
20639W        W92310  40.883   5.306  13.230
20640W        W92311   8.688  41.960   0.414
20641W        W92312   1.309  23.676   3.243
20642W        W92313  41.149  32.997   2.827
20643W        W92314  39.936  37.373   3.272
20644W        W92315  43.474  41.483   4.028
20645W        W92316  20.572   4.944  12.393
20646W        W92317   3.431  14.786  13.983
20647W        W92318  26.531   1.151  12.549
20648W        W92319  18.884   2.258  13.702
20649W        W92320  33.450  19.612   1.265
20650W        W92321  12.246  28.131   2.763
20651W        W92322  40.419   2.568  14.612
20652W        W92323   7.833  27.310   3.904
20653W        W92324   8.724   9.611  13.153
20654W        W92325  11.882   3.557   2.769
20655W        W92326  37.437  24.125  12.175
20656W        W92327  24.982  23.123  14.795
20657W        W92328  34.423  11.119  10.687
20658W        W92329  10.319  17.247   4.643
20659W        W92330   8.835  41.786  10.638
20660W        W92331  28.425  23.110   2.015
20661W        W92332  41.944  44.416   0.359
20662W        W92333   3.295  30.652  12.962
20663W        W92334  29.050   4.834   2.163
20664W        W92335  26.903  24.092   4.041
20665W        W92336  10.703  32.247  11.352
20666W        W92337   4.914  37.291   3.072
20667W        W92338  24.921   5.897   3.062
20668W        W92339  31.045  27.662  12.600
20669W        W92340  32.488  40.760   3.253
20670W        W92341   7.742  10.422  14.939
20671W        W92342  22.335   3.914  14.279
20672W        W92343  18.314  31.616   3.265
20673W        W92344  30.106   2.319  12.334
20674W        W92345   7.726  40.215   0.393
20675W        W92346   1.505  32.610  14.294
20676W        W92347  42.388  28.688  11.086
20677W        W92348  11.385  16.662  10.624
20678W        W92349  10.683  22.220   0.380
20679W        W92350  12.332  33.409   0.327
20680W        W92351  16.060  29.493  11.629
20681W        W92352  13.815  11.382   2.260
20682W        W92353   1.474  41.780   1.913
20683W        W92354  32.197  18.024   2.154
20684W        W92355  19.556  35.184   3.149
20685W        W92356  26.081  38.997  14.835
20686W        W92357   5.478  38.511   1.082
20687W        W92358  16.977  35.634   2.173
20688W        W92359  17.771  18.143   4.776
20689W        W92360  40.452  34.826   2.405
20690W        W92361  19.550   3.142   0.485
20691W        W92362  27.689  16.665   2.277
20692W        W92363  33.979  34.896   2.735
20693W        W92364  14.645  44.975   1.660
20694W        W92365  13.597  44.756  13.497
20695W        W92366  27.709  21.802   4.234
20696W        W92367  31.050  16.773   0.467
20697W        W92368  11.690   1.590   3.553
20698W        W92369  29.224  38.487   3.797
20699W        W92370  44.229  16.624   4.790
20700W        W92371  43.441   8.078  11.691
20701W        W92372   1.670  41.381   2.240
20702W        W92373  36.781  31.920  14.058
20703W        W92374  35.108  15.159  14.200
20704W        W92375  21.177   1.971  10.837
20705W        W92376  15.022  42.887   1.988
20706W        W92377  18.272   4.361  12.846
20707W        W92378   6.382  40.393   1.680
20708W        W92379  30.639  13.231  10.707
20709W        W92380  28.044  11.763   3.091
20710W        W92381  17.757  19.745  13.637
20711W        W92382  30.638  13.871  14.967
20712W        W92383   1.850  24.824  11.650
20713W        W92384   7.350  41.905  10.730
20714W        W92385   4.451  37.844   0.386
20715W        W92386  27.438  39.585   2.800
20716W        W92387  14.111  14.195   4.066
20717W        W92388   8.721  13.715   1.949
20718W        W92389  30.941  19.820   3.411
20719W        W92390  37.882  15.867   1.185
20720W        W92391  26.589  38.054  11.164
20721W        W92392  22.280   9.075   2.942
20722W        W92393  31.239  16.686   3.653
20723W        W92394  35.671  27.917   4.646
20724W        W92395   9.296  24.269  14.828
20725W        W92396   4.267   1.034   4.765
20726W        W92397  32.658  15.051  12.040
20727W        W92398  11.606  34.210  11.268
20728W        W92399   9.459  34.566   2.296
20729W        W92400   1.102  26.538  11.657
20730W        W92401   0.161   0.035  12.404
20731W        W92402  41.641  25.709   0.864
20732W        W92403  27.696  25.170  14.358
20733W        W92404  18.673   6.464  11.159
20734W        W92405  40.038  36.907  11.064
20735W        W92406  42.746  37.477   0.527
20736W        W92407   3.285   1.472   9.864
20737W        W92408  10.339  28.949   1.528
20738W        W92409  42.458   7.367   1.195
20739W        W92410   9.354  30.510   3.755
20740W        W92411   7.090  37.303  14.064
20741W        W92412  16.174  15.994   2.336
20742W        W92413   6.809   7.964   3.617
20743W        W92414  11.670  35.018  13.826
20744W        W92415  27.108  26.210  14.896
20745W        W92416  40.025   6.710  14.897
20746W        W92417  15.442  13.571  12.408
20747W        W92418   3.397   5.274   2.618
20748W        W92419  36.052   2.190  13.353
20749W        W92420   4.374  18.854  14.825
20750W        W92421  24.994  21.838   1.607
20751W        W92422  23.553  12.137   4.164
20752W        W92423  15.557  33.042   0.186
20753W        W92424  40.410   8.675  10.990
20754W        W92425  18.220  35.787   2.735
20755W        W92426  44.972  44.567  12.435
20756W        W92427  28.878   9.725   1.842
20757W        W92428   4.412   6.307   1.660
20758W        W92429  22.712   1.789   5.227
20759W        W92430  28.562  14.685   3.839
20760W        W92431  10.576  20.800  13.768
20761W        W92432  12.212  30.347   4.134
20762W        W92433  28.593  44.339  12.435
20763W        W92434  44.289   2.515   1.804
20764W        W92435  17.120  15.149  13.877
20765W        W92436  40.543   6.862  12.936
20766W        W92437  30.093   5.190  13.482
20767W        W92438  29.098  14.106   1.176
20768W        W92439  42.565  38.260   4.565
20769W        W92440  43.981  20.026  12.088
20770W        W92441  35.636  19.470  14.487
20771W        W92442  20.151  15.152   2.779
20772W        W92443  31.963   0.942  13.890
20773W        W92444  29.407  14.629   2.859
20774W        W92445  27.461   8.873   4.638
20775W        W92446  40.576  21.501  10.717
20776W        W92447  15.363  37.491  13.781
20777W        W92448   7.621   5.274   3.871
20778W        W92449  33.065  37.952   1.347
20779W        W92450   2.712  30.548   0.021
20780W        W92451  14.310  39.467   1.627
20781W        W92452  14.683  37.382   2.359
20782W        W92453  20.475   8.829   0.807
20783W        W92454  37.038  18.810  14.290
20784W        W92455   3.699  13.764   3.817
20785W        W92456   7.436  39.282  13.845
20786W        W92457  24.795  36.912   4.618
20787W        W92458   1.429  29.674   2.258
20788W        W92459   0.957  37.769  13.918
20789W        W92460  35.152  41.294  13.790
20790W        W92461  34.012   7.277   4.006
20791W        W92462  39.978  23.987   1.957
20792W        W92463  24.551  24.497   4.245
20793W        W92464  16.325  32.416   1.810
20794W        W92465  40.418  16.154  11.560
20795W        W92466  41.502  17.029  11.601
20796W        W92467   9.588  19.050   2.829
20797W        W92468  36.519  42.989  13.926
20798W        W92469  15.974  43.369  12.471
20799W        W92470  33.001  20.389  11.973
20800W        W92471   5.746  38.603   3.703
20801W        W92472  16.963  44.272  11.464
20802W        W92473  11.133  38.812  13.828
20803W        W92474   7.845   8.855   3.683
20804W        W92475  16.020   2.566  14.422
20805W        W92476  40.758  38.057   4.820
20806W        W92477  19.046  42.932   2.851
20807W        W92478  17.222  11.799   4.412
20808W        W92479  25.589  35.813  13.321
20809W        W92480  22.466  30.440  11.774
20810W        W92481  34.837  11.642  12.851
20811W        W92482   4.806   7.377   9.831
20812W        W92483  38.272  42.560  12.154
20813W        W92484  43.802  21.465  14.812
20814W        W92485  15.705  34.777  13.139
20815W        W92486  19.414  43.556  12.643
20816W        W92487   2.967   7.402  13.006
20817W        W92488   4.751  33.617   4.582
20818W        W92489  25.426   4.095   1.349
20819W        W92490   5.706  30.457  11.165
20820W        W92491  30.431   9.426  12.220
20821W        W92492  19.691  37.620  11.515
20822W        W92493  10.441  44.420   2.305
20823W        W92494  13.065  40.922   1.173
20824W        W92495   3.314  12.175  12.675
20825W        W92496  21.278  23.572   0.444
20826W        W92497   1.749  31.901   1.402
20827W        W92498  16.323  30.659   2.399
20828W        W92499   9.862   2.819  10.652
20829W        W92500  16.960   9.135   3.928
20830W        W92501   6.516  41.546  13.559
20831W        W92502  14.946  32.078  10.582
20832W        W92503  13.774  30.145  10.557
20833W        W92504   4.927  38.161  11.482
20834W        W92505  32.034   9.010   0.075
20835W        W92506  40.087  42.039   3.424
20836W        W92507  33.429  17.292   3.990
20837W        W92508  35.602   1.460   4.347
20838W        W92509  41.397  27.227   3.961
20839W        W92510   7.848   6.454   1.747
20840W        W92511   5.741  19.049   0.826
20841W        W92512  10.783   6.247   3.290
20842W        W92513  21.773   1.383  14.433
20843W        W92514  28.746  41.167   4.927
20844W        W92515   4.946  19.540  12.886
20845W        W92516  20.611  41.333   0.654
20846W        W92517  14.118   1.366  13.779
20847W        W92518   0.461  17.271   2.879
20848W        W92519  36.837   3.714   2.382
20849W        W92520  13.236  43.624   4.925
20850W        W92521  29.555  37.847  13.370
20851W        W92522  33.601  13.514   3.316
20852W        W92523  24.214  19.635   2.701
20853W        W92524  15.283   0.402  12.632
20854W        W92525  38.650  34.563   1.790
20855W        W92526   5.910  42.511  10.730
20856W        W92527  13.679  21.741  11.633
20857W        W92528  16.829  10.173   2.306
20858W        W92529  13.682  42.683  12.472
20859W        W92530  32.882  40.531  12.436
20860W        W92531  29.745  16.263  12.815
20861W        W92532  43.491  24.736  10.066
20862W        W92533   8.906  20.963  12.583
20863W        W92534  35.960  38.621  11.391
20864W        W92535   2.317  14.648   1.322
20865W        W92536  41.453  33.540  10.625
20866W        W92537  30.555  34.368   1.935
20867W        W92538  19.217  20.677   4.592
20868W        W92539  11.798   3.881  12.300
20869W        W92540  23.695   2.868  13.453
20870W        W92541  15.835  31.946  12.857
20871W        W92542  40.423  43.979   3.162
20872W        W92543  33.390   4.882  12.985
20873W        W92544  31.179  21.621   1.275
20874W        W92545  41.856  18.036   0.022
20875W        W92546  27.211   9.790   1.327
20876W        W92547  24.793  10.157   0.431
20877W        W92548  11.377  23.958  11.018
20878W        W92549  43.312  12.538   0.776
20879W        W92550  15.771  32.813   2.838
20880W        W92551  37.760  25.218   0.556
20881W        W92552  26.717  17.672  11.945
20882W        W92553  27.733  30.651  12.535
20883W        W92554  11.578  32.616  14.901
20884W        W92555  26.074  30.594   1.416
20885W        W92556   3.309   0.954  13.125
20886W        W92557  22.250  37.964   4.477
20887W        W92558  35.989   4.631   0.797
20888W        W92559  37.329  26.718  12.372
20889W        W92560   0.567  24.368   2.628
20890W        W92561  31.966  28.088  10.697
20891W        W92562  16.100  21.673   4.906
20892W        W92563  20.592  29.122   4.064
20893W        W92564  37.896  18.281   4.695
20894W        W92565  30.551  38.753  13.346
20895W        W92566  39.402  37.453  14.329
20896W        W92567  18.787  25.683  12.458
20897W        W92568  22.110  34.334   0.256
20898W        W92569   2.942  14.532  11.003
20899W        W92570  24.368  38.451  13.532
20900W        W92571   5.640   5.336  14.323
20901W        W92572  24.354  12.523   3.634
20902W        W92573  10.248  20.516  10.754
20903W        W92574  39.523   5.730   3.073
20904W        W92575  44.446  41.445   4.037
20905W        W92576   0.523   5.859  13.881
20906W        W92577   8.904   4.079   3.566
20907W        W92578   1.362  14.152   3.377
20908W        W92579  34.850   4.329   3.805
20909W        W92580   9.449  29.148   1.308
20910W        W92581  17.721  25.417   1.281
20911W        W92582  31.643  40.473  14.351
20912W        W92583   1.793  11.650   0.293
20913W        W92584  16.117  34.461   2.312
20914W        W92585   9.380   3.975   3.270
20915W        W92586  26.606  16.668   4.596
20916W        W92587   5.920   7.788  10.979
20917W        W92588  38.049  24.999   0.934
20918W        W92589  41.856  13.604   2.029
20919W        W92590  16.692  24.485   3.686
20920W        W92591   2.404  28.963   0.230
20921W        W92592  33.566   6.154  13.951
20922W        W92593  40.265   0.411  11.093
20923W        W92594  18.780  29.167  13.037
20924W        W92595   3.135  12.756   1.321
20925W        W92596  40.284   4.410  12.613
20926W        W92597  28.138   5.241  11.222
20927W        W92598  17.804  26.695  12.382
20928W        W92599  33.189  31.575  10.468
20929W        W92600  38.770  39.770  12.496
20930W        W92601   0.834   3.452   2.167
20931W        W92602  28.727  20.664  14.862
20932W        W92603   7.718  36.327  12.139
20933W        W92604   8.115  43.869   0.310
20934W        W92605  33.455  12.568  11.738
20935W        W92606  22.184  44.487  11.599
20936W        W92607  11.790   5.394   0.309
20937W        W92608  13.803  15.576  10.192
20938W        W92609   8.758  38.537   2.514
20939W        W92610   3.945   3.672  11.103
20940W        W92611  23.238  41.669  12.538
20941W        W92612  32.806  24.623   1.762
20942W        W92613  33.126  19.654  12.555
20943W        W92614  14.734  28.107   2.706
20944W        W92615  44.636  25.174   4.516
20945W        W92616   1.243   5.830  11.900
20946W        W92617  26.938  44.296   3.612
20947W        W92618   9.148  41.754  11.202
20948W        W92619  10.798   6.342   3.791
20949W        W92620  30.592   5.988   0.841
20950W        W92621  31.149  14.428  10.296
20951W        W92622  43.087  14.298   1.932
20952W        W92623   0.826  28.840   1.377
20953W        W92624  20.752  30.423   2.348
20954W        W92625  19.215  35.754   1.963
20955W        W92626  28.787  25.208  11.124
20956W        W92627  40.333  27.091   5.008
20957W        W92628  19.214  31.802  13.864
20958W        W92629  11.967  11.126   3.531
20959W        W92630  36.567  15.096   0.214
20960W        W92631   3.981  32.973  10.606
20961W        W92632  44.003  28.780  14.811
20962W        W92633  38.822  13.447  13.624
20963W        W92634   1.536  20.259  12.073
20964W        W92635  43.932  35.520   1.498
20965W        W92636  25.935  21.500   1.741
20966W        W92637  42.711  38.127   2.616
20967W        W92638   2.532  27.016   4.087
20968W        W92639  16.755  15.998  13.867
20969W        W92640  27.195  31.872   3.422
20970W        W92641  25.430  21.533  14.478
20971W        W92642  31.280  34.532  13.899
20972W        W92643  19.480  27.578  12.702
20973W        W92644  20.342  10.718   1.943
20974W        W92645  14.365  22.556  11.506
20975W        W92646  35.904  17.124   4.685
20976W        W92647  17.172  13.697   2.714
20977W        W92648  25.593   1.501  12.193
20978W        W92649  16.191   4.173   2.724
20979W        W92650  18.233  38.149  13.404
20980W        W92651  17.180  27.238  10.687
20981W        W92652   3.880   5.489  14.107
20982W        W92653   8.238  24.749   4.539
20983W        W92654  25.001  27.212   0.809
20984W        W92655  31.108   0.243   3.264
20985W        W92656  42.205  19.054   0.025
20986W        W92657   0.647   9.828  13.659
20987W        W92658  43.875  35.093  12.283
20988W        W92659  25.536  19.982  10.883
20989W        W92660   5.747  30.449   3.198
20990W        W92661  17.596  26.666  13.387
20991W        W92662  10.695  16.598   4.101
20992W        W92663  31.415  19.205   3.791
20993W        W92664  35.101  33.227  12.100
20994W        W92665  20.342  17.171   3.348
20995W        W92666  34.988  26.145  11.525
20996W        W92667  41.752  35.484  11.084
20997W        W92668   6.954  15.915   0.294
20998W        W92669   0.311  15.698   3.652
20999W        W92670  21.921  34.435  13.385
21000W        W92671  36.569  11.618  11.368
21001W        W92672  25.621  33.670   4.127
21002W        W92673  41.641   7.730   2.235
21003W        W92674  23.174  34.533  13.472
21004W        W92675  23.136  40.144  13.488
21005W        W92676  12.094   0.391  12.123
21006W        W92677  18.781  40.970  13.967
21007W        W92678   5.703  22.050  12.056
21008W        W92679  13.697  31.498   2.793
21009W        W92680   9.841  20.017   1.814
21010W        W92681  34.313  15.831   1.818
21011W        W92682  40.013  32.574   4.236
21012W        W92683   5.743  12.298   4.741
21013W        W92684  14.889  42.900  14.076
21014W        W92685  18.564   0.695   5.054
21015W        W92686   3.427  36.085   3.772
21016W        W92687  43.844  26.651  10.278
21017W        W92688   1.659   8.403  11.203
21018W        W92689  37.511   2.416   3.174
21019W        W92690  19.045   4.077  13.243
21020W        W92691  31.628  20.645   3.342
21021W        W92692  11.781  17.717  12.984
21022W        W92693  41.223  19.387   1.742
21023W        W92694  12.716  34.440  10.913
21024W        W92695  15.119   6.350  12.052
21025W        W92696  36.462   0.865  12.685
21026W        W92697  24.089   9.699  14.998
21027W        W92698  14.786  18.491  14.020
21028W        W92699  15.281  30.680  13.619
21029W        W92700  26.450  33.688  10.949
21030W        W92701  43.006   2.479  13.031
21031W        W92702  43.052  34.375   4.151
21032W        W92703  19.799   3.917   1.761
21033W        W92704  39.798  28.147   2.484
21034W        W92705  38.718  19.577  13.836
21035W        W92706  18.654   9.116   3.624
21036W        W92707   9.808  21.163   3.678
21037W        W92708  33.523  35.495  10.102
21038W        W92709  29.607  13.699   4.648
21039W        W92710   6.764  22.553  14.884
21040W        W92711  41.806  23.237  12.041
21041W        W92712   0.950  21.388   3.213
21042W        W92713  23.027   6.692  13.928
21043W        W92714  37.779   1.886  11.624
21044W        W92715   5.253  40.115  12.065
21045W        W92716  26.555  16.905   0.087
21046W        W92717  37.112   3.811  14.925
21047W        W92718  12.776  18.118   1.156
21048W        W92719  44.877  25.433  10.521
21049W        W92720  17.124   3.626  10.638
21050W        W92721   0.946  19.815  12.566
21051W        W92722  43.942  26.226   0.772
21052W        W92723  25.261  36.759   1.228
21053W        W92724  16.661  30.984   2.792
21054W        W92725  41.854  40.798  11.498
21055W        W92726   7.418  29.554   1.470
21056W        W92727   0.084   4.885  13.033
21057W        W92728  15.545  19.261   2.748
21058W        W92729  26.298  11.175  11.518
21059W        W92730  13.174  43.815   2.379
21060W        W92731  34.592  35.825   4.287
21061W        W92732   1.305  29.421   0.887
21062W        W92733   5.695  25.544  10.831
21063W        W92734   9.783  15.227  10.869
21064W        W92735  38.522   7.601   2.243
21065W        W92736   4.559   4.647  10.388
21066W        W92737  38.416  39.337   4.943
21067W        W92738  35.391  28.979   1.840
21068W        W92739  11.653  19.012  10.434
21069W        W92740  14.590  17.539  11.562
21070W        W92741  26.336  25.243   5.052
21071W        W92742   3.635  14.961  13.025
21072W        W92743   8.615  38.112   2.234
21073W        W92744   9.234  23.005  13.614
21074W        W92745   4.102   0.992  13.675
21075W        W92746  22.530  19.243  11.002
21076W        W92747  31.036  43.524  13.154
21077W        W92748  19.578  28.045  10.974
21078W        W92749  21.711  35.962   2.898
21079W        W92750   1.837   2.194  12.709
21080W        W92751  19.225  26.615  10.147
21081W        W92752  11.036  34.804  13.593
21082W        W92753  11.946  42.514  10.827
21083W        W92754  19.773  19.296   0.244
21084W        W92755  29.951  40.418   0.014
21085W        W92756   7.093   8.390  11.179
21086W        W92757  42.396  42.427  11.730
21087W        W92758  30.200  10.407  11.557
21088W        W92759  26.577  26.849  12.846
21089W        W92760  33.390  20.554  10.668
21090W        W92761  20.108   6.865   4.533
21091W        W92762   5.758   6.334   4.216
21092W        W92763   0.039  38.036  12.441
21093W        W92764  20.418   4.177   4.209
21094W        W92765  24.096  12.882  11.715
21095W        W92766  28.181  22.296   3.223
21096W        W92767  20.523  23.056  13.978
21097W        W92768   2.300   1.909  12.384
21098W        W92769  18.292  40.115   2.411
21099W        W92770  19.110   5.321  11.173
21100W        W92771   2.982  44.988   2.241
21101W        W92772  16.562  39.381   1.032
21102W        W92773  14.306  32.846  10.804
21103W        W92774  13.105  34.996   3.804
21104W        W92775  41.624  29.079  12.451
21105W        W92776   8.796   5.431   0.931
21106W        W92777  42.773  18.283  10.700
21107W        W92778  33.821  38.422  14.933
21108W        W92779  28.076   8.752   1.386
21109W        W92780   7.270  44.430   1.312
21110W        W92781  43.540  25.969   1.863
21111W        W92782  28.838  30.592  14.873
21112W        W92783  21.453   2.123  11.453
21113W        W92784  30.585  25.098   4.433
21114W        W92785  24.135  18.545  10.466
21115W        W92786  30.774  32.575  12.725
21116W        W92787  15.316  43.328  10.427
21117W        W92788  31.411  33.622   1.305
21118W        W92789  17.860   9.369  12.467
21119W        W92790  22.088   3.387   0.323
21120W        W92791  41.351  21.011   2.183
21121W        W92792  27.917  37.792  11.541
21122W        W92793   5.709   0.449  10.975
21123W        W92794  23.639  36.320   1.224
21124W        W92795  13.758  21.742  13.298
21125W        W92796   3.767   1.941  12.528
21126W        W92797  12.004  39.125  11.547
21127W        W92798  14.550  22.449  12.407
21128W        W92799  39.910   3.076   3.634
21129W        W92800  25.565  28.543   0.936
21130W        W92801   4.406   2.521   4.678
21131W        W92802  34.455   7.903  14.507
21132W        W92803  24.187  22.390   4.636
21133W        W92804  30.687  44.288  14.854
21134W        W92805  10.581   5.648  13.683
21135W        W92806  12.459  41.259   3.272
21136W        W92807  38.649   2.036   1.614
21137W        W92808   4.769   4.402  10.799
21138W        W92809  44.359   8.300  13.445
21139W        W92810  19.008  25.117   0.712
21140W        W92811  34.060  39.283   1.924
21141W        W92812   1.129  28.675   4.753
21142W        W92813   8.839   2.982  11.536
21143W        W92814   2.344  21.282  13.207
21144W        W92815  19.226   8.041  13.891
21145W        W92816  32.509  32.693  14.091
21146W        W92817  30.077  38.319  11.159
21147W        W92818  17.493  35.302   0.397
21148W        W92819   5.638  27.908   1.241
21149W        W92820  41.010   5.126  10.751
21150W        W92821   8.661   2.366  13.889
21151W        W92822  35.579  28.150  10.376
21152W        W92823  11.124  25.069   3.700
21153W        W92824   4.676  43.850   3.287
21154W        W92825   7.199  32.503  14.747
21155W        W92826  11.088   8.002   0.510
21156W        W92827  26.137  25.892   2.113
21157W        W92828   4.915  29.206  10.158
21158W        W92829   8.334  14.728  13.600
21159W        W92830  36.185  44.651   2.959
21160W        W92831  43.908  28.444  13.344
21161W        W92832  14.312  44.293  13.133
21162W        W92833  38.370   9.746   2.609
21163W        W92834   7.917  35.015  10.241
21164W        W92835  32.524  29.631  11.742
21165W        W92836  18.611   3.759   3.101
21166W        W92837  26.021  29.946   3.189
21167W        W92838   2.431  17.637   0.911
21168W        W92839  12.085  35.153  14.804
21169W        W92840  28.203   1.980   1.347
21170W        W92841  37.938  12.170   3.808
21171W        W92842  36.422  17.064   4.598
21172W        W92843   4.155  44.407   3.599
21173W        W92844  38.433  28.415  12.125
21174W        W92845  30.071  33.413   2.636
21175W        W92846  22.918   8.963  12.915
21176W        W92847  38.901   7.048   4.427
21177W        W92848  19.313  22.218  11.157
21178W        W92849  16.063  43.230   2.607
21179W        W92850  17.115  14.316  14.911
21180W        W92851   6.618  22.943  12.696
21181W        W92852  30.914   1.368   1.614
21182W        W92853  21.564  37.903   2.280
21183W        W92854  37.804   9.755  12.370
21184W        W92855  18.309  10.627   3.123
21185W        W92856   2.796   9.234  10.929
21186W        W92857  20.718  34.058   4.084
21187W        W92858   1.983   9.608   0.716
21188W        W92859  11.129  39.093  14.826
21189W        W92860  31.649   9.020  14.731
21190W        W92861  20.573  11.363   3.691
21191W        W92862  36.892  21.924  13.992
21192W        W92863  11.890  24.121   1.297
21193W        W92864  38.993  32.166  10.955
21194W        W92865  43.048  16.965   1.184
21195W        W92866  30.499  30.697   4.138
21196W        W92867  43.433  14.873   0.797
21197W        W92868  10.431  36.481   2.163
21198W        W92869  27.506   1.759  12.777
21199W        W92870  30.175  31.124   0.540
21200W        W92871  23.140  28.428  11.949
21201W        W92872  18.297  16.009   1.761
21202W        W92873  16.843   7.582  13.165
21203W        W92874  40.893   4.821  13.455
21204W        W92875  12.412  40.981  13.085
21205W        W92876   2.913  36.495   0.312
21206W        W92877  36.570  11.065   1.259
21207W        W92878   2.853  22.996   1.990
21208W        W92879  15.849   6.914   9.793
21209W        W92880  28.958  32.166   4.182
21210W        W92881  27.256   5.062  10.230
21211W        W92882  17.510  27.327   4.519
21212W        W92883  34.654  18.076   3.673
21213W        W92884  14.059  28.630  14.371
21214W        W92885   3.194  21.261  10.706
21215W        W92886   6.852  44.212   4.977
21216W        W92887  15.690   3.676   0.003
21217W        W92888  44.915   8.375   4.717
21218W        W92889  26.120   4.866   1.643
21219W        W92890  35.121  29.011   3.323
21220W        W92891   9.719  32.052   0.470
21221W        W92892  39.385  28.952  12.776
21222W        W92893  31.025  21.761  14.440
21223W        W92894  40.275  28.081   1.727
21224W        W92895  44.085   7.852   1.615
21225W        W92896  41.513  28.059   3.457
21226W        W92897  37.517  30.975  12.858
21227W        W92898  27.578  21.920  13.862
21228W        W92899  38.781  30.581  13.228
21229W        W92900   1.197  28.420   3.623
21230W        W92901  35.491  39.530   4.992
21231W        W92902  28.598  34.065   3.322
21232W        W92903  43.978  34.197  11.676
21233W        W92904  32.597  11.403  13.841
21234W        W92905  29.740  18.490  11.881
21235W        W92906  12.890  27.028   2.869
21236W        W92907  10.825  43.385   4.851
21237W        W92908  26.671  11.007  14.941
21238W        W92909  42.951  43.013  13.280
21239W        W92910  36.103  35.512  11.607
21240W        W92911  19.285  18.719  14.042
21241W        W92912  40.043  16.582   2.550
21242W        W92913  43.682  19.098  14.852
21243W        W92914   0.442  34.864  10.756
21244W        W92915  11.654  27.978   4.616
21245W        W92916  32.200  39.721   1.803
21246W        W92917  17.273   2.082   0.392
21247W        W92918  32.579  20.830   3.777
21248W        W92919  21.148  44.333  12.174
21249W        W92920   6.448  44.802   1.971
21250W        W92921  25.421  26.594  12.967
21251W        W92922  43.870  24.686   0.384
21252W        W92923  16.867   5.756  12.925
21253W        W92924   2.166   2.478   2.438
21254W        W92925   5.819   4.402  10.771
21255W        W92926  14.153  43.868  11.398
21256W        W92927  22.060  27.044  12.241
21257W        W92928  17.524   3.186   1.056
21258W        W92929  35.461  41.258  11.119
21259W        W92930  35.173  27.950  14.384
21260W        W92931  11.972  19.777   3.369
21261W        W92932  15.804   5.321  11.549
21262W        W92933  15.147  29.698   3.420
21263W        W92934  11.062  17.809   2.301
21264W        W92935   3.509  42.414   1.774
21265W        W92936   1.786  42.921  10.895
21266W        W92937  22.595  19.320  11.499
21267W        W92938  32.366   3.196  12.659
21268W        W92939  28.152  10.705  10.743
21269W        W92940  27.863  41.282   3.893
21270W        W92941  41.040  17.608   4.461
21271W        W92942  34.929  21.184  10.668
21272W        W92943  42.823  43.391  11.105
21273W        W92944  43.263  23.693  14.806
21274W        W92945  31.191  34.620  14.851
21275W        W92946  22.734  16.097  11.975
21276W        W92947  39.834  44.353  12.568
21277W        W92948   2.842  28.097  13.255
21278W        W92949   5.467  36.879  11.620
21279W        W92950  10.333  17.092  12.039
21280W        W92951  37.986   3.814  14.456
21281W        W92952   1.725  41.377  13.503
21282W        W92953  19.173  23.286  12.509
21283W        W92954  33.574  12.704  14.724
21284W        W92955  22.151   8.704  14.971
21285W        W92956  30.522  18.584  14.321
21286W        W92957  31.548  30.082   2.464
21287W        W92958  11.112   5.314   2.331
21288W        W92959  22.009  10.664  12.058
21289W        W92960   6.901  10.830  10.817
21290W        W92961   7.343  17.889   3.725
21291W        W92962  13.684  21.592  10.481
21292W        W92963  24.158  33.056  12.102
21293W        W92964  27.688  27.530   2.845
21294W        W92965  37.050   3.261   3.208
21295W        W92966  16.873  17.273  10.750
21296W        W92967  37.230  38.377   5.036
21297W        W92968  43.615  39.416   3.270
21298W        W92969  23.141  29.025  14.283
21299W        W92970  20.814  17.767  11.640
21300W        W92971   1.544   7.683  10.546
21301W        W92972  20.640  32.069   1.485
21302W        W92973   6.766  27.393   3.385
21303W        W92974  18.503  44.480  12.488
21304W        W92975   3.523  24.586   3.919
21305W        W92976   9.750  40.706   4.967
21306W        W92977  22.467  39.947   4.727
21307W        W92978  11.294   8.253   4.385
21308W        W92979  28.380  37.241   0.468
21309W        W92980  36.600  43.124  11.133
21310W        W92981  29.132  31.081   3.364
21311W        W92982  35.117  38.696   0.548
21312W        W92983  22.696  18.314   4.554
21313W        W92984  14.662  29.567  11.222
21314W        W92985   9.803  34.071   3.813
21315W        W92986   2.955  42.304   3.777
21316W        W92987  18.714  26.524   4.134
21317W        W92988  39.090   3.728  12.504
21318W        W92989   4.776   6.789   1.759
21319W        W92990  26.088  23.485  10.693
21320W        W92991   8.400  44.496   4.130
21321W        W92992  40.867   4.785   3.830
21322W        W92993  36.355   3.537  13.408
21323W        W92994  14.308   7.711  10.497
21324W        W92995  27.688  15.671   3.657
21325W        W92996  26.134  42.444  12.529
21326W        W92997  27.663   1.902  14.818
21327W        W92998   4.261  34.263  14.623
21328W        W92999  35.641  36.987  11.450
21329W        W93000  18.321  22.879   1.096
21330W        W93001  19.998  36.968  14.936
21331W        W93002   5.882  24.159   0.434
21332W        W93003   2.402  30.767  12.969
21333W        W93004   6.841  16.458   0.662
21334W        W93005  27.988   4.371  14.056
21335W        W93006  21.054  32.635   4.172
21336W        W93007  38.947  33.400  14.282
21337W        W93008  34.928   4.150   2.342
21338W        W93009  44.210  37.140  10.985
21339W        W93010  24.192  41.236   1.412
21340W        W93011  34.027  25.075   1.525
21341W        W93012  16.141  38.477   1.153
21342W        W93013  41.431  16.349   4.862
21343W        W93014  31.550  23.232  11.240
21344W        W93015  20.759  40.022  11.053
21345W        W93016  25.452  35.668  11.545
21346W        W93017   4.361   5.992   0.808
21347W        W93018   5.694  42.745   1.278
21348W        W93019  43.482  28.184  13.198
21349W        W93020  34.815  41.831  11.260
21350W        W93021   0.546   1.791  10.868
21351W        W93022  13.458  24.000   4.268
21352W        W93023  40.916  26.982  10.781
21353W        W93024  12.784  12.814  14.272
21354W        W93025  34.541  26.422   3.840
21355W        W93026   1.974   1.711  12.010
21356W        W93027  24.760  44.347   2.410
21357W        W93028  17.712  28.632  14.514
21358W        W93029  38.807  39.971   1.868
21359W        W93030  16.273  16.633  14.586
21360W        W93031  10.793  42.321  13.481
21361W        W93032   8.883  27.461   3.142
21362W        W93033  44.703  39.224   4.234
21363W        W93034  20.824  18.588   0.701
21364W        W93035  27.086  42.681   4.922
21365W        W93036  31.570   8.774   3.741
21366W        W93037  12.683  37.360  13.913
21367W        W93038  27.725  42.931  12.482
21368W        W93039  16.976   8.789   0.623
21369W        W93040  24.115  26.483  12.463
21370W        W93041  11.581  42.727   2.651
21371W        W93042  26.203   2.455  14.338
21372W        W93043  28.542  11.270   2.582
21373W        W93044   7.811  19.283   1.213
21374W        W93045  31.148  28.841   2.154
21375W        W93046  17.451  10.733   2.116
21376W        W93047  27.931  43.322  11.580
21377W        W93048   6.448  37.391  10.129
21378W        W93049  33.948  26.998  13.905
21379W        W93050   9.776  19.208   3.299
21380W        W93051   5.457  16.563  10.890
21381W        W93052  42.792  12.955   1.731
21382W        W93053   6.219   9.886   1.508
21383W        W93054  17.326   4.191   3.252
21384W        W93055   2.765   6.926   4.078
21385W        W93056  15.730  31.880   4.641
21386W        W93057   9.227  25.963  12.521
21387W        W93058  28.173  15.237  14.827
21388W        W93059   0.428   3.942  13.399
21389W        W93060  34.549  27.361  11.098
21390W        W93061  37.530  35.155  14.037
21391W        W93062  42.541   6.764   4.557
21392W        W93063  29.900  20.604  11.929
21393W        W93064  42.179  20.162  10.535
21394W        W93065  15.003  24.661   4.980
21395W        W93066  36.301  15.691   2.412
21396W        W93067  39.971   8.103   2.722
21397W        W93068   4.860  27.032  12.523
21398W        W93069   7.388  37.508   3.297
21399W        W93070   7.045  42.532  14.939
21400W        W93071  13.082   1.842   0.228
21401W        W93072   5.376  34.586   0.468
21402W        W93073   1.325  14.948  10.775
21403W        W93074  19.015   6.199   4.141
21404W        W93075   0.191  34.147   2.249
21405W        W93076   2.228  38.652  13.976
21406W        W93077   6.749  36.358   3.658
21407W        W93078  40.641  30.443   0.000
21408W        W93079  33.281  14.295   0.888
21409W        W93080  23.723  24.270   4.610
21410W        W93081  39.738   7.727   0.865
21411W        W93082  20.113   1.831   4.564
21412W        W93083  13.750  39.759  12.390
21413W        W93084  18.992  29.164  11.627
21414W        W93085  33.154  20.945  11.719
21415W        W93086  36.836  43.553  13.530
21416W        W93087  34.495  24.732   2.070
21417W        W93088  27.029  34.602   0.368
21418W        W93089  14.388   4.468   3.334
21419W        W93090  40.965  23.488   1.762
21420W        W93091  34.498  35.384  10.437
21421W        W93092   9.452  18.544  11.678
21422W        W93093   5.147  41.058   0.604
21423W        W93094  19.123  33.840   4.554
21424W        W93095  19.349  25.056   0.355
21425W        W93096  40.416  20.454   2.903
21426W        W93097  13.210  43.669   1.394
21427W        W93098  27.678  14.917  12.421
21428W        W93099  37.913   6.146   2.956
21429W        W93100  27.933  17.625  14.391
21430W        W93101  15.227  25.609   0.002
21431W        W93102  14.227  37.341  10.864
21432W        W93103  17.745  24.743  12.924
21433W        W93104  32.459   9.213  14.885
21434W        W93105  10.901  19.260  14.919
21435W        W93106  13.330  42.226   3.353
21436W        W93107   7.633   3.877   4.517
21437W        W93108  14.846  41.762   0.482
21438W        W93109   1.285   6.855  14.324
21439W        W93110  39.037  41.424   2.241
21440W        W93111  22.382  44.067  14.863
21441W        W93112  42.231  11.695   0.676
21442W        W93113  26.527  29.644  12.009
21443W        W93114  36.398  31.405  14.252
21444W        W93115  29.979   3.270   1.863
21445W        W93116  37.506  42.971  10.541
21446W        W93117  24.560  37.784   3.158
21447W        W93118   2.559  23.200  13.537
21448W        W93119  38.857  21.073  12.167
21449W        W93120  40.358   1.649  13.395
21450W        W93121  14.187  32.860   2.813
21451W        W93122   6.632  39.331   2.601
21452W        W93123  36.465  18.694  13.028
21453W        W93124  17.374  19.104  12.482
21454W        W93125   2.807  40.784   0.965
21455W        W93126  10.525   2.610   3.345
21456W        W93127  29.236   8.284   1.402
21457W        W93128  36.466   3.916  13.030
21458W        W93129  41.594  26.590  13.426
21459W        W93130  40.753   3.884  11.731
21460W        W93131  26.953   0.382  13.483
21461W        W93132  35.894   0.388   3.577
21462W        W93133  17.562  38.408   1.946
21463W        W93134  42.934   7.292   1.438
21464W        W93135  19.837   2.681   1.374
21465W        W93136  16.026   8.958  14.793
21466W        W93137  19.755  32.430  14.511
21467W        W93138  17.526  30.827  14.227
21468W        W93139  13.884   4.270  11.085
21469W        W93140   3.840  29.694   0.888
21470W        W93141  28.696  42.408   3.101
21471W        W93142   0.308  20.350  10.715
21472W        W93143  35.117  39.860   0.742
21473W        W93144  28.632   8.210  12.609
21474W        W93145   6.121  44.047   2.453
21475W        W93146   1.314  17.314   0.362
21476W        W93147  22.744   3.475   1.572
21477W        W93148  37.968  19.322  11.369
21478W        W93149  21.162   5.441   0.002
21479W        W93150  29.112   3.505  10.977
21480W        W93151  37.462  29.604   2.207
21481W        W93152  30.879  21.086   2.444
21482W        W93153  11.522   6.125   4.105
21483W        W93154  38.419  13.267  12.512
21484W        W93155  36.467  29.602  12.500
21485W        W93156  31.886   2.314  14.584
21486W        W93157  38.113  43.568  14.560
21487W        W93158  16.390  31.376  13.888
21488W        W93159  11.495  14.146  11.641
21489W        W93160  19.694  27.473   3.732
21490W        W93161   4.184  39.957  10.608
21491W        W93162  26.438  11.170  14.130
21492W        W93163  43.357  37.495  11.475
21493W        W93164  38.375  19.549   3.713
21494W        W93165   4.476   9.799   3.683
21495W        W93166  11.788  24.640  10.993
21496W        W93167   8.195  20.220   4.638
21497W        W93168  26.858   9.881   4.588
21498W        W93169  41.831  24.292   1.225
21499W        W93170  24.199  29.520   2.187
21500W        W93171  30.927  40.752   3.354
21501W        W93172  16.265  41.452  13.038
21502W        W93173   6.247  25.516  13.014
21503W        W93174   7.487  41.453  13.333
21504W        W93175  33.128  42.953  11.035
21505W        W93176  22.615   2.276   3.349
21506W        W93177  35.400  41.257   0.677
21507W        W93178  38.770  37.084  10.166
21508W        W93179  44.968   0.854  12.913
21509W        W93180  36.606  40.072  13.507
21510W        W93181  12.808  37.908   4.907
21511W        W93182   4.175  26.636  12.487
21512W        W93183  23.009  40.116  12.516
21513W        W93184   4.324  40.641  14.485
21514W        W93185  38.363  32.550  13.899
21515W        W93186   6.383  22.205   0.762
21516W        W93187  23.056  13.219  10.704
21517W        W93188  29.739  13.229   0.962
21518W        W93189   7.756  24.115  13.730
21519W        W93190  16.274   2.384  14.903
21520W        W93191  38.144   3.345   4.929
21521W        W93192  32.914  36.364  13.936
21522W        W93193  24.727  17.118   1.951
21523W        W93194  12.793  34.453   3.582
21524W        W93195  26.715  22.595   4.542
21525W        W93196  17.495  36.131  10.167
21526W        W93197   3.163  42.079  11.982
21527W        W93198   7.776  40.613   3.849
21528W        W93199  31.701  44.899  13.007
21529W        W93200   4.995   4.872  12.942
21530W        W93201   0.822  36.547   1.223
21531W        W93202  24.480  41.742  12.870
21532W        W93203  14.725  18.321   2.137
21533W        W93204  34.399  14.212   1.380
21534W        W93205  29.622  24.652   2.581
21535W        W93206  16.051  26.106  13.106
21536W        W93207  20.602  13.961  10.244
21537W        W93208  37.939  26.167   0.121
21538W        W93209  25.119  43.749  10.677
21539W        W93210  28.653  35.556   3.705
21540W        W93211   2.284  22.710   0.874
21541W        W93212  38.794  36.538   1.157
21542W        W93213  22.612  14.208  10.689
21543W        W93214  44.519  35.031  11.599
21544W        W93215  43.884  26.185   2.656
21545W        W93216  43.903  41.409  11.862
21546W        W93217  31.743  17.333   0.530
21547W        W93218  37.364  22.827  13.854
21548W        W93219  25.250  24.519  11.088
21549W        W93220  31.594   8.405  10.492
21550W        W93221   6.327  19.153   2.285
21551W        W93222  44.527  43.547  10.247
21552W        W93223  26.445  41.995   3.309
21553W        W93224   6.961  25.678  12.060
21554W        W93225  37.514  35.502  11.049
21555W        W93226   3.697  16.745   2.208
21556W        W93227   7.774  43.834  14.680
21557W        W93228  35.958  34.325  11.557
21558W        W93229  27.905   9.139   4.619
21559W        W93230   2.649  11.676   3.238
21560W        W93231  23.229  10.952  12.819
21561W        W93232  30.273   2.984   0.217
21562W        W93233   8.117  14.285  11.938
21563W        W93234  36.607  23.443   3.236
21564W        W93235  16.403  39.638  11.867
21565W        W93236   8.969  10.364  14.773
21566W        W93237  37.923   5.603   2.982
21567W        W93238   6.041  42.242   0.908
21568W        W93239  21.785  40.521  10.306
21569W        W93240  29.255  14.367   1.632
21570W        W93241   7.405  25.714   3.648
21571W        W93242  44.761   9.132  14.683
21572W        W93243  38.615  24.034  13.338
21573W        W93244   7.018  21.102  12.655
21574W        W93245  42.804  34.818   4.154
21575W        W93246  24.355   8.119  11.227
21576W        W93247  37.014   7.183  13.044
21577W        W93248  38.574  37.545   3.428
21578W        W93249  21.182   5.504   4.063
21579W        W93250  44.408  34.052   2.651
21580W        W93251  10.277  25.933   0.344
21581W        W93252  21.065   6.992   3.745
21582W        W93253  34.736   9.280  11.242
21583W        W93254  15.528  33.958   3.819
21584W        W93255  17.748   5.301   0.607
21585W        W93256  10.242  39.262   0.320
21586W        W93257   1.799  12.605  12.960
21587W        W93258  29.652  19.523   2.340
21588W        W93259   4.680  26.524   0.775
21589W        W93260  31.575  32.172  13.142
21590W        W93261  44.743  37.500  14.835
21591W        W93262  36.487  17.633   4.562
21592W        W93263  21.817  13.362   0.877
21593W        W93264  21.684  13.580  12.101
21594W        W93265  27.226  16.108   1.589
21595W        W93266  23.998  23.905  11.725
21596W        W93267  11.124  40.942   0.718
21597W        W93268   8.197  18.734  12.610
21598W        W93269  10.646  35.078   2.784
21599W        W93270   3.794   2.384  10.770
21600W        W93271   5.921  28.482  11.878
21601W        W93272  25.709  20.021   4.162
21602W        W93273  22.158  23.453   1.876
21603W        W93274  41.304  36.942   2.144
21604W        W93275  38.309  38.999  13.053
21605W        W93276  42.501  36.612  12.122
21606W        W93277  24.196   6.259   3.571
21607W        W93278  41.210  38.431  12.172
21608W        W93279  30.914   7.234  14.516
21609W        W93280  21.698  20.119  11.742
21610W        W93281  37.982  11.378  10.492
21611W        W93282  35.000  13.788  14.948
21612W        W93283  32.479   0.425  11.286
21613W        W93284   0.030  33.585   0.009
21614W        W93285   9.175   9.894  13.104
21615W        W93286  39.354  29.705   3.647
21616W        W93287  18.518   9.976  13.900
21617W        W93288  28.111  20.161  13.353
21618W        W93289  31.626  14.020   3.322
21619W        W93290   0.024  12.740   1.674
21620W        W93291   6.240  36.811  11.297
21621W        W93292  27.903   4.379  11.108
21622W        W93293  10.276  29.012   3.550
21623W        W93294   8.168  21.479   1.996
21624W        W93295  19.778   8.416  12.406
21625W        W93296   5.751  39.407  11.133
21626W        W93297   1.259   0.236   0.966
21627W        W93298   4.338  15.847  13.818
21628W        W93299  14.063  31.456   4.141
21629W        W93300   0.334   4.075   0.649
21630W        W93301  38.633  16.975   3.618
21631W        W93302  40.079  30.861  11.443
21632W        W93303  17.881  25.011   2.487
21633W        W93304  21.053  30.015  14.235
21634W        W93305  27.465  36.490   2.226
21635W        W93306  39.941   9.251  11.486
21636W        W93307  24.560  41.123   3.838
21637W        W93308   6.918  42.765   4.375
21638W        W93309  41.341   8.229  13.939
21639W        W93310  35.934  15.541  14.040
21640W        W93311  12.837  34.344   4.414
21641W        W93312  28.173  28.141   0.847
21642W        W93313  29.930  41.614   4.710
21643W        W93314   3.765  30.529   2.814
21644W        W93315  16.344  29.859  11.351
21645W        W93316  16.963   3.470  13.290
21646W        W93317  17.349  13.840   2.228
21647W        W93318   0.961  28.361   3.156
21648W        W93319  13.999  34.731   1.213
21649W        W93320  19.794  23.138   3.101
21650W        W93321  19.813  26.765   0.137
21651W        W93322   6.808  29.023  10.898
21652W        W93323  26.023  13.136   3.148
21653W        W93324  33.144  21.264   1.872
21654W        W93325   8.614  43.806  13.022
21655W        W93326  27.595   5.675   3.139
21656W        W93327  44.831   3.479   4.149
21657W        W93328  14.302  42.366  13.028
21658W        W93329   5.479  12.095  11.118
21659W        W93330  14.299  18.478  14.944
21660W        W93331  30.775  20.300   2.581
21661W        W93332  23.654   4.912   1.217
21662W        W93333   9.113   4.412  14.632
21663W        W93334  13.782  41.635   1.945
21664W        W93335  35.669  21.299  11.122
21665W        W93336  38.002   2.024  11.183
21666W        W93337  37.498  17.674  10.850
21667W        W93338  30.014  15.523   2.356
21668W        W93339  43.419  40.508  12.395
21669W        W93340  25.114  19.044  11.574
21670W        W93341  21.179   6.146   5.331
21671W        W93342  37.514  44.687   4.916
21672W        W93343  18.091  36.912  12.154
21673W        W93344  43.523  32.687   4.005
21674W        W93345  22.801   1.170  12.645
21675W        W93346  42.848  38.808   4.147
21676W        W93347  21.682  12.556  11.898
21677W        W93348  21.339  33.614   4.377
21678W        W93349  37.481  41.736   5.082
21679W        W93350  15.633  20.181  11.231
21680W        W93351  14.241   9.730  13.755
21681W        W93352   4.365  34.395  13.257
21682W        W93353  19.041   3.437  12.440
21683W        W93354  19.071   6.667   3.832
21684W        W93355  10.410  30.512  14.798
21685W        W93356  30.040  28.198   4.853
21686W        W93357  44.511  13.801  10.627
21687W        W93358  14.406  41.960  13.960
21688W        W93359  28.473  25.463  13.849
21689W        W93360  41.492  26.445  12.530
21690W        W93361  35.129  26.266  11.998
21691W        W93362  35.645  12.533  13.454
21692W        W93363  42.890  35.100   3.741
21693W        W93364  27.552  30.213   4.301
21694W        W93365  27.775  17.816  13.491
21695W        W93366  35.095   7.192  12.848
21696W        W93367  35.016  30.674  10.571
21697W        W93368  25.923  31.590  12.533
21698W        W93369  23.636  30.672   4.128
21699W        W93370  13.313  34.104  12.858
21700W        W93371  33.145  18.796  12.049
21701W        W93372  30.369  20.096   0.953
21702W        W93373  28.644  34.775  11.110
21703W        W93374  39.884  14.066   2.644
21704W        W93375  21.034   6.282   1.725
21705W        W93376  12.076  32.036  13.585
21706W        W93377  39.805  18.066   1.681
21707W        W93378  34.953  28.489   4.925
21708W        W93379   1.522  10.460   3.162
21709W        W93380  43.789  15.356  10.953
21710W        W93381   7.704   5.760  12.560
21711W        W93382  16.580  13.854  14.300
21712W        W93383   0.175  42.947   2.439
21713W        W93384  22.709   4.909  14.672
21714W        W93385  30.530  21.545  14.475
21715W        W93386  17.926  23.181   0.990
21716W        W93387  15.027  29.514   4.220
21717W        W93388  27.813  29.162  11.523
21718W        W93389  32.942  10.991  14.728
21719W        W93390  16.687  14.286   2.157
21720W        W93391  38.565  14.593  14.750
21721W        W93392  24.432  37.476  13.207
21722W        W93393  31.090  37.962   3.321
21723W        W93394  44.682  22.454  10.170
21724W        W93395   5.681  18.672   1.424
21725W        W93396  42.282   4.628   4.049
21726W        W93397   6.366  41.763  14.769
21727W        W93398  29.259  24.638   4.351
21728W        W93399  34.083  11.419   4.239
21729W        W93400  11.276  21.640  14.890
21730W        W93401  10.333   9.252   4.545
21731W        W93402   1.341  15.869  11.869
21732W        W93403  26.177  10.292   1.467
21733W        W93404  31.372  23.688   0.553
21734W        W93405   5.897  18.563   0.958
21735W        W93406  23.966  42.530   2.269
21736W        W93407  40.958   2.229  13.873
21737W        W93408  42.796  34.547   2.290
21738W        W93409  41.543   0.067  12.423
21739W        W93410  10.071   9.677  11.220
21740W        W93411  26.626  15.753  11.488
21741W        W93412   3.446  12.858  14.459
21742W        W93413  24.125   1.010  12.651
21743W        W93414  40.503  18.666   2.834
21744W        W93415  13.162  25.385   0.088
21745W        W93416  10.745  18.171   3.388
21746W        W93417  19.546   2.797  12.063
21747W        W93418  21.059  17.073   1.658
21748W        W93419   7.689   0.216  11.013
21749W        W93420  21.608  15.008   1.833
21750W        W93421  38.104  22.651  11.927
21751W        W93422  40.597  41.033   2.756
21752W        W93423  14.326  21.322  10.971
21753W        W93424  22.020   0.195   2.893
21754W        W93425   1.761  25.227  13.540
21755W        W93426  16.111   7.574  10.538
21756W        W93427   7.764   5.702   4.106
21757W        W93428   4.798  23.984   2.201
21758W        W93429   7.110  37.021   4.155
21759W        W93430  40.583   3.189  12.483
21760W        W93431   1.383  38.390   4.155
21761W        W93432  42.313  41.965   3.155
21762W        W93433  41.006  26.009   1.443
21763W        W93434  16.615  12.315  13.462
21764W        W93435  42.877  38.295   4.149
21765W        W93436  12.791  41.803   0.309
21766W        W93437  27.214  37.784  14.963
21767W        W93438  28.218  28.179   2.209
21768W        W93439  26.635  20.214   5.084
21769W        W93440   5.388  35.129  14.041
21770W        W93441   7.384  12.197   2.382
21771W        W93442  25.946   9.370  14.966
21772W        W93443  20.063  15.217  13.799
21773W        W93444   1.933  29.004   0.700
21774W        W93445  32.679  18.214   3.769
21775W        W93446  26.008  32.074  10.808
21776W        W93447   8.181  33.606   5.019
21777W        W93448   9.106   3.720   0.345
21778W        W93449  24.717  37.504   1.320
21779W        W93450  19.469  11.953  10.501
21780W        W93451  30.289   4.377   3.340
21781W        W93452  16.846  18.674   0.391
21782W        W93453  12.375  18.885   3.186
21783W        W93454   1.064   7.120  10.661
21784W        W93455  41.079  28.987  14.143
21785W        W93456  12.039  22.410  14.566
21786W        W93457  42.996   3.248  10.476
21787W        W93458  17.709   6.980  13.953
21788W        W93459  32.977  14.350   0.472
21789W        W93460  42.065   9.567   2.830
21790W        W93461   6.221  29.416   1.229
21791W        W93462   8.736  19.044   4.799
21792W        W93463   5.370   0.017   3.369
21793W        W93464  13.919   1.372  14.303
21794W        W93465  17.244   1.695   9.882
21795W        W93466  21.664  39.237   4.464
21796W        W93467   1.338  15.437   2.015
21797W        W93468  43.243   4.121  13.491
21798W        W93469  14.992  42.893  10.684
21799W        W93470  23.690   6.214   1.776
21800W        W93471  15.441  36.413   4.094
21801W        W93472  43.938  37.960   1.302
21802W        W93473   8.474  13.366  14.824
21803W        W93474  29.700   6.259   4.159
21804W        W93475  44.313   2.786  11.602
21805W        W93476  31.486   8.866   1.650
21806W        W93477  10.902   5.126  13.327
21807W        W93478  41.852  17.746  13.943
21808W        W93479  10.416   4.111  10.788
21809W        W93480  17.248   8.187   2.234
21810W        W93481  41.059   9.166   4.154
21811W        W93482  26.133  44.977  11.433
21812W        W93483  39.316  32.224  12.522
21813W        W93484  26.545  14.306   4.474
21814W        W93485  43.328   1.734  10.587
21815W        W93486   7.837  14.785   4.043
21816W        W93487  18.997   7.365   0.322
21817W        W93488  34.906  43.797   4.687
21818W        W93489  37.343  37.583  10.238
21819W        W93490  20.408  14.056   4.197
21820W        W93491   5.226  18.955  11.497
21821W        W93492   2.010  35.593   0.700
21822W        W93493  13.111  17.019   3.490
21823W        W93494  20.329  10.906  12.934
21824W        W93495  29.177  21.699   3.615
21825W        W93496  41.946   2.241  11.917
21826W        W93497  31.531  15.104   1.378
21827W        W93498  31.573  30.710  11.999
21828W        W93499  38.789  29.935   0.029
21829W        W93500   5.924  36.720  11.784
21830W        W93501   6.955  43.240   4.586
21831W        W93502  15.842  18.672   1.103
21832W        W93503  28.834  41.868   1.367
21833W        W93504  14.266  42.915   4.674
21834W        W93505  35.248  37.780   2.230
21835W        W93506   2.233  14.392   0.422
21836W        W93507  43.413   5.227   2.222
21837W        W93508  32.222   1.449   3.747
21838W        W93509  24.186  19.674  13.993
21839W        W93510  21.326  16.714   3.778
21840W        W93511  35.016   7.322  12.335
21841W        W93512  15.200  26.708   1.805
21842W        W93513   3.473   2.061   2.201
21843W        W93514  17.642   4.021  12.056
21844W        W93515   6.198  43.936   1.441
21845W        W93516  34.522  19.259   4.216
21846W        W93517  38.607  25.601   1.707
21847W        W93518  44.947  30.301  11.156
21848W        W93519  37.477   7.873  14.533
21849W        W93520  10.451  11.056   4.545
21850W        W93521   0.399  30.897   2.797
21851W        W93522   4.416  38.512  13.525
21852W        W93523   5.222  16.194  14.339
21853W        W93524   0.652  12.811  11.978
21854W        W93525   5.695   1.800   0.229
21855W        W93526   1.865   2.746   1.180
21856W        W93527  17.827  12.212   1.892
21857W        W93528  18.245   2.830  13.293
21858W        W93529  38.674   9.659   3.730
21859W        W93530  22.090  31.454  14.953
21860W        W93531  40.038  38.744   3.873
21861W        W93532  34.135  35.431  10.807
21862W        W93533  29.216  38.927  11.011
21863W        W93534  15.924  34.864   3.626
21864W        W93535  23.709  10.652   3.689
21865W        W93536  35.046   5.823  12.152
21866W        W93537  20.504   6.133   4.068
21867W        W93538  20.767  35.835  14.547
21868W        W93539  11.715  19.366   5.094
21869W        W93540   0.575  20.317   1.962
21870W        W93541  24.768  20.677  12.489
21871W        W93542  44.755  30.007  10.571
21872W        W93543  21.918  18.193  13.376
21873W        W93544  25.693  43.054  11.637
21874W        W93545  36.287  15.101   4.315
21875W        W93546  22.833   4.838  10.272
21876W        W93547   3.657  32.062  14.014
21877W        W93548  11.303  18.847  12.473
21878W        W93549   9.349  44.433   0.439
21879W        W93550  31.371  18.021   1.572
21880W        W93551  44.044  15.351  14.503
21881W        W93552  39.975  13.258   4.113
21882W        W93553  19.507   0.581   4.617
21883W        W93554  43.808   0.509   3.542
21884W        W93555  30.505  31.640   1.229
21885W        W93556  25.652  27.435  12.464
21886W        W93557  32.138  28.362  11.131
21887W        W93558  44.774  25.086  12.175
21888W        W93559  44.720   1.421   2.640
21889W        W93560  24.273  39.516  12.506
21890W        W93561  34.320  34.950  10.718
21891W        W93562  16.850   7.256   1.238
21892W        W93563  13.660  23.724  14.880
21893W        W93564  19.122   8.651   2.328
21894W        W93565  30.869  25.548   1.357
21895W        W93566  16.557  27.589   4.819
21896W        W93567  28.532   2.394   2.312
21897W        W93568   9.349  27.605  12.152
21898W        W93569  44.928  44.355  10.063
21899W        W93570   7.865  28.537  13.268
21900W        W93571  33.018   4.302   4.100
21901W        W93572  40.262  18.797   0.129
21902W        W93573  40.147  40.883   1.928
21903W        W93574  43.290   9.922  10.458
21904W        W93575  37.577   2.495  13.241
21905W        W93576   0.473   8.891   3.599
21906W        W93577  35.141  18.661   2.808
21907W        W93578  15.148  32.381   0.526
21908W        W93579  16.207  20.794   0.849
21909W        W93580  20.665  38.817  12.992
21910W        W93581  30.914   9.981   2.767
21911W        W93582  20.649  30.498  11.742
21912W        W93583   6.145  27.988   0.403
21913W        W93584  35.522   8.400  12.813
21914W        W93585  44.454  44.269   4.160
21915W        W93586  21.537  14.269   3.617
21916W        W93587  23.584   1.292  14.060
21917W        W93588  42.916  17.565   0.307
21918W        W93589  24.138  34.134   0.039
21919W        W93590  16.971  33.946  14.876
21920W        W93591  18.170   3.961   3.291
21921W        W93592   2.674  18.057   3.107
21922W        W93593   0.448  18.756  13.020
21923W        W93594  30.175  37.669   2.755
21924W        W93595  32.420  43.004  13.339
21925W        W93596  23.877  35.359  11.607
21926W        W93597  34.493  40.824   1.856
21927W        W93598  41.478  18.608   4.847
21928W        W93599   9.450  36.070   2.305
21929W        W93600  17.788  23.233   0.487
21930W        W93601  24.488   6.466  13.424
21931W        W93602  15.874  41.832   0.393
21932W        W93603  12.829  39.708   1.744
21933W        W93604  41.814  42.209   3.637
21934W        W93605  44.327  37.062  13.318
21935W        W93606  26.102  30.662  10.568
21936W        W93607   6.716   2.758  11.550
21937W        W93608  43.850   0.567  13.896
21938W        W93609   1.874  31.864  10.776
21939W        W93610  35.149   6.505   2.348
21940W        W93611  30.254  22.627   0.995
21941W        W93612  23.453  39.295  10.597
21942W        W93613   1.146  34.732  11.183
21943W        W93614   3.466  44.704  14.549
21944W        W93615   3.032   6.369  13.862
21945W        W93616  18.816   2.265   0.018
21946W        W93617  22.019  14.587   3.058
21947W        W93618   3.367   4.365   2.105
21948W        W93619  23.002  14.237   0.860
21949W        W93620  34.363  31.009   2.784
21950W        W93621  20.618   2.657   4.175
21951W        W93622  17.187   3.317   3.751
21952W        W93623  13.224  24.485   0.782
21953W        W93624  39.738  11.681   0.456
21954W        W93625   8.578  34.982  13.861
21955W        W93626   8.347   2.744  10.805
21956W        W93627  18.985  27.675  12.843
21957W        W93628  43.400  13.845  13.882
21958W        W93629  44.238   8.839  13.162
21959W        W93630  13.322  41.542  11.598
21960W        W93631  14.064  23.697   2.182
21961W        W93632  42.226  24.637  14.407
21962W        W93633  39.174   0.708  12.588
21963W        W93634  27.983  11.285  13.548
21964W        W93635  41.301   5.661  11.671
21965W        W93636  10.638   8.933   3.618
21966W        W93637  30.563  17.317  13.445
21967W        W93638  28.897  18.773   4.010
21968W        W93639  39.882  34.676   2.244
21969W        W93640   0.811  26.677  12.043
21970W        W93641  20.184   8.907   2.472
21971W        W93642  22.568  16.314   3.448
21972W        W93643   5.796  39.031  12.438
21973W        W93644  31.040  13.166  13.671
21974W        W93645   7.398   7.241   1.269
21975W        W93646  36.048   0.487   0.875
21976W        W93647  13.152  39.335   2.650
21977W        W93648  18.113  43.394   2.538
21978W        W93649  31.522  37.494   2.248
21979W        W93650  26.531  44.842   4.894
21980W        W93651  11.349  36.344  12.720
21981W        W93652   3.959  32.497  13.920
21982W        W93653  37.839   4.204  14.867
21983W        W93654  16.802  41.450  13.019
21984W        W93655   8.586   4.706   2.149
21985W        W93656  43.856  39.998   2.214
21986W        W93657  34.571  32.508   2.683
21987W        W93658   8.112   5.005  12.680
21988W        W93659   4.411   8.632   0.917
21989W        W93660  30.558   1.588   4.175
21990W        W93661  42.769  27.035  12.434
21991W        W93662  23.094  40.076   4.042
21992W        W93663   1.226  28.534   1.244
21993W        W93664   1.794  39.634   2.723
21994W        W93665   6.769  22.254  12.166
21995W        W93666  10.793   4.024  14.735
21996W        W93667  19.052  10.229  12.464
21997W        W93668  18.554  28.373   2.631
21998W        W93669  22.022   4.129   1.199
21999W        W93670  15.627  19.681   4.049
22000W        W93671   1.314  12.042  11.040
22001W        W93672  13.858  11.690  12.454
22002W        W93673  40.375  16.579   3.710
22003W        W93674  39.137  15.367   4.307
22004W        W93675  38.037  33.357   3.694
22005W        W93676  25.236  31.044  14.319
22006W        W93677   3.354  21.588   3.458
22007W        W93678  27.593  36.862   0.266
22008W        W93679   8.634  29.816   3.630
22009W        W93680  42.429   6.916   3.150
22010W        W93681  40.096  21.639  14.905
22011W        W93682  43.550  22.717   4.163
22012W        W93683  22.792   8.948  13.897
22013W        W93684   9.813   5.492  12.075
22014W        W93685   5.176  19.413  13.351
22015W        W93686  32.529  27.559  11.064
22016W        W93687   6.827  24.392  11.217
22017W        W93688  37.605  18.036   3.923
22018W        W93689   9.580  31.598  13.275
22019W        W93690  13.819   6.849  11.744
22020W        W93691  42.780  32.625  12.045
22021W        W93692  37.675   3.390  14.422
22022W        W93693  32.141   8.332  13.595
22023W        W93694  27.991  40.564   2.374
22024W        W93695   5.811  22.007  14.762
22025W        W93696  17.005  34.709  13.077
22026W        W93697  27.662  34.097   1.522
22027W        W93698  25.856   5.247   0.846
22028W        W93699   6.003   5.716  14.946
22029W        W93700  15.189  37.537   2.293
22030W        W93701  35.407   4.447  13.833
22031W        W93702  16.740  14.206   3.331
22032W        W93703  14.903  13.068  10.606
22033W        W93704  22.096  18.328  14.804
22034W        W93705  35.050  28.212   2.952
22035W        W93706  26.501  20.782  14.356
22036W        W93707  32.968  16.345   3.200
22037W        W93708  26.055  15.416   1.389
22038W        W93709  20.151  25.060   0.312
22039W        W93710  36.389   9.066  10.734
22040W        W93711  22.590   9.251   0.735
22041W        W93712  28.438  40.557  12.549
22042W        W93713  12.719  17.776   3.966
22043W        W93714  12.292  44.969  12.818
22044W        W93715  40.707   9.526  11.056
22045W        W93716   8.780  33.667  12.003
22046W        W93717  42.093   9.188  13.581
22047W        W93718  10.543  41.246   0.098
22048W        W93719  14.772  18.120   5.218
22049W        W93720   1.339  33.143   1.971
22050W        W93721  31.438   3.951   4.165
22051W        W93722  37.328   3.352  14.021
22052W        W93723   4.728  23.609   0.933
22053W        W93724  37.900  44.413   1.884
22054W        W93725   8.683  32.352  13.508
22055W        W93726  34.139   9.190  14.504
22056W        W93727  18.289  19.218   3.059
22057W        W93728   1.314  11.589  13.371
22058W        W93729  14.685   1.003  13.587
22059W        W93730  15.628  11.299  12.845
22060W        W93731   0.264  21.685  10.157
22061W        W93732  15.329  40.968   4.770
22062W        W93733  28.303  29.666   1.728
22063W        W93734   7.730  11.443  14.015
22064W        W93735  37.819  30.955  11.215
22065W        W93736  30.748  34.141  10.515
22066W        W93737  40.318  36.881   1.567
22067W        W93738  13.540  39.320  14.861
22068W        W93739  19.025  37.928   4.486
22069W        W93740  33.512   9.593   2.740
22070W        W93741   1.001  27.173   4.210
22071W        W93742   8.700  20.445  11.488
22072W        W93743  14.674   0.052   3.152
22073W        W93744   8.749  38.146   1.730
22074W        W93745  39.539   4.815  12.600
22075W        W93746   2.599  27.964  11.228
22076W        W93747  44.212  39.968  11.073
22077W        W93748  43.970  20.140  11.210
22078W        W93749   6.850  19.161   2.330
22079W        W93750  43.567   1.441  12.948
22080W        W93751   9.940  31.590   3.592
22081W        W93752  43.251  31.595   2.266
22082W        W93753  43.490  14.300  11.730
22083W        W93754  37.437  39.526  12.440
22084W        W93755   6.727  17.499   3.547
22085W        W93756  35.900  15.344   4.057
22086W        W93757  32.192  10.978  12.520
22087W        W93758  11.745  12.647   2.792
22088W        W93759  34.839  24.579  11.600
22089W        W93760   9.376  37.384  14.988
22090W        W93761  30.972   5.959  12.009
22091W        W93762   7.263  31.977  13.970
22092W        W93763  26.405   9.824  14.242
22093W        W93764  25.601   7.774  10.291
22094W        W93765   9.388  37.507  10.650
22095W        W93766   2.820  15.814  11.132
22096W        W93767  21.110  13.522   5.054
22097W        W93768  17.293  18.014  13.580
22098W        W93769  15.663  12.702   1.653
22099W        W93770  27.172  16.725   4.387
22100W        W93771  26.467   2.434  11.981
22101W        W93772   8.856  43.521  11.999
22102W        W93773  40.299   6.548  10.181
22103W        W93774  21.006  25.614   1.500
22104W        W93775   6.270  20.402  12.535
22105W        W93776  17.065  23.247  13.920
22106W        W93777  33.605  30.249   0.700
22107W        W93778  11.215  39.779  11.397
22108W        W93779  29.912  12.403   2.242
22109W        W93780   5.011  10.849  10.740
22110W        W93781  33.939  26.295  11.857
22111W        W93782   9.115  20.645   2.667
22112W        W93783  29.160  39.681  10.573
22113W        W93784  15.613  25.013   2.861
22114W        W93785   4.656  35.666   2.302
22115W        W93786  30.656   0.978   2.364
22116W        W93787  12.803  29.153   4.192
22117W        W93788  43.307   2.609   0.469
22118W        W93789   0.504  22.657  12.829
22119W        W93790  26.083  40.123   1.847
22120W        W93791  37.610  36.508   4.714
22121W        W93792  26.968  43.596   0.207
22122W        W93793   2.005  30.632   3.280
22123W        W93794  12.792   5.519  11.332
22124W        W93795  12.400   4.771   2.334
22125W        W93796   3.052  24.539  11.438
22126W        W93797  37.158  19.065  14.930
22127W        W93798   9.354  39.370   2.354
22128W        W93799   1.549  17.038   1.936
22129W        W93800  18.805  28.186   0.472
22130W        W93801  21.706  20.219   3.836
22131W        W93802  23.228   4.461  13.992
22132W        W93803  35.414  25.692  14.489
22133W        W93804  14.290  44.302   1.978
22134W        W93805  10.594   7.912  13.923
22135W        W93806  15.831  42.534   4.099
22136W        W93807  41.417  29.508  12.057
22137W        W93808  39.236  10.161  10.699
22138W        W93809  18.485  21.551   3.638
22139W        W93810   3.943  18.924  12.418
22140W        W93811  40.845  14.494   2.751
22141W        W93812  26.972  29.734   0.308
22142W        W93813  17.745  32.923   0.991
22143W        W93814  15.867  41.362  10.894
22144W        W93815  40.584  38.539   3.751
22145W        W93816  22.071  10.332   2.366
22146W        W93817  19.311  20.712  12.192
22147W        W93818  34.290  25.083  11.109
22148W        W93819   5.839  19.650  10.724
22149W        W93820   4.836  29.735   4.065
22150W        W93821   2.245   8.300   2.948
22151W        W93822  15.197  11.394   1.855
22152W        W93823  17.663  31.490   4.383
22153W        W93824  28.596   4.612   0.341
22154W        W93825  34.031  11.886   0.820
22155W        W93826  12.118  41.886   1.053
22156W        W93827  43.905  37.670  12.282
22157W        W93828  43.467  41.582   5.487
22158W        W93829  27.212   2.058   4.034
22159W        W93830  27.537  13.134   3.294
22160W        W93831  36.311  22.569   1.195
22161W        W93832  22.693  17.263   3.155
22162W        W93833  39.034  35.149   1.097
22163W        W93834  44.628  17.504  11.135
22164W        W93835   1.363  21.279   0.534
22165W        W93836  32.789   4.433  11.627
22166W        W93837  17.421   7.289   2.821
22167W        W93838  18.285   4.952  11.213
22168W        W93839  33.050  27.193  10.344
22169W        W93840   2.948  34.577  14.471
22170W        W93841   9.389   2.299   0.907
22171W        W93842  30.096  19.458   1.860
22172W        W93843   8.810   2.431  12.124
22173W        W93844  43.648  40.487  14.581
22174W        W93845  28.553  38.437  12.589
22175W        W93846  39.844  19.407   2.854
22176W        W93847  16.216   6.201  14.026
22177W        W93848   7.244  23.510  12.044
22178W        W93849  44.902  35.567   0.383
22179W        W93850  42.454   9.049  12.448
22180W        W93851   7.314  42.202   3.278
22181W        W93852  19.620  16.559   4.325
22182W        W93853  12.172  13.816   4.511
22183W        W93854  27.324   4.155   1.293
22184W        W93855  20.203   2.740  12.692
22185W        W93856  17.806  23.511   4.518
22186W        W93857  40.367  41.054  11.638
22187W        W93858  18.747   4.840   4.611
22188W        W93859  34.093  36.053   4.335
22189W        W93860   4.855   0.307   2.394
22190W        W93861   6.413  38.145  14.408
22191W        W93862   8.232  27.039   2.179
22192W        W93863  35.077  34.997   3.585
22193W        W93864  16.374   7.362   2.905
22194W        W93865  13.878   1.023   1.062
22195W        W93866  27.455  31.646  10.965
22196W        W93867  33.346  18.347   1.941
22197W        W93868  18.229  29.920   2.365
22198W        W93869  36.371  11.994   2.303
22199W        W93870  34.353  27.781   0.304
22200W        W93871   4.656  12.156  13.085
22201W        W93872  43.874  37.068  12.660
22202W        W93873  15.633  19.745   1.893
22203W        W93874  21.021  15.289  13.080
22204W        W93875  43.865   5.188   4.644
22205W        W93876  35.216   7.606   2.724
22206W        W93877  27.513  33.975  13.474
22207W        W93878  34.826  43.560  12.554
22208W        W93879  26.695   9.772   0.068
22209W        W93880  18.624  15.854  11.154
22210W        W93881  12.781  28.385  14.322
22211W        W93882  32.702   8.252  11.242
22212W        W93883  22.591   3.098  12.063
22213W        W93884  10.085  27.152  12.850
22214W        W93885  32.618   1.695  11.632
22215W        W93886  38.531   1.560   3.501
22216W        W93887  39.255  29.198   2.700
22217W        W93888   2.426  43.569  11.943
22218W        W93889   4.357   4.194  10.566
22219W        W93890   5.477   2.755  12.418
22220W        W93891   7.980  41.059   4.057
22221W        W93892   2.728   6.416   2.327
22222W        W93893  11.289  44.896  13.719
22223W        W93894  12.079  32.904   0.857
22224W        W93895   3.320  14.122  12.379
22225W        W93896  41.547  14.342   0.388
22226W        W93897  19.421  26.380   9.729
22227W        W93898  36.007  44.478   0.476
22228W        W93899  33.828   8.047  12.206
22229W        W93900   0.542  32.656   3.122
22230W        W93901  25.715  31.859   3.310
22231W        W93902  36.099  30.935   0.194
22232W        W93903   9.417  16.984  14.988
22233W        W93904  42.624   9.411   0.575
22234W        W93905  23.999   2.721  14.985
22235W        W93906  13.459  35.107  10.768
22236W        W93907  12.668  23.713   3.672
22237W        W93908  39.086  12.103   3.214
22238W        W93909  29.987  32.143  14.754
22239W        W93910  44.051   4.913  11.164
22240W        W93911  17.837  43.450   0.907
22241W        W93912  25.101  40.386   3.887
22242W        W93913   8.925  19.753   5.247
22243W        W93914  35.002   3.017   3.785
22244W        W93915  16.274  41.487  11.164
22245W        W93916   5.777  13.657  11.482
22246W        W93917   2.275  28.078   4.991
22247W        W93918   5.679   4.920   1.907
22248W        W93919   2.824   0.614   1.237
22249W        W93920  36.068  25.573   1.368
22250W        W93921   2.816  33.183   2.427
22251W        W93922  36.653  43.947   0.972
22252W        W93923   5.783  38.915  13.476
22253W        W93924  31.079  23.261  12.742
22254W        W93925   0.778  39.034   3.168
22255W        W93926  19.242  29.215   4.042
22256W        W93927  36.368  12.976   0.775
22257W        W93928  44.348  22.841   2.900
22258W        W93929  39.263  30.873   0.781
22259W        W93930   6.984  27.742  11.008
22260W        W93931  16.796  32.591  14.589
22261W        W93932  36.807  34.460  12.571
22262W        W93933  28.107  26.800   2.765
22263W        W93934  42.924  13.717  12.456
22264W        W93935  32.445  31.524  14.500
22265W        W93936  34.272  44.621  11.851
22266W        W93937  43.737   6.413   1.159
22267W        W93938  25.686  42.912  10.317
22268W        W93939   6.781  10.065  14.444
22269W        W93940  35.082  12.192  11.965
22270W        W93941  28.953   6.195   1.015
22271W        W93942  25.968   3.975   4.145
22272W        W93943  24.934  18.206  11.989
22273W        W93944  29.477  38.918   2.559
22274W        W93945  35.670  35.357   1.456
22275W        W93946  19.073  21.682  14.102
22276W        W93947   0.061  22.507   4.149
22277W        W93948   1.746  37.131  12.494
22278W        W93949  22.682  40.472  11.601
22279W        W93950  43.000  36.653   2.641
22280W        W93951   7.953  24.602  11.959
22281W        W93952  29.134  28.624   0.374
22282W        W93953  12.556  14.117   0.735
22283W        W93954   0.299  35.123  14.891
22284W        W93955  40.545   1.553   4.560
22285W        W93956  27.687  44.493   3.148
22286W        W93957  21.858  38.120   2.760
22287W        W93958   5.282  34.427  14.498
22288W        W93959  38.071  23.145   3.996
22289W        W93960  23.677  38.571  12.061
22290W        W93961  40.230  14.801   4.000
22291W        W93962  42.599  26.461   3.844
22292W        W93963  40.826  15.084  12.424
22293W        W93964   7.299  23.190  13.509
22294W        W93965   3.956  12.849   1.757
22295W        W93966  26.715  44.723   0.073
22296W        W93967  26.091  36.614   4.990
22297W        W93968  19.224  24.588   1.998
22298W        W93969  38.907  33.069  14.688
22299W        W93970  26.230   2.707  11.231
22300W        W93971  28.902  10.732   4.184
22301W        W93972  28.014  39.361  11.272
22302W        W93973  10.881  38.423   0.929
22303W        W93974   8.300   0.988   1.433
22304W        W93975  17.585  24.250  11.591
22305W        W93976  32.608  30.183   3.642
22306W        W93977  26.242   0.950   2.779
22307W        W93978  10.137  32.929   0.927
22308W        W93979  18.367  22.471  11.452
22309W        W93980  37.979  16.803  10.640
22310W        W93981   8.268  35.165  12.375
22311W        W93982  41.152  20.717  10.709
22312W        W93983  20.180  34.931   1.166
22313W        W93984  22.108  35.488  10.770
22314W        W93985  35.917   0.276   4.506
22315W        W93986  16.964   8.304   3.642
22316W        W93987  41.417  38.641  12.604
22317W        W93988   3.548  40.254  12.502
22318W        W93989  44.035  27.230   4.891
22319W        W93990  24.023  24.464   0.606
22320W        W93991   2.198   7.157  14.423
22321W        W93992  43.372  19.771  14.889
22322W        W93993  11.739  10.048   2.025
22323W        W93994  39.638   3.217   0.013
22324W        W93995  19.996  17.157   3.715
22325W        W93996  23.562  20.236  11.959
22326W        W93997  19.988  28.069   0.927
22327W        W93998  24.997   8.847  10.742
22328W        W93999   1.928  26.190   3.570
22329W        W94000  27.023   6.816   3.316
22330W        W94001  20.708  16.571  11.101
22331W        W94002  32.698  42.739   2.210
22332W        W94003  30.393  31.593   0.368
22333W        W94004  34.964  39.660   2.393
22334W        W94005  36.860  31.554   2.114
22335W        W94006  30.966  15.040   3.229
22336W        W94007  43.192  24.367  14.311
22337W        W94008  34.454   0.262   2.266
22338W        W94009  43.748  44.974   1.250
22339W        W94010  28.156   9.167   3.743
22340W        W94011  35.885   2.272  14.120
22341W        W94012  10.875   8.771  14.774
22342W        W94013  27.927   6.723   5.456
22343W        W94014   9.580  11.141  14.954
22344W        W94015  35.054  20.985   5.016
22345W        W94016  22.553  20.666   4.254
22346W        W94017  44.969   7.162  12.999
22347W        W94018  11.340  25.231   1.433
22348W        W94019  27.134   3.352   3.041
22349W        W94020  27.902  37.917   2.764
22350W        W94021   9.717   3.702  12.536
22351W        W94022  40.914  22.683   2.084
22352W        W94023  18.047  26.704   2.617
22353W        W94024  42.407   5.409  12.421
22354W        W94025  11.250  29.931   4.467
22355W        W94026  20.755  34.114  10.941
22356W        W94027   0.841  26.081  11.608
22357W        W94028  29.161  12.235  11.051
22358W        W94029  38.467  14.580  12.033
22359W        W94030  39.619  25.524  13.399
22360W        W94031  44.516   1.980   0.439
22361W        W94032  19.435  27.248   3.340
22362W        W94033  30.009  19.556   2.737
22363W        W94034  17.362  30.771   4.247
22364W        W94035  25.646   7.248   1.539
22365W        W94036  33.598   6.268   3.123
22366W        W94037  37.896  40.321   1.632
22367W        W94038  20.288  19.761  12.520
22368W        W94039   4.290   1.825  13.091
22369W        W94040  17.584   1.809   4.631
22370W        W94041  13.137   6.245   2.351
22371W        W94042  22.183  25.496  10.789
22372W        W94043  16.763  21.687  12.614
22373W        W94044   8.864  38.643   3.778
22374W        W94045  34.429   0.094  11.719
22375W        W94046  26.634   5.117  14.263
22376W        W94047  32.974  33.124  14.673
22377W        W94048  17.009  17.561  13.023
22378W        W94049  42.488   4.503  10.964
22379W        W94050   5.770  22.785   1.388
22380W        W94051  26.196  22.484   0.724
22381W        W94052  35.978  34.549   2.829
22382W        W94053  31.505  26.886  12.474
22383W        W94054  12.482  12.785   2.828
22384W        W94055  34.034   5.664   1.409
22385W        W94056  38.587  24.543  14.461
22386W        W94057  12.416   8.982   1.962
22387W        W94058  20.306   8.882   3.685
22388W        W94059   7.816  27.215  13.966
22389W        W94060   3.045  29.006   0.872
22390W        W94061  12.648  18.811   4.160
22391W        W94062  35.912   8.380  12.045
22392W        W94063  10.219   4.027  13.143
22393W        W94064  28.231  24.045   4.578
22394W        W94065  16.018   3.520  13.420
22395W        W94066  14.555   2.353   2.904
22396W        W94067  16.338  11.171  12.051
22397W        W94068  22.524   1.165  11.045
22398W        W94069  39.081  37.318   2.705
22399W        W94070  19.619  21.288  11.022
22400W        W94071  43.682  11.229   0.714
22401W        W94072   6.937  13.735   2.870
22402W        W94073  13.254  18.625  11.485
22403W        W94074  42.798  14.492   0.880
22404W        W94075   0.337  22.100   0.979
22405W        W94076  43.796   4.797   3.747
22406W        W94077  36.973  44.176   2.350
22407W        W94078  44.474  15.781   4.068
22408W        W94079   5.219  35.882  13.425
22409W        W94080  13.004  14.862   4.528
22410W        W94081   7.949   7.431   4.610
22411W        W94082  35.951  15.411  11.059
22412W        W94083  37.958   0.747   4.543
22413W        W94084  21.463  29.434  14.002
22414W        W94085   9.247  42.309   0.260
22415W        W94086  10.726  31.178  10.720
22416W        W94087  26.468   6.952   3.560
22417W        W94088  23.473  41.921   1.891
22418W        W94089  37.792  34.177   4.122
22419W        W94090  15.692  25.448   2.421
22420W        W94091  11.959  10.627   3.283
22421W        W94092   8.905  14.088  11.598
22422W        W94093  12.308   5.412   0.025
22423W        W94094   7.937  10.345   2.254
22424W        W94095  16.098   6.986  11.423
22425W        W94096  27.479   3.884  11.555
22426W        W94097  17.687  16.042   4.113
22427W        W94098  43.388   8.559  11.524
22428W        W94099  38.767   7.230   2.495
22429W        W94100  22.600   9.750   1.297
22430W        W94101   3.759  23.006  10.381
22431W        W94102  13.482   0.320  10.462
22432W        W94103  32.060  24.024   1.297
22433W        W94104  44.753   6.395   0.643
22434W        W94105  41.422   5.304   4.753
22435W        W94106  28.937  32.607   4.540
22436W        W94107   6.628  22.322  14.417
22437W        W94108  28.989  35.569   0.056
22438W        W94109   3.786   8.912  14.391
22439W        W94110   1.917  31.117   4.201
22440W        W94111  39.851  14.154  12.621
22441W        W94112  16.774  10.232  11.606
22442W        W94113  14.338  41.396   3.319
22443W        W94114  31.457  10.350  11.699
22444W        W94115  12.795  19.011  14.910
22445W        W94116  31.791  25.631  13.408
22446W        W94117   7.209  34.552  13.482
22447W        W94118  32.559  36.126   2.455
22448W        W94119  21.169  37.772  14.398
22449W        W94120  36.431  24.503   4.867
22450W        W94121  38.856   5.222   3.939
22451W        W94122  14.341   8.729  13.913
22452W        W94123   6.500  29.466  12.154
22453W        W94124  37.455  20.023   2.461
22454W        W94125  33.904   9.080   0.312
22455W        W94126   3.692  17.329   0.354
22456W        W94127  20.044  14.819  14.576
22457W        W94128  23.193  16.546  10.618
22458W        W94129  37.356  34.677  14.016
22459W        W94130  14.597  35.140  11.466
22460W        W94131   7.173  33.576   0.881
22461W        W94132  35.731  16.100  11.604
22462W        W94133  31.340  28.419  11.490
22463W        W94134  42.603  18.045  14.364
22464W        W94135   0.866  14.254   1.271
22465W        W94136  20.095  35.207  10.913
22466W        W94137  24.685  36.411   3.701
22467W        W94138  10.450  41.824   0.023
22468W        W94139  32.067  16.532   4.258
22469W        W94140  22.177  19.114   2.484
22470W        W94141  25.494   4.441   0.961
22471W        W94142   4.114   6.836   4.649
22472W        W94143  28.192  21.824  12.280
22473W        W94144  37.463   5.943  11.050
22474W        W94145  41.884   3.783   3.866
22475W        W94146  43.500  22.196  13.376
22476W        W94147  34.037  25.003  11.573
22477W        W94148  38.488   3.920  14.602
22478W        W94149  11.731   7.130  14.626
22479W        W94150  29.250  36.388   3.384
22480W        W94151  32.453  20.228   1.833
22481W        W94152  18.853  24.328   5.524
22482W        W94153  39.937  12.348   4.311
22483W        W94154   9.408  27.008  11.706
22484W        W94155  41.524  39.462   2.187
22485W        W94156  42.860  44.954   4.476
22486W        W94157  23.254  12.318   1.693
22487W        W94158  19.681   0.924   3.323
22488W        W94159  29.735  32.641  12.514
22489W        W94160  28.683   1.375   2.965
22490W        W94161  29.490   4.979   3.573
22491W        W94162  22.122  41.626  10.688
22492W        W94163  37.647  29.582   3.330
22493W        W94164  17.582  34.341   0.744
22494W        W94165  29.687  17.916  14.323
22495W        W94166  31.530  35.995  13.994
22496W        W94167  38.483  29.908  12.009
22497W        W94168   8.161  17.517  11.515
22498W        W94169  38.532   6.898   1.721
22499W        W94170  19.577  25.514   2.180
22500W        W94171  37.030  24.641   0.638
22501W        W94172  30.926   3.857   4.121
22502W        W94173  29.465   3.314   4.734
22503W        W94174  24.919  11.719  13.390
22504W        W94175  40.460  10.246   5.015
22505W        W94176  33.560  18.344  14.833
22506W        W94177  38.420  15.283   4.219
22507W        W94178   6.758  21.390   0.502
22508W        W94179  29.185  14.281   4.093
22509W        W94180  38.977  36.955   1.441
22510W        W94181   3.280   9.365   1.346
22511W        W94182  36.240  24.463  11.945
22512W        W94183   0.358  10.938  13.327
22513W        W94184  27.119  31.972   0.229
22514W        W94185  32.937  16.730  11.882
22515W        W94186  40.897  43.313  14.847
22516W        W94187  41.468  36.816  14.701
22517W        W94188  38.965  20.953   1.301
22518W        W94189  30.512  30.858  11.139
22519W        W94190  34.045  17.621  12.092
22520W        W94191   3.686  22.441   2.171
22521W        W94192  24.596  26.139  12.973
22522W        W94193  24.487  13.321  12.646
22523W        W94194  14.046  42.986  11.638
22524W        W94195   2.423  37.006   2.273
22525W        W94196   2.756  20.987  11.569
22526W        W94197   0.341  14.443   4.703
22527W        W94198  22.893  43.414   3.290
22528W        W94199  11.198  40.983   2.636
22529W        W94200   2.437  12.349   0.317
22530W        W94201  33.856  30.107  14.816
22531W        W94202  24.796  33.496   0.473
22532W        W94203  25.748  27.343   3.211
22533W        W94204  42.851  24.910   1.248
22534W        W94205   2.798   4.595   0.071
22535W        W94206  33.591  10.330  11.928
22536W        W94207  28.183  40.649  13.986
22537W        W94208  19.094   4.714  14.818
22538W        W94209  17.066  15.749   2.373
22539W        W94210  32.021  11.252   4.154
22540W        W94211  37.403  37.597  11.131
22541W        W94212  31.699   8.921  12.946
22542W        W94213  16.343   8.773  14.420
22543W        W94214  31.223  25.044  13.030
22544W        W94215  24.069  32.088   4.090
22545W        W94216   0.059  44.382  13.470
22546W        W94217  24.129   1.997   2.331
22547W        W94218  20.021  18.818  11.557
22548W        W94219   8.333  20.150   3.703
22549W        W94220  42.487  24.677   3.879
22550W        W94221  31.915  38.946  13.521
22551W        W94222  15.709   9.526  12.332
22552W        W94223  25.817  40.913   1.641
22553W        W94224   2.954  22.091  12.942
22554W        W94225  10.321  22.065   0.037
22555W        W94226  38.791  36.371  12.450
22556W        W94227  33.918   2.158   4.136
22557W        W94228  34.860   3.654  13.478
22558W        W94229   5.434  44.402  13.478
22559W        W94230  44.878   8.658  14.866
22560W        W94231  19.532  30.271  11.702
22561W        W94232  13.355  43.899  12.117
22562W        W94233  12.855   4.494  11.700
22563W        W94234  20.949  13.433  12.314
22564W        W94235   5.300  23.023  13.273
22565W        W94236  24.452  17.151   2.926
22566W        W94237  18.298   0.450  14.440
22567W        W94238  23.138  35.677  14.806
22568W        W94239  37.037   9.274   3.229
22569W        W94240  24.674   4.665  11.096
22570W        W94241   7.201  31.511   0.812
22571W        W94242  20.785  32.087  12.836
22572W        W94243  24.116  25.641   4.550
22573W        W94244  14.524  32.601   4.801
22574W        W94245  25.532  19.296  10.567
22575W        W94246  24.498   8.209  13.972
22576W        W94247  19.999  18.811   0.906
22577W        W94248   9.333  31.495   4.788
22578W        W94249  24.275  19.189   0.453
22579W        W94250  34.031  15.966   1.390
22580W        W94251  20.076  26.966  12.349
22581W        W94252   9.968  24.212   4.086
22582W        W94253  35.358   5.322   2.912
22583W        W94254   3.404  41.252   0.002
22584W        W94255  26.020  19.724   1.406
22585W        W94256  41.615   0.449   0.844
22586W        W94257  17.889  40.833  12.992
22587W        W94258  17.637  34.007   2.072
22588W        W94259  31.554  15.716   4.151
22589W        W94260   0.519  34.489  11.980
22590W        W94261  24.262   1.387  11.633
22591W        W94262  13.211  44.810   1.282
22592W        W94263  19.020  24.521   4.302
22593W        W94264   8.670  28.213  14.025
22594W        W94265   7.024   6.274   4.143
22595W        W94266  31.113  16.196  10.492
22596W        W94267  22.030   1.669   2.331
22597W        W94268  18.870  23.606   1.692
22598W        W94269  17.256  21.326  14.424
22599W        W94270  22.685  23.410  14.228
22600W        W94271  26.152  32.947   4.131
22601W        W94272  37.843   8.460   2.342
22602W        W94273  18.548   1.708   0.900
22603W        W94274   4.386   3.388  14.945
22604W        W94275  17.638  39.244  14.331
22605W        W94276  25.889  35.042   1.857
22606W        W94277  21.743  39.543  12.381
22607W        W94278  31.347  24.174   4.314
22608W        W94279  16.088  23.214  12.884
22609W        W94280  12.601   8.719   4.536
22610W        W94281  14.551  42.842   4.251
22611W        W94282  43.587   0.937   0.720
22612W        W94283  32.993  23.595  13.535
22613W        W94284  25.382  41.205  12.478
22614W        W94285  11.712  32.324  14.463
22615W        W94286  15.603  22.582   0.395
22616W        W94287  20.338  21.138   1.339
22617W        W94288  39.211  33.498  14.712
22618W        W94289  33.118  33.933  10.617
22619W        W94290  25.593   5.921   0.983
22620W        W94291  39.675  13.823   1.797
22621W        W94292   9.322  23.940  14.439
22622W        W94293  31.486  38.043  13.357
22623W        W94294  21.171  10.248  14.502
22624W        W94295  17.645  36.813  12.930
22625W        W94296  29.157   6.821   2.872
22626W        W94297   3.039  20.086   3.389
22627W        W94298  27.087  19.670   3.142
22628W        W94299  21.097  42.933  12.012
22629W        W94300  20.614  22.519  13.927
22630W        W94301  26.412   9.843   2.723
22631W        W94302  29.666  39.029  13.780
22632W        W94303  39.578  29.482   2.382
22633W        W94304   3.790  38.541  11.337
22634W        W94305  40.561  26.531   3.143
22635W        W94306  23.223  14.326   3.354
22636W        W94307  29.997  33.621  12.033
22637W        W94308  40.851  36.566   0.823
22638W        W94309  19.103  44.987  11.058
22639W        W94310  32.352  14.692   2.665
22640W        W94311   1.105   8.666   5.112
22641W        W94312   4.406  29.346   1.904
22642W        W94313  39.347  14.591   3.775
22643W        W94314  28.468  14.348  12.910
22644W        W94315  42.946  15.121  13.533
22645W        W94316   6.638   1.942  11.380
22646W        W94317  43.050   8.668  12.401
22647W        W94318  42.505  24.707  12.588
22648W        W94319   6.406  22.809  10.275
22649W        W94320  15.586  33.268   2.652
22650W        W94321  31.654  17.732  11.154
22651W        W94322  17.068  44.561   2.357
22652W        W94323  27.575  22.679  11.572
22653W        W94324  16.593  34.616  10.639
22654W        W94325   5.080  35.045   4.665
22655W        W94326  21.629   0.868  13.579
22656W        W94327  14.151  13.469   4.514
22657W        W94328  13.595  19.118   3.829
22658W        W94329  35.892  23.127   0.022
22659W        W94330  36.905  27.221   2.246
22660W        W94331  26.389   8.693   3.694
22661W        W94332  35.953  33.728   2.277
22662W        W94333  11.187   9.039   4.117
22663W        W94334   9.068  16.174   2.571
22664W        W94335  26.742   6.175  10.631
22665W        W94336   7.634  10.639   4.523
22666W        W94337  29.046  20.698   3.766
22667W        W94338  29.413  20.661   1.265
22668W        W94339   7.200   3.400   1.470
22669W        W94340  22.639  26.073   2.343
22670W        W94341   2.786  35.067  13.459
22671W        W94342  33.376  40.481   2.832
22672W        W94343  24.081  20.030   3.246
22673W        W94344  30.284  15.604   3.760
22674W        W94345  31.465  36.540  13.239
22675W        W94346   9.414  18.636   4.502
22676W        W94347  35.433  34.760   4.094
22677W        W94348  44.912  17.326  13.491
22678W        W94349  42.912  13.974   0.881
22679W        W94350   3.714  23.052   0.335
22680W        W94351  32.133  38.112   0.473
22681W        W94352  42.989  29.350   1.509
22682W        W94353  16.762  40.188   3.118
22683W        W94354   7.044   8.753  14.270
22684W        W94355  23.858  24.089  12.874
22685W        W94356   5.185  14.810   4.440
22686W        W94357  15.574   4.364   2.345
22687W        W94358  28.958  21.370   0.338
22688W        W94359   4.429  41.399   4.583
22689W        W94360  31.490  10.653  14.148
22690W        W94361   8.149  31.595   4.314
22691W        W94362  11.803   4.471  12.843
22692W        W94363  44.389  12.784   9.794
22693W        W94364  18.251  15.028  11.097
22694W        W94365  36.013   0.804   4.385
22695W        W94366  12.628  18.620  12.826
22696W        W94367  39.096   2.401  13.446
22697W        W94368   9.788   6.325  14.470
22698W        W94369  29.376  36.913   0.708
22699W        W94370  11.205  29.215  11.029
22700W        W94371   8.647  12.249   2.405
22701W        W94372  24.295  42.129   2.234
22702W        W94373   4.469  36.694  12.327
22703W        W94374  16.509  36.158  11.512
22704W        W94375   7.802  12.630  12.526
22705W        W94376  24.478  16.808  11.378
22706W        W94377   9.895  10.183  11.247
22707W        W94378  37.428  27.586  11.119
22708W        W94379   5.474  10.286   2.803
22709W        W94380  40.093  26.071  11.300
22710W        W94381   0.424  35.558   0.180
22711W        W94382  39.507  16.554   0.942
22712W        W94383  41.203  44.847   0.224
22713W        W94384  13.592  21.000   3.035
22714W        W94385  35.138  34.225   3.289
22715W        W94386  44.770  39.002   3.757
22716W        W94387  33.403  41.999   4.584
22717W        W94388  34.540   4.351  14.400
22718W        W94389   5.674  21.225  11.953
22719W        W94390  10.274   4.614  12.002
22720W        W94391  18.089   2.612  10.767
22721W        W94392  25.449  18.186  12.050
22722W        W94393  13.644  26.238   1.755
22723W        W94394  24.087   2.645  12.040
22724W        W94395  17.498  11.044   3.314
22725W        W94396  22.730  21.303  11.626
22726W        W94397  38.040  33.970  11.516
22727W        W94398   1.130  14.715   2.677
22728W        W94399  19.536  32.125   2.281
22729W        W94400   2.870  27.704   4.930
22730W        W94401   2.977  28.106  13.756
22731W        W94402  38.865  15.221   3.401
22732W        W94403  28.248  18.668  14.250
22733W        W94404  30.518  25.451  13.991
22734W        W94405  17.440  25.375  14.507
22735W        W94406   0.877  37.993  12.558
22736W        W94407  31.653  31.581   4.211
22737W        W94408  25.119  23.570  14.567
22738W        W94409  16.559  15.594   2.388
22739W        W94410  10.593  41.580   0.530
22740W        W94411   7.889  31.083  10.980
22741W        W94412  23.562  38.808  12.511
22742W        W94413  25.591  38.112   1.316
22743W        W94414   6.036  28.599  10.539
22744W        W94415  40.431  41.318   3.191
22745W        W94416  22.308  40.996  13.973
22746W        W94417  13.680   7.135   3.239
22747W        W94418  26.994  32.584   1.194
22748W        W94419  10.658  27.992  12.398
22749W        W94420  39.545  38.596  14.846
22750W        W94421   5.707  13.121  12.224
22751W        W94422  36.625  35.092   2.739
22752W        W94423  42.823  33.534   1.872
22753W        W94424  20.673  44.565   1.283
22754W        W94425   9.775  22.162  11.160
22755W        W94426  26.985  31.428  10.762
22756W        W94427   7.775  11.824   3.599
22757W        W94428  29.580  27.999   0.898
22758W        W94429  25.260  42.863   3.780
22759W        W94430  44.513  32.142   3.284
22760W        W94431  18.074   5.936  11.456
22761W        W94432  31.446  30.687   0.673
22762W        W94433  13.286  17.003   3.989
22763W        W94434  13.624   7.790  12.997
22764W        W94435  35.600   7.355   1.880
22765W        W94436  34.337   7.775  10.708
22766W        W94437  28.536  26.287   4.602
22767W        W94438  14.132  30.611  13.823
22768W        W94439   9.728  44.112   1.308
22769W        W94440  16.197   0.067  13.861
22770W        W94441  40.387   9.834  11.484
22771W        W94442  23.624  16.828  10.514
22772W        W94443   8.135  42.343  12.016
22773W        W94444  10.120  33.316  13.061
22774W        W94445  40.426  19.501   2.849
22775W        W94446  33.225  25.266  11.455
22776W        W94447  35.483  30.046  13.521
22777W        W94448  14.562  14.976  13.441
22778W        W94449  12.256   8.141  11.066
22779W        W94450  24.610  30.389   1.474
22780W        W94451  20.365  21.514  12.043
22781W        W94452  38.880  40.466  13.666
22782W        W94453  14.586  27.994   3.182
22783W        W94454  29.430  18.197  12.165
22784W        W94455   2.789  36.359   1.474
22785W        W94456  44.506  22.430  12.893
22786W        W94457  35.405   3.438  11.162
22787W        W94458  33.368  31.380   2.624
22788W        W94459  37.920  13.735  13.098
22789W        W94460   7.191  42.719  11.943
22790W        W94461   0.986   7.591   3.265
22791W        W94462  14.583  10.739  13.445
22792W        W94463  14.683  42.355   4.130
22793W        W94464  18.647   7.855  14.715
22794W        W94465  39.070  14.189   1.250
22795W        W94466  29.177  16.689   3.072
22796W        W94467  21.769   3.114   2.438
22797W        W94468  26.114  36.732   2.726
22798W        W94469  13.643  14.156   1.820
22799W        W94470   8.252   5.501   4.181
22800W        W94471  44.700  42.311   3.363
22801W        W94472  28.861  26.141  12.975
22802W        W94473  33.261  44.744  11.965
22803W        W94474  43.996   9.278  11.413
22804W        W94475  29.009  13.347   4.366
22805W        W94476  39.910  13.630  11.243
22806W        W94477  28.799  44.028   0.523
22807W        W94478  23.631  40.725  10.992
22808W        W94479   9.654  17.111   3.891
22809W        W94480  12.665  39.227   0.824
22810W        W94481  12.846   2.738  13.898
22811W        W94482  12.179   3.465   1.925
22812W        W94483  27.466  20.519   0.795
22813W        W94484  31.363  41.302  13.883
22814W        W94485  17.128  34.872   2.664
22815W        W94486  12.987  42.988  12.370
22816W        W94487   1.847   8.935   1.501
22817W        W94488   9.135  12.664   0.718
22818W        W94489  44.053  10.901   0.531
22819W        W94490   4.362   8.560   3.098
22820W        W94491  22.634   3.787   3.593
22821W        W94492  40.006  40.844   0.869
22822W        W94493  15.863  18.372  11.116
22823W        W94494  27.423  26.970   0.962
22824W        W94495  36.890  19.508  12.911
22825W        W94496  11.784  44.427  10.818
22826W        W94497  43.583  42.369   4.159
22827W        W94498  28.630  16.244  14.325
22828W        W94499  21.626   9.143  12.573
22829W        W94500   7.239  17.655  13.370
22830W        W94501  31.420   6.820   1.696
22831W        W94502  39.458   6.610  10.518
22832W        W94503  12.355   8.911  10.389
22833W        W94504  10.191  16.361   3.541
22834W        W94505   0.469  25.433  13.255
22835W        W94506   7.935   5.509  12.153
22836W        W94507  23.267  18.688   0.276
22837W        W94508  33.545  31.366  10.919
22838W        W94509  25.145  36.462   3.947
22839W        W94510  33.506  44.262  12.057
22840W        W94511  18.806  19.003  12.314
22841W        W94512  23.991  42.846   4.489
22842W        W94513  35.961   9.734   3.682
22843W        W94514  30.096  35.836   2.307
22844W        W94515  19.725   6.473   2.260
22845W        W94516  34.447   7.136  14.041
22846W        W94517  42.502  23.081   1.369
22847W        W94518  42.536  20.138  12.513
22848W        W94519  38.350  23.238   1.766
22849W        W94520  41.230  15.005  12.887
22850W        W94521  38.788   3.928  11.989
22851W        W94522  15.379   4.359  10.617
22852W        W94523   6.341  22.070  13.344
22853W        W94524   5.290  35.871  11.637
22854W        W94525  38.561  14.696   0.293
22855W        W94526  23.602  26.265   0.373
22856W        W94527  21.786  24.616  14.963
22857W        W94528  23.220  19.056   1.309
22858W        W94529  44.392   3.033  11.147
22859W        W94530  29.602  42.727  11.200
22860W        W94531  39.471  21.539  12.763
22861W        W94532  22.680  20.813   1.310
22862W        W94533  17.166  37.405   4.190
22863W        W94534  19.945  13.304   3.777
22864W        W94535   8.302  15.834   2.334
22865W        W94536  20.483  25.584  10.386
22866W        W94537  12.660  21.066   1.984
22867W        W94538  13.611  33.323  11.243
22868W        W94539  13.615   9.901   2.410
22869W        W94540   4.284  41.053  13.580
22870W        W94541  40.385  35.124   1.501
22871W        W94542   8.091   2.536  12.582
22872W        W94543  21.910  37.692   4.731
22873W        W94544  15.349   1.438  11.341
22874W        W94545  22.212  33.642  12.762
22875W        W94546  28.613  23.746   3.591
22876W        W94547  34.806  42.008  11.756
22877W        W94548  35.810  25.258   2.786
22878W        W94549  38.053  20.206  12.572
22879W        W94550  24.611   1.865  10.957
22880W        W94551  27.606   4.914   1.788
22881W        W94552  31.652  11.624   0.782
22882W        W94553   8.361  39.764   0.781
22883W        W94554  40.923  39.369  10.962
22884W        W94555  20.717  28.052   0.335
22885W        W94556  11.225  18.226   4.662
22886W        W94557  31.462  17.697   3.688
22887W        W94558  24.413  27.431   3.649
22888W        W94559  38.333  42.067   2.778
22889W        W94560   4.931   9.493   2.690
22890W        W94561   1.761   9.184   3.971
22891W        W94562  22.913   9.632   0.874
22892W        W94563  11.862   2.748  13.701
22893W        W94564  38.980   9.241   0.977
22894W        W94565   6.484  35.814  13.099
22895W        W94566   6.929  10.870  11.325
22896W        W94567  17.908  24.357  12.626
22897W        W94568   0.161  30.118   3.358
22898W        W94569  22.581   8.337  12.997
22899W        W94570  26.979  18.979  14.473
22900W        W94571  26.648  41.369   1.374
22901W        W94572  40.026  29.906   3.316
22902W        W94573  27.445   2.092   4.491
22903W        W94574  22.843  20.078  13.469
22904W        W94575  44.869  43.310   1.667
22905W        W94576  19.036  32.470  12.623
22906W        W94577  37.608  19.416  14.858
22907W        W94578   9.466   5.126  13.454
22908W        W94579   1.275  29.737   0.392
22909W        W94580  37.245  23.767   2.156
22910W        W94581  23.000  24.062  13.948
22911W        W94582   0.896   1.738   3.083
22912W        W94583   8.216  40.031   2.731
22913W        W94584  22.070  17.275  12.128
22914W        W94585  37.085  22.230   4.140
22915W        W94586  15.037  18.330   4.353
22916W        W94587   6.139  34.338   3.738
22917W        W94588  28.632  30.678  14.383
22918W        W94589  42.184  37.917   0.800
22919W        W94590  37.855  16.362  12.889
22920W        W94591  18.796  40.981  14.859
22921W        W94592   7.479   2.484   4.726
22922W        W94593  29.341   0.399  12.980
22923W        W94594  31.701  19.673   4.655
22924W        W94595   8.085  31.433   2.360
22925W        W94596  32.855  14.724  14.395
22926W        W94597  40.756  22.519  13.347
22927W        W94598  17.744  17.777  13.685
22928W        W94599  32.991  29.895   3.416
22929W        W94600  17.262  38.519   1.509
22930W        W94601  34.794  12.479   1.491
22931W        W94602  38.935  29.507  13.354
22932W        W94603  39.326  13.733   1.393
22933W        W94604  21.521  28.934  13.912
22934W        W94605  10.644  20.241   0.770
22935W        W94606  40.887  36.446  10.485
22936W        W94607  44.733  18.302  12.468
22937W        W94608  20.066   2.857   2.699
22938W        W94609  34.394  25.743   3.287
22939W        W94610  44.188  40.808  12.977
22940W        W94611  18.239   0.512   2.408
22941W        W94612  26.248   4.902   1.062
22942W        W94613   3.135  28.465   3.592
22943W        W94614  11.949  44.865   0.573
22944W        W94615  37.965   5.147   4.220
22945W        W94616  27.666  27.932  11.165
22946W        W94617   1.267  32.149   3.678
22947W        W94618  10.211  17.760   0.794
22948W        W94619  40.499  23.240   1.737
22949W        W94620   0.755  22.958   1.922
22950W        W94621  11.244  32.130  13.040
22951W        W94622  34.509  30.596  10.711
22952W        W94623   2.226  10.456  11.989
22953W        W94624  22.792  27.746   3.628
22954W        W94625  35.232   7.299  13.381
22955W        W94626  10.708  41.126   4.555
22956W        W94627  43.759   9.071  10.995
22957W        W94628  27.354  13.234   0.347
22958W        W94629   1.351  37.002  13.287
22959W        W94630   1.140  19.517   9.736
22960W        W94631  11.196  31.716   0.806
22961W        W94632  22.849  27.880   2.286
22962W        W94633   6.721  38.966   4.778
22963W        W94634  19.770   5.843  13.859
22964W        W94635  38.042  36.054  13.421
22965W        W94636  41.260  23.195  12.060
22966W        W94637   3.857  43.824   4.783
22967W        W94638  24.227  34.850  10.615
22968W        W94639   4.844  16.217   2.144
22969W        W94640  27.824  24.337  10.752
22970W        W94641   3.427   3.244   4.088
22971W        W94642  31.922   7.119   0.321
22972W        W94643  26.108  23.066  13.926
22973W        W94644  29.346  30.489   1.453
22974W        W94645  23.924  27.766   0.102
22975W        W94646  34.567  30.566  11.207
22976W        W94647  15.830  11.138   4.077
22977W        W94648  16.153  32.487  14.774
22978W        W94649   2.449  24.616   1.620
22979W        W94650  25.535  26.793  10.795
22980W        W94651   5.296  12.598   1.876
22981W        W94652  14.605  43.616  12.117
22982W        W94653  16.525  29.514   3.672
22983W        W94654  36.570   9.224   2.933
22984W        W94655  10.563  37.027   1.796
22985W        W94656  28.547  11.727   2.237
22986W        W94657  42.525  18.278   4.671
22987W        W94658  36.139  36.514   0.748
22988W        W94659  17.498   1.369   0.912
22989W        W94660  33.422  34.334  12.039
22990W        W94661  38.734   9.789   0.333
22991W        W94662  25.226  43.392   2.220
22992W        W94663  21.049  11.341   0.225
22993W        W94664  30.486  39.768  12.085
22994W        W94665  10.266  34.830   4.137
22995W        W94666  43.034   1.391  12.873
22996W        W94667  35.332  44.719   2.383
22997W        W94668   9.643  15.932  10.237
22998W        W94669  10.125   4.874   0.666
22999W        W94670  14.540   4.265  12.893
23000W        W94671  19.215  34.458   4.284
23001W        W94672  11.230  20.138   2.385
23002W        W94673  44.194  10.128  13.015
23003W        W94674  35.038  17.690   1.282
23004W        W94675   4.763  13.507   2.821
23005W        W94676   0.295   5.275   4.187
23006W        W94677  27.941  38.045   4.599
23007W        W94678  14.296  13.171   0.769
23008W        W94679  37.187  38.553   3.134
23009W        W94680  33.270   8.249   4.569
23010W        W94681  25.602  13.751   3.717
23011W        W94682  32.791   9.157   1.743
23012W        W94683   3.360  44.019   4.713
23013W        W94684   4.855   2.181  14.344
23014W        W94685   4.175  23.548  12.102
23015W        W94686  18.582  43.800   0.858
23016W        W94687  44.843   0.511  13.832
23017W        W94688  16.375  42.004  12.900
23018W        W94689  12.554  16.653   0.357
23019W        W94690  20.581  35.488   0.975
23020W        W94691  36.013   5.985   4.615
23021W        W94692  24.096  17.694   1.680
23022W        W94693  19.101  21.742   1.264
23023W        W94694  38.062  31.701  12.954
23024W        W94695  24.061  33.471   0.016
23025W        W94696   3.505  18.785  12.128
23026W        W94697  18.854  43.692  12.824
23027W        W94698   0.796   1.230  10.932
23028W        W94699  23.434  19.586   2.220
23029W        W94700  34.844   0.669   2.412
23030W        W94701  41.296  10.632  12.162
23031W        W94702  26.984  30.250  11.473
23032W        W94703  23.847  10.060  12.994
23033W        W94704   5.567  40.671   1.446
23034W        W94705  12.741  14.238   1.241
23035W        W94706  37.561  30.163   4.511
23036W        W94707   3.720  33.880   4.235
23037W        W94708  26.440   8.674   4.487
23038W        W94709  42.476   9.402  10.740
23039W        W94710  42.086  38.506   4.590
23040W        W94711   1.300  19.613   0.464
23041W        W94712   0.518  38.273  11.501
23042W        W94713   4.912   5.870   3.053
23043W        W94714  22.759  20.036  14.384
23044W        W94715  16.498  27.149   1.255
23045W        W94716  43.794  42.975   5.102
23046W        W94717  41.839  44.248  12.233
23047W        W94718  12.151  28.752  14.800
23048W        W94719  24.177  37.689  11.978
23049W        W94720  31.166   7.708  14.397
23050W        W94721   1.521  19.125   0.407
23051W        W94722   6.761   3.942  14.023
23052W        W94723   3.504   2.757  11.100
23053W        W94724  17.644  37.328  14.276
23054W        W94725  18.714  41.754   4.717
23055W        W94726  39.486  22.018   3.121
23056W        W94727  32.880   3.185   3.078
23057W        W94728  21.019  26.744   3.669
23058W        W94729  34.377  43.308  14.756
23059W        W94730  28.698  24.341   2.846
23060W        W94731  35.970  31.520  13.890
23061W        W94732   8.595  36.847  14.946
23062W        W94733  15.251  17.789  10.883
23063W        W94734  40.566  23.187   2.621
23064W        W94735   8.401  41.929  14.954
23065W        W94736  40.895  13.830   1.579
23066W        W94737  34.058   0.977  11.162
23067W        W94738   9.872  16.350  13.826
23068W        W94739  22.824  38.538  11.744
23069W        W94740   2.236  11.598   2.283
23070W        W94741  21.047  21.148  12.087
23071W        W94742  36.608  27.722   2.833
23072W        W94743  44.793  26.126  11.622
23073W        W94744  39.071  42.146   2.889
23074W        W94745  23.592  39.107   2.391
23075W        W94746  17.384  40.541  10.980
23076W        W94747  39.337   9.379   2.862
23077W        W94748  32.246  35.413   0.429
23078W        W94749  36.268  35.932  12.058
23079W        W94750  21.615   7.150   2.755
23080W        W94751  40.985  32.347  13.429
23081W        W94752   2.742  20.975  12.377
23082W        W94753   8.637   2.045   0.928
23083W        W94754  20.719   8.198   0.155
23084W        W94755  35.458   7.404   4.280
23085W        W94756  40.024   4.985   3.014
23086W        W94757  36.208  11.711  14.705
23087W        W94758  25.922  21.240  12.625
23088W        W94759  34.409  27.419  13.354
23089W        W94760  15.791   9.069   2.155
23090W        W94761  20.273   3.432   3.761
23091W        W94762  10.194  43.432   2.376
23092W        W94763   3.568  26.929  10.992
23093W        W94764   9.168  35.244  10.996
23094W        W94765   1.510  14.841  14.027
23095W        W94766  10.795  40.676   2.389
23096W        W94767  10.397  36.064  11.999
23097W        W94768   1.296  24.005  14.404
23098W        W94769  14.857  16.467   2.356
23099W        W94770  28.173   3.454   0.836
23100W        W94771   9.360  21.616  12.945
23101W        W94772   6.329  43.739  11.610
23102W        W94773  14.670  42.553  10.470
23103W        W94774  11.758  20.268  12.451
23104W        W94775  32.859  10.756   4.648
23105W        W94776  18.723   1.169  12.411
23106W        W94777  30.079  15.763   1.431
23107W        W94778  36.767  11.768   2.595
23108W        W94779  32.094   1.379  12.084
23109W        W94780  19.466   2.024  11.663
23110W        W94781  18.660  22.621  13.516
23111W        W94782   2.311  32.187   4.595
23112W        W94783  38.509  20.900   4.169
23113W        W94784  38.962   1.745   2.343
23114W        W94785   8.472   2.985  13.539
23115W        W94786  44.711   1.757   1.781
23116W        W94787  17.052   0.367  12.459
23117W        W94788   1.045  37.013  12.000
23118W        W94789  29.609  14.114   1.279
23119W        W94790  44.965  33.352  12.837
23120W        W94791   9.253  13.801  13.408
23121W        W94792   7.471   5.702  10.791
23122W        W94793   3.802  18.981   4.317
23123W        W94794   2.127  25.265  11.714
23124W        W94795  17.155  16.727   2.958
23125W        W94796   2.758  29.101  12.778
23126W        W94797  14.596   3.284   4.713
23127W        W94798   4.827  36.085  11.762
23128W        W94799  31.435  32.989   0.957
23129W        W94800  32.139  22.453   3.246
23130W        W94801  34.161  39.535   0.805
23131W        W94802  10.326  43.268   4.632
23132W        W94803   7.788  23.430  12.002
23133W        W94804  34.135  24.101  14.966
23134W        W94805  25.039  23.291  11.529
23135W        W94806  26.829   9.872  11.033
23136W        W94807   3.237  31.389   5.017
23137W        W94808  15.498  28.967  13.724
23138W        W94809  15.200  39.528   3.781
23139W        W94810  27.731  26.645   3.147
23140W        W94811  34.277  36.286  11.567
23141W        W94812  39.364  35.160  14.004
23142W        W94813   7.961   9.161   4.073
23143W        W94814  43.486  11.676  14.507
23144W        W94815   0.338   3.313  13.549
23145W        W94816  36.064  19.782   2.415
23146W        W94817  36.730  20.739   3.215
23147W        W94818  39.083  23.838   3.321
23148W        W94819  14.573   4.398  12.405
23149W        W94820   2.187  23.973  10.590
23150W        W94821   9.121  11.893  11.706
23151W        W94822   2.374  15.631  10.386
23152W        W94823   2.272  34.898   0.258
23153W        W94824  40.063  22.189   1.786
23154W        W94825   3.450  25.578  13.505
23155W        W94826  37.589  37.630   0.509
23156W        W94827  22.167  28.679   2.145
23157W        W94828  16.358  26.197  12.693
23158W        W94829  21.306  31.118  10.750
23159W        W94830   4.921  19.454   0.505
23160W        W94831  23.022  29.099  13.780
23161W        W94832  28.980  27.509  14.877
23162W        W94833   4.029  29.019  11.334
23163W        W94834  25.065  35.308  11.963
23164W        W94835  15.311  26.083   3.879
23165W        W94836  17.496   9.007  13.306
23166W        W94837  14.095  35.026   3.743
23167W        W94838   9.700   0.241  13.156
23168W        W94839   4.723   4.797  13.369
23169W        W94840  38.031   3.248   3.370
23170W        W94841  14.637  38.849   2.153
23171W        W94842  10.554  10.693   3.649
23172W        W94843  20.735   4.504  10.820
23173W        W94844  20.261   9.096  13.298
23174W        W94845  43.206   8.407  14.853
23175W        W94846  10.168  38.848  11.083
23176W        W94847  40.993  33.900   2.547
23177W        W94848  38.492   2.006   4.587
23178W        W94849   4.040  16.744  12.970
23179W        W94850  20.194  30.942  13.366
23180W        W94851   0.404   8.631  13.995
23181W        W94852  32.904   3.692   2.367
23182W        W94853  17.066  40.911   1.914
23183W        W94854  19.639  44.470  10.684
23184W        W94855  18.710  16.235  14.071
23185W        W94856   5.336  40.592  11.949
23186W        W94857  33.623  16.640  13.343
23187W        W94858  27.114  26.589  10.173
23188W        W94859  35.560  18.729   3.125
23189W        W94860  38.693  43.709  13.825
23190W        W94861  14.596  30.650   3.819
23191W        W94862  34.724   3.601   1.237
23192W        W94863  28.177   3.157   5.103
23193W        W94864   7.854   0.415  12.872
23194W        W94865  17.311   1.507  14.050
23195W        W94866  22.925  37.128  13.373
23196W        W94867  32.449   2.880  14.409
23197W        W94868  39.795   1.241   3.827
23198W        W94869  19.049   4.818  11.659
23199W        W94870   7.756  44.776   3.344
23200W        W94871  10.240  24.268   4.517
23201W        W94872  39.914   4.626  11.109
23202W        W94873  33.101  41.377  14.902
23203W        W94874  20.265  25.096  12.087
23204W        W94875  34.325  22.747  14.301
23205W        W94876   5.735  13.160  10.684
23206W        W94877  17.816   8.004   1.695
23207W        W94878  23.023  31.616  14.692
23208W        W94879  26.649  14.203  10.710
23209W        W94880  30.622  19.958   1.371
23210W        W94881  44.353  19.379   2.241
23211W        W94882  42.408  18.061   1.907
23212W        W94883   9.120  29.109   2.637
23213W        W94884   9.046  35.083   3.740
23214W        W94885  44.920  23.486  14.495
23215W        W94886  23.864   0.441  13.888
23216W        W94887  30.006  23.490   4.766
23217W        W94888  35.994   8.806  12.542
23218W        W94889  28.912  28.705  12.070
23219W        W94890  26.502  32.963  11.993
23220W        W94891  29.996  20.153  14.977
23221W        W94892   7.085   2.461   4.349
23222W        W94893   5.815  31.311  11.499
23223W        W94894  44.882  36.084  11.562
23224W        W94895  16.202  22.685   2.145
23225W        W94896  34.822  43.805   0.309
23226W        W94897   0.636  41.085  12.484
23227W        W94898  23.220  22.158   2.503
23228W        W94899  43.561  26.679   4.165
23229W        W94900  24.499  18.251   3.682
23230W        W94901  37.410  13.295  14.370
23231W        W94902  23.665  43.882   0.263
23232W        W94903  44.678   1.252   4.613
23233W        W94904  24.375   1.688   0.374
23234W        W94905  18.196  31.341   4.264
23235W        W94906   1.311   4.916  11.559
23236W        W94907  21.696  43.556  11.210
23237W        W94908  21.608  18.046  13.797
23238W        W94909  20.902  19.841  11.513
23239W        W94910  11.546  42.847   3.843
23240W        W94911  34.030   5.601   0.044
23241W        W94912  38.769   9.719  12.516
23242W        W94913  28.844  43.932   1.386
23243W        W94914  31.892   1.834   3.689
23244W        W94915   8.236  25.050  12.042
23245W        W94916   4.461  25.175   0.981
23246W        W94917  24.993  29.034   3.301
23247W        W94918  26.893  12.168   4.115
23248W        W94919   1.715  15.634  13.647
23249W        W94920   0.684  20.772  10.737
23250W        W94921  43.861   5.215   0.532
23251W        W94922  25.227  11.334   3.400
23252W        W94923   0.678  13.981   4.108
23253W        W94924  17.120  30.518   1.947
23254W        W94925  14.236  21.436   5.098
23255W        W94926  23.238  12.114  13.454
23256W        W94927  14.184  17.948   0.042
23257W        W94928   3.972  21.152  11.183
23258W        W94929  21.947  41.457  11.167
23259W        W94930  20.642  16.110   2.904
23260W        W94931  13.049  11.130  12.565
23261W        W94932  22.012  30.207   0.928
23262W        W94933  35.493   4.170   3.259
23263W        W94934   5.646  19.023  12.529
23264W        W94935  42.021  28.021  10.759
23265W        W94936  31.885  36.854   0.367
23266W        W94937   7.696  17.580  12.994
23267W        W94938  42.449  38.458  13.749
23268W        W94939  21.636  32.371  11.971
23269W        W94940   9.649  16.736   3.078
23270W        W94941   0.766  41.893   2.329
23271W        W94942   3.916   0.417   0.711
23272W        W94943  10.360  10.096   2.705
23273W        W94944  19.782   8.170   2.190
23274W        W94945  41.951  14.168  13.915
23275W        W94946  16.069   2.465  13.554
23276W        W94947  26.187  13.167  14.383
23277W        W94948  38.945  25.205  11.618
23278W        W94949  24.473  21.236   4.127
23279W        W94950  26.349  24.644   3.721
23280W        W94951  18.156   1.472   3.233
23281W        W94952  30.613  24.125   3.251
23282W        W94953  21.294  41.412   3.378
23283W        W94954  22.105  23.151   0.503
23284W        W94955  19.737   7.926   0.424
23285W        W94956  36.068  22.752  10.817
23286W        W94957  40.688  12.110   1.708
23287W        W94958   2.121  33.198  12.937
23288W        W94959  39.161   0.297   4.880
23289W        W94960  42.537  33.163   2.137
23290W        W94961  15.340  38.987   0.223
23291W        W94962  44.555  30.466  11.442
23292W        W94963  38.856   8.855  11.504
23293W        W94964  16.405  30.416  14.854
23294W        W94965   0.054  38.059   1.989
23295W        W94966  30.384   1.387   0.386
23296W        W94967   6.183  14.141   3.727
23297W        W94968  39.280  41.652  10.927
23298W        W94969   7.468  27.525  11.898
23299W        W94970   5.300   1.275  11.524
23300W        W94971  14.708   8.754   2.778
23301W        W94972  39.090  27.900   4.572
23302W        W94973   6.893  30.244   2.131
23303W        W94974  44.445  11.961   0.288
23304W        W94975   8.452   1.943   2.822
23305W        W94976  11.328  29.487  14.900
23306W        W94977  20.328   9.208  11.161
23307W        W94978  13.344  41.022  11.601
23308W        W94979   2.524   2.443  14.633
23309W        W94980  30.594  30.348  11.172
23310W        W94981   3.854  15.337  14.237
23311W        W94982  35.475  26.607  14.799
23312W        W94983   3.567  19.319   2.434
23313W        W94984  21.100   5.655   0.886
23314W        W94985  43.938  24.498   1.684
23315W        W94986  24.497  44.971  10.742
23316W        W94987  14.198  40.079  12.489
23317W        W94988  15.346  25.416   0.465
23318W        W94989  27.114  19.444   0.376
23319W        W94990  39.562  35.913  14.701
23320W        W94991  28.278  30.175   1.844
23321W        W94992  33.050  27.716  14.970
23322W        W94993  17.556   9.205   2.436
23323W        W94994  16.420   4.397  13.574
23324W        W94995  15.549  23.746   3.769
23325W        W94996  33.185  24.278   1.886
23326W        W94997  28.758  36.763   2.506
23327W        W94998  24.432  22.797  14.400
23328W        W94999  17.531   5.675  14.985
23329W        W95000  19.663  26.671   2.289
23330W        W95001  27.683  44.262   1.861
23331W        W95002   8.806  23.087   1.265
23332W        W95003  34.826  29.256  11.206
23333W        W95004  33.435  34.668  12.597
23334W        W95005  32.831  41.202  13.291
23335W        W95006  24.243   5.453  12.535
23336W        W95007  28.163  32.306   1.166
23337W        W95008   0.522  21.284   0.575
23338W        W95009  20.270  22.122  14.019
23339W        W95010  18.979   3.744  10.643
23340W        W95011  31.419   1.311  10.989
23341W        W95012  41.675  20.456   0.902
23342W        W95013  13.784  15.981  12.081
23343W        W95014  21.234  22.047  13.279
23344W        W95015   3.178  15.760  12.790
23345W        W95016  22.797  14.786  13.576
23346W        W95017  41.489   0.804  13.794
23347W        W95018  24.261   7.787  12.499
23348W        W95019  29.061   8.355   1.924
23349W        W95020   0.719  33.692  14.254
23350W        W95021  39.297  39.800   2.627
23351W        W95022  41.983  40.616   1.476
23352W        W95023  44.338  33.906  13.087
23353W        W95024  44.092  18.044  11.948
23354W        W95025  40.919   8.370  12.364
23355W        W95026  32.663  34.548  14.997
23356W        W95027   6.902   7.674  12.492
23357W        W95028  22.662  26.596   4.620
23358W        W95029  11.286  34.658   2.290
23359W        W95030  13.440  35.513   0.959
23360W        W95031  11.876   8.652   4.009
23361W        W95032  32.028  30.584  10.282
23362W        W95033  16.251  35.501   0.722
23363W        W95034  15.350  43.950   0.262
23364W        W95035  15.797  34.206  10.650
23365W        W95036  43.941   5.938  14.888
23366W        W95037  38.055  44.890   1.765
23367W        W95038  21.428  19.764  13.431
23368W        W95039   8.659  13.395   4.330
23369W        W95040  14.332  10.910   0.286
23370W        W95041  44.555  22.656  10.639
23371W        W95042   6.237  38.027   1.282
23372W        W95043  23.107  16.226  12.313
23373W        W95044  15.822  20.763  14.731
23374W        W95045  24.719  16.827   2.626
23375W        W95046  24.757  39.810   2.308
23376W        W95047   5.770  41.784  14.071
23377W        W95048  16.678  39.833  13.559
23378W        W95049   2.709   2.501  10.589
23379W        W95050  27.467  18.008   4.581
23380W        W95051   8.953  44.959  13.571
23381W        W95052   4.294  12.495  13.936
23382W        W95053   7.969  33.591   0.477
23383W        W95054  18.856  23.512   3.603
23384W        W95055   0.963  23.101  11.549
23385W        W95056  30.427   2.796   3.442
23386W        W95057   0.431   3.892   2.208
23387W        W95058  40.038  27.903  11.078
23388W        W95059  38.888  21.162  10.159
23389W        W95060  38.829  41.791  11.245
23390W        W95061  16.401  34.888  14.341
23391W        W95062   3.902  25.955   3.002
23392W        W95063  29.259  28.581  12.458
23393W        W95064   6.385  21.001   4.632
23394W        W95065  20.940   4.085   4.118
23395W        W95066  17.267  34.017  10.903
23396W        W95067  43.770  26.072  13.032
23397W        W95068  28.463  42.457   1.005
23398W        W95069  37.257  14.232   5.102
23399W        W95070  39.777  18.602  14.284
23400W        W95071   8.725  24.751  12.470
23401W        W95072  41.585  40.987   2.636
23402W        W95073  21.675   0.549  12.437
23403W        W95074  13.409  14.616   4.112
23404W        W95075   2.814   6.518  12.464
23405W        W95076  33.474  34.869   3.938
23406W        W95077  12.107  35.160   3.810
23407W        W95078  33.063  36.691   2.823
23408W        W95079  27.065  15.202   1.825
23409W        W95080  35.525   6.177   1.601
23410W        W95081  10.176  27.950  14.206
23411W        W95082  32.991   0.379  10.524
23412W        W95083   5.200   5.618  13.619
23413W        W95084   6.217   1.372  14.237
23414W        W95085  10.441   1.124   4.180
23415W        W95086  40.947   0.569  10.642
23416W        W95087  23.774  18.635   0.241
23417W        W95088  40.862  11.267  13.258
23418W        W95089   0.871  26.388  11.196
23419W        W95090  15.316  19.312  14.359
23420W        W95091  20.892  41.659   3.614
23421W        W95092  38.448  29.927  12.972
23422W        W95093  40.022  33.859  12.855
23423W        W95094  44.312   7.359  12.523
23424W        W95095  23.544  37.988   4.621
23425W        W95096  22.609  24.649   2.191
23426W        W95097  30.924  43.846  14.809
23427W        W95098  29.971  39.141   1.190
23428W        W95099  39.719   4.901  12.032
23429W        W95100   3.519  40.993   0.504
23430W        W95101  20.751  23.129   0.937
23431W        W95102  23.505  29.888  10.943
23432W        W95103   3.845  38.966   1.776
23433W        W95104  15.895  15.612   5.169
23434W        W95105  40.890  19.522   0.701
23435W        W95106  20.269  43.911  11.189
23436W        W95107  20.478  21.985  14.510
23437W        W95108  31.802   3.732   0.640
23438W        W95109  27.216  21.952   4.173
23439W        W95110  12.238  35.828  12.622
23440W        W95111   4.939  14.543   3.694
23441W        W95112  11.377   4.703   1.257
23442W        W95113  14.686  37.057  12.727
23443W        W95114  37.070  42.574  13.485
23444W        W95115  32.038  15.818  11.026
23445W        W95116   2.689  36.950   0.495
23446W        W95117  42.342  10.954  13.476
23447W        W95118  39.493  37.892  13.988
23448W        W95119  27.705   7.488  10.229
23449W        W95120  15.104   4.682  10.921
23450W        W95121  28.369   9.353   4.557
23451W        W95122  28.004  23.580   4.567
23452W        W95123  16.830  25.987  10.524
23453W        W95124  13.279  16.652   3.150
23454W        W95125  10.193  39.536  10.257
23455W        W95126   1.286  23.607   0.736
23456W        W95127  37.079  36.947   0.463
23457W        W95128  30.685   1.727   1.923
23458W        W95129  10.243   2.149   2.559
23459W        W95130  20.065   5.185  12.377
23460W        W95131  16.280  34.317   0.376
23461W        W95132  20.764  19.795   4.892
23462W        W95133  32.008   2.278  13.170
23463W        W95134  35.289  16.293   0.407
23464W        W95135  39.430  29.759  14.089
23465W        W95136  33.101   3.221  10.673
23466W        W95137  10.330   4.480   1.862
23467W        W95138  42.348  24.207   4.056
23468W        W95139  37.549  14.996  13.026
23469W        W95140   6.176  41.906  13.763
23470W        W95141  25.975  34.858  11.570
23471W        W95142  20.021  44.236   3.184
23472W        W95143  37.100  30.614  14.498
23473W        W95144  43.375  33.469  11.327
23474W        W95145  20.802  41.462  10.667
23475W        W95146  21.989  15.097  10.658
23476W        W95147  28.549  15.827  12.137
23477W        W95148  17.328   2.528  12.952
23478W        W95149  32.578  40.140  13.121
23479W        W95150  13.021  15.996  11.570
23480W        W95151  44.896  12.874   3.793
23481W        W95152  26.553  21.614  10.681
23482W        W95153  13.664  40.860   3.599
23483W        W95154   4.917  16.535   3.721
23484W        W95155   1.198  37.607   3.946
23485W        W95156  26.235  42.896   0.203
23486W        W95157  44.933  14.198   4.535
23487W        W95158  24.758  19.281   0.289
23488W        W95159  12.337  39.403  14.125
23489W        W95160   1.784   8.629   4.678
23490W        W95161  10.253  23.585  14.817
23491W        W95162  39.518  30.592  13.047
23492W        W95163   4.253   2.272  10.500
23493W        W95164  10.185  27.997  12.644
23494W        W95165  16.603  34.682   2.274
23495W        W95166  35.311   5.723   3.876
23496W        W95167  15.092  29.575   1.064
23497W        W95168  21.825  15.854  13.161
23498W        W95169  35.297  40.314   1.907
23499W        W95170  26.068  33.409  13.061
23500W        W95171   4.446  44.536  12.544
23501W        W95172  15.592   9.182   3.338
23502W        W95173  16.365  16.179  12.755
23503W        W95174  19.210  26.608   1.438
23504W        W95175  36.238  23.478   0.408
23505W        W95176  14.390  19.091  10.753
23506W        W95177  39.874  11.853   4.336
23507W        W95178  17.019  17.763   1.930
23508W        W95179  39.740  14.951  11.127
23509W        W95180  36.972  13.628   1.340
23510W        W95181  42.507  31.453  12.544
23511W        W95182  16.121   7.036   1.286
23512W        W95183  14.656   3.476   0.863
23513W        W95184  25.483  25.997  11.932
23514W        W95185  19.143  30.951  12.843
23515W        W95186   8.278  34.412   3.609
23516W        W95187  25.912  36.528  11.950
23517W        W95188  36.393  20.572   0.953
23518W        W95189  24.107  14.010   4.543
23519W        W95190  44.958   7.399   3.777
23520W        W95191  31.977   3.835   3.450
23521W        W95192  31.115  31.063   0.223
23522W        W95193  43.310  30.025  13.541
23523W        W95194  32.109   5.657  13.738
23524W        W95195   0.017  32.433  12.289
23525W        W95196   2.521   4.637   4.186
23526W        W95197  32.356   4.802  11.921
23527W        W95198  18.271  12.687  14.192
23528W        W95199   2.451  31.481  12.006
23529W        W95200   1.856   0.796  14.240
23530W        W95201  43.909  33.166  12.544
23531W        W95202  42.249  24.169  11.951
23532W        W95203   7.871  38.803   2.797
23533W        W95204  39.373  41.870  11.377
23534W        W95205   2.288  17.185  12.948
23535W        W95206  36.424  30.474   4.931
23536W        W95207   5.910  41.285  11.717
23537W        W95208  18.685  33.799   3.108
23538W        W95209  20.237  37.357  14.011
23539W        W95210   9.812  26.934  11.419
23540W        W95211  38.108  33.139   4.160
23541W        W95212  31.007  13.687   4.201
23542W        W95213  15.254  32.055  12.250
23543W        W95214  26.037   8.293   3.818
23544W        W95215   8.378  41.176  12.149
23545W        W95216  14.309  37.114   3.267
23546W        W95217  43.437  36.819  12.439
23547W        W95218   5.959   3.879   3.785
23548W        W95219  26.257  10.768   2.199
23549W        W95220  16.825  39.658  12.187
23550W        W95221   1.795  26.859   2.062
23551W        W95222  30.068  13.018  13.051
23552W        W95223  18.436  31.967  13.583
23553W        W95224  33.031  42.463   0.839
23554W        W95225  25.161  38.097   0.861
23555W        W95226  34.381   6.428   3.746
23556W        W95227  20.703  13.387   1.484
23557W        W95228  17.876  31.475  13.747
23558W        W95229  27.402   2.693   4.164
23559W        W95230  35.186   2.367   3.853
23560W        W95231  44.480  17.067  13.259
23561W        W95232  15.149   3.434  13.049
23562W        W95233  13.730  22.365   4.924
23563W        W95234  31.085   1.370   2.094
23564W        W95235  29.916  22.104  14.443
23565W        W95236  40.295   9.688  12.852
23566W        W95237  12.898  14.720  13.029
23567W        W95238  31.603  35.016   1.033
23568W        W95239  39.087  25.673   1.926
23569W        W95240  13.298  29.893  13.506
23570W        W95241  28.429  20.749   1.371
23571W        W95242  30.649  26.997  14.983
23572W        W95243  15.382   7.755   1.273
23573W        W95244   0.415   9.934  14.855
23574W        W95245   2.021  26.159   4.092
23575W        W95246   3.607  15.350  11.085
23576W        W95247   1.710  26.719   2.592
23577W        W95248   3.329  11.622   2.210
23578W        W95249  40.932  38.374   2.803
23579W        W95250  27.423  12.533  13.673
23580W        W95251  13.264  38.524  11.515
23581W        W95252  43.716   8.831   1.817
23582W        W95253  25.667  28.621  13.621
23583W        W95254  42.433  32.872   4.545
23584W        W95255  20.019  30.999   4.454
23585W        W95256  41.812   5.940   1.692
23586W        W95257  12.097  15.994   1.923
23587W        W95258  29.401  26.138   1.764
23588W        W95259   1.268   9.722   1.205
23589W        W95260  34.403   4.858  10.454
23590W        W95261  38.587  24.109   2.747
23591W        W95262  13.288   4.758   0.978
23592W        W95263  41.704   5.186   3.481
23593W        W95264  44.355  41.074  13.417
23594W        W95265  40.996  18.342   2.140
23595W        W95266  19.808   1.898  14.780
23596W        W95267  34.378  18.505  12.779
23597W        W95268  38.852  43.827   4.107
23598W        W95269  44.194  12.167   5.514
23599W        W95270  31.491  14.705  14.508
23600W        W95271  21.695   8.673   0.811
23601W        W95272   6.317  30.645   1.842
23602W        W95273  32.827  32.332  10.880
23603W        W95274  31.982  24.728  10.488
23604W        W95275   6.988  19.684   3.119
23605W        W95276   3.859  15.221  12.526
23606W        W95277  18.935  42.949   0.546
23607W        W95278   8.675  29.937   4.546
23608W        W95279   7.428  43.644  11.974
23609W        W95280  39.171  14.056  14.564
23610W        W95281  43.496  39.713  13.850
23611W        W95282  19.649  21.664  10.665
23612W        W95283  18.531  32.490  10.619
23613W        W95284  42.458  43.985   1.475
23614W        W95285  28.060  32.501  12.416
23615W        W95286  40.621  25.891  12.623
23616W        W95287  13.191   0.998   3.641
23617W        W95288  19.783  29.636   2.495
23618W        W95289   0.471  35.369  10.794
23619W        W95290  11.157  18.705  12.947
23620W        W95291  27.897  39.767   1.846
23621W        W95292   1.801   4.469   4.120
23622W        W95293   3.453  34.387  13.326
23623W        W95294   1.914  17.497   4.144
23624W        W95295   8.738  40.385   1.891
23625W        W95296  10.174  39.437   3.325
23626W        W95297  40.346   1.445  13.948
23627W        W95298   2.368  16.595  12.298
23628W        W95299  40.895  28.075   4.189
23629W        W95300   1.874  29.720  14.096
23630W        W95301  14.778   8.064  14.924
23631W        W95302  32.587  37.631  11.570
23632W        W95303  15.227  26.186  14.378
23633W        W95304  39.555   2.184  13.333
23634W        W95305  34.382  43.399   1.604
23635W        W95306  22.023   3.990   5.062
23636W        W95307  35.152   5.743   2.611
23637W        W95308  32.826   8.783   2.349
23638W        W95309  31.461  11.623  13.345
23639W        W95310  38.867  27.574   3.339
23640W        W95311  32.635   7.183  14.027
23641W        W95312  27.499  43.339   1.612
23642W        W95313   3.387   6.293   1.185
23643W        W95314  40.597   7.995  12.193
23644W        W95315  42.994  21.012   2.808
23645W        W95316  30.096  20.032   1.827
23646W        W95317  19.858  37.932  14.792
23647W        W95318   5.135  30.954  13.036
23648W        W95319  39.803   2.260   3.273
23649W        W95320  24.659  40.022   9.898
23650W        W95321  28.935  35.465   0.553
23651W        W95322  16.424  30.890   4.083
23652W        W95323  33.602   1.537   0.807
23653W        W95324  29.655   1.687  13.501
23654W        W95325  23.822  27.490  12.654
23655W        W95326   5.015  14.121  13.344
23656W        W95327  31.462  23.624  14.326
23657W        W95328  30.036  36.112  12.125
23658W        W95329  41.836   8.337   0.301
23659W        W95330  19.693  14.044  10.057
23660W        W95331   0.737  11.622  13.431
23661W        W95332  13.134  39.275  13.019
23662W        W95333  43.816  12.702  11.613
23663W        W95334  17.099  30.503  10.691
23664W        W95335  29.321  26.020   4.076
23665W        W95336  44.945  40.255   2.901
23666W        W95337  31.394   9.171   4.175
23667W        W95338  23.253  19.947   3.592
23668W        W95339  20.217  42.457   3.922
23669W        W95340  42.489  25.338   0.739
23670W        W95341  15.286  40.983   2.597
23671W        W95342  20.087  38.949   3.447
23672W        W95343  31.479   5.352  12.477
23673W        W95344  37.063  39.029  13.502
23674W        W95345   2.897   7.422   0.367
23675W        W95346  28.650  36.984   1.957
23676W        W95347  33.387  31.899   0.974
23677W        W95348  31.513  39.786   1.284
23678W        W95349  41.319  26.514   3.496
23679W        W95350  34.654  20.676  10.917
23680W        W95351   3.862  35.544   1.696
23681W        W95352  40.313  40.799  11.183
23682W        W95353  20.266  22.093   0.437
23683W        W95354  42.470  18.496   0.670
23684W        W95355  32.546  21.540   4.117
23685W        W95356  20.227  41.323   2.446
23686W        W95357   1.797   2.990  14.425
23687W        W95358  36.626  24.097   4.577
23688W        W95359  22.112  42.055   0.491
23689W        W95360  40.893  14.786  13.230
23690W        W95361  30.952  20.973  11.590
23691W        W95362  25.022  27.805  11.446
23692W        W95363  27.519  19.575   3.399
23693W        W95364  44.255  36.901  12.332
23694W        W95365  10.839   2.193   3.390
23695W        W95366  25.261  12.820  12.619
23696W        W95367   0.048   8.018   1.881
23697W        W95368   1.686  28.793   4.542
23698W        W95369  33.872  41.587  10.997
23699W        W95370  31.183   0.735  13.447
23700W        W95371  41.866   2.822   1.676
23701W        W95372  42.105  43.385  13.698
23702W        W95373  25.994  18.898   3.726
23703W        W95374  23.766  44.910  13.976
23704W        W95375   7.704  32.515  13.493
23705W        W95376  35.047  43.684   0.806
23706W        W95377  38.538  44.811  10.928
23707W        W95378  44.031  36.893   2.886
23708W        W95379  37.893   1.664   1.393
23709W        W95380  18.605   4.787  14.982
23710W        W95381  36.415   2.990   3.731
23711W        W95382  35.232  43.653  11.905
23712W        W95383   0.769  43.825  13.994
23713W        W95384  15.032  27.012   4.858
23714W        W95385  25.840  34.182   0.925
23715W        W95386  31.152  35.130   1.260
23716W        W95387  29.461  22.191   0.917
23717W        W95388   1.238  21.830   3.639
23718W        W95389  23.769   4.607  13.795
23719W        W95390  21.198  25.504  14.972
23720W        W95391  22.759  40.014  13.892
23721W        W95392  34.717  42.684  11.011
23722W        W95393   0.193  37.457  12.610
23723W        W95394  30.054  43.273   2.891
23724W        W95395  35.872  24.437  11.556
23725W        W95396  24.677   1.530  12.692
23726W        W95397  12.862  19.197  12.097
23727W        W95398  11.374  12.560  14.345
23728W        W95399  11.702   3.161   1.957
23729W        W95400   8.740  13.297   5.272
23730W        W95401  17.793  10.626  10.678
23731W        W95402  18.254  26.204  10.311
23732W        W95403  30.497  22.697   1.873
23733W        W95404  16.308   3.202   0.569
23734W        W95405  31.083   6.795   1.277
23735W        W95406   8.178  35.332  14.961
23736W        W95407  24.662  38.929  12.812
23737W        W95408  14.224  16.297   4.273
23738W        W95409  41.447  43.305  10.925
23739W        W95410  20.190  30.518   2.753
23740W        W95411  23.233  13.749  11.204
23741W        W95412  43.042  32.490   4.047
23742W        W95413  33.927   1.351  10.301
23743W        W95414   7.143  43.988   2.309
23744W        W95415   4.247  14.786   2.736
23745W        W95416  39.806  24.424  14.015
23746W        W95417  21.055  38.787  14.389
23747W        W95418  36.977  20.222   2.603
23748W        W95419   2.048  32.604   2.620
23749W        W95420  42.733  32.338  10.738
23750W        W95421  19.622  13.322  11.884
23751W        W95422  13.222  31.498   3.009
23752W        W95423  34.000  34.433   0.357
23753W        W95424  30.742  16.683  14.055
23754W        W95425   3.290  37.371  12.506
23755W        W95426  14.835  31.579  13.893
23756W        W95427  10.288   1.972   2.031
23757W        W95428  12.913  16.173  12.036
23758W        W95429   7.874   5.791   0.121
23759W        W95430  12.240  26.197  11.132
23760W        W95431  37.323  22.591  10.728
23761W        W95432  33.556  12.733   1.771
23762W        W95433  30.538  25.480  14.562
23763W        W95434  12.319  30.450   3.636
23764W        W95435  26.170  19.812   3.371
23765W        W95436  22.746  23.214   3.966
23766W        W95437  11.854  42.026  11.660
23767W        W95438  31.586  32.120  10.457
23768W        W95439   9.398  32.857  11.105
23769W        W95440  37.270  28.880   2.752
23770W        W95441   6.171  41.017  13.504
23771W        W95442   6.900  44.743   3.441
23772W        W95443  37.919  25.219   1.471
23773W        W95444   2.055  16.189  10.464
23774W        W95445  11.441  21.709   4.101
23775W        W95446  24.719  17.714  13.134
23776W        W95447  35.849  22.775   4.122
23777W        W95448  19.494  42.284   4.514
23778W        W95449  26.297   1.029  12.034
23779W        W95450  32.038  38.557   1.224
23780W        W95451  29.169  29.964   1.446
23781W        W95452  19.448   8.224  12.069
23782W        W95453  30.146  34.979   2.878
23783W        W95454  20.282   8.239   0.802
23784W        W95455  22.074  23.949   2.818
23785W        W95456  27.889   1.825   4.553
23786W        W95457  21.213  41.334  10.077
23787W        W95458  26.868   8.880   1.926
23788W        W95459   7.225   8.439  12.045
23789W        W95460  28.606  32.521   1.846
23790W        W95461  31.999   0.768  14.817
23791W        W95462  39.440  24.106  13.821
23792W        W95463   7.393   1.987   4.535
23793W        W95464   4.675   0.331  14.661
23794W        W95465  12.349  36.833  14.463
23795W        W95466  12.865  40.486   3.216
23796W        W95467  31.936  11.744   2.643
23797W        W95468  39.913  37.358  10.769
23798W        W95469   6.711  35.844   4.347
23799W        W95470  18.119  22.231   4.713
23800W        W95471   7.270  41.493   4.440
23801W        W95472  14.539  18.578  10.884
23802W        W95473  23.175  41.825   1.461
23803W        W95474   8.646  17.625  13.874
23804W        W95475   5.673  11.848   2.458
23805W        W95476  29.083  13.574  12.055
23806W        W95477  14.663  29.826  11.981
23807W        W95478   7.669  20.565  12.835
23808W        W95479  41.996  41.529  12.963
23809W        W95480  20.331   2.880  11.225
23810W        W95481  44.396  21.275   5.023
23811W        W95482  25.911  42.803  12.998
23812W        W95483  42.290  37.808   2.585
23813W        W95484   3.394  27.669  10.388
23814W        W95485  39.989  41.527  13.287
23815W        W95486  15.722  19.701  12.508
23816W        W95487  27.695   4.378  11.573
23817W        W95488  30.370  28.428  13.347
23818W        W95489   1.921  12.394   3.966
23819W        W95490   5.070  28.972   4.531
23820W        W95491  44.537   2.497  11.959
23821W        W95492  25.032   5.305   1.286
23822W        W95493  30.662  16.796   0.805
23823W        W95494  31.001  22.435   0.221
23824W        W95495  13.168  37.973   4.553
23825W        W95496  32.161  40.387  14.449
23826W        W95497  41.453  13.572   4.178
23827W        W95498  27.964  25.171  13.894
23828W        W95499   2.754  16.989   2.796
23829W        W95500  15.212  35.312   3.279
23830W        W95501  25.656  16.747  14.504
23831W        W95502  16.680  41.625  11.447
23832W        W95503  24.313   6.793  12.447
23833W        W95504  20.151  14.398   3.672
23834W        W95505   9.644  22.962   1.775
23835W        W95506  35.140  38.272  11.010
23836W        W95507  21.851  19.647   1.349
23837W        W95508  29.343  17.102  13.849
23838W        W95509   9.333  23.007   1.169
23839W        W95510  22.523   4.436   1.964
23840W        W95511  24.181   2.398  12.517
23841W        W95512  23.567  12.374   3.659
23842W        W95513  42.776  26.454  14.977
23843W        W95514   2.997  12.848  13.401
23844W        W95515  15.348   8.736   3.408
23845W        W95516  10.543  19.265  10.728
23846W        W95517  39.548   9.416  12.180
23847W        W95518  11.102  24.200  11.640
23848W        W95519  39.904  27.054   4.030
23849W        W95520  14.822  32.909  14.425
23850W        W95521  43.239  21.728  11.660
23851W        W95522  42.361   4.802   1.618
23852W        W95523  23.546  39.065   3.721
23853W        W95524  34.166  28.224   4.513
23854W        W95525  22.998  20.124   2.661
23855W        W95526  39.305   0.330   3.554
23856W        W95527  28.939   6.426  13.785
23857W        W95528  40.561  33.434  14.376
23858W        W95529  37.013  44.280   3.266
23859W        W95530  13.240   7.904   4.835
23860W        W95531   8.846  30.006  13.576
23861W        W95532  24.212  33.437  10.597
23862W        W95533  17.675   4.545  11.995
23863W        W95534  15.223  22.152   3.710
23864W        W95535  16.745   8.905   2.232
23865W        W95536  27.939  41.524  10.142
23866W        W95537  27.208  39.703   4.269
23867W        W95538   3.434  27.965  10.817
23868W        W95539  28.089  35.719   2.640
23869W        W95540  22.056  30.848   0.294
23870W        W95541  13.797   1.824  11.670
23871W        W95542  18.024  17.681   2.040
23872W        W95543   4.368  13.285   3.368
23873W        W95544  34.671  27.979   2.701
23874W        W95545  23.383  25.612   1.753
23875W        W95546  21.191   4.749   1.941
23876W        W95547  24.229  17.816  11.782
23877W        W95548  39.369  38.669   0.382
23878W        W95549   3.453  26.534  10.224
23879W        W95550  39.537  23.203   1.499
23880W        W95551  11.307  42.763   2.145
23881W        W95552  14.523  43.798  14.397
23882W        W95553  41.024  28.529  14.399
23883W        W95554   2.746  41.710   1.163
23884W        W95555  15.696  26.199   4.222
23885W        W95556  25.531  24.480   2.135
23886W        W95557  29.633  13.126  10.775
23887W        W95558  36.284  38.055   2.391
23888W        W95559   7.895   2.672  11.162
23889W        W95560  17.298  29.527  13.017
23890W        W95561  37.790  43.775   1.819
23891W        W95562   9.783  16.010   1.932
23892W        W95563  15.175   7.560  13.237
23893W        W95564  42.802  13.869  14.964
23894W        W95565  42.015  16.702  12.932
23895W        W95566  14.109  16.199   1.684
23896W        W95567   6.606   8.653  11.010
23897W        W95568  33.808  12.686  10.919
23898W        W95569  39.579  37.982  12.461
23899W        W95570  16.478  19.912   2.356
23900W        W95571   5.314  14.946   0.476
23901W        W95572  29.916  43.357   3.380
23902W        W95573  18.234  29.064  12.356
23903W        W95574  19.650  37.549   4.818
23904W        W95575   2.740   9.683  10.655
23905W        W95576  40.955  19.304  14.477
23906W        W95577   1.319  41.120  11.780
23907W        W95578  35.977  33.367  12.582
23908W        W95579  32.121  14.603   4.012
23909W        W95580  24.591  26.136  13.594
23910W        W95581  20.762  19.927   0.818
23911W        W95582  15.603  28.601   3.015
23912W        W95583  22.777  15.998   3.801
23913W        W95584  17.755   8.319  12.549
23914W        W95585  32.173  43.592  12.863
23915W        W95586   0.508  29.509   2.230
23916W        W95587  12.229  29.543  14.362
23917W        W95588   7.087  29.287   2.439
23918W        W95589   5.953  25.493   0.320
23919W        W95590   5.244  16.855  12.609
23920W        W95591   0.834   5.498   0.879
23921W        W95592  28.289  44.469   4.532
23922W        W95593  32.575   4.251   0.801
23923W        W95594  21.780  35.046   0.274
23924W        W95595   6.750  23.947  12.597
23925W        W95596  28.984  21.038  12.978
23926W        W95597  30.437  11.811   2.782
23927W        W95598  19.089  22.471  14.436
23928W        W95599   5.428  42.755  10.605
23929W        W95600  43.995  43.519  11.546
23930W        W95601  18.769  29.218  11.101
23931W        W95602  29.180  22.656  13.468
23932W        W95603  43.495  36.953  10.492
23933W        W95604   6.302  20.503   3.802
23934W        W95605  37.354  43.328   0.678
23935W        W95606   0.994  39.448  11.913
23936W        W95607  19.408  21.853   4.678
23937W        W95608  28.174  34.419  14.900
23938W        W95609  13.320  27.426  14.984
23939W        W95610   8.249  19.246   2.315
23940W        W95611  26.164   9.155  11.464
23941W        W95612  21.770  26.751   4.858
23942W        W95613  34.421   9.288   3.867
23943W        W95614  40.891  24.484  11.568
23944W        W95615  30.493  19.421  11.100
23945W        W95616  29.575  12.411   0.672
23946W        W95617  24.667   5.774   1.438
23947W        W95618  44.509  29.314   4.180
23948W        W95619  29.805  27.320  12.502
23949W        W95620  29.872  40.765  12.448
23950W        W95621  32.678  11.661  10.864
23951W        W95622  37.482   8.659   3.686
23952W        W95623  27.770  17.792   1.339
23953W        W95624  15.560  22.666   4.248
23954W        W95625  16.797  40.472   1.836
23955W        W95626  44.020  39.875  12.351
23956W        W95627   9.678  40.019  10.653
23957W        W95628  41.566  27.697   0.675
23958W        W95629  15.596  17.899   3.887
23959W        W95630  30.453  18.799  13.812
23960W        W95631  17.332  32.392  11.716
23961W        W95632  39.440  31.532  14.420
23962W        W95633  18.918  12.825   4.490
23963W        W95634   7.196  24.949   2.768
23964W        W95635  42.495   7.485   1.694
23965W        W95636  28.685  38.015  10.459
23966W        W95637  12.301  30.980   3.539
23967W        W95638  27.729  26.943   3.941
23968W        W95639   0.721  26.581   5.227
23969W        W95640   9.956  10.782  13.504
23970W        W95641  11.701  42.800   1.413
23971W        W95642  17.590  44.538  13.576
23972W        W95643   2.219  29.058  14.743
23973W        W95644  26.881  37.127  12.487
23974W        W95645  34.031  10.842  10.452
23975W        W95646  37.118  23.608   3.236
23976W        W95647  19.798   3.476  11.600
23977W        W95648   2.543  14.609  12.870
23978W        W95649  40.224  12.141  11.748
23979W        W95650  40.566  30.051  14.289
23980W        W95651  11.094  31.887  14.060
23981W        W95652   1.069  42.011   1.647
23982W        W95653   1.405  23.723  10.868
23983W        W95654   7.219  43.892  11.137
23984W        W95655  44.511  28.883   1.001
23985W        W95656  15.733  42.970   1.183
23986W        W95657  13.901   8.218  12.870
23987W        W95658  35.867  22.939   4.612
23988W        W95659  16.571  22.036  12.051
23989W        W95660  16.272  37.327   4.482
23990W        W95661  23.473  29.564   0.857
23991W        W95662   6.185  19.277  13.342
23992W        W95663  25.582   9.891  12.342
23993W        W95664  31.584  44.331   2.391
23994W        W95665  43.990  28.728  13.936
23995W        W95666   5.642  18.543  13.294
23996W        W95667  27.398   1.514  14.442
23997W        W95668  31.623  38.618  12.916
23998W        W95669   1.342   6.158   4.292
23999W        W95670  16.752  35.621   4.270
24000W        W95671  12.510  42.009   0.736
24001W        W95672  17.719  14.176  11.906
24002W        W95673   4.736  43.083   0.328
24003W        W95674   0.020  19.195   0.375
24004W        W95675   3.655  25.107  13.422
24005W        W95676  17.199  16.413   3.371
24006W        W95677  43.757  32.601   0.298
24007W        W95678  27.063  41.752  14.826
24008W        W95679  19.914  19.776  11.607
24009W        W95680  21.431   2.401  10.636
24010W        W95681  31.537  23.483  12.830
24011W        W95682  11.784  23.581   1.015
24012W        W95683  34.484   4.443  12.940
24013W        W95684  14.288  13.675  13.039
24014W        W95685  13.674  11.921   3.148
24015W        W95686  22.592  33.758  11.513
24016W        W95687  27.442  18.791  13.846
24017W        W95688  21.701  22.420  11.159
24018W        W95689  26.879  25.583   0.356
24019W        W95690  17.794  26.467  10.517
24020W        W95691  43.445   8.798   2.262
24021W        W95692  14.942  41.560  12.996
24022W        W95693  29.407  32.949   2.330
24023W        W95694  32.421  25.066   0.933
24024W        W95695  44.014  37.420   4.545
24025W        W95696  23.615  32.674  10.713
24026W        W95697  22.426  29.520   2.875
24027W        W95698   1.861   7.477   3.177
24028W        W95699   2.873  21.730   4.177
24029W        W95700  41.020   9.784   4.503
24030W        W95701  10.401  25.097   2.656
24031W        W95702  34.532   1.206   1.365
24032W        W95703  12.631  35.531   0.534
24033W        W95704   8.101  24.189   2.216
24034W        W95705  44.328  31.852   0.481
24035W        W95706  34.182  39.024   0.317
24036W        W95707  41.858   9.836  10.665
24037W        W95708  31.172  44.625   0.436
24038W        W95709  26.636   4.825   1.762
24039W        W95710   6.816   0.336   4.600
24040W        W95711  20.845  42.006   2.669
24041W        W95712  37.530  24.182  12.665
24042W        W95713  10.082   9.882  14.338
24043W        W95714  35.430   5.691   3.377
24044W        W95715   4.686  19.284  14.934
24045W        W95716   3.034  10.323  14.595
24046W        W95717  37.482   9.159   3.871
24047W        W95718  41.041  15.842  11.989
24048W        W95719   3.768  22.470  14.045
24049W        W95720  28.964   7.763  14.594
24050W        W95721  10.319  20.972  13.349
24051W        W95722   9.694  27.682   2.675
24052W        W95723  22.275   7.835  12.422
24053W        W95724  29.992  21.142   5.107
24054W        W95725  20.896  28.988   1.872
24055W        W95726  15.212  35.960  11.376
24056W        W95727  33.455  11.904  14.539
24057W        W95728  16.053  37.062   0.381
24058W        W95729  40.492  19.201   0.405
24059W        W95730  14.883  25.345  12.894
24060W        W95731  31.728  29.047  12.533
24061W        W95732  42.616   6.890   1.287
24062W        W95733   9.688  19.747   3.238
24063W        W95734   5.454  25.517   2.772
24064W        W95735  17.896  18.813  14.135
24065W        W95736  32.535  32.877   2.762
24066W        W95737   5.967  33.983   2.876
24067W        W95738  19.518  14.220  13.671
24068W        W95739  15.855   8.606  14.297
24069W        W95740   2.031  11.664  14.804
24070W        W95741  25.549   6.482  14.444
24071W        W95742  14.219  40.273  13.069
24072W        W95743  29.004   4.114  13.748
24073W        W95744  37.899  20.757   1.776
24074W        W95745  12.568   9.165  13.248
24075W        W95746   9.538   0.811   1.675
24076W        W95747   4.207  19.359   3.891
24077W        W95748   3.925   7.250   3.322
24078W        W95749  41.507  22.581  13.018
24079W        W95750  10.661  33.855  13.241
24080W        W95751  31.904  11.185  14.000
24081W        W95752  44.753  11.664   1.287
24082W        W95753  29.857   2.026  13.866
24083W        W95754   3.311  19.140  10.362
24084W        W95755  30.561  26.440  14.439
24085W        W95756  30.959  26.020   0.394
24086W        W95757  33.303  14.751  14.737
24087W        W95758   0.370  33.634   0.863
24088W        W95759  37.046  14.278  14.450
24089W        W95760  32.904  40.932   3.795
24090W        W95761  30.449  20.160  14.672
24091W        W95762  37.558  22.574   4.544
24092W        W95763  37.111  32.349   0.948
24093W        W95764  29.937  39.383   4.001
24094W        W95765  38.786  33.726   3.118
24095W        W95766   3.402  25.554  10.943
24096W        W95767   8.724  16.985  11.041
24097W        W95768  22.565  41.757  12.026
24098W        W95769   7.414  39.307   3.627
24099W        W95770  37.383   4.421  10.786
24100W        W95771  29.313  34.544  13.992
24101W        W95772  35.357  34.472   1.023
24102W        W95773  44.515  15.287  13.697
24103W        W95774  17.330  15.219  14.847
24104W        W95775  17.012  22.265  12.104
24105W        W95776  19.343  34.758   0.494
24106W        W95777  29.016  29.074  12.434
24107W        W95778  41.349  24.198   0.931
24108W        W95779  31.665  14.749   4.502
24109W        W95780  22.526  36.537  12.997
24110W        W95781  20.966   3.664  13.475
24111W        W95782  36.947  17.607   2.880
24112W        W95783   7.865  27.148  14.463
24113W        W95784  11.207  14.694   1.649
24114W        W95785  37.368  21.259  13.334
24115W        W95786  33.935   7.354   4.513
24116W        W95787  10.598   9.879  14.314
24117W        W95788  30.563  21.037  10.207
24118W        W95789  21.054  12.928  12.426
24119W        W95790   9.577  35.067   3.734
24120W        W95791  30.527  13.770   3.428
24121W        W95792  14.799   3.256  13.864
24122W        W95793  26.219   8.901  12.860
24123W        W95794  25.658   6.951   1.959
24124W        W95795  38.580  35.886  12.514
24125W        W95796  42.718  37.859  10.399
24126W        W95797  37.071   4.847   4.590
24127W        W95798  34.430  39.947   3.252
24128W        W95799  34.411  17.408   1.802
24129W        W95800  15.439  43.378   1.300
24130W        W95801   2.255  42.313  13.972
24131W        W95802  37.896  37.002   4.722
24132W        W95803  44.944  31.709  14.519
24133W        W95804   4.198  25.532   4.442
24134W        W95805  42.469  44.296  13.469
24135W        W95806  19.657   5.193   4.309
24136W        W95807  41.336  18.145   3.583
24137W        W95808   7.929  37.955  14.459
24138W        W95809   0.553   4.823  13.988
24139W        W95810  40.632  11.202   2.233
24140W        W95811   6.879  25.493   3.668
24141W        W95812  38.358   9.229   3.770
24142W        W95813  33.627  18.624   0.274
24143W        W95814   1.124  37.536  11.608
24144W        W95815   1.950  24.616  12.661
24145W        W95816   2.818  23.888  12.808
24146W        W95817  21.189  31.375  14.921
24147W        W95818   5.622   6.807  12.116
24148W        W95819  14.772  38.359   1.303
24149W        W95820  36.412  32.563  13.886
24150W        W95821  33.158  36.983   3.238
24151W        W95822  35.077   4.006  11.713
24152W        W95823  28.092   5.809   3.854
24153W        W95824  40.431  39.922   4.223
24154W        W95825  38.470   7.964   0.006
24155W        W95826  37.513  34.270   0.910
24156W        W95827  32.294   7.690  10.608
24157W        W95828  37.848  26.503   1.758
24158W        W95829   9.182   2.677   2.766
24159W        W95830   5.454  34.590  14.030
24160W        W95831  23.036  18.270  14.905
24161W        W95832   8.325  12.560   1.417
24162W        W95833  42.569  33.459   4.129
24163W        W95834   5.874  34.654  13.564
24164W        W95835   1.875   1.972  10.667
24165W        W95836  21.077  23.083   0.512
24166W        W95837  11.440  37.492   2.745
24167W        W95838  42.570  34.900  12.038
24168W        W95839  25.121  18.133   2.362
24169W        W95840  11.135   5.702  11.075
24170W        W95841  15.779   5.261   1.314
24171W        W95842  15.317  21.587  14.676
24172W        W95843   8.182  29.196   1.361
24173W        W95844  17.280  43.777  13.978
24174W        W95845  18.757  10.444  14.782
24175W        W95846  24.988   6.648  13.367
24176W        W95847  21.896  12.154  10.667
24177W        W95848  40.047  43.750  11.895
24178W        W95849  38.391  11.455  13.067
24179W        W95850   2.802  18.794  14.409
24180W        W95851  37.859  23.524   1.366
24181W        W95852  15.265  36.043   0.798
24182W        W95853   7.650  43.029   3.031
24183W        W95854  15.708  12.065   4.461
24184W        W95855  24.559  12.254   1.302
24185W        W95856  18.282  42.798  14.002
24186W        W95857   2.001  38.083  13.891
24187W        W95858  18.610   3.887  11.449
24188W        W95859   1.306  25.473   4.081
24189W        W95860  41.727   1.726   0.470
24190W        W95861  22.689   9.174  14.385
24191W        W95862   2.303   2.979  13.913
24192W        W95863  37.585  16.653   3.930
24193W        W95864  44.961  39.545   5.074
24194W        W95865  26.521  12.432   0.801
24195W        W95866  42.502  39.555   1.880
24196W        W95867  36.644  32.969   2.396
24197W        W95868  13.279  21.605  13.434
24198W        W95869  44.257   2.000   1.848
24199W        W95870  38.518  19.280   3.270
24200W        W95871   8.111   6.876  12.953
24201W        W95872  22.276  30.659   3.697
24202W        W95873   6.470   9.885  13.577
24203W        W95874  36.278  42.052   2.719
24204W        W95875  25.773   4.829   2.451
24205W        W95876   9.849  24.758   2.325
24206W        W95877  33.489  30.124   4.612
24207W        W95878  14.134  13.993  11.319
24208W        W95879  17.459  10.929  11.084
24209W        W95880  35.055  27.394   1.373
24210W        W95881  31.408  26.508  12.121
24211W        W95882  32.738  39.014   1.633
24212W        W95883  33.500  26.298   0.218
24213W        W95884   7.719  44.311  11.173
24214W        W95885  11.003  44.595  13.067
24215W        W95886  32.622  23.955   4.871
24216W        W95887  38.567   9.645  12.003
24217W        W95888  18.099  39.405   1.937
24218W        W95889  21.512  15.748   3.755
24219W        W95890  31.866   9.832   3.702
24220W        W95891  23.900  12.397  11.658
24221W        W95892   0.646  27.175  11.865
24222W        W95893  16.591  10.486  10.355
24223W        W95894  42.144  22.235   1.263
24224W        W95895  29.181  26.568   4.289
24225W        W95896  32.490   6.640   1.709
24226W        W95897   5.783  17.615  12.056
24227W        W95898   0.715  22.211  13.800
24228W        W95899  28.177  14.748   0.754
24229W        W95900  30.146  41.990  12.576
24230W        W95901  31.674  21.183  12.970
24231W        W95902   2.737  41.570   1.662
24232W        W95903  19.128  27.221  11.424
24233W        W95904   6.624   3.963  14.547
24234W        W95905  21.305  15.261   1.328
24235W        W95906  20.675  19.430   0.971
24236W        W95907  15.688  23.417  14.145
24237W        W95908  22.572  20.127   2.373
24238W        W95909   4.754   5.449  14.384
24239W        W95910  17.809  26.189   0.814
24240W        W95911  12.385   5.407   4.565
24241W        W95912  36.059  44.880   3.712
24242W        W95913   1.841   2.786   4.379
24243W        W95914  11.924  29.472   4.484
24244W        W95915  12.610  26.267  10.779
24245W        W95916  10.342   2.423  13.345
24246W        W95917   4.820  20.876   1.569
24247W        W95918  30.331  20.336   4.586
24248W        W95919  32.414  22.294  12.007
24249W        W95920  27.766   5.038  12.921
24250W        W95921  21.483  10.272   9.791
24251W        W95922  30.218  15.037   0.258
24252W        W95923  28.734  20.014   1.531
24253W        W95924  41.858  36.458  11.496
24254W        W95925   6.949  24.554   2.081
24255W        W95926  39.693  16.812   1.373
24256W        W95927  14.099  18.217  12.107
24257W        W95928  18.997  41.365   1.244
24258W        W95929   9.651   7.349  13.793
24259W        W95930   3.385  16.829   1.438
24260W        W95931   8.850  15.037  11.533
24261W        W95932  13.778  13.582  13.816
24262W        W95933  38.918  17.225  14.341
24263W        W95934   5.016  11.610   0.230
24264W        W95935  16.758  18.159   3.647
24265W        W95936  12.890  38.845   4.676
24266W        W95937  33.474  42.548  11.073
24267W        W95938  17.806  40.379   1.929
24268W        W95939  27.962  30.428  14.695
24269W        W95940  44.502  28.902  13.935
24270W        W95941   0.852  29.161  12.924
24271W        W95942   9.905  15.278   3.776
24272W        W95943  38.594  37.185  12.504
24273W        W95944  12.414  36.059   2.311
24274W        W95945  17.284  41.537   0.421
24275W        W95946   6.472  33.818   2.018
24276W        W95947  10.458   8.989   4.121
24277W        W95948  39.931  30.794  10.595
24278W        W95949  23.951  38.405  12.480
24279W        W95950  41.756  39.773  12.337
24280W        W95951  16.229  41.787   0.015
24281W        W95952  18.150  12.221   2.877
24282W        W95953  19.645   7.606  14.394
24283W        W95954  22.396  37.038  12.977
24284W        W95955  35.689  23.714   1.213
24285W        W95956  13.253  42.645   4.507
24286W        W95957  42.704  21.508   1.057
24287W        W95958   4.823  21.555   5.075
24288W        W95959   2.839   6.391  10.622
24289W        W95960  40.708   0.869  11.410
24290W        W95961  26.974   5.269   3.887
24291W        W95962  40.310   2.393   1.443
24292W        W95963  19.945  26.152  11.319
24293W        W95964  32.982   1.051  13.824
24294W        W95965  34.586  33.707   2.951
24295W        W95966  33.807   0.083  10.573
24296W        W95967  41.782  13.852   0.334
24297W        W95968  12.122  14.075  12.519
24298W        W95969  13.194  12.044   1.247
24299W        W95970  38.237  25.773  14.933
24300W        W95971   0.307  43.443   4.831
24301W        W95972  36.153   7.963   4.148
24302W        W95973  44.313  34.630   0.664
24303W        W95974  14.208  31.460  10.683
24304W        W95975  40.353  44.929   0.191
24305W        W95976  36.959  25.145   0.015
24306W        W95977  36.994  13.886  14.113
24307W        W95978  24.651  20.320  12.897
24308W        W95979  23.472  26.981  10.932
24309W        W95980   3.849  12.814   2.738
24310W        W95981  34.566   8.668   4.246
24311W        W95982  39.847  34.937  13.753
24312W        W95983  14.938  21.211  14.502
24313W        W95984  41.602  41.479  11.436
24314W        W95985  36.880  21.669   0.944
24315W        W95986   8.663   5.198  11.668
24316W        W95987  35.506   0.020  14.900
24317W        W95988  41.005  22.204  13.011
24318W        W95989  16.519  40.807   0.760
24319W        W95990  14.869  15.614  13.031
24320W        W95991  44.667   2.414  11.470
24321W        W95992  40.575  12.327   1.214
24322W        W95993  31.519  12.822  13.419
24323W        W95994  23.909   1.417  10.812
24324W        W95995  40.197  41.768   1.218
24325W        W95996   8.592  40.063   0.405
24326W        W95997  37.979  13.118  12.286
24327W        W95998  29.000  17.659   3.338
24328W        W95999   0.173  31.092   2.343
24329W        W96000  10.269  28.522  14.018
24330W        W96001   7.394  30.861  11.125
24331W        W96002  22.965   6.062   4.242
24332W        W96003  41.184  27.673   2.092
24333W        W96004   3.288  35.091  12.568
24334W        W96005   5.531  17.874   2.795
24335W        W96006  31.051  25.747  14.821
24336W        W96007  28.055   1.243  13.392
24337W        W96008  19.975  39.443  13.810
24338W        W96009  22.981  33.089  14.217
24339W        W96010  30.323   4.218   0.119
24340W        W96011  31.097  41.840   3.204
24341W        W96012  31.332   4.299   0.452
24342W        W96013  27.510  40.475   3.668
24343W        W96014  10.882  33.587   0.962
24344W        W96015   0.888  33.561   0.789
24345W        W96016  18.608  34.217  14.498
24346W        W96017  35.339   5.819  12.570
24347W        W96018  33.366  33.417  12.880
24348W        W96019  15.641  21.192  13.347
24349W        W96020  14.097  14.857  13.584
24350W        W96021  11.644  32.676   2.311
24351W        W96022  19.691   3.814  12.835
24352W        W96023   7.396  36.593  13.506
24353W        W96024  36.118  11.827  11.186
24354W        W96025  22.633  32.054   0.936
24355W        W96026  15.465  36.981  14.413
24356W        W96027  17.166   8.344  11.097
24357W        W96028  34.011   4.639   4.686
24358W        W96029  23.534  23.766  13.129
24359W        W96030  33.666  16.587  11.992
24360W        W96031   2.580  22.131   5.322
24361W        W96032  13.136   4.392   4.628
24362W        W96033  36.886   1.787  14.856
24363W        W96034  44.760  12.622   0.700
24364W        W96035  19.650  10.553  13.830
24365W        W96036   1.431  27.234   1.912
24366W        W96037  20.300  31.831   4.399
24367W        W96038  20.162  44.038  13.034
24368W        W96039  30.071  32.924  11.150
24369W        W96040  19.623  17.930   4.511
24370W        W96041  21.201   8.830   0.104
24371W        W96042  43.182   1.794   1.022
24372W        W96043  26.080  38.244   3.667
24373W        W96044  23.061   5.929  11.598
24374W        W96045  15.766  13.915  12.636
24375W        W96046  37.540  20.061  13.393
24376W        W96047  30.487  13.588  11.125
24377W        W96048   6.479  43.174  12.864
24378W        W96049   0.665  16.683  11.076
24379W        W96050  26.536  41.541   2.430
24380W        W96051   5.704  10.889  11.413
24381W        W96052   8.303   7.335   1.106
24382W        W96053  39.697  19.766  13.705
24383W        W96054  26.051  32.463  12.500
24384W        W96055  13.242  41.166   2.215
24385W        W96056  38.551  18.667  11.043
24386W        W96057  21.267   1.905  12.399
24387W        W96058  38.658  10.629   0.254
24388W        W96059   8.770  39.267   3.192
24389W        W96060   9.348  10.669  14.986
24390W        W96061   6.845  24.081  10.785
24391W        W96062  40.889  22.611  10.438
24392W        W96063  32.330  43.968  13.984
24393W        W96064  35.859  17.868   0.284
24394W        W96065  30.051  44.147   2.681
24395W        W96066  30.425  10.201  14.017
24396W        W96067  27.224  36.915   2.366
24397W        W96068  13.137  38.945   2.082
24398W        W96069  30.343  28.734  12.023
24399W        W96070  15.683  20.016   0.469
24400W        W96071  44.751  26.097   1.189
24401W        W96072  31.206   9.555   1.163
24402W        W96073  28.651  36.173  14.484
24403W        W96074  18.009  42.398   4.280
24404W        W96075  28.213  26.710  12.127
24405W        W96076  35.869  11.871   2.272
24406W        W96077  38.895  10.785  11.457
24407W        W96078   8.845   9.428  12.288
24408W        W96079  33.730   1.205   4.338
24409W        W96080  20.172  12.352   4.710
24410W        W96081  11.175  36.459   4.660
24411W        W96082  18.331  31.257  12.148
24412W        W96083  23.113  14.134  13.500
24413W        W96084  32.116  43.933  11.914
24414W        W96085   5.231  25.571   2.228
24415W        W96086  18.220  10.437   3.648
24416W        W96087  15.071   6.892   2.858
24417W        W96088  18.450   3.919   0.377
24418W        W96089   5.915  28.811   4.769
24419W        W96090  26.686   3.848   2.784
24420W        W96091   1.449   1.826  10.954
24421W        W96092  42.277  29.927   0.950
24422W        W96093   2.520  22.534   4.965
24423W        W96094  10.753  28.313   0.423
24424W        W96095  19.524  24.625   0.711
24425W        W96096  33.645  13.174   3.725
24426W        W96097  34.197  38.069  14.824
24427W        W96098   9.028  23.305   0.844
24428W        W96099   7.096  16.355  14.389
24429W        W96100  43.342  38.934  10.793
24430W        W96101   0.117  23.535   9.452
24431W        W96102  12.208   2.395  10.540
24432W        W96103  24.960   0.344  14.467
24433W        W96104  42.158  16.531   4.584
24434W        W96105  36.815  43.236   3.279
24435W        W96106   1.803  43.261  13.597
24436W        W96107   2.199  11.106  13.372
24437W        W96108  10.425  33.941  11.310
24438W        W96109  24.027  37.714   2.488
24439W        W96110  28.615  11.669  12.863
24440W        W96111   5.880  13.798   0.292
24441W        W96112  20.987  18.488  11.481
24442W        W96113  19.304  13.059  14.411
24443W        W96114  25.909  21.812   3.120
24444W        W96115   8.635  17.763   3.325
24445W        W96116   5.057  14.801   0.037
24446W        W96117  13.964  36.465   4.308
24447W        W96118  24.168  34.530  13.576
24448W        W96119   4.345   8.243   1.923
24449W        W96120  38.846  31.117  13.143
24450W        W96121  33.362   0.360  12.955
24451W        W96122  35.477  34.467   4.528
24452W        W96123  30.000  13.403  11.195
24453W        W96124  36.590  41.252  11.394
24454W        W96125   3.832  36.159   5.220
24455W        W96126   3.212  17.112   0.945
24456W        W96127  17.200  27.981  12.519
24457W        W96128  29.367  14.224  12.036
24458W        W96129  42.783  28.557   3.128
24459W        W96130  33.524   1.896  12.133
24460W        W96131   1.955  14.302   2.615
24461W        W96132   6.935  10.249  13.974
24462W        W96133  24.067   8.602   1.227
24463W        W96134  13.166  26.476  10.970
24464W        W96135  35.264  29.546   4.353
24465W        W96136  28.874  28.647   4.189
24466W        W96137  36.685  29.084   1.519
24467W        W96138  16.488  27.071   2.155
24468W        W96139  28.675  44.700  12.952
24469W        W96140  43.560  13.373   0.495
24470W        W96141   3.088   3.667   4.040
24471W        W96142   5.982  18.766   0.438
24472W        W96143   9.925  10.600  10.955
24473W        W96144  31.682  15.918   0.555
24474W        W96145  27.043  10.406   3.832
24475W        W96146  32.532   8.466   0.375
24476W        W96147  17.689  23.645  13.798
24477W        W96148  28.943  16.209  12.056
24478W        W96149   2.510  20.008   1.187
24479W        W96150  19.546  16.452  13.158
24480W        W96151  20.737   8.481   2.257
24481W        W96152   3.845  28.423  11.257
24482W        W96153  40.589  36.370   3.360
24483W        W96154  25.696   2.355  11.571
24484W        W96155  34.138  22.860   2.810
24485W        W96156  22.624  35.337   3.780
24486W        W96157  16.513  29.382  13.440
24487W        W96158  32.390  27.477   4.779
24488W        W96159  20.824  41.803  11.504
24489W        W96160  36.572  24.914   1.665
24490W        W96161  37.927  24.867   2.973
24491W        W96162   9.961   8.185   1.740
24492W        W96163  29.109   5.220  14.471
24493W        W96164  27.699   9.870  13.853
24494W        W96165  33.676  19.546   2.794
24495W        W96166  35.779   6.808  13.923
24496W        W96167  24.962  21.195  13.450
24497W        W96168  15.348  28.695  11.582
24498W        W96169  28.431  40.378   2.601
24499W        W96170  10.666   3.923   2.355
24500W        W96171  15.270  17.905   1.771
24501W        W96172  34.941  37.363   0.845
24502W        W96173  22.636  37.314   0.054
24503W        W96174  40.609   4.306  12.131
24504W        W96175   4.322  15.835   2.733
24505W        W96176  36.951  24.082  10.911
24506W        W96177  21.489  40.004  12.349
24507W        W96178  24.021   2.189   2.793
24508W        W96179  20.288  44.192   2.708
24509W        W96180  40.267   6.815  13.592
24510W        W96181  36.194  10.221  11.944
24511W        W96182  32.910   2.856   4.013
24512W        W96183  29.235  33.086   0.294
24513W        W96184  44.984  35.415  13.971
24514W        W96185  30.434  36.995   4.166
24515W        W96186   4.231  12.033  11.888
24516W        W96187  11.720   3.950  14.252
24517W        W96188  15.340  32.984   1.324
24518W        W96189  36.670  24.480   3.794
24519W        W96190  35.366  25.041   4.093
24520W        W96191  15.758  34.630  14.051
24521W        W96192  41.414  20.114  12.906
24522W        W96193  36.490  31.805  13.295
24523W        W96194  33.440  19.253   4.036
24524W        W96195  43.476  37.888  13.577
24525W        W96196  38.301  29.102   2.264
24526W        W96197  21.999  30.950   1.210
24527W        W96198  44.488  11.165   1.302
24528W        W96199   7.277   5.306   3.421
24529W        W96200  34.840  18.825   2.411
24530W        W96201  15.856  12.747   0.642
24531W        W96202  20.030  30.427  11.941
24532W        W96203  25.566  18.194  14.430
24533W        W96204  28.043  13.712  14.840
24534W        W96205  29.094  43.435   3.578
24535W        W96206  35.871  30.936  11.649
24536W        W96207  21.353  29.284   1.890
24537W        W96208  32.859  33.053  11.579
24538W        W96209  43.926  16.726  14.863
24539W        W96210  38.798  13.788   1.466
24540W        W96211  22.653  30.569  12.765
24541W        W96212  40.950  10.266  10.545
24542W        W96213   2.855  12.157   1.998
24543W        W96214  43.439  18.536   3.514
24544W        W96215  10.224  34.398   1.866
24545W        W96216   2.290   2.091   3.243
24546W        W96217   4.723   1.495   3.808
24547W        W96218  20.103  12.742  13.983
24548W        W96219  34.579  29.021   2.744
24549W        W96220   4.829   0.278   0.816
24550W        W96221   2.754   2.331   0.422
24551W        W96222  37.475   3.901  14.538
24552W        W96223  35.280  41.273   3.756
24553W        W96224  20.738  20.260  10.852
24554W        W96225  25.877  12.524  11.491
24555W        W96226  31.808  34.547  13.958
24556W        W96227  26.659  44.442   2.314
24557W        W96228  23.737  17.739  11.945
24558W        W96229  33.150  27.036   2.246
24559W        W96230  10.333  33.391  12.178
24560W        W96231  32.120   7.817  11.521
24561W        W96232  10.866  21.487   1.807
24562W        W96233  40.168   0.729  10.681
24563W        W96234  36.086  38.268   0.307
24564W        W96235  16.498  30.947  12.888
24565W        W96236  15.781  27.462  11.323
24566W        W96237  22.631  23.229  12.824
24567W        W96238  12.816  22.614  12.136
24568W        W96239  14.277  12.678  12.993
24569W        W96240  38.074  41.419   4.154
24570W        W96241  11.847  19.085  13.368
24571W        W96242  34.029   6.330   2.456
24572W        W96243  19.286  44.123   0.447
24573W        W96244  33.215   6.900   2.136
24574W        W96245  37.800   0.007   3.138
24575W        W96246  25.109   8.727  13.818
24576W        W96247   8.103  25.715   3.606
24577W        W96248   0.227   2.054   2.284
24578W        W96249  26.450  44.207   1.889
24579W        W96250  28.934  12.038  13.070
24580W        W96251  10.644  32.458  12.529
24581W        W96252  33.241  11.221   4.024
24582W        W96253  19.587  34.375   0.774
24583W        W96254  30.937  35.056  14.863
24584W        W96255   8.335  35.619   3.136
24585W        W96256  38.288  27.175   2.310
24586W        W96257  21.236  41.932   0.276
24587W        W96258  30.007  31.990  11.973
24588W        W96259  23.102   3.706  13.451
24589W        W96260  34.314   5.714  11.394
24590W        W96261  23.666   7.877   3.328
24591W        W96262  31.980  43.483   0.227
24592W        W96263   6.141   0.228  10.796
24593W        W96264   2.288  44.084   0.286
24594W        W96265  14.290  18.262   4.573
24595W        W96266  43.224  36.197  14.363
24596W        W96267  17.097   9.110  11.719
24597W        W96268  36.073   9.960   4.127
24598W        W96269  13.104   4.817  13.045
24599W        W96270  19.810  22.692  11.575
24600W        W96271  11.171  19.995   4.361
24601W        W96272  22.627  26.231   1.296
24602W        W96273  44.031  25.807  11.373
24603W        W96274  23.149  12.783   2.399
24604W        W96275  33.316  24.440  10.768
24605W        W96276   1.769  17.947  11.586
24606W        W96277  44.225  13.299   5.381
24607W        W96278  15.644  15.781   2.430
24608W        W96279   6.287  23.043   4.501
24609W        W96280  41.508   8.120  11.209
24610W        W96281  14.777  20.001   0.892
24611W        W96282  23.999  34.037   4.174
24612W        W96283  26.679   7.089  10.956
24613W        W96284  36.612  13.229  10.446
24614W        W96285  44.613  16.190  14.335
24615W        W96286  10.329  41.959   2.613
24616W        W96287  33.538   7.477   1.129
24617W        W96288  44.048  39.176   9.741
24618W        W96289  36.906   0.829   4.365
24619W        W96290   4.091  35.968  12.133
24620W        W96291   3.298  44.297   3.171
24621W        W96292  28.268  13.662  11.372
24622W        W96293   7.986  27.067  12.479
24623W        W96294  20.977  11.142  13.409
24624W        W96295  22.546   6.912  14.059
24625W        W96296  27.540  14.757  14.743
24626W        W96297  16.773  44.808  13.091
24627W        W96298  25.666   6.679   5.348
24628W        W96299  28.536  17.274   1.466
24629W        W96300   5.813   7.312  11.195
24630W        W96301  26.026  41.547  13.295
24631W        W96302  38.041   2.340  14.265
24632W        W96303  16.032  35.100  14.005
24633W        W96304  12.176   0.794   3.779
24634W        W96305  21.572  25.614  11.424
24635W        W96306  20.963   8.981   1.945
24636W        W96307  38.953   0.723   3.653
24637W        W96308  33.184   4.616  11.007
24638W        W96309  31.122  15.204  10.678
24639W        W96310  41.908   1.013  10.665
24640W        W96311  21.702  42.112   3.743
24641W        W96312  43.525   4.817   1.255
24642W        W96313  40.842  33.390   2.683
24643W        W96314  36.793  15.175  14.544
24644W        W96315  27.142  34.950  11.006
24645W        W96316  33.893  16.610   3.929
24646W        W96317  18.841  22.617  11.552
24647W        W96318  30.416  17.839   0.965
24648W        W96319  25.315  27.421  12.903
24649W        W96320   5.863   2.264   0.429
24650W        W96321  42.935  27.622  13.366
24651W        W96322  24.319  44.171   0.436
24652W        W96323  36.035  38.869  13.368
24653W        W96324  19.201  16.165   1.287
24654W        W96325  26.223  19.476  13.537
24655W        W96326  30.377  19.696   3.092
24656W        W96327  30.812  14.365   4.850
24657W        W96328  11.296  11.865   2.230
24658W        W96329  44.840  23.258   5.607
24659W        W96330  18.124  29.805   4.222
24660W        W96331  13.738  10.128   2.851
24661W        W96332  30.557  20.269   1.788
24662W        W96333  34.081  24.574   1.781
24663W        W96334   0.865   2.789   1.398
24664W        W96335  28.469   5.418   2.574
24665W        W96336  39.136  19.729   2.644
24666W        W96337  26.970  42.239   3.980
24667W        W96338   2.167  39.389  14.855
24668W        W96339  24.811   7.398   4.928
24669W        W96340   1.349  30.049   4.574
24670W        W96341  13.651   3.347  12.442
24671W        W96342  22.021  27.459   2.339
24672W        W96343   6.519  27.674  10.756
24673W        W96344  20.503  20.556   1.769
24674W        W96345  25.258  41.279   1.870
24675W        W96346  39.823   4.141  11.577
24676W        W96347   0.284   1.226   3.515
24677W        W96348  14.405  43.368   4.970
24678W        W96349  12.841  41.947   3.794
24679W        W96350  35.610  14.548  10.472
24680W        W96351  11.922  24.419  13.771
24681W        W96352   1.142  20.804   4.544
24682W        W96353  17.255  26.368   2.202
24683W        W96354  16.133   5.580   2.504
24684W        W96355  44.204  30.440   2.842
24685W        W96356   7.208  15.877   2.285
24686W        W96357   8.601  26.186   0.959
24687W        W96358  42.459  20.587  14.902
24688W        W96359   3.173   6.892   4.890
24689W        W96360  24.182  15.902   3.689
24690W        W96361   9.681  18.736   2.389
24691W        W96362  29.623   0.915   0.151
24692W        W96363  22.476  28.638  13.607
24693W        W96364  17.049  22.066   0.777
24694W        W96365  31.355  20.052   4.515
24695W        W96366  28.134   2.705   3.796
24696W        W96367  18.662  14.254  12.566
24697W        W96368   7.276  28.616  13.530
24698W        W96369  10.578  26.657   2.799
24699W        W96370  29.049   8.789   4.939
24700W        W96371   2.287  26.914  10.519
24701W        W96372   0.731   1.175  11.933
24702W        W96373  10.394  40.913  10.674
24703W        W96374   1.815   2.972  12.106
24704W        W96375  35.391  19.193  11.993
24705W        W96376  37.631  20.454   2.211
24706W        W96377   8.767   6.121   2.848
24707W        W96378  21.434  27.075  11.431
24708W        W96379  29.572  31.181  10.675
24709W        W96380  40.476  24.004  12.858
24710W        W96381  23.060  40.403  11.231
24711W        W96382  13.185  16.314   0.704
24712W        W96383  37.828  13.632   3.332
24713W        W96384  27.673   8.339   2.836
24714W        W96385   2.442  40.882  12.996
24715W        W96386  11.366  23.047  14.506
24716W        W96387  15.798  33.117   4.193
24717W        W96388  10.931  40.906  12.927
24718W        W96389  24.541   5.936  11.578
24719W        W96390  22.723  32.872   0.827
24720W        W96391  14.517  42.450   4.618
24721W        W96392  41.033  37.835   4.048
24722W        W96393  34.918  15.574   3.008
24723W        W96394  25.072  24.259   1.970
24724W        W96395  36.972  28.097   4.148
24725W        W96396   7.709  12.577   0.697
24726W        W96397  36.019  40.072  11.781
24727W        W96398   7.228  20.647  12.561
24728W        W96399  11.277   0.286   4.556
24729W        W96400  20.532   8.942   3.152
24730W        W96401  18.517  39.050  13.163
24731W        W96402  12.866  17.057   1.251
24732W        W96403   6.516  22.335  11.716
24733W        W96404  12.623  14.241  10.429
24734W        W96405   0.625  20.978   3.186
24735W        W96406   8.369  36.955  11.152
24736W        W96407  16.403  36.933  11.474
24737W        W96408  42.366   0.207   2.360
24738W        W96409   6.613  11.110  14.392
24739W        W96410  44.725  24.803  12.926
24740W        W96411  10.658  16.018   2.183
24741W        W96412  31.841  38.495   1.701
24742W        W96413  15.671  33.933  14.784
24743W        W96414  41.009  19.260   2.408
24744W        W96415  29.125  29.665  13.181
24745W        W96416  16.277  29.598   4.437
24746W        W96417   5.389  22.995  11.893
24747W        W96418  44.562  17.355   2.654
24748W        W96419   0.678  42.472  14.922
24749W        W96420   5.640  44.212   2.442
24750W        W96421  10.505  34.563  14.401
24751W        W96422  19.970   3.746  12.421
24752W        W96423   6.693   3.304   3.214
24753W        W96424  19.790  11.422   2.417
24754W        W96425  40.003  33.361  13.792
24755W        W96426  11.378  27.121   1.709
24756W        W96427  17.041  28.661  11.882
24757W        W96428   3.069  25.864   1.245
24758W        W96429  32.210  20.798   0.806
24759W        W96430   9.641  33.560  13.048
24760W        W96431  23.147  28.102  14.808
24761W        W96432  24.993  30.533   1.830
24762W        W96433  20.306  16.239  14.815
24763W        W96434  35.138   6.289  12.432
24764W        W96435  12.779  30.745   3.591
24765W        W96436  17.521  17.684   1.926
24766W        W96437   4.136  13.357   1.947
24767W        W96438  25.496  38.452   0.416
24768W        W96439  14.027   1.446   1.408
24769W        W96440  20.460  17.942  12.958
24770W        W96441  23.300  32.749  12.164
24771W        W96442  22.036  18.712  14.455
24772W        W96443  29.232  18.516   3.204
24773W        W96444   6.192  11.358   1.215
24774W        W96445  40.003  24.052   2.933
24775W        W96446  19.801  41.604  14.398
24776W        W96447  41.440   5.344   1.925
24777W        W96448  41.375   5.163   0.018
24778W        W96449  19.219   5.189   3.564
24779W        W96450  13.895   6.557   9.738
24780W        W96451  26.837  11.357   0.303
24781W        W96452  12.750   7.300   0.833
24782W        W96453  36.862  34.530  11.570
24783W        W96454  31.821  25.122  10.176
24784W        W96455   0.002  35.296   2.863
24785W        W96456  27.021  16.983   1.837
24786W        W96457  38.108  43.856  10.680
24787W        W96458  36.503  17.040   0.462
24788W        W96459   1.873  20.828   2.763
24789W        W96460  25.066   9.197  11.136
24790W        W96461  39.874  25.861  14.326
24791W        W96462  35.166  36.885  11.205
24792W        W96463  29.598  28.866   4.605
24793W        W96464  15.357  40.549   2.275
24794W        W96465  30.485  14.816  10.683
24795W        W96466  32.195  26.357   2.864
24796W        W96467   6.196  19.453   1.046
24797W        W96468  27.497  28.636  13.900
24798W        W96469  31.665   2.624  14.934
24799W        W96470   6.433  36.658  13.616
24800W        W96471   3.769  11.756  11.958
24801W        W96472  12.667  38.057  12.832
24802W        W96473  20.424  41.556  12.181
24803W        W96474  16.757  35.870   1.735
24804W        W96475  14.453   7.833  12.494
24805W        W96476  35.451  20.163  11.835
24806W        W96477  18.170  14.248  11.647
24807W        W96478  40.725  28.150  13.475
24808W        W96479  24.508   3.784  13.904
24809W        W96480  44.897   7.782  11.016
24810W        W96481  24.115  34.039   0.546
24811W        W96482  19.790   7.760  12.118
24812W        W96483  12.293   7.407   3.936
24813W        W96484   4.151  29.171   4.595
24814W        W96485  29.704  17.105  12.561
24815W        W96486  12.090  13.128   0.676
24816W        W96487  29.038  40.760   4.240
24817W        W96488  10.692  30.993   1.759
24818W        W96489  44.836   5.956   3.784
24819W        W96490   9.702   1.995  12.179
24820W        W96491  31.441  11.265  14.844
24821W        W96492  29.457  17.102   2.914
24822W        W96493   3.291  12.292   3.310
24823W        W96494  14.617   6.466   1.254
24824W        W96495  37.431  27.439  12.085
24825W        W96496  38.808  17.479  13.373
24826W        W96497  13.209  37.268   2.752
24827W        W96498  26.279  32.536   2.753
24828W        W96499  20.032  31.911  12.172
24829W        W96500  41.506  42.491  10.391
24830W        W96501  21.213  41.126   2.419
24831W        W96502  28.909  18.258   4.141
24832W        W96503  27.003  19.236  10.687
24833W        W96504  15.508   1.464  13.869
24834W        W96505  15.388   5.782  10.323
24835W        W96506  27.055  39.451   3.129
24836W        W96507  20.560  34.599   0.032
24837W        W96508   1.550  44.627   3.679
24838W        W96509  31.950  22.233  14.835
24839W        W96510  13.144  43.170   1.363
24840W        W96511  25.652  15.978  13.995
24841W        W96512   6.936   9.030  11.125
24842W        W96513  35.050  41.818  14.878
24843W        W96514  23.507   2.192   2.850
24844W        W96515  19.456  25.865   2.519
24845W        W96516  43.402  34.381  12.817
24846W        W96517  36.130  13.846  13.457
24847W        W96518  12.621   7.981  12.301
24848W        W96519  41.486   5.414  10.431
24849W        W96520  44.619   1.399  11.699
24850W        W96521  36.199  22.112   2.795
24851W        W96522  41.790  26.292   3.575
24852W        W96523  10.610  10.511  10.405
24853W        W96524  27.467  12.650  11.446
24854W        W96525  23.651  17.745   0.411
24855W        W96526   6.802  40.987  12.563
24856W        W96527  32.936   0.289  11.538
24857W        W96528  40.399   8.634   3.911
24858W        W96529  39.607  37.379   2.777
24859W        W96530  11.787  22.966   5.091
24860W        W96531  17.688  12.181  14.374
24861W        W96532  10.920  21.241  14.968
24862W        W96533  30.664   4.831  10.673
24863W        W96534  16.896  15.762  12.022
24864W        W96535  32.131   5.722  11.688
24865W        W96536  19.977  12.797  13.486
24866W        W96537  40.363  21.585  13.287
24867W        W96538  16.636  28.130  14.074
24868W        W96539  31.890  30.079   1.097
24869W        W96540  30.237  34.952  11.697
24870W        W96541  39.587   9.942  12.790
24871W        W96542  26.632   8.563  12.796
24872W        W96543  29.788  24.792  14.335
24873W        W96544   0.468  15.303   1.888
24874W        W96545   9.534  28.647   0.713
24875W        W96546  10.183  28.889   2.015
24876W        W96547   6.281  40.608   3.087
24877W        W96548  30.422  33.526   3.604
24878W        W96549  13.708  18.796   3.406
24879W        W96550  24.162  10.700   0.076
24880W        W96551   8.771  13.749   3.957
24881W        W96552  30.800  11.833  12.130
24882W        W96553   4.964   2.696  12.534
24883W        W96554  27.610  11.764  14.339
24884W        W96555  28.992   3.022  14.938
24885W        W96556  15.707  35.078  12.740
24886W        W96557  27.538  41.592  14.243
24887W        W96558  28.998  29.128   0.333
24888W        W96559  13.396  14.389  13.958
24889W        W96560  13.994  10.558  10.718
24890W        W96561  31.224  13.341  12.365
24891W        W96562  19.757  40.542  13.458
24892W        W96563  29.818  12.770  13.472
24893W        W96564  23.775   5.634  11.168
24894W        W96565  21.253  18.052   9.788
24895W        W96566   9.891  43.022  13.908
24896W        W96567   0.910  12.870  13.017
24897W        W96568   3.878  37.176   4.936
24898W        W96569   3.512  23.673   3.617
24899W        W96570  10.169  29.074  10.406
24900W        W96571   3.843  36.855   4.055
24901W        W96572  17.185  30.740  10.208
24902W        W96573  39.904  23.748  12.426
24903W        W96574  31.020  32.427   0.398
24904W        W96575  19.275  43.035   0.161
24905W        W96576  23.984  22.204  12.515
24906W        W96577  33.591   8.653   1.843
24907W        W96578   9.419  24.457   2.275
24908W        W96579  42.371   3.209  14.787
24909W        W96580  30.873  30.054  12.954
24910W        W96581   8.857   0.832  13.373
24911W        W96582   4.088   8.824   2.704
24912W        W96583   3.837  11.425  12.915
24913W        W96584  34.499  16.334  13.822
24914W        W96585  38.833   1.838   4.244
24915W        W96586   3.033  42.921   2.231
24916W        W96587  34.565  14.413   3.965
24917W        W96588  11.179  34.173   3.602
24918W        W96589   1.484  20.746  14.195
24919W        W96590  30.433   0.380  12.110
24920W        W96591  40.206  24.867   3.750
24921W        W96592  27.297  22.930  14.411
24922W        W96593  40.457  43.758   0.308
24923W        W96594  16.979   3.936  13.052
24924W        W96595  44.877  33.142  14.804
24925W        W96596  41.259  19.298   2.868
24926W        W96597  27.914  19.638  13.190
24927W        W96598   6.155  19.501   0.051
24928W        W96599  20.539  37.784   4.602
24929W        W96600  28.459   2.980   3.466
24930W        W96601  41.733   2.393   4.304
24931W        W96602  24.308   7.194  13.060
24932W        W96603  14.869  36.114  12.944
24933W        W96604  44.302  25.694  11.803
24934W        W96605  33.084  22.732  10.450
24935W        W96606  28.003  38.932  10.620
24936W        W96607   6.730  20.288   3.626
24937W        W96608  25.919  21.461  12.064
24938W        W96609  18.516   4.899  10.149
24939W        W96610  35.591   6.947   1.025
24940W        W96611   6.899  37.350   4.497
24941W        W96612  22.089  24.395  13.302
24942W        W96613   2.812   1.394  13.964
24943W        W96614   7.265  43.453   2.292
24944W        W96615  25.687   8.201  10.607
24945W        W96616   2.043  10.200   5.049
24946W        W96617  16.987  23.705   3.998
24947W        W96618  15.309   7.847  11.973
24948W        W96619  20.028   1.313   3.262
24949W        W96620  19.348  44.048   3.763
24950W        W96621  36.866  20.532  12.883
24951W        W96622  10.631   3.212   9.706
24952W        W96623  33.878  36.592  13.102
24953W        W96624  43.784  14.563  13.516
24954W        W96625   7.285  15.860  14.309
24955W        W96626  39.585   8.293   4.733
24956W        W96627   8.976  28.190   2.636
24957W        W96628  10.185  28.386  14.507
24958W        W96629  16.562   5.533   0.729
24959W        W96630   4.190  21.550  14.364
24960W        W96631  40.948  37.530   1.141
24961W        W96632  10.315  36.306  11.385
24962W        W96633   3.958   5.050  13.823
24963W        W96634  31.221  31.634  12.133
24964W        W96635  36.698  31.455  12.436
24965W        W96636   1.487   9.331  11.577
24966W        W96637  14.768  42.070  12.126
24967W        W96638  18.222   7.148  14.755
24968W        W96639   9.399  44.834   2.747
24969W        W96640  11.057  13.027  10.827
24970W        W96641  16.072  32.574  11.141
24971W        W96642  25.135  30.885   2.785
24972W        W96643  34.897  40.261  12.831
24973W        W96644  32.106   5.787   1.146
24974W        W96645   9.178  26.055   3.074
24975W        W96646  11.371  22.612  12.495
24976W        W96647  41.627  29.788   4.180
24977W        W96648  10.947  39.111   0.967
24978W        W96649  10.636   9.092  13.445
24979W        W96650  31.690  36.354  10.625
24980W        W96651  33.341   6.872  12.411
24981W        W96652  36.888  38.500  12.351
24982W        W96653  35.816  33.045  13.970
24983W        W96654   2.957  38.898   4.849
24984W        W96655  22.126  28.244  12.747
24985W        W96656  27.211   7.338   1.348
24986W        W96657  44.559  20.231   1.674
24987W        W96658  42.255  40.534  14.338
24988W        W96659  13.979  38.588   4.682
24989W        W96660   6.485  14.590   0.376
24990W        W96661  28.383  30.295  13.773
24991W        W96662  26.123  36.808   1.244
24992W        W96663  21.245   8.212  12.134
24993W        W96664  44.996   7.210  14.725
24994W        W96665   3.691  39.850   2.754
24995W        W96666  30.212   4.520  10.706
24996W        W96667  29.945   1.327  13.247
24997W        W96668  30.199   9.348   3.564
24998W        W96669  43.904  30.489  11.982
24999W        W96670  18.058  35.099   4.113
25000W        W96671  24.960  38.782  14.520
25001W        W96672  39.004   7.200   1.502
25002W        W96673  42.985  38.549   4.586
25003W        W96674  43.886  33.133  14.418
25004W        W96675  10.472  21.735  14.323
25005W        W96676  33.970  29.591  12.094
25006W        W96677  37.910  31.566   2.825
25007W        W96678  40.820  41.879   4.956
25008W        W96679  34.637  29.265  12.429
25009W        W96680  31.801   2.374   4.243
25010W        W96681  33.769  31.987   2.031
25011W        W96682  43.888  41.570   1.123
25012W        W96683  14.048  24.238   2.219
25013W        W96684   0.413  43.930   3.284
25014W        W96685   5.990  34.874   3.691
25015W        W96686  18.085   3.373  13.990
25016W        W96687  37.295  38.305   2.208
25017W        W96688  44.260  43.375   0.591
25018W        W96689  30.528  10.034  11.451
25019W        W96690  14.614  31.096  13.832
25020W        W96691  32.728  22.188  11.598
25021W        W96692   6.723   1.493   1.718
25022W        W96693  30.041  21.234   4.208
25023W        W96694   3.291  44.015  12.994
25024W        W96695  11.730   5.360  12.239
25025W        W96696  25.432  27.572   0.847
25026W        W96697  37.326  30.133   2.162
25027W        W96698   4.873  22.636   1.678
25028W        W96699  10.634  17.910  13.809
25029W        W96700  27.023   8.213  12.984
25030W        W96701  15.659  22.539   2.991
25031W        W96702  40.582  36.014  14.999
25032W        W96703   1.931  16.739  11.595
25033W        W96704  20.759  34.243   0.357
25034W        W96705  37.839   0.882   0.823
25035W        W96706  15.787  21.423   0.319
25036W        W96707  25.046  34.871  11.661
25037W        W96708  39.034  13.863   0.349
25038W        W96709   5.418  33.108   1.509
25039W        W96710  11.858  36.349   2.125
25040W        W96711   0.242  27.838  11.138
25041W        W96712  13.942  16.988  13.032
25042W        W96713  15.827  34.970   1.369
25043W        W96714  14.066  12.178   0.261
25044W        W96715  33.447   8.201  13.933
25045W        W96716  20.228   6.399  12.024
25046W        W96717  34.918   1.847   3.899
25047W        W96718  41.534   1.965   4.713
25048W        W96719  18.724  36.596   3.501
25049W        W96720   7.429  11.879   0.491
25050W        W96721  12.299  12.187  12.770
25051W        W96722  34.148  18.097  12.533
25052W        W96723  22.740  12.782   4.121
25053W        W96724  26.533   6.564  10.896
25054W        W96725  33.690  18.099  11.617
25055W        W96726  19.125  31.220  10.733
25056W        W96727   6.079   7.786   4.682
25057W        W96728  29.152   7.505   0.417
25058W        W96729   9.099  15.142  14.084
25059W        W96730  33.936  25.718  14.294
25060W        W96731  40.949  10.876   3.693
25061W        W96732  13.864  27.981   1.945
25062W        W96733  11.194  23.786   2.302
25063W        W96734  33.400   7.401   2.283
25064W        W96735  41.320   5.287  12.364
25065W        W96736  13.395  20.271  10.755
25066W        W96737  10.744  20.212   4.176
25067W        W96738  21.539  26.758   2.783
25068W        W96739  18.549  23.873   2.705
25069W        W96740  29.209  35.833   4.517
25070W        W96741   1.649  37.564  11.609
25071W        W96742  19.259   4.952   1.334
25072W        W96743  35.533  26.011  12.249
25073W        W96744  28.720   8.200  10.545
25074W        W96745  18.502  22.669  11.944
25075W        W96746  43.484  22.691  11.637
25076W        W96747  19.080  31.586   0.721
25077W        W96748  15.280  35.492  11.192
25078W        W96749  11.965  16.071  12.872
25079W        W96750  22.059  19.000   4.156
25080W        W96751  20.216  20.601   4.599
25081W        W96752  30.376  38.141   2.521
25082W        W96753  32.553  34.552   1.875
25083W        W96754  21.361   7.531  12.669
25084W        W96755  43.319  22.210  11.471
25085W        W96756  42.000  19.360   2.231
25086W        W96757  20.311  13.736   0.037
25087W        W96758  24.933  14.241  12.843
25088W        W96759  27.160  16.802   2.304
25089W        W96760  35.641  18.594   2.585
25090W        W96761  14.856  34.269  12.020
25091W        W96762   9.480  19.950  11.489
25092W        W96763  38.341  23.041   3.572
25093W        W96764  43.731  36.946   1.041
25094W        W96765  21.918  38.440  10.575
25095W        W96766  21.486  17.663  12.942
25096W        W96767  31.497   5.663   3.170
25097W        W96768  33.886  23.549  12.725
25098W        W96769   0.787  36.382   3.285
25099W        W96770  26.771  27.995   0.890
25100W        W96771  33.111  11.613  10.563
25101W        W96772  22.228  18.289  11.109
25102W        W96773  33.052  13.268  14.090
25103W        W96774  15.121  11.380  12.596
25104W        W96775  40.858  41.757  13.245
25105W        W96776  14.260  40.983  12.930
25106W        W96777  21.008  34.409   1.315
25107W        W96778  44.848   4.712   3.672
25108W        W96779   4.550  26.092  13.395
25109W        W96780  36.643  40.405   3.233
25110W        W96781  19.564  38.333  14.947
25111W        W96782  27.535  33.597   4.602
25112W        W96783  42.773  29.151   3.785
25113W        W96784  17.433  29.112  10.649
25114W        W96785  17.714  21.181  10.690
25115W        W96786  28.271   0.855   4.709
25116W        W96787  18.350  36.618  12.508
25117W        W96788  10.709   1.780  10.770
25118W        W96789  19.240  42.413  11.271
25119W        W96790   2.918  34.480  12.202
25120W        W96791  21.601  19.851   2.454
25121W        W96792  25.418  20.621   0.949
25122W        W96793   9.593  27.166  12.141
25123W        W96794  43.394  19.910   3.727
25124W        W96795  44.043  21.856   3.199
25125W        W96796  34.976   8.618   1.219
25126W        W96797  37.231  10.901   2.845
25127W        W96798  22.655  21.612  13.509
25128W        W96799  27.152  22.019  13.063
25129W        W96800  41.287  37.502   3.721
25130W        W96801  26.570   8.629   3.203
25131W        W96802  13.685  16.252   0.839
25132W        W96803   1.409   4.641   3.234
25133W        W96804  32.536  26.273  13.077
25134W        W96805  12.155   3.668  11.499
25135W        W96806  38.103  25.596   1.792
25136W        W96807  10.179   6.429  13.391
25137W        W96808  34.945  40.755  12.961
25138W        W96809  16.156  25.980  11.232
25139W        W96810  39.469   8.882   2.524
25140W        W96811   1.401   3.306   0.712
25141W        W96812   7.787   2.725  14.467
25142W        W96813  26.629  30.330  14.488
25143W        W96814  27.522   5.776  10.682
25144W        W96815  21.859   3.165   1.403
25145W        W96816  25.555  22.236   3.130
25146W        W96817  27.943  35.515  10.723
25147W        W96818  15.005  11.861   1.758
25148W        W96819  10.852  36.066  13.360
25149W        W96820  32.903  25.555   1.597
25150W        W96821  12.532   0.422  13.842
25151W        W96822   5.950  35.077   0.823
25152W        W96823  40.109  42.257  12.873
25153W        W96824   1.999  19.441  13.407
25154W        W96825  20.617  22.677   3.784
25155W        W96826  11.510  29.007   3.161
25156W        W96827   7.398  18.124  13.438
25157W        W96828  32.623  22.167  13.159
25158W        W96829  26.269  36.713  14.285
25159W        W96830  23.978  40.019   0.835
25160W        W96831   7.378   5.250  14.501
25161W        W96832  14.654  23.619   1.497
25162W        W96833  38.382  24.163   1.757
25163W        W96834   6.394   1.810  13.089
25164W        W96835  21.213  16.314   4.940
25165W        W96836  40.439  15.542  14.809
25166W        W96837  20.550  17.687  10.710
25167W        W96838  30.443   5.910  14.394
25168W        W96839  34.955  24.772   4.891
25169W        W96840  35.165   1.252   4.593
25170W        W96841  44.814  32.481  13.318
25171W        W96842  28.893  35.461   3.204
25172W        W96843  18.960  17.436  10.957
25173W        W96844  23.975  11.808   0.877
25174W        W96845  10.682  14.341  11.146
25175W        W96846  10.199  41.538  10.500
25176W        W96847  16.809  23.873   4.480
25177W        W96848  16.559   0.137   4.005
25178W        W96849  22.143  15.877   4.567
25179W        W96850   0.436  44.739   4.251
25180W        W96851   6.015  34.912  12.986
25181W        W96852   1.155  42.854  14.356
25182W        W96853   7.788  29.520   5.174
25183W        W96854  16.344  12.302   1.800
25184W        W96855  34.849  32.872  13.819
25185W        W96856   3.857  21.573  11.435
25186W        W96857  41.016  28.256   1.360
25187W        W96858  14.323  14.317   0.043
25188W        W96859   0.869   3.171   5.152
25189W        W96860  42.071   3.769   0.778
25190W        W96861  26.283  42.323  14.791
25191W        W96862  22.249   7.786  13.989
25192W        W96863  18.815  20.182   2.888
25193W        W96864  12.681   9.369   0.759
25194W        W96865  13.915  18.619  13.920
25195W        W96866  35.135  21.105   4.530
25196W        W96867  12.116   1.838   2.327
25197W        W96868  10.391   5.867  11.336
25198W        W96869  43.914  28.114   2.131
25199W        W96870  44.432  21.501   3.177
25200W        W96871  11.325   5.970  13.367
25201W        W96872   1.377   3.868   2.106
25202W        W96873  22.527   7.249  10.504
25203W        W96874   5.356  31.813  10.270
25204W        W96875   2.271  26.996   4.558
25205W        W96876  26.405  42.529  14.304
25206W        W96877  10.966  19.603  11.495
25207W        W96878  16.074  32.929  10.693
25208W        W96879  31.610  25.289   0.406
25209W        W96880  15.890  24.143  11.053
25210W        W96881  10.917   5.424  10.628
25211W        W96882  31.487  31.736  14.285
25212W        W96883  10.256  14.606   4.625
25213W        W96884   6.609   9.848   2.134
25214W        W96885  18.736  38.766   3.236
25215W        W96886  44.991  30.193   0.964
25216W        W96887  26.149   6.935   2.812
25217W        W96888   3.932  31.806  13.093
25218W        W96889   0.736  29.174   3.900
25219W        W96890  21.422  38.303  10.618
25220W        W96891  17.524  31.049   2.224
25221W        W96892  20.848  10.702   1.721
25222W        W96893  44.135  18.783  14.035
25223W        W96894  28.702  10.132  11.155
25224W        W96895  18.747  43.874  14.233
25225W        W96896  23.100  17.836   0.806
25226W        W96897  10.164  28.196   4.155
25227W        W96898   5.787   9.220  11.485
25228W        W96899  41.243  44.913   0.779
25229W        W96900  41.649   7.084  10.233
25230W        W96901  10.555  44.881  13.148
25231W        W96902  28.534  40.604  10.697
25232W        W96903  17.513  36.009   2.223
25233W        W96904  36.791  23.947   4.113
25234W        W96905  24.161   8.718   3.223
25235W        W96906  21.220  39.104  14.827
25236W        W96907  42.215  21.742   1.071
25237W        W96908  28.497   6.765  10.528
25238W        W96909  18.529   2.880  10.685
25239W        W96910  17.632  34.800   0.429
25240W        W96911  34.515   3.750  12.300
25241W        W96912   7.121   1.490  13.900
25242W        W96913   6.149  11.324  14.497
25243W        W96914  41.413  20.660  12.568
25244W        W96915  24.962   0.933   4.578
25245W        W96916  40.363  34.868  12.433
25246W        W96917  39.542  39.030   0.846
25247W        W96918  43.245  14.658  13.467
25248W        W96919   7.951  12.404  12.042
25249W        W96920  43.865  28.624  12.413
25250W        W96921  36.027   8.676   3.715
25251W        W96922  31.106  42.393   4.456
25252W        W96923   9.604  33.491   2.459
25253W        W96924  33.438   9.867  13.993
25254W        W96925  30.741   4.165  14.783
25255W        W96926  10.369  42.282   0.843
25256W        W96927  16.726   2.602   4.460
25257W        W96928  10.815  30.580  13.792
25258W        W96929   3.450   7.316  12.104
25259W        W96930   1.623   0.387   4.610
25260W        W96931  44.237  27.466   0.972
25261W        W96932  38.350  43.398   0.612
25262W        W96933  23.448  29.377  13.742
25263W        W96934  23.999  18.963   1.781
25264W        W96935  40.088  14.707   3.404
25265W        W96936  19.310  41.002  14.760
25266W        W96937  10.919  39.961   3.116
25267W        W96938  10.382  26.420   2.375
25268W        W96939  25.493   2.830   1.905
25269W        W96940  40.183  44.983   3.718
25270W        W96941  39.493   0.032   4.490
25271W        W96942  23.663  23.605  13.607
25272W        W96943  35.837  20.979  13.841
25273W        W96944  21.962   5.263   3.301
25274W        W96945  35.539  14.943  14.335
25275W        W96946  44.127   1.440  12.877
25276W        W96947   1.784  22.032  11.455
25277W        W96948  41.944   1.341   0.151
25278W        W96949  23.791  26.452  14.913
25279W        W96950  24.555  17.284  10.642
25280W        W96951   8.700  15.703   1.705
25281W        W96952   2.930  40.337   2.704
25282W        W96953  41.710   0.630  12.038
25283W        W96954  39.452  11.264   3.137
25284W        W96955   6.834  38.513   4.518
25285W        W96956  25.905   6.466   2.848
25286W        W96957  28.181   6.695   1.423
25287W        W96958  20.668   5.686   1.224
25288W        W96959   1.448  25.748  13.098
25289W        W96960  25.585   8.735   2.569
25290W        W96961  23.366   0.005  14.926
25291W        W96962  36.410  31.571  10.601
25292W        W96963   7.367  11.137   3.170
25293W        W96964  34.083   9.491   4.762
25294W        W96965  34.168   8.869   0.683
25295W        W96966  23.429  13.944  13.901
25296W        W96967  32.466  27.117  12.845
25297W        W96968  22.010  28.190   3.698
25298W        W96969  31.949  43.484   1.174
25299W        W96970   7.442  25.424   2.785
25300W        W96971  11.664   0.068   3.617
25301W        W96972   4.676  31.500   3.638
25302W        W96973   8.351  17.689  12.090
25303W        W96974  13.403  44.722   4.890
25304W        W96975  35.586  20.654   4.424
25305W        W96976  20.851  17.151   3.452
25306W        W96977  11.672  25.025   2.280
25307W        W96978  39.961  21.696  12.449
25308W        W96979  18.792  11.736  11.804
25309W        W96980   3.847  20.022   4.222
25310W        W96981  12.002  21.740  13.619
25311W        W96982  22.993  38.573  12.357
25312W        W96983  24.126   8.624   1.926
25313W        W96984  39.536  10.779   2.305
25314W        W96985  28.102   5.392  10.736
25315W        W96986   9.031  22.092   1.214
25316W        W96987  41.459  40.828  14.029
25317W        W96988  18.156  41.734  12.125
25318W        W96989  23.929   8.086   1.292
25319W        W96990  22.459  17.984   1.462
25320W        W96991  36.534  42.427   1.802
25321W        W96992  20.610  29.020  11.094
25322W        W96993  34.022  16.022  12.756
25323W        W96994   2.905  13.556   3.210
25324W        W96995  25.554   9.105  12.009
25325W        W96996  33.745   4.493  13.036
25326W        W96997  26.415  15.368  13.446
25327W        W96998  14.177  43.622   0.686
25328W        W96999  27.894  15.250  13.396
25329W        W97000  18.773  37.381   0.316
25330W        W97001  37.828  21.532  12.380
25331W        W97002  23.861   9.438  12.921
25332W        W97003  36.088  22.700   0.747
25333W        W97004  28.974  10.085   2.468
25334W        W97005  38.422  33.202  14.817
25335W        W97006  44.572   0.570   0.968
25336W        W97007  10.349  33.533  13.517
25337W        W97008  38.395  21.184   2.126
25338W        W97009   3.169  39.894  12.482
25339W        W97010  40.769  42.698   3.082
25340W        W97011  26.744  29.995   2.888
25341W        W97012  43.457  18.051  14.944
25342W        W97013  34.051   4.226  13.944
25343W        W97014  32.124   0.358   1.766
25344W        W97015  19.296  26.162   5.416
25345W        W97016  31.685  33.109  14.450
25346W        W97017  40.846  38.786  14.071
25347W        W97018  18.962  32.547  10.902
25348W        W97019  17.830   5.333   4.501
25349W        W97020  13.878  29.508  13.020
25350W        W97021  15.420  37.777   0.353
25351W        W97022   0.885  43.356   2.773
25352W        W97023  35.498   7.151  12.492
25353W        W97024  12.777  28.875  14.140
25354W        W97025  24.265  35.301  12.516
25355W        W97026   7.212  32.349  12.395
25356W        W97027  35.422  36.810  12.568
25357W        W97028  22.725  25.739   1.181
25358W        W97029   1.702  36.834   0.485
25359W        W97030  30.034  29.903   0.525
25360W        W97031  30.174  12.402  13.504
25361W        W97032  44.509  19.028  11.107
25362W        W97033  10.912  11.877  13.318
25363W        W97034  20.481  29.120   3.565
25364W        W97035  17.514  44.691   0.459
25365W        W97036  10.067   7.835  11.874
25366W        W97037   0.039  27.365  11.179
25367W        W97038  36.275   6.686  13.927
25368W        W97039  27.457  38.121   3.598
25369W        W97040  16.890  15.460  14.930
25370W        W97041  37.438  39.924  13.878
25371W        W97042  27.732  34.390   3.693
25372W        W97043   5.900  34.584   1.772
25373W        W97044  12.712  34.019  11.680
25374W        W97045  13.692   8.888   3.587
25375W        W97046  25.103  18.860  13.402
25376W        W97047  36.098  28.064   4.384
25377W        W97048   1.451  16.572  14.453
25378W        W97049  20.680  13.306   0.114
25379W        W97050  22.724  22.606  11.450
25380W        W97051  41.859  25.414   0.467
25381W        W97052   0.505   5.322   0.528
25382W        W97053  24.738  41.887   2.316
25383W        W97054   1.293  34.559   3.546
25384W        W97055  30.388  26.054  13.822
25385W        W97056  34.906   7.650   4.554
25386W        W97057  23.544  39.468  13.582
25387W        W97058  43.482  34.107  10.552
25388W        W97059  30.473  11.566   1.341
25389W        W97060  30.181  34.308   4.433
25390W        W97061  42.217   0.519  12.982
25391W        W97062   0.863  11.168  13.251
25392W        W97063  40.804  30.918  14.346
25393W        W97064  10.757  40.804  11.936
25394W        W97065  25.083  37.860  12.542
25395W        W97066  13.172  18.218   2.402
25396W        W97067   2.410   9.296   0.898
25397W        W97068   0.503  31.834  13.421
25398W        W97069  27.704  20.590  11.567
25399W        W97070  11.479  29.754  13.856
25400W        W97071  29.090  15.709   4.202
25401W        W97072  42.985  44.305  12.937
25402W        W97073  34.123  36.008  12.422
25403W        W97074  37.556  35.165   4.667
25404W        W97075   6.275  34.424  11.184
25405W        W97076   4.135  19.667  10.802
25406W        W97077  42.788  13.301  12.840
25407W        W97078  40.361  14.774   1.392
25408W        W97079  28.193  27.686  14.473
25409W        W97080   8.309  35.410  13.950
25410W        W97081  24.187  39.323   4.619
25411W        W97082   0.861  39.998   0.758
25412W        W97083   5.150  17.505  11.040
25413W        W97084  13.035  32.079  13.818
25414W        W97085   1.134  39.896  10.778
25415W        W97086  11.876  29.561   3.141
25416W        W97087   4.166  31.109  12.334
25417W        W97088  29.939   0.811   3.198
25418W        W97089  37.075  38.209   2.736
25419W        W97090  27.445  17.115  10.721
25420W        W97091  12.606  19.626   4.568
25421W        W97092   4.424  16.143  11.455
25422W        W97093  11.566  37.960  11.991
25423W        W97094  44.385  19.810   5.147
25424W        W97095  21.687  32.910  12.941
25425W        W97096  19.102  30.205   4.421
25426W        W97097  34.000  24.983   0.467
25427W        W97098  21.092  14.753   4.438
25428W        W97099  24.199  28.154   2.772
25429W        W97100  30.160  30.092  11.809
25430W        W97101  21.211  32.409   2.257
25431W        W97102  20.799  10.308  12.246
25432W        W97103  37.457  20.780  11.165
25433W        W97104  15.188  27.463   4.509
25434W        W97105  34.684  18.682  10.640
25435W        W97106  19.620   4.271   4.765
25436W        W97107  40.357   3.950   0.769
25437W        W97108  27.382  30.105  14.092
25438W        W97109  34.319  29.049  14.458
25439W        W97110  31.342  23.394  14.761
25440W        W97111   9.906  16.062  12.932
25441W        W97112  41.874  18.873   2.254
25442W        W97113  39.768  24.927   0.456
25443W        W97114  15.511  23.024   0.708
25444W        W97115   8.437  21.135  12.862
25445W        W97116  24.582   2.173  10.556
25446W        W97117  26.683  11.701   3.953
25447W        W97118  15.810   3.734   1.880
25448W        W97119  43.512  12.667   3.902
25449W        W97120  37.488  12.005   1.805
25450W        W97121  42.833  34.036   2.093
25451W        W97122  12.166   7.193   0.874
25452W        W97123  10.774   8.432   4.467
25453W        W97124   9.616  40.011  13.438
25454W        W97125  18.843  11.411   4.979
25455W        W97126  28.136  16.062  14.274
25456W        W97127  15.910   1.510  12.492
25457W        W97128   9.357   0.969  13.473
25458W        W97129   4.346  18.712   4.640
25459W        W97130  21.677  41.217   2.668
25460W        W97131  29.685  26.584  14.967
25461W        W97132  10.147  40.747  14.250
25462W        W97133  29.601  15.552  14.495
25463W        W97134   9.325  26.854  13.374
25464W        W97135  31.799  35.001  12.928
25465W        W97136  16.130  34.906   3.131
25466W        W97137   2.998  39.742   2.153
25467W        W97138  33.524  15.336   3.809
25468W        W97139  30.957  16.306  11.965
25469W        W97140   1.776  22.210  14.254
25470W        W97141  16.325  36.531  12.516
25471W        W97142  23.222   0.812   1.232
25472W        W97143  15.651  28.089  10.525
25473W        W97144  29.329  33.054   1.844
25474W        W97145  26.473  11.498  14.964
25475W        W97146   1.225  35.077   4.032
25476W        W97147  44.392  19.791   1.933
25477W        W97148  16.176  14.150   4.914
25478W        W97149  33.458  25.034   4.603
25479W        W97150  28.950  18.346   3.623
25480W        W97151  29.010  34.434   4.640
25481W        W97152   3.947  19.812   0.833
25482W        W97153  42.496   7.859   3.693
25483W        W97154  22.724  42.766   0.908
25484W        W97155  22.085  33.240  13.066
25485W        W97156  41.936   5.223  10.675
25486W        W97157  37.523   0.391  14.840
25487W        W97158   6.368  23.676   0.882
25488W        W97159  19.277  38.612   3.159
25489W        W97160  22.979  43.740   2.677
25490W        W97161  35.615  28.188   4.196
25491W        W97162  10.696  32.177  13.818
25492W        W97163  15.437  10.202  12.032
25493W        W97164  37.856  35.592   1.202
25494W        W97165   6.192  10.867  12.009
25495W        W97166  37.467   9.241   1.655
25496W        W97167  21.124  18.685  13.968
25497W        W97168  41.269  18.577  12.010
25498W        W97169   5.348   8.873   3.127
25499W        W97170  11.251  17.385   3.228
25500W        W97171   8.224  13.609   4.073
25501W        W97172  41.046  31.835  13.381
25502W        W97173  20.518   9.867  12.394
25503W        W97174  44.229  24.624   5.461
25504W        W97175  26.663  33.642  13.845
25505W        W97176   2.729  31.348  11.543
25506W        W97177   7.459  27.478  13.082
25507W        W97178  44.279  13.342   1.731
25508W        W97179   3.298  41.467   3.827
25509W        W97180   7.162  37.039  13.325
25510W        W97181  36.892  21.042   0.171
25511W        W97182  26.033  28.004   1.394
25512W        W97183  26.196  32.402   4.254
25513W        W97184  14.469  21.008   5.265
25514W        W97185   0.444  10.868   4.825
25515W        W97186   5.240  13.384  10.555
25516W        W97187   5.209   3.021   1.304
25517W        W97188  24.991   2.170   1.917
25518W        W97189  18.208  12.273  12.536
25519W        W97190   5.041  34.998   2.766
25520W        W97191  30.149   2.865   4.559
25521W        W97192   6.935  27.204   0.856
25522W        W97193  32.668  16.596   2.301
25523W        W97194  16.759   5.065   1.503
25524W        W97195   3.492  30.196   3.089
25525W        W97196  14.266  16.598   1.315
25526W        W97197  12.289  23.281  14.915
25527W        W97198  33.694  21.467  13.416
25528W        W97199  13.583  41.508  14.992
25529W        W97200  13.640  27.018   3.379
25530W        W97201   5.768  10.724  13.837
25531W        W97202  39.496   1.472   4.226
25532W        W97203  20.927   4.961  12.805
25533W        W97204  32.835   8.848  12.115
25534W        W97205  19.183  25.128   1.183
25535W        W97206  14.962  28.087  13.176
25536W        W97207  36.553  30.123  12.107
25537W        W97208   5.310   2.358   4.801
25538W        W97209  13.672  18.077   3.814
25539W        W97210  25.996  28.653   4.796
25540W        W97211   0.920  14.285  12.868
25541W        W97212  18.432  12.581  14.999
25542W        W97213   3.340  32.257  14.966
25543W        W97214  12.520  37.635   3.875
25544W        W97215  15.704   6.138   4.581
25545W        W97216  13.328  27.005   1.259
25546W        W97217  44.249  30.968   1.787
25547W        W97218  17.545  23.588  12.123
25548W        W97219  41.840   3.404  10.946
25549W        W97220  14.325  16.584  11.826
25550W        W97221   0.077  20.221   1.802
25551W        W97222  14.227  39.003   4.525
25552W        W97223  19.091  33.938   1.636
25553W        W97224  41.275  13.248   3.726
25554W        W97225  28.051  26.991  13.921
25555W        W97226  15.610  41.519   0.030
25556W        W97227  37.933  12.169   0.937
25557W        W97228  43.773  42.136   4.598
25558W        W97229  25.248  30.951   4.693
25559W        W97230  33.528  36.504   2.702
25560W        W97231   5.949  16.138  11.712
25561W        W97232   9.932  35.870   2.331
25562W        W97233   8.398  15.076   0.366
25563W        W97234  19.694  42.987   4.885
25564W        W97235   4.332   7.625  11.829
25565W        W97236  38.859  17.119   3.143
25566W        W97237  10.441  38.458   2.139
25567W        W97238  36.464   9.031   3.816
25568W        W97239  21.319  18.561   3.820
25569W        W97240  32.454   9.397  14.397
25570W        W97241  30.998  25.560   2.397
25571W        W97242  15.627  29.616   3.196
25572W        W97243  38.341   9.911   3.131
25573W        W97244  31.065  26.538  10.779
25574W        W97245  38.592  20.579   2.795
25575W        W97246  31.190  11.713  14.796
25576W        W97247  19.994  19.201   4.468
25577W        W97248   6.850  16.735  13.400
25578W        W97249  17.397  41.285   3.179
25579W        W97250   0.511  17.762  14.269
25580W        W97251  27.643  17.255  12.642
25581W        W97252  32.041   3.937  11.182
25582W        W97253  32.574  27.733   0.240
25583W        W97254  30.484  35.827  13.021
25584W        W97255  19.781  13.680   0.045
25585W        W97256  16.060  24.010  14.783
25586W        W97257  12.477  23.255   1.240
25587W        W97258  15.299  32.506  11.569
25588W        W97259  37.037  32.623  11.191
25589W        W97260  42.766  37.095   0.904
25590W        W97261  37.065  42.388   2.632
25591W        W97262  18.733  11.577   3.807
25592W        W97263  27.130  16.293   0.717
25593W        W97264   6.795  22.723   1.324
25594W        W97265   8.788  30.913   2.356
25595W        W97266  44.792  16.240   1.590
25596W        W97267  18.399  17.666   4.324
25597W        W97268  26.002  14.192   0.481
25598W        W97269  35.655  35.341   1.979
25599W        W97270  33.317  31.008  10.616
25600W        W97271  44.230  24.548   3.258
25601W        W97272  36.398  26.065   3.043
25602W        W97273   0.727  19.803  13.916
25603W        W97274  38.557  19.834   3.304
25604W        W97275  25.884   5.240  14.958
25605W        W97276   0.897  43.483   4.142
25606W        W97277   1.483  31.513   3.740
25607W        W97278  41.041  34.432   4.263
25608W        W97279   8.693  41.037   1.735
25609W        W97280  22.265  11.829   2.371
25610W        W97281  10.317  13.727  13.948
25611W        W97282  15.367  34.394   3.617
25612W        W97283  29.038   7.324  13.405
25613W        W97284  23.502  20.783   3.761
25614W        W97285  37.541  29.836   3.791
25615W        W97286  22.171   5.925   2.583
25616W        W97287  29.116  26.106   2.192
25617W        W97288  33.959  30.467   0.219
25618W        W97289  23.507   2.309   3.352
25619W        W97290  20.068  32.628  14.912
25620W        W97291   9.797   9.491   2.122
25621W        W97292  17.579   3.963   0.523
25622W        W97293  25.122  10.550  13.516
25623W        W97294  22.030   9.892   4.540
25624W        W97295  42.700  13.292   2.526
25625W        W97296  11.539  35.653   2.633
25626W        W97297  41.343  28.583   4.757
25627W        W97298  38.768  44.914   5.011
25628W        W97299  28.393  36.274  11.705
25629W        W97300  35.426  21.100   1.833
25630W        W97301  19.012  14.376   2.759
25631W        W97302  28.100  15.681  10.065
25632W        W97303   6.520  28.172  13.346
25633W        W97304  35.092  41.323  14.696
25634W        W97305  29.978  40.396  10.718
25635W        W97306  17.798  42.314  13.423
25636W        W97307   1.301  41.046   0.934
25637W        W97308  25.665  36.952   2.511
25638W        W97309  27.205  28.737  12.064
25639W        W97310   0.458  40.267   3.872
25640W        W97311  14.184  16.771  13.850
25641W        W97312   3.778  34.305  14.460
25642W        W97313  33.205  44.760  13.411
25643W        W97314  38.509  28.979  12.854
25644W        W97315  38.350  38.305  11.612
25645W        W97316  30.211  23.767  13.528
25646W        W97317  16.478  43.556  11.042
25647W        W97318  20.316  13.185   0.487
25648W        W97319  41.747  38.978  13.906
25649W        W97320  22.252  15.573  10.681
25650W        W97321   6.219   0.416   4.188
25651W        W97322   4.051  43.272   1.902
25652W        W97323  20.037   1.947  11.003
25653W        W97324  35.369  44.327  12.887
25654W        W97325  44.728   6.301  13.377
25655W        W97326  33.442  13.796  11.731
25656W        W97327   9.905   9.127  11.235
25657W        W97328  36.195  22.573  12.358
25658W        W97329  23.526  24.082  10.290
25659W        W97330  23.938  28.061   0.517
25660W        W97331  35.412  21.260  13.969
25661W        W97332  43.332  30.665   3.242
25662W        W97333  23.517  14.688   4.183
25663W        W97334  41.740   2.823   3.525
25664W        W97335  14.773  10.300   0.499
25665W        W97336  26.470  30.988   3.352
25666W        W97337  39.300  15.405   0.969
25667W        W97338  27.607  24.668  14.483
25668W        W97339  12.499  44.776   1.800
25669W        W97340  19.163  16.022   0.364
25670W        W97341   2.297  14.165  14.963
25671W        W97342  19.681  44.148  11.106
25672W        W97343  42.963  23.275   0.491
25673W        W97344   6.151  31.086  10.722
25674W        W97345  13.544  23.913  12.911
25675W        W97346  14.621   2.344   0.450
25676W        W97347  39.133  13.460  12.133
25677W        W97348   1.858  18.177   2.604
25678W        W97349  11.878  38.000   0.013
25679W        W97350  29.412  41.010  10.175
25680W        W97351   9.330   1.230  12.139
25681W        W97352  39.608   5.411   0.331
25682W        W97353   1.044  20.013   9.875
25683W        W97354  37.388  34.471  11.080
25684W        W97355   2.713  35.842   2.403
25685W        W97356   8.740   4.019   0.579
25686W        W97357  23.085  30.928   3.251
25687W        W97358  37.149   1.920   0.977
25688W        W97359  27.426  21.686  11.927
25689W        W97360  16.297   1.540   2.111
25690W        W97361  23.035  18.724   2.604
25691W        W97362  16.734   3.951  13.519
25692W        W97363  13.014   4.973   4.093
25693W        W97364  16.175  20.818  10.788
25694W        W97365   1.665  22.641   4.591
25695W        W97366  19.258  12.555  14.304
25696W        W97367  42.417  10.361  10.319
25697W        W97368  28.394  39.837   4.817
25698W        W97369  34.405   8.587   5.078
25699W        W97370  22.214   2.260  12.028
25700W        W97371  14.376  18.852  14.048
25701W        W97372  43.920  23.640   3.310
25702W        W97373  39.524  24.160  14.347
25703W        W97374  41.793  16.253   4.340
25704W        W97375  30.125  18.778   2.348
25705W        W97376   5.708  14.887   1.022
25706W        W97377  24.267  30.011   0.031
25707W        W97378  34.827  19.567   4.500
25708W        W97379  11.654  16.109   3.554
25709W        W97380  24.142  13.771  12.926
25710W        W97381  41.263  35.695   3.565
25711W        W97382  22.943  28.560   3.341
25712W        W97383  17.399   4.331  13.790
25713W        W97384  23.550  35.763  12.927
25714W        W97385  16.750  26.001  12.438
25715W        W97386  44.881  26.508   2.382
25716W        W97387  25.671   2.509   2.270
25717W        W97388  10.698   0.452   3.669
25718W        W97389   0.079   8.021  12.083
25719W        W97390  34.641   7.803   4.129
25720W        W97391  12.827  37.619   4.292
25721W        W97392  24.849   2.274  13.974
25722W        W97393  15.751  26.587   2.812
25723W        W97394  18.552   6.271   4.363
25724W        W97395  15.616  36.367  13.430
25725W        W97396  41.079  20.972  14.895
25726W        W97397  31.856  40.890  13.330
25727W        W97398   4.232  12.128  12.421
25728W        W97399  34.543  14.635   4.919
25729W        W97400  44.308  26.953  11.913
25730W        W97401  19.089  42.050  12.480
25731W        W97402  36.203  15.152   3.209
25732W        W97403  38.093  18.124   4.102
25733W        W97404   4.435  29.700  12.648
25734W        W97405  16.118  22.714   0.606
25735W        W97406   4.191   5.388   2.672
25736W        W97407  43.237  19.992  14.015
25737W        W97408  35.628   2.663   0.775
25738W        W97409  33.568  24.357  14.311
25739W        W97410  43.523   1.071   3.688
25740W        W97411   0.571  28.220  10.997
25741W        W97412  26.111  14.666   3.761
25742W        W97413  12.246  44.402  12.284
25743W        W97414  19.588   6.045  11.511
25744W        W97415  35.157  16.523  11.982
25745W        W97416   9.814  28.507   2.609
25746W        W97417   2.310  35.061  13.961
25747W        W97418   9.552  14.183   2.889
25748W        W97419  24.178  20.141  13.105
25749W        W97420  15.610  31.978  11.543
25750W        W97421  42.366  29.114   0.319
25751W        W97422  23.453  28.113  11.492
25752W        W97423  33.542  40.258  13.577
25753W        W97424  32.570  43.398   1.746
25754W        W97425  38.929  16.236  11.562
25755W        W97426   9.356  28.352   2.298
25756W        W97427  31.686  38.974   0.864
25757W        W97428   3.255  22.706  12.698
25758W        W97429   5.327   5.912  11.156
25759W        W97430  10.329  12.160  13.762
25760W        W97431   6.227  38.468  11.245
25761W        W97432  25.901  44.493  13.426
25762W        W97433  38.617  27.571  13.994
25763W        W97434   4.529  23.445   3.729
25764W        W97435   0.377  40.421  14.475
25765W        W97436  44.255  21.020   5.469
25766W        W97437  21.627   4.848   1.653
25767W        W97438   5.263  24.946   1.680
25768W        W97439  31.791  44.892  13.892
25769W        W97440  38.085  12.199  12.029
25770W        W97441   6.948  16.724  14.768
25771W        W97442  26.970  11.623  14.877
25772W        W97443  13.071  30.515   2.327
25773W        W97444   6.241  36.971   1.744
25774W        W97445  29.031  35.083   3.937
25775W        W97446  11.917   8.627   0.859
25776W        W97447  10.375  42.948   2.220
25777W        W97448  23.437  25.956  10.663
25778W        W97449  37.296   6.847  13.976
25779W        W97450  11.241   7.311  11.917
25780W        W97451   3.851  41.898  11.339
25781W        W97452  10.629  11.745   3.613
25782W        W97453   9.323  40.822  13.967
25783W        W97454  38.293  14.298  14.059
25784W        W97455  15.546  21.500  12.035
25785W        W97456  17.677  34.139  11.234
25786W        W97457   9.858  37.129   3.547
25787W        W97458   1.225   3.298   3.904
25788W        W97459   6.285  12.337   4.062
25789W        W97460  20.486  21.608  12.635
25790W        W97461  35.656  28.590  12.127
25791W        W97462  17.753  24.892   4.337
25792W        W97463  12.606  25.631  12.491
25793W        W97464   5.686   4.326   1.242
25794W        W97465   4.418   1.960   3.821
25795W        W97466  15.655   7.219   2.224
25796W        W97467  39.752  37.854   3.691
25797W        W97468  17.605  12.649  12.022
25798W        W97469  17.597  39.772  14.419
25799W        W97470   3.759  25.771   4.331
25800W        W97471   0.341  12.687  11.568
25801W        W97472  28.793   2.755  12.470
25802W        W97473  11.706  41.297   4.551
25803W        W97474  38.015  12.764  13.098
25804W        W97475  24.041   8.180   2.851
25805W        W97476  20.359   7.352  13.939
25806W        W97477  38.963  31.191  12.106
25807W        W97478  16.440  29.078   1.988
25808W        W97479  17.694  39.126  11.603
25809W        W97480  22.302  32.621   3.766
25810W        W97481  39.974  38.063  14.257
25811W        W97482  23.202   3.766   3.650
25812W        W97483  42.398   1.291  10.586
25813W        W97484  42.009  35.154   1.710
25814W        W97485  26.054  14.540  11.656
25815W        W97486  35.496   9.158  10.815
25816W        W97487  20.660  14.549   4.604
25817W        W97488  12.490   8.833   3.256
25818W        W97489  41.035  27.233  13.805
25819W        W97490   2.259  42.462  13.069
25820W        W97491   9.264   0.738   4.597
25821W        W97492  32.394  10.154   9.697
25822W        W97493  17.030  28.425  14.214
25823W        W97494   7.363  38.807   2.359
25824W        W97495  21.004  34.390  13.491
25825W        W97496  25.655  38.138  11.249
25826W        W97497   7.764  36.319  12.652
25827W        W97498  38.555  14.177  11.144
25828W        W97499  14.291  19.039   1.755
25829W        W97500  41.846   1.951  14.619
25830W        W97501  30.025   1.329   0.784
25831W        W97502  21.978  22.660  14.437
25832W        W97503  34.596  16.730  14.854
25833W        W97504  11.728  31.571  10.386
25834W        W97505  11.940   5.811  12.415
25835W        W97506  30.114  21.049   1.726
25836W        W97507  43.545  10.296   0.016
25837W        W97508  12.320  22.697   2.662
25838W        W97509  27.096  30.605   1.309
25839W        W97510  14.387  40.463  11.112
25840W        W97511  25.990  42.563  13.475
25841W        W97512  44.149  32.506  11.741
25842W        W97513  19.138  11.551   4.141
25843W        W97514  43.361  23.229  10.376
25844W        W97515  16.336  29.860   3.216
25845W        W97516  25.961  20.765  13.999
25846W        W97517  43.749  43.544   4.804
25847W        W97518  34.054  37.800   3.731
25848W        W97519  30.758  28.195  13.861
25849W        W97520  41.344   5.333   0.937
25850W        W97521  33.374  35.410   2.331
25851W        W97522  13.165  41.697  14.339
25852W        W97523  19.232   6.479   1.273
25853W        W97524  43.023  16.654  12.049
25854W        W97525  17.481  33.365   1.177
25855W        W97526  24.075  44.301   2.717
25856W        W97527  25.926  32.559  11.045
25857W        W97528   0.853  19.219   1.251
25858W        W97529  35.633   4.737   1.704
25859W        W97530  33.316  35.858  10.855
25860W        W97531  39.506  33.960   3.729
25861W        W97532  20.652  31.017  11.628
25862W        W97533  12.879  18.491  14.996
25863W        W97534  24.586  38.383   1.477
25864W        W97535  30.132  25.185   0.097
25865W        W97536   0.754  42.900  12.517
25866W        W97537  19.116  39.459  10.788
25867W        W97538   0.931  33.334   1.682
25868W        W97539   6.296  10.262  14.397
25869W        W97540  23.204   9.743   0.077
25870W        W97541   6.729  16.316   1.336
25871W        W97542  37.234  13.782  14.548
25872W        W97543   8.159   1.494   1.348
25873W        W97544   0.741  16.885   3.840
25874W        W97545  28.456  21.225   4.129
25875W        W97546  22.307   8.119   3.211
25876W        W97547  41.769  35.785   3.642
25877W        W97548  13.785  10.393   2.239
25878W        W97549  32.250  19.963   2.724
25879W        W97550  20.482  34.076  12.487
25880W        W97551  20.068  44.032   1.718
25881W        W97552   7.586   9.331   1.261
25882W        W97553  43.726   9.364   4.227
25883W        W97554   3.722   0.859   0.891
25884W        W97555  26.415  31.668   2.217
25885W        W97556  15.792  10.066  13.344
25886W        W97557  44.945  23.160  13.518
25887W        W97558  26.938  40.577   1.580
25888W        W97559  26.189  37.587   1.705
25889W        W97560  32.580   8.632  13.607
25890W        W97561   5.734  18.135  12.078
25891W        W97562  15.760  32.226  12.435
25892W        W97563  20.980  25.110  14.698
25893W        W97564  21.646  18.336  12.434
25894W        W97565  17.148  28.986  12.256
25895W        W97566  21.637  33.446  12.924
25896W        W97567  31.038  40.203  14.052
25897W        W97568  27.116   6.854  13.963
25898W        W97569   2.679  13.102  14.060
25899W        W97570  30.698  32.009   0.264
25900W        W97571  27.850   8.960   1.838
25901W        W97572  15.191  11.798  12.912
25902W        W97573  21.527  43.422  14.528
25903W        W97574  44.489  33.525   2.619
25904W        W97575  23.029  23.952  14.826
25905W        W97576   5.631  12.849  13.838
25906W        W97577  25.730   9.772  14.690
25907W        W97578  22.370   8.160  13.458
25908W        W97579  24.152  18.725  13.403
25909W        W97580  43.227  37.663  12.766
25910W        W97581  42.943  18.787  13.943
25911W        W97582   4.213  24.955   2.755
25912W        W97583   3.784   3.229   0.230
25913W        W97584   7.652  26.990  12.092
25914W        W97585   5.312  39.537   2.305
25915W        W97586  38.774  23.410   0.820
25916W        W97587  11.924  23.031  11.855
25917W        W97588  16.536  11.722  13.082
25918W        W97589  23.755  11.291   4.101
25919W        W97590  38.039  15.582  12.486
25920W        W97591  40.264  43.390   4.129
25921W        W97592  35.557  32.492   2.701
25922W        W97593   4.851  38.935  10.217
25923W        W97594   3.826  32.073  12.469
25924W        W97595   7.338  22.713   1.252
25925W        W97596  18.581  42.323   3.365
25926W        W97597   3.850  41.959   3.216
25927W        W97598   4.244  36.367   1.002
25928W        W97599  40.079  31.122   0.422
25929W        W97600  33.672  27.505  12.668
25930W        W97601   9.227  40.077  14.558
25931W        W97602  21.105  11.859  12.479
25932W        W97603  14.059  25.150   1.840
25933W        W97604  24.447  29.640  14.734
25934W        W97605   5.829  10.676  10.714
25935W        W97606   6.811   7.773   1.773
25936W        W97607  36.161  17.608   1.172
25937W        W97608  37.296   2.524  10.952
25938W        W97609   5.936   7.752   2.901
25939W        W97610  39.911  39.102   2.416
25940W        W97611  29.866   8.879   1.885
25941W        W97612  30.049   5.428   1.491
25942W        W97613  21.154  12.126   0.725
25943W        W97614  31.585  25.593  14.963
25944W        W97615   1.890  10.231  13.534
25945W        W97616  16.176   6.018   0.029
25946W        W97617   9.905  29.383  12.063
25947W        W97618  24.986  13.736  14.025
25948W        W97619  16.732  44.067   3.248
25949W        W97620  30.710  17.320   4.821
25950W        W97621  22.768  34.965   2.132
25951W        W97622  34.966  13.574   0.423
25952W        W97623  13.919   4.657   3.228
25953W        W97624  30.607  22.105   0.006
25954W        W97625  14.317  23.644  10.049
25955W        W97626   5.470   9.977  13.789
25956W        W97627   5.011   3.280   2.702
25957W        W97628   4.884  43.357  14.019
25958W        W97629  14.681   7.819  14.414
25959W        W97630  22.472   0.293  11.928
25960W        W97631  29.888   6.172  13.502
25961W        W97632  18.427  26.058  13.441
25962W        W97633  28.165  24.978   3.132
25963W        W97634  37.658  24.152   4.533
25964W        W97635   5.567  33.827   0.378
25965W        W97636  29.987  41.453   0.894
25966W        W97637  44.827  23.505   1.875
25967W        W97638  29.088   7.152  10.250
25968W        W97639  25.089  29.488   3.041
25969W        W97640  44.493  12.417   4.539
25970W        W97641  17.249  24.915  12.883
25971W        W97642   5.987  36.416  13.513
25972W        W97643  42.876   6.100   3.398
25973W        W97644  19.555  20.597   0.417
25974W        W97645  13.353  17.683   0.916
25975W        W97646  19.179  11.441   2.375
25976W        W97647   1.118   2.649  10.944
25977W        W97648  13.191  42.515  12.517
25978W        W97649  38.359  23.546   1.350
25979W        W97650  18.834  15.990   5.093
25980W        W97651  25.052  17.893  13.466
25981W        W97652  34.538  22.083   1.980
25982W        W97653  37.895  16.681   1.769
25983W        W97654  11.109  27.914  12.133
25984W        W97655  31.210  31.441   2.307
25985W        W97656  44.960  38.534   3.875
25986W        W97657  35.582  16.066  13.583
25987W        W97658  14.081  19.992  13.413
25988W        W97659  38.927  43.961  14.223
25989W        W97660  36.364   6.104   0.921
25990W        W97661  25.959  28.461  12.745
25991W        W97662  43.088   9.572   0.823
25992W        W97663  39.330  26.618   3.650
25993W        W97664  36.313  26.155   1.820
25994W        W97665  42.750  29.926   0.704
25995W        W97666  41.855   3.549  11.420
25996W        W97667  15.755  16.642   0.429
25997W        W97668  44.008   4.182  11.638
25998W        W97669   5.841  10.464  14.515
25999W        W97670  44.008  30.573  12.522
26000W        W97671  22.161  15.101   2.888
26001W        W97672  39.019  25.433  10.683
26002W        W97673  33.565   2.764   2.019
26003W        W97674  22.306  35.883  12.435
26004W        W97675  27.583  22.971  12.307
26005W        W97676   4.970  41.095  13.098
26006W        W97677  12.398  30.875  12.132
26007W        W97678   8.922  14.251   1.983
26008W        W97679  44.288  23.741  11.082
26009W        W97680  40.235  28.916  12.542
26010W        W97681  42.009  18.683   3.618
26011W        W97682   4.036  15.568   4.189
26012W        W97683   8.717  24.080   3.939
26013W        W97684   1.282  38.304  12.614
26014W        W97685  18.571  34.353  14.014
26015W        W97686   5.186  39.272   1.424
26016W        W97687  13.070  28.458  11.571
26017W        W97688  34.568  17.097  11.418
26018W        W97689   0.534  27.632  12.079
26019W        W97690  20.760  35.860   3.675
26020W        W97691   1.928  32.891  14.406
26021W        W97692  22.048  43.959  11.184
26022W        W97693  35.496  42.577   1.748
26023W        W97694  32.661  32.290  14.837
26024W        W97695  16.420  10.221  12.552
26025W        W97696   4.837  23.906   3.134
26026W        W97697  37.491  38.147   0.296
26027W        W97698   7.150  28.977   0.264
26028W        W97699  13.861  44.441   3.206
26029W        W97700  23.836  44.469  10.046
26030W        W97701  34.608   5.847   0.269
26031W        W97702  40.278  23.038   2.187
26032W        W97703   4.000  22.252   3.774
26033W        W97704  15.710  33.109  14.686
26034W        W97705  22.512  32.276   4.115
26035W        W97706  28.477  42.466  11.513
26036W        W97707  43.575  28.675  11.218
26037W        W97708  30.597  13.546   1.382
26038W        W97709  32.005  35.796  14.121
26039W        W97710  11.203   2.527   0.389
26040W        W97711  13.196   9.402   2.385
26041W        W97712  10.158  25.189   4.929
26042W        W97713  41.858  41.418  14.363
26043W        W97714   1.489  35.003   3.168
26044W        W97715  34.317  12.837   4.102
26045W        W97716   8.813  31.669   2.829
26046W        W97717  35.212  29.616   2.500
26047W        W97718  17.152  16.855  11.603
26048W        W97719   1.880  16.483   3.139
26049W        W97720   4.969  42.057   4.852
26050W        W97721   8.041  29.183  14.990
26051W        W97722  27.026  24.207  14.106
26052W        W97723  18.467   9.701  10.629
26053W        W97724  27.169  19.555  11.547
26054W        W97725  24.423  34.003   4.583
26055W        W97726  34.880  28.556   3.411
26056W        W97727  30.074   0.327  13.352
26057W        W97728  17.607  32.962   1.485
26058W        W97729  39.660   0.588  12.515
26059W        W97730  17.786   3.390  10.507
26060W        W97731  43.344   6.300  10.694
26061W        W97732  14.801   8.074   3.240
26062W        W97733  35.495  16.282   2.731
26063W        W97734  28.605   2.203   4.522
26064W        W97735  34.843   0.181  12.046
26065W        W97736   7.731   7.320   2.745
26066W        W97737  19.821  19.220   1.705
26067W        W97738  33.446  13.104  14.398
26068W        W97739  26.066  20.785   2.368
26069W        W97740   0.064  40.483   0.935
26070W        W97741  30.246  34.998   2.378
26071W        W97742   4.752   8.704   4.859
26072W        W97743   4.289   8.110  11.969
26073W        W97744  20.103  15.734  14.829
26074W        W97745  37.321  32.101   1.364
26075W        W97746  17.951  10.837  11.122
26076W        W97747   7.414  14.081   3.688
26077W        W97748  17.333   5.849   1.299
26078W        W97749  25.160   3.287  10.707
26079W        W97750  43.245  16.711   3.715
26080W        W97751  10.096  40.531  14.738
26081W        W97752  28.446  17.396  14.164
26082W        W97753  14.765  25.762   4.223
26083W        W97754   2.552   3.728  14.423
26084W        W97755  29.837  28.824  12.155
26085W        W97756  43.695  41.932  13.364
26086W        W97757   6.224   6.729  13.347
26087W        W97758  19.291  28.377  12.121
26088W        W97759  18.861  25.717  11.092
26089W        W97760  32.785  33.591  13.976
26090W        W97761  10.665  27.666   1.656
26091W        W97762   4.979   5.718  13.005
26092W        W97763  27.700  15.846  14.074
26093W        W97764  38.833   5.242   1.363
26094W        W97765  39.836  24.679   2.311
26095W        W97766  18.241   8.638  14.853
26096W        W97767  39.049  18.475   4.254
26097W        W97768  43.028  21.526  10.687
26098W        W97769  22.296  33.573   4.932
26099W        W97770   6.720  17.895   3.165
26100W        W97771  43.682  35.922   1.753
26101W        W97772  42.267  36.439   1.307
26102W        W97773  41.010  24.030  12.903
26103W        W97774  19.386  29.802   5.207
26104W        W97775  33.906   0.715  14.945
26105W        W97776  19.108  28.008   2.237
26106W        W97777  34.073  35.782   3.514
26107W        W97778   3.686  32.421   3.709
26108W        W97779  32.862  41.897   2.701
26109W        W97780  13.160   0.951  11.483
26110W        W97781  10.486   0.058   0.922
26111W        W97782  42.779  27.553   1.391
26112W        W97783  15.676  10.027  10.566
26113W        W97784   8.287  40.990   3.141
26114W        W97785  43.070  17.536   2.247
26115W        W97786  19.415  38.631  11.249
26116W        W97787   9.118  20.845   5.186
26117W        W97788  23.693   9.161   2.697
26118W        W97789  36.464  34.363   4.120
26119W        W97790  15.069  28.942   3.870
26120W        W97791  36.248  29.857   4.211
26121W        W97792  24.529  17.314   0.339
26122W        W97793   7.284  32.569   1.689
26123W        W97794   0.501  25.036   3.336
26124W        W97795  14.424   9.694  14.806
26125W        W97796  40.572  10.826  11.665
26126W        W97797  33.431   0.747   0.402
26127W        W97798   2.532  16.743   0.827
26128W        W97799  33.421  16.168   2.307
26129W        W97800  34.423   7.166   2.375
26130W        W97801   8.671  37.058  14.088
26131W        W97802  28.778   5.830  13.458
26132W        W97803   1.859  14.090   4.329
26133W        W97804  24.874   8.760  11.585
26134W        W97805  14.024  22.127   3.168
26135W        W97806  21.284   3.833  11.203
26136W        W97807   8.406  21.716  11.165
26137W        W97808  41.744  24.161  10.534
26138W        W97809  41.956   9.208  12.540
26139W        W97810  13.063  26.085   3.619
26140W        W97811  32.642  23.782   3.125
26141W        W97812  41.571  41.819  12.924
26142W        W97813  21.206  20.564   4.344
26143W        W97814  21.023  21.378  13.913
26144W        W97815  41.020   5.975   0.380
26145W        W97816   2.541  10.663  11.586
26146W        W97817  10.297  27.419  11.440
26147W        W97818  22.412  29.362  11.091
26148W        W97819  32.493  36.892   1.633
26149W        W97820  23.962  26.723  10.737
26150W        W97821   4.671  40.791  13.395
26151W        W97822  12.434   1.338   3.145
26152W        W97823  42.849  34.934   1.944
26153W        W97824  37.489   7.328   0.004
26154W        W97825  39.036  10.507   1.625
26155W        W97826  21.912   2.263   1.684
26156W        W97827  18.504   4.166   1.408
26157W        W97828  26.938  39.514   2.629
26158W        W97829  14.235  24.765   1.486
26159W        W97830  36.114  27.598   4.599
26160W        W97831   6.266  15.602  12.448
26161W        W97832  30.855  39.114   1.693
26162W        W97833  10.179  38.226  14.592
26163W        W97834  16.622  40.491   2.719
26164W        W97835   1.045  30.067  11.896
26165W        W97836  36.494  18.156  10.619
26166W        W97837  41.967  21.476  12.402
26167W        W97838  33.692  17.217   1.302
26168W        W97839  14.508  43.964  12.496
26169W        W97840   7.612  12.813  14.036
26170W        W97841  43.843  23.774   0.980
26171W        W97842  31.721  31.610  13.846
26172W        W97843   3.223  40.933   1.947
26173W        W97844  43.344  29.830   2.851
26174W        W97845  32.396  39.851  14.065
26175W        W97846  24.625  43.857   4.668
26176W        W97847  17.088  18.046  11.696
26177W        W97848  35.932  20.115  14.954
26178W        W97849   7.562  26.622  10.214
26179W        W97850  29.576  24.014   2.761
26180W        W97851  13.064  36.549  12.649
26181W        W97852  41.762  32.107  11.607
26182W        W97853   2.770  28.136   3.361
26183W        W97854  16.174  43.930   1.351
26184W        W97855   0.448   6.789   0.895
26185W        W97856   2.971  12.708  14.274
26186W        W97857  23.977  31.495   3.236
26187W        W97858  13.679  34.907  13.548
26188W        W97859  32.168   6.239   0.834
26189W        W97860  30.824   1.297  14.461
26190W        W97861  20.876  31.680   3.125
26191W        W97862  44.287  16.167   1.745
26192W        W97863  42.008  20.038  11.038
26193W        W97864  23.238  18.205  10.845
26194W        W97865   2.033  42.018   4.342
26195W        W97866   4.346  10.410   0.153
26196W        W97867  41.161   7.319   1.500
26197W        W97868  25.784   4.745  14.680
26198W        W97869  41.093  41.395  12.164
26199W        W97870  18.467  26.563  13.322
26200W        W97871  22.276  42.264   4.893
26201W        W97872  24.093   5.285  10.262
26202W        W97873   0.895  41.712   3.633
26203W        W97874  36.551  27.660   1.939
26204W        W97875  16.736   4.151  10.165
26205W        W97876   4.129  38.385   3.164
26206W        W97877  44.876   8.276  13.379
26207W        W97878  12.561  16.609   1.269
26208W        W97879  29.248   4.925  13.495
26209W        W97880  22.423  38.694   0.502
26210W        W97881   4.731  38.017  11.949
26211W        W97882  31.944  22.084   2.849
26212W        W97883   4.737   4.120  13.896
26213W        W97884  25.086  44.740   4.182
26214W        W97885  18.013  29.670   2.768
26215W        W97886  37.505  40.355   3.402
26216W        W97887  30.642  18.880   5.100
26217W        W97888  10.650  30.067  13.879
26218W        W97889  43.314  14.789   1.695
26219W        W97890  44.219  43.820   4.179
26220W        W97891  21.653  16.093   4.557
26221W        W97892  39.515  29.242  14.018
26222W        W97893  29.021  32.496  14.596
26223W        W97894  42.620  36.078  11.059
26224W        W97895  36.543  10.095  11.556
26225W        W97896  42.575  33.427  13.251
26226W        W97897  14.693  34.470   1.119
26227W        W97898  41.724  35.725   2.788
26228W        W97899  16.814  24.499   0.699
26229W        W97900  14.829   7.377  11.063
26230W        W97901   8.670  15.036  12.366
26231W        W97902  26.546   4.510   1.255
26232W        W97903  30.863  14.271   0.199
26233W        W97904  23.759  32.789   0.744
26234W        W97905  14.192   2.105  11.498
26235W        W97906  14.956  36.918  14.265
26236W        W97907  14.176   0.496   4.579
26237W        W97908  10.826  16.998   1.884
26238W        W97909  42.106  33.110   3.297
26239W        W97910  37.471  25.746  14.395
26240W        W97911  20.485   9.626  14.798
26241W        W97912  20.000  35.931  12.099
26242W        W97913   0.186  38.335  12.863
26243W        W97914  25.934  21.245  13.145
26244W        W97915  18.723  28.167  12.836
26245W        W97916  23.951  18.737  14.786
26246W        W97917  44.284  13.757   9.876
26247W        W97918  40.502  32.067   2.271
26248W        W97919  14.193  21.084   3.180
26249W        W97920   4.402   3.868  11.425
26250W        W97921  33.948  32.887   2.357
26251W        W97922  16.993   6.248  10.652
26252W        W97923  25.626   5.146   3.143
26253W        W97924  28.019   7.899  12.875
26254W        W97925  28.252   4.208   3.224
26255W        W97926  27.254  30.203   1.870
26256W        W97927   7.298  43.925  14.882
26257W        W97928  13.409  10.077   0.510
26258W        W97929  23.781  39.308  12.575
26259W        W97930  42.972   9.603  10.790
26260W        W97931  35.421   8.577   2.266
26261W        W97932  19.901  44.969   2.109
26262W        W97933  24.981  15.217  13.228
26263W        W97934  31.641  39.483  11.603
26264W        W97935   7.821  38.766  12.339
26265W        W97936  15.640  20.936  11.059
26266W        W97937  12.613   2.048  14.574
26267W        W97938  34.613  22.220   1.476
26268W        W97939  10.156  32.401  13.812
26269W        W97940   0.794  10.846   4.354
26270W        W97941  23.667  20.296   3.678
26271W        W97942  27.726  13.308  12.465
26272W        W97943  22.339  35.585   2.751
26273W        W97944   5.722  20.683   2.591
26274W        W97945  21.203  11.011  14.863
26275W        W97946  28.931  27.560   1.298
26276W        W97947  33.787  10.469  11.146
26277W        W97948   0.467  19.647  13.490
26278W        W97949  40.492   7.230   4.221
26279W        W97950   5.459  36.804   1.310
26280W        W97951   5.639  27.165  13.421
26281W        W97952  17.929  14.720   5.443
26282W        W97953  14.682   0.356  11.342
26283W        W97954  44.027  24.136   5.550
26284W        W97955  41.476  30.670   2.480
26285W        W97956  15.082   1.491  13.512
26286W        W97957  41.298   6.333   3.332
26287W        W97958  12.162  13.211  12.932
26288W        W97959  29.143  24.251  13.939
26289W        W97960   9.418  41.953  12.529
26290W        W97961  22.797  12.970   3.609
26291W        W97962  30.660  15.102  11.947
26292W        W97963  40.949   6.369  13.481
26293W        W97964  34.393  34.365  13.357
26294W        W97965  16.278  39.798   1.236
26295W        W97966  12.755  17.697  11.338
26296W        W97967  31.454  37.874  13.845
26297W        W97968   2.531  42.786   2.302
26298W        W97969  19.106  10.287   3.757
26299W        W97970  26.277  15.273   4.401
26300W        W97971  25.640  36.664  11.500
26301W        W97972   9.645  44.478  14.192
26302W        W97973  20.757  12.157  10.721
26303W        W97974   7.438   9.921  11.897
26304W        W97975  12.598  23.571   4.188
26305W        W97976  14.763  41.087  12.944
26306W        W97977  29.144  20.992  14.988
26307W        W97978  20.938  25.041   2.248
26308W        W97979   4.586  44.000  12.456
26309W        W97980   9.823  30.012  11.200
26310W        W97981  15.281  18.603  13.975
26311W        W97982  12.185  19.320  13.040
26312W        W97983   9.886  34.600   1.508
26313W        W97984  24.475  39.387  13.492
26314W        W97985  30.189  43.232  13.455
26315W        W97986  12.713  35.025  11.963
26316W        W97987   8.780  37.823   1.323
26317W        W97988   4.727  31.170  10.732
26318W        W97989  26.550  37.560  14.427
26319W        W97990  10.857   9.540  10.779
26320W        W97991  11.475  31.124  14.082
26321W        W97992  31.198   2.203  13.462
26322W        W97993  38.890  20.501   0.389
26323W        W97994   6.657   3.591  11.750
26324W        W97995   8.758  44.036  12.101
26325W        W97996  10.176  21.985   4.083
26326W        W97997  16.042   1.781  13.960
26327W        W97998  42.530  38.711  12.792
26328W        W97999  30.794  21.226   4.726
26329W        W98000  30.342   3.252  13.118
26330W        W98001  42.735  40.946   0.525
26331W        W98002  23.765  36.909   1.958
26332W        W98003  41.237   2.956  11.406
26333W        W98004  34.305  43.379   2.687
26334W        W98005   5.280   3.283   4.610
26335W        W98006  22.609  38.351   2.385
26336W        W98007  41.294  34.062   2.934
26337W        W98008  31.922  11.253   2.391
26338W        W98009  15.850  33.987   0.498
26339W        W98010   0.275  13.241  14.573
26340W        W98011  38.880   3.536  11.216
26341W        W98012  42.487  35.476   0.036
26342W        W98013  18.211  19.609  13.411
26343W        W98014  28.508  27.189   2.207
26344W        W98015  10.711  18.660   3.232
26345W        W98016   1.921  32.125   2.406
26346W        W98017   4.925  15.191  12.442
26347W        W98018   2.305  41.128   2.919
26348W        W98019   5.442  36.761   3.755
26349W        W98020  22.534  28.715   1.351
26350W        W98021  13.818   3.509  10.619
26351W        W98022  43.402   5.175  14.911
26352W        W98023  18.241  34.437  13.589
26353W        W98024  39.461   7.224   1.759
26354W        W98025  18.459  12.623  13.258
26355W        W98026  17.150   6.131  11.539
26356W        W98027   6.131   2.393  13.912
26357W        W98028  42.397  11.583  12.193
26358W        W98029  40.434  10.989   3.693
26359W        W98030  12.394   6.440   1.851
26360W        W98031  44.756   2.799   1.847
26361W        W98032  42.998  36.614  11.899
26362W        W98033  44.417  24.469  11.601
26363W        W98034  36.892  24.787  13.477
26364W        W98035  35.587  35.075   3.572
26365W        W98036  26.003   1.218  12.392
26366W        W98037   0.594  18.475   5.024
26367W        W98038  42.597   5.307   1.878
26368W        W98039  20.731  17.557  14.242
26369W        W98040  27.652  21.031   0.457
26370W        W98041  12.866  25.099   2.618
26371W        W98042  19.112   8.577  13.048
26372W        W98043  24.413  24.975   2.436
26373W        W98044  36.629  16.287   0.738
26374W        W98045  35.004  31.898  13.933
26375W        W98046  25.026   3.014  14.758
26376W        W98047  41.038  22.199  14.411
26377W        W98048  41.470  21.988  11.579
26378W        W98049  31.878  28.327   3.669
26379W        W98050  17.612  14.303   4.678
26380W        W98051  38.236   9.665   0.468
26381W        W98052  43.922  26.916  13.391
26382W        W98053   1.659  21.575  13.841
26383W        W98054  27.730  28.257   2.340
26384W        W98055  40.972   0.504  12.731
26385W        W98056  13.266   2.339   3.929
26386W        W98057  16.049  38.780  11.604
26387W        W98058  32.182  29.677   0.865
26388W        W98059  39.927  26.181   3.013
26389W        W98060  21.740  34.346  11.186
26390W        W98061  35.854  36.983   1.037
26391W        W98062  41.386  24.052  14.476
26392W        W98063  39.316  25.089  13.545
26393W        W98064  18.682  23.718  14.528
26394W        W98065   7.989  14.317   4.810
26395W        W98066  30.539  11.691   2.263
26396W        W98067   3.619  23.905  13.882
26397W        W98068   5.677  36.566   4.628
26398W        W98069  10.292  10.880   2.310
26399W        W98070  12.064  26.046  14.970
26400W        W98071  40.806   2.672  11.305
26401W        W98072  27.105   3.465  10.719
26402W        W98073   8.048   9.835  12.564
26403W        W98074  25.229  11.620  12.127
26404W        W98075  29.634  16.631  11.167
26405W        W98076   3.875  30.424  14.524
26406W        W98077   4.690   8.500  14.348
26407W        W98078  27.076   6.844  12.071
26408W        W98079  37.320   8.101   0.486
26409W        W98080  11.295  35.479  14.024
26410W        W98081  23.733  27.596  12.148
26411W        W98082   7.738  41.056  13.150
26412W        W98083   4.304  38.939   0.938
26413W        W98084   2.467  16.098  11.644
26414W        W98085  10.784  10.411  11.342
26415W        W98086   3.635  19.796  11.518
26416W        W98087   7.438  12.960   2.793
26417W        W98088  41.764  26.604  11.193
26418W        W98089  23.576  42.166   3.732
26419W        W98090   7.500  36.347  13.973
26420W        W98091  11.118  33.888   1.900
26421W        W98092  41.625   5.777   4.678
26422W        W98093  37.914  44.050  14.465
26423W        W98094  33.905   3.078  11.106
26424W        W98095  18.852  13.684  10.238
26425W        W98096  35.630  21.794   4.131
26426W        W98097  27.492   6.710   3.120
26427W        W98098   0.517  12.559   0.302
26428W        W98099  19.849  30.671   2.365
26429W        W98100  17.652   1.842   2.571
26430W        W98101   6.289  15.868  12.897
26431W        W98102  36.398  19.716   1.152
26432W        W98103  40.116   6.626   1.589
26433W        W98104  22.828   5.475  11.533
26434W        W98105  35.619  12.265   4.049
26435W        W98106  17.649  12.796   0.968
26436W        W98107   3.457  44.023   2.106
26437W        W98108  25.893  15.715  14.448
26438W        W98109  43.729  24.266   5.138
26439W        W98110  30.632  17.104  14.434
26440W        W98111  15.346  17.214  11.548
26441W        W98112  31.480   0.227   1.251
26442W        W98113  28.406  20.084   4.843
26443W        W98114  31.535  40.495  10.772
26444W        W98115  27.371   5.239   0.802
26445W        W98116  42.956  41.298  11.610
26446W        W98117  20.562  44.395  14.317
26447W        W98118  15.592  13.090   0.357
26448W        W98119  12.683   9.413   2.213
26449W        W98120   5.121  22.577  10.627
26450W        W98121  42.968  26.978  12.905
26451W        W98122  34.188  38.529   4.213
26452W        W98123  19.781  17.208   0.128
26453W        W98124  44.995  35.451  12.597
26454W        W98125   7.032  36.948  12.392
26455W        W98126  41.022  37.939  12.415
26456W        W98127   8.827  31.187   4.156
26457W        W98128  36.446  21.468  10.626
26458W        W98129  13.732  43.742  13.064
26459W        W98130  36.881   7.210  13.881
26460W        W98131  19.075  37.287   1.656
26461W        W98132  30.092  20.559   0.427
26462W        W98133  35.738  40.669   4.227
26463W        W98134  20.126   1.075  14.805
26464W        W98135  40.369   3.448   2.331
26465W        W98136  33.397   0.679   9.811
26466W        W98137  32.612  35.946  12.833
26467W        W98138  17.856  30.951  13.830
26468W        W98139  37.270  16.373  10.773
26469W        W98140  25.417  15.244   0.296
26470W        W98141  27.499  11.862  10.300
26471W        W98142  14.804  29.549   2.136
26472W        W98143  29.751  31.832  11.535
26473W        W98144  13.201   3.061   1.339
26474W        W98145  26.098  12.880   1.466
26475W        W98146  37.144  36.352  13.306
26476W        W98147  28.184   1.901  14.796
26477W        W98148   0.904  36.576  13.551
26478W        W98149  36.044   8.410  11.565
26479W        W98150  37.901  25.664   0.333
26480W        W98151   5.310  13.345  13.505
26481W        W98152  43.005  16.692  13.775
26482W        W98153  40.114  24.207  12.565
26483W        W98154  18.100  25.145  12.621
26484W        W98155  42.753  19.165   2.647
26485W        W98156  20.545   5.287   2.335
26486W        W98157  14.346  24.733   3.591
26487W        W98158  25.421  33.913   3.700
26488W        W98159   4.910   5.743   4.766
26489W        W98160  22.665  13.619  11.655
26490W        W98161  29.346   4.627  11.091
26491W        W98162   7.994   7.444   0.708
26492W        W98163  22.005  21.179   0.819
26493W        W98164   5.631  18.203  14.088
26494W        W98165   2.306  22.022  12.192
26495W        W98166  18.877  21.632   0.794
26496W        W98167  32.149  32.401   2.995
26497W        W98168  37.508  38.396  10.709
26498W        W98169  41.917  39.877   0.410
26499W        W98170  34.293  29.156  11.292
26500W        W98171  10.826   6.628   2.379
26501W        W98172  44.699  14.824  12.434
26502W        W98173  38.171  16.677  11.508
26503W        W98174  11.036  37.519   3.663
26504W        W98175  38.484  41.567  11.955
26505W        W98176  25.073  31.526  14.454
26506W        W98177  21.142   1.000  13.752
26507W        W98178  22.785   6.716  12.676
26508W        W98179  29.395  35.324   3.263
26509W        W98180  10.758  18.537  10.383
26510W        W98181  38.436   6.676   4.838
26511W        W98182  37.172  12.510  14.483
26512W        W98183  23.087  19.674   0.867
26513W        W98184  11.377  24.199   1.286
26514W        W98185  42.441  18.781  13.345
26515W        W98186  18.889   9.383  11.763
26516W        W98187  36.080  36.015  10.659
26517W        W98188   0.883  40.098   1.675
26518W        W98189  41.996  40.285   3.737
26519W        W98190  17.689  40.927  11.193
26520W        W98191  34.887  40.326  13.355
26521W        W98192  21.895   4.711  14.771
26522W        W98193  14.756  27.092   0.736
26523W        W98194  12.662  41.754  14.476
26524W        W98195  24.215   3.651  11.932
26525W        W98196  39.415  15.089   4.673
26526W        W98197  39.005  26.578  10.512
26527W        W98198   2.928   0.412  13.963
26528W        W98199  20.992   1.511   4.148
26529W        W98200  29.994   5.863   2.285
26530W        W98201  30.082  20.371  13.934
26531W        W98202  35.659  17.797  11.025
26532W        W98203  17.361  16.579   0.356
26533W        W98204   6.239  10.322   3.559
26534W        W98205  20.527  27.207  12.482
26535W        W98206  34.350  14.716   1.291
26536W        W98207  41.498  18.576  14.283
26537W        W98208  35.867  23.133   0.547
26538W        W98209  26.006   0.235   2.309
26539W        W98210   1.380  28.014   0.897
26540W        W98211  39.998   8.618   2.723
26541W        W98212  14.794  26.433  11.901
26542W        W98213  41.053   9.806   1.057
26543W        W98214   8.184  42.899  10.280
26544W        W98215  39.084   5.484   0.364
26545W        W98216   5.326   8.911  10.328
26546W        W98217  37.840  11.853  12.435
26547W        W98218  29.457  10.287   3.707
26548W        W98219   3.031  27.507  13.399
26549W        W98220   5.615  17.588   0.574
26550W        W98221  36.877  42.292   2.166
26551W        W98222  20.263   7.961   2.943
26552W        W98223  31.824  31.282   1.269
26553W        W98224  26.721  40.496   3.225
26554W        W98225  14.684  25.724  14.211
26555W        W98226  11.059  27.013  11.983
26556W        W98227   3.695  32.000   0.295
26557W        W98228   2.189  22.289   1.693
26558W        W98229  17.269  18.108   4.868
26559W        W98230  10.323  14.293   3.240
26560W        W98231  13.753  30.966   2.716
26561W        W98232  20.273  42.919   3.670
26562W        W98233  44.420  21.147   9.964
26563W        W98234  43.687  31.283   1.382
26564W        W98235  34.653  44.586  14.295
26565W        W98236   0.409   0.558   0.935
26566W        W98237  22.215  27.617  14.032
26567W        W98238  26.614  22.728  13.507
26568W        W98239  26.282  28.040  13.482
26569W        W98240  30.737  32.461  14.975
26570W        W98241  24.439  24.533  12.143
26571W        W98242  23.079   6.733  14.818
26572W        W98243  10.625   1.427   1.043
26573W        W98244  26.966  40.462   3.788
26574W        W98245  26.556  14.135  13.565
26575W        W98246  14.430   7.982  13.357
26576W        W98247  27.977  32.238   2.906
26577W        W98248  42.749  38.793   2.027
26578W        W98249  42.022  26.280  13.468
26579W        W98250  28.992  41.905   2.225
26580W        W98251  11.094  29.049   4.259
26581W        W98252   1.737   8.344  14.785
26582W        W98253  10.368  35.266  13.940
26583W        W98254  28.952  24.493   2.407
26584W        W98255  23.103  44.568  14.679
26585W        W98256  23.044  26.726  12.526
26586W        W98257  38.946  33.231   3.696
26587W        W98258  20.048  40.406   4.046
26588W        W98259  24.606  21.845  11.041
26589W        W98260  11.794  38.369  12.868
26590W        W98261   4.972  33.610   0.647
26591W        W98262   2.721  27.490   3.919
26592W        W98263  42.199   6.174   4.206
26593W        W98264  41.343  38.512  11.687
26594W        W98265   0.452  22.540   4.485
26595W        W98266   7.892  32.909   1.681
26596W        W98267  16.700  44.999   4.484
26597W        W98268  40.846  10.493  12.544
26598W        W98269   6.219  36.182  14.440
26599W        W98270  24.573  23.910   4.865
26600W        W98271  18.882  38.037  13.022
26601W        W98272  17.710  22.734  14.017
26602W        W98273  31.134  12.634  11.639
26603W        W98274   4.970   1.619  10.809
26604W        W98275   6.114  12.641  14.952
26605W        W98276  25.089   7.864  11.914
26606W        W98277  34.925  10.787   2.682
26607W        W98278  13.345  34.394   1.763
26608W        W98279  11.219  16.879   3.295
26609W        W98280   9.419  29.151  11.463
26610W        W98281  30.207  31.586   4.147
26611W        W98282  42.631  16.259   1.649
26612W        W98283  15.422  38.955   4.063
26613W        W98284   4.415  43.432   2.247
26614W        W98285  41.988   3.249   0.586
26615W        W98286  19.197  43.006   4.661
26616W        W98287  39.780  15.151  12.674
26617W        W98288  41.967   4.403  11.217
26618W        W98289   4.228  28.951   4.122
26619W        W98290  14.841  44.797  10.623
26620W        W98291  43.830  18.954  12.930
26621W        W98292   8.251  44.233  12.080
26622W        W98293   4.459  11.472   1.438
26623W        W98294  18.750  18.989   2.234
26624W        W98295  25.973  44.326  11.467
26625W        W98296  17.102  38.381  14.923
26626W        W98297   8.719   3.715  10.972
26627W        W98298  33.824   7.780  10.799
26628W        W98299  42.871   3.379   1.028
26629W        W98300  32.999   2.767  11.945
26630W        W98301   0.891  33.181   1.160
26631W        W98302  40.888  31.969  12.109
26632W        W98303  14.383  40.047   1.139
26633W        W98304   8.598  10.697  14.479
26634W        W98305  30.588  28.583   0.756
26635W        W98306  22.753  42.044  11.625
26636W        W98307  43.618  28.552   2.729
26637W        W98308  23.301   4.930   3.089
26638W        W98309  33.388   0.637   3.772
26639W        W98310   7.753   4.755   3.301
26640W        W98311   7.775   4.042  12.759
26641W        W98312  27.252  20.709   0.332
26642W        W98313  35.099  13.691   2.316
26643W        W98314  17.486  40.977   3.600
26644W        W98315  16.237   4.273  10.168
26645W        W98316   4.472   8.357   0.208
26646W        W98317  14.958  26.483  10.573
26647W        W98318  19.579   7.370  11.831
26648W        W98319   0.521   6.277  12.969
26649W        W98320   7.646  38.483   0.864
26650W        W98321  21.599  30.678   4.925
26651W        W98322  44.812  27.948   2.668
26652W        W98323  10.619  33.393  13.005
26653W        W98324  34.683  41.585  13.025
26654W        W98325  41.208  38.592  14.582
26655W        W98326   1.092   6.146   3.334
26656W        W98327  13.592   5.936   0.768
26657W        W98328   8.263  17.136  11.952
26658W        W98329  44.200  29.864   0.286
26659W        W98330  10.721  28.937   0.596
26660W        W98331  28.145  40.244   3.887
26661W        W98332  24.906   3.863  11.285
26662W        W98333  39.116   3.948   3.094
26663W        W98334   2.235  42.730  10.730
26664W        W98335  15.808  20.610  13.418
26665W        W98336  32.085  10.611  13.305
26666W        W98337  21.510   3.960   1.126
26667W        W98338  24.284  40.793  14.071
26668W        W98339   7.412  19.578   0.952
26669W        W98340  36.412  22.478  10.431
26670W        W98341  28.558  35.690   2.365
26671W        W98342  33.736  14.104   5.082
26672W        W98343  12.206  25.015  11.935
26673W        W98344  22.707  16.406   2.953
26674W        W98345  43.564  43.920   3.778
26675W        W98346  22.577   7.148  12.066
26676W        W98347  21.306  34.663  11.241
26677W        W98348   4.813   8.641   1.294
26678W        W98349  41.310  43.541   2.750
26679W        W98350  24.154  30.163   1.355
26680W        W98351  24.483  20.734   4.202
26681W        W98352  10.812  14.376   2.895
26682W        W98353  33.064  28.993  13.560
26683W        W98354  18.872   5.230  14.789
26684W        W98355  41.256   3.493   4.074
26685W        W98356  32.677  40.330  11.628
26686W        W98357  40.371  18.255   4.116
26687W        W98358  11.142   8.858   3.605
26688W        W98359   2.014   0.430   2.718
26689W        W98360  17.667  34.520   3.860
26690W        W98361  27.171   0.445   2.952
26691W        W98362  19.157  30.828   0.290
26692W        W98363  30.193  10.294  14.470
26693W        W98364  41.627  39.585   4.159
26694W        W98365   1.781   0.306   0.314
26695W        W98366  11.921  12.631  12.495
26696W        W98367  34.193  44.859   0.723
26697W        W98368   1.023  27.522  12.071
26698W        W98369  19.769   9.778   0.806
26699W        W98370  26.228  27.177   3.200
26700W        W98371  26.666  27.078  14.603
26701W        W98372  20.855   9.652  11.071
26702W        W98373  41.870  37.012   4.583
26703W        W98374  22.641  39.393   0.005
26704W        W98375  16.699  30.990   4.526
26705W        W98376  43.862   7.880   3.584
26706W        W98377  20.033  37.629  13.056
26707W        W98378  38.254   6.908   3.120
26708W        W98379  28.449   6.953  12.885
26709W        W98380   6.872   0.824  12.448
26710W        W98381  28.859  43.122  12.051
26711W        W98382  16.887  15.603   3.799
26712W        W98383  39.494  39.436   1.789
26713W        W98384  34.492  36.774   4.042
26714W        W98385  26.724   0.208   1.960
26715W        W98386  15.122  29.913   3.895
26716W        W98387  26.642  33.937  11.693
26717W        W98388  28.512  32.922   2.788
26718W        W98389  25.421  28.189  11.948
26719W        W98390  43.508  15.742  13.843
26720W        W98391  29.125   0.407  14.054
26721W        W98392  19.208  30.156   0.958
26722W        W98393  31.213   9.173   3.631
26723W        W98394  38.568  18.331   1.897
26724W        W98395  10.585  22.739   1.356
26725W        W98396  24.910  31.045   3.221
26726W        W98397   2.176  24.266  14.390
26727W        W98398  20.642  15.050   0.801
26728W        W98399  31.407  38.433  12.029
26729W        W98400  15.608  12.639  13.541
26730W        W98401   8.070   5.877  11.372
26731W        W98402  21.432  31.731  11.530
26732W        W98403   0.817  36.941  12.557
26733W        W98404  26.022  20.259   0.712
26734W        W98405  36.947  31.991   3.367
26735W        W98406  37.122  28.613   3.213
26736W        W98407  43.903   5.930   2.253
26737W        W98408  40.547  40.218  11.993
26738W        W98409  34.406  31.630   3.706
26739W        W98410  24.911   8.325  11.851
26740W        W98411  20.543  19.547  14.102
26741W        W98412   1.502   5.133  13.741
26742W        W98413  23.674  21.092   1.655
26743W        W98414  24.788  42.834  13.693
26744W        W98415  29.982  31.031  10.398
26745W        W98416   3.909   0.892  11.443
26746W        W98417  23.464  29.802   1.779
26747W        W98418  20.267   7.479   3.763
26748W        W98419  11.628  21.771   2.136
26749W        W98420  12.168   3.554  14.230
26750W        W98421  12.697   6.111  10.618
26751W        W98422  10.011  19.642   5.194
26752W        W98423  22.976  22.841   2.236
26753W        W98424  43.721  43.258  11.888
26754W        W98425  36.595  43.282   1.391
26755W        W98426  31.935  41.471  14.421
26756W        W98427  12.311  35.909  14.497
26757W        W98428  33.707   2.960  13.043
26758W        W98429  27.988   6.829  10.663
26759W        W98430  32.383  20.279   4.594
26760W        W98431  38.347  41.539   4.683
26761W        W98432   6.997  39.024  11.115
26762W        W98433  37.256  39.486  13.331
26763W        W98434  34.109  22.509   3.771
26764W        W98435  27.424  27.106   4.889
26765W        W98436  42.387  15.534  10.583
26766W        W98437  12.355  33.514  10.617
26767W        W98438  10.831  32.701  11.118
26768W        W98439  39.922  44.229  12.090
26769W        W98440  10.424  22.630  14.433
26770W        W98441  39.018   1.543  14.979
26771W        W98442  28.574  28.716  11.655
26772W        W98443  41.890  21.505   1.535
26773W        W98444  34.518  14.615  13.625
26774W        W98445  34.082  12.170   2.201
26775W        W98446   3.327  40.490  10.883
26776W        W98447  42.158   7.836   2.312
26777W        W98448   1.188  16.766  11.067
26778W        W98449  24.468  12.587   4.569
26779W        W98450  39.854   1.369  11.199
26780W        W98451  40.870  33.842  14.415
26781W        W98452  43.807  28.135  12.349
26782W        W98453  16.538  13.145   3.222
26783W        W98454  35.689   9.185  12.968
26784W        W98455  31.644   3.872  12.439
26785W        W98456   3.625  27.177  12.040
26786W        W98457   0.327   3.213  10.513
26787W        W98458  33.088  13.775   3.356
26788W        W98459  33.379   0.801   4.261
26789W        W98460  38.310  18.576   4.294
26790W        W98461  28.757   8.707  12.533
26791W        W98462  17.024   8.827   2.901
26792W        W98463   8.356  24.053   0.470
26793W        W98464  14.318  43.001   3.736
26794W        W98465  19.586  18.048   1.230
26795W        W98466   4.990  17.742  12.461
26796W        W98467   4.350   9.494   4.103
26797W        W98468  42.947  32.485   0.966
26798W        W98469  35.884  43.923  11.187
26799W        W98470   9.886   2.281   3.149
26800W        W98471   4.070  14.274   4.516
26801W        W98472  34.731   6.764  12.060
26802W        W98473   9.319  13.364  11.918
26803W        W98474  38.444  19.756  14.343
26804W        W98475  40.370  29.093  10.639
26805W        W98476  22.209  42.922   1.660
26806W        W98477   2.209   2.628   0.584
26807W        W98478  33.569   0.396   1.277
26808W        W98479  11.946  41.090   0.892
26809W        W98480  23.719  29.460   1.432
26810W        W98481   4.893  38.353  13.438
26811W        W98482  14.827  37.305   3.284
26812W        W98483   7.882  31.884   0.859
26813W        W98484  28.967  18.123  13.074
26814W        W98485   3.441   2.947   2.331
26815W        W98486  21.470  25.011  14.803
26816W        W98487  36.645  20.979   2.228
26817W        W98488  37.099  11.813   4.155
26818W        W98489  30.914   3.332   1.386
26819W        W98490   6.852  28.964   2.847
26820W        W98491  17.627  24.707   2.149
26821W        W98492   2.326  26.557   4.285
26822W        W98493  23.073  29.461   0.544
26823W        W98494  11.371  38.372  13.612
26824W        W98495  11.332   0.726  11.594
26825W        W98496  40.711   9.551   4.177
26826W        W98497  28.070  12.762   2.538
26827W        W98498   1.067  32.012   2.184
26828W        W98499  22.328  28.105  11.535
26829W        W98500  17.642  36.626  10.592
26830W        W98501  29.910  24.098   0.993
26831W        W98502  24.468   4.432   1.395
26832W        W98503  13.193  13.870   1.712
26833W        W98504  34.528  40.865   2.889
26834W        W98505  41.983   5.378   4.819
26835W        W98506   8.300  15.351   4.042
26836W        W98507   1.306  26.431   3.287
26837W        W98508  15.093  16.131  11.514
26838W        W98509  18.487  12.120  10.964
26839W        W98510  22.735   5.863  14.956
26840W        W98511   2.904  18.446   1.702
26841W        W98512  31.217  33.033  14.761
26842W        W98513  35.826  10.996  13.837
26843W        W98514  15.701  18.681  12.557
26844W        W98515  13.519  33.574   5.174
26845W        W98516  34.343  27.778   3.124
26846W        W98517  30.499  22.945   1.368
26847W        W98518  26.021  27.561  12.799
26848W        W98519  30.510   1.758   2.820
26849W        W98520  39.833  42.804   0.826
26850W        W98521  42.310   3.476  11.161
26851W        W98522  26.758  18.630  11.144
26852W        W98523   5.979  22.693   3.618
26853W        W98524  28.339  19.300   2.235
26854W        W98525  34.224   5.455  13.799
26855W        W98526  15.066   7.088   0.782
26856W        W98527  26.985  38.775  13.880
26857W        W98528  37.696  23.682   4.117
26858W        W98529  35.169  36.189  13.729
26859W        W98530  24.544  22.143  14.974
26860W        W98531   4.980  27.033   4.054
26861W        W98532   1.202  17.186  13.404
26862W        W98533   5.717  19.322   3.104
26863W        W98534   1.470   4.848  12.865
26864W        W98535   0.562  21.998  12.034
26865W        W98536  38.882  41.923   2.113
26866W        W98537  18.493  24.979   1.881
26867W        W98538  34.420  43.224   3.176
26868W        W98539   4.340  36.827   0.769
26869W        W98540  36.423   6.004  11.044
26870W        W98541  21.175  19.561  12.362
26871W        W98542  30.163  34.567   0.711
26872W        W98543  21.741  37.948  10.815
26873W        W98544  29.425  28.095  12.622
26874W        W98545   0.231  14.170  14.509
26875W        W98546   2.762  22.651   1.035
26876W        W98547  23.108  19.692  10.615
26877W        W98548  44.394  25.673   1.354
26878W        W98549   8.689  28.462   4.657
26879W        W98550   2.269   6.903   1.958
26880W        W98551  18.025  15.863  12.949
26881W        W98552  35.625  31.864   3.249
26882W        W98553  19.233  34.055   1.125
26883W        W98554  43.860   0.301  14.378
26884W        W98555  13.606  29.339   2.130
26885W        W98556   1.710  27.581  14.258
26886W        W98557   6.298  32.446  14.220
26887W        W98558   0.753   8.758  10.509
26888W        W98559   5.472   4.784  11.423
26889W        W98560  30.111   7.332   1.068
26890W        W98561  44.546   2.724  13.380
26891W        W98562  16.338  22.808   3.575
26892W        W98563  31.131  14.182  13.345
26893W        W98564  19.120  14.720   4.128
26894W        W98565   5.121   3.730   2.448
26895W        W98566  34.038  34.567  14.828
26896W        W98567  23.536  15.010   4.632
26897W        W98568   6.636  30.065  12.504
26898W        W98569  16.640   8.917  12.954
26899W        W98570  43.706   0.497   1.204
26900W        W98571  23.765  44.380  11.450
26901W        W98572  22.201  41.793  10.208
26902W        W98573   0.667  21.274  10.726
26903W        W98574  19.392  40.979  11.638
26904W        W98575  34.802  42.451  10.562
26905W        W98576  12.427  11.711   4.946
26906W        W98577  12.436  13.563   4.144
26907W        W98578   7.413   1.391  14.337
26908W        W98579  26.423  27.211   1.957
26909W        W98580  44.090  31.857   3.238
26910W        W98581  30.525  15.790  14.931
26911W        W98582  27.597   7.434  12.540
26912W        W98583  29.126   0.431  13.500
26913W        W98584  14.789  25.692  14.740
26914W        W98585  42.918  29.044  14.104
26915W        W98586   2.540   2.480   1.468
26916W        W98587   1.838   6.413   4.337
26917W        W98588  39.934  37.954  13.738
26918W        W98589  41.423  25.103   3.233
26919W        W98590  21.127  40.627  12.024
26920W        W98591  33.313   1.501  13.106
26921W        W98592   0.342  24.253   4.119
26922W        W98593  36.614  18.504  14.333
26923W        W98594  26.447   8.222   0.487
26924W        W98595  43.381   4.697   2.209
26925W        W98596  31.871  32.426  11.191
26926W        W98597   4.373  39.655  11.716
26927W        W98598  17.661  11.820  11.080
26928W        W98599  27.031  20.719  10.807
26929W        W98600  21.359  40.788   1.498
26930W        W98601  30.193   1.269  10.593
26931W        W98602  16.631  35.173   2.397
26932W        W98603  25.256  32.008  13.823
26933W        W98604  41.237  40.911   9.750
26934W        W98605  23.467   8.882  12.279
26935W        W98606   5.032   2.850  15.000
26936W        W98607  16.357  28.063   4.660
26937W        W98608  44.698  37.385  11.920
26938W        W98609  33.911  17.367   2.665
26939W        W98610  22.714   9.289  11.053
26940W        W98611  38.842  11.100   4.684
26941W        W98612  43.015  12.682   0.373
26942W        W98613  10.798  23.090   3.163
26943W        W98614  33.583   4.363  12.192
26944W        W98615  36.603  15.159   1.743
26945W        W98616  32.716  37.053   2.306
26946W        W98617  11.636  31.560  14.942
26947W        W98618  10.274  23.721  10.434
26948W        W98619  25.712  20.177   4.917
26949W        W98620  40.518  41.328  13.950
26950W        W98621   1.932   6.177  12.768
26951W        W98622  19.125   5.488  13.318
26952W        W98623   1.116   9.736   3.527
26953W        W98624  31.376   7.287   4.161
26954W        W98625  44.236   6.584   1.256
26955W        W98626  38.898  31.626  12.541
26956W        W98627  22.323   0.837   0.653
26957W        W98628   4.305  24.773  10.595
26958W        W98629  24.573  32.788  14.634
26959W        W98630  27.122   7.871   0.943
26960W        W98631  14.246   2.563   4.089
26961W        W98632  36.631  15.179   4.700
26962W        W98633  43.004  20.519  10.558
26963W        W98634  27.234  37.928  13.400
26964W        W98635  27.394   9.879   4.659
26965W        W98636  35.001  14.372   4.564
26966W        W98637  18.021  18.119   1.239
26967W        W98638  30.607  19.074  12.343
26968W        W98639  14.366  20.227   0.672
26969W        W98640   5.429  14.403   2.075
26970W        W98641  43.823  21.390   3.904
26971W        W98642  42.333  32.465  13.006
26972W        W98643  42.243   3.968  13.014
26973W        W98644   4.737   2.858   1.561
26974W        W98645  17.124   6.314   0.645
26975W        W98646  38.890  40.503  14.190
26976W        W98647  31.350  34.652   1.311
26977W        W98648  18.643  38.724  11.286
26978W        W98649  15.044  26.137   4.890
26979W        W98650  29.690  20.222   1.326
26980W        W98651  37.506  30.936  10.807
26981W        W98652  41.243  40.929   1.315
26982W        W98653  34.365   5.773  13.381
26983W        W98654   9.738  39.001   3.706
26984W        W98655  40.629  43.306   0.476
26985W        W98656  42.276  34.589   2.350
26986W        W98657   7.702  12.926  14.708
26987W        W98658   4.447  13.578  14.872
26988W        W98659  38.878  36.062   2.454
26989W        W98660  21.285  21.056   4.236
26990W        W98661   8.747  36.304   1.191
26991W        W98662   3.576  33.774   2.978
26992W        W98663  34.176   1.659  13.083
26993W        W98664  43.301   8.258   1.357
26994W        W98665  26.518  18.042   3.195
26995W        W98666   5.208  31.720   3.495
26996W        W98667  29.161  26.952  14.899
26997W        W98668  12.819  33.568  10.888
26998W        W98669  27.577  15.505   4.143
26999W        W98670  29.146  23.721   0.931
27000W        W98671  37.564  15.671   4.262
27001W        W98672  10.576   3.299  12.677
27002W        W98673  28.016  15.679  11.436
27003W        W98674  42.899  35.302   3.273
27004W        W98675   6.537  30.668  13.979
27005W        W98676  10.310  12.565   4.566
27006W        W98677   0.709   7.677   3.718
27007W        W98678   3.353  19.637  14.577
27008W        W98679  12.605  44.899  13.559
27009W        W98680   0.397  30.578   4.656
27010W        W98681  29.453   2.744  11.626
27011W        W98682  26.394  36.147   4.134
27012W        W98683  10.650  13.553  12.865
27013W        W98684  16.603   8.122  14.841
27014W        W98685  35.904  18.165  14.848
27015W        W98686  14.736  23.516   0.989
27016W        W98687  40.913  15.010   2.657
27017W        W98688  32.430  28.634  10.785
27018W        W98689  27.996   4.746   1.491
27019W        W98690  20.088   7.842  11.546
27020W        W98691   9.915   8.612  11.189
27021W        W98692   4.860   1.761   1.481
27022W        W98693  22.838  21.471   3.651
27023W        W98694  39.814   9.073  10.658
27024W        W98695   8.736   3.453  13.345
27025W        W98696   1.809   2.921  13.043
27026W        W98697  12.370   7.664   0.856
27027W        W98698  31.747  18.938  12.961
27028W        W98699  15.556   0.494   1.949
27029W        W98700  17.314  31.349  14.487
27030W        W98701  24.492  24.516   2.707
27031W        W98702  28.537  23.370   3.976
27032W        W98703  20.785   9.178  12.553
27033W        W98704  37.675  16.808  14.390
27034W        W98705  31.691  24.736  11.344
27035W        W98706   9.215  31.873   0.342
27036W        W98707  11.644  41.279   3.634
27037W        W98708  44.708   5.583  14.415
27038W        W98709  28.090  10.384   4.148
27039W        W98710  15.793  27.206  14.820
27040W        W98711  26.929  26.207  10.771
27041W        W98712  31.919  16.987   2.683
27042W        W98713  28.398  10.150  12.055
27043W        W98714  27.226  19.098   3.835
27044W        W98715  42.888  42.445  11.915
27045W        W98716  19.903  19.228   3.939
27046W        W98717   6.776  43.815  10.864
27047W        W98718   6.783  35.596   0.216
27048W        W98719  19.196  33.055   1.552
27049W        W98720  24.928   8.461  14.238
27050W        W98721  34.783  42.934   4.798
27051W        W98722   3.965  27.662  13.827
27052W        W98723  42.865  16.745  11.557
27053W        W98724  16.132  32.362   5.045
27054W        W98725   4.627  19.616  11.472
27055W        W98726   2.987  35.334   4.200
27056W        W98727   8.846  23.754   1.680
27057W        W98728  33.743  42.605  11.494
27058W        W98729  35.790   0.963  12.958
27059W        W98730   3.498  43.469   0.544
27060W        W98731  34.847  37.580  13.712
27061W        W98732  30.607  44.810   2.840
27062W        W98733  44.062  18.117   0.369
27063W        W98734   0.242   4.936   2.779
27064W        W98735   7.717  38.104   3.680
27065W        W98736  36.146  15.323  11.515
27066W        W98737  10.301  30.018   1.449
27067W        W98738  10.422  27.473  12.498
27068W        W98739  26.141  11.256   3.955
27069W        W98740  24.033  23.538   4.025
27070W        W98741  39.796  35.377  13.473
27071W        W98742  36.673  10.784   0.042
27072W        W98743   1.142  22.267   2.346
27073W        W98744  34.960  33.525  14.998
27074W        W98745  42.710  29.446  13.843
27075W        W98746  29.228  35.506   2.793
27076W        W98747  25.462  42.321   2.802
27077W        W98748   7.835  21.133   2.369
27078W        W98749  18.348   9.193  10.516
27079W        W98750   6.617  26.009   3.036
27080W        W98751  33.592  27.462   3.789
27081W        W98752   0.877  30.657   0.652
27082W        W98753  43.767   0.807  11.470
27083W        W98754   6.837  41.290   4.702
27084W        W98755   5.897  25.052   1.065
27085W        W98756  30.102  42.819  11.332
27086W        W98757  25.280  23.116   4.288
27087W        W98758  28.197  29.127  12.142
27088W        W98759   7.521  37.422  13.174
27089W        W98760  24.730   8.329   3.600
27090W        W98761  43.517  23.740   4.575
27091W        W98762  26.750  17.398  14.940
27092W        W98763  31.133  11.413  11.259
27093W        W98764  34.780   6.100   3.895
27094W        W98765  37.990  24.547   2.101
27095W        W98766   5.995  23.966   2.691
27096W        W98767  11.246  25.036   1.927
27097W        W98768  25.045   6.283   4.752
27098W        W98769  24.653   7.114  12.636
27099W        W98770  36.463  32.522   2.235
27100W        W98771   1.703   0.360  14.466
27101W        W98772  22.292   3.861  10.967
27102W        W98773  43.778  10.764   0.950
27103W        W98774  15.379  27.075  12.516
27104W        W98775   0.942   5.982   0.295
27105W        W98776  11.516  44.241  13.945
27106W        W98777  16.208  39.490  11.069
27107W        W98778  42.562  43.047   2.356
27108W        W98779   7.607   5.603  11.263
27109W        W98780  44.755   1.764  14.052
27110W        W98781  44.531  39.802   0.419
27111W        W98782  43.350  27.113   3.401
27112W        W98783  42.396  15.457   4.695
27113W        W98784  24.473  40.554   2.616
27114W        W98785  41.267  43.050  12.188
27115W        W98786   5.341  36.414  13.428
27116W        W98787   6.823   3.462  13.788
27117W        W98788  10.741  36.366  12.451
27118W        W98789  15.159  19.175   1.340
27119W        W98790  10.860  33.435   1.836
27120W        W98791  16.931  43.179   3.184
27121W        W98792  14.608   6.819   3.679
27122W        W98793  37.144   9.645   1.699
27123W        W98794  36.406  22.061   0.911
27124W        W98795  36.650   3.739  14.025
27125W        W98796  29.629   2.371  13.473
27126W        W98797   9.666  36.058   4.427
27127W        W98798  36.948  37.605  10.581
27128W        W98799  30.842  33.307  14.551
27129W        W98800   7.728  24.680   4.338
27130W        W98801  37.437  21.127   2.430
27131W        W98802  23.925  24.816  14.637
27132W        W98803   9.704  41.402   3.732
27133W        W98804   6.499  24.680  12.059
27134W        W98805  29.018  28.602   3.673
27135W        W98806  12.702  22.849  11.010
27136W        W98807   6.905  27.613   2.480
27137W        W98808  44.984  23.852   2.241
27138W        W98809  18.857  12.317   4.582
27139W        W98810  32.591  37.602   4.944
27140W        W98811  20.332  42.521  12.998
27141W        W98812  39.717  34.527  13.458
27142W        W98813  13.480   0.765  12.832
27143W        W98814   2.014   4.331   0.313
27144W        W98815   1.980   5.323  11.647
27145W        W98816  25.177  44.790   1.321
27146W        W98817  33.588  43.192   0.765
27147W        W98818  25.431  39.068   2.390
27148W        W98819  14.339  29.880   4.542
27149W        W98820   2.140  27.533   3.755
27150W        W98821  10.685   8.715   1.191
27151W        W98822  10.701  34.370  11.395
27152W        W98823  22.457  29.069   0.805
27153W        W98824  36.488  29.689   3.745
27154W        W98825  40.560  11.994  12.119
27155W        W98826  14.436  37.915  12.821
27156W        W98827  17.245  11.341  12.003
27157W        W98828  36.367  36.949   1.226
27158W        W98829  32.828  19.286   3.227
27159W        W98830  16.288  31.455  14.892
27160W        W98831  37.045  18.849   3.223
27161W        W98832  33.686  17.589  11.728
27162W        W98833  32.435  18.779  10.753
27163W        W98834   0.440  37.966  13.328
27164W        W98835  30.032   7.143   2.274
27165W        W98836   7.883  22.541   2.821
27166W        W98837  11.221   3.427   1.936
27167W        W98838  28.163  43.100  14.919
27168W        W98839  23.593  19.312   3.629
27169W        W98840   6.992  39.811   1.704
27170W        W98841  11.786  17.351  14.327
27171W        W98842  44.525  17.668   0.747
27172W        W98843  27.311  44.364  14.852
27173W        W98844  28.829  16.579   4.976
27174W        W98845  15.082  34.000   1.687
27175W        W98846  32.840  11.104  13.482
27176W        W98847  22.703  41.454   2.240
27177W        W98848  24.502  26.576  13.326
27178W        W98849  19.361  34.178   0.161
27179W        W98850   8.753  28.543   4.160
27180W        W98851  33.144   9.910   3.878
27181W        W98852  34.167  32.512   0.456
27182W        W98853  22.641  37.481   0.528
27183W        W98854  26.197   4.832  13.508
27184W        W98855  36.760   2.934  13.036
27185W        W98856   6.655  40.819   1.688
27186W        W98857  25.272   9.170  14.090
27187W        W98858  13.791  29.003  12.430
27188W        W98859  17.890  32.594   3.375
27189W        W98860  32.177   3.032   3.226
27190W        W98861  25.788   0.854   0.293
27191W        W98862  38.094  31.654   1.454
27192W        W98863  36.625   6.204  10.319
27193W        W98864   2.510  10.310   0.778
27194W        W98865  20.287  40.093  10.163
27195W        W98866  41.063  32.428  14.321
27196W        W98867  42.539  40.348   3.609
27197W        W98868  30.248  34.122   2.311
27198W        W98869  42.662  22.990   3.664
27199W        W98870  36.569  21.960  11.612
27200W        W98871  24.184  32.917   3.032
27201W        W98872  15.674  23.002   1.200
27202W        W98873   7.453  24.088   3.333
27203W        W98874  35.575  28.194   0.361
27204W        W98875   2.464   7.629  10.579
27205W        W98876  12.511  17.669   2.640
27206W        W98877  38.334  25.212  11.081
27207W        W98878  39.725   6.459   1.251
27208W        W98879  15.769  10.581  13.343
27209W        W98880  18.594   6.201  11.597
27210W        W98881  32.166  44.251   3.411
27211W        W98882  43.555  23.536   5.029
27212W        W98883  29.482   5.719   3.181
27213W        W98884  26.721  35.479   4.783
27214W        W98885  33.832   1.673  14.034
27215W        W98886  26.054  40.996  13.286
27216W        W98887  39.254   6.240  14.882
27217W        W98888  24.821   8.482  13.434
27218W        W98889  21.483  22.455   1.979
27219W        W98890  20.253  28.954   3.045
27220W        W98891  14.384  34.131  12.957
27221W        W98892   1.843  27.489  11.695
27222W        W98893  16.099  35.894  11.703
27223W        W98894  20.036   9.877  14.917
27224W        W98895  10.340  22.624   2.784
27225W        W98896  22.562  41.779  13.395
27226W        W98897  44.849  20.726   4.171
27227W        W98898  31.106  12.515  14.977
27228W        W98899  26.468  28.547  12.795
27229W        W98900   4.234  33.177  14.021
27230W        W98901  34.422  20.508   0.259
27231W        W98902  29.506  34.381   3.375
27232W        W98903   6.847  21.977  10.566
27233W        W98904  40.327  13.432  14.398
27234W        W98905  17.761  30.463   1.098
27235W        W98906  10.863   1.754   1.375
27236W        W98907  12.811  19.371  12.590
27237W        W98908  24.620  12.839   1.927
27238W        W98909   9.976  33.722  11.179
27239W        W98910  30.265  20.677  11.004
27240W        W98911  23.560   0.500  12.413
27241W        W98912   6.968   7.892  11.094
27242W        W98913  13.073  39.545   4.147
27243W        W98914  44.746  39.382  13.040
27244W        W98915  31.439  22.227  12.047
27245W        W98916  24.078  26.625   3.374
27246W        W98917   9.131   2.940  14.723
27247W        W98918  38.981  43.038  14.868
27248W        W98919  11.596   8.793   0.385
27249W        W98920  31.809   6.164  14.509
27250W        W98921  11.864  30.517   1.774
27251W        W98922  22.997   1.162  11.948
27252W        W98923  23.174  31.015   4.552
27253W        W98924  19.249   2.495   3.337
27254W        W98925  39.004   6.335  10.407
27255W        W98926  17.115  23.133   1.390
27256W        W98927  35.807  39.603  11.629
27257W        W98928  44.809   3.200   3.693
27258W        W98929  15.719   3.258  14.303
27259W        W98930   7.271  35.460  12.471
27260W        W98931   5.745  20.671   3.143
27261W        W98932  35.746   0.345  11.567
27262W        W98933  43.710  21.469  13.967
27263W        W98934   0.430  37.371   2.843
27264W        W98935  33.904  11.779  14.796
27265W        W98936  28.184  20.628   2.718
27266W        W98937  33.724  29.220   4.757
27267W        W98938   6.850  41.910   4.057
27268W        W98939  17.859   0.955  11.644
27269W        W98940   4.791  28.937  14.290
27270W        W98941  21.173  39.842  13.459
27271W        W98942  20.220   3.254   4.652
27272W        W98943  17.826  17.271  12.905
27273W        W98944  19.065  24.134   1.802
27274W        W98945   6.428  22.066   0.237
27275W        W98946  22.948  29.442  12.860
27276W        W98947  44.503  32.520   1.272
27277W        W98948  31.350  22.631   3.558
27278W        W98949  38.523  21.229   1.254
27279W        W98950  37.298  23.080   4.498
27280W        W98951  26.481  12.637   3.663
27281W        W98952  19.085   3.715  11.567
27282W        W98953  41.207  36.317  14.609
27283W        W98954  25.168  11.798   1.221
27284W        W98955  41.481  19.636   2.444
27285W        W98956   3.367  32.886   1.334
27286W        W98957  18.542  26.667   2.755
27287W        W98958  10.348  11.936   2.418
27288W        W98959   5.859  11.425   0.224
27289W        W98960   3.943  20.228   2.414
27290W        W98961   7.632  22.761  10.742
27291W        W98962   8.759  21.255   3.237
27292W        W98963  10.242  36.109  14.564
27293W        W98964   1.261  25.809  10.703
27294W        W98965   2.854  25.880  14.456
27295W        W98966  25.318  37.887   0.414
27296W        W98967  28.996  43.407  14.039
27297W        W98968  29.113  12.362   1.886
27298W        W98969   6.131  26.139   2.950
27299W        W98970  43.596   2.812   0.920
27300W        W98971  29.614  24.594  13.387
27301W        W98972  17.639   1.408  10.776
27302W        W98973   6.644  44.488  14.484
27303W        W98974  35.871  15.844   2.133
27304W        W98975  25.254  38.470   4.063
27305W        W98976  30.074  16.251  11.597
27306W        W98977  41.287  12.785   1.641
27307W        W98978  19.094  29.769   4.726
27308W        W98979  36.227  13.776   3.267
27309W        W98980   3.451  39.924   1.913
27310W        W98981  22.418   5.367   2.216
27311W        W98982  38.349  37.803   2.839
27312W        W98983  22.674  17.465   2.680
27313W        W98984  10.698  44.778   1.316
27314W        W98985   2.805  15.713  10.643
27315W        W98986  10.326  22.913  11.074
27316W        W98987   2.218  31.989   0.199
27317W        W98988  40.282   3.245   1.875
27318W        W98989   5.213  17.747  14.672
27319W        W98990  21.771  40.078   0.777
27320W        W98991   8.968  20.177   1.532
27321W        W98992  27.988  29.302   1.452
27322W        W98993  19.076  27.464  12.377
27323W        W98994   2.325  23.983  14.796
27324W        W98995  21.133  19.728   1.841
27325W        W98996  14.725  17.524   4.792
27326W        W98997  24.657  36.136  13.383
27327W        W98998   1.408  27.965   4.191
27328W        W98999  12.791  16.643   1.736
27329W        W99000  34.158  31.798  11.551
27330W        W99001  17.777  21.993  11.142
27331W        W99002   8.603  17.522  13.359
27332W        W99003   2.706  20.703   3.926
27333W        W99004   0.134  44.520   1.442
27334W        W99005  40.109   8.763  14.065
27335W        W99006  38.771   8.751  12.381
27336W        W99007  23.473  23.037   2.416
27337W        W99008  30.051  13.681   4.257
27338W        W99009  38.254  42.409  10.879
27339W        W99010  14.930   7.530   3.629
27340W        W99011   7.725  20.897   3.618
27341W        W99012  43.843  44.739  11.047
27342W        W99013  39.094  27.803  14.005
27343W        W99014  33.958  31.930  12.456
27344W        W99015   6.980  36.006   0.746
27345W        W99016  39.789  13.594  13.538
27346W        W99017  16.114  19.984  13.827
27347W        W99018  25.069   4.323   4.828
27348W        W99019   6.755  15.516  13.082
27349W        W99020  17.641  32.091  11.447
27350W        W99021  25.744  28.655   4.315
27351W        W99022  13.429   5.757   2.177
27352W        W99023  34.130   9.307  13.033
27353W        W99024  13.905   7.299  10.337
27354W        W99025  22.578  43.252  12.164
27355W        W99026  22.651  13.881   3.228
27356W        W99027  21.404  19.935   1.432
27357W        W99028  32.413   1.024   3.992
27358W        W99029   4.222   2.051   4.658
27359W        W99030  29.616  25.491  11.062
27360W        W99031  15.678   5.925   2.669
27361W        W99032   6.991  15.174  13.408
27362W        W99033  12.149  36.656   3.746
27363W        W99034  16.222  37.936  14.831
27364W        W99035  37.820  35.509  14.837
27365W        W99036  13.715  27.114  14.773
27366W        W99037  39.433  32.583   2.728
27367W        W99038  22.216   2.837   1.186
27368W        W99039  21.808   9.175   1.622
27369W        W99040   9.387  34.950   0.192
27370W        W99041  19.634  12.876   0.744
27371W        W99042  34.839  44.299  12.614
27372W        W99043  28.633  21.672   4.337
27373W        W99044  27.445  20.092  12.515
27374W        W99045  31.032  37.516  11.170
27375W        W99046  37.134  44.620  11.165
27376W        W99047  33.544  19.712   3.871
27377W        W99048  17.199  29.241   4.615
27378W        W99049  36.550   2.450   1.193
27379W        W99050  31.648  12.309   0.303
27380W        W99051  39.065  20.011  11.529
27381W        W99052  11.726  22.322   0.517
27382W        W99053  30.174  13.218   0.568
27383W        W99054  27.627  29.193  10.551
27384W        W99055   6.124  20.952  14.488
27385W        W99056  33.595   2.674   1.491
27386W        W99057  16.735  29.624   2.125
27387W        W99058  32.983  10.236  10.814
27388W        W99059  34.088  17.969   3.259
27389W        W99060   9.854  36.818   1.354
27390W        W99061  39.918   9.933   2.446
27391W        W99062  38.574   3.228  11.494
27392W        W99063  38.144   1.828   0.758
27393W        W99064  27.257  26.612  10.672
27394W        W99065  24.605  31.063  12.401
27395W        W99066  42.452  26.985  13.882
27396W        W99067  27.963  41.106  13.378
27397W        W99068   4.516  21.615  14.768
27398W        W99069   3.467  24.203  13.430
27399W        W99070  20.561  11.599   1.230
27400W        W99071   7.367  21.561   3.064
27401W        W99072  37.206  40.129   4.058
27402W        W99073  36.123  33.824  11.651
27403W        W99074   0.383  42.357   2.140
27404W        W99075  37.172  18.126  14.884
27405W        W99076  25.972  12.383   1.464
27406W        W99077  16.313  26.562  13.906
27407W        W99078  38.631   0.735  11.136
27408W        W99079  17.629   2.248  11.015
27409W        W99080  29.020  21.246  12.505
27410W        W99081  27.557  35.361  12.423
27411W        W99082  16.451  28.621  11.262
27412W        W99083  37.861  13.308  11.313
27413W        W99084   8.253  12.747  11.805
27414W        W99085  12.778  20.684   0.697
27415W        W99086   7.792   9.606   2.646
27416W        W99087  43.337   2.318   2.275
27417W        W99088  28.575  24.697   3.195
27418W        W99089  11.122   9.263  13.459
27419W        W99090  24.776  17.527   1.047
27420W        W99091  13.716  21.953   0.372
27421W        W99092  17.717  22.193  11.596
27422W        W99093  31.376  32.344  11.193
27423W        W99094   7.092  14.352  11.170
27424W        W99095  39.063   3.725  14.244
27425W        W99096  28.567  22.139  13.474
27426W        W99097  39.879  11.698  11.036
27427W        W99098  39.905  44.722   1.907
27428W        W99099  12.302  13.272   4.555
27429W        W99100  40.039   9.602   3.725
27430W        W99101   2.693   1.486   1.463
27431W        W99102  29.698  34.290   0.869
27432W        W99103  19.784   8.978  11.540
27433W        W99104  37.092  18.349   3.288
27434W        W99105  17.551  10.233   0.411
27435W        W99106   0.051   4.194   3.689
27436W        W99107  16.292  34.380   2.811
27437W        W99108  18.541  16.198   3.757
27438W        W99109  21.613  32.850   3.339
27439W        W99110  38.335  22.126   3.690
27440W        W99111  44.651   5.738  12.940
27441W        W99112  43.720  26.027   1.230
27442W        W99113  16.337  42.968   2.181
27443W        W99114  43.073  24.861  14.406
27444W        W99115  38.582  12.636  11.210
27445W        W99116  19.301   2.257   2.812
27446W        W99117   6.868  10.150   1.779
27447W        W99118  39.568  25.386   3.134
27448W        W99119  27.710   7.416   1.421
27449W        W99120  39.592   4.774  14.903
27450W        W99121  41.980  16.851  11.604
27451W        W99122  36.971   0.391  12.956
27452W        W99123  34.487   9.669  13.832
27453W        W99124  37.924  34.447   0.235
27454W        W99125  23.784   8.641   3.763
27455W        W99126  42.754  22.774  11.064
27456W        W99127   2.210  38.891   4.906
27457W        W99128  23.771  29.880   0.352
27458W        W99129  15.339  13.840  11.980
27459W        W99130  22.273   6.100   3.061
27460W        W99131  11.563  30.730  10.413
27461W        W99132  40.064  30.494   2.690
27462W        W99133  10.751   6.089  14.569
27463W        W99134   1.917  14.727  12.150
27464W        W99135  31.513   7.942   3.317
27465W        W99136  10.828  10.282  14.502
27466W        W99137  25.409  18.558   0.106
27467W        W99138  28.272  25.898  12.459
27468W        W99139  15.892  26.985  12.581
27469W        W99140   8.822  22.666  11.597
27470W        W99141  34.970  23.673   2.798
27471W        W99142  22.748   0.315  11.454
27472W        W99143   8.247  19.240   4.753
27473W        W99144  30.472  16.259   2.669
27474W        W99145  20.015  34.389  10.575
27475W        W99146  25.608  26.926  14.801
27476W        W99147  12.641  19.661  12.158
27477W        W99148   6.332  22.999   2.330
27478W        W99149   2.292  13.572   2.193
27479W        W99150  25.693  34.891  14.432
27480W        W99151  22.074  26.157  13.877
27481W        W99152  26.488  44.776  14.068
27482W        W99153  15.331  28.427  14.405
27483W        W99154  20.881  39.172  11.652
27484W        W99155  16.192  43.924   3.195
27485W        W99156  20.639  15.373   1.764
27486W        W99157   0.378  14.095   1.343
27487W        W99158  27.136  35.326   4.524
27488W        W99159  12.364   6.771  14.641
27489W        W99160  11.288  24.272   2.441
27490W        W99161   5.176  18.312   3.423
27491W        W99162  31.183  14.088   1.736
27492W        W99163  22.415  28.532   5.035
27493W        W99164  31.859   5.175  14.485
27494W        W99165  41.589  20.169   1.608
27495W        W99166  31.895  18.167   3.311
27496W        W99167  19.192  44.225  14.624
27497W        W99168  39.130  31.598   4.155
27498W        W99169  15.759   1.720  14.377
27499W        W99170  36.400  44.845   1.497
27500W        W99171  44.394  21.245   2.645
27501W        W99172  12.277  33.360  13.187
27502W        W99173  31.053  33.764  10.716
27503W        W99174  34.106   4.102  13.020
27504W        W99175  20.777  14.302   1.296
27505W        W99176  32.598  43.863  12.979
27506W        W99177  23.114   9.984  12.064
27507W        W99178  22.689  38.127  10.847
27508W        W99179  40.768  43.147   3.365
27509W        W99180  33.975  38.288   4.655
27510W        W99181  33.852  27.536  10.526
27511W        W99182  39.406  16.759  14.306
27512W        W99183  41.763  19.849   4.230
27513W        W99184  13.197  36.584  10.775
27514W        W99185  28.515  31.871  13.867
27515W        W99186  26.877  30.227  14.021
27516W        W99187  23.182  40.553   0.565
27517W        W99188  41.072   2.757   2.227
27518W        W99189  32.898  18.172  11.467
27519W        W99190  24.099  12.598  13.655
27520W        W99191  32.390  38.978   2.125
27521W        W99192  34.654  29.577  10.424
27522W        W99193  14.199  11.686  13.913
27523W        W99194  20.321  24.981   4.175
27524W        W99195  18.664  36.647  13.061
27525W        W99196  10.088  13.616  13.480
27526W        W99197  24.787  34.703   2.861
27527W        W99198  10.357   8.869  11.095
27528W        W99199  12.544  28.516  11.610
27529W        W99200  40.679  17.411   2.275
27530W        W99201  43.593  17.305  12.030
27531W        W99202  40.799   0.144  11.861
27532W        W99203  16.691   3.904   4.928
27533W        W99204  31.303  12.841  14.031
27534W        W99205  15.536  17.366   3.766
27535W        W99206   5.896  27.224   0.548
27536W        W99207  22.027  19.145   2.976
27537W        W99208   9.924  22.501  14.421
27538W        W99209  18.392  28.038  13.851
27539W        W99210  17.583  32.420  10.472
27540W        W99211  31.625  15.291  10.450
27541W        W99212   8.816  23.634  12.948
27542W        W99213  35.807  10.492  13.948
27543W        W99214   5.038  21.031  13.491
27544W        W99215  35.170   3.521  11.603
27545W        W99216  25.925  20.293   3.512
27546W        W99217   2.866   3.306  12.055
27547W        W99218  13.703  27.239  11.675
27548W        W99219  23.710  15.588   3.736
27549W        W99220   3.711   8.276   0.040
27550W        W99221   3.722  16.738  12.342
27551W        W99222  38.834   2.187  13.044
27552W        W99223  16.152  26.517   4.298
27553W        W99224  20.061   8.580   2.096
27554W        W99225  25.049  20.668   4.705
27555W        W99226   7.279  19.194  10.780
27556W        W99227  33.047  37.352  11.423
27557W        W99228  15.624  36.905   1.870
27558W        W99229  18.596  40.925  11.227
27559W        W99230  21.731  17.740  11.620
27560W        W99231  32.345  25.500  14.288
27561W        W99232  42.374  35.917  14.258
27562W        W99233   3.510  13.380  13.667
27563W        W99234  34.906  12.171   0.799
27564W        W99235  24.678  20.036   3.958
27565W        W99236  21.797  32.681   3.795
27566W        W99237  10.338   0.902   3.748
27567W        W99238  10.135  30.668   2.372
27568W        W99239   3.185  20.008  10.642
27569W        W99240   3.700  39.449  11.047
27570W        W99241  35.036  12.642   1.012
27571W        W99242  29.894  27.114   0.435
27572W        W99243  35.996  19.587  14.905
27573W        W99244  32.512  19.015   4.411
27574W        W99245  30.421  11.827  13.452
27575W        W99246  23.556   7.374  12.543
27576W        W99247  27.817  19.270   2.356
27577W        W99248  22.694   5.192   3.736
27578W        W99249   2.770  20.499  13.584
27579W        W99250  40.387  32.892   0.705
27580W        W99251  37.398   4.146   3.671
27581W        W99252   4.794  11.665  13.235
27582W        W99253  40.532   9.206   3.279
27583W        W99254  25.507  12.644  14.720
27584W        W99255   4.938   1.997   3.929
27585W        W99256  34.069  33.326   1.759
27586W        W99257   7.238  36.605   1.826
27587W        W99258   0.508   0.465   2.008
27588W        W99259  13.105  42.275   1.535
27589W        W99260  36.463   9.646   3.842
27590W        W99261  27.812  33.963   3.969
27591W        W99262   4.948  39.385   1.903
27592W        W99263   7.229  43.670   0.386
27593W        W99264  23.101   4.039   2.243
27594W        W99265  31.115  23.057   4.128
27595W        W99266  31.628   2.680  10.807
27596W        W99267   1.529  17.542  11.427
27597W        W99268   1.396  23.494   0.222
27598W        W99269  24.206  17.626  13.268
27599W        W99270  44.565  35.783  13.298
27600W        W99271  24.886   9.899   2.644
27601W        W99272  29.533  15.347   3.256
27602W        W99273  32.082  42.358   4.359
27603W        W99274  17.218   3.841  14.547
27604W        W99275  10.589  33.580   2.294
27605W        W99276  26.058  44.686   3.239
27606W        W99277  29.881  40.422   0.930
27607W        W99278  20.377   1.169   1.984
27608W        W99279  30.670  27.012   2.773
27609W        W99280  27.593   2.044  13.867
27610W        W99281  42.486  25.207   2.183
27611W        W99282  32.464  19.216   2.851
27612W        W99283  35.340  34.012   1.260
27613W        W99284  15.627  32.622  14.862
27614W        W99285  26.573  24.226   0.229
27615W        W99286  19.026  37.853  13.941
27616W        W99287  26.445  34.908   3.709
27617W        W99288  22.583  40.760   5.035
27618W        W99289  32.362  19.994   4.151
27619W        W99290   9.241  34.414  12.914
27620W        W99291  37.252   1.345  12.107
27621W        W99292   6.754  25.314   1.491
27622W        W99293  23.941   6.793   2.946
27623W        W99294  27.977  10.195  13.560
27624W        W99295   3.891  37.116   0.741
27625W        W99296  28.730  28.021  13.360
27626W        W99297  23.467  25.611   3.758
27627W        W99298  15.301  10.101   3.170
27628W        W99299   4.035  32.030   0.687
27629W        W99300  13.701  15.744   0.675
27630W        W99301   1.696  26.950   1.556
27631W        W99302  37.011  41.400  12.090
27632W        W99303  38.006   6.700  12.334
27633W        W99304   0.531  12.869   3.052
27634W        W99305  10.708  38.082   1.873
27635W        W99306  37.276  43.923  10.236
27636W        W99307  19.287   2.853   4.451
27637W        W99308  29.870   2.184  10.991
27638W        W99309   9.454  40.153  11.130
27639W        W99310  41.036  37.059  14.923
27640W        W99311  27.438   3.540   0.537
27641W        W99312  42.906   6.092  13.029
27642W        W99313  15.365  34.493   2.670
27643W        W99314  36.834  37.040   2.211
27644W        W99315  30.656  10.835   3.223
27645W        W99316   8.175   6.195  14.424
27646W        W99317  41.993  18.286   9.870
27647W        W99318  26.591  21.150  12.039
27648W        W99319  40.991  32.128   4.493
27649W        W99320  29.644  15.360  13.039
27650W        W99321   7.632  10.369  12.052
27651W        W99322  12.128  12.729   3.750
27652W        W99323  34.352  30.129  14.917
27653W        W99324  16.481   0.944   2.805
27654W        W99325  33.432   6.579  11.183
27655W        W99326  42.490  21.088  12.993
27656W        W99327  17.275  23.566  11.641
27657W        W99328   7.826  20.376  13.791
27658W        W99329  20.263  17.291  11.482
27659W        W99330  25.530  20.011  14.277
27660W        W99331  21.959  26.081   1.373
27661W        W99332  12.553  26.973   0.799
27662W        W99333  17.163  24.214  10.677
27663W        W99334  40.842  16.695  14.982
27664W        W99335  25.072  31.536   4.919
27665W        W99336  44.714   7.334  13.448
27666W        W99337  14.351  43.779   4.598
27667W        W99338   4.891  10.740  11.651
27668W        W99339  11.528   8.222  11.422
27669W        W99340  40.359   3.937   2.600
27670W        W99341  17.922  36.515  13.850
27671W        W99342  10.764  11.515  10.741
27672W        W99343  42.373  38.735   5.445
27673W        W99344  17.783   5.391  14.606
27674W        W99345  31.406   2.418   1.273
27675W        W99346  36.340  18.462  12.571
27676W        W99347  23.653  34.517  11.160
27677W        W99348  13.126  25.114  11.220
27678W        W99349  26.127  10.931  13.788
27679W        W99350   6.645   7.763  11.492
27680W        W99351   2.926  31.564   0.435
27681W        W99352  39.204   7.775   0.730
27682W        W99353  14.132  43.963   2.881
27683W        W99354  12.634  17.589  12.874
27684W        W99355  40.983  11.681   1.545
27685W        W99356  17.036  11.617   1.823
27686W        W99357  10.101  20.701   4.728
27687W        W99358  33.663   2.462   3.734
27688W        W99359   3.000  26.698   2.264
27689W        W99360  27.035  16.561  12.907
27690W        W99361  20.941  31.654   0.290
27691W        W99362  38.687  40.057   3.288
27692W        W99363  28.068  13.136  12.116
27693W        W99364  27.234  37.898   4.007
27694W        W99365   9.316  25.078  13.550
27695W        W99366  39.617   8.165  10.822
27696W        W99367  30.047  18.048   4.610
27697W        W99368  23.875   6.479   4.215
27698W        W99369   1.326  39.870  14.015
27699W        W99370  41.354  29.894   0.985
27700W        W99371  37.482   8.117   3.446
27701W        W99372  35.446  20.999  10.751
27702W        W99373  26.227  29.790  14.886
27703W        W99374   7.830   0.851  13.785
27704W        W99375  13.398  39.394   2.214
27705W        W99376  35.553  27.915   1.777
27706W        W99377   4.301  11.211   1.936
27707W        W99378  28.412  12.810   0.767
27708W        W99379  30.166  12.689   2.920
27709W        W99380   7.767  39.926   3.236
27710W        W99381  25.353  22.206  12.598
27711W        W99382  17.601   2.969   4.180
27712W        W99383  43.292  39.581   4.149
27713W        W99384   8.977  22.331   4.556
27714W        W99385  32.096  38.395  13.584
27715W        W99386  43.173  23.802   1.672
27716W        W99387  11.693  39.864  12.952
27717W        W99388  23.130  22.937  11.096
27718W        W99389   9.684  40.566  11.398
27719W        W99390  17.355  13.766   3.842
27720W        W99391  31.685  38.265   4.181
27721W        W99392  33.650   6.151  14.970
27722W        W99393  35.469   6.403   4.003
27723W        W99394  34.537  34.458  11.425
27724W        W99395  27.496  15.877  11.990
27725W        W99396  17.192  11.165  13.832
27726W        W99397  14.392  21.689   1.883
27727W        W99398  43.403  43.325   0.394
27728W        W99399  43.169  18.410   0.178
27729W        W99400  38.962  30.436   4.702
27730W        W99401  15.696  30.216  14.388
27731W        W99402  42.878   9.876   2.637
27732W        W99403  25.957  41.289   3.829
27733W        W99404   6.794  13.111   4.189
27734W        W99405  41.929  25.157   4.614
27735W        W99406  22.568  16.317  13.107
27736W        W99407  21.224   1.924   2.410
27737W        W99408  20.073  42.397  13.437
27738W        W99409   4.593   9.438   3.212
27739W        W99410  10.226  44.718   0.030
27740W        W99411  16.882  30.543   0.706
27741W        W99412  38.352  33.321  13.341
27742W        W99413  16.207  37.073  13.296
27743W        W99414  26.106  40.515   0.247
27744W        W99415  37.389  11.221   3.794
27745W        W99416  15.100  38.868  11.344
27746W        W99417  32.695  23.908  11.546
27747W        W99418  37.561  33.196   0.025
27748W        W99419  13.802  23.626  13.926
27749W        W99420  32.710  36.380  10.476
27750W        W99421  28.592  10.308   4.063
27751W        W99422  29.134  44.459  13.049
27752W        W99423  41.900  28.562   1.989
27753W        W99424  22.198  33.014   0.950
27754W        W99425  11.126  39.361  12.131
27755W        W99426   2.668  24.079  14.270
27756W        W99427  37.803  19.236   2.681
27757W        W99428  10.640  22.859  11.461
27758W        W99429   8.971   3.431  11.340
27759W        W99430  27.903  43.767   4.091
27760W        W99431  32.870  23.143   3.279
27761W        W99432  35.984  32.669   4.172
27762W        W99433  10.754  21.467   3.666
27763W        W99434  39.956   7.433  12.044
27764W        W99435  37.949   9.370   3.126
27765W        W99436  20.188   0.392   2.189
27766W        W99437   0.928  35.987   1.895
27767W        W99438  41.802  14.240  12.027
27768W        W99439  25.613  20.522   2.368
27769W        W99440   7.683  27.173   0.297
27770W        W99441  35.710  10.811  14.348
27771W        W99442  24.194  10.816  11.677
27772W        W99443   9.582  35.430   0.454
27773W        W99444  14.971  12.280   0.422
27774W        W99445   7.607   6.281   2.723
27775W        W99446  28.857  41.019  10.750
27776W        W99447  22.282  16.713   3.041
27777W        W99448  35.584  23.222  11.111
27778W        W99449  36.524  12.690   2.383
27779W        W99450  13.799   5.967  10.656
27780W        W99451   0.007  34.068   0.861
27781W        W99452  26.153  38.522   0.148
27782W        W99453  38.909  36.368   0.268
27783W        W99454   4.415  42.900   3.030
27784W        W99455   7.322  25.699   2.307
27785W        W99456  37.601  43.889  10.656
27786W        W99457  11.145  30.399  12.450
27787W        W99458  13.938  20.256  14.937
27788W        W99459   9.337  42.295   0.757
27789W        W99460  14.974  17.958  12.112
27790W        W99461  16.370   5.857  13.657
27791W        W99462  11.781  10.408   4.040
27792W        W99463  16.370  21.623  12.280
27793W        W99464   7.849   0.841   3.807
27794W        W99465  30.481   0.445   1.452
27795W        W99466   1.299   4.859   0.485
27796W        W99467   8.099  40.266  13.270
27797W        W99468  33.275  31.983  12.604
27798W        W99469  18.757   5.494   4.052
27799W        W99470   0.087  24.128   5.501
27800W        W99471  28.569  44.135   4.237
27801W        W99472  22.970  14.119  12.000
27802W        W99473  26.135   0.490  14.978
27803W        W99474   2.145  31.431  14.500
27804W        W99475   0.001  39.388   1.306
27805W        W99476   1.520   7.272  10.872
27806W        W99477  12.701  16.885   4.314
27807W        W99478  17.152  44.425  11.008
27808W        W99479  24.756  39.282   1.472
27809W        W99480   4.303  29.045   1.449
27810W        W99481  32.836  10.869   3.904
27811W        W99482  44.864   5.405  11.124
27812W        W99483  10.262  14.205   2.327
27813W        W99484  33.925  13.937  11.393
27814W        W99485  15.502  34.429   4.108
27815W        W99486  35.712  27.375  12.401
27816W        W99487  19.567  33.851   0.685
27817W        W99488  37.944  17.971  14.106
27818W        W99489  33.194   1.981   4.609
27819W        W99490  20.080  11.743   5.475
27820W        W99491   7.044  39.944  12.418
27821W        W99492  27.757  32.870   4.794
27822W        W99493   9.268  26.780  12.855
27823W        W99494   3.152  13.333  13.302
27824W        W99495  27.970  26.149  13.260
27825W        W99496  20.495   0.722  13.898
27826W        W99497  44.261  33.326   2.128
27827W        W99498  20.102  41.310  10.285
27828W        W99499  33.249  32.932   4.722
27829W        W99500  25.832  37.421  13.841
27830W        W99501  32.586   2.355  14.010
27831W        W99502  28.943  18.692  11.493
27832W        W99503  18.856  32.984  11.156
27833W        W99504   6.493  13.780   3.365
27834W        W99505   8.688  35.417  14.885
27835W        W99506   2.938  25.165   2.231
27836W        W99507  23.901  27.707   0.908
27837W        W99508  44.731  12.837   2.296
27838W        W99509  42.163  16.599  14.797
27839W        W99510  36.478  21.990  10.692
27840W        W99511  13.742  35.351  10.386
27841W        W99512  11.368  11.228  14.506
27842W        W99513  36.123  14.119  11.593
27843W        W99514  21.212  21.572  13.443
27844W        W99515  33.869  28.680   4.708
27845W        W99516  11.216  40.935   0.217
27846W        W99517  21.204  41.200   5.353
27847W        W99518  35.111   2.439  14.515
27848W        W99519  43.940   8.386  12.359
27849W        W99520   4.203  20.363   4.367
27850W        W99521  13.063   5.712  10.631
27851W        W99522  29.086   7.798  13.186
27852W        W99523  30.360  24.060   2.200
27853W        W99524  41.046   4.872  12.524
27854W        W99525  38.339  33.421   2.976
27855W        W99526  10.300   6.336   4.566
27856W        W99527   8.863  41.975  11.603
27857W        W99528  24.535  35.509   1.227
27858W        W99529  28.695  15.379  14.823
27859W        W99530  15.621   3.242   1.855
27860W        W99531  27.016   6.410  11.077
27861W        W99532   9.709  23.761  12.760
27862W        W99533  40.719  21.062  11.049
27863W        W99534   3.035  16.484  12.997
27864W        W99535   1.819   2.422  14.441
27865W        W99536  36.894  14.619   2.273
27866W        W99537  33.433  43.076   2.623
27867W        W99538  24.483  44.342  12.097
27868W        W99539  18.839  24.696   4.743
27869W        W99540   9.142   4.980   1.504
27870W        W99541  23.288  30.209   1.495
27871W        W99542  36.481  38.309  11.580
27872W        W99543  43.867   8.400   3.590
27873W        W99544   9.147  21.757   1.813
27874W        W99545  39.509   8.198  11.611
27875W        W99546  36.778  23.588   1.926
27876W        W99547   1.219  32.641   1.840
27877W        W99548  15.614  26.612   3.330
27878W        W99549  36.350  32.973   1.009
27879W        W99550  26.545  44.303  14.308
27880W        W99551  32.099  16.594   0.932
27881W        W99552  23.028  32.596  11.410
27882W        W99553   9.638  10.126  12.100
27883W        W99554   9.409  40.897   2.295
27884W        W99555   1.483   2.543   1.749
27885W        W99556   6.766  34.076  13.864
27886W        W99557   1.102  34.095   3.327
27887W        W99558  36.538  17.280   2.840
27888W        W99559  31.384  35.453   2.174
27889W        W99560   8.776  12.696   3.804
27890W        W99561   5.952  44.939   4.247
27891W        W99562  29.627  21.691  14.254
27892W        W99563   5.746   6.849   1.708
27893W        W99564  19.023   0.880  14.058
27894W        W99565  34.753  15.096   3.150
27895W        W99566  41.105  39.774  13.031
27896W        W99567   8.553  40.833  13.375
27897W        W99568  17.147   1.145  11.512
27898W        W99569  35.350  23.040   4.039
27899W        W99570  17.005  33.547   4.579
27900W        W99571  24.878  22.021  12.386
27901W        W99572  18.710   6.730   4.680
27902W        W99573  25.950  27.671   2.755
27903W        W99574  14.672  15.553   0.935
27904W        W99575   0.794  10.056  10.602
27905W        W99576   5.893  40.772  13.869
27906W        W99577  10.418  16.663   2.762
27907W        W99578  17.824  31.996   5.160
27908W        W99579  33.280  28.677   4.157
27909W        W99580  39.046  18.658   1.917
27910W        W99581  34.351  32.351  13.309
27911W        W99582  33.534  22.725   3.177
27912W        W99583  17.819  10.010   0.009
27913W        W99584   7.519  24.142   4.669
27914W        W99585   1.080   6.799  10.057
27915W        W99586  17.261  10.666  13.955
27916W        W99587  18.305  12.894  12.280
27917W        W99588   1.518  39.083   3.681
27918W        W99589  28.897  39.784   4.594
27919W        W99590  19.035  13.369   2.839
27920W        W99591   5.931  39.570   0.518
27921W        W99592  30.496  26.416   4.676
27922W        W99593  36.800   7.300   0.454
27923W        W99594   8.278  19.649  12.303
27924W        W99595  29.876  37.851  12.622
27925W        W99596  23.678  29.499   2.128
27926W        W99597   6.978  41.437  13.351
27927W        W99598  39.977  16.111  10.563
27928W        W99599  29.106   3.887   0.978
27929W        W99600  39.095  40.946   0.515
27930W        W99601  29.982   3.375  12.779
27931W        W99602  11.022  35.961  14.024
27932W        W99603  27.022  35.524   4.063
27933W        W99604  35.204  29.578  10.311
27934W        W99605  11.473   8.944  13.955
27935W        W99606  32.628  23.749  12.414
27936W        W99607  43.722  37.902  10.588
27937W        W99608  25.710  10.714  11.148
27938W        W99609   4.269   1.913   3.334
27939W        W99610  26.175  43.086   4.608
27940W        W99611  19.539  42.755   1.233
27941W        W99612  11.616  36.665  13.527
27942W        W99613  29.886  34.612   1.218
27943W        W99614  28.746  17.744   1.438
27944W        W99615  14.980  43.903   0.649
27945W        W99616  10.386  27.936  14.708
27946W        W99617  12.577   8.122   1.242
27947W        W99618   9.145   8.161  14.745
27948W        W99619  32.098   5.951  10.869
27949W        W99620   8.236  27.173  13.484
27950W        W99621  28.072  12.141   4.585
27951W        W99622  42.535  28.042  10.695
27952W        W99623  36.934  15.724   4.315
27953W        W99624  10.384  25.071   0.528
27954W        W99625  41.059  42.789   1.138
27955W        W99626  38.953  28.538  11.551
27956W        W99627  16.855  28.913  11.468
27957W        W99628   3.877  34.532   3.074
27958W        W99629  43.283   6.888  13.974
27959W        W99630  24.295   6.344  11.989
27960W        W99631   1.916  42.420   1.262
27961W        W99632  29.956  12.030   1.885
27962W        W99633  29.491   3.740   3.315
27963W        W99634  43.662  23.724  12.488
27964W        W99635  17.320  26.921  13.851
27965W        W99636  15.218   3.956  12.857
27966W        W99637  28.207  33.111   2.436
27967W        W99638  13.297  19.884   3.789
27968W        W99639  16.866  22.492  10.595
27969W        W99640  23.496  22.231  13.007
27970W        W99641  23.624  38.479   3.209
27971W        W99642  36.932   0.889   0.420
27972W        W99643  41.321  18.615   1.290
27973W        W99644  19.494   9.856   3.107
27974W        W99645  21.922  27.171  14.172
27975W        W99646  38.374  36.474  10.898
27976W        W99647  32.106  21.649   2.616
27977W        W99648  13.520  10.803  14.010
27978W        W99649  24.138   7.269  12.582
27979W        W99650   9.630  37.991   3.673
27980W        W99651   3.604  36.594  12.886
27981W        W99652  21.067  25.118  12.523
27982W        W99653   8.760   6.524   4.892
27983W        W99654  35.657  19.197  12.437
27984W        W99655   7.456  10.466   4.040
27985W        W99656  37.148  36.311   3.786
27986W        W99657  17.730  23.388  12.540
27987W        W99658  30.364  36.723  11.118
27988W        W99659  14.515  30.392   3.022
27989W        W99660  16.079  35.356   1.738
27990W        W99661  43.909  34.697  11.653
27991W        W99662  37.633   7.550   1.981
27992W        W99663  30.104  38.878  13.567
27993W        W99664  28.682  12.125  14.344
27994W        W99665  34.137  32.200   0.875
27995W        W99666  19.357  26.733   0.396
27996W        W99667  27.383   7.633   2.730
27997W        W99668  21.083  36.324  12.564
27998W        W99669  36.489  39.777  13.085
27999W        W99670  29.936   9.713   0.287
28000W        W99671  31.445   0.653  14.740
28001W        W99672  10.310  38.264  12.417
28002W        W99673  35.739  41.840  11.469
28003W        W99674   3.322  14.458  11.342
28004W        W99675  40.230  37.204   0.320
28005W        W99676  36.707  37.822   0.055
28006W        W99677  44.505  44.268  13.295
28007W        W99678  23.008   8.965  10.275
28008W        W99679  18.552  28.215  11.012
28009W        W99680  25.090   6.880   1.227
28010W        W99681   4.997  22.546  12.122
28011W        W99682  35.711  38.811  11.792
28012W        W99683  23.729  33.817  12.926
28013W        W99684  31.030  17.333   2.763
28014W        W99685  36.977  44.369  13.978
28015W        W99686  40.238  33.453  12.423
28016W        W99687  23.156  13.745  11.703
28017W        W99688  42.048  11.728   3.115
28018W        W99689  13.686  16.105   3.059
28019W        W99690  10.052  22.622   3.712
28020W        W99691  36.868  12.944  14.606
28021W        W99692  22.110   1.808   1.846
28022W        W99693  26.449  18.388   2.784
28023W        W99694   7.176  11.251   4.154
28024W        W99695   7.289  22.027  11.275
28025W        W99696  22.706  26.561   5.158
28026W        W99697   5.729   6.257   2.838
28027W        W99698  44.672  24.178   1.273
28028W        W99699  10.335  16.641  13.834
28029W        W99700  18.663   7.229  10.625
28030W        W99701   4.096  39.802   3.500
28031W        W99702  39.399  22.271  11.037
28032W        W99703  30.854  14.791   2.692
28033W        W99704   3.933  12.158  11.108
28034W        W99705  18.633  35.886   0.375
28035W        W99706   1.749  21.043   0.780
28036W        W99707  34.998  23.560   9.818
28037W        W99708  15.137  11.308  14.546
28038W        W99709   7.348  44.011   0.989
28039W        W99710   6.395  30.244   0.004
28040W        W99711  28.963  38.472   4.243
28041W        W99712   1.678  42.754   0.369
28042W        W99713  22.738   3.902  10.636
28043W        W99714  14.365  43.399  11.513
28044W        W99715   6.264   8.300  12.662
28045W        W99716  29.433  22.354   3.499
28046W        W99717  12.718   5.210  12.339
28047W        W99718  26.409   2.938   4.135
28048W        W99719  26.459  13.861  11.868
28049W        W99720  26.789   3.305  13.016
28050W        W99721  15.572  36.037  13.837
28051W        W99722  22.753  35.586   4.346
28052W        W99723   8.932  27.580   4.143
28053W        W99724   9.621  39.499   1.478
28054W        W99725  43.274   0.822   1.119
28055W        W99726   8.850  25.003   3.785
28056W        W99727  30.339   2.779  11.135
28057W        W99728  30.445  17.263  12.074
28058W        W99729  42.434  44.991   0.463
28059W        W99730   3.149  39.664   0.263
28060W        W99731  18.142  10.700   1.174
28061W        W99732  26.587  29.224   2.265
28062W        W99733  17.681  23.236  11.573
28063W        W99734  33.150   6.406  10.650
28064W        W99735  13.223  25.177  14.587
28065W        W99736  28.762  30.116  12.451
28066W        W99737  22.863   3.840  12.984
28067W        W99738  16.273  13.100  14.698
28068W        W99739  12.252  20.229  13.770
28069W        W99740  19.455  40.112  11.575
28070W        W99741   7.893   1.132   2.787
28071W        W99742  22.748   9.477  13.906
28072W        W99743  39.457  14.704  14.890
28073W        W99744  34.260  31.456   2.538
28074W        W99745  31.420  44.543   2.848
28075W        W99746  39.841  29.275  11.385
28076W        W99747  15.598  22.746  12.480
28077W        W99748  11.509  41.345  10.401
28078W        W99749  44.390  37.010  14.845
28079W        W99750  25.505  28.975  11.578
28080W        W99751  33.636   6.175   0.790
28081W        W99752  36.571  43.771   2.420
28082W        W99753  15.313  27.710   2.000
28083W        W99754   2.021  15.292  14.427
28084W        W99755  12.356  19.544  11.198
28085W        W99756  36.540   1.358  14.267
28086W        W99757  38.757  23.925  10.530
28087W        W99758  34.288  42.489   0.097
28088W        W99759  15.617  16.694  12.465
28089W        W99760   5.619   3.821   3.396
28090W        W99761   1.384  15.179  14.958
28091W        W99762  44.025  43.626  13.967
28092W        W99763   6.678  22.464  12.893
28093W        W99764   7.486  27.606  10.425
28094W        W99765  33.982   3.003   1.375
28095W        W99766  25.030  42.412   1.658
28096W        W99767  38.391   4.353  10.338
28097W        W99768  12.851  25.055   1.356
28098W        W99769  18.345  36.617   4.263
28099W        W99770  16.687  18.820   0.877
28100W        W99771   3.725  39.442   4.574
28101W        W99772  20.222  39.328  11.112
28102W        W99773   9.652  20.263  14.815
28103W        W99774   0.107  32.096  10.302
28104W        W99775  32.823  13.626   1.221
28105W        W99776  34.448  34.132   2.146
28106W        W99777   3.231   4.893   2.910
28107W        W99778  36.877  31.795   4.286
28108W        W99779  30.581   9.576  14.611
28109W        W99780   5.221  24.236  13.036
28110W        W99781  38.156  33.735   2.606
28111W        W99782  32.431   0.110   4.869
28112W        W99783   5.660   1.708  14.735
28113W        W99784  39.253   3.277   1.441
28114W        W99785  43.397  42.226   5.170
28115W        W99786  28.147  39.904   2.694
28116W        W99787   5.953  27.634   4.158
28117W        W99788  28.788  31.634   4.121
28118W        W99789  23.997   2.945  13.005
28119W        W99790  24.517   5.788  14.256
28120W        W99791  20.571   3.348  11.179
28121W        W99792  27.538  17.023  14.808
28122W        W99793  40.740   2.620  14.198
28123W        W99794   1.683  19.347   5.390
28124W        W99795  38.410  34.292  14.980
28125W        W99796  38.450  37.569   4.224
28126W        W99797   2.477  17.032   4.615
28127W        W99798   1.395   9.781  14.345
28128W        W99799  21.301  18.586   0.944
28129W        W99800  28.699  15.752   4.559
28130W        W99801  19.059  37.027   2.997
28131W        W99802  31.184  40.795  12.741
28132W        W99803  34.952  31.357  13.005
28133W        W99804  24.937   9.690   1.881
28134W        W99805  35.896  42.052  11.924
28135W        W99806  35.100  44.730   3.771
28136W        W99807  41.889   0.699  13.430
28137W        W99808  23.695  22.108  12.078
28138W        W99809  24.079  15.258  13.370
28139W        W99810  28.412  17.968  11.829
28140W        W99811  14.727  17.690  11.075
28141W        W99812  20.253  32.643  13.171
28142W        W99813   5.286  15.692  10.388
28143W        W99814   6.155  30.557   2.908
28144W        W99815   4.910  22.582   2.672
28145W        W99816  38.277   2.812  11.630
28146W        W99817   7.701  17.734   1.197
28147W        W99818  21.522   6.849   1.328
28148W        W99819  26.911  31.393  12.191
28149W        W99820   4.855   1.991   0.586
28150W        W99821  13.238   1.154  13.042
28151W        W99822  26.084   3.572   2.733
28152W        W99823  21.255   5.275  11.902
28153W        W99824  13.693  20.262   3.041
28154W        W99825  26.557  23.748  10.591
28155W        W99826  20.319  28.895  13.140
28156W        W99827  41.886  44.898   2.643
28157W        W99828  19.033  26.915   3.284
28158W        W99829  18.612  37.807  13.497
28159W        W99830  11.228  22.761   3.221
28160W        W99831  21.603   3.239   4.964
28161W        W99832  20.298   1.690   1.932
28162W        W99833  32.929  19.656   1.214
28163W        W99834   4.297  40.078  13.379
28164W        W99835  40.672  29.180   2.800
28165W        W99836   0.816  23.808   3.271
28166W        W99837  15.143  12.738   1.745
28167W        W99838  25.943  18.255   2.923
28168W        W99839  19.097  14.161   3.249
28169W        W99840  44.444  26.540   3.749
28170W        W99841  35.567  26.074  13.998
28171W        W99842  28.987  20.196   3.623
28172W        W99843  13.316  16.500  11.526
28173W        W99844  43.855  40.278   0.908
28174W        W99845   9.557  39.532   2.828
28175W        W99846   3.047  18.079   1.375
28176W        W99847  43.530   5.222   3.737
28177W        W99848   7.056  20.549   0.803
28178W        W99849  41.584  43.131  12.587
28179W        W99850  17.251  42.995  10.925
28180W        W99851   6.855  23.633   1.009
28181W        W99852  33.427  29.542   2.816
28182W        W99853  19.585  42.283   0.142
28183W        W99854  13.247  39.697  13.428
28184W        W99855  21.453   1.024  14.564
28185W        W99856  17.503  44.345   4.684
28186W        W99857  22.494  34.393  10.866
28187W        W99858  15.037  28.819  11.953
28188W        W99859  44.957   6.498  10.571
28189W        W99860  42.256  26.999  12.423
28190W        W99861  35.506  16.525   4.074
28191W        W99862  28.706  34.647  14.928
28192W        W99863  23.676  36.190  14.333
28193W        W99864  12.742  29.873   2.887
28194W        W99865  24.533   2.952   1.292
28195W        W99866  42.043  35.551   4.824
28196W        W99867   7.952  12.868   2.720
28197W        W99868  41.491  36.046  14.285
28198W        W99869  40.006  38.259  12.906
28199W        W99870  10.795  10.790   1.153
28200W        W99871   8.626   8.713   0.621
28201W        W99872   4.414  24.379  14.851
28202W        W99873  36.553  25.395   1.426
28203W        W99874  19.159   8.328   4.380
28204W        W99875  11.767  33.001   2.736
28205W        W99876   6.103   5.293  14.040
28206W        W99877   2.527  42.467  14.404
28207W        W99878  38.418  15.757   1.248
28208W        W99879  25.488  11.193  11.973
28209W        W99880  40.430   6.730  11.548
28210W        W99881  41.747  28.701  11.522
28211W        W99882  24.128  25.733  10.517
28212W        W99883   2.717  29.122  11.895
28213W        W99884  19.813  14.696   0.860
28214W        W99885  24.710  16.384  13.891
28215W        W99886  34.554   1.174  12.376
28216W        W99887  10.679  38.317  14.451
28217W        W99888   2.676   2.755   2.803
28218W        W99889  40.333   3.401   3.320
28219W        W99890  39.487  26.936  10.669
28220W        W99891  29.693  25.587   2.538
28221W        W99892  34.443  26.504   1.925
28222W        W99893  33.607  13.506  13.240
28223W        W99894   5.943  31.517  14.474
28224W        W99895  18.505  31.953   2.142
28225W        W99896  38.845  44.787   2.051
28226W        W99897   9.684  19.244   1.396
28227W        W99898  25.237  25.036   2.890
28228W        W99899  31.443  14.395   3.662
28229W        W99900  11.332  35.277  12.897
28230W        W99901   7.797  22.066  12.788
28231W        W99902   7.584  28.955   0.786
28232W        W99903  19.356  17.257   0.953
28233W        W99904  27.083  19.714   2.630
28234W        W99905  12.286  38.824  11.229
28235W        W99906   7.129  30.631   0.236
28236W        W99907  18.531  34.478  10.175
28237W        W99908  26.976   6.745  14.471
28238W        W99909  36.657  33.594   2.799
28239W        W99910  25.024  40.564  10.564
28240W        W99911   9.689  28.908   4.404
28241W        W99912   7.769  26.963  13.409
28242W        W99913   9.141  11.704  11.203
28243W        W99914  13.303   2.965  12.484
28244W        W99915  39.728  44.509  13.458
28245W        W99916  22.319  39.342   0.472
28246W        W99917  37.832  42.360  12.003
28247W        W99918  42.780  17.106  11.949
28248W        W99919  13.345  41.961  14.799
28249W        W99920  39.778   7.813  12.649
28250W        W99921   9.288   3.294  13.426
28251W        W99922   4.783   7.172  11.198
28252W        W99923  27.524  35.756  11.580
28253W        W99924   6.623  36.313   4.567
28254W        W99925  29.514  25.738  13.649
28255W        W99926   7.319  38.022  10.720
28256W        W99927  26.994  19.255   0.860
28257W        W99928   8.776  36.984   0.410
28258W        W99929  26.487  21.041   2.265
28259W        W99930  42.975  17.495  13.378
28260W        W99931  43.818   5.476  12.930
28261W        W99932  26.893  25.235  14.019
28262W        W99933  31.557  16.555  11.255
28263W        W99934  26.057  21.016  14.486
28264W        W99935   3.824  43.178   4.973
28265W        W99936  26.478   6.264  14.158
28266W        W99937  30.530   3.687  11.138
28267W        W99938   1.295  21.465   4.942
28268W        W99939   2.705  22.631   5.443
28269W        W99940  35.297  32.873   3.695
28270W        W99941   8.846  25.040  10.862
28271W        W99942   9.670  42.041   0.429
28272W        W99943   3.834  24.779  13.764
28273W        W99944  25.053  16.765  13.951
28274W        W99945  27.075   9.926  11.497
28275W        W99946  16.811   6.622  10.960
28276W        W99947  14.338  14.057   1.396
28277W        W99948   4.277  19.166   4.368
28278W        W99949  12.839  44.837   4.957
28279W        W99950  44.198   5.954   3.763
28280W        W99951  40.478  14.187  12.199
28281W        W99952   9.466  23.961  13.175
28282W        W99953  40.654  32.729  11.778
28283W        W99954  14.240  10.419  11.199
28284W        W99955  36.938  38.823   1.716
28285W        W99956  12.530   5.679   4.135
28286W        W99957   1.788  21.435  12.031
28287W        W99958   4.271   9.851  12.432
28288W        W99959  26.980  23.607  14.896
28289W        W99960   6.060   5.198  14.960
28290W        W99961  10.292  10.802  13.898
28291W        W99962  14.668  25.416  11.896
28292W        W99963  20.090  17.843   2.205
28293W        W99964  41.400  32.903   3.251
28294W        W99965  35.361   0.482  13.791
28295W        W99966  37.767  34.834   1.707
28296W        W99967  15.195  10.367  11.188
28297W        W99968  30.585  37.931  10.486
28298W        W99969  39.184  39.912   5.100
28299W        W99970  14.089   7.687   3.639
28300W        W99971  10.606  39.426   4.253
28301W        W99972  39.102   8.817  13.924
28302W        W99973  16.829  38.341  13.483
28303W        W99974  20.559  24.686  12.023
28304W        W99975  20.204   6.319  13.558
28305W        W99976  28.963  41.897  10.468
28306W        W99977  21.635  31.662  14.715
28307W        W99978   5.782  19.632  14.361
28308W        W99979  13.776  39.610   3.746
28309W        W99980  31.505  44.344   1.171
28310W        W99981  43.219  32.078   4.325
28311W        W99982  22.229  38.554  11.501
28312W        W99983  17.332  10.866   4.927
28313W        W99984  43.291   2.464   2.774
28314W        W99985  23.076   0.487   3.132
28315W        W99986  26.044  42.810  10.707
28316W        W99987   2.937  44.633  13.394
28317W        W99988  14.606   5.138  14.349
28318W        W99989  37.670   3.795  12.494
28319W        W99990  38.752  32.877  13.819
28320W        W99991  44.923  33.440  12.337
28321W        W99992  10.680  22.109  12.757
28322W        W99993  32.860   4.150   1.233
28323W        W99994  21.581  25.394  11.912
28324W        W99995   6.934  23.477  13.025
28325W        W99996  40.475   0.309  10.640
28326W        W99997  16.480  14.303   3.795
28327W        W99998   8.717  11.641   3.687
28328W        W99999  16.907  31.420  13.816
28329W        W    0  15.474  37.782  11.647
28330W        W    1  41.192  34.695  12.141
28331W        W    2  19.504  41.188  12.376
28332W        W    3   7.910  33.974   0.017
28333W        W    4  27.524   7.942  14.493
28334W        W    5  29.828   5.868   4.795
28335W        W    6  39.957  43.467   2.364
28336W        W    7  24.298   0.172   0.761
28337W        W    8   4.144  43.537   0.806
28338W        W    9  18.563  22.692  10.551
28339W        W   10   8.374  22.805  12.377
28340W        W   11  43.759  13.667  13.539
28341W        W   12   8.617  30.388  11.579
28342W        W   13  31.849  22.745  13.053
28343W        W   14  21.316  39.158   3.456
28344W        W   15   7.396  38.205   1.228
28345W        W   16   0.720  10.368  14.222
28346W        W   17   6.632  40.334  10.696
28347W        W   18  39.757  42.950   0.323
28348W        W   19  31.774  34.560   3.180
28349W        W   20   4.823   0.214  13.586
28350W        W   21  12.936  25.980   1.254
28351W        W   22  11.188  27.413   2.366
28352W        W   23  43.986  33.107   0.800
28353W        W   24   1.955  26.261   0.823
28354W        W   25  26.652  37.044   0.313
28355W        W   26  12.432  39.931  13.999
28356W        W   27  41.092   4.428   3.543
28357W        W   28  43.783   8.708  12.975
28358W        W   29  33.021  40.078   3.235
28359W        W   30  28.592   5.417  14.425
28360W        W   31  24.242  43.313  11.598
28361W        W   32  13.608  24.512   2.313
28362W        W   33   8.391  39.611   3.246
28363W        W   34  36.258  15.519   0.321
28364W        W   35  26.982  40.386  12.412
28365W        W   36  24.735  10.355  14.343
28366W        W   37  32.144  11.412  11.145
28367W        W   38   7.733  10.231  10.158
28368W        W   39  24.379  23.705   0.090
28369W        W   40  43.888  32.959   2.184
28370W        W   41  27.561  34.455  14.397
28371W        W   42   4.420  13.828   2.621
28372W        W   43  26.569  40.019   3.124
28373W        W   44  25.840   5.309   1.756
28374W        W   45   3.883  19.725  14.699
28375W        W   46  15.190  29.948  12.743
28376W        W   47  26.986   4.271   1.924
28377W        W   48  32.597  10.739   0.682
28378W        W   49  12.991  23.282  13.065
28379W        W   50  29.723  27.128  11.549
28380W        W   51  27.455  36.992   1.309
28381W        W   52  19.874  24.990   2.501
28382W        W   53  36.515   2.215   4.135
28383W        W   54  20.811  34.128  14.839
28384W        W   55  25.501  37.971  11.734
28385W        W   56  34.945  13.828   5.284
28386W        W   57  24.260   9.922  13.552
28387W        W   58  19.284  12.334  13.500
28388W        W   59   0.301  40.623   4.912
28389W        W   60  19.274  27.117  14.024
28390W        W   61  15.628  44.539   1.826
28391W        W   62  40.380  33.051   3.057
28392W        W   63  11.274  40.014   0.183
28393W        W   64   1.890  21.827  12.419
28394W        W   65  14.756  30.803  12.917
28395W        W   66   1.093  25.260  11.276
28396W        W   67  11.689  36.889   3.869
28397W        W   68  23.443  28.948   3.329
28398W        W   69  17.330  40.806  10.208
28399W        W   70  37.584  28.276   4.586
28400W        W   71  12.876  39.983  10.782
28401W        W   72  36.099  23.608   3.244
28402W        W   73  24.417  28.625   0.044
28403W        W   74  35.683   0.773   1.804
28404W        W   75   3.939   8.375   1.050
28405W        W   76  21.802   3.154  13.646
28406W        W   77   5.806  29.059  11.188
28407W        W   78  31.921   6.205   3.716
28408W        W   79  31.799   9.348  10.873
28409W        W   80   6.449  28.476   3.575
28410W        W   81  43.845   9.680  13.829
28411W        W   82  10.087  35.004   3.674
28412W        W   83   7.856  21.697   3.024
28413W        W   84  33.403  13.830   3.780
28414W        W   85  36.467  23.051   4.904
28415W        W   86  24.571  17.798   1.495
28416W        W   87  28.634  31.378   0.803
28417W        W   88  16.051   6.346   3.657
28418W        W   89   3.333  26.900  14.054
28419W        W   90   2.845  11.597   3.779
28420W        W   91   9.677  17.293  10.550
28421W        W   92   0.087  26.534  14.350
28422W        W   93   7.177  20.894  14.429
28423W        W   94  43.733  42.496   3.272
28424W        W   95  17.515   0.019  13.418
28425W        W   96   6.426  10.275  13.896
28426W        W   97  38.990  33.895  13.079
28427W        W   98  42.709  24.095  10.636
28428W        W   99  20.268   2.632   0.097
28429W        W  100  42.615  22.595  12.922
28430W        W  101  11.354  21.682   1.707
28431W        W  102  21.475  39.391  10.143
28432W        W  103  32.925  20.802   4.375
28433W        W  104  31.442  14.220   4.573
28434W        W  105  21.300   5.701  10.776
28435W        W  106  31.084  16.452   4.119
28436W        W  107  20.731  20.993   9.976
28437W        W  108  33.672  36.272   0.915
28438W        W  109   4.812  11.810  12.741
28439W        W  110  38.280  43.691   1.983
28440W        W  111  19.621  36.295   4.198
28441W        W  112   1.849  20.813  12.556
28442W        W  113   5.285   5.315  12.881
28443W        W  114   4.761  10.874   3.143
28444W        W  115  36.518  41.973  13.644
28445W        W  116  15.155  31.688   3.331
28446W        W  117  16.069   7.177  12.025
28447W        W  118   7.773  35.335  12.363
28448W        W  119  26.499  22.799   0.376
28449W        W  120  10.616   2.371   2.186
28450W        W  121  20.240  17.069   2.851
28451W        W  122  23.937  27.965  14.366
28452W        W  123   8.162   4.457   2.285
28453W        W  124  32.979  25.130   0.833
28454W        W  125   1.387  30.050   2.633
28455W        W  126  13.607   8.255  11.458
28456W        W  127  42.772   5.642   2.756
28457W        W  128  43.525   4.931   4.187
28458W        W  129  22.718  12.031   3.856
28459W        W  130  14.778  44.077  14.764
28460W        W  131   5.368  36.089  11.082
28461W        W  132  42.409  19.170  11.563
28462W        W  133   2.556  34.504   0.464
28463W        W  134  10.880  21.245  12.915
28464W        W  135  22.918  22.464   4.854
28465W        W  136  18.819   4.585   5.051
28466W        W  137  39.792  36.924   0.317
28467W        W  138  14.608  34.965  10.585
28468W        W  139   0.824  21.519   0.948
28469W        W  140   1.649  29.426  11.298
28470W        W  141   2.546  18.289   1.332
28471W        W  142   6.741  23.146  12.161
28472W        W  143  19.344  17.249   3.469
28473W        W  144   3.381  35.500   1.916
28474W        W  145   9.793  10.906  12.487
28475W        W  146   2.229  19.608  14.858
28476W        W  147  22.263   0.756  12.021
28477W        W  148  44.333   0.782  13.678
28478W        W  149  40.141  19.018   2.750
28479W        W  150  37.481  13.312   5.087
28480W        W  151  19.282   5.958  13.114
28481W        W  152  37.575  17.592   2.252
28482W        W  153   1.565  41.511  14.285
28483W        W  154  16.950  30.376  14.872
28484W        W  155  39.303  23.051  11.470
28485W        W  156  18.287   1.734   4.142
28486W        W  157   0.397  14.871  14.086
28487W        W  158  44.982  10.140  11.282
28488W        W  159  35.336  30.058  14.852
28489W        W  160   0.932  24.989  14.931
28490W        W  161   3.771  18.054  12.658
28491W        W  162   2.137  17.822   1.889
28492W        W  163   5.018  34.095   4.595
28493W        W  164   1.918  18.646   3.896
28494W        W  165  17.516  34.501  10.905
28495W        W  166  30.606  17.619   2.804
28496W        W  167  29.604  39.084   0.714
28497W        W  168  42.774   2.508  14.522
28498W        W  169  30.939  12.028   0.131
28499W        W  170  41.606  20.019   0.607
28500W        W  171   0.399  20.196  13.838
28501W        W  172  32.891  14.602  13.410
28502W        W  173  16.536  18.697   1.741
28503W        W  174  20.417   1.445  12.554
28504W        W  175  25.503  22.873  10.776
28505W        W  176  40.006   5.804   2.264
28506W        W  177   2.622  22.492   1.508
28507W        W  178  19.054   6.199   3.594
28508W        W  179  44.556  38.894  13.170
28509W        W  180  40.575   4.009  11.051
28510W        W  181  35.919  23.703   1.952
28511W        W  182  41.410  44.501   1.752
28512W        W  183  16.730   2.245   1.127
28513W        W  184  41.013   1.400  12.746
28514W        W  185  28.067   0.429   4.932
28515W        W  186  19.582  10.221  11.964
28516W        W  187  33.916  41.808  11.965
28517W        W  188   6.453   7.767  11.012
28518W        W  189  28.066  22.174   4.162
28519W        W  190  32.637  39.918   2.937
28520W        W  191  16.378   5.387   4.637
28521W        W  192  31.527  16.981  13.482
28522W        W  193  39.846  16.131   2.733
28523W        W  194  42.682  38.515   3.731
28524W        W  195  16.055  18.628  12.147
28525W        W  196  16.638   4.206   9.663
28526W        W  197  17.724  37.651  10.577
28527W        W  198   1.436  30.937  14.881
28528W        W  199   9.830  39.780  11.076
28529W        W  200  35.278  10.260  12.292
28530W        W  201   7.388   2.455   1.103
28531W        W  202  16.122  43.243  14.519
28532W        W  203  17.570  40.166   0.935
28533W        W  204  43.114   5.784   1.424
28534W        W  205  28.575  16.153   3.342
28535W        W  206  27.112  40.969  11.865
28536W        W  207  18.237   7.634  14.984
28537W        W  208  25.911  22.486   1.230
28538W        W  209   3.339  43.516  10.908
28539W        W  210   4.261  20.578   2.173
28540W        W  211  20.295  18.556  13.152
28541W        W  212   5.817   8.640   3.817
28542W        W  213  43.950  13.268  14.341
28543W        W  214  20.342  37.685   4.116
28544W        W  215   6.799   2.246  12.367
28545W        W  216  11.123   0.456  14.081
28546W        W  217  27.451  16.789  13.474
28547W        W  218  29.013  15.352  12.589
28548W        W  219   5.890  39.570   2.556
28549W        W  220  29.160  11.125  11.851
28550W        W  221   8.233  22.013   2.824
28551W        W  222   2.239  43.518   4.486
28552W        W  223   2.697  31.034   0.772
28553W        W  224   5.022   3.334   4.138
28554W        W  225  42.254  33.044   4.091
28555W        W  226  33.896  32.860  12.676
28556W        W  227  25.164   1.330   1.984
28557W        W  228  40.290  13.875  10.964
28558W        W  229  25.622  33.941  10.679
28559W        W  230  10.281  31.534  11.685
28560W        W  231  28.288   0.257  10.481
28561W        W  232   4.499  28.531   3.248
28562W        W  233  11.715  44.537  11.777
28563W        W  234  41.110  16.255  12.880
28564W        W  235  11.433   0.395   3.173
28565W        W  236  17.505  41.880  10.510
28566W        W  237  43.419  17.827  13.390
28567W        W  238  12.638  10.882   0.460
28568W        W  239  39.938  25.423  12.962
28569W        W  240  15.808  41.046  11.618
28570W        W  241  20.514  10.695  14.058
28571W        W  242  29.627  27.412  14.464
28572W        W  243   0.458  29.652   4.749
28573W        W  244  32.506  24.237   3.373
28574W        W  245  19.063  25.652   5.547
28575W        W  246  44.589  25.615   0.355
28576W        W  247  41.423  38.094  11.403
28577W        W  248  21.516  21.295   0.746
28578W        W  249  29.246  28.000  13.465
28579W        W  250  33.655  23.662   4.138
28580W        W  251  29.753  31.156   4.798
28581W        W  252  28.125  24.685   3.979
28582W        W  253  13.739  25.176  13.326
28583W        W  254   0.713   0.428  11.964
28584W        W  255  12.257  15.220   1.335
28585W        W  256  25.608   1.014   3.156
28586W        W  257  19.836  15.352   3.143
28587W        W  258  39.953   4.463   3.776
28588W        W  259  29.972  42.506  12.782
28589W        W  260  39.538  40.904   4.598
28590W        W  261  12.250  24.279   2.329
28591W        W  262  23.568  18.037   0.841
28592W        W  263  16.305  40.047   2.147
28593W        W  264  34.233  34.915   3.218
28594W        W  265   6.698  19.251   3.238
28595W        W  266   4.831   5.950  10.774
28596W        W  267   5.409  19.920  14.889
28597W        W  268   2.231  32.670  12.439
28598W        W  269  14.164  36.424   1.919
28599W        W  270  31.853  29.162  14.061
28600W        W  271  26.555   9.427   1.831
28601W        W  272  33.655  36.874   3.092
28602W        W  273  43.230  17.739  11.213
28603W        W  274  16.094  37.568   2.259
28604W        W  275   7.754  14.311   2.800
28605W        W  276  14.208  10.675  11.917
28606W        W  277  44.608  15.035   5.294
28607W        W  278  21.201  31.410   4.415
28608W        W  279  20.539  34.900  13.934
28609W        W  280  19.294  30.673   0.844
28610W        W  281  26.211   7.594   5.435
28611W        W  282  10.929  24.917   1.518
28612W        W  283  18.058   1.968   3.326
28613W        W  284  44.662  31.024   2.398
28614W        W  285  39.985   1.362  12.608
28615W        W  286   9.322  41.950  10.768
28616W        W  287  28.404  28.054  12.403
28617W        W  288  36.978  21.060  14.140
28618W        W  289  32.897  39.657   1.234
28619W        W  290   2.755  44.306   0.382
28620W        W  291  25.827  11.694   2.819
28621W        W  292   6.053  15.078   1.912
28622W        W  293  41.929  28.654   1.000
28623W        W  294  32.663  16.218   1.898
28624W        W  295   8.156  28.512   1.980
28625W        W  296  28.936  30.926  14.017
28626W        W  297  32.196   6.642   1.228
28627W        W  298   4.836  13.647   2.328
28628W        W  299  13.175  35.783  13.361
28629W        W  300  38.869  42.681  11.281
28630W        W  301  32.016  22.005   0.356
28631W        W  302   4.790   1.648  12.354
28632W        W  303  41.980  11.798   4.089
28633W        W  304   4.903   8.920   3.389
28634W        W  305   8.439  13.269  12.521
28635W        W  306   0.538   4.780  11.076
28636W        W  307  15.901  25.930   1.254
28637W        W  308  34.087   0.185   2.634
28638W        W  309  22.545  11.297  13.333
28639W        W  310  41.293  33.853   0.047
28640W        W  311  33.371   8.790  11.190
28641W        W  312  24.222  10.538   2.863
28642W        W  313  38.911  26.943   4.674
28643W        W  314  21.544  34.837   4.197
28644W        W  315  32.975   3.716  11.129
28645W        W  316  39.546  18.263  12.942
28646W        W  317   0.471   3.704  12.928
28647W        W  318  22.644  20.036  12.092
28648W        W  319  11.273   0.488   0.115
28649W        W  320  41.512   7.666   4.499
28650W        W  321  36.590  16.867  10.928
28651W        W  322  31.939   9.126   2.358
28652W        W  323  10.374  13.337   2.892
28653W        W  324  10.757  24.973  10.627
28654W        W  325  11.988  43.317  10.498
28655W        W  326  36.111   1.688  13.381
28656W        W  327   6.643  20.595   2.659
28657W        W  328  21.609  28.561   1.459
28658W        W  329  36.053   1.373   3.103
28659W        W  330  16.731  19.247  12.431
28660W        W  331  11.629  19.980  11.218
28661W        W  332   9.140  37.103   0.903
28662W        W  333   3.156  28.537  14.209
28663W        W  334  16.274  34.385  14.223
28664W        W  335  26.707  21.432   3.640
28665W        W  336   3.682  42.934   2.749
28666W        W  337  38.458   5.725   2.401
28667W        W  338  41.887  42.292  10.676
28668W        W  339  36.382  10.640   0.510
28669W        W  340  19.068  22.209   4.851
28670W        W  341   9.623  40.026   1.409
28671W        W  342  44.242  18.506  12.229
28672W        W  343  27.244  34.879   2.869
28673W        W  344  35.596  37.219   3.238
28674W        W  345  14.183  21.607   3.139
28675W        W  346  37.036  31.185  13.584
28676W        W  347  29.482  40.097  12.048
28677W        W  348  20.116  31.487   1.756
28678W        W  349  17.106   1.169  14.405
28679W        W  350  35.571  14.705  11.941
28680W        W  351  27.717   6.531   1.245
28681W        W  352  37.355   0.224  13.963
28682W        W  353  24.935  29.450  11.204
28683W        W  354   1.012  24.886  13.922
28684W        W  355  42.427   2.334  11.748
28685W        W  356  33.791  43.980  11.687
28686W        W  357  35.663  37.611   4.554
28687W        W  358  33.478  26.346  13.862
28688W        W  359  31.687  15.732   2.371
28689W        W  360  10.645  15.754  14.489
28690W        W  361  25.348  22.514   2.678
28691W        W  362  13.511  39.272  12.381
28692W        W  363  40.017  26.920  10.648
28693W        W  364  38.756  37.441  13.713
28694W        W  365   3.603  38.265   1.412
28695W        W  366   7.355  37.417  13.653
28696W        W  367  28.301   8.959  10.637
28697W        W  368  41.587  13.534  14.489
28698W        W  369   8.690  21.064   3.713
28699W        W  370   8.883  26.868   1.307
28700W        W  371  22.828  44.984  14.906
28701W        W  372  10.177  20.973   0.347
28702W        W  373  10.197  33.674   3.208
28703W        W  374  20.754  32.956   1.304
28704W        W  375  37.557  22.213   0.248
28705W        W  376  20.600   9.718  10.635
28706W        W  377  35.519  20.622  10.358
28707W        W  378  21.696  31.848  11.968
28708W        W  379  35.076  44.734  14.951
28709W        W  380  30.929  31.701   2.938
28710W        W  381  35.466  13.665   0.228
28711W        W  382  40.056  12.803   3.601
28712W        W  383  38.728   6.250  14.929
28713W        W  384  30.458   6.990   0.891
28714W        W  385   2.831  33.153   0.930
28715W        W  386   9.881  16.689   0.013
28716W        W  387  30.393   4.951   4.069
28717W        W  388  23.594   9.567  14.250
28718W        W  389  19.969   6.349   1.824
28719W        W  390  29.906  22.464  11.471
28720W        W  391  21.505  37.581   1.861
28721W        W  392  33.950  11.757  11.556
28722W        W  393  42.684  39.072   0.314
28723W        W  394  12.320  18.299   1.861
28724W        W  395   6.479   2.825   0.011
28725W        W  396   1.944  29.925   1.412
28726W        W  397  10.657  30.754   5.020
28727W        W  398   3.453  18.821  13.695
28728W        W  399   8.686   4.517   0.413
28729W        W  400  36.013  14.888   2.809
28730W        W  401  11.538  35.934  14.026
28731W        W  402   6.076  18.061   1.803
28732W        W  403   8.167  43.967   2.385
28733W        W  404  32.026  28.619  14.395
28734W        W  405  16.531  10.309   2.767
28735W        W  406  35.012  20.778   0.883
28736W        W  407  30.965  31.863   1.258
28737W        W  408  12.065  27.553  13.549
28738W        W  409  35.750  40.899  10.724
28739W        W  410  25.778  21.704   4.914
28740W        W  411  28.580  43.397  14.779
28741W        W  412  31.988   5.862  13.274
28742W        W  413  39.280  11.270  12.106
28743W        W  414   9.127  15.825  14.301
28744W        W  415  24.753   0.134  14.926
28745W        W  416  12.198   5.712  13.062
28746W        W  417  25.832  39.947   0.576
28747W        W  418  15.206  41.536   3.837
28748W        W  419  15.149  19.119  10.693
28749W        W  420  10.273  35.125   0.330
28750W        W  421  21.167   7.830  11.587
28751W        W  422  32.161   6.330   4.593
28752W        W  423  36.559  33.507  13.728
28753W        W  424  44.808  26.145  13.122
28754W        W  425  44.497  22.152   1.433
28755W        W  426  40.208  19.481  14.414
28756W        W  427  26.719  11.786   4.798
28757W        W  428  32.132  33.486   0.858
28758W        W  429  34.004   5.386   4.085
28759W        W  430  30.521  39.570  12.619
28760W        W  431   7.952  15.486  12.457
28761W        W  432  25.593  15.403   2.183
28762W        W  433  44.565  41.483   3.549
28763W        W  434  35.249   6.721  12.969
28764W        W  435   2.947  28.239   0.093
28765W        W  436   2.538  43.737   2.171
28766W        W  437  14.301   8.992   0.498
28767W        W  438   8.427  43.805   0.997
28768W        W  439   0.668  21.516   0.054
28769W        W  440  19.797  42.895  10.579
28770W        W  441  28.343   4.741  11.096
28771W        W  442   7.967  32.645   0.437
28772W        W  443  43.162  44.900  12.356
28773W        W  444  24.983  11.239  12.373
28774W        W  445  18.132  21.631   2.425
28775W        W  446  17.579   4.705  11.004
28776W        W  447   2.672   5.072  13.026
28777W        W  448  28.199  12.681   0.320
28778W        W  449  26.943   6.332   3.075
28779W        W  450  28.223   6.071  11.563
28780W        W  451  35.569  19.774   1.338
28781W        W  452   0.158   7.926  11.600
28782W        W  453  33.059  23.051  12.845
28783W        W  454  22.176  37.493   2.196
28784W        W  455   7.285   8.082   3.532
28785W        W  456   8.277  27.101  12.919
28786W        W  457  43.690  25.104   4.837
28787W        W  458  25.952   3.804   2.254
28788W        W  459   6.317  33.385  13.956
28789W        W  460   2.420  27.607   2.204
28790W        W  461   1.324  22.331   3.732
28791W        W  462  14.624  23.921  14.088
28792W        W  463  33.524   9.101   3.672
28793W        W  464  38.470  15.530   3.567
28794W        W  465  12.722  40.364  11.085
28795W        W  466  43.192   6.279  11.586
28796W        W  467  27.177   7.042   2.339
28797W        W  468  10.037  22.615  12.163
28798W        W  469  10.593  33.971   3.329
28799W        W  470  25.738   4.890  13.747
28800W        W  471   0.191  33.877   4.256
28801W        W  472  42.519  15.138  14.483
28802W        W  473  15.378  21.232   5.052
28803W        W  474  15.704  14.667   0.341
28804W        W  475   4.253  16.843  14.995
28805W        W  476  42.563  14.675   4.100
28806W        W  477  26.630  32.767   4.208
28807W        W  478  14.236  31.579  14.253
28808W        W  479  18.289   8.813   2.639
28809W        W  480  28.964  44.596  14.542
28810W        W  481   6.740   7.846   0.741
28811W        W  482  43.157  35.685  11.668
28812W        W  483  22.081  41.031  12.037
28813W        W  484  31.322  38.936  10.700
28814W        W  485   6.266  33.492  11.312
28815W        W  486  10.340   1.288   3.214
28816W        W  487  39.081  30.747  12.848
28817W        W  488  16.749  26.291  13.848
28818W        W  489  31.135   3.973  12.318
28819W        W  490  18.675  41.845  11.265
28820W        W  491   8.704  36.166  12.914
28821W        W  492  26.920  10.451   4.660
28822W        W  493  14.045  14.302  12.252
28823W        W  494  43.802   6.936  13.907
28824W        W  495  28.270  43.971   3.787
28825W        W  496  36.025  18.311   2.275
28826W        W  497  36.300   5.392   1.247
28827W        W  498  11.365  39.389   0.790
28828W        W  499   9.618  35.471   2.272
28829W        W  500  12.749   2.905   1.103
28830W        W  501  39.039  22.811  13.531
28831W        W  502  30.520  22.471   2.388
28832W        W  503   9.649  32.451  13.754
28833W        W  504  20.234  27.893   4.043
28834W        W  505  42.387  11.616  13.957
28835W        W  506  28.079  32.187   1.685
28836W        W  507   7.703  14.596   0.841
28837W        W  508  23.074   5.069  13.387
28838W        W  509  39.327   5.294  14.902
28839W        W  510  24.657  22.475   1.944
28840W        W  511  32.860  23.564   4.609
28841W        W  512  33.885  27.414  11.595
28842W        W  513  35.465   0.226   1.123
28843W        W  514  13.639   5.915  12.021
28844W        W  515  41.355  36.586   4.032
28845W        W  516  25.348  23.216  11.931
28846W        W  517  20.699  35.513  14.948
28847W        W  518   5.910  23.742  13.985
28848W        W  519  36.712  36.082  10.176
28849W        W  520  33.383  32.060  13.122
28850W        W  521  14.213  33.420   1.466
28851W        W  522  37.419  12.120   0.807
28852W        W  523  11.234  10.369   2.699
28853W        W  524   0.407   2.982   2.228
28854W        W  525   0.339  17.121  12.204
28855W        W  526   7.239  40.753   0.825
28856W        W  527  30.321  41.878   3.720
28857W        W  528   3.892  13.598  12.834
28858W        W  529  30.641  17.175   3.094
28859W        W  530  15.163  28.275  10.712
28860W        W  531  10.267   2.706   3.800
28861W        W  532  24.617  20.011  14.781
28862W        W  533  41.927  44.182  13.987
28863W        W  534   5.764  32.681  12.573
28864W        W  535   5.507  40.393  13.758
28865W        W  536  43.388   2.054   1.837
28866W        W  537  22.023   7.590   4.104
28867W        W  538  13.544  32.051  13.244
28868W        W  539  13.757   3.861   0.472
28869W        W  540   7.230   3.353   0.930
28870W        W  541   6.827  24.631   4.526
28871W        W  542  17.571   1.382  13.587
28872W        W  543  44.528   4.569   3.303
28873W        W  544  10.297   0.736  13.470
28874W        W  545  25.556  43.965   0.934
28875W        W  546  36.083  37.109   3.088
28876W        W  547  41.391  27.928  11.607
28877W        W  548  11.021  37.454  13.252
28878W        W  549  19.017   5.916   1.713
28879W        W  550   2.658  43.497   1.052
28880W        W  551  25.228   9.176  13.578
28881W        W  552  43.415  39.715  12.929
28882W        W  553  42.545   0.600   1.738
28883W        W  554   5.268  23.736  12.218
28884W        W  555  33.816   6.264   3.594
28885W        W  556  14.840   9.704  12.938
28886W        W  557  21.319   6.138  11.064
28887W        W  558  39.518  44.947   4.997
28888W        W  559  43.810   0.993   1.175
28889W        W  560   9.769  38.942  13.261
28890W        W  561  14.538  23.135  14.715
28891W        W  562  25.952  29.087   4.494
28892W        W  563  14.858  36.399  12.004
28893W        W  564  35.829   8.901  12.058
28894W        W  565   7.674  14.622  12.920
28895W        W  566  16.272  29.156   1.484
28896W        W  567   9.306   8.502   2.692
28897W        W  568  29.048   6.847   4.193
28898W        W  569   0.702  20.639   1.530
28899W        W  570   3.220   5.823  12.221
28900W        W  571  21.781   8.191  12.183
28901W        W  572   0.732  11.447   1.030
28902W        W  573  35.980  12.662   0.949
28903W        W  574  36.725  28.720  11.133
28904W        W  575   2.436   8.737  11.118
28905W        W  576  27.563  36.323  10.807
28906W        W  577  23.964  17.601  10.887
28907W        W  578  27.301  22.026   2.806
28908W        W  579   4.715  26.479  11.102
28909W        W  580   4.317   0.658  14.001
28910W        W  581   1.407   6.699   4.286
28911W        W  582  22.045  29.073   3.779
28912W        W  583   6.638  33.390   1.776
28913W        W  584  35.466  22.548   2.935
28914W        W  585  43.701   0.546  12.889
28915W        W  586  14.554  20.742  11.935
28916W        W  587  17.109  21.645  14.821
28917W        W  588  18.788  29.000   4.166
28918W        W  589  26.146  44.372  12.102
28919W        W  590  22.491  17.343   1.036
28920W        W  591  34.922  23.780   2.249
28921W        W  592  12.319  19.230  14.873
28922W        W  593  12.560  43.751  11.202
28923W        W  594  20.339  12.429  10.424
28924W        W  595  12.835  21.668   3.243
28925W        W  596  30.609   5.975  13.522
28926W        W  597   3.260  15.260  14.907
28927W        W  598  14.173  34.352   4.963
28928W        W  599  29.862  21.440   2.560
28929W        W  600  10.548  44.259   4.735
28930W        W  601  26.140  20.703  13.104
28931W        W  602   1.724  19.629   4.970
28932W        W  603  44.909  25.033   1.801
28933W        W  604  26.071  23.677   2.629
28934W        W  605   7.706  16.343  13.494
28935W        W  606  13.366  38.225   2.399
28936W        W  607  11.700   1.753  13.956
28937W        W  608  38.570  25.842  14.531
28938W        W  609  23.978  39.392   0.352
28939W        W  610  44.053  25.876  14.853
28940W        W  611  42.820  17.455   2.713
28941W        W  612  41.740  20.833  13.325
28942W        W  613  30.150  33.467  12.835
28943W        W  614   8.756  33.396   1.917
28944W        W  615   3.054  13.213  14.400
28945W        W  616  40.740  38.283   0.873
28946W        W  617  14.713  42.584  11.984
28947W        W  618  30.899  10.230   2.231
28948W        W  619  24.277  43.469   0.986
28949W        W  620  27.076  13.708  12.921
28950W        W  621   0.476  44.890  11.928
28951W        W  622  25.626  14.370   9.706
28952W        W  623  18.149  24.862  14.073
28953W        W  624  10.671  19.067   4.372
28954W        W  625   3.956  21.133  13.599
28955W        W  626  32.367  22.549   2.798
28956W        W  627  25.843   2.789  10.501
28957W        W  628   5.207   6.306   2.825
28958W        W  629  26.984  19.211  14.933
28959W        W  630   8.258  43.692  13.400
28960W        W  631  17.714   1.611   0.209
28961W        W  632   8.456  43.470  11.094
28962W        W  633   0.974   9.821   0.766
28963W        W  634  19.347  17.232   2.936
28964W        W  635  33.441  44.030   0.301
28965W        W  636  20.624  25.475  10.885
28966W        W  637  43.645  42.052   5.598
28967W        W  638  32.917  29.401  11.418
28968W        W  639  26.696  24.635   4.589
28969W        W  640   1.786  24.206  12.180
28970W        W  641  32.073  43.093  11.534
28971W        W  642   0.750  27.748  14.611
28972W        W  643   4.786  29.396   2.270
28973W        W  644  25.672   7.894  12.596
28974W        W  645  25.727  40.053   1.087
28975W        W  646  12.105  15.462  14.725
28976W        W  647  30.934  23.600   1.469
28977W        W  648  29.542   5.200   3.123
28978W        W  649  14.280  28.670   0.418
28979W        W  650  37.204  39.981  12.591
28980W        W  651  42.270  43.988   0.358
28981W        W  652   8.722  36.006  10.772
28982W        W  653  30.577  15.180   3.625
28983W        W  654   2.825  11.154  12.002
28984W        W  655  30.998  23.502   4.941
28985W        W  656  41.507  10.377   0.483
28986W        W  657  15.238   5.226   2.381
28987W        W  658   6.068  20.280  13.950
28988W        W  659   1.714  26.470  11.198
28989W        W  660   9.655  34.692  12.100
28990W        W  661  10.240   5.449  13.313
28991W        W  662  20.091   5.120  11.064
28992W        W  663   6.377   2.780  11.174
28993W        W  664   3.360  36.538  14.643
28994W        W  665  16.636  15.620  11.167
28995W        W  666  43.537   9.265   2.486
28996W        W  667  28.472   6.413   4.619
28997W        W  668  28.507  27.954   0.284
28998W        W  669   4.502   7.777  11.080
28999W        W  670   1.232  37.317  13.856
29000W        W  671  16.192  12.671  12.281
29001W        W  672  28.097  27.354  11.431
29002W        W  673  43.371   9.714  14.059
29003W        W  674  44.923   6.812   0.914
29004W        W  675  36.810  34.681  13.975
29005W        W  676  13.831  24.365   4.331
29006W        W  677  35.918   2.537  11.918
29007W        W  678  24.125  15.275   2.085
29008W        W  679  29.193  10.200  12.537
29009W        W  680  32.146  30.385   3.792
29010W        W  681  18.347  43.156   3.945
29011W        W  682  17.205  14.920   3.310
29012W        W  683  32.312  43.721   4.495
29013W        W  684   8.326  16.988   1.445
29014W        W  685  17.191  12.897   0.742
29015W        W  686   9.228  21.580   0.806
29016W        W  687  33.241  25.884  13.969
29017W        W  688  37.915  31.441   0.220
29018W        W  689  23.475   9.022   0.485
29019W        W  690  30.275  28.988  14.957
29020W        W  691   3.806  11.118   4.585
29021W        W  692  32.898  27.302   2.665
29022W        W  693   6.460  36.031   0.765
29023W        W  694  11.143   2.301  13.073
29024W        W  695  42.140   2.976  12.987
29025W        W  696  34.262  25.266   3.397
29026W        W  697  40.577  30.610  11.979
29027W        W  698  32.778   6.973   3.786
29028W        W  699  14.168  11.366  11.598
29029W        W  700  44.906  30.626   1.669
29030W        W  701  43.927  17.215   2.217
29031W        W  702  30.013  25.700  13.746
29032W        W  703  34.012  44.420   3.357
29033W        W  704   2.997  25.036  12.642
29034W        W  705  42.781  20.293  13.965
29035W        W  706  35.949  44.428   2.554
29036W        W  707   1.106  34.054   0.859
29037W        W  708  26.680  40.745   2.776
29038W        W  709  28.183  21.665   4.045
29039W        W  710  37.313  12.865  10.390
29040W        W  711  10.555  36.019   3.147
29041W        W  712  34.560  13.449   0.774
29042W        W  713  20.767  20.673   3.927
29043W        W  714  38.406   9.807  10.470
29044W        W  715  39.920  32.920   2.821
29045W        W  716  29.911   5.361   0.975
29046W        W  717  26.220  16.630   3.245
29047W        W  718  31.919  27.923  12.930
29048W        W  719  18.189   2.273  14.397
29049W        W  720   9.628  31.146   3.806
29050W        W  721   7.722  21.414  13.945
29051W        W  722   8.727   6.663  12.047
29052W        W  723  16.282  32.096  11.108
29053W        W  724  35.605  16.021   3.204
29054W        W  725   7.526  30.871   3.796
29055W        W  726  29.685   1.263   3.936
29056W        W  727  39.337  16.293   2.806
29057W        W  728  17.565  12.754  13.578
29058W        W  729  30.935  32.565  14.516
29059W        W  730   7.671  11.718   2.348
29060W        W  731  22.673  15.799  12.967
29061W        W  732   8.105   6.588  13.414
29062W        W  733  35.168  18.290  11.599
29063W        W  734   8.182  28.071  12.625
29064W        W  735  32.588  16.638   4.557
29065W        W  736  31.102  41.806   0.671
29066W        W  737  19.328   8.141   3.232
29067W        W  738  40.136  44.927  13.645
29068W        W  739  40.760  11.760   4.386
29069W        W  740  43.381  40.100   0.928
29070W        W  741  18.535  20.093   3.348
29071W        W  742   4.975  18.293   1.224
29072W        W  743  31.494  15.169  11.918
29073W        W  744   5.483  22.742   0.388
29074W        W  745   5.627  23.610   2.628
29075W        W  746  23.449   1.992   0.573
29076W        W  747  31.917   0.401   5.107
29077W        W  748  35.903  17.299  14.446
29078W        W  749  14.887  19.143   0.834
29079W        W  750  17.929  38.165   2.255
29080W        W  751  28.317   2.799  12.685
29081W        W  752   7.151   8.303  12.551
29082W        W  753  43.008  28.794  12.914
29083W        W  754  40.569  41.284   4.104
29084W        W  755  14.099  23.423  14.712
29085W        W  756  17.587   9.790   3.305
29086W        W  757   9.230   5.179   1.024
29087W        W  758  11.771  28.915  12.149
29088W        W  759  10.275   3.926  14.607
29089W        W  760  28.284  13.855  13.933
29090W        W  761  40.587  18.287  14.418
29091W        W  762  38.427  11.879   1.839
29092W        W  763  21.440  15.618  11.012
29093W        W  764  39.984  15.774  14.994
29094W        W  765   6.366   0.810  12.561
29095W        W  766  35.345  12.770   4.256
29096W        W  767  25.500   1.771   4.666
29097W        W  768  37.629  29.410  12.026
29098W        W  769  38.881  43.133   0.477
29099W        W  770  24.650  32.981  11.899
29100W        W  771  33.525  33.185  13.822
29101W        W  772  43.616  10.873  10.154
29102W        W  773   1.111  38.002   4.360
29103W        W  774  22.253  14.246   3.898
29104W        W  775   7.876  26.471  13.362
29105W        W  776  18.909  35.191  14.224
29106W        W  777  20.595  17.073  13.956
29107W        W  778  25.570  17.265  14.449
29108W        W  779  14.116  26.684   4.635
29109W        W  780  23.298  15.933   0.510
29110W        W  781   1.320  16.833  13.022
29111W        W  782  26.919  18.675  14.898
29112W        W  783   4.709  16.776   4.157
29113W        W  784  22.402   3.052  10.320
29114W        W  785  36.683  39.967  14.447
29115W        W  786   4.210  10.850   2.844
29116W        W  787   5.815  15.163  11.647
29117W        W  788  25.095  27.795  14.933
29118W        W  789  30.653  28.981   1.383
29119W        W  790   1.297   4.108  13.924
29120W        W  791   0.688  34.380   3.168
29121W        W  792   6.430  44.708  14.943
29122W        W  793  28.050  14.729  14.836
29123W        W  794  21.080   0.697  14.494
29124W        W  795   0.621  27.612   3.334
29125W        W  796  33.083  27.486  13.366
29126W        W  797  40.739  31.774   4.205
29127W        W  798  21.315  32.388  11.520
29128W        W  799  28.027  20.701  11.995
29129W        W  800  13.280  39.419  11.545
29130W        W  801  21.748   7.368   0.585
29131W        W  802   8.589  33.643   4.066
29132W        W  803  39.115   4.244  14.281
29133W        W  804  19.489  39.599  11.654
29134W        W  805  29.435  20.508  12.110
29135W        W  806   7.859  29.751   2.695
29136W        W  807  36.378  18.136   2.911
29137W        W  808  29.987   1.339   1.833
29138W        W  809  24.574  43.395   1.392
29139W        W  810   3.376  38.448  11.653
29140W        W  811   4.301  35.346   2.494
29141W        W  812  12.156   7.308  12.216
29142W        W  813  10.868  16.711  10.617
29143W        W  814   3.452  43.041  12.765
29144W        W  815  24.219  23.655  10.332
29145W        W  816  16.057   8.751   4.173
29146W        W  817  40.522   1.163  12.501
29147W        W  818  24.434  36.938  12.065
29148W        W  819  43.537  15.674   1.317
29149W        W  820  41.799  12.780  13.617
29150W        W  821   5.978  22.783   4.140
29151W        W  822  31.517  36.865   1.874
29152W        W  823  37.173  27.333   0.798
29153W        W  824   9.437  19.485   3.612
29154W        W  825  10.466  42.524  12.430
29155W        W  826  36.435  16.236  14.063
29156W        W  827  39.822  16.022  12.542
29157W        W  828   6.509  38.878  11.103
29158W        W  829  11.467  11.759   4.522
29159W        W  830  29.874  21.241  13.050
29160W        W  831   1.405   8.280   4.044
29161W        W  832   4.845  42.759   3.325
29162W        W  833  23.360  14.720   3.686
29163W        W  834   6.925  12.787   2.830
29164W        W  835  18.278  41.474   4.739
29165W        W  836  35.619  24.655  11.138
29166W        W  837  42.822  29.706  10.632
29167W        W  838  39.261  21.083   3.603
29168W        W  839  38.262   8.308  12.090
29169W        W  840  16.575  19.887  14.132
29170W        W  841  36.843  31.092   1.185
29171W        W  842   0.758   3.365  14.983
29172W        W  843  30.685  33.254  11.459
29173W        W  844  12.188  43.785   2.692
29174W        W  845   1.020  28.665   0.359
29175W        W  846  11.575  42.469   1.777
29176W        W  847  39.486  16.789  11.065
29177W        W  848  13.826  36.189  13.079
29178W        W  849  37.708  37.620   3.637
29179W        W  850  41.749   3.741   0.379
29180W        W  851   2.689  44.704   1.787
29181W        W  852  20.665  37.155  10.985
29182W        W  853   3.698  25.110   2.789
29183W        W  854  40.738  30.434  12.488
29184W        W  855   4.449   7.177   1.916
29185W        W  856  39.301  43.553   4.178
29186W        W  857  28.954   4.688   2.630
29187W        W  858  42.517  13.994  11.060
29188W        W  859  43.323   1.571   1.628
29189W        W  860  13.848  34.938  14.395
29190W        W  861   3.876  40.283   3.595
29191W        W  862  18.177  33.962  11.134
29192W        W  863  12.301  28.020  13.619
29193W        W  864  25.251  39.202   5.118
29194W        W  865  38.538  38.596   1.846
29195W        W  866  31.708  40.049  14.663
29196W        W  867  24.825  16.591   3.608
29197W        W  868  19.348  24.640   4.689
29198W        W  869  32.559  16.818   2.752
29199W        W  870  16.714   4.604   3.780
29200W        W  871  12.779   1.041   1.316
29201W        W  872  37.952   6.088  14.941
29202W        W  873  17.414  42.611   2.258
29203W        W  874  36.755   1.823   0.349
29204W        W  875   4.167  28.634  13.244
29205W        W  876  30.490  17.528   1.788
29206W        W  877   5.673  22.443  14.534
29207W        W  878  32.990  31.507   0.761
29208W        W  879  21.659   6.766  11.878
29209W        W  880  18.637  19.675   4.156
29210W        W  881  31.057   3.660   2.399
29211W        W  882  27.104  28.611   3.671
29212W        W  883  14.949  10.553   4.212
29213W        W  884   8.178   3.809  12.999
29214W        W  885  21.237  18.861   0.485
29215W        W  886  22.699  34.552  12.200
29216W        W  887   3.521   1.072   2.231
29217W        W  888  42.360  17.067   3.310
29218W        W  889  21.487   8.198  14.510
29219W        W  890  35.579  41.484   2.473
29220W        W  891  36.936  18.484  13.882
29221W        W  892  41.811  13.871  10.013
29222W        W  893  28.165  44.772  13.071
29223W        W  894  36.045  30.709   4.127
29224W        W  895   1.416  23.579   1.252
29225W        W  896  34.410  17.243   4.324
29226W        W  897  12.237  14.211   1.642
29227W        W  898  21.077  39.585   4.274
29228W        W  899   2.722   8.201  12.049
29229W        W  900  24.187   3.509   0.962
29230W        W  901  21.631  13.347  13.542
29231W        W  902   0.783  35.667   1.414
29232W        W  903  42.389  43.240   0.644
29233W        W  904  13.421  15.627   1.841
29234W        W  905  19.647  17.815  13.601
29235W        W  906  23.068  15.077  11.387
29236W        W  907  10.171  23.818   3.684
29237W        W  908   8.722  21.091   1.428
29238W        W  909  37.492  17.607  14.779
29239W        W  910   6.928  43.038  14.866
29240W        W  911  41.265  26.997  13.387
29241W        W  912  41.711  42.354   2.801
29242W        W  913  38.007  30.430   1.917
29243W        W  914  18.934  35.825   4.563
29244W        W  915  13.867   6.214  12.401
29245W        W  916  21.469  41.520   0.879
29246W        W  917  40.644  40.415   4.160
29247W        W  918   7.034  36.144  14.885
29248W        W  919  17.557  40.797  14.323
29249W        W  920  28.558  15.572   4.083
29250W        W  921   8.744  23.910   4.676
29251W        W  922  10.544  13.263   0.314
29252W        W  923   3.621   5.753   4.166
29253W        W  924  14.809   2.826   4.839
29254W        W  925  43.891  38.926  10.176
29255W        W  926  10.325  14.809  14.364
29256W        W  927  16.596  13.154  10.283
29257W        W  928   2.018  19.580   4.142
29258W        W  929  29.656  10.644   2.260
29259W        W  930  20.612  41.019  10.429
29260W        W  931   4.732  12.178   1.247
29261W        W  932  27.092  17.550  13.995
29262W        W  933   2.929  23.460   4.255
29263W        W  934  42.305  28.866  11.938
29264W        W  935  11.528  13.206  12.419
29265W        W  936  15.548  22.143   4.178
29266W        W  937  11.762  32.172   3.683
29267W        W  938  12.599  38.422   0.465
29268W        W  939   9.058  11.349   4.165
29269W        W  940   0.024  26.528  12.837
29270W        W  941   2.244  23.765  14.330
29271W        W  942  29.810  39.500  14.954
29272W        W  943  37.848  15.597   2.167
29273W        W  944   9.797   0.958  12.057
29274W        W  945  25.385   9.664   2.653
29275W        W  946  25.418  40.892  12.076
29276W        W  947   4.415  29.451  14.159
29277W        W  948  44.382   6.546  10.798
29278W        W  949  39.857   3.756  14.952
29279W        W  950  44.109  27.752   3.261
29280W        W  951  19.015  39.410  11.587
29281W        W  952   3.406  22.276  11.536
29282W        W  953  40.941  12.149   3.414
29283W        W  954  37.063  14.243  12.876
29284W        W  955  35.173  31.203  14.764
29285W        W  956  13.875  21.261  11.700
29286W        W  957  35.098  44.417  14.059
29287W        W  958  13.111  36.467   0.272
29288W        W  959  31.620  42.339   1.301
29289W        W  960  15.121  12.821   2.242
29290W        W  961  32.067   4.850  13.334
29291W        W  962  23.671   8.216  11.944
29292W        W  963  15.638  25.079  10.521
29293W        W  964  39.932  44.906  10.757
29294W        W  965   5.254  44.984   2.321
29295W        W  966   6.120  18.496   3.188
29296W        W  967  29.688  20.941   2.668
29297W        W  968   6.489  10.611   0.879
29298W        W  969  21.751  23.281   5.181
29299W        W  970  28.707   2.325   4.036
29300W        W  971  16.189  28.572  14.877
29301W        W  972  19.504  23.744   0.685
29302W        W  973   7.751  35.617   4.163
29303W        W  974  26.015  21.706   2.612
29304W        W  975   2.194  12.270   4.635
29305W        W  976  40.824  42.268  13.472
29306W        W  977  43.966  27.146  12.517
29307W        W  978  19.822   8.311   4.131
29308W        W  979  16.235  13.202  11.634
29309W        W  980  10.336  18.699  14.563
29310W        W  981  44.290   3.852   1.551
29311W        W  982   9.297  28.494   0.060
29312W        W  983   2.974  40.534  10.515
29313W        W  984  38.514   5.894   4.159
29314W        W  985  40.751  11.717  10.994
29315W        W  986   2.715  43.782   0.222
29316W        W  987  36.858  41.527   3.712
29317W        W  988   4.385  11.125  11.120
29318W        W  989  33.357  31.325   3.128
29319W        W  990  32.718  32.948  13.338
29320W        W  991   9.657  11.861  11.136
29321W        W  992  13.874   6.421  13.316
29322W        W  993  31.268  41.351   4.843
29323W        W  994  27.473  23.722  13.546
29324W        W  995  30.129  21.857   0.460
29325W        W  996  23.224  38.837   4.558
29326W        W  997  44.236  19.242  12.775
29327W        W  998  17.539  13.003  13.086
29328W        W  999  39.868   5.991   1.455
29329W        W 1000  30.894  12.445  12.195
29330W        W 1001   8.393  35.030   0.696
29331W        W 1002   1.329   1.789   3.795
29332W        W 1003   3.856  31.074  13.713
29333W        W 1004  29.213   2.280   0.466
29334W        W 1005  27.110  18.209  13.360
29335W        W 1006  17.757   5.661   3.665
29336W        W 1007   8.039   2.566   4.189
29337W        W 1008  39.069   0.304   4.366
29338W        W 1009  19.737  35.277  13.590
29339W        W 1010  13.768  38.364  11.526
29340W        W 1011   1.529  30.439   3.891
29341W        W 1012  36.369  23.201   2.364
29342W        W 1013  34.332   8.211   4.273
29343W        W 1014  29.653   5.926   2.711
29344W        W 1015  32.389  44.851  10.582
29345W        W 1016  26.751   5.552  10.074
29346W        W 1017   3.987  22.141   1.884
29347W        W 1018  15.422  19.081   4.118
29348W        W 1019  21.937  42.202  13.298
29349W        W 1020  22.175   7.709   1.840
29350W        W 1021  42.856  41.928  12.028
29351W        W 1022   6.563  21.513  11.518
29352W        W 1023  44.840  41.597  13.789
29353W        W 1024  29.783  19.015   1.742
29354W        W 1025  21.206  39.045   4.581
29355W        W 1026   1.993  23.710  13.699
29356W        W 1027  35.428  36.462  12.204
29357W        W 1028  41.017   3.778   1.866
29358W        W 1029  12.179  25.975  10.675
29359W        W 1030  39.960  40.104  13.507
29360W        W 1031  30.882   9.000   3.252
29361W        W 1032  40.938  20.261   2.870
29362W        W 1033  41.355   0.983   3.390
29363W        W 1034  44.779   1.872  10.664
29364W        W 1035  26.353  37.017  12.569
29365W        W 1036  21.291  13.152   4.486
29366W        W 1037  42.037  32.584   4.349
29367W        W 1038  26.153   0.183  11.891
29368W        W 1039  34.389   6.796  12.532
29369W        W 1040  12.491  24.925   4.326
29370W        W 1041  30.662  10.078  14.480
29371W        W 1042  10.847  40.962  10.432
29372W        W 1043  28.285  22.718   5.132
29373W        W 1044  24.813  42.505  11.114
29374W        W 1045  16.549   3.130  13.286
29375W        W 1046  41.858  33.116  11.203
29376W        W 1047   5.238   3.948  13.914
29377W        W 1048   7.120  17.289   0.417
29378W        W 1049  36.266  25.982   2.315
29379W        W 1050   8.104  15.378  14.092
29380W        W 1051  42.894  38.525   5.436
29381W        W 1052   7.008   0.435   0.261
29382W        W 1053  13.879   0.460  12.949
29383W        W 1054  41.759  21.863  12.007
29384W        W 1055  41.780  27.170  12.386
29385W        W 1056  16.184  15.824   0.465
29386W        W 1057  39.356  16.882   3.168
29387W        W 1058   8.809  20.465  12.442
29388W        W 1059  32.872  28.731   4.484
29389W        W 1060  16.075  35.334   0.253
29390W        W 1061  32.400   9.687  11.182
29391W        W 1062  16.038   0.801   4.719
29392W        W 1063  24.051   9.398   2.387
29393W        W 1064  40.567  19.951   3.115
29394W        W 1065  13.163  19.298   0.536
29395W        W 1066  29.564  17.536   4.095
29396W        W 1067  27.661  19.178   4.168
29397W        W 1068  19.275  30.609   4.135
29398W        W 1069  18.700  34.358   4.207
29399W        W 1070  32.523  33.012   5.036
29400W        W 1071  20.201  18.803   2.605
29401W        W 1072  30.465   2.443   4.530
29402W        W 1073  38.545  12.123  14.328
29403W        W 1074  12.235  33.627   1.441
29404W        W 1075  16.738  33.136   3.180
29405W        W 1076  41.028  39.528   2.263
29406W        W 1077  30.932  31.648  13.567
29407W        W 1078  44.492  31.673   0.005
29408W        W 1079  22.777  15.080   1.273
29409W        W 1080   8.100  21.607  14.925
29410W        W 1081  12.602  39.286  12.047
29411W        W 1082  11.612   9.235  13.294
29412W        W 1083  20.185  24.190  13.440
29413W        W 1084   9.737  26.583   1.260
29414W        W 1085   5.774  11.352  10.549
29415W        W 1086   8.255  40.521  10.759
29416W        W 1087  27.448  41.059  12.653
29417W        W 1088  30.459  44.816   0.897
29418W        W 1089  21.731  12.120   3.200
29419W        W 1090  22.136  42.960  12.911
29420W        W 1091  39.871  36.867   3.387
29421W        W 1092  15.359  33.101  12.314
29422W        W 1093  36.463   2.524  13.274
29423W        W 1094  20.788  25.791  11.264
29424W        W 1095  42.757  36.179  12.556
29425W        W 1096  18.587  43.225  14.782
29426W        W 1097  29.155  23.525  14.905
29427W        W 1098  27.312  20.227  13.735
29428W        W 1099  14.774  39.820  13.300
29429W        W 1100  26.903  30.009   2.375
29430W        W 1101   7.860  18.778   2.585
29431W        W 1102  42.228  35.031   1.219
29432W        W 1103  17.637  16.339  14.527
29433W        W 1104  38.804  43.249  13.578
29434W        W 1105  44.592   3.413   1.314
29435W        W 1106   1.209  41.914  12.465
29436W        W 1107  18.261   5.362  14.410
29437W        W 1108  28.905  39.960   1.615
29438W        W 1109  21.961  15.321  11.501
29439W        W 1110  28.772  13.604  11.253
29440W        W 1111   9.645  19.100  10.631
29441W        W 1112  11.180  21.882   1.250
29442W        W 1113  42.703  33.204  14.108
29443W        W 1114   3.114  43.836   4.290
29444W        W 1115  37.459  11.093   0.803
29445W        W 1116  22.146  27.722  10.784
29446W        W 1117  12.551  16.646   2.188
29447W        W 1118  37.296  26.485   0.371
29448W        W 1119   3.921  11.143  13.860
29449W        W 1120  27.887  10.118   3.756
29450W        W 1121  29.439  20.397   4.034
29451W        W 1122   4.228   8.197  11.010
29452W        W 1123  17.518  10.200  14.037
29453W        W 1124  14.876  14.177   1.391
29454W        W 1125  34.011  21.030  11.624
29455W        W 1126  43.284  23.518  13.914
29456W        W 1127   9.639  28.996   2.659
29457W        W 1128  30.997  22.769  12.846
29458W        W 1129  29.614  42.230   2.169
29459W        W 1130  12.115  26.052   0.891
29460W        W 1131  17.653  20.645  12.872
29461W        W 1132  36.041  12.321   2.066
29462W        W 1133  30.239  20.734   4.267
29463W        W 1134   8.879  41.420   3.359
29464W        W 1135  33.280  19.210   1.756
29465W        W 1136  23.987  14.211  14.320
29466W        W 1137  44.308  24.482  12.972
29467W        W 1138  25.356  17.592   2.593
29468W        W 1139  44.963  34.773   2.758
29469W        W 1140   8.675  12.262  10.899
29470W        W 1141  18.479  30.422   0.444
29471W        W 1142  11.992  31.937   0.322
29472W        W 1143  24.109   4.309   3.863
29473W        W 1144  15.535  13.168  12.749
29474W        W 1145  25.282  41.400   4.883
29475W        W 1146  38.104   4.719  14.894
29476W        W 1147  14.648   5.845   2.661
29477W        W 1148  33.896  42.752   3.795
29478W        W 1149  41.825  29.569   3.117
29479W        W 1150  41.322  34.443   2.204
29480W        W 1151  25.759   4.256   0.099
29481W        W 1152   4.485  10.826  10.698
29482W        W 1153  13.139  36.081   4.644
29483W        W 1154  37.128   3.517  14.482
29484W        W 1155  28.092  26.564   4.501
29485W        W 1156   0.166  22.586   0.872
29486W        W 1157  23.187  32.337   2.734
29487W        W 1158  32.169  30.952   5.042
29488W        W 1159   9.445  33.138  12.488
29489W        W 1160  31.749  16.777   3.572
29490W        W 1161   4.755  28.630  14.805
29491W        W 1162  36.022  25.098   2.327
29492W        W 1163  42.044  30.433  14.047
29493W        W 1164   0.782  18.362  12.414
29494W        W 1165  31.722  32.988  13.406
29495W        W 1166  22.981  41.522   0.654
29496W        W 1167  14.320   1.924  13.416
29497W        W 1168  16.659  12.104  14.883
29498W        W 1169   9.437  20.194   4.125
29499W        W 1170   9.675  41.981  12.097
29500W        W 1171  16.258  38.960   2.906
29501W        W 1172  28.648   7.810   3.976
29502W        W 1173  17.256  31.876   3.644
29503W        W 1174   4.926  36.661  12.555
29504W        W 1175   2.510  37.886   4.431
29505W        W 1176   1.711   4.574   2.814
29506W        W 1177  20.703   0.912   1.487
29507W        W 1178  20.759  19.824   3.904
29508W        W 1179  21.496  26.176  11.094
29509W        W 1180  40.350  35.402   0.726
29510W        W 1181  16.481  13.606  12.477
29511W        W 1182  36.870  32.206   0.492
29512W        W 1183  34.665   5.483  12.155
29513W        W 1184  41.438  24.482   0.455
29514W        W 1185   0.424  23.601  12.856
29515W        W 1186  39.359  28.098  13.282
29516W        W 1187  44.841  12.602  11.657
29517W        W 1188  38.821   4.262   1.241
29518W        W 1189  15.539  42.279   2.239
29519W        W 1190  19.370  17.305  14.793
29520W        W 1191   0.482  25.531   3.637
29521W        W 1192  22.489   7.703  14.481
29522W        W 1193  10.188  10.791  10.558
29523W        W 1194  23.813  32.078   1.774
29524W        W 1195  18.120   0.531  12.946
29525W        W 1196  32.845  41.715  13.501
29526W        W 1197  37.499  14.045  13.046
29527W        W 1198  18.700   5.794   3.596
29528W        W 1199  34.005  18.129   3.765
29529W        W 1200  18.499  28.711  14.833
29530W        W 1201  33.356  28.088   0.873
29531W        W 1202  18.174  32.654   4.608
29532W        W 1203  19.257  29.370  11.198
29533W        W 1204  33.804   5.075   4.994
29534W        W 1205   7.606  31.198  14.607
29535W        W 1206  14.311  36.938  11.444
29536W        W 1207  13.210  42.845  13.176
29537W        W 1208  32.881   4.232  11.164
29538W        W 1209  40.440  10.002  10.643
29539W        W 1210  34.821   6.714   2.728
29540W        W 1211   6.500  30.673   4.158
29541W        W 1212   7.244  12.852   4.138
29542W        W 1213  24.335  40.584   3.150
29543W        W 1214  28.873  26.562   2.358
29544W        W 1215  27.514  43.548  11.351
29545W        W 1216  18.535  41.925  14.500
29546W        W 1217  34.136  44.408  14.385
29547W        W 1218   2.912   5.556   0.464
29548W        W 1219  30.394  24.741  12.943
29549W        W 1220  35.016  40.030  11.499
29550W        W 1221  29.206  32.367   1.161
29551W        W 1222   9.919  42.734   3.949
29552W        W 1223  18.184  33.879  13.541
29553W        W 1224  41.780   8.642  12.069
29554W        W 1225   1.276  31.946  14.062
29555W        W 1226  33.869  34.398  13.280
29556W        W 1227  38.116  26.776  10.309
29557W        W 1228  14.634   2.925   0.130
29558W        W 1229   1.926  10.026   3.849
29559W        W 1230  34.888  25.940   1.278
29560W        W 1231  38.009  35.603  13.137
29561W        W 1232  36.803  42.484  14.363
29562W        W 1233  15.239  19.080  12.048
29563W        W 1234  41.021  39.290   4.953
29564W        W 1235  36.942  44.373  14.510
29565W        W 1236  21.008  11.955  14.897
29566W        W 1237  22.283  15.230   1.356
29567W        W 1238  33.153   5.621   2.713
29568W        W 1239  43.828  40.136   4.602
29569W        W 1240  10.651  29.602  12.524
29570W        W 1241   4.442  38.893  12.069
29571W        W 1242  10.222   6.903   1.172
29572W        W 1243  26.692  38.895   4.300
29573W        W 1244  38.436   5.142  10.802
29574W        W 1245  38.591  15.685   4.546
29575W        W 1246  32.649  44.712  11.033
29576W        W 1247  27.214  26.534  13.617
29577W        W 1248  16.265  30.182  12.552
29578W        W 1249  24.542  33.388   1.550
29579W        W 1250  16.511  35.483   1.995
29580W        W 1251   1.442  39.439   0.886
29581W        W 1252  25.063  19.712   1.357
29582W        W 1253   5.787  12.875   0.290
29583W        W 1254  14.228  24.430   4.001
29584W        W 1255  29.267  15.547   0.754
29585W        W 1256  25.576   4.699  10.464
29586W        W 1257  10.044  43.870  14.473
29587W        W 1258  12.173  14.814  13.461
29588W        W 1259  30.022  35.951   3.331
29589W        W 1260  28.537  14.765  12.157
29590W        W 1261  32.611   1.908  11.135
29591W        W 1262   1.286   7.159  13.470
29592W        W 1263  35.565  44.843   4.629
29593W        W 1264  26.561  41.371  12.980
29594W        W 1265  32.064  25.880  14.760
29595W        W 1266   6.364  19.576  12.074
29596W        W 1267  19.473  40.620  14.383
29597W        W 1268  44.159  43.574  12.037
29598W        W 1269   7.376  36.775   2.870
29599W        W 1270  44.799  32.589  13.829
29600W        W 1271  20.161  36.412   4.871
29601W        W 1272   0.013  19.065  12.011
29602W        W 1273   9.716  44.202   3.145
29603W        W 1274  42.014  20.367   3.352
29604W        W 1275   9.471  24.386  11.982
29605W        W 1276  44.842  43.533   2.670
29606W        W 1277  39.427  15.607   3.729
29607W        W 1278  13.128  39.299   3.220
29608W        W 1279  23.264  32.834   2.735
29609W        W 1280  11.589   2.877   4.090
29610W        W 1281  27.591  32.646  13.887
29611W        W 1282  18.330   6.597  10.266
29612W        W 1283  28.888  30.187   3.086
29613W        W 1284  10.220  26.671   1.393
29614W        W 1285  40.410   0.327   4.084
29615W        W 1286  29.607  35.897  11.937
29616W        W 1287  22.315  41.822  11.504
29617W        W 1288  17.166  16.642  12.545
29618W        W 1289   5.628   6.225   3.738
29619W        W 1290  39.924  34.101   0.755
29620W        W 1291  32.382  28.263   4.206
29621W        W 1292  16.793  44.938  12.595
29622W        W 1293  12.364  33.537   3.630
29623W        W 1294  21.979  17.266  13.532
29624W        W 1295  13.988  19.841   2.899
29625W        W 1296  32.420  37.338   0.827
29626W        W 1297  42.505  28.279  11.942
29627W        W 1298   7.692  40.059  13.533
29628W        W 1299   5.448  38.566  10.813
29629W        W 1300  26.720  26.038   0.185
29630W        W 1301  22.077  20.058   4.219
29631W        W 1302  33.410   4.281  12.672
29632W        W 1303  15.838   0.004   2.868
29633W        W 1304  41.051  40.068  14.064
29634W        W 1305  28.613  11.687  12.340
29635W        W 1306  16.033  19.224   0.306
29636W        W 1307  19.198  18.105  13.547
29637W        W 1308  42.465  31.307   1.781
29638W        W 1309  28.249  27.129   0.777
29639W        W 1310  18.038  18.359  13.911
29640W        W 1311   0.290  12.774  10.817
29641W        W 1312  32.885  33.966   0.853
29642W        W 1313  37.422  24.209  14.903
29643W        W 1314  23.081  33.021   1.187
29644W        W 1315   0.840  11.327   5.178
29645W        W 1316  27.638  22.420   2.152
29646W        W 1317  24.769  34.690   4.098
29647W        W 1318  33.550  18.889   0.727
29648W        W 1319  35.477  33.145   0.988
29649W        W 1320  12.753   4.334   1.465
29650W        W 1321  38.012  43.039   2.689
29651W        W 1322  37.261  44.366  11.609
29652W        W 1323  36.052  27.379   2.723
29653W        W 1324  40.102  42.018  14.352
29654W        W 1325   7.093  27.001   4.828
29655W        W 1326  28.012  13.114  10.135
29656W        W 1327  28.592  24.696   3.708
29657W        W 1328  23.464  14.157  14.399
29658W        W 1329   1.870  20.658  10.877
29659W        W 1330  12.336  38.029   3.587
29660W        W 1331  18.196  32.104   0.824
29661W        W 1332   6.458  26.200   2.147
29662W        W 1333   1.683  38.775   3.292
29663W        W 1334  34.395  17.088  10.440
29664W        W 1335  22.183  16.251  14.948
29665W        W 1336  27.388  14.076  12.194
29666W        W 1337  28.491  13.932   3.676
29667W        W 1338  33.962   9.469   3.135
29668W        W 1339  33.945   4.265   0.855
29669W        W 1340  32.055   2.368  11.885
29670W        W 1341  22.098   0.356   0.879
29671W        W 1342  36.790   3.937   0.963
29672W        W 1343   5.806  11.301   0.778
29673W        W 1344   2.533  16.042   2.602
29674W        W 1345  25.550  38.387   2.623
29675W        W 1346   4.860   3.253  14.714
29676W        W 1347  39.890  35.313   1.375
29677W        W 1348  22.341  15.573  14.366
29678W        W 1349  12.154   0.470   0.921
29679W        W 1350  38.897  37.877  12.752
29680W        W 1351  44.834  44.197  12.089
29681W        W 1352  41.318  19.750  11.080
29682W        W 1353  12.414  19.688  11.698
29683W        W 1354   4.656  36.898   4.472
29684W        W 1355   1.796  43.518   4.213
29685W        W 1356   1.684  12.808   4.138
29686W        W 1357  24.567  30.061   4.712
29687W        W 1358   9.385  20.205   2.873
29688W        W 1359   7.215  35.644  10.620
29689W        W 1360  22.290  22.732  13.010
29690W        W 1361  30.151   7.296  11.242
29691W        W 1362  15.156  42.450  13.881
29692W        W 1363   3.718  12.211   4.593
29693W        W 1364  21.920  23.032  12.843
29694W        W 1365  28.463   6.704   5.491
29695W        W 1366   2.305  25.174  12.954
29696W        W 1367  42.749  25.974   3.771
29697W        W 1368  42.322  18.090   3.216
29698W        W 1369   4.124   1.367   2.862
29699W        W 1370   0.147   1.576   4.460
29700W        W 1371  44.218  21.573  13.879
29701W        W 1372   1.449  25.938  14.451
29702W        W 1373   8.660  30.393  10.714
29703W        W 1374   3.702  26.655  13.804
29704W        W 1375  34.612  12.764   4.539
29705W        W 1376  25.058   0.233  12.019
29706W        W 1377   3.736   7.489   3.752
29707W        W 1378  26.123  30.122  13.479
29708W        W 1379  24.433   9.938  14.342
29709W        W 1380  19.105  30.224   2.726
29710W        W 1381  20.675  11.148  14.876
29711W        W 1382  36.673  43.247   2.247
29712W        W 1383  16.729  24.721   4.162
29713W        W 1384  39.508   3.505  12.292
29714W        W 1385  17.605  27.739  14.337
29715W        W 1386  30.488  23.503  14.470
29716W        W 1387  40.859  16.007  12.440
29717W        W 1388  35.909  16.471  11.960
29718W        W 1389  44.801   3.393  10.379
29719W        W 1390   0.301   5.269  10.773
29720W        W 1391  39.864  23.538   0.124
29721W        W 1392   5.328  12.285  11.999
29722W        W 1393  16.706  30.712   3.255
29723W        W 1394   5.355  35.412   1.949
29724W        W 1395   9.011  40.292  11.370
29725W        W 1396  40.503   4.202   1.773
29726W        W 1397  35.881  10.655   3.748
29727W        W 1398  22.004  43.186  10.585
29728W        W 1399  43.757  19.502   4.216
29729W        W 1400  43.089  33.825   1.135
29730W        W 1401   3.884  35.426   3.733
29731W        W 1402  12.586  26.641   1.353
29732W        W 1403   3.262  32.613  13.009
29733W        W 1404   8.300  14.746  10.609
29734W        W 1405  13.760  22.231   1.803
29735W        W 1406  35.007  39.056  11.516
29736W        W 1407   0.111  43.322   3.204
29737W        W 1408   0.811  26.752   3.977
29738W        W 1409  20.316  10.132   3.223
29739W        W 1410  44.637  21.801   3.569
29740W        W 1411  11.189  22.750  10.731
29741W        W 1412   6.696   9.750  14.031
29742W        W 1413  33.029   4.632   2.737
29743W        W 1414  37.907  24.427  10.756
29744W        W 1415   5.793  16.129  13.007
29745W        W 1416  31.892  19.469  12.897
29746W        W 1417  42.282  35.467  14.551
29747W        W 1418   1.026  25.692   4.478
29748W        W 1419   2.196  21.099  12.168
29749W        W 1420   3.806  26.573   4.315
29750W        W 1421  39.529   9.678   3.704
29751W        W 1422   4.278   1.238  11.467
29752W        W 1423  40.992  40.921  14.556
29753W        W 1424  31.516   3.008   2.321
29754W        W 1425  24.774   6.680   1.933
29755W        W 1426   4.456  22.642   4.978
29756W        W 1427  31.568  41.613  12.914
29757W        W 1428  23.350   1.940  14.564
29758W        W 1429  36.713  41.462   4.334
29759W        W 1430  10.835  19.671   4.125
29760W        W 1431   1.654  10.769   1.239
29761W        W 1432  23.612  13.248  10.631
29762W        W 1433  35.000  44.232   3.782
29763W        W 1434  36.253  12.802   1.923
29764W        W 1435  14.642   2.466   4.428
29765W        W 1436  39.304   1.900  11.630
29766W        W 1437   9.330  18.988   3.696
29767W        W 1438  37.053   8.948   3.626
29768W        W 1439  28.702  41.204  11.238
29769W        W 1440   1.934  21.084  12.985
29770W        W 1441  10.111  39.504   4.206
29771W        W 1442  27.765  12.236  14.490
29772W        W 1443  17.175  17.074  14.384
29773W        W 1444  33.605  34.435   1.151
29774W        W 1445  17.728  31.765  10.975
29775W        W 1446  14.540  17.150  13.974
29776W        W 1447  33.627  30.653  14.879
29777W        W 1448  23.588  28.653  11.970
29778W        W 1449  33.989  41.915   4.410
29779W        W 1450  20.644  40.672  13.362
29780W        W 1451  44.889  10.707   2.965
29781W        W 1452  38.820  42.538  14.512
29782W        W 1453   8.684  19.563   2.266
29783W        W 1454  33.077   0.426  12.505
29784W        W 1455  36.808  30.933   1.709
29785W        W 1456   1.946  40.475  14.047
29786W        W 1457  27.537  43.320  12.188
29787W        W 1458   0.920  32.459   3.414
29788W        W 1459  40.037  33.586  11.191
29789W        W 1460  28.499  23.936  12.066
29790W        W 1461  10.475  30.196  14.386
29791W        W 1462   7.398  19.179   2.400
29792W        W 1463  24.219   5.204  12.062
29793W        W 1464  13.265   5.664  14.950
29794W        W 1465   4.963   8.194   2.655
29795W        W 1466  40.446   9.296  11.441
29796W        W 1467  29.698  10.327   4.166
29797W        W 1468  19.942  40.687  10.967
29798W        W 1469  19.314  10.261   4.236
29799W        W 1470  29.980   8.754  11.671
29800W        W 1471   7.124   4.845   4.681
29801W        W 1472  16.253  26.106   2.185
29802W        W 1473  37.241  24.345  13.505
29803W        W 1474  32.405  22.526  10.244
29804W        W 1475  13.893  30.982   0.478
29805W        W 1476   7.340  19.726   3.503
29806W        W 1477  32.933   5.587  10.650
29807W        W 1478   6.227  40.567   4.098
29808W        W 1479   9.708  28.397  12.330
29809W        W 1480  31.613   8.575   1.242
29810W        W 1481  10.175  39.772   0.279
29811W        W 1482  43.382  19.446   0.294
29812W        W 1483  13.261  31.610  11.016
29813W        W 1484  17.636  11.093   4.441
29814W        W 1485  39.314  17.624   4.822
29815W        W 1486  22.306  44.592  10.215
29816W        W 1487  33.613  28.223   4.504
29817W        W 1488  17.814  13.581   2.237
29818W        W 1489  39.575  34.661   1.768
29819W        W 1490  29.000  40.536  12.627
29820W        W 1491  44.039   4.922   4.193
29821W        W 1492  43.414  18.637   1.694
29822W        W 1493  15.776  15.330   3.125
29823W        W 1494  30.836  16.277   0.429
29824W        W 1495  44.167  25.655  14.369
29825W        W 1496  18.181  13.509  11.075
29826W        W 1497   0.940  20.338  12.552
29827W        W 1498  44.506  41.992  13.799
29828W        W 1499  39.119  39.312   1.401
29829W        W 1500  31.843  27.305  11.718
29830W        W 1501  30.697  12.257  13.537
29831W        W 1502  37.415  37.831  13.845
29832W        W 1503  18.125  18.607   1.009
29833W        W 1504  44.994  36.613  13.334
29834W        W 1505   6.830  28.655   1.530
29835W        W 1506   4.821  11.810  10.696
29836W        W 1507  43.695  14.220   4.920
29837W        W 1508   6.677  41.717  10.911
29838W        W 1509  16.199  15.849   1.475
29839W        W 1510   7.723  29.866  11.631
29840W        W 1511  26.054  32.089  13.219
29841W        W 1512   7.244  43.106   5.063
29842W        W 1513  36.323  27.287  10.799
29843W        W 1514   8.904  14.735  14.439
29844W        W 1515  13.368  41.020   2.724
29845W        W 1516  27.096  27.059  12.853
29846W        W 1517  35.304  11.847   4.474
29847W        W 1518  33.660  14.209   2.818
29848W        W 1519  11.591  43.412  13.413
29849W        W 1520  24.994  17.224   4.612
29850W        W 1521  23.549  25.940   4.236
29851W        W 1522  16.671  30.397   1.648
29852W        W 1523  41.103  21.434   1.948
29853W        W 1524  22.528  31.148  10.675
29854W        W 1525  16.168  39.817  11.455
29855W        W 1526   0.300   4.499  12.409
29856W        W 1527  30.686   6.334   5.115
29857W        W 1528   0.880   1.859  12.100
29858W        W 1529  40.198  44.463   3.223
29859W        W 1530  20.280  16.285  10.936
29860W        W 1531  35.513  39.471   4.111
29861W        W 1532  34.017  24.998   2.044
29862W        W 1533  11.630   3.781   0.772
29863W        W 1534  39.940  23.851  14.385
29864W        W 1535  26.662  20.369   2.874
29865W        W 1536   1.381  13.410  12.088
29866W        W 1537  15.307  16.230  13.529
29867W        W 1538   6.092  19.112  11.684
29868W        W 1539  13.795  18.219  14.272
29869W        W 1540  34.120  36.299   1.809
29870W        W 1541  30.643  10.858   0.815
29871W        W 1542  16.817  12.102   1.821
29872W        W 1543   5.286  37.314   2.287
29873W        W 1544   1.945  37.439  12.028
29874W        W 1545   4.902  16.319   3.256
29875W        W 1546  24.143   2.240   4.572
29876W        W 1547  29.103   3.342   0.826
29877W        W 1548  10.901  43.897   3.825
29878W        W 1549  28.012  41.842   2.540
29879W        W 1550  16.146   3.864   1.418
29880W        W 1551  17.839  22.256  13.828
29881W        W 1552  13.357  19.086  10.778
29882W        W 1553  29.837  22.131  12.861
29883W        W 1554  14.393   9.279   1.447
29884W        W 1555  30.514  25.042   4.945
29885W        W 1556  34.345  21.732   2.789
29886W        W 1557  18.494  25.617   0.302
29887W        W 1558  31.982  15.236  12.613
29888W        W 1559  11.196   8.978   3.098
29889W        W 1560  44.897   1.911  12.516
29890W        W 1561   9.780  34.943   0.532
29891W        W 1562  11.709  19.540  13.022
29892W        W 1563  12.773  22.537   4.561
29893W        W 1564  28.867  33.481   1.251
29894W        W 1565  36.515  37.297   3.282
29895W        W 1566   3.524  14.201   4.050
29896W        W 1567  41.466  30.862   4.828
29897W        W 1568  23.920  39.480  10.514
29898W        W 1569  36.020  18.383  13.026
29899W        W 1570  20.533  26.076  12.573
29900W        W 1571  19.218  29.979   1.454
29901W        W 1572  18.761  36.623   1.654
29902W        W 1573  23.245  41.968   0.748
29903W        W 1574  12.606  22.279  14.516
29904W        W 1575  41.963  10.634  12.055
29905W        W 1576  27.259   6.226  10.680
29906W        W 1577  13.378  40.040  14.871
29907W        W 1578  32.467  27.232   0.444
29908W        W 1579   3.911  15.774  11.163
29909W        W 1580  38.224  35.450  14.016
29910W        W 1581  36.289  14.149  10.751
29911W        W 1582  10.011  25.235   1.566
29912W        W 1583  33.457   1.484  14.918
29913W        W 1584  33.981  10.307  11.581
29914W        W 1585  14.694  15.973   2.261
29915W        W 1586  24.637  37.633  13.655
29916W        W 1587  41.419  27.037   3.444
29917W        W 1588  20.432  39.844   1.978
29918W        W 1589  19.252   9.471   3.359
29919W        W 1590  21.106  39.583  13.029
29920W        W 1591   2.472  18.599   0.896
29921W        W 1592  40.567  10.447  14.296
29922W        W 1593   0.903  24.645  13.432
29923W        W 1594   9.580  13.203   0.194
29924W        W 1595  44.677  30.074   3.593
29925W        W 1596  30.139  29.181  11.386
29926W        W 1597  17.970  29.861  12.921
29927W        W 1598  22.667  18.651   2.252
29928W        W 1599  36.832  23.183  11.863
29929W        W 1600   5.291  35.180  10.608
29930W        W 1601  16.140  15.362   1.338
29931W        W 1602  14.889  11.757   0.274
29932W        W 1603  43.501  26.488   0.876
29933W        W 1604  34.383  16.887   1.815
29934W        W 1605   4.366  21.102   0.446
29935W        W 1606   5.419  29.838  13.433
29936W        W 1607  44.847  35.845   1.258
29937W        W 1608  11.521   2.292  11.075
29938W        W 1609   1.516   6.677  13.438
29939W        W 1610  14.205  20.316   2.938
29940W        W 1611  39.572  37.830   1.979
29941W        W 1612  15.434  34.280   0.417
29942W        W 1613   5.955   1.690  12.844
29943W        W 1614  26.252  41.435  14.225
29944W        W 1615   1.454  12.080  14.794
29945W        W 1616  24.456  26.840  12.370
29946W        W 1617  40.546  10.149   0.717
29947W        W 1618   8.966  18.164   4.244
29948W        W 1619   5.231  17.260   1.407
29949W        W 1620  41.228  14.609   1.830
29950W        W 1621  34.921  23.544   0.855
29951W        W 1622   8.920  23.028   4.588
29952W        W 1623  37.441   8.384  14.643
29953W        W 1624  19.549  26.497  10.552
29954W        W 1625  18.601  22.091   0.773
29955W        W 1626   3.313   7.480   0.693
29956W        W 1627  20.132  40.614  12.007
29957W        W 1628  14.654  34.324   2.314
29958W        W 1629  25.295  20.276  14.734
29959W        W 1630  38.987  36.349   3.801
29960W        W 1631  12.855  12.391   4.429
29961W        W 1632  36.963  19.612   4.978
29962W        W 1633  38.177  26.451  13.213
29963W        W 1634   8.731  43.459   2.036
29964W        W 1635   1.500  31.622  13.699
29965W        W 1636  17.636   4.878  12.405
29966W        W 1637  43.773   4.451   4.192
29967W        W 1638  10.249  16.361   4.045
29968W        W 1639   9.252   1.050   1.332
29969W        W 1640  23.055  24.568  14.186
29970W        W 1641   7.982   5.716   3.625
29971W        W 1642  18.658  20.149   4.362
29972W        W 1643   5.829  26.234   4.566
29973W        W 1644  10.238  13.342  14.414
29974W        W 1645   0.816  28.299   2.269
29975W        W 1646  34.034  34.452  10.805
29976W        W 1647  19.251  27.717  11.540
29977W        W 1648  22.672  19.165   2.243
29978W        W 1649   7.817  19.466  14.916
29979W        W 1650  41.356  28.608  13.879
29980W        W 1651  31.065  44.922  11.677
29981W        W 1652   7.346  19.455  11.221
29982W        W 1653  26.731  16.787  14.576
29983W        W 1654  44.054   0.980   3.637
29984W        W 1655   0.230  12.233  12.561
29985W        W 1656   2.847  18.179  13.575
29986W        W 1657  41.725  31.678   0.902
29987W        W 1658  39.473   1.434  13.864
29988W        W 1659   0.415  44.591   3.764
29989W        W 1660   6.434   9.207  13.782
29990W        W 1661  32.055   1.467   2.923
29991W        W 1662   8.430  34.094  13.852
29992W        W 1663  31.293  37.934  12.050
29993W        W 1664  39.504   3.878  14.573
29994W        W 1665  20.491  26.098  14.429
29995W        W 1666  10.428  22.318   1.648
29996W        W 1667  24.447  32.980  11.117
29997W        W 1668   8.868  22.939   2.284
29998W        W 1669  36.764  14.309  14.905
29999W        W 1670  17.137   4.775   1.253
30000W        W 1671  16.411   7.429   3.791
30001W        W 1672  11.092  43.781   1.628
30002W        W 1673  34.211   7.672  12.143
30003W        W 1674   1.841  30.807   0.240
30004W        W 1675  29.992  38.639   4.185
30005W        W 1676   7.294  21.799   2.249
30006W        W 1677  21.314  41.969  11.584
30007W        W 1678  16.605  39.165   3.266
30008W        W 1679  36.236  23.788  14.091
30009W        W 1680  15.098  30.907   3.741
30010W        W 1681  27.488  25.433  11.978
30011W        W 1682   2.457  12.765  12.537
30012W        W 1683  32.559  11.824   4.225
30013W        W 1684  20.813  33.486   2.208
30014W        W 1685   1.435  32.937  13.521
30015W        W 1686   3.913   3.980   3.816
30016W        W 1687  23.623  41.323   3.873
30017W        W 1688  18.370  28.651   0.362
30018W        W 1689  26.449   4.450   4.179
30019W        W 1690   4.665  33.412   4.109
30020W        W 1691  33.494  42.576   0.582
30021W        W 1692  26.559  43.846  14.542
30022W        W 1693  14.589  41.035   3.719
30023W        W 1694  37.478  10.574   4.239
30024W        W 1695  39.370  25.525  11.604
30025W        W 1696   9.400  18.098  13.673
30026W        W 1697  29.565   5.194   0.272
30027W        W 1698  33.456   1.312  10.510
30028W        W 1699   0.893  13.201  10.448
30029W        W 1700  32.260  12.337  12.141
30030W        W 1701  34.860  11.311   2.681
30031W        W 1702  41.250   7.665  12.857
30032W        W 1703  14.096  41.788  10.639
30033W        W 1704  43.925   7.296  11.365
30034W        W 1705   6.222  27.023   1.341
30035W        W 1706  11.585   9.320   3.221
30036W        W 1707   8.190   2.554   2.192
30037W        W 1708  21.168  32.455   1.719
30038W        W 1709  40.847   1.684   4.147
30039W        W 1710  20.642   0.296   3.975
30040W        W 1711  40.362   1.807  11.622
30041W        W 1712  36.026   9.470  11.621
30042W        W 1713   2.176  33.185  12.421
30043W        W 1714  44.874   5.042   0.306
30044W        W 1715   5.661  37.787  10.441
30045W        W 1716  43.279   1.073  14.461
30046W        W 1717  41.188  38.874  13.030
30047W        W 1718  21.616  43.941  13.936
30048W        W 1719   1.141  10.400  12.832
30049W        W 1720  19.356   2.358   3.821
30050W        W 1721  15.763  35.783  14.240
30051W        W 1722  26.507   5.748  12.966
30052W        W 1723  18.535  35.428  12.455
30053W        W 1724  10.846  34.675   1.987
30054W        W 1725  25.195  18.004  11.012
30055W        W 1726  44.698  44.356   2.378
30056W        W 1727  27.058  10.263   1.470
30057W        W 1728  15.219  20.675   2.259
30058W        W 1729   3.835  39.339   2.591
30059W        W 1730  23.596   3.516  11.022
30060W        W 1731  14.344  40.541   0.488
30061W        W 1732  23.967   2.332   1.925
30062W        W 1733   1.761   3.829   3.321
30063W        W 1734  25.717  44.265  14.906
30064W        W 1735  31.200  32.033   1.685
30065W        W 1736   6.586  13.196  14.388
30066W        W 1737   3.398  30.171   3.596
30067W        W 1738  26.258  36.060  14.766
30068W        W 1739  16.127  41.995   3.692
30069W        W 1740  27.695  33.912   0.299
30070W        W 1741  13.676   5.450   2.547
30071W        W 1742  36.423  41.548  10.411
30072W        W 1743   8.146  15.031  12.308
30073W        W 1744  37.470  19.444   3.745
30074W        W 1745  32.482  18.612   4.766
30075W        W 1746  44.485  36.882  11.869
30076W        W 1747   2.230  11.304   1.815
30077W        W 1748  39.664  41.764   3.369
30078W        W 1749  20.265   6.670   2.271
30079W        W 1750  40.047  39.994   4.578
30080W        W 1751   1.563  23.110   2.345
30081W        W 1752  20.962  39.875  12.463
30082W        W 1753  25.145  34.453  12.437
30083W        W 1754  33.601  12.943  13.522
30084W        W 1755  41.274  32.490   2.282
30085W        W 1756   8.880   5.262  13.055
30086W        W 1757  18.032   6.767  12.888
30087W        W 1758  21.510  22.695  14.245
30088W        W 1759   9.733  39.000  10.726
30089W        W 1760  31.209  39.857  13.716
30090W        W 1761  11.568  13.489  12.828
30091W        W 1762  21.728  31.432   3.427
30092W        W 1763   2.920  21.608  14.994
30093W        W 1764  24.988  17.586   1.648
30094W        W 1765  21.062  25.101   1.382
30095W        W 1766  36.768  18.285  11.084
30096W        W 1767  15.404  13.181   1.623
30097W        W 1768  18.257  37.180   3.624
30098W        W 1769   2.066  40.892   2.354
30099W        W 1770  26.234  18.672   0.672
30100W        W 1771  38.780  44.699   4.035
30101W        W 1772   5.413  21.088  10.176
30102W        W 1773  42.925  42.973   5.186
30103W        W 1774  39.603  30.533  14.832
30104W        W 1775  14.163  26.755   0.198
30105W        W 1776   1.813  13.106  12.809
30106W        W 1777  16.863  40.637   0.378
30107W        W 1778   4.413  36.117  11.319
30108W        W 1779   2.921  23.970  11.475
30109W        W 1780  28.722  40.738  12.083
30110W        W 1781  24.216  22.565  14.810
30111W        W 1782   4.286  31.602   0.931
30112W        W 1783  21.850  41.117  11.594
30113W        W 1784  28.147   0.495   3.376
30114W        W 1785  12.721  17.780  13.751
30115W        W 1786  20.730   2.382   3.716
30116W        W 1787  14.198  16.231  14.729
30117W        W 1788  43.167  44.526   4.630
30118W        W 1789  28.980  27.876  10.740
30119W        W 1790   1.789  17.714   1.452
30120W        W 1791  37.322  26.082   2.711
30121W        W 1792  34.533  35.308  13.565
30122W        W 1793  35.493  26.294   3.711
30123W        W 1794   9.885  35.039   2.375
30124W        W 1795  18.326  44.494  10.651
30125W        W 1796  43.161  10.647   4.241
30126W        W 1797  21.559   5.734   1.183
30127W        W 1798  37.416   6.056  13.384
30128W        W 1799  33.956  10.229   4.235
30129W        W 1800  30.460   7.768   4.886
30130W        W 1801  36.291  43.289   1.836
30131W        W 1802  20.419  40.880   0.461
30132W        W 1803  23.553  34.864  14.868
30133W        W 1804  42.976  16.210  12.936
30134W        W 1805   3.799  33.615   3.514
30135W        W 1806  12.199  14.645   3.936
30136W        W 1807   4.690   8.400   3.500
30137W        W 1808  23.587  14.481   0.379
30138W        W 1809  32.057  44.527  12.998
30139W        W 1810  44.355   1.804   4.375
30140W        W 1811  37.190  12.567   3.187
30141W        W 1812  42.016  27.471  11.187
30142W        W 1813  29.959  28.696  11.268
30143W        W 1814   0.179  31.327  13.832
30144W        W 1815  24.586  10.225   3.768
30145W        W 1816  16.342   4.688   2.003
30146W        W 1817  41.990  25.035  11.097
30147W        W 1818  27.561  40.700  10.687
30148W        W 1819  43.393  44.136   1.376
30149W        W 1820   2.328   6.500   4.517
30150W        W 1821  10.753  41.625   4.386
30151W        W 1822  36.955  29.903  11.571
30152W        W 1823  22.979  12.763   1.730
30153W        W 1824  35.475  20.565   0.950
30154W        W 1825  22.530  18.975  14.976
30155W        W 1826  35.958  27.944  14.875
30156W        W 1827  18.030  25.295  14.901
30157W        W 1828  26.542  13.233   3.875
30158W        W 1829   3.357  27.773   0.973
30159W        W 1830  20.782  23.600  14.781
30160W        W 1831  36.018  10.718  14.764
30161W        W 1832  27.418  43.886   4.039
30162W        W 1833  36.483  43.800  12.108
30163W        W 1834   9.259   6.707   0.016
30164W        W 1835  29.668  39.889  13.032
30165W        W 1836  25.651  30.934  10.553
30166W        W 1837   2.258  30.493  14.037
30167W        W 1838  20.151   5.916  13.134
30168W        W 1839  32.879   1.377  11.194
30169W        W 1840  24.521  23.602   1.498
30170W        W 1841   8.374  38.780   2.732
30171W        W 1842  22.805  22.940   0.674
30172W        W 1843  11.121  34.876   2.738
30173W        W 1844  38.534  30.500   0.837
30174W        W 1845  15.140  31.069  14.498
30175W        W 1846   1.542  16.818  12.095
30176W        W 1847  21.521  27.559   2.454
30177W        W 1848  19.101   9.767   2.420
30178W        W 1849  23.040  26.329   4.852
30179W        W 1850  24.141  11.518   2.292
30180W        W 1851  12.109   1.222   0.793
30181W        W 1852  18.103  41.456   0.236
30182W        W 1853  31.022  18.831  14.334
30183W        W 1854  31.719  16.984  11.499
30184W        W 1855  15.281  14.328   0.404
30185W        W 1856  39.519  26.492   2.278
30186W        W 1857   1.968  17.149   4.546
30187W        W 1858   9.617  24.000  11.602
30188W        W 1859   6.416   6.157   3.315
30189W        W 1860  44.847  18.117   4.992
30190W        W 1861  11.372  25.439   5.041
30191W        W 1862  13.080  29.164  12.829
30192W        W 1863   8.182  29.628  11.617
30193W        W 1864  34.321  24.567  14.805
30194W        W 1865  15.259  30.078   1.820
30195W        W 1866  22.121  33.979   1.236
30196W        W 1867  11.378  11.074  10.684
30197W        W 1868   1.338  18.159   2.516
30198W        W 1869  32.099  44.781   3.428
30199W        W 1870  44.338  20.242   2.153
30200W        W 1871  39.097  39.571   3.696
30201W        W 1872  12.714  31.940   1.798
30202W        W 1873  31.249  17.664  12.911
30203W        W 1874  42.397  37.178  11.028
30204W        W 1875   5.979   2.886   4.239
30205W        W 1876  13.636  36.532   0.329
30206W        W 1877  28.031  44.295   4.110
30207W        W 1878  37.009  35.952   0.981
30208W        W 1879  10.588  15.312  12.392
30209W        W 1880  39.019  40.980   4.545
30210W        W 1881  18.098   6.260   0.263
30211W        W 1882  19.814  43.061   2.192
30212W        W 1883   5.186   8.630  14.328
30213W        W 1884  32.653  23.872  14.899
30214W        W 1885  10.848  13.625   2.054
30215W        W 1886   7.245  39.460   0.999
30216W        W 1887  36.514  14.110  11.927
30217W        W 1888  10.555  27.999   2.905
30218W        W 1889  16.649   4.401   5.090
30219W        W 1890  15.247  20.293   2.915
30220W        W 1891  27.929  44.234   2.792
30221W        W 1892  30.139  31.665  14.915
30222W        W 1893   2.974  11.431  11.559
30223W        W 1894  25.911  37.767   3.676
30224W        W 1895  36.902  37.850  11.035
30225W        W 1896   8.376  33.359  12.284
30226W        W 1897  11.471  22.924   2.389
30227W        W 1898   4.675  17.093   0.225
30228W        W 1899  33.640  39.840   0.773
30229W        W 1900  33.371   5.102  11.077
30230W        W 1901  38.940  23.123   2.886
30231W        W 1902  28.978  28.760  12.875
30232W        W 1903  11.821  28.089  12.871
30233W        W 1904  42.879   1.921   0.116
30234W        W 1905   9.132  26.072  13.307
30235W        W 1906  35.506  17.043  13.380
30236W        W 1907  13.611  33.679  12.105
30237W        W 1908  31.429   5.811  11.160
30238W        W 1909  14.032  24.526   1.064
30239W        W 1910  18.176   3.121   4.148
30240W        W 1911  14.623  41.778  10.736
30241W        W 1912  25.605  18.836  11.524
30242W        W 1913  11.848  15.320   1.029
30243W        W 1914  42.098   1.134  10.184
30244W        W 1915   8.856  34.943   0.296
30245W        W 1916  44.891  14.006  10.958
30246W        W 1917  44.388  22.063  13.876
30247W        W 1918  17.325  42.815   3.166
30248W        W 1919  44.552  43.947   0.889
30249W        W 1920  19.073   3.182   4.116
30250W        W 1921  26.084  37.544   5.016
30251W        W 1922  26.957  14.866   3.632
30252W        W 1923   7.177  18.229   0.433
30253W        W 1924  13.794   6.237  10.164
30254W        W 1925   8.071  30.530  14.197
30255W        W 1926  15.798  12.889   4.225
30256W        W 1927   5.777  18.713  13.924
30257W        W 1928  14.391   4.911   1.873
30258W        W 1929  36.365  23.513   3.677
30259W        W 1930  35.311  43.591   4.123
30260W        W 1931  12.153  19.483   0.333
30261W        W 1932  10.919  25.069   2.705
30262W        W 1933  35.786  26.853   4.099
30263W        W 1934  27.431   4.650  11.147
30264W        W 1935  36.483  22.464  10.929
30265W        W 1936  26.208  34.489   0.671
30266W        W 1937  36.229  35.038  11.983
30267W        W 1938  24.093  29.050   4.646
30268W        W 1939  38.990  39.341   0.877
30269W        W 1940   2.477   4.242  14.440
30270W        W 1941  24.894   1.804  11.580
30271W        W 1942  34.641  31.073   1.275
30272W        W 1943   3.790   0.777  14.906
30273W        W 1944   3.530  15.035  14.507
30274W        W 1945  40.039  10.355   3.301
30275W        W 1946  38.206  22.245   2.821
30276W        W 1947   1.347  34.827  10.689
30277W        W 1948  13.859   3.474  11.486
30278W        W 1949  10.159  43.120  13.479
30279W        W 1950  10.325  18.695  10.673
30280W        W 1951  16.038  15.302   3.641
30281W        W 1952   2.274  41.663   0.908
30282W        W 1953  32.332  25.172  13.876
30283W        W 1954   5.924  17.552   2.636
30284W        W 1955  10.626   8.881  12.971
30285W        W 1956  15.890  21.470  13.870
30286W        W 1957  37.556  38.044  12.830
30287W        W 1958  40.596  37.357   0.808
30288W        W 1959  10.338  28.634   0.360
30289W        W 1960  32.542   0.440   1.325
30290W        W 1961   7.965  31.084  14.968
30291W        W 1962  43.694  19.097   1.726
30292W        W 1963  34.846  41.016   3.859
30293W        W 1964  34.824  36.868   0.969
30294W        W 1965  37.100  19.211   4.134
30295W        W 1966  10.291  11.812  10.574
30296W        W 1967   5.015  43.696   2.923
30297W        W 1968  40.995   0.886   2.874
30298W        W 1969  16.216  39.896   3.124
30299W        W 1970  14.338  28.699   2.342
30300W        W 1971  14.666   1.049   0.004
30301W        W 1972   0.155  25.071   4.570
30302W        W 1973   4.791   3.160  12.369
30303W        W 1974  42.854  36.927  11.019
30304W        W 1975  35.509  29.577  14.724
30305W        W 1976  36.822   8.800  12.996
30306W        W 1977  37.418  18.989   5.001
30307W        W 1978  16.792  11.494   4.586
30308W        W 1979  30.925  35.835   0.253
30309W        W 1980  34.448   7.458  11.674
30310W        W 1981   8.659  34.511   1.656
30311W        W 1982  14.051  33.539   5.157
30312W        W 1983   3.216   8.322   3.601
30313W        W 1984  17.165   7.711   0.981
30314W        W 1985   2.301   5.396   0.877
30315W        W 1986  13.642  34.995  12.232
30316W        W 1987   4.082  27.250  14.591
30317W        W 1988  33.282  14.279  11.890
30318W        W 1989   7.816  12.251   2.700
30319W        W 1990  16.367  15.759  12.021
30320W        W 1991  37.380  25.510  12.864
30321W        W 1992  42.646  30.488  12.743
30322W        W 1993   4.840   8.995  10.707
30323W        W 1994  38.033  20.084  14.438
30324W        W 1995  25.925  19.620  10.749
30325W        W 1996  25.437   0.357  12.362
30326W        W 1997  42.295  11.562   5.493
30327W        W 1998  34.135  36.010   1.370
30328W        W 1999  10.738  17.411  13.901
30329W        W 2000  43.252  13.695   0.234
30330W        W 2001  14.238  44.820  14.409
30331W        W 2002   8.230  42.370   1.281
30332W        W 2003   7.154  16.513  11.334
30333W        W 2004  12.151  26.943   1.137
30334W        W 2005   6.269  32.553   0.809
30335W        W 2006  24.935  36.561   1.940
30336W        W 2007  24.491  36.385  12.949
30337W        W 2008  24.204  22.743   1.920
30338W        W 2009  31.382  18.446  13.812
30339W        W 2010  13.909  29.046  14.852
30340W        W 2011  44.351  40.886   4.696
30341W        W 2012  12.604   9.798   0.443
30342W        W 2013  39.896  27.087   1.494
30343W        W 2014  32.940  12.607   4.056
30344W        W 2015   0.302   8.334  14.403
30345W        W 2016   1.331  31.848   4.104
30346W        W 2017  23.017   8.945  11.995
30347W        W 2018  33.393  30.476   0.304
30348W        W 2019  38.259  13.330   0.845
30349W        W 2020  16.521  14.317   0.761
30350W        W 2021  13.921  26.695   5.135
30351W        W 2022  39.799  22.996  11.709
30352W        W 2023  18.709  40.486  14.740
30353W        W 2024   8.815  22.178  11.220
30354W        W 2025  11.621  40.305  10.203
30355W        W 2026  24.487   8.933   4.325
30356W        W 2027  32.598  29.913   4.641
30357W        W 2028  24.049  42.330   4.551
30358W        W 2029  15.906  15.666  13.898
30359W        W 2030  28.521  41.773  12.093
30360W        W 2031  13.588  40.439  10.710
30361W        W 2032  25.440  32.391   0.038
30362W        W 2033  43.659  17.103  13.918
30363W        W 2034  11.036   2.690   3.269
30364W        W 2035  32.144   4.793  14.714
30365W        W 2036  24.439  24.254   3.346
30366W        W 2037  15.689  34.544  12.611
30367W        W 2038  39.060  33.040  12.364
30368W        W 2039  32.347  11.713   4.692
30369W        W 2040  27.540  13.105  11.988
30370W        W 2041  26.792  28.051  11.249
30371W        W 2042  21.940  21.939  11.066
30372W        W 2043   2.248   5.702   3.862
30373W        W 2044  17.114  24.634   1.222
30374W        W 2045  30.072  39.452  10.416
30375W        W 2046   0.709  27.331   0.403
30376W        W 2047  40.068  13.862  12.222
30377W        W 2048  12.615  19.635  13.048
30378W        W 2049  23.278  37.037  13.922
30379W        W 2050  35.589  30.416   4.956
30380W        W 2051  11.350   6.970  11.132
30381W        W 2052  20.736  39.795   5.521
30382W        W 2053  39.042  44.797  11.062
30383W        W 2054   7.330  33.343  14.057
30384W        W 2055   4.330   8.350  12.774
30385W        W 2056  33.492   6.424   2.631
30386W        W 2057   5.707  33.485   0.791
30387W        W 2058  37.969   0.298  14.587
30388W        W 2059  19.037  40.063   2.734
30389W        W 2060  33.580  17.643  10.849
30390W        W 2061  29.675  23.812  11.905
30391W        W 2062   7.111  19.163   0.815
30392W        W 2063  19.525  13.474  12.351
30393W        W 2064  19.338  26.522  13.265
30394W        W 2065  15.181  10.110  13.868
30395W        W 2066   3.842   6.761  13.603
30396W        W 2067  10.584  17.686   2.470
30397W        W 2068  38.432   7.687  11.100
30398W        W 2069   5.418  17.142   3.254
30399W        W 2070  29.409   6.884   2.223
30400W        W 2071  43.893  35.463  11.059
30401W        W 2072   4.028  17.681   2.662
30402W        W 2073  30.931   1.904  13.788
30403W        W 2074  33.872   1.331   3.080
30404W        W 2075  28.230   3.164  14.503
30405W        W 2076   0.501   3.893   3.754
30406W        W 2077  21.490  37.808  13.964
30407W        W 2078   7.095  21.586  11.487
30408W        W 2079  33.599  19.109  12.929
30409W        W 2080  35.842  27.893   3.337
30410W        W 2081  35.565  36.331  10.249
30411W        W 2082  44.950  42.157   3.823
30412W        W 2083  21.561  33.601  14.424
30413W        W 2084   2.918  36.856  10.729
30414W        W 2085   3.133  38.004   3.270
30415W        W 2086  25.876   6.191   3.304
30416W        W 2087  36.706   1.708   5.114
30417W        W 2088   8.861  23.524   2.782
30418W        W 2089  13.039  17.005  12.380
30419W        W 2090  28.030  14.075   4.020
30420W        W 2091  27.959  33.564   4.261
30421W        W 2092  39.448  13.103  14.312
30422W        W 2093   9.205  23.239   4.187
30423W        W 2094  30.001   8.618   4.677
30424W        W 2095  26.466   8.276  12.335
30425W        W 2096  18.151  37.332  11.347
30426W        W 2097  37.289  28.376   1.913
30427W        W 2098  20.103  10.162   0.862
30428W        W 2099  40.356  41.563  10.758
30429W        W 2100  23.666  35.120  14.321
30430W        W 2101  44.710  44.254   3.216
30431W        W 2102  33.585  14.525   4.753
30432W        W 2103  22.038  12.100   2.764
30433W        W 2104  13.768   0.667   3.432
30434W        W 2105  30.673  38.288  12.471
30435W        W 2106  27.717  39.993   4.203
30436W        W 2107   2.851  34.053  14.472
30437W        W 2108  24.078   2.473   4.103
30438W        W 2109  23.639   9.393   3.149
30439W        W 2110   4.364  14.752   0.868
30440W        W 2111  25.182   0.013   2.805
30441W        W 2112  40.439   6.315   0.962
30442W        W 2113  39.014   2.370   3.722
30443W        W 2114  35.441  19.679  12.115
30444W        W 2115  28.335  41.084   3.782
30445W        W 2116  24.469  28.551  11.123
30446W        W 2117  41.486  31.377   4.845
30447W        W 2118  22.692  11.862   1.389
30448W        W 2119  41.236  31.999   2.838
30449W        W 2120  18.820  40.424  13.297
30450W        W 2121  32.096  35.047   1.229
30451W        W 2122   4.136  13.536   4.045
30452W        W 2123  23.697  34.611  14.425
30453W        W 2124   2.242  35.177  14.793
30454W        W 2125   1.488  32.201  10.985
30455W        W 2126  18.587  12.687   0.475
30456W        W 2127  33.421  17.775  14.883
30457W        W 2128  20.253  26.949   0.327
30458W        W 2129  24.717   5.987  13.471
30459W        W 2130  17.548  22.639   1.732
30460W        W 2131  38.454  26.886  13.068
30461W        W 2132   7.596  24.756  11.631
30462W        W 2133  36.989  27.769   1.342
30463W        W 2134  12.099  39.814  11.302
30464W        W 2135  12.371   6.368   2.815
30465W        W 2136  19.701  41.545   1.850
30466W        W 2137  29.710  23.132   0.645
30467W        W 2138  31.168  21.206   2.878
30468W        W 2139  23.005  39.803   0.873
30469W        W 2140   0.863   9.721   4.045
30470W        W 2141  35.498   2.934  13.589
30471W        W 2142  21.777  34.186   1.993
30472W        W 2143  43.379  13.592   3.117
30473W        W 2144  30.128  29.228  11.911
30474W        W 2145  31.557  20.150  11.939
30475W        W 2146  12.286  36.859  11.657
30476W        W 2147  14.109  17.114   5.006
30477W        W 2148  37.584  41.277   4.321
30478W        W 2149  36.066  44.284  12.562
30479W        W 2150  32.692  12.199   1.870
30480W        W 2151  36.939  42.211   4.080
30481W        W 2152  34.003  28.816   3.460
30482W        W 2153   3.075  26.856  11.015
30483W        W 2154  34.735   0.851   1.947
30484W        W 2155  19.309  13.415   1.316
30485W        W 2156  42.280  41.990   1.374
30486W        W 2157  32.183   0.180   4.406
30487W        W 2158  17.058  22.586  11.390
30488W        W 2159  42.059  38.751  11.453
30489W        W 2160  16.487  38.569   2.573
30490W        W 2161   4.943  21.103   0.362
30491W        W 2162  20.478  15.044   0.321
30492W        W 2163  32.697  35.115   3.242
30493W        W 2164  42.026  28.084   2.214
30494W        W 2165  42.452  33.977   3.403
30495W        W 2166   7.279  28.255   3.216
30496W        W 2167   4.187  40.340   2.204
30497W        W 2168  15.681   1.893   4.233
30498W        W 2169  43.511   4.241  13.989
30499W        W 2170  43.315  41.902   4.303
30500W        W 2171  22.165  11.155  11.986
30501W        W 2172   0.246  25.564  12.215
30502W        W 2173  25.639  15.752  11.886
30503W        W 2174  21.120  37.829  12.447
30504W        W 2175  40.415  29.916   0.732
30505W        W 2176  31.020  39.068  14.048
30506W        W 2177   3.392  23.041   1.156
30507W        W 2178   5.620  11.705  13.895
30508W        W 2179  11.870   6.930  11.756
30509W        W 2180  10.187  40.436   1.962
30510W        W 2181  15.235  19.312   3.154
30511W        W 2182  12.359  44.016  10.800
30512W        W 2183   5.483   0.401  12.533
30513W        W 2184  28.222  21.783   3.123
30514W        W 2185   5.814  29.004   3.199
30515W        W 2186   0.896   5.926   4.095
30516W        W 2187  13.305  42.532   0.718
30517W        W 2188  34.388  37.362   2.732
30518W        W 2189   5.415  38.331  14.483
30519W        W 2190  12.559   6.001   3.155
30520W        W 2191  44.387  17.715  10.717
30521W        W 2192  19.262  25.214  14.814
30522W        W 2193  33.969  38.043   4.202
30523W        W 2194  32.768  19.297   1.566
30524W        W 2195  13.547  24.486   4.776
30525W        W 2196  32.900  22.023   0.924
30526W        W 2197  18.493  41.357   4.278
30527W        W 2198  16.242  40.781  14.993
30528W        W 2199  36.877   7.563   4.489
30529W        W 2200  23.277  33.898  14.758
30530W        W 2201  34.882  20.065  14.083
30531W        W 2202  41.469  38.553  10.619
30532W        W 2203  43.532  10.402   3.119
30533W        W 2204   7.847  23.719  10.828
30534W        W 2205  25.824  16.990  14.059
30535W        W 2206  23.867   0.695   2.775
30536W        W 2207  41.831  42.015   4.484
30537W        W 2208   1.253  25.656  12.094
30538W        W 2209  15.667  35.639   3.302
30539W        W 2210  43.484  37.236  10.032
30540W        W 2211  14.810  13.384  14.418
30541W        W 2212  14.532  31.634  12.517
30542W        W 2213  10.187   0.732   2.426
30543W        W 2214  35.977  13.108   3.616
30544W        W 2215  31.844  12.607   0.673
30545W        W 2216  10.576   6.847  11.943
30546W        W 2217  23.715  34.410   1.917
30547W        W 2218  14.572   1.506  13.534
30548W        W 2219  14.841  18.568   0.811
30549W        W 2220   8.140  34.526   2.236
30550W        W 2221  29.745  16.313  13.931
30551W        W 2222  10.688  34.546   2.793
30552W        W 2223  41.478  33.849   4.197
30553W        W 2224  38.560  38.985  14.387
30554W        W 2225  10.948   9.873   2.791
30555W        W 2226   6.720   8.478  12.018
30556W        W 2227  42.016  17.222  12.859
30557W        W 2228   4.481  43.716  12.884
30558W        W 2229   8.076  39.441  11.539
30559W        W 2230  15.242  37.907   2.701
30560W        W 2231  14.604  25.280   4.213
30561W        W 2232   3.717  31.905  13.541
30562W        W 2233  34.366  34.992   1.693
30563W        W 2234  37.467  41.959   0.343
30564W        W 2235  15.309  36.875  12.923
30565W        W 2236   4.411  43.744   2.854
30566W        W 2237   4.286  25.151  14.444
30567W        W 2238  44.800  42.998  12.047
30568W        W 2239  19.563  32.306   3.201
30569W        W 2240  41.567  11.744   3.772
30570W        W 2241  38.991  32.226  11.865
30571W        W 2242  19.584   6.294  11.067
30572W        W 2243  34.466  15.407   2.805
30573W        W 2244  17.202   3.816   0.959
30574W        W 2245  16.254  41.496  12.139
30575W        W 2246  39.916  18.278  11.504
30576W        W 2247   0.339  20.543   3.265
30577W        W 2248   5.499  30.031  13.947
30578W        W 2249  39.369   6.208  12.248
30579W        W 2250  32.465  43.949   0.891
30580W        W 2251  14.312  23.552  12.855
30581W        W 2252  27.462   4.702   3.185
30582W        W 2253  18.035  33.507   3.325
30583W        W 2254  26.413  44.498  13.425
30584W        W 2255  38.892  13.739   4.675
30585W        W 2256  29.141  14.607   1.047
30586W        W 2257   2.404  31.950   2.336
30587W        W 2258  33.257  21.458   3.684
30588W        W 2259   5.664  19.469  14.888
30589W        W 2260  26.414  34.253   2.948
30590W        W 2261   4.715  24.663   4.664
30591W        W 2262  12.831   4.824   4.543
30592W        W 2263  40.124   3.953  12.441
30593W        W 2264  20.870   1.015   4.943
30594W        W 2265   2.736  10.700   3.395
30595W        W 2266   6.031  43.336  11.655
30596W        W 2267   3.219  32.095   1.945
30597W        W 2268  20.695  14.300   3.265
30598W        W 2269  20.098  23.121   9.469
30599W        W 2270  33.176  19.467   2.833
30600W        W 2271  33.351  23.082  12.426
30601W        W 2272  10.115  12.870   0.328
30602W        W 2273  31.911   0.956  12.331
30603W        W 2274  21.046   9.845   3.818
30604W        W 2275  17.403  42.851   5.005
30605W        W 2276  42.771  13.793  11.493
30606W        W 2277  41.864  41.257  13.405
30607W        W 2278  28.663  21.167  14.949
30608W        W 2279  43.429   9.633  13.540
30609W        W 2280  21.819  21.806  14.117
30610W        W 2281  41.474   1.802  10.674
30611W        W 2282  12.784  24.361  11.231
30612W        W 2283   7.816  42.377  12.572
30613W        W 2284   7.493   4.228  12.365
30614W        W 2285  23.177   2.175  11.935
30615W        W 2286   4.483  25.212  12.700
30616W        W 2287  28.411   6.374  12.009
30617W        W 2288   7.121  23.094   4.127
30618W        W 2289  14.603  17.550   0.429
30619W        W 2290  26.020  44.291  10.894
30620W        W 2291  20.686  16.250   3.393
30621W        W 2292   0.943  27.026  10.118
30622W        W 2293  10.244  24.949  13.973
30623W        W 2294  35.685  16.669  12.454
30624W        W 2295   9.410  12.692  12.914
30625W        W 2296  42.486  12.971  11.040
30626W        W 2297  31.964  21.775  10.613
30627W        W 2298   6.991  36.003  11.384
30628W        W 2299   7.620  14.105  11.931
30629W        W 2300  41.274   3.131   3.160
30630W        W 2301  11.549   4.662   0.009
30631W        W 2302   2.682  26.580   3.677
30632W        W 2303  29.112  41.983   4.568
30633W        W 2304  15.940  10.132   5.138
30634W        W 2305   5.730   4.605  13.558
30635W        W 2306   7.837  24.367   3.731
30636W        W 2307   2.204   8.862   0.714
30637W        W 2308   7.735  36.474   3.639
30638W        W 2309  33.939  12.916   0.991
30639W        W 2310  10.959  10.623  12.851
30640W        W 2311  42.753   3.209   2.750
30641W        W 2312  29.976  29.974  14.503
30642W        W 2313  32.655  39.432  12.442
30643W        W 2314  28.052  19.622   2.655
30644W        W 2315  20.091  32.510  10.703
30645W        W 2316  40.112  33.492   3.108
30646W        W 2317  20.246  30.594   3.665
30647W        W 2318  17.458  29.477  14.934
30648W        W 2319  26.367  22.801   3.300
30649W        W 2320  18.033   9.340  11.885
30650W        W 2321  41.929  22.230  11.506
30651W        W 2322   0.731  43.757  11.304
30652W        W 2323  12.739  22.421   3.691
30653W        W 2324  37.287   4.338   1.270
30654W        W 2325  29.243   5.305   2.146
30655W        W 2326  32.961   3.941   0.583
30656W        W 2327   7.035  27.122   1.765
30657W        W 2328   4.116   4.809   1.830
30658W        W 2329  14.448  25.375  14.534
30659W        W 2330  42.981  44.748  11.089
30660W        W 2331  33.037  37.445   2.263
30661W        W 2332  32.821  10.194   2.291
30662W        W 2333  41.001  43.764  14.350
30663W        W 2334  43.811  12.718  12.598
30664W        W 2335  38.462  16.961  14.344
30665W        W 2336   0.743  13.698  10.487
30666W        W 2337   1.828  12.426  14.602
30667W        W 2338  21.704  28.437   2.067
30668W        W 2339   5.829  18.979  13.083
30669W        W 2340   7.255  27.425  13.954
30670W        W 2341  28.167   0.211   1.842
30671W        W 2342  16.081  24.113   4.575
30672W        W 2343  15.022  23.997  10.755
30673W        W 2344  20.524  15.672   1.318
30674W        W 2345  44.259  12.742  13.852
30675W        W 2346  23.057   2.819  13.088
30676W        W 2347  20.083  19.463  13.400
30677W        W 2348  40.947  24.585   2.700
30678W        W 2349  18.272  39.415  12.830
30679W        W 2350   3.623  33.406  13.542
30680W        W 2351  27.679   6.349  12.911
30681W        W 2352  44.205  20.218  11.659
30682W        W 2353  13.686  43.974   3.131
30683W        W 2354  34.838  25.955   0.747
30684W        W 2355  42.453  13.126  14.255
30685W        W 2356  28.138  24.576   3.467
30686W        W 2357   1.497  31.697  11.066
30687W        W 2358  20.803  30.878  13.947
30688W        W 2359  17.079  24.674  14.836
30689W        W 2360  10.703  36.470   2.633
30690W        W 2361  33.573  22.797  11.559
30691W        W 2362  34.204  30.549  14.222
30692W        W 2363  28.726  15.819   1.419
30693W        W 2364  12.924   0.102   4.043
30694W        W 2365  34.590  29.113  13.880
30695W        W 2366   0.727  15.098   2.901
30696W        W 2367  24.091  40.492   5.465
30697W        W 2368  25.186   8.088   3.616
30698W        W 2369  19.568  34.036  11.277
30699W        W 2370  33.894   2.297   3.288
30700W        W 2371  41.322  39.719  11.039
30701W        W 2372  12.078   8.242   1.305
30702W        W 2373  21.391   9.911   0.769
30703W        W 2374   0.296   8.726   4.135
30704W        W 2375  18.301  38.814   0.312
30705W        W 2376  44.464  39.537   5.211
30706W        W 2377  41.379  10.795  10.726
30707W        W 2378   4.986  33.131  12.315
30708W        W 2379  20.904  18.242   3.884
30709W        W 2380  40.262  14.605  11.694
30710W        W 2381   3.440  36.887   2.324
30711W        W 2382   1.403  33.915  13.680
30712W        W 2383  22.958   1.571   3.158
30713W        W 2384  18.225  36.785   3.251
30714W        W 2385  18.567  40.421  12.384
30715W        W 2386  25.325  19.532  12.053
30716W        W 2387   7.979  13.190  12.301
30717W        W 2388  11.871  29.594  11.658
30718W        W 2389   0.031  24.426  10.676
30719W        W 2390   6.269  36.947  14.010
30720W        W 2391  24.776  24.178   0.900
30721W        W 2392   9.638  31.687   3.117
30722W        W 2393  35.313   3.434   3.674
30723W        W 2394   9.224  12.640  11.586
30724W        W 2395  26.209  40.871   2.935
30725W        W 2396  21.795   6.289   4.360
30726W        W 2397   5.349  14.277   2.595
30727W        W 2398  20.988  33.163  12.649
30728W        W 2399  16.903  41.434   1.827
30729W        W 2400  42.611   3.423   1.465
30730W        W 2401   7.815  34.738  14.413
30731W        W 2402  27.503  28.363   1.885
30732W        W 2403  19.153  40.542   1.660
30733W        W 2404  18.705  35.408   3.324
30734W        W 2405  42.425  25.873   0.685
30735W        W 2406  27.459  22.049  12.595
30736W        W 2407  43.738  22.957  11.174
30737W        W 2408  25.087  24.588  12.577
30738W        W 2409  19.724   0.416   2.429
30739W        W 2410  16.125  23.695   1.598
30740W        W 2411  21.050  18.815   4.650
30741W        W 2412  12.173  40.413   4.489
30742W        W 2413  22.290  36.759   2.168
30743W        W 2414   8.406  36.562   1.483
30744W        W 2415   5.391  25.914   3.806
30745W        W 2416  44.558  39.094  11.517
30746W        W 2417  41.477   6.846   4.081
30747W        W 2418  14.409   5.597  14.498
30748W        W 2419  36.244  26.013  13.407
30749W        W 2420  11.747  42.939   1.927
30750W        W 2421  33.420  29.373  11.217
30751W        W 2422  28.702  14.850   0.507
30752W        W 2423   2.030  44.671  10.152
30753W        W 2424  31.736  40.368  13.410
30754W        W 2425  10.255  44.190   0.914
30755W        W 2426  34.930  37.829   1.798
30756W        W 2427  11.445  28.243   1.736
30757W        W 2428  13.202  15.134  13.611
30758W        W 2429   2.853   2.236  14.012
30759W        W 2430   2.717  25.670   2.249
30760W        W 2431  21.428  42.601   5.146
30761W        W 2432   6.073  30.626  14.270
30762W        W 2433   0.083  32.153  13.625
30763W        W 2434  42.310  43.762   4.187
30764W        W 2435  20.166  25.953   5.496
30765W        W 2436  23.685  14.983   0.469
30766W        W 2437  29.202  20.036   0.390
30767W        W 2438  12.292  18.089   1.377
30768W        W 2439  10.782  29.347   0.232
30769W        W 2440  22.134  24.216   1.385
30770W        W 2441   4.462  26.637  12.048
30771W        W 2442  14.815  26.520   9.960
30772W        W 2443  29.415  34.509  10.729
30773W        W 2444  41.060  41.013   1.784
30774W        W 2445  33.948  28.702   2.927
30775W        W 2446  41.664   4.111  13.266
30776W        W 2447  28.550   3.167  13.631
30777W        W 2448   8.744  14.274   1.098
30778W        W 2449  27.994  27.542  10.508
30779W        W 2450  32.828  39.918   4.655
30780W        W 2451   3.490   8.799  13.964
30781W        W 2452  17.818  30.450   2.471
30782W        W 2453  23.958   4.271  12.857
30783W        W 2454   4.752  26.701   5.189
30784W        W 2455  11.876   9.929   1.194
30785W        W 2456   9.269  35.393  14.288
30786W        W 2457   0.535  39.047  13.355
30787W        W 2458   2.480  10.261   3.398
30788W        W 2459  12.793   1.218  12.793
30789W        W 2460  26.129  12.124  13.157
30790W        W 2461   1.796  10.759  13.459
30791W        W 2462  30.196  39.957   0.832
30792W        W 2463  37.563  20.115   1.384
30793W        W 2464  19.611  16.674  11.397
30794W        W 2465   2.244  18.117   0.931
30795W        W 2466   4.505  42.879  14.894
30796W        W 2467  11.197  15.231  13.376
30797W        W 2468  14.217   3.948  12.385
30798W        W 2469  35.349  13.196   2.718
30799W        W 2470  36.543  37.807  11.561
30800W        W 2471  13.917  39.488   4.603
30801W        W 2472  20.021  10.200   3.672
30802W        W 2473  41.218  40.532  10.678
30803W        W 2474  21.135  17.181  13.946
30804W        W 2475   4.795  43.430  10.545
30805W        W 2476  27.555  29.305  14.698
30806W        W 2477  24.223  39.186  12.910
30807W        W 2478   4.359  16.740   1.520
30808W        W 2479  32.038   0.236  11.492
30809W        W 2480  10.532   3.493   4.914
30810W        W 2481   7.716   5.736   2.302
30811W        W 2482  41.342  27.979  12.481
30812W        W 2483  42.602  24.957  14.220
30813W        W 2484  32.909  17.302  12.023
30814W        W 2485  18.679  22.112  13.532
30815W        W 2486   4.983  44.259   3.261
30816W        W 2487  39.912  44.920   4.171
30817W        W 2488  24.849  29.675   0.088
30818W        W 2489  27.584  11.444   1.068
30819W        W 2490   4.516  14.191  14.217
30820W        W 2491  33.787  32.590   1.388
30821W        W 2492  13.324  29.345  13.640
30822W        W 2493   1.229  37.249  12.436
30823W        W 2494  44.369  13.023   3.111
30824W        W 2495  40.018  25.956   0.951
30825W        W 2496  16.652  13.144   3.750
30826W        W 2497  17.006  38.013   2.085
30827W        W 2498   5.352   5.337   1.890
30828W        W 2499  28.495   9.572   0.477
30829W        W 2500  30.998  41.995   1.674
30830W        W 2501  22.672  34.096  11.889
30831W        W 2502  30.797   6.346  10.829
30832W        W 2503  11.909  28.448   0.664
30833W        W 2504  10.283  26.672  14.994
30834W        W 2505   6.382  30.222   2.171
30835W        W 2506  15.104  34.577   2.224
30836W        W 2507  39.801  17.756  11.760
30837W        W 2508  31.425  43.300  11.897
30838W        W 2509   9.731  10.265   4.433
30839W        W 2510  35.340   4.354   1.519
30840W        W 2511  36.028  40.573   3.793
30841W        W 2512  20.696  29.567  11.756
30842W        W 2513  23.464  16.714   4.694
30843W        W 2514  27.133  13.372   2.251
30844W        W 2515  10.764  40.130   0.875
30845W        W 2516  38.341  37.441  10.585
30846W        W 2517  35.111  19.043  11.071
30847W        W 2518  34.206   9.440   1.683
30848W        W 2519   7.448  18.296  11.571
30849W        W 2520  11.771  13.167   4.651
30850W        W 2521  42.806  17.569   4.145
30851W        W 2522  25.327  25.018   4.780
30852W        W 2523  22.564  10.331  10.966
30853W        W 2524  21.564  35.498   3.645
30854W        W 2525   6.421  18.142   1.418
30855W        W 2526  40.366  32.566  12.757
30856W        W 2527  32.120  41.945   4.067
30857W        W 2528  14.737   1.707  14.444
30858W        W 2529  16.324  40.856  13.918
30859W        W 2530  17.452  22.225   3.435
30860W        W 2531  36.079  36.850  11.188
30861W        W 2532  27.117  29.649   3.734
30862W        W 2533  24.331  35.151  11.336
30863W        W 2534  36.595  40.582  13.454
30864W        W 2535  38.366   7.837  14.509
30865W        W 2536  24.695  12.983   0.880
30866W        W 2537   8.900  39.402   4.524
30867W        W 2538  19.741  14.601  14.938
30868W        W 2539  11.816  30.121   0.151
30869W        W 2540  41.273  18.834  10.859
30870W        W 2541  38.063  16.579   3.177
30871W        W 2542  26.183  33.910  11.439
30872W        W 2543  28.605  34.414  13.542
30873W        W 2544  35.621  42.546   4.101
30874W        W 2545   5.982  16.617   1.375
30875W        W 2546  39.861   3.852   2.492
30876W        W 2547   4.360  35.463   1.523
30877W        W 2548   2.539  13.106  14.554
30878W        W 2549  18.001  11.600  14.990
30879W        W 2550  39.573  26.816  11.483
30880W        W 2551  28.488   3.741  10.631
30881W        W 2552   5.183  35.014   1.348
30882W        W 2553  21.169   0.175   1.813
30883W        W 2554  40.778  40.495   4.742
30884W        W 2555  34.262  29.508   4.595
30885W        W 2556  44.886   0.768   4.721
30886W        W 2557   5.272  38.569   3.303
30887W        W 2558  22.636   8.682  14.323
30888W        W 2559  33.976  18.073   0.003
30889W        W 2560  25.526  10.613   4.661
30890W        W 2561  32.369   2.999   4.788
30891W        W 2562  42.266   2.749  12.552
30892W        W 2563  25.929  14.690  13.841
30893W        W 2564  35.447  42.806  11.922
30894W        W 2565  37.186  33.519   2.719
30895W        W 2566  31.031  36.773  13.378
30896W        W 2567  15.562   7.433   4.149
30897W        W 2568  24.422  28.022   0.344
30898W        W 2569  32.921  23.112   4.349
30899W        W 2570  18.356  37.597   2.741
30900W        W 2571  26.832  25.046   2.925
30901W        W 2572  35.525  41.581  12.909
30902W        W 2573  18.346  10.280   2.424
30903W        W 2574  37.945  44.783   0.317
30904W        W 2575  27.716   8.279   3.879
30905W        W 2576  24.575  11.253  13.508
30906W        W 2577   4.125  16.006   3.243
30907W        W 2578  20.003  41.458  11.148
30908W        W 2579  33.469   3.480  14.798
30909W        W 2580  40.906  38.435   3.331
30910W        W 2581  27.893   2.589  13.108
30911W        W 2582  37.475   1.101   3.081
30912W        W 2583  17.845  40.926   2.548
30913W        W 2584  26.126  24.533  13.264
30914W        W 2585  14.374  27.564   0.998
30915W        W 2586   7.032  30.520  10.755
30916W        W 2587  12.733  39.052   3.432
30917W        W 2588  35.165   1.041  10.536
30918W        W 2589  32.617  33.489   2.705
30919W        W 2590  11.453  14.562  11.931
30920W        W 2591  14.251  44.457   0.473
30921W        W 2592  16.860  44.570   3.332
30922W        W 2593  11.653   1.235  14.102
30923W        W 2594   8.457  11.663   2.772
30924W        W 2595  12.644  11.190  13.381
30925W        W 2596   9.014   6.763  13.744
30926W        W 2597  25.142   5.905  11.980
30927W        W 2598  40.919  43.894  11.896
30928W        W 2599  43.802  28.948  12.019
30929W        W 2600  35.777  13.720  11.616
30930W        W 2601  33.921  29.067  12.008
30931W        W 2602   5.646  42.777  13.784
30932W        W 2603  34.651  10.156  14.770
30933W        W 2604  31.151   5.301   0.398
30934W        W 2605  19.035   9.340  12.951
30935W        W 2606  11.611  23.528  13.942
30936W        W 2607  22.517  36.974  11.228
30937W        W 2608  28.171  10.744  12.886
30938W        W 2609   8.265  26.134  13.940
30939W        W 2610  31.629  40.393  11.633
30940W        W 2611   5.354  43.020   2.227
30941W        W 2612  12.868  16.369   2.927
30942W        W 2613  31.636  11.757  12.336
30943W        W 2614  10.307  10.736   0.919
30944W        W 2615  32.793   6.768  10.403
30945W        W 2616  44.247  13.781  12.161
30946W        W 2617  30.536  31.902  11.128
30947W        W 2618   9.768   8.938   1.275
30948W        W 2619   5.346  27.587  14.980
30949W        W 2620  37.533  41.425  12.265
30950W        W 2621  16.156  11.334  13.004
30951W        W 2622  38.939  32.498   0.463
30952W        W 2623  10.016  35.031  13.599
30953W        W 2624  20.646   6.303   2.403
30954W        W 2625   1.307  36.507   0.316
30955W        W 2626  40.997  15.949   0.697
30956W        W 2627  19.043  31.134   4.859
30957W        W 2628  22.580   8.717   3.692
30958W        W 2629  37.908   9.087  13.515
30959W        W 2630   2.626  33.837  11.962
30960W        W 2631  19.566  36.972   2.299
30961W        W 2632  27.459  35.294  10.740
30962W        W 2633  28.892  20.166   4.618
30963W        W 2634  41.839  41.091   4.473
30964W        W 2635  30.196  34.104  10.619
30965W        W 2636  22.912  30.595  11.465
30966W        W 2637  30.963  14.609   3.706
30967W        W 2638  11.672  12.493  14.987
30968W        W 2639   3.441  25.258  12.469
30969W        W 2640  23.645  16.265  12.087
30970W        W 2641  41.138  38.219   0.546
30971W        W 2642  43.698  33.242  11.670
30972W        W 2643  43.179   7.652  11.839
30973W        W 2644  15.840  42.949   4.616
30974W        W 2645  22.983  43.435  12.627
30975W        W 2646   9.672   1.435   4.631
30976W        W 2647  13.316   1.844   1.944
30977W        W 2648   6.779   6.317   2.377
30978W        W 2649   1.389  11.676   2.670
30979W        W 2650  15.108  25.063   3.158
30980W        W 2651  31.908  31.445  11.522
30981W        W 2652  23.661  35.911  11.912
30982W        W 2653  22.931  28.127  14.313
30983W        W 2654  44.047  28.789   0.761
30984W        W 2655   5.116   1.827   4.656
30985W        W 2656   2.685  40.485  11.444
30986W        W 2657  23.103  23.030  12.970
30987W        W 2658  44.943  13.768  13.416
30988W        W 2659   3.752  42.035   4.115
30989W        W 2660  40.416  27.467  13.174
30990W        W 2661   6.971  16.288   4.645
30991W        W 2662  22.612   7.443   1.822
30992W        W 2663  18.089  25.523  12.009
30993W        W 2664  30.415  21.984  11.034
30994W        W 2665  35.136  38.899   1.880
30995W        W 2666   5.710   4.867  14.039
30996W        W 2667  39.110  15.811   0.719
30997W        W 2668  30.149   4.982   1.792
30998W        W 2669  13.775  15.324   0.351
30999W        W 2670  10.413  44.768   4.654
31000W        W 2671   7.583  20.216   3.370
31001W        W 2672  39.523  16.121   3.750
31002W        W 2673  34.216  32.014  11.066
31003W        W 2674   5.211  39.408  11.144
31004W        W 2675  31.194   0.466  11.618
31005W        W 2676  19.338  29.155   1.790
31006W        W 2677   7.053  28.568  10.740
31007W        W 2678  40.732   8.661  11.496
31008W        W 2679  38.900  29.460  10.343
31009W        W 2680  42.943  29.542  14.307
31010W        W 2681  18.018   8.245   3.718
31011W        W 2682  11.384  19.320  13.375
31012W        W 2683  34.103  41.419   4.609
31013W        W 2684   0.000  30.569   3.055
31014W        W 2685  17.639  30.543   4.651
31015W        W 2686  17.361  38.467   3.332
31016W        W 2687  15.176  32.886  14.839
31017W        W 2688  29.903  37.847   0.995
31018W        W 2689  22.180  23.476   0.964
31019W        W 2690   0.059  18.484  12.075
31020W        W 2691  42.973  30.915  13.535
31021W        W 2692  23.541  10.485  12.920
31022W        W 2693   4.011  36.437   2.790
31023W        W 2694  43.034   8.709   0.238
31024W        W 2695  29.021  27.533  13.472
31025W        W 2696   9.440  23.153   4.670
31026W        W 2697  14.207  30.055   1.713
31027W        W 2698   3.337  20.295   1.723
31028W        W 2699  17.491  18.978   3.175
31029W        W 2700  19.921  10.265  12.342
31030W        W 2701  42.814   9.198   3.418
31031W        W 2702  33.654  37.279   5.428
31032W        W 2703   7.637  21.519  10.608
31033W        W 2704  27.524   7.849  11.649
31034W        W 2705  35.078  16.738   4.293
31035W        W 2706   8.418  43.872   2.823
31036W        W 2707  37.464  14.539  13.262
31037W        W 2708  12.745   3.462  13.115
31038W        W 2709  27.460  36.814  11.611
31039W        W 2710  17.648  37.146  10.634
31040W        W 2711   6.934   3.567  14.808
31041W        W 2712  25.639   4.974  11.417
31042W        W 2713  38.163  30.056  11.084
31043W        W 2714  30.985   0.420   2.441
31044W        W 2715  33.459  44.343  10.306
31045W        W 2716   5.831  30.402   4.099
31046W        W 2717   9.329  26.883   2.094
31047W        W 2718  29.041  32.851  11.281
31048W        W 2719   3.644   4.416   3.770
31049W        W 2720   3.414  37.459   1.641
31050W        W 2721  18.668  31.055  13.023
31051W        W 2722  30.178   0.869  13.380
31052W        W 2723  27.207  42.919  10.812
31053W        W 2724   8.864  39.515   2.311
31054W        W 2725   5.971  31.509   0.377
31055W        W 2726  27.750  25.104  11.161
31056W        W 2727  26.199  15.629   0.436
31057W        W 2728  38.070  40.476  11.845
31058W        W 2729  38.895  33.575   1.778
31059W        W 2730  42.123  25.586   0.996
31060W        W 2731  44.607   1.240  12.878
31061W        W 2732  37.518  30.395   1.720
31062W        W 2733  17.688   7.148  14.833
31063W        W 2734  27.707  28.706   0.594
31064W        W 2735   2.786  27.498   4.451
31065W        W 2736  22.131  21.623   1.529
31066W        W 2737  43.487   8.375  12.120
31067W        W 2738  16.571  23.418   2.749
31068W        W 2739  14.330   6.276   0.716
31069W        W 2740   0.880  29.344  12.434
31070W        W 2741  27.514  34.656  12.966
31071W        W 2742  18.178  40.092   1.303
31072W        W 2743  43.206   2.785  12.345
31073W        W 2744  24.160  28.117   4.665
31074W        W 2745   5.230   6.751  11.729
31075W        W 2746   1.922  28.183  14.972
31076W        W 2747  18.124  42.265  12.065
31077W        W 2748  17.931   5.778   4.124
31078W        W 2749  37.992  35.027  10.742
31079W        W 2750  12.779  26.654   4.963
31080W        W 2751   7.731  26.537   2.341
31081W        W 2752  18.751   0.235   3.799
31082W        W 2753  13.132   3.853   4.063
31083W        W 2754  16.259  15.729   4.718
31084W        W 2755  22.114  14.244   1.026
31085W        W 2756  25.563  31.171   2.381
31086W        W 2757  37.891  16.732  13.250
31087W        W 2758  19.747  38.146  11.535
31088W        W 2759  31.917  27.473  12.675
31089W        W 2760   4.392  25.379  13.992
31090W        W 2761  32.044  29.658  10.979
31091W        W 2762  36.591  21.235   2.778
31092W        W 2763   6.253   8.626  11.879
31093W        W 2764  21.108  30.272  12.948
31094W        W 2765  11.600   1.944  14.989
31095W        W 2766  39.964  15.519  14.020
31096W        W 2767   3.015  18.076  12.003
31097W        W 2768   2.706   5.429  12.596
31098W        W 2769   4.675  31.950  10.785
31099W        W 2770  32.696  11.714   0.760
31100W        W 2771  21.574  13.225   4.898
31101W        W 2772  22.256  38.620   5.010
31102W        W 2773  44.928  37.096   4.759
31103W        W 2774  39.029  34.529   4.493
31104W        W 2775  39.841  20.199  11.695
31105W        W 2776  37.367  13.551  12.839
31106W        W 2777  17.322   5.312   0.321
31107W        W 2778  39.803   6.208   0.803
31108W        W 2779  27.742  42.531  14.054
31109W        W 2780  19.303  23.386  12.015
31110W        W 2781  30.876  21.619  14.911
31111W        W 2782  35.997   7.716   1.200
31112W        W 2783  12.249  10.217  13.015
31113W        W 2784  30.161  30.100  10.792
31114W        W 2785  35.805   8.706   4.613
31115W        W 2786  13.568  27.472   3.637
31116W        W 2787  11.362  23.511   2.787
31117W        W 2788  12.895   7.478   4.666
31118W        W 2789   4.806  29.467   3.630
31119W        W 2790  44.180  27.556  10.221
31120W        W 2791   7.194  21.359   5.006
31121W        W 2792  23.992  30.928   3.242
31122W        W 2793  43.876   6.950  10.578
31123W        W 2794  33.578  43.934  14.783
31124W        W 2795  38.244  19.417  13.988
31125W        W 2796  24.485  24.056  11.897
31126W        W 2797  11.542  15.117   1.392
31127W        W 2798  20.158  34.882   0.252
31128W        W 2799   9.232  33.695  14.761
31129W        W 2800   5.740  29.873  12.684
31130W        W 2801  25.025  24.032  10.401
31131W        W 2802  30.958  39.794  11.804
31132W        W 2803  22.427  32.556   1.129
31133W        W 2804  40.489  10.699   3.228
31134W        W 2805  31.130  21.433  14.064
31135W        W 2806   2.776  40.707  13.379
31136W        W 2807   5.370  39.831   4.125
31137W        W 2808  19.087  17.200   0.234
31138W        W 2809   0.400   8.556  10.859
31139W        W 2810  37.860  14.590  14.020
31140W        W 2811  13.299  11.364  14.874
31141W        W 2812   4.439  12.282   4.166
31142W        W 2813  14.655  21.197  12.153
31143W        W 2814  16.385  15.702   3.728
31144W        W 2815  34.999  28.395   2.475
31145W        W 2816  18.628  19.206  10.623
31146W        W 2817  25.050  42.914   0.880
31147W        W 2818  38.025  12.291   4.328
31148W        W 2819  28.342   0.250  13.010
31149W        W 2820  27.508  15.415  12.502
31150W        W 2821   9.439  23.469   0.491
31151W        W 2822  10.694  39.537   3.339
31152W        W 2823  14.417  35.755   4.202
31153W        W 2824  33.991  37.855   1.683
31154W        W 2825  24.653  39.600   2.818
31155W        W 2826  41.787  32.625  13.859
31156W        W 2827  19.973  27.325   5.811
31157W        W 2828   4.141  28.155   1.289
31158W        W 2829   0.550  33.702  14.936
31159W        W 2830  42.428   6.332  13.021
31160W        W 2831  43.986   8.405  14.315
31161W        W 2832  13.538  35.957  10.973
31162W        W 2833  32.896   3.836  13.824
31163W        W 2834  39.568  18.533  14.790
31164W        W 2835  31.035   6.457  11.991
31165W        W 2836  38.983  26.581   2.250
31166W        W 2837  16.543  29.220   4.209
31167W        W 2838  36.814  15.997   2.560
31168W        W 2839  19.735   4.439   0.869
31169W        W 2840  11.292  32.115   1.138
31170W        W 2841  15.387  26.964  14.607
31171W        W 2842  16.363  41.961   0.497
31172W        W 2843  17.680   9.669  12.115
31173W        W 2844  20.528  38.446   1.376
31174W        W 2845   1.007  44.775   3.630
31175W        W 2846  44.349   1.194  13.340
31176W        W 2847  33.970  11.781   3.070
31177W        W 2848   1.816   7.915  10.950
31178W        W 2849  13.121  44.843  14.301
31179W        W 2850   4.281  24.728   0.819
31180W        W 2851  39.537  24.590   1.866
31181W        W 2852   2.845  41.295   3.648
31182W        W 2853  38.227   9.885   3.656
31183W        W 2854  17.481  23.212  12.959
31184W        W 2855   2.355  28.203  13.519
31185W        W 2856  16.828  20.312  11.090
31186W        W 2857  41.952  19.458   1.281
31187W        W 2858  31.652  13.124   0.711
31188W        W 2859  41.889  37.450  10.608
31189W        W 2860  38.057  37.405   0.447
31190W        W 2861  11.697  18.260   3.255
31191W        W 2862   7.370  27.847  14.798
31192W        W 2863  10.447  37.568  13.223
31193W        W 2864  32.816  21.800  13.451
31194W        W 2865  10.336  27.395   3.823
31195W        W 2866   2.013  11.579   0.791
31196W        W 2867  41.239  21.784  11.990
31197W        W 2868  26.992   3.847   4.232
31198W        W 2869   0.906   0.217   2.231
31199W        W 2870  44.880   3.312  11.897
31200W        W 2871  38.949  22.679  11.359
31201W        W 2872  12.438  40.428   1.347
31202W        W 2873  44.534  43.793  14.315
31203W        W 2874  15.001  42.319   2.198
31204W        W 2875  15.882   2.305  13.087
31205W        W 2876  44.299   2.526  11.141
31206W        W 2877  25.545  42.450  13.752
31207W        W 2878  25.054  15.976   4.128
31208W        W 2879  38.817  24.668   1.320
31209W        W 2880  40.912  24.054   4.558
31210W        W 2881  10.899   8.112  11.957
31211W        W 2882  24.878   9.740  11.930
31212W        W 2883  34.989  15.741   0.470
31213W        W 2884  40.715  26.543  11.955
31214W        W 2885  39.284   4.769   1.830
31215W        W 2886  38.584   9.836   2.075
31216W        W 2887  38.512  21.631  11.147
31217W        W 2888  13.209  44.315   1.376
31218W        W 2889   4.159  18.620   4.173
31219W        W 2890  11.356  42.088   1.537
31220W        W 2891   5.949  29.522  11.008
31221W        W 2892  21.562   1.830  13.726
31222W        W 2893  12.645  36.893  10.774
31223W        W 2894  43.191  10.769   1.440
31224W        W 2895  25.020  24.706   4.103
31225W        W 2896   3.170  19.686  14.057
31226W        W 2897   7.705  15.062  12.646
31227W        W 2898   4.567  10.825   2.294
31228W        W 2899  30.847  32.300  11.145
31229W        W 2900  29.156  33.566   1.696
31230W        W 2901   3.913   5.243   3.411
31231W        W 2902   8.404  12.168   4.705
31232W        W 2903  43.739  35.912   2.755
31233W        W 2904   4.745  28.967   3.153
31234W        W 2905  24.435  25.228   3.194
31235W        W 2906  16.062  40.989   3.775
31236W        W 2907  16.265  44.259   4.132
31237W        W 2908  36.313  20.452  10.777
31238W        W 2909  14.706  31.891  13.487
31239W        W 2910   1.403   6.715   3.308
31240W        W 2911  27.346  12.772  10.617
31241W        W 2912  18.238  11.908  12.172
31242W        W 2913  10.942  23.757   0.501
31243W        W 2914   4.674  20.580   0.605
31244W        W 2915  35.094  27.439   4.105
31245W        W 2916  28.670   1.750  14.752
31246W        W 2917  23.805  13.197   1.831
31247W        W 2918  24.423  39.951   4.113
31248W        W 2919  13.355  21.089   4.805
31249W        W 2920  30.850  11.124   4.127
31250W        W 2921  39.551   4.578  10.246
31251W        W 2922  12.024   0.579  13.905
31252W        W 2923  20.500  34.465  13.625
31253W        W 2924  35.430  21.664  14.313
31254W        W 2925  20.698  21.503  13.509
31255W        W 2926   8.338  39.935   1.273
31256W        W 2927  16.692  35.009   1.880
31257W        W 2928  11.053  29.007   2.236
31258W        W 2929  39.257  25.272   5.065
31259W        W 2930  22.685   3.368  13.394
31260W        W 2931  43.718  23.485  11.126
31261W        W 2932  31.063  26.378   4.175
31262W        W 2933  25.600  37.374  12.205
31263W        W 2934  11.367  17.573   4.157
31264W        W 2935  29.436  33.492   2.187
31265W        W 2936  17.388  41.310   1.891
31266W        W 2937  26.447   0.252  12.529
31267W        W 2938  39.753   2.919  10.645
31268W        W 2939  35.635  15.827  11.023
31269W        W 2940  44.088  14.641   4.229
31270W        W 2941  28.043  26.670  14.333
31271W        W 2942  44.536   3.147   3.222
31272W        W 2943  34.382  11.157  14.760
31273W        W 2944  25.612   9.218   2.797
31274W        W 2945  44.296  36.124   0.497
31275W        W 2946  32.859   5.170   1.469
31276W        W 2947  38.640  32.207  14.850
31277W        W 2948   5.364  34.337   0.952
31278W        W 2949   0.881  33.475   3.254
31279W        W 2950   7.425   8.503  14.840
31280W        W 2951  40.767  15.338  11.955
31281W        W 2952  16.089  44.375   4.618
31282W        W 2953  21.907   5.793   3.763
31283W        W 2954   3.177  32.970  11.035
31284W        W 2955  10.292  12.343   1.788
31285W        W 2956   5.355  43.384   4.657
31286W        W 2957  44.848  18.491  10.716
31287W        W 2958  44.494  10.195   4.115
31288W        W 2959  13.753  14.223   4.819
31289W        W 2960  38.383  25.724  11.179
31290W        W 2961  32.757  31.979   1.737
31291W        W 2962  32.930  11.645   4.572
31292W        W 2963   8.114  23.434   3.333
31293W        W 2964   2.009  38.106  12.564
31294W        W 2965  24.006  40.268  10.983
31295W        W 2966  31.414  44.786   0.007
31296W        W 2967  41.081  23.203   2.629
31297W        W 2968   0.317  33.772  11.504
31298W        W 2969  22.557  28.330   2.321
31299W        W 2970  16.675  12.619  12.108
31300W        W 2971  21.201  38.319  11.109
31301W        W 2972  30.368  21.104   2.324
31302W        W 2973  37.978  34.988  11.611
31303W        W 2974  37.038  39.765   1.245
31304W        W 2975  33.972  44.679  13.032
31305W        W 2976  14.811  12.434  14.065
31306W        W 2977  11.852  35.164  13.362
31307W        W 2978  36.485  21.292  14.879
31308W        W 2979  18.261   6.786   0.339
31309W        W 2980  38.107  20.666  12.358
31310W        W 2981  25.062  31.448   4.408
31311W        W 2982  20.728  19.100  14.357
31312W        W 2983   7.503  18.992   2.887
31313W        W 2984  14.611  23.056  10.655
31314W        W 2985  20.895   7.351  14.864
31315W        W 2986  17.717  25.127  11.467
31316W        W 2987   3.331  39.278   1.373
31317W        W 2988  15.485  17.443   1.669
31318W        W 2989  11.183   0.899   3.347
31319W        W 2990  39.390  35.609  13.173
31320W        W 2991   9.682  42.567   0.459
31321W        W 2992  33.229  13.808  13.083
31322W        W 2993  29.653  32.210  10.631
31323W        W 2994  11.815  13.115   3.321
31324W        W 2995  41.492  27.433  14.930
31325W        W 2996   2.851  44.240   3.610
31326W        W 2997   6.340   7.641   1.976
31327W        W 2998  26.997  19.884  11.880
31328W        W 2999   4.799  18.857  14.527
31329W        W 3000   7.959  33.441  13.588
31330W        W 3001  14.083  13.361  14.770
31331W        W 3002   5.464   4.156  13.466
31332W        W 3003  11.611  18.687  14.581
31333W        W 3004  27.439  22.722  10.564
31334W        W 3005  23.517  19.352  14.526
31335W        W 3006   5.959   0.748   3.718
31336W        W 3007  25.488  22.188  14.959
31337W        W 3008  33.428  30.396   3.437
31338W        W 3009  34.774  33.123  14.249
31339W        W 3010  18.282  13.347   2.355
31340W        W 3011   6.417  44.252   0.189
31341W        W 3012   9.494  16.061   1.135
31342W        W 3013  15.954   4.038   3.740
31343W        W 3014   9.752  26.816  14.393
31344W        W 3015   8.311  28.051   4.627
31345W        W 3016  22.592   5.190  13.321
31346W        W 3017  27.894  31.636   0.333
31347W        W 3018  32.582  36.076  14.856
31348W        W 3019  39.022  24.438   3.661
31349W        W 3020   1.356  27.149  12.896
31350W        W 3021  20.567  41.523  10.218
31351W        W 3022  10.723   7.418   2.757
31352W        W 3023  39.476  26.552  13.288
31353W        W 3024   3.624   0.978  13.874
31354W        W 3025  14.985  12.320   1.452
31355W        W 3026  39.179  33.598   2.775
31356W        W 3027  36.561  28.720  12.001
31357W        W 3028   6.342  15.197  11.642
31358W        W 3029  39.082  37.386  12.378
31359W        W 3030   0.662  41.933  12.501
31360W        W 3031  34.110  43.043  13.957
31361W        W 3032  19.524  13.187  11.410
31362W        W 3033  43.387   3.089   1.900
31363W        W 3034   7.539  32.853  14.024
31364W        W 3035  28.094  23.465   1.796
31365W        W 3036   8.580  28.881   1.271
31366W        W 3037  28.019  27.427  13.635
31367W        W 3038  10.296  14.674   0.868
31368W        W 3039   2.801  11.618   2.269
31369W        W 3040  43.243  31.538  10.520
31370W        W 3041  16.836  34.133   0.359
31371W        W 3042  34.307  30.506   3.607
31372W        W 3043  17.610  25.082  12.543
31373W        W 3044  25.275  15.616   5.070
31374W        W 3045   2.477  28.375  12.999
31375W        W 3046  16.643  24.677   1.441
31376W        W 3047  25.301  42.355  11.093
31377W        W 3048  18.102   6.277  13.657
31378W        W 3049  37.820  32.071   2.885
31379W        W 3050  22.403  18.182   2.284
31380W        W 3051  38.278  10.332  13.436
31381W        W 3052  34.412   7.289   0.083
31382W        W 3053  37.479  22.661  11.222
31383W        W 3054  26.619  28.059  12.930
31384W        W 3055  16.586   2.835  14.964
31385W        W 3056   6.831  29.532   2.821
31386W        W 3057  36.220   7.913   2.932
31387W        W 3058  37.997   7.753   1.661
31388W        W 3059   6.914  30.590  13.127
31389W        W 3060   1.974  19.296  10.648
31390W        W 3061  33.041  14.168   2.636
31391W        W 3062  24.241  37.640  14.906
31392W        W 3063  26.096  33.499   4.937
31393W        W 3064  39.340  30.975   3.845
31394W        W 3065  44.878  37.317   4.278
31395W        W 3066   1.561   5.480   2.766
31396W        W 3067  34.474  13.699  12.541
31397W        W 3068   4.956  23.577  14.089
31398W        W 3069  42.548  28.702  14.290
31399W        W 3070  42.707  38.040  13.512
31400W        W 3071  18.084   2.004  13.947
31401W        W 3072  30.047  26.500   1.696
31402W        W 3073  14.769  18.787  14.901
31403W        W 3074  27.713  11.428  10.566
31404W        W 3075  36.486  31.675   1.310
31405W        W 3076   9.335  23.072   2.162
31406W        W 3077  41.838  12.003   1.188
31407W        W 3078  28.727  44.182  12.910
31408W        W 3079   3.042  34.522   2.644
31409W        W 3080  37.090  17.723  13.349
31410W        W 3081   6.703  31.685  12.102
31411W        W 3082  14.078  33.587  11.900
31412W        W 3083  32.081  44.938  12.660
31413W        W 3084  24.042   5.211   4.564
31414W        W 3085   4.813  21.723   1.573
31415W        W 3086   0.051  13.154   1.990
31416W        W 3087  28.950  31.488  11.607
31417W        W 3088  10.387  16.562  12.824
31418W        W 3089   5.017   8.869  14.758
31419W        W 3090  29.993  25.104  11.484
31420W        W 3091  42.231  14.258   2.438
31421W        W 3092  19.567  38.060  13.840
31422W        W 3093   0.543   7.396  10.762
31423W        W 3094  29.699  34.287  14.930
31424W        W 3095  20.500  26.398  13.978
31425W        W 3096  44.314  12.167  10.288
31426W        W 3097  40.672   5.692   3.648
31427W        W 3098  37.598  40.562  12.063
31428W        W 3099  21.307  22.269  14.978
31429W        W 3100   9.164  10.702   0.486
31430W        W 3101  12.671   7.477   3.329
31431W        W 3102  24.671  12.112   3.585
31432W        W 3103  29.803  20.088   3.766
31433W        W 3104  36.598   5.824   1.300
31434W        W 3105  34.784  39.999  10.620
31435W        W 3106  11.835  36.872  13.048
31436W        W 3107  19.265  31.831  13.346
31437W        W 3108  21.154  19.477   0.741
31438W        W 3109   2.766  25.034   1.686
31439W        W 3110  41.012  37.261  14.400
31440W        W 3111  41.869   0.875   0.387
31441W        W 3112  42.792  12.677  10.201
31442W        W 3113   4.254  32.120   2.807
31443W        W 3114   7.181   3.384   4.472
31444W        W 3115   7.845   3.832   4.034
31445W        W 3116   9.851   4.230   3.239
31446W        W 3117   5.197  22.229  14.753
31447W        W 3118  27.491  26.684  12.592
31448W        W 3119  18.069  22.966  10.850
31449W        W 3120  40.489  10.356  11.500
31450W        W 3121  29.568  12.101   4.590
31451W        W 3122  23.153  34.772  13.010
31452W        W 3123  36.493  20.369   4.542
31453W        W 3124  21.657  27.545   4.828
31454W        W 3125  12.194  13.853  14.912
31455W        W 3126   1.440   4.894  10.866
31456W        W 3127  29.109  28.236  12.082
31457W        W 3128  27.748  43.750   2.801
31458W        W 3129  14.451   6.298  13.896
31459W        W 3130  15.768  37.288   3.101
31460W        W 3131  29.389   1.314   1.449
31461W        W 3132   4.324  18.450  11.494
31462W        W 3133   7.915   5.029   0.878
31463W        W 3134  32.859  12.612   4.585
31464W        W 3135   6.457  30.328  13.032
31465W        W 3136  10.295  11.610  10.038
31466W        W 3137  29.044  31.920  12.878
31467W        W 3138  28.298  41.080   4.680
31468W        W 3139   1.438   8.372  11.716
31469W        W 3140  23.663  23.757  11.048
31470W        W 3141   8.078  36.482  10.882
31471W        W 3142  42.302  27.959  11.600
31472W        W 3143  10.551  32.535  13.452
31473W        W 3144  29.986   2.423   4.793
31474W        W 3145   3.203   0.762   3.961
31475W        W 3146  25.691   5.075  11.931
31476W        W 3147   1.187   9.275  14.025
31477W        W 3148  16.073  25.223   2.706
31478W        W 3149   4.309  41.096   4.152
31479W        W 3150  39.558  43.547  11.915
31480W        W 3151   6.466  24.153   4.508
31481W        W 3152  20.058  11.895  14.942
31482W        W 3153   0.441  42.964  13.813
31483W        W 3154   3.450  20.027   1.265
31484W        W 3155  35.624  27.263  11.390
31485W        W 3156  26.069  38.895  13.831
31486W        W 3157  26.473  36.647   4.034
31487W        W 3158  15.094  32.512   1.373
31488W        W 3159   5.812  19.265   0.361
31489W        W 3160  11.070  32.062  14.592
31490W        W 3161  31.636  30.817  13.448
31491W        W 3162   4.053  43.454  14.329
31492W        W 3163  44.926  37.109   0.590
31493W        W 3164   4.399  17.686   0.164
31494W        W 3165  33.604  15.155   1.962
31495W        W 3166  28.655  38.885  10.669
31496W        W 3167  12.652  30.396  13.876
31497W        W 3168  16.647  40.503  12.836
31498W        W 3169   5.438  31.695  12.548
31499W        W 3170  37.760   0.512   3.276
31500W        W 3171  34.415   4.622  12.071
31501W        W 3172  39.994   3.652  11.648
31502W        W 3173  13.881  24.054   0.283
31503W        W 3174  12.731  37.172   4.015
31504W        W 3175  44.445   7.665   2.694
31505W        W 3176  40.894  27.110   2.756
31506W        W 3177  29.317  36.413   0.221
31507W        W 3178  28.525  26.495   2.730
31508W        W 3179   7.057   5.816  10.514
31509W        W 3180  33.928  26.579   2.135
31510W        W 3181   3.440  19.073   3.443
31511W        W 3182  23.497   1.184   1.483
31512W        W 3183  11.875  12.274   3.697
31513W        W 3184  44.319  44.280  14.195
31514W        W 3185  14.678  36.554  13.483
31515W        W 3186  41.923  26.188   4.609
31516W        W 3187  19.920  34.891   2.657
31517W        W 3188  25.455   2.411  12.020
31518W        W 3189  11.251  14.627  11.463
31519W        W 3190  11.890  43.251  13.892
31520W        W 3191  21.687  27.096   2.189
31521W        W 3192  15.294   0.719   0.794
31522W        W 3193  22.322  17.751   3.225
31523W        W 3194  31.534  42.070  10.812
31524W        W 3195  42.906  15.168   0.892
31525W        W 3196  35.154  22.290   4.178
31526W        W 3197  33.352  35.385   1.396
31527W        W 3198  11.411   5.507  14.819
31528W        W 3199   7.637   8.175   3.175
31529W        W 3200  11.746   1.050  11.572
31530W        W 3201  35.478   1.810   3.077
31531W        W 3202  12.886  10.583   0.110
31532W        W 3203  19.154  38.854   0.724
31533W        W 3204  24.815   8.879   0.795
31534W        W 3205   7.388  27.580   1.808
31535W        W 3206  29.634  23.240   3.662
31536W        W 3207  31.482   0.940   3.623
31537W        W 3208   7.335  34.573   4.878
31538W        W 3209  20.904  35.051   2.847
31539W        W 3210   4.203  42.497   2.754
31540W        W 3211  32.779  22.919  11.626
31541W        W 3212  15.243  33.346  11.589
31542W        W 3213   4.395  25.451   3.651
31543W        W 3214   5.364  26.278   3.389
31544W        W 3215   2.641  23.205   3.317
31545W        W 3216  34.718  38.696  11.888
31546W        W 3217  43.998   4.377   0.364
31547W        W 3218  25.354  37.620  13.842
31548W        W 3219  26.347   3.120  13.940
31549W        W 3220  11.430   4.706   3.293
31550W        W 3221  29.429  31.610   4.882
31551W        W 3222  28.202   5.564  11.644
31552W        W 3223  27.973  25.597  11.112
31553W        W 3224  20.781  25.962  13.972
31554W        W 3225  14.668  40.593   1.950
31555W        W 3226   3.350  11.536  13.130
31556W        W 3227  18.612  41.885   0.896
31557W        W 3228  10.553   4.301  12.514
31558W        W 3229   0.094  28.190  14.020
31559W        W 3230   1.956  35.456  14.445
31560W        W 3231  16.015   7.702   5.409
31561W        W 3232   9.883  25.845   3.753
31562W        W 3233   8.328   5.691  14.369
31563W        W 3234   1.077   3.518  11.461
31564W        W 3235  44.290  20.938   0.340
31565W        W 3236  30.374  19.131  14.466
31566W        W 3237  28.178  30.916  11.547
31567W        W 3238  42.465  33.375   2.736
31568W        W 3239  43.469  40.001  13.377
31569W        W 3240  34.499  22.209  11.873
31570W        W 3241  21.107  33.343  10.506
31571W        W 3242  11.430  43.861   3.775
31572W        W 3243  40.496  38.044  11.057
31573W        W 3244  27.231  21.192   1.917
31574W        W 3245   5.594  15.665   4.874
31575W        W 3246  14.231  28.441   4.204
31576W        W 3247  36.540  11.239   4.364
31577W        W 3248  15.904  34.641   1.809
31578W        W 3249  29.596  44.727  14.672
31579W        W 3250  10.840   2.971   1.254
31580W        W 3251  20.746   3.203  13.865
31581W        W 3252   4.032   1.739  12.130
31582W        W 3253  30.958  16.702  13.130
31583W        W 3254  35.397   5.660  14.819
31584W        W 3255  34.448  25.231   1.876
31585W        W 3256  23.938  13.543   3.257
31586W        W 3257   7.866  15.780   2.620
31587W        W 3258   1.093   6.460   0.154
31588W        W 3259  17.297  10.694   1.627
31589W        W 3260  27.861   3.807  13.301
31590W        W 3261  24.429   4.393   0.384
31591W        W 3262   7.328  17.994   0.931
31592W        W 3263  24.606   8.889  14.360
31593W        W 3264   2.005   4.091   0.764
31594W        W 3265  34.392  32.961  12.512
31595W        W 3266   8.172  19.743  11.258
31596W        W 3267   4.272  19.371  11.757
31597W        W 3268  39.583  22.086  11.492
31598W        W 3269   5.986   0.335   0.244
31599W        W 3270  22.752  14.728  10.830
31600W        W 3271  33.474  38.517  10.690
31601W        W 3272  43.989  36.307  12.873
31602W        W 3273  16.611   9.919   3.107
31603W        W 3274  19.538  24.488  11.928
31604W        W 3275  18.298  29.063   1.735
31605W        W 3276   0.783   6.934  14.449
31606W        W 3277  32.646  30.083  14.391
31607W        W 3278  17.271  36.157   0.377
31608W        W 3279  18.986  37.863  11.107
31609W        W 3280  20.605  38.676   5.427
31610W        W 3281  38.106  33.045  14.320
31611W        W 3282  20.073   1.682  13.829
31612W        W 3283  24.090  38.254  11.171
31613W        W 3284   3.256  41.325   3.330
31614W        W 3285  39.937  41.268  14.748
31615W        W 3286  21.636  38.392  12.608
31616W        W 3287  44.530  15.867   2.767
31617W        W 3288  31.188  40.352  13.027
31618W        W 3289   9.152  42.923  12.817
31619W        W 3290  33.630  12.732   4.759
31620W        W 3291   2.530  21.931   2.884
31621W        W 3292  19.658  20.739   5.251
31622W        W 3293  10.684  23.688   2.361
31623W        W 3294  11.359   8.412  14.640
31624W        W 3295  40.933  38.451  10.819
31625W        W 3296  10.229   8.246   4.564
31626W        W 3297  22.905   8.219   1.439
31627W        W 3298  36.651   0.396  12.557
31628W        W 3299  19.796  17.196  10.705
31629W        W 3300  34.471   0.254  10.712
31630W        W 3301   6.335  42.943  13.330
31631W        W 3302  19.434   4.376   4.263
31632W        W 3303  13.601   9.269   1.055
31633W        W 3304  25.465  35.923   3.655
31634W        W 3305  21.496  29.164   3.868
31635W        W 3306  24.322  25.491   4.099
31636W        W 3307  43.952  23.826   4.294
31637W        W 3308   0.968  39.049  13.610
31638W        W 3309   4.809  21.272  10.911
31639W        W 3310  18.782  43.854  13.305
31640W        W 3311  42.352  17.702   1.095
31641W        W 3312   0.746  20.561  12.115
31642W        W 3313   7.835  16.824  12.025
31643W        W 3314  38.045  32.408   0.512
31644W        W 3315  16.454  44.253  11.457
31645W        W 3316  40.801  20.748   2.704
31646W        W 3317  21.292  44.861   0.855
31647W        W 3318  19.281   2.869  14.709
31648W        W 3319  44.191  10.249   2.778
31649W        W 3320  18.873  34.930  13.360
31650W        W 3321   3.363  17.820  13.833
31651W        W 3322   3.886  27.980  14.263
31652W        W 3323  38.522  35.129  11.457
31653W        W 3324  36.036  27.702   0.369
31654W        W 3325  17.261   8.148   3.217
31655W        W 3326  43.260  43.887   3.287
31656W        W 3327   5.204  43.810   4.394
31657W        W 3328  12.820  42.530   2.674
31658W        W 3329  12.896  40.361   0.337
31659W        W 3330  43.326  25.938  12.563
31660W        W 3331  29.398  35.082  11.389
31661W        W 3332  42.446  41.463   3.855
31662W        W 3333  14.228  18.144  14.554
31663W        W 3334   1.722  13.604  12.879
31664W        W 3335  43.721  26.443   1.701
31665W        W 3336  41.281   3.443   1.248
31666W        W 3337   3.948   1.637  14.327
31667W        W 3338  29.036   4.890   0.393
31668W        W 3339  13.975   4.132  13.567
31669W        W 3340  35.358  41.236  14.256
31670W        W 3341  42.791  22.164  14.017
31671W        W 3342  13.952   5.030   0.009
31672W        W 3343   6.965  24.937  13.976
31673W        W 3344  36.406  12.475   0.656
31674W        W 3345  30.215  30.375   0.308
31675W        W 3346   1.382  28.153   2.913
31676W        W 3347   3.326  23.030  13.105
31677W        W 3348   8.782  41.282  10.723
31678W        W 3349  19.534  27.707  13.225
31679W        W 3350  24.656   5.418  11.929
31680W        W 3351   1.303  34.092  11.817
31681W        W 3352  30.671  10.676   2.377
31682W        W 3353   6.136  33.014   0.536
31683W        W 3354  32.517  29.585  10.731
31684W        W 3355  38.152  26.523  11.566
31685W        W 3356  41.823  34.831   2.381
31686W        W 3357  20.079  32.336   3.249
31687W        W 3358  44.223  43.979   0.433
31688W        W 3359  27.142   8.254   1.300
31689W        W 3360   6.296  32.345  11.021
31690W        W 3361  15.772   8.657   2.489
31691W        W 3362  38.963  31.713  12.042
31692W        W 3363  41.655  17.310   2.728
31693W        W 3364  17.048  19.677   0.792
31694W        W 3365  15.856  22.602  10.493
31695W        W 3366  18.474   0.002  11.672
31696W        W 3367   2.236   5.739  14.373
31697W        W 3368  23.496  31.116   0.963
31698W        W 3369  39.885  36.834  13.159
31699W        W 3370  10.122  34.821   4.854
31700W        W 3371   0.294  37.124   1.728
31701W        W 3372  26.798  21.840   4.969
31702W        W 3373  11.957   6.289  11.195
31703W        W 3374  44.987  24.986   3.255
31704W        W 3375  35.450  28.200  13.997
31705W        W 3376  22.730   5.871  13.884
31706W        W 3377  18.829  39.202  11.152
31707W        W 3378  39.943  35.096   0.909
31708W        W 3379  42.813   1.232   3.722
31709W        W 3380  44.371  36.424   2.368
31710W        W 3381   2.628  23.065   0.110
31711W        W 3382   4.484  12.296   2.688
31712W        W 3383  24.084  14.566  11.145
31713W        W 3384   9.447  33.147  13.972
31714W        W 3385   7.305  15.882   4.592
31715W        W 3386  24.489  26.489   2.166
31716W        W 3387  13.752   6.036  12.870
31717W        W 3388  26.239  15.169  10.822
31718W        W 3389   4.455   2.224   4.247
31719W        W 3390  27.102  33.028   4.227
31720W        W 3391   6.599  39.399   1.806
31721W        W 3392  33.976  21.551  13.841
31722W        W 3393  30.888   3.847  12.896
31723W        W 3394  12.822   2.745   1.624
31724W        W 3395  30.432  30.038   3.368
31725W        W 3396  29.995   5.985  13.030
31726W        W 3397  37.026   8.668   5.216
31727W        W 3398  32.253  42.608  12.937
31728W        W 3399  25.863  36.910  12.327
31729W        W 3400  44.718   4.788   0.749
31730W        W 3401  33.783  34.208   2.366
31731W        W 3402   4.444   1.438   3.325
31732W        W 3403  16.499  11.341   3.888
31733W        W 3404   3.352   2.516  11.970
31734W        W 3405  29.329  39.340  14.046
31735W        W 3406  33.335   8.788   4.989
31736W        W 3407  33.583  27.421   2.229
31737W        W 3408  35.038  38.542  11.472
31738W        W 3409  32.416   2.172  11.544
31739W        W 3410  38.586  29.487   0.940
31740W        W 3411  19.155   1.480  12.401
31741W        W 3412  32.455  14.415  14.602
31742W        W 3413  22.682  16.354  14.988
31743W        W 3414   0.902  39.284  11.054
31744W        W 3415  18.218  17.888   3.072
31745W        W 3416  17.477  38.121   1.223
31746W        W 3417  13.534  36.521  11.486
31747W        W 3418   3.194  13.825   1.470
31748W        W 3419  25.925   6.309   0.917
31749W        W 3420  20.316  41.066  14.955
31750W        W 3421   8.576  34.873   3.599
31751W        W 3422  22.711  30.746   1.334
31752W        W 3423  19.131  22.761   0.754
31753W        W 3424   0.626   5.343  13.960
31754W        W 3425  20.277   7.853  12.888
31755W        W 3426  30.962  12.645   4.056
31756W        W 3427  26.519  12.681   1.727
31757W        W 3428  14.028  41.049  12.459
31758W        W 3429  42.236   8.801   4.920
31759W        W 3430   2.000  16.281  12.522
31760W        W 3431  38.531  42.516   4.729
31761W        W 3432  38.848  33.128  11.399
31762W        W 3433  38.132   2.030  12.452
31763W        W 3434  18.528  44.787   3.576
31764W        W 3435   4.785  28.192   5.012
31765W        W 3436  24.536  37.971  14.334
31766W        W 3437  43.843  40.767   0.017
31767W        W 3438  19.839   1.677   1.489
31768W        W 3439  44.297  42.331   2.507
31769W        W 3440  21.644  37.429  10.745
31770W        W 3441  31.581   3.154   3.667
31771W        W 3442  23.135  31.066  11.563
31772W        W 3443   0.815  32.843  14.734
31773W        W 3444   0.021  21.688  11.421
31774W        W 3445  10.659  31.136  12.488
31775W        W 3446  24.725   6.246   4.322
31776W        W 3447  35.903  36.230   2.826
31777W        W 3448  21.057  16.977  11.191
31778W        W 3449   9.610  10.826  14.540
31779W        W 3450  30.160  11.737  14.795
31780W        W 3451  27.012  16.156   2.058
31781W        W 3452   6.450  41.974   2.840
31782W        W 3453  37.369  22.380  12.050
31783W        W 3454  39.035  44.341   4.287
31784W        W 3455  12.610  11.796   1.822
31785W        W 3456   4.266  34.117   0.792
31786W        W 3457  33.617  35.609   3.645
31787W        W 3458  30.394  17.452  12.975
31788W        W 3459  17.395   5.006   2.828
31789W        W 3460  20.350   2.685  13.783
31790W        W 3461   9.979  21.513  14.268
31791W        W 3462  33.409  42.073   0.466
31792W        W 3463  29.506  12.680  14.280
31793W        W 3464   9.831  15.196   4.579
31794W        W 3465  31.193  22.987   2.033
31795W        W 3466   0.221  40.352  10.199
31796W        W 3467  18.614  30.591  12.612
31797W        W 3468  42.406   2.750   1.743
31798W        W 3469  22.553   8.479  13.854
31799W        W 3470  42.503  16.735  13.843
31800W        W 3471   5.399  39.507   3.268
31801W        W 3472  41.428  14.251  13.971
31802W        W 3473  44.723  29.998  12.069
31803W        W 3474  38.632  35.475   4.212
31804W        W 3475  31.466   1.241  12.007
31805W        W 3476   7.420   6.312  14.975
31806W        W 3477  30.978  27.913   5.426
31807W        W 3478  32.779  37.876  13.045
31808W        W 3479  31.149  27.591  14.344
31809W        W 3480  15.204  27.194  11.676
31810W        W 3481  41.605  35.486   3.230
31811W        W 3482   1.613   5.620  13.828
31812W        W 3483  38.204   7.642   4.575
31813W        W 3484  42.554  24.828   0.781
31814W        W 3485  14.889  35.611  14.893
31815W        W 3486  25.978  25.225   4.154
31816W        W 3487  14.631  34.405   4.120
31817W        W 3488  30.429  28.554   2.664
31818W        W 3489  38.820  35.534  12.221
31819W        W 3490  22.692  29.480   4.694
31820W        W 3491   5.790   0.290   3.880
31821W        W 3492  12.290  35.641   3.765
31822W        W 3493  29.323  11.827   0.378
31823W        W 3494  32.884  20.471  14.698
31824W        W 3495  10.555  38.024   0.942
31825W        W 3496  43.288  26.112   2.655
31826W        W 3497  12.077  38.855   3.517
31827W        W 3498  37.077  30.386   0.834
31828W        W 3499   8.839   6.747   1.863
31829W        W 3500  27.414  33.408  14.398
31830W        W 3501  11.078  15.941   0.078
31831W        W 3502  38.020  30.196   4.728
31832W        W 3503   2.427  11.401   2.745
31833W        W 3504   3.857  14.265   3.626
31834W        W 3505  38.992   7.802  12.174
31835W        W 3506  43.311  44.684   1.285
31836W        W 3507  16.276  29.465  14.286
31837W        W 3508  39.595  24.457   0.359
31838W        W 3509   8.708  16.757  13.846
31839W        W 3510   4.718  16.887  13.536
31840W        W 3511  24.949   5.637  11.580
31841W        W 3512  27.600  24.943   1.886
31842W        W 3513  30.460  41.854  14.319
31843W        W 3514  34.093  24.549   2.317
31844W        W 3515  23.372  12.949  14.006
31845W        W 3516   7.477   0.942   2.407
31846W        W 3517  42.465   0.933  12.311
31847W        W 3518   8.356  35.499   0.901
31848W        W 3519   8.966   1.723  13.802
31849W        W 3520  10.129  24.869  12.588
31850W        W 3521  17.026  20.247  14.482
31851W        W 3522  26.482  34.642   0.259
31852W        W 3523  23.364  35.275   2.828
31853W        W 3524   5.433   1.352   3.133
31854W        W 3525  33.636  34.196  13.913
31855W        W 3526  42.838  20.052  14.442
31856W        W 3527  15.430   0.992  11.881
31857W        W 3528  28.034  41.296  11.464
31858W        W 3529  18.500  34.358   1.455
31859W        W 3530   1.005   1.983  10.706
31860W        W 3531  41.517  31.206   0.699
31861W        W 3532  42.868   7.402   2.902
31862W        W 3533  36.898  20.051   4.713
31863W        W 3534  36.421   9.206  13.522
31864W        W 3535  34.403   9.420  12.592
31865W        W 3536  37.758  33.082   3.312
31866W        W 3537  12.189  25.997   3.621
31867W        W 3538  43.731  34.160  14.939
31868W        W 3539  20.608  24.870   1.451
31869W        W 3540  29.427  17.565   3.091
31870W        W 3541  10.262   6.405  12.033
31871W        W 3542  43.777   6.842   2.692
31872W        W 3543   2.904  25.649  13.458
31873W        W 3544   3.599  20.187   3.767
31874W        W 3545   8.196  21.238   4.543
31875W        W 3546  28.423  29.037   1.049
31876W        W 3547  39.933  14.662  12.793
31877W        W 3548  12.873  18.652   2.408
31878W        W 3549  26.043  26.411  13.396
31879W        W 3550  31.990  14.221  10.181
31880W        W 3551  33.481  35.783  14.807
31881W        W 3552  23.574  40.610   4.746
31882W        W 3553  39.083  11.604   3.300
31883W        W 3554   6.282  12.132  11.533
31884W        W 3555   7.904   9.369   2.186
31885W        W 3556  13.225  17.748  11.975
31886W        W 3557  13.841  28.432  11.898
31887W        W 3558  37.318   9.624  12.174
31888W        W 3559   9.238  16.086   3.782
31889W        W 3560   2.950   6.515   3.770
31890W        W 3561  11.419  12.801   3.170
31891W        W 3562  40.815   2.258   2.908
31892W        W 3563  12.733  37.369  13.043
31893W        W 3564  23.074  20.440   3.646
31894W        W 3565   2.445  41.976  13.599
31895W        W 3566  27.541  13.846  14.870
31896W        W 3567  23.102  37.764  14.680
31897W        W 3568  29.709  26.257  10.600
31898W        W 3569  39.505   0.339   4.066
31899W        W 3570  32.001  42.325  13.299
31900W        W 3571   9.325   1.378   0.532
31901W        W 3572  40.959   7.237   0.043
31902W        W 3573  20.310  22.285  11.507
31903W        W 3574  33.189  18.202   1.168
31904W        W 3575  44.081  19.504  11.924
31905W        W 3576  23.567  44.515  14.996
31906W        W 3577   2.700  24.029  10.632
31907W        W 3578   4.129   8.326   0.576
31908W        W 3579  32.549  11.714  14.626
31909W        W 3580   2.207   3.030   4.652
31910W        W 3581  40.362  10.142   4.517
31911W        W 3582  13.609  20.181  13.928
31912W        W 3583   8.630  40.607   0.979
31913W        W 3584  10.195  35.033   1.230
31914W        W 3585  17.185  16.565  14.438
31915W        W 3586  30.455   0.467  14.522
31916W        W 3587  35.377  21.210  12.064
31917W        W 3588   0.079   4.205  13.954
31918W        W 3589   0.888  36.950   0.883
31919W        W 3590  26.616   7.930   5.144
31920W        W 3591  21.153  37.920   3.703
31921W        W 3592  15.163   3.090   0.427
31922W        W 3593  25.439  44.551  10.677
31923W        W 3594  25.236  10.011   0.194
31924W        W 3595  22.317  10.538   5.084
31925W        W 3596   4.696  43.910  13.358
31926W        W 3597  30.378  38.098  12.838
31927W        W 3598  27.725  20.542  12.468
31928W        W 3599  19.018  37.841   3.473
31929W        W 3600  36.552  13.751   3.695
31930W        W 3601  27.046  23.631   4.224
31931W        W 3602  41.901  15.292   2.894
31932W        W 3603   0.338  19.729   5.191
31933W        W 3604  39.509   9.219   1.872
31934W        W 3605   3.332  26.941  14.981
31935W        W 3606   1.270   3.722  13.541
31936W        W 3607  13.875  42.920  14.306
31937W        W 3608  43.964  11.822  14.469
31938W        W 3609  32.297  31.525   1.320
31939W        W 3610  30.014   4.340  12.178
31940W        W 3611  34.612  19.827   1.783
31941W        W 3612  10.152  32.319   2.692
31942W        W 3613   5.375   2.287   1.797
31943W        W 3614  16.645  44.836   2.534
31944W        W 3615  15.638  40.913   3.493
31945W        W 3616   9.664  37.110   3.075
31946W        W 3617  23.956  27.124  14.417
31947W        W 3618  23.708  19.646  13.772
31948W        W 3619  18.352  28.481  11.579
31949W        W 3620   0.847   1.231   2.912
31950W        W 3621  20.145  21.808   4.280
31951W        W 3622  25.748  36.324  12.389
31952W        W 3623  34.905   0.580  10.679
31953W        W 3624   4.772  21.464   3.641
31954W        W 3625  20.987   1.980  11.625
31955W        W 3626  18.705  27.649  14.994
31956W        W 3627  34.573  21.770  11.608
31957W        W 3628  34.072   1.760   0.877
31958W        W 3629  17.718  36.734   1.102
31959W        W 3630  16.150  12.742  13.279
31960W        W 3631   2.975   3.366   1.408
31961W        W 3632   0.687  10.800  12.921
31962W        W 3633   1.225  18.164   1.920
31963W        W 3634  21.548  13.232  14.591
31964W        W 3635  35.371  41.206  12.001
31965W        W 3636   3.849   7.695  12.024
31966W        W 3637  21.594   1.222  10.875
31967W        W 3638  30.176   8.865  13.054
31968W        W 3639  29.687  17.737  12.110
31969W        W 3640  11.603  16.875  14.311
31970W        W 3641   7.597  14.355  11.105
31971W        W 3642  39.547   6.832  14.467
31972W        W 3643  36.754  37.896   3.717
31973W        W 3644  15.398  33.814   0.204
31974W        W 3645  33.355  30.212  14.860
31975W        W 3646  36.330  43.892   3.377
31976W        W 3647  44.580   1.557  11.225
31977W        W 3648  15.012   2.006  14.804
31978W        W 3649  20.579  16.733   3.226
31979W        W 3650   4.722  27.908  14.303
31980W        W 3651  17.240  42.983  12.541
31981W        W 3652  32.706  11.399  11.806
31982W        W 3653  16.893  29.434  14.922
31983W        W 3654  43.815  35.946   3.730
31984W        W 3655  14.211  19.298  11.184
31985W        W 3656  14.883  22.623  10.768
31986W        W 3657  21.482  16.298   0.770
31987W        W 3658  31.345   1.440  11.516
31988W        W 3659  42.847  22.522   1.842
31989W        W 3660   9.824  38.832  14.724
31990W        W 3661  40.111  20.206  12.493
31991W        W 3662  19.574  36.841  11.973
31992W        W 3663  38.824  25.058   4.118
31993W        W 3664   0.810  21.052  12.009
31994W        W 3665  44.469   3.466   5.033
31995W        W 3666  29.247   1.224  12.516
31996W        W 3667  33.648  32.555  11.427
31997W        W 3668  12.859  17.271   3.870
31998W        W 3669   5.495   5.711  13.155
31999W        W 3670  37.844  43.386  11.945
32000W        W 3671  44.575  29.881  11.565
32001W        W 3672  13.741  13.823  11.644
32002W        W 3673  38.851   9.378  11.058
32003W        W 3674   3.937  20.599   4.987
32004W        W 3675  19.353  28.103  14.181
32005W        W 3676  32.943   0.289   4.830
32006W        W 3677   4.661  41.549   2.313
32007W        W 3678   9.103  12.895   3.394
32008W        W 3679  24.305  42.513   4.966
32009W        W 3680  36.886  27.389  14.931
32010W        W 3681  27.623  15.975   0.304
32011W        W 3682  32.050  29.524   5.324
32012W        W 3683  15.583  29.955  12.416
32013W        W 3684  37.156   6.241  10.614
32014W        W 3685  30.830  32.509   3.806
32015W        W 3686   3.455  12.220  10.825
32016W        W 3687  12.107  43.409  11.904
32017W        W 3688  22.318  41.127  10.949
32018W        W 3689  16.301  12.440  10.440
32019W        W 3690   4.748  35.406   2.742
32020W        W 3691  21.921  13.419  11.571
32021W        W 3692  22.562  16.409  12.543
32022W        W 3693  10.589  39.543  11.551
32023W        W 3694  30.937   4.000   1.456
32024W        W 3695  26.620  35.053   2.353
32025W        W 3696  33.842  14.265   0.895
32026W        W 3697  43.736  28.925  10.570
32027W        W 3698  14.331   6.243   2.575
32028W        W 3699  34.337   1.209  13.283
32029W        W 3700  13.062  23.776  12.899
32030W        W 3701   0.040   5.422   2.706
32031W        W 3702  16.565   3.038  13.825
32032W        W 3703   3.886  17.067  13.887
32033W        W 3704  26.695  21.286  13.409
32034W        W 3705  38.299  13.836   1.609
32035W        W 3706  34.920   5.421   3.146
32036W        W 3707  43.367  19.651   2.835
32037W        W 3708  15.017  34.115   2.659
32038W        W 3709  16.353  12.678   0.493
32039W        W 3710  43.577  15.826  10.959
32040W        W 3711  41.273  41.543   5.142
32041W        W 3712  23.954  43.785   4.269
32042W        W 3713  42.688  33.408  12.533
32043W        W 3714  39.316   6.181   4.636
32044W        W 3715  44.136   7.954  11.623
32045W        W 3716  15.207  28.886  14.594
32046W        W 3717   8.907  15.789  12.008
32047W        W 3718  17.602  14.483   9.672
32048W        W 3719  15.489  33.854   0.840
32049W        W 3720  26.709  23.140   1.425
32050W        W 3721   7.298  11.824   4.282
32051W        W 3722   7.315  18.547   3.001
32052W        W 3723   1.230   3.223   4.411
32053W        W 3724   9.801  37.946  11.575
32054W        W 3725  26.793  21.965   0.802
32055W        W 3726  16.219   3.536  11.094
32056W        W 3727  17.318  20.166  11.950
32057W        W 3728   0.980   9.044  12.490
32058W        W 3729  43.067  25.701  12.147
32059W        W 3730   0.402  30.131  12.628
32060W        W 3731  41.343  17.017  14.295
32061W        W 3732  41.057  14.916  11.998
32062W        W 3733  24.179  18.227   4.137
32063W        W 3734  19.793  12.334  13.638
32064W        W 3735   3.167   3.153   1.855
32065W        W 3736   9.864  39.855   3.213
32066W        W 3737   5.917  11.758  12.801
32067W        W 3738  27.713  26.521  12.102
32068W        W 3739  39.778  35.941  12.991
32069W        W 3740  22.019   7.661  11.150
32070W        W 3741  19.386  32.396  11.163
32071W        W 3742  43.800  10.621  10.994
32072W        W 3743  28.432  44.519   0.831
32073W        W 3744  15.805  23.589  10.852
32074W        W 3745  34.646  22.679  12.447
32075W        W 3746  23.302  29.291   1.700
32076W        W 3747   8.680  17.598   2.313
32077W        W 3748  31.536  21.715  14.305
32078W        W 3749  25.906  19.527   4.321
32079W        W 3750  17.513  39.071   3.252
32080W        W 3751  43.250   4.397   1.411
32081W        W 3752  26.485  24.325  10.651
32082W        W 3753  43.568   3.971  11.961
32083W        W 3754  29.845  27.092  10.830
32084W        W 3755  43.105   2.053  14.184
32085W        W 3756  16.416   1.585  12.647
32086W        W 3757  35.589   1.005   2.856
32087W        W 3758  25.189  21.317   2.895
32088W        W 3759  28.192   8.305  14.906
32089W        W 3760  37.938  42.293   3.194
32090W        W 3761  40.337   4.328  14.812
32091W        W 3762  42.363   7.092   4.167
32092W        W 3763  44.718  37.111  12.411
32093W        W 3764   1.425  26.457   1.382
32094W        W 3765  11.310  36.940   4.812
32095W        W 3766  30.720  15.603   0.971
32096W        W 3767  13.874   3.314   2.178
32097W        W 3768  26.898  26.687  14.957
32098W        W 3769   3.958  32.121  14.835
32099W        W 3770  27.167   6.493   4.053
32100W        W 3771   3.026   1.171  12.039
32101W        W 3772  10.215  34.941   1.732
32102W        W 3773  32.301  12.239  13.998
32103W        W 3774   7.836  41.393   1.897
32104W        W 3775  35.928  21.815  12.858
32105W        W 3776  20.926  26.395  14.272
32106W        W 3777  24.761   4.849   1.227
32107W        W 3778  31.341  29.680   2.773
32108W        W 3779  23.240  43.288   0.367
32109W        W 3780  16.289  44.630  14.972
32110W        W 3781  42.765   8.713   0.710
32111W        W 3782  15.247  21.959  12.886
32112W        W 3783  22.174   6.117   1.753
32113W        W 3784  38.178  16.252   1.022
32114W        W 3785  29.082  24.950   3.612
32115W        W 3786  42.567  14.198   0.483
32116W        W 3787  37.509  21.191   3.316
32117W        W 3788  31.786  27.841   3.491
32118W        W 3789   7.317  10.276  13.593
32119W        W 3790  41.515   0.520  11.577
32120W        W 3791  10.410  18.842  11.672
32121W        W 3792  17.183  34.373   0.015
32122W        W 3793  13.041  14.310  10.727
32123W        W 3794  32.406  35.178  10.263
32124W        W 3795   5.490  40.552   0.175
32125W        W 3796   3.713  30.036  13.846
32126W        W 3797   7.683  29.176   1.251
32127W        W 3798  40.461   7.292   2.837
32128W        W 3799  43.343  21.541   1.783
32129W        W 3800  36.432   8.614   0.362
32130W        W 3801  43.594  26.577  14.518
32131W        W 3802  31.507  35.505   1.193
32132W        W 3803  11.436  13.724  10.933
32133W        W 3804  40.897   8.266   4.278
32134W        W 3805  34.609  34.054  11.756
32135W        W 3806   6.075  16.236   0.775
32136W        W 3807  29.842  11.750   2.890
32137W        W 3808   5.767  44.541   3.943
32138W        W 3809   8.780  34.932  12.571
32139W        W 3810  21.290  17.309  10.787
32140W        W 3811  32.541  17.444  14.471
32141W        W 3812  10.100  41.926  11.208
32142W        W 3813   5.065  37.642   0.225
32143W        W 3814  17.554   3.389  13.926
32144W        W 3815   1.652  38.357  12.276
32145W        W 3816   2.471   6.650  13.459
32146W        W 3817  38.010  44.411   4.929
32147W        W 3818   0.660   0.054   3.900
32148W        W 3819  22.038  24.138  14.998
32149W        W 3820   5.194  43.991   2.504
32150W        W 3821  38.447   9.852  13.583
32151W        W 3822  41.857  41.250   2.193
32152W        W 3823   9.399   6.431  13.658
32153W        W 3824   7.622  27.936   1.534
32154W        W 3825   7.378  23.390  11.562
32155W        W 3826  14.886   8.453  11.461
32156W        W 3827  22.515  27.129   4.308
32157W        W 3828   6.662  31.893   0.344
32158W        W 3829  16.937  16.815   0.165
32159W        W 3830  29.564  27.917  14.473
32160W        W 3831  20.308  23.734  11.146
32161W        W 3832  36.956  43.023   0.453
32162W        W 3833   4.846  40.396   3.217
32163W        W 3834  40.330  43.069   0.848
32164W        W 3835  33.044  32.824   3.349
32165W        W 3836   2.427   8.364   4.292
32166W        W 3837   0.194  29.247   3.875
32167W        W 3838  10.735  13.947   1.136
32168W        W 3839   0.450  34.996  13.628
32169W        W 3840  21.024  35.757  12.102
32170W        W 3841  21.748  44.958   4.720
32171W        W 3842  14.542  21.915  12.181
32172W        W 3843  11.634  25.525  12.559
32173W        W 3844  44.981  22.068   0.044
32174W        W 3845   6.233   8.193  12.164
32175W        W 3846  16.180  19.880  12.407
32176W        W 3847  30.635  39.845   0.248
32177W        W 3848  41.999  17.895   3.578
32178W        W 3849  38.494  15.342  11.519
32179W        W 3850   3.199  44.993  10.463
32180W        W 3851   4.657  12.927  13.963
32181W        W 3852  14.017  30.612  10.506
32182W        W 3853  19.318  21.352   3.472
32183W        W 3854  29.466  20.082   0.842
32184W        W 3855  28.479  33.124   0.599
32185W        W 3856  32.985  20.788  13.009
32186W        W 3857   7.895  34.480   4.302
32187W        W 3858   5.798  39.833   4.569
32188W        W 3859   5.941  44.380  13.409
32189W        W 3860  11.227  30.044  10.743
32190W        W 3861  43.003  28.294  13.003
32191W        W 3862  20.569  25.528   4.960
32192W        W 3863  10.810   8.631  11.168
32193W        W 3864  22.746   8.756   0.682
32194W        W 3865   9.619  17.044   1.517
32195W        W 3866  23.211  24.411   4.709
32196W        W 3867  35.781  23.947  13.821
32197W        W 3868   1.773  23.758   0.923
32198W        W 3869  34.345  17.906   1.934
32199W        W 3870  24.693  29.399   0.498
32200W        W 3871  42.906  41.567  14.430
32201W        W 3872   7.645   6.935  13.197
32202W        W 3873  35.104   0.426   4.094
32203W        W 3874  31.663  16.737  12.853
32204W        W 3875  38.859  29.518   2.822
32205W        W 3876  41.703  40.937   3.504
32206W        W 3877  37.565   0.752   0.273
32207W        W 3878  30.046   9.371  11.026
32208W        W 3879  15.513  32.986  12.777
32209W        W 3880  40.830  10.825   2.760
32210W        W 3881  17.623  27.073  12.034
32211W        W 3882  12.756   8.927  12.705
32212W        W 3883  12.795  43.716   3.539
32213W        W 3884  21.665  19.838   1.920
32214W        W 3885  41.756   4.479   2.912
32215W        W 3886   9.154  37.035   2.330
32216W        W 3887   9.723  26.563   0.750
32217W        W 3888  31.381  14.857   3.480
32218W        W 3889  42.835  11.830  13.746
32219W        W 3890  43.844  29.160   4.588
32220W        W 3891  15.595  22.661  12.983
32221W        W 3892  17.123  40.384  11.431
32222W        W 3893   4.194  17.238   0.354
32223W        W 3894  30.580  41.743   3.244
32224W        W 3895   3.225  16.761   2.876
32225W        W 3896  36.897   5.185   2.437
32226W        W 3897  40.908   2.355  12.043
32227W        W 3898  20.219   5.846  14.116
32228W        W 3899   4.666  20.598  11.423
32229W        W 3900  35.318  16.139  11.290
32230W        W 3901  26.497  39.023   1.371
32231W        W 3902   8.122   9.403   3.643
32232W        W 3903  44.878  16.072  12.179
32233W        W 3904   4.878   7.332   1.677
32234W        W 3905  21.075   8.417  10.817
32235W        W 3906   3.544  24.260   0.792
32236W        W 3907  19.795  44.049   4.539
32237W        W 3908  22.913  11.139  12.442
32238W        W 3909  14.710  21.214   3.792
32239W        W 3910   5.327   0.977  12.009
32240W        W 3911  14.259   6.948   1.462
32241W        W 3912  13.867   9.474  13.985
32242W        W 3913  11.120  37.506  11.402
32243W        W 3914  15.041  30.371  10.736
32244W        W 3915  11.350   6.090   0.438
32245W        W 3916  40.300  17.733  10.426
32246W        W 3917  13.808  30.093   0.241
32247W        W 3918   2.286  42.072  12.166
32248W        W 3919  35.037  41.589  10.710
32249W        W 3920  31.352   6.337   1.324
32250W        W 3921  34.977  10.571  14.581
32251W        W 3922  24.675   7.790   1.497
32252W        W 3923  20.662  36.268   4.886
32253W        W 3924   3.266  10.168  11.376
32254W        W 3925  44.540  17.701  14.796
32255W        W 3926  16.367  24.267  11.913
32256W        W 3927  34.444  37.809   4.096
32257W        W 3928  21.262  13.919   3.322
32258W        W 3929  29.545   1.845  11.150
32259W        W 3930  40.250  19.190   4.787
32260W        W 3931  36.482  40.480  12.558
32261W        W 3932  42.077  11.125   3.287
32262W        W 3933  20.248  10.072   0.358
32263W        W 3934   9.864  40.542   1.370
32264W        W 3935   7.204  15.679   3.262
32265W        W 3936  38.647  43.880  12.988
32266W        W 3937  42.453  14.739   5.309
32267W        W 3938  12.109  18.819  12.905
32268W        W 3939   3.918   9.673  11.951
32269W        W 3940  40.364  31.110   1.376
32270W        W 3941   3.565  21.722   0.766
32271W        W 3942  25.165   1.653  11.969
32272W        W 3943  39.025  19.525  12.980
32273W        W 3944  13.618  10.440  10.369
32274W        W 3945  36.414  10.161  12.427
32275W        W 3946  28.130  18.506  10.770
32276W        W 3947   2.058   4.351  10.431
32277W        W 3948  39.046  35.005  11.107
32278W        W 3949  30.042  25.548  13.204
32279W        W 3950  21.659  12.894   1.026
32280W        W 3951  27.225  18.564  14.302
32281W        W 3952   1.021  12.359  13.942
32282W        W 3953  41.809  24.583  13.312
32283W        W 3954  11.873  34.090  12.703
32284W        W 3955  24.016   9.568   3.770
32285W        W 3956  42.524  41.932  11.635
32286W        W 3957  27.232  10.772   2.636
32287W        W 3958  39.532   7.774  12.175
32288W        W 3959   6.778   0.255  11.033
32289W        W 3960  21.980  11.506  12.299
32290W        W 3961  17.589   2.871  13.817
32291W        W 3962  19.015   0.813  12.633
32292W        W 3963  32.650  29.431  12.637
32293W        W 3964  29.580  18.750  14.313
32294W        W 3965  43.327  18.812  13.598
32295W        W 3966  33.969  24.678   4.101
32296W        W 3967  35.584  19.684  11.598
32297W        W 3968  20.353  41.286   5.085
32298W        W 3969  17.760  31.572  14.672
32299W        W 3970  30.658  42.891  14.785
32300W        W 3971  36.995  33.918  14.911
32301W        W 3972  13.283  28.059   4.582
32302W        W 3973  19.179  37.977  13.446
32303W        W 3974   9.819  18.343  14.964
32304W        W 3975   1.216  24.621   4.064
32305W        W 3976   7.331   2.930   3.657
32306W        W 3977  18.713  26.719   0.897
32307W        W 3978   5.016  44.274  12.476
32308W        W 3979  25.454  15.762  10.467
32309W        W 3980   9.803  14.450  12.623
32310W        W 3981  26.016   4.309   3.244
32311W        W 3982  36.346  24.254  11.501
32312W        W 3983  21.171  39.321  13.477
32313W        W 3984  28.986  31.216   4.293
32314W        W 3985  38.893  42.864   4.447
32315W        W 3986  32.317  29.164  14.296
32316W        W 3987  22.324  39.531   5.028
32317W        W 3988  14.261  15.338   0.029
32318W        W 3989  22.586  20.148  11.172
32319W        W 3990   8.938  43.579  11.126
32320W        W 3991  17.645  18.275  10.445
32321W        W 3992   4.718   5.060  12.447
32322W        W 3993  44.364   6.730   0.170
32323W        W 3994  14.059  20.737  11.820
32324W        W 3995  39.933   9.901   4.660
32325W        W 3996   2.693  16.705   0.293
32326W        W 3997  14.238  29.881   4.016
32327W        W 3998  17.456  18.246   4.383
32328W        W 3999  31.653  32.816  14.913
32329W        W 4000  41.383  30.995  12.093
32330W        W 4001   0.288  16.332   1.780
32331W        W 4002   9.086  15.127  14.786
32332W        W 4003  44.533  19.251  11.945
32333W        W 4004   6.690  37.043  12.007
32334W        W 4005   2.881  29.717  13.502
32335W        W 4006  26.109   3.615  11.128
32336W        W 4007  14.990  23.434  14.736
32337W        W 4008  26.458   7.094   0.911
32338W        W 4009  18.180  25.214   3.258
32339W        W 4010  23.464  37.435   3.760
32340W        W 4011  26.249  15.990   0.818
32341W        W 4012  36.327   0.169   2.227
32342W        W 4013  15.209  21.577  14.185
32343W        W 4014  25.607   3.441   3.392
32344W        W 4015   5.800  22.490   1.842
32345W        W 4016  14.631  44.553  11.844
32346W        W 4017   1.113  22.238  10.137
32347W        W 4018  18.317  17.678   0.527
32348W        W 4019   0.934  20.928   5.007
32349W        W 4020   7.341  29.461   4.300
32350W        W 4021   0.870  16.549  13.846
32351W        W 4022  14.108  24.987  11.349
32352W        W 4023  41.956  20.650   4.626
32353W        W 4024  21.085  21.668  14.351
32354W        W 4025  34.043   8.335   2.506
32355W        W 4026   7.294  35.800   2.945
32356W        W 4027  18.661   5.458  13.597
32357W        W 4028  15.879  36.560  12.099
32358W        W 4029  17.144  12.600   2.719
32359W        W 4030  28.701   5.102   3.308
32360W        W 4031  35.499  38.315  14.993
32361W        W 4032  26.865  22.023  10.249
32362W        W 4033  18.309  23.464   3.600
32363W        W 4034  15.207  12.738   2.747
32364W        W 4035  39.861   5.967  10.714
32365W        W 4036  11.229  13.610  13.474
32366W        W 4037  21.517  24.169  14.876
32367W        W 4038   3.381  18.568   4.976
32368W        W 4039   0.747   4.868   2.673
32369W        W 4040  10.297  43.235   1.806
32370W        W 4041  33.933   4.657   0.426
32371W        W 4042  36.097   0.895   4.904
32372W        W 4043  31.960   8.627   2.913
32373W        W 4044   5.554  32.394   4.203
32374W        W 4045  25.766  44.158   4.186
32375W        W 4046  18.083  21.772  13.107
32376W        W 4047  41.927   8.389   1.571
32377W        W 4048  21.916  22.696   2.153
32378W        W 4049  21.631  41.902  11.992
32379W        W 4050  34.541  18.733   4.125
32380W        W 4051  39.019  16.728   2.780
32381W        W 4052   0.330  28.673   1.455
32382W        W 4053  21.552  32.719  14.688
32383W        W 4054  44.773  41.082  13.728
32384W        W 4055  35.564  33.573   4.879
32385W        W 4056   6.878  41.803   5.163
32386W        W 4057  24.720  16.078   4.731
32387W        W 4058  36.556  38.346   2.799
32388W        W 4059  35.401  30.818   0.928
32389W        W 4060  42.761   7.416  10.943
32390W        W 4061  27.893  37.135  11.069
32391W        W 4062  23.514  12.605   3.197
32392W        W 4063  15.408  15.720  14.216
32393W        W 4064  37.539  29.881   1.741
32394W        W 4065  14.832  25.519  11.423
32395W        W 4066   2.371  19.822  11.152
32396W        W 4067  35.952  29.617   3.386
32397W        W 4068  42.524  26.649   4.907
32398W        W 4069  14.588  28.863  12.933
32399W        W 4070  29.136   6.357  11.441
32400W        W 4071  14.668  28.468   3.363
32401W        W 4072  37.787  43.225  13.611
32402W        W 4073  36.959  38.295   1.814
32403W        W 4074  44.935  31.932   1.896
32404W        W 4075  22.423   8.790  12.804
32405W        W 4076  38.313  36.043  11.151
32406W        W 4077  20.206   4.167   2.883
32407W        W 4078  28.871  19.338  14.563
32408W        W 4079   8.829   4.959   0.684
32409W        W 4080  44.463  11.020  14.581
32410W        W 4081  44.769  23.141   5.107
32411W        W 4082   0.261  37.384  11.598
32412W        W 4083  19.275  28.939   3.606
32413W        W 4084  12.766  44.258  11.100
32414W        W 4085  44.515  25.764  13.383
32415W        W 4086  36.860  38.373  11.021
32416W        W 4087  29.033  29.521   3.246
32417W        W 4088  15.305  41.567  11.794
32418W        W 4089   8.731  13.334   0.267
32419W        W 4090   7.931  32.487  14.038
32420W        W 4091   1.522  14.352  13.556
32421W        W 4092  20.932  42.272   0.511
32422W        W 4093  38.993  26.378   2.752
32423W        W 4094  18.135  41.995   4.010
32424W        W 4095  43.649   2.229  14.829
32425W        W 4096  33.214  31.573  13.291
32426W        W 4097  15.647  17.306  12.970
32427W        W 4098  33.129   9.416   3.753
32428W        W 4099  27.754  12.139   1.863
32429W        W 4100  32.979  41.160  12.803
32430W        W 4101  41.977  43.889  10.585
32431W        W 4102   9.712  28.954  13.440
32432W        W 4103  38.958  35.508   2.511
32433W        W 4104  37.132   1.794  10.850
32434W        W 4105  41.073  13.397  12.065
32435W        W 4106  27.483   8.238  10.736
32436W        W 4107  10.080  22.787  12.716
32437W        W 4108  34.502  20.980  12.314
32438W        W 4109  18.693  44.240   4.128
32439W        W 4110   0.392  39.413   3.225
32440W        W 4111   4.593  40.341   1.318
32441W        W 4112   8.345  24.250   3.630
32442W        W 4113   0.944   3.842   1.327
32443W        W 4114   5.741  42.383   0.280
32444W        W 4115  35.434  28.049  13.045
32445W        W 4116  26.405  17.679  14.201
32446W        W 4117  36.358  19.316   0.235
32447W        W 4118  11.338  15.058   3.698
32448W        W 4119   8.655  29.389  12.483
32449W        W 4120  29.471  32.191  14.627
32450W        W 4121  28.493  33.461  10.253
32451W        W 4122  34.465   0.165   3.212
32452W        W 4123  31.038  29.861   4.180
32453W        W 4124   3.206   6.172   4.099
32454W        W 4125  34.334   1.838  14.008
32455W        W 4126  24.010   7.600   1.722
32456W        W 4127  28.958   6.147   1.529
32457W        W 4128  17.945   9.756   1.661
32458W        W 4129  41.970  19.671   2.639
32459W        W 4130  27.172  18.511  12.944
32460W        W 4131  28.346  36.514   1.269
32461W        W 4132  29.997  42.514  14.301
32462W        W 4133  31.948  18.566  14.040
32463W        W 4134  36.350  35.553  13.786
32464W        W 4135  18.177   6.736  13.404
32465W        W 4136   6.620  12.115  14.413
32466W        W 4137  21.691  10.009   2.480
32467W        W 4138  19.249  41.355   3.629
32468W        W 4139  24.494  28.919  10.725
32469W        W 4140  29.642   6.447  11.563
32470W        W 4141  26.609  32.177  13.089
32471W        W 4142  20.830   7.490   3.757
32472W        W 4143   8.661  24.167   1.384
32473W        W 4144  12.761   8.219   0.272
32474W        W 4145  25.167  15.251  14.252
32475W        W 4146  40.920  18.786  12.986
32476W        W 4147  20.017  39.123  10.286
32477W        W 4148  40.429  44.534   3.709
32478W        W 4149  32.933  18.307  11.978
32479W        W 4150  43.304  17.004  11.683
32480W        W 4151  13.700  22.270   0.798
32481W        W 4152   0.311  22.229  13.020
32482W        W 4153  26.876  10.280  10.657
32483W        W 4154  40.508  21.465   2.693
32484W        W 4155  36.084  29.248  12.999
32485W        W 4156  33.939  30.862   3.708
32486W        W 4157  30.719   1.821  11.994
32487W        W 4158   2.736  28.028  12.283
32488W        W 4159   5.076  39.839  12.883
32489W        W 4160   4.118  20.258   3.870
32490W        W 4161  28.474  20.336  14.511
32491W        W 4162   4.569  41.993  12.031
32492W        W 4163  31.363  24.484   4.734
32493W        W 4164  35.950  19.809   0.935
32494W        W 4165   6.729  11.028   1.992
32495W        W 4166  43.094  40.961   1.932
32496W        W 4167  10.257  38.738   0.356
32497W        W 4168  17.510  16.978   1.986
32498W        W 4169   5.375  26.363   4.295
32499W        W 4170   3.163  33.215   1.733
32500W        W 4171   9.388  41.082   5.072
32501W        W 4172   1.140  42.803   5.112
32502W        W 4173  27.041  31.485  14.102
32503W        W 4174  40.453   3.416  10.419
32504W        W 4175   8.798  30.607   2.834
32505W        W 4176  34.896  43.064  14.281
32506W        W 4177  17.292  28.135   2.146
32507W        W 4178  21.610  38.132   3.632
32508W        W 4179  19.824  13.655  10.600
32509W        W 4180  30.876  29.017   0.885
32510W        W 4181  15.123  30.492   4.644
32511W        W 4182  30.350  11.821  11.133
32512W        W 4183  13.092  10.982  10.925
32513W        W 4184  24.672  33.638   2.389
32514W        W 4185   1.815   3.004  13.558
32515W        W 4186   0.781   7.883  11.016
32516W        W 4187  12.394  14.171   2.237
32517W        W 4188  37.453  22.149   2.328
32518W        W 4189  32.644   6.520   4.702
32519W        W 4190  19.988  10.518  14.355
32520W        W 4191  22.678  28.182  11.892
32521W        W 4192  44.012  24.003   1.876
32522W        W 4193  12.700   7.694  10.529
32523W        W 4194  16.836  32.026   2.446
32524W        W 4195  41.866  25.675   4.674
32525W        W 4196  26.369  10.333  10.715
32526W        W 4197  40.555  16.288   1.612
32527W        W 4198  31.476  24.792   3.816
32528W        W 4199   0.930  20.411   4.310
32529W        W 4200  13.236   7.731   3.691
32530W        W 4201  19.848  23.926  12.993
32531W        W 4202  13.611   0.130  11.678
32532W        W 4203  24.999  42.500  12.551
32533W        W 4204  37.930  25.521  11.747
32534W        W 4205  26.439  33.665   3.123
32535W        W 4206  18.075   9.595   0.312
32536W        W 4207  20.155  42.499  11.067
32537W        W 4208  24.175  16.235   0.993
32538W        W 4209  35.696  27.581   0.784
32539W        W 4210  17.003  36.121   1.345
32540W        W 4211   7.920   6.091  13.563
32541W        W 4212  15.625  31.733   1.788
32542W        W 4213   9.279  32.944  14.502
32543W        W 4214  18.607  43.580   2.549
32544W        W 4215  14.112  15.999   3.361
32545W        W 4216  29.240   2.397  12.074
32546W        W 4217  39.289  10.801   2.771
32547W        W 4218  12.333  28.747  12.927
32548W        W 4219  35.535  31.490   4.511
32549W        W 4220  42.542  25.461  11.705
32550W        W 4221  38.774  39.458  11.288
32551W        W 4222  41.015   7.674   0.309
32552W        W 4223  19.823  31.086   1.578
32553W        W 4224   0.416  10.113   2.304
32554W        W 4225  23.764   0.468  11.455
32555W        W 4226  18.958  21.318  13.319
32556W        W 4227  22.250  36.856  12.037
32557W        W 4228   1.005  17.757  13.470
32558W        W 4229  36.193   1.568  11.980
32559W        W 4230  31.982   8.812  12.157
32560W        W 4231   0.204  12.895  13.688
32561W        W 4232   9.935  39.106   2.931
32562W        W 4233  26.459  38.988   3.269
32563W        W 4234   2.372   2.426  14.118
32564W        W 4235  11.716   2.866  13.210
32565W        W 4236  14.328  13.796  14.981
32566W        W 4237   6.613  17.401   0.458
32567W        W 4238  40.246  12.883  11.914
32568W        W 4239  32.850   6.637  13.508
32569W        W 4240  16.271  24.578   3.983
32570W        W 4241  25.191  32.358   1.841
32571W        W 4242  24.625  38.286   2.995
32572W        W 4243  24.936  39.125   3.511
32573W        W 4244  38.068  32.196   4.570
32574W        W 4245  19.215  41.068   3.171
32575W        W 4246  14.839   5.459   1.206
32576W        W 4247  32.158   3.334   0.493
32577W        W 4248  19.152  34.936  13.816
32578W        W 4249  31.838  24.513  12.042
32579W        W 4250   2.804  40.040  13.912
32580W        W 4251  32.054  14.817   1.310
32581W        W 4252   0.396  25.681   2.163
32582W        W 4253  24.515  29.713   0.868
32583W        W 4254  20.035  38.469  10.612
32584W        W 4255  25.161  35.396   0.374
32585W        W 4256  29.755  34.206   2.381
32586W        W 4257  12.889  12.540   2.648
32587W        W 4258  10.707  40.633   0.843
32588W        W 4259   2.912  42.807   4.692
32589W        W 4260   8.581   1.360   3.753
32590W        W 4261  29.607  32.722  10.766
32591W        W 4262  43.503  29.514   1.610
32592W        W 4263  27.019  44.220   1.420
32593W        W 4264   9.870   3.315  14.735
32594W        W 4265  43.518  44.309   3.428
32595W        W 4266  24.945  27.548   2.839
32596W        W 4267  23.633  15.926  13.442
32597W        W 4268  20.710  10.702  12.563
32598W        W 4269  25.319  40.807   1.706
32599W        W 4270  13.515  36.309   1.226
32600W        W 4271  30.917  40.422  14.924
32601W        W 4272  30.030  27.581  11.709
32602W        W 4273   5.337  11.083   4.236
32603W        W 4274  37.032  39.967  11.090
32604W        W 4275  35.350  34.953  10.615
32605W        W 4276  22.094  38.370  11.960
32606W        W 4277  22.004  19.663  12.246
32607W        W 4278  34.503  12.344   1.916
32608W        W 4279  29.067  31.809  13.792
32609W        W 4280  40.879  31.132   2.316
32610W        W 4281  13.372  19.960  11.657
32611W        W 4282  15.997   1.043  13.575
32612W        W 4283   0.751  41.489   3.191
32613W        W 4284   3.894  19.503   4.281
32614W        W 4285  16.051  31.007   2.118
32615W        W 4286  38.297   3.711  11.137
32616W        W 4287  20.165  11.194   1.808
32617W        W 4288  16.864   7.887   0.563
32618W        W 4289  30.056   0.009   4.512
32619W        W 4290  38.864  36.580  11.085
32620W        W 4291  44.821  15.787  13.345
32621W        W 4292  31.058  19.197   2.472
32622W        W 4293  13.508   6.638   0.332
32623W        W 4294  43.742  17.228  14.940
32624W        W 4295  23.424  14.077  12.286
32625W        W 4296  13.264  37.223  13.867
32626W        W 4297  10.387   6.941  14.181
32627W        W 4298  33.686  34.848  13.447
32628W        W 4299  35.798  12.654   3.402
32629W        W 4300  20.489  32.323   0.757
32630W        W 4301  32.635   2.973  14.889
32631W        W 4302  13.169  18.783  13.842
32632W        W 4303  38.794  31.346   3.157
32633W        W 4304  35.961  22.570   2.786
32634W        W 4305  14.292   9.173   3.692
32635W        W 4306  15.232  44.344   0.570
32636W        W 4307   3.710  24.629  11.168
32637W        W 4308  37.125  19.637  11.707
32638W        W 4309  31.335  40.344  11.227
32639W        W 4310  14.731  33.493   2.640
32640W        W 4311  12.601  28.636   1.180
32641W        W 4312   7.802  28.615  14.660
32642W        W 4313  27.268  40.053  13.450
32643W        W 4314  38.345  43.308   2.334
32644W        W 4315   6.239   1.996  11.679
32645W        W 4316  26.930   3.893  11.569
32646W        W 4317  21.502  25.482   3.794
32647W        W 4318  39.819  12.278   1.744
32648W        W 4319  12.290   3.158   3.361
32649W        W 4320  39.262  39.183   0.424
32650W        W 4321  24.674  35.422   2.839
32651W        W 4322   2.667   2.457   2.340
32652W        W 4323   9.550  21.466   2.738
32653W        W 4324   9.744  41.911  13.421
32654W        W 4325  23.271   3.370  14.848
32655W        W 4326  36.592  25.445   1.926
32656W        W 4327  39.050   8.129   2.796
32657W        W 4328  36.029  25.696  14.807
32658W        W 4329  35.071   4.778   3.662
32659W        W 4330  32.678  30.672  12.111
32660W        W 4331   7.956  20.550  12.401
32661W        W 4332  32.354   6.848  10.722
32662W        W 4333  22.768  42.283   1.751
32663W        W 4334  12.678  25.828  13.885
32664W        W 4335  42.891  23.051  13.044
32665W        W 4336  33.116  14.425  12.394
32666W        W 4337  32.993  25.456   3.195
32667W        W 4338  28.923  15.691   3.717
32668W        W 4339  27.167  28.214  12.113
32669W        W 4340  30.436  24.605   4.551
32670W        W 4341  25.560   4.027  14.062
32671W        W 4342   8.548   2.336  12.554
32672W        W 4343  34.143  20.671  14.802
32673W        W 4344   8.456  33.157  13.704
32674W        W 4345  35.988  29.523   3.886
32675W        W 4346  36.430  28.241   1.445
32676W        W 4347  36.137  14.043   2.043
32677W        W 4348  13.363  13.291  10.584
32678W        W 4349  30.499  30.430   0.928
32679W        W 4350  38.079  42.157  14.426
32680W        W 4351  40.933  24.803  13.579
32681W        W 4352   0.329  12.063   0.413
32682W        W 4353  19.315  22.832  11.619
32683W        W 4354   3.883  12.691  14.752
32684W        W 4355  30.428   9.850   3.661
32685W        W 4356  31.498  38.952  11.965
32686W        W 4357  12.640  23.758  10.789
32687W        W 4358  22.052   6.382  13.313
32688W        W 4359  28.848  37.816   1.154
32689W        W 4360   7.387  24.703   2.326
32690W        W 4361  26.216  31.527  11.529
32691W        W 4362   8.695  12.992  13.616
32692W        W 4363   6.299  35.572   4.151
32693W        W 4364   8.930  16.879  14.854
32694W        W 4365  21.501  44.684  11.440
32695W        W 4366  12.045  28.109   3.256
32696W        W 4367  15.641   2.900   2.425
32697W        W 4368  20.538   0.209  13.119
32698W        W 4369  18.742  25.982   0.010
32699W        W 4370  24.512  12.998   3.744
32700W        W 4371   9.237  19.273  13.586
32701W        W 4372  19.389  31.179   0.752
32702W        W 4373  18.759   5.159   1.278
32703W        W 4374  43.323  24.505   2.835
32704W        W 4375  38.907  32.835   4.673
32705W        W 4376  15.664  40.759   1.148
32706W        W 4377  13.587   6.954   2.242
32707W        W 4378  11.262  18.313  14.883
32708W        W 4379  30.725  24.416   1.430
32709W        W 4380  21.560  36.981   1.015
32710W        W 4381  15.641  31.491   0.478
32711W        W 4382  39.534  35.625   4.637
32712W        W 4383  38.099  34.265  11.933
32713W        W 4384  11.550  30.479   0.397
32714W        W 4385  12.659  36.984   2.149
32715W        W 4386   6.218  11.644   0.800
32716W        W 4387  43.624  11.405  10.048
32717W        W 4388  42.167  25.005   1.705
32718W        W 4389  32.441  43.837   3.263
32719W        W 4390  33.616  36.082  12.325
32720W        W 4391   1.901   6.320  10.661
32721W        W 4392  25.117  12.840  14.334
32722W        W 4393   9.862  19.630  11.402
32723W        W 4394  22.597  41.665   2.750
32724W        W 4395   7.977  18.385   4.180
32725W        W 4396  23.248   9.314  13.883
32726W        W 4397  32.431  36.785   0.758
32727W        W 4398  12.869  29.625  12.855
32728W        W 4399  44.918  39.325   5.538
32729W        W 4400   4.805  21.549  10.459
32730W        W 4401  18.716   6.141  12.489
32731W        W 4402  34.666  19.085   3.751
32732W        W 4403  38.015   0.743   3.673
32733W        W 4404   8.698  16.703   1.235
32734W        W 4405  18.294  44.928  12.288
32735W        W 4406   1.390  41.519   3.758
32736W        W 4407  19.520  35.785   4.354
32737W        W 4408   6.843  43.864   1.887
32738W        W 4409  31.089  14.829   4.178
32739W        W 4410  42.796  11.750   5.534
32740W        W 4411  30.431  30.236  13.838
32741W        W 4412  37.352  38.952   1.426
32742W        W 4413  30.054  38.213   4.454
32743W        W 4414  10.915  26.047  12.471
32744W        W 4415  26.420  22.941   0.912
32745W        W 4416  24.997  36.874  11.045
32746W        W 4417  25.555  24.094   4.444
32747W        W 4418  21.575  39.477   0.715
32748W        W 4419  38.469   1.031  13.551
32749W        W 4420  14.672   7.903   4.936
32750W        W 4421  40.637  33.395   2.180
32751W        W 4422   5.773   7.196   2.083
32752W        W 4423  42.285  21.085   2.247
32753W        W 4424  20.768  37.447   0.421
32754W        W 4425  16.750  29.496   4.614
32755W        W 4426  38.553   2.469   4.768
32756W        W 4427  25.583  23.486   2.353
32757W        W 4428  35.684  13.274   1.518
32758W        W 4429   3.956  44.685   1.314
32759W        W 4430  24.705  38.085  10.480
32760W        W 4431  28.942  37.295  13.000
32761W        W 4432   2.244  41.464  13.496
32762W        W 4433   9.226   0.068   4.048
32763W        W 4434  30.181  32.987  14.361
32764W        W 4435  13.017   8.413  12.074
32765W        W 4436   1.866   7.344   2.665
32766W        W 4437  33.686   4.874  13.416
32767W        W 4438   8.783  43.735   3.398
32768W        W 4439  23.675  18.328  10.614
32769W        W 4440  21.560  10.177   4.616
32770W        W 4441  38.241   8.426  12.983
32771W        W 4442  44.936  38.781  12.842
32772W        W 4443   0.788  36.217  11.554
32773W        W 4444  12.382  38.448   3.885
32774W        W 4445  38.864  35.010   4.311
32775W        W 4446   8.895  14.251   0.145
32776W        W 4447  18.133  44.933  14.915
32777W        W 4448   7.776  14.185  13.249
32778W        W 4449  28.218  25.296  14.358
32779W        W 4450   4.560  38.592   1.951
32780W        W 4451  20.503  22.984   2.324
32781W        W 4452   7.664  31.673   3.886
32782W        W 4453   2.988  18.876  12.999
32783W        W 4454   8.261  19.612  14.111
32784W        W 4455   7.872  15.868   0.264
32785W        W 4456  43.920  12.611   4.635
32786W        W 4457  10.421   9.094  12.496
32787W        W 4458   3.692  26.847  12.480
32788W        W 4459  12.314  34.879   3.375
32789W        W 4460  12.845  11.610   0.028
32790W        W 4461  21.313  10.901   4.208
32791W        W 4462  38.422  21.192  10.355
32792W        W 4463  42.156  13.429   2.443
32793W        W 4464  19.511  29.933  11.280
32794W        W 4465   9.669  37.627   1.823
32795W        W 4466  24.547  11.115   0.994
32796W        W 4467  33.139   0.279  13.398
32797W        W 4468  41.580  15.757  11.070
32798W        W 4469  42.429  16.587   2.620
32799W        W 4470   3.981  41.553   4.009
32800W        W 4471  44.746  36.144   2.638
32801W        W 4472   7.475  25.283   0.230
32802W        W 4473  42.899  29.962  11.059
32803W        W 4474  38.361   6.902  13.273
32804W        W 4475   8.489  14.973  11.891
32805W        W 4476  28.729  24.942  12.078
32806W        W 4477  25.484  33.968   4.574
32807W        W 4478  38.887  41.774   4.138
32808W        W 4479  33.728  33.082  11.145
32809W        W 4480  31.510  32.570   0.366
32810W        W 4481   7.779   0.221   2.299
32811W        W 4482  32.139  27.919   2.547
32812W        W 4483   8.728  16.041  11.583
32813W        W 4484  32.956  20.632  13.851
32814W        W 4485  21.988  13.060  11.076
32815W        W 4486  34.636   6.362  12.459
32816W        W 4487  34.354  14.681  13.134
32817W        W 4488  10.914  16.451  14.940
32818W        W 4489  15.114   4.917   4.217
32819W        W 4490   8.148  14.873  14.081
32820W        W 4491   2.288  13.310   1.760
32821W        W 4492  23.119  33.455   1.470
32822W        W 4493  36.441  23.498  11.704
32823W        W 4494  26.568  20.269  14.320
32824W        W 4495   2.939  17.572   0.814
32825W        W 4496  30.927  13.315  11.131
32826W        W 4497   5.548   9.907   0.165
32827W        W 4498  39.387  40.644  11.656
32828W        W 4499  27.967  26.111  10.937
32829W        W 4500  26.634   8.666  11.941
32830W        W 4501  12.109  28.995   2.072
32831W        W 4502   4.248   7.378   2.345
32832W        W 4503  14.935   7.205  10.156
32833W        W 4504   2.967   8.323  11.591
32834W        W 4505  11.725  40.577  10.754
32835W        W 4506  28.854  39.765  10.987
32836W        W 4507  29.141   9.750  14.706
32837W        W 4508  21.497  26.070   5.262
32838W        W 4509   3.841  33.095  12.387
32839W        W 4510  10.219  26.648   3.173
32840W        W 4511   2.626  41.258  10.321
32841W        W 4512  31.737  29.192  11.093
32842W        W 4513  38.649   2.461  10.730
32843W        W 4514  17.311   7.712   0.438
32844W        W 4515  41.883  41.008   3.042
32845W        W 4516  38.612  20.312  11.161
32846W        W 4517  42.238   8.836  10.743
32847W        W 4518   1.645  33.862  11.463
32848W        W 4519  32.381  15.299   0.384
32849W        W 4520  29.808  32.968   2.728
32850W        W 4521  39.807  11.638  12.590
32851W        W 4522  40.011  31.361  13.984
32852W        W 4523  38.407   2.502  12.996
32853W        W 4524   6.667   4.418  14.775
32854W        W 4525  11.690  15.175  14.755
32855W        W 4526  34.459  19.632   3.865
32856W        W 4527  40.029  27.510   1.206
32857W        W 4528  23.599  36.974   2.479
32858W        W 4529   8.804  11.856   1.420
32859W        W 4530  37.248   2.694  11.451
32860W        W 4531  39.234   4.799  13.033
32861W        W 4532  16.912   0.996  11.934
32862W        W 4533   7.747   2.739   1.326
32863W        W 4534  14.334  40.857   0.929
32864W        W 4535   7.024  24.869   0.328
32865W        W 4536   2.696   6.945   1.670
32866W        W 4537  26.214   4.327  12.751
32867W        W 4538  33.476  42.267  12.525
32868W        W 4539   2.571  38.138  10.761
32869W        W 4540  28.128   8.917  12.914
32870W        W 4541  20.763   9.785   4.236
32871W        W 4542  13.774   3.770   1.885
32872W        W 4543  23.481   0.973  11.526
32873W        W 4544  21.170  11.236  12.894
32874W        W 4545  35.567  31.945  13.313
32875W        W 4546   4.434   1.689   1.824
32876W        W 4547  29.980  24.737  14.825
32877W        W 4548  31.570  36.459   0.729
32878W        W 4549  16.746  11.089   1.001
32879W        W 4550  35.839  22.580   1.930
32880W        W 4551  28.449   3.651   0.273
32881W        W 4552   7.915  31.548  10.684
32882W        W 4553  42.764  10.323  11.925
32883W        W 4554  36.807   2.593  11.186
32884W        W 4555  24.064  44.968   4.103
32885W        W 4556  16.188   5.638  12.524
32886W        W 4557  16.252  40.572  14.516
32887W        W 4558  14.684  40.193   3.409
32888W        W 4559  44.420  19.504  14.522
32889W        W 4560  21.744  29.588  13.134
32890W        W 4561  31.424  12.813   2.098
32891W        W 4562  38.774  16.755   1.298
32892W        W 4563  18.120  36.540  12.964
32893W        W 4564  11.389  41.681   1.914
32894W        W 4565   6.486  11.148   3.826
32895W        W 4566  27.170  23.235   1.161
32896W        W 4567   9.490  23.656  11.969
32897W        W 4568  44.505  22.077   3.120
32898W        W 4569  37.564   6.470   4.184
32899W        W 4570  12.548   7.425  14.019
32900W        W 4571   8.819   3.429   2.648
32901W        W 4572  26.982   5.855  11.943
32902W        W 4573  39.456  34.052   2.777
32903W        W 4574  26.496  18.713  14.277
32904W        W 4575   8.218  43.183  13.339
32905W        W 4576  21.993  20.033  10.472
32906W        W 4577  41.342  11.891  13.454
32907W        W 4578   6.440   5.570   2.771
32908W        W 4579   6.116  21.126  12.315
32909W        W 4580  41.333  42.071  13.943
32910W        W 4581  21.042   1.816  13.788
32911W        W 4582  18.315  41.877  13.956
32912W        W 4583   3.528  22.084   4.767
32913W        W 4584   5.676   7.872   3.372
32914W        W 4585  44.377   9.102   3.834
32915W        W 4586  17.156  35.336   0.803
32916W        W 4587  18.407  39.031  14.816
32917W        W 4588   0.530   7.265  13.862
32918W        W 4589  10.746  12.762  13.411
32919W        W 4590  11.853  20.570   3.294
32920W        W 4591   0.828  34.588  11.564
32921W        W 4592  25.139  20.321  14.094
32922W        W 4593  19.779  28.094  13.861
32923W        W 4594  12.281  13.430   3.253
32924W        W 4595  28.806  38.628  13.344
32925W        W 4596   8.546   9.638  12.652
32926W        W 4597  24.601  15.017  13.517
32927W        W 4598  25.622  41.383   2.402
32928W        W 4599  38.317  25.344  12.106
32929W        W 4600  17.140  36.565  14.454
32930W        W 4601  26.867   6.019  14.445
32931W        W 4602   9.861  16.829   2.603
32932W        W 4603  28.669  41.966  12.600
32933W        W 4604  19.987   6.296  10.723
32934W        W 4605  25.511  30.533   1.749
32935W        W 4606  11.437  21.147  14.869
32936W        W 4607  40.696  15.173  14.565
32937W        W 4608  14.575   6.349  11.287
32938W        W 4609  30.485   7.794  11.669
32939W        W 4610  10.800   0.742  13.307
32940W        W 4611  38.631  10.741   3.584
32941W        W 4612  16.807  22.734  12.621
32942W        W 4613  19.066  18.808  11.411
32943W        W 4614  44.299  13.289  14.893
32944W        W 4615  41.476  44.671   3.536
32945W        W 4616   1.052  32.442  11.122
32946W        W 4617  19.100  14.052  11.206
32947W        W 4618  28.026   5.562  10.214
32948W        W 4619  27.462  22.518   3.312
32949W        W 4620  25.954  25.779  11.976
32950W        W 4621  18.708  26.517  10.924
32951W        W 4622  18.549  40.576  14.252
32952W        W 4623   8.921  43.866  12.617
32953W        W 4624  23.594  33.994  11.315
32954W        W 4625  26.190  12.943  13.846
32955W        W 4626  10.446  34.701  11.696
32956W        W 4627  27.953  33.102   3.416
32957W        W 4628  20.354  36.127  11.337
32958W        W 4629  20.971  22.519   4.554
32959W        W 4630  23.630  38.849  10.348
32960W        W 4631   8.656  15.522  11.638
32961W        W 4632  44.413  15.037  13.247
32962W        W 4633  42.949  34.795   1.451
32963W        W 4634  40.946  39.773   4.053
32964W        W 4635  34.476   9.236  10.789
32965W        W 4636  21.574  44.085  13.403
32966W        W 4637  38.436  10.191   4.209
32967W        W 4638  39.396  36.900   2.720
32968W        W 4639  12.430  29.319   2.329
32969W        W 4640  43.364  40.983  13.381
32970W        W 4641   8.429   1.818  12.066
32971W        W 4642  26.553   8.497   2.711
32972W        W 4643  37.260  37.845   1.887
32973W        W 4644   4.925  23.755  10.063
32974W        W 4645  18.620   8.434   4.133
32975W        W 4646  38.843   1.724  14.483
32976W        W 4647  32.038  23.075   2.365
32977W        W 4648  20.492  21.187   0.439
32978W        W 4649  40.554  19.610  11.516
32979W        W 4650  42.884  19.034  13.470
32980W        W 4651  14.810  14.631  11.726
32981W        W 4652   4.039   7.901   3.714
32982W        W 4653  36.036  44.772  10.753
32983W        W 4654   0.485   2.876  13.279
32984W        W 4655   7.969   9.955   1.315
32985W        W 4656  22.142  20.076  11.982
32986W        W 4657  25.464   3.920   0.445
32987W        W 4658  31.861  17.677  12.026
32988W        W 4659  29.674  23.612  12.915
32989W        W 4660  13.426   3.749  13.571
32990W        W 4661  26.118  28.020  10.502
32991W        W 4662  34.075  15.502   2.162
32992W        W 4663   1.615   2.905   3.045
32993W        W 4664  21.026  29.458   4.062
32994W        W 4665  42.077  29.557   3.598
32995W        W 4666   7.244   8.491   4.768
32996W        W 4667  10.223  39.127   3.845
32997W        W 4668  38.169  12.317  11.255
32998W        W 4669  42.872  10.638   0.429
32999W        W 4670  20.638  29.863   0.862
33000W        W 4671  44.849  35.797  11.136
33001W        W 4672  14.835  36.313  11.161
33002W        W 4673   5.233   8.306   1.966
33003W        W 4674  30.893  42.301   0.701
33004W        W 4675   9.147   2.729   0.712
33005W        W 4676  20.486  26.036   0.463
33006W        W 4677  44.643  16.397  10.392
33007W        W 4678  19.366  44.407   0.861
33008W        W 4679   7.346  16.006  11.972
33009W        W 4680   7.950  16.115   1.960
33010W        W 4681   4.613  16.254  11.907
33011W        W 4682   4.679  26.528  13.770
33012W        W 4683  25.118   2.471  13.148
33013W        W 4684  26.808  10.515  14.887
33014W        W 4685  26.791   2.751   2.779
33015W        W 4686  36.851  16.944   2.185
33016W        W 4687  43.728   2.670  12.386
33017W        W 4688  31.074  29.330   2.281
33018W        W 4689   9.912  18.183   0.841
33019W        W 4690  29.205  10.129  13.452
33020W        W 4691  39.266   6.459   0.965
33021W        W 4692  17.312  20.030   3.633
33022W        W 4693   8.005  42.713   2.175
33023W        W 4694  16.342  18.727  13.082
33024W        W 4695  17.788  16.837   1.570
33025W        W 4696  32.976  24.416   4.120
33026W        W 4697  20.107   5.645   2.311
33027W        W 4698  32.514  33.848  14.934
33028W        W 4699  11.621  11.383  11.154
33029W        W 4700  40.778  19.118  14.934
33030W        W 4701  29.155  18.050  14.393
33031W        W 4702  10.824  28.803   0.127
33032W        W 4703  38.695   7.450   4.706
33033W        W 4704  15.596  31.401  13.508
33034W        W 4705  23.963  11.336  12.501
33035W        W 4706  33.020  41.761   2.223
33036W        W 4707  12.038  12.762  10.204
33037W        W 4708   6.194   7.770  11.869
33038W        W 4709  40.858  39.339  14.958
33039W        W 4710   3.689  44.753   3.530
33040W        W 4711  34.787  16.695  12.877
33041W        W 4712  43.002   3.686  13.336
33042W        W 4713  31.184  36.451  12.106
33043W        W 4714  34.482  14.055  14.322
33044W        W 4715  41.318  37.970   2.776
33045W        W 4716   7.009  18.267   1.806
33046W        W 4717  22.026  42.424   0.864
33047W        W 4718  37.026   9.454   2.768
33048W        W 4719  30.409   5.382  14.316
33049W        W 4720   8.278  16.433   0.726
33050W        W 4721  24.572  16.044  13.385
33051W        W 4722  18.833  14.578  10.166
33052W        W 4723  35.310  29.996  11.583
33053W        W 4724  40.278  11.414   2.568
33054W        W 4725  19.542   7.452   4.350
33055W        W 4726  16.331   2.215   0.768
33056W        W 4727  30.041  17.619   4.277
33057W        W 4728   6.887   4.261   2.359
33058W        W 4729  30.656  34.095   1.463
33059W        W 4730  15.497  42.790  10.708
33060W        W 4731  42.323  35.070   2.113
33061W        W 4732  11.231  31.175  14.983
33062W        W 4733   3.732   8.248  11.127
33063W        W 4734  31.542  39.819  11.153
33064W        W 4735  21.500   7.763  11.025
33065W        W 4736  30.507  27.465  14.744
33066W        W 4737  18.933  24.188  13.885
33067W        W 4738  39.543   2.179  12.556
33068W        W 4739  25.175   0.964  13.307
33069W        W 4740   7.816  17.179  10.268
33070W        W 4741  43.260  26.430  12.418
33071W        W 4742  41.432  35.162  11.592
33072W        W 4743  11.664   0.853   3.161
33073W        W 4744  21.593  12.599  13.817
33074W        W 4745   5.866  37.384   3.138
33075W        W 4746  36.640  20.759   4.251
33076W        W 4747   1.920  39.906  11.256
33077W        W 4748  17.184  32.608  13.925
33078W        W 4749  39.973  21.178  11.725
33079W        W 4750   2.733   1.217   0.002
33080W        W 4751  39.045  26.745  14.013
33081W        W 4752  12.328  39.647   1.838
33082W        W 4753   6.257   2.483   3.543
33083W        W 4754   0.554  37.100   3.294
33084W        W 4755  42.372  15.518   3.680
33085W        W 4756  40.322   1.792   4.177
33086W        W 4757  38.859  16.353  10.611
33087W        W 4758  42.262  29.159   3.863
33088W        W 4759   1.848  13.017   0.479
33089W        W 4760  44.609  44.534   1.527
33090W        W 4761  26.589  34.811   5.127
33091W        W 4762  37.918  20.033  12.089
33092W        W 4763   2.379  14.313   3.759
33093W        W 4764   4.364   8.359   1.407
33094W        W 4765  27.321   8.043   3.063
33095W        W 4766   3.281  37.898  12.909
33096W        W 4767  12.726  43.710   0.367
33097W        W 4768  21.155  38.964   1.953
33098W        W 4769  17.269  26.134   1.454
33099W        W 4770  13.364   8.782  13.894
33100W        W 4771  22.510  11.835   2.872
33101W        W 4772   0.166  30.535  13.909
33102W        W 4773  30.503   7.885   1.718
33103W        W 4774  19.737  27.883  12.355
33104W        W 4775  33.118  26.079  14.431
33105W        W 4776   8.014   1.718  14.080
33106W        W 4777   3.450  35.357   0.918
33107W        W 4778   4.812  28.924   1.311
33108W        W 4779  36.567  20.171   1.807
33109W        W 4780  37.281  37.944   3.649
33110W        W 4781   7.603  39.153   1.832
33111W        W 4782  15.357  33.945   4.344
33112W        W 4783  32.036  12.692   5.167
33113W        W 4784  21.097  29.187  11.862
33114W        W 4785   9.315  41.202  14.330
33115W        W 4786  24.125   1.355  14.869
33116W        W 4787   6.627  43.094  13.730
33117W        W 4788  31.227  30.063   3.745
33118W        W 4789  40.395  13.311   2.252
33119W        W 4790  19.008  29.165  13.899
33120W        W 4791  11.978  41.610   4.141
33121W        W 4792  39.573   9.155  14.373
33122W        W 4793   3.997   2.393  12.748
33123W        W 4794  27.326  40.806   1.345
33124W        W 4795   0.375  34.822  11.627
33125W        W 4796  40.530  42.513  11.167
33126W        W 4797  38.550  18.385   2.791
33127W        W 4798  20.668  37.014  14.290
33128W        W 4799  35.231   9.642   1.365
33129W        W 4800  28.383   4.219  11.172
33130W        W 4801   6.346  12.854   4.092
33131W        W 4802  24.011   5.921  12.060
33132W        W 4803  22.690  28.068  12.866
33133W        W 4804  39.376   6.907   1.298
33134W        W 4805  31.554  24.213   0.335
33135W        W 4806  11.486  10.199  14.059
33136W        W 4807   2.284   7.384  12.343
33137W        W 4808   3.804  10.587   2.597
33138W        W 4809  25.215  42.311  12.026
33139W        W 4810  34.945  37.804   3.591
33140W        W 4811  15.755  20.197   2.882
33141W        W 4812  25.034  21.332  11.176
33142W        W 4813  24.612  39.547   1.881
33143W        W 4814  31.411   7.824   1.660
33144W        W 4815  44.295  41.167  12.088
33145W        W 4816  27.562  39.921  11.773
33146W        W 4817  24.070  13.277  13.021
33147W        W 4818  33.982  16.831  14.253
33148W        W 4819  19.315   3.696  14.680
33149W        W 4820   2.506  36.928  14.581
33150W        W 4821  31.194  43.688  13.624
33151W        W 4822  14.078   4.892   4.203
33152W        W 4823  16.698   4.944  10.176
33153W        W 4824  33.903  38.083   0.689
33154W        W 4825  25.359  20.592   3.273
33155W        W 4826  38.262  23.466   2.217
33156W        W 4827  34.496   8.254  10.832
33157W        W 4828  44.009  11.832   0.549
33158W        W 4829  14.783   0.790  11.062
33159W        W 4830   9.361  30.041  12.121
33160W        W 4831   8.241   7.343  11.457
33161W        W 4832  23.603  17.088   1.715
33162W        W 4833   8.196  32.379   2.665
33163W        W 4834  38.070  39.667  10.682
33164W        W 4835  34.907  36.995  11.622
33165W        W 4836   2.243  29.181  12.964
33166W        W 4837  26.151  15.782   4.546
33167W        W 4838  20.676  28.120   5.085
33168W        W 4839  42.546  21.921  10.940
33169W        W 4840  26.999  26.549  12.732
33170W        W 4841  44.244  13.798   0.067
33171W        W 4842  11.624   5.678   4.389
33172W        W 4843  25.410   6.971  14.322
33173W        W 4844  30.081   8.423   1.844
33174W        W 4845  18.752  13.577  14.797
33175W        W 4846   7.688   6.086  11.113
33176W        W 4847   2.461  23.799   2.324
33177W        W 4848  28.005   7.771   3.603
33178W        W 4849  19.382  19.786  11.634
33179W        W 4850  34.947  23.488  14.519
33180W        W 4851  35.127  18.709  13.486
33181W        W 4852  12.226   9.341  13.589
33182W        W 4853   9.917  12.623  12.832
33183W        W 4854  41.205  44.911  11.058
33184W        W 4855  41.514  28.121   0.364
33185W        W 4856   8.748   8.630   3.750
33186W        W 4857   1.515  42.767   1.242
33187W        W 4858  23.989  29.408   2.785
33188W        W 4859  38.014   2.849   1.680
33189W        W 4860  14.621  24.299  13.732
33190W        W 4861  12.568  31.700  12.168
33191W        W 4862   5.389  16.344   4.592
33192W        W 4863  17.637   8.809   1.398
33193W        W 4864  37.971  34.665  13.314
33194W        W 4865  22.254  42.592  11.959
33195W        W 4866   8.302  10.280   4.658
33196W        W 4867  18.603  17.106  11.103
33197W        W 4868  14.214   6.907   0.514
33198W        W 4869  41.235  15.257  13.849
33199W        W 4870  38.533  21.732   3.390
33200W        W 4871  29.822  34.988   4.546
33201W        W 4872  23.014  12.039   2.042
33202W        W 4873   1.938  33.972  14.974
33203W        W 4874  12.848  41.549   3.444
33204W        W 4875  30.374  42.697   3.604
33205W        W 4876  14.901  14.791  13.758
33206W        W 4877   0.434  14.608   1.349
33207W        W 4878   0.327  40.477  10.681
33208W        W 4879   9.449  25.757  12.959
33209W        W 4880  30.937  25.672  11.765
33210W        W 4881  42.368   5.389  10.383
33211W        W 4882   9.384  36.025   1.406
33212W        W 4883  35.978  37.572   4.143
33213W        W 4884   6.924   3.045  14.847
33214W        W 4885   0.343  10.481  12.014
33215W        W 4886  10.625  20.807  12.949
33216W        W 4887  42.385   5.298   2.898
33217W        W 4888   8.312  42.970  11.125
33218W        W 4889   3.905   7.138   1.375
33219W        W 4890  31.430  31.226  11.628
33220W        W 4891  18.692  10.227  12.088
33221W        W 4892  44.203  27.343   2.082
33222W        W 4893  19.722  29.371   0.972
33223W        W 4894   3.903  23.338   4.526
33224W        W 4895  33.583  19.065  11.150
33225W        W 4896  16.263  44.812   4.295
33226W        W 4897  27.762   2.815  11.109
33227W        W 4898   0.758  25.565   3.194
33228W        W 4899  14.855  21.128   0.341
33229W        W 4900   7.635   0.210  12.455
33230W        W 4901  31.997  28.663  14.906
33231W        W 4902  24.730  23.205  14.354
33232W        W 4903  19.144  12.716  12.464
33233W        W 4904  11.673  38.707  13.362
33234W        W 4905  14.331   9.787  12.895
33235W        W 4906  30.370  27.967  12.478
33236W        W 4907  11.594   8.246   1.020
33237W        W 4908  42.418  30.058  12.985
33238W        W 4909   8.392  16.250  14.875
33239W        W 4910   7.400  32.273  11.118
33240W        W 4911   5.032  11.529   4.569
33241W        W 4912  14.695   0.470   1.892
33242W        W 4913  27.155  31.152   1.672
33243W        W 4914  32.957  20.274  11.474
33244W        W 4915  19.304  33.052  13.417
33245W        W 4916   5.859  44.659  14.518
33246W        W 4917   5.846  11.187  12.853
33247W        W 4918   4.857  28.382   0.257
33248W        W 4919  20.053  16.753  10.809
33249W        W 4920  25.023   0.282   1.458
33250W        W 4921   8.259  32.671   0.884
33251W        W 4922  28.676  34.727   3.876
33252W        W 4923  43.047   2.778  10.729
33253W        W 4924  14.798  25.558   2.141
33254W        W 4925  29.897  22.084  11.976
33255W        W 4926  37.670  37.412  12.321
33256W        W 4927  25.535  21.903   0.381
33257W        W 4928  20.771  32.143   4.294
33258W        W 4929   1.866  10.580  13.949
33259W        W 4930  40.366   8.644   0.888
33260W        W 4931  19.013  36.084   2.321
33261W        W 4932  41.286   2.013  13.455
33262W        W 4933   9.197   8.688   2.193
33263W        W 4934  42.542  44.514   1.378
33264W        W 4935  43.269  17.662   3.929
33265W        W 4936  16.463  18.719   3.918
33266W        W 4937  28.012  14.781   2.776
33267W        W 4938   4.658   2.764  13.425
33268W        W 4939  33.983   4.874  10.773
33269W        W 4940   0.040   8.150   3.348
33270W        W 4941  44.223  20.191   4.220
33271W        W 4942  40.420  32.446   3.659
33272W        W 4943   5.823  37.591  12.875
33273W        W 4944  30.008  31.537  12.698
33274W        W 4945  36.965  19.078   2.688
33275W        W 4946  29.023  15.770  12.321
33276W        W 4947  22.937  10.703   3.150
33277W        W 4948  42.881  10.068  11.006
33278W        W 4949   0.200  21.722  12.921
33279W        W 4950  10.900   7.499  14.654
33280W        W 4951  13.570  19.560  13.097
33281W        W 4952   1.101  40.563   0.822
33282W        W 4953  38.800  21.661   4.628
33283W        W 4954  11.748  15.377  14.275
33284W        W 4955  36.829  27.221  13.403
33285W        W 4956  22.132  39.476   4.565
33286W        W 4957  15.146  17.692  11.371
33287W        W 4958  44.866  42.793   1.536
33288W        W 4959   8.599  34.096   1.337
33289W        W 4960  29.829  19.122  11.961
33290W        W 4961  30.409  39.069  10.343
33291W        W 4962   0.029  40.562  11.135
33292W        W 4963   4.976   0.636   4.128
33293W        W 4964  29.393  40.888  12.595
33294W        W 4965  22.976  36.845   4.223
33295W        W 4966  21.029  10.241   0.542
33296W        W 4967  40.007   2.039   3.706
33297W        W 4968  40.634  40.732  13.071
33298W        W 4969  26.797  19.207   2.345
33299W        W 4970  12.494  21.133  14.946
33300W        W 4971   3.230   9.259  13.942
33301W        W 4972  42.520   5.806  13.698
33302W        W 4973  16.587  32.894  10.613
33303W        W 4974  15.502  40.932  12.047
33304W        W 4975  44.772  23.661   1.386
33305W        W 4976  27.332  22.763  13.919
33306W        W 4977   2.686  25.687   3.649
33307W        W 4978  23.189  39.506  11.001
33308W        W 4979  24.609  26.904   1.012
33309W        W 4980   2.760  40.538   1.826
33310W        W 4981   1.477  43.686  13.605
33311W        W 4982  29.027  10.359   1.454
33312W        W 4983  17.174  28.212   2.649
33313W        W 4984  42.607  27.911  13.936
33314W        W 4985  40.122  11.739  12.985
33315W        W 4986  40.330  21.820   3.122
33316W        W 4987  22.027  42.882  14.067
33317W        W 4988   4.958   7.852   0.740
33318W        W 4989  21.009  44.329   4.939
33319W        W 4990   9.740  20.713  13.369
33320W        W 4991   4.016  33.667  14.729
33321W        W 4992  29.247  16.591  13.938
33322W        W 4993   3.350  10.048   0.349
33323W        W 4994   5.031   0.881   1.311
33324W        W 4995  11.066   1.160   1.163
33325W        W 4996  24.747   4.429   1.832
33326W        W 4997   2.537  36.772   0.967
33327W        W 4998  40.320  32.382   0.899
33328W        W 4999  36.896  17.206  14.711
33329W        W 5000  11.133   3.812   0.955
33330W        W 5001  43.387  23.524   2.320
33331W        W 5002  35.536  32.995  11.935
33332W        W 5003  31.678   6.258  10.786
33333W        W 5004  40.299  39.170  10.505
33334W        W 5005  14.272  20.088  11.629
33335W        W 5006   0.883  19.486   4.713
33336W        W 5007   3.878   6.524  11.510
33337W        W 5008   0.205   0.381  12.922
33338W        W 5009   6.266  34.645   0.967
33339W        W 5010  41.906   7.261   0.480
33340W        W 5011  41.046  35.850  14.115
33341W        W 5012   2.212  41.810   3.376
33342W        W 5013  37.634  15.459  11.662
33343W        W 5014   7.599  41.669   3.687
33344W        W 5015   9.945  16.879  10.644
33345W        W 5016   3.518  28.915  11.429
33346W        W 5017  21.372  34.450   1.732
33347W        W 5018  16.381  15.206  13.329
33348W        W 5019  29.070  19.696  12.094
33349W        W 5020  14.602  10.490  11.634
33350W        W 5021  27.088  18.398  13.829
33351W        W 5022  29.417   0.390   2.322
33352W        W 5023  30.445   0.984  14.697
33353W        W 5024  11.786  15.386  13.389
33354W        W 5025  10.979  18.317   0.742
33355W        W 5026   4.912  11.145  13.820
33356W        W 5027   4.424  22.164   1.059
33357W        W 5028  28.020   1.748   2.792
33358W        W 5029   3.514  44.963   2.218
33359W        W 5030  40.551  13.471   1.753
33360W        W 5031  13.646  25.581  12.546
33361W        W 5032  42.798  36.953   3.588
33362W        W 5033  17.295  33.939  13.543
33363W        W 5034  23.947  40.944  12.673
33364W        W 5035  28.643   9.621  11.166
33365W        W 5036   3.167  23.192   3.467
33366W        W 5037  33.567  16.029   0.475
33367W        W 5038  39.073  27.094  12.192
33368W        W 5039  16.640  43.332  12.248
33369W        W 5040   5.905  25.510  14.361
33370W        W 5041  14.016   9.955  13.328
33371W        W 5042   7.424   3.940   0.712
33372W        W 5043  27.995  38.966  14.891
33373W        W 5044  40.433   4.576  13.418
33374W        W 5045  24.541  42.095  11.011
33375W        W 5046   0.727  19.916   5.522
33376W        W 5047   9.392  16.411   3.426
33377W        W 5048   2.721  30.289  13.861
33378W        W 5049  22.288   9.593  10.995
33379W        W 5050  35.386  39.982   4.237
33380W        W 5051  12.329  17.080   1.220
33381W        W 5052  30.009  44.734  10.611
33382W        W 5053  18.353  12.174  13.017
33383W        W 5054  13.293   6.899  14.908
33384W        W 5055  39.190  16.711  11.513
33385W        W 5056  33.675  15.501   1.233
33386W        W 5057  40.779  22.086   1.382
33387W        W 5058  18.501  44.294  13.278
33388W        W 5059  35.994  29.482  14.882
33389W        W 5060  37.326  10.253   0.359
33390W        W 5061  16.376   4.422   0.800
33391W        W 5062  39.942  12.696  11.236
33392W        W 5063  12.760   4.269   0.495
33393W        W 5064  25.449  11.017  14.489
33394W        W 5065  37.000  19.878  10.697
33395W        W 5066  24.372  12.893  10.307
33396W        W 5067  22.768   7.249  11.505
33397W        W 5068  38.366  15.852   2.714
33398W        W 5069  41.510   8.702   4.587
33399W        W 5070  41.997  12.701   3.639
33400W        W 5071  22.940  19.735  12.436
33401W        W 5072   2.409  37.895   0.806
33402W        W 5073  13.569  14.866   0.480
33403W        W 5074  14.278  20.705   1.446
33404W        W 5075  40.133  19.692  10.281
33405W        W 5076  24.510  34.891  11.766
33406W        W 5077  22.130  11.295   1.270
33407W        W 5078  36.976  33.939   2.417
33408W        W 5079   0.487   1.846  13.833
33409W        W 5080   1.389   0.340  13.684
33410W        W 5081   3.732  12.277   0.584
33411W        W 5082  14.820  40.334  13.284
33412W        W 5083  19.071  19.459   0.193
33413W        W 5084  33.455  29.560  12.153
33414W        W 5085  19.565   2.998  13.891
33415W        W 5086  42.964  21.818  12.072
33416W        W 5087  14.632   1.178   4.193
33417W        W 5088  27.019  35.812   3.606
33418W        W 5089  35.831  37.586   2.738
33419W        W 5090  43.436   6.692   4.064
33420W        W 5091  19.140  34.599   0.946
33421W        W 5092   7.232  20.517  12.062
33422W        W 5093  27.758  40.003   3.648
33423W        W 5094   6.082  28.698  14.045
33424W        W 5095  33.838  16.305   4.776
33425W        W 5096  37.420  23.735   3.668
33426W        W 5097   8.352  12.086  12.073
33427W        W 5098  40.261   9.324   2.840
33428W        W 5099  40.417  28.117  11.561
33429W        W 5100  42.995   1.860  11.067
33430W        W 5101  17.660  44.744   1.823
33431W        W 5102   7.769  35.579  10.940
33432W        W 5103   7.438   8.149  14.366
33433W        W 5104  12.249   4.732  12.762
33434W        W 5105   1.338  31.324   4.188
33435W        W 5106  21.151   1.032   4.087
33436W        W 5107  16.793  43.410   3.650
33437W        W 5108  22.196  18.303   4.764
33438W        W 5109  30.356  30.196   4.157
33439W        W 5110  35.842  38.089   3.277
33440W        W 5111  39.531  10.293   2.439
33441W        W 5112  30.040  39.289  14.522
33442W        W 5113  19.758  38.041   4.751
33443W        W 5114   1.474  12.598  13.413
33444W        W 5115   4.419   7.472  13.206
33445W        W 5116  41.378  25.328  14.922
33446W        W 5117   3.635   8.172   0.558
33447W        W 5118  21.845  17.089   1.221
33448W        W 5119  22.331   4.115   0.776
33449W        W 5120  34.565  28.505   2.702
33450W        W 5121   6.617  39.521  14.917
33451W        W 5122  34.097  23.415   0.524
33452W        W 5123  16.317  26.042   3.592
33453W        W 5124   9.332  42.826  12.341
33454W        W 5125   0.297  30.613  14.959
33455W        W 5126  23.691   8.369   2.131
33456W        W 5127  33.186  39.109  13.836
33457W        W 5128   5.260  38.350   3.791
33458W        W 5129   9.683  24.120  10.379
33459W        W 5130   4.942   0.280   3.269
33460W        W 5131  27.360  41.576  10.772
33461W        W 5132  18.041  25.405   3.723
33462W        W 5133  41.837  13.801  11.774
33463W        W 5134  29.388  27.234  10.585
33464W        W 5135  31.327  15.692  11.428
33465W        W 5136  35.157  32.247  14.882
33466W        W 5137  25.007  43.852  11.638
33467W        W 5138  19.221  37.036   4.034
33468W        W 5139  20.485  15.658   2.671
33469W        W 5140  18.755  35.725   1.420
33470W        W 5141  25.213  13.654   0.379
33471W        W 5142   1.746  28.300   4.398
33472W        W 5143   7.288  36.620  12.010
33473W        W 5144  27.598   7.267   3.852
33474W        W 5145  15.283  31.483   4.609
33475W        W 5146  35.369  39.557  14.927
33476W        W 5147  42.986  16.082  11.059
33477W        W 5148  26.606  19.957   2.087
33478W        W 5149  33.064  34.571   1.746
33479W        W 5150  31.651   7.289  13.790
33480W        W 5151  35.129  39.825   4.667
33481W        W 5152  15.062  34.150   3.990
33482W        W 5153   1.960  22.581   2.935
33483W        W 5154   3.698  21.053  14.605
33484W        W 5155   9.192   0.661  11.144
33485W        W 5156  33.392  30.880   2.754
33486W        W 5157  21.989  33.059  12.559
33487W        W 5158  20.491  12.845   4.551
33488W        W 5159   2.194  42.803   0.467
33489W        W 5160   2.048  12.657   1.859
33490W        W 5161   6.537  18.687   0.536
33491W        W 5162  43.987  19.768  12.524
33492W        W 5163  29.915   3.702  13.909
33493W        W 5164  24.768   5.799   2.492
33494W        W 5165  32.420  21.025  14.408
33495W        W 5166  19.763  34.849  14.461
33496W        W 5167  36.765  11.725  14.577
33497W        W 5168  21.283  29.950  12.063
33498W        W 5169   3.816  33.083  14.778
33499W        W 5170  10.813  15.690  12.643
33500W        W 5171  11.793   1.546   2.683
33501W        W 5172  35.272  34.575  14.277
33502W        W 5173  17.268  25.674  10.553
33503W        W 5174  39.253   9.223   3.844
33504W        W 5175  12.913  35.118   0.355
33505W        W 5176  19.097  31.339   0.271
33506W        W 5177  43.470  15.122  13.618
33507W        W 5178   4.782  10.420  12.584
33508W        W 5179   2.154  21.573  14.027
33509W        W 5180  35.825  29.465  11.131
33510W        W 5181   0.381   8.630   4.655
33511W        W 5182  35.351  43.648   3.196
33512W        W 5183   9.247   7.546  13.536
33513W        W 5184  28.977  26.043   4.456
33514W        W 5185   5.827  21.948  12.538
33515W        W 5186   7.541  22.283   2.278
33516W        W 5187  17.318  19.031  11.939
33517W        W 5188  33.890   8.829  14.844
33518W        W 5189   3.135   2.426   3.740
33519W        W 5190  18.327  31.909   5.115
33520W        W 5191  24.188   7.835   4.804
33521W        W 5192  28.978   9.759   0.397
33522W        W 5193  33.646   2.166   1.644
33523W        W 5194  20.184  43.736   4.650
33524W        W 5195  25.932  44.878   3.691
33525W        W 5196  18.403  28.524  13.066
33526W        W 5197  43.518  41.295   1.356
33527W        W 5198  19.635  44.811   4.169
33528W        W 5199  15.914   7.463  11.618
33529W        W 5200  24.232  20.862   2.311
33530W        W 5201  18.073  15.631   9.789
33531W        W 5202  41.924   8.790   3.364
33532W        W 5203  24.139  42.246   1.403
33533W        W 5204  43.132  24.049   2.683
33534W        W 5205  25.094  14.317   2.689
33535W        W 5206   2.808  14.987  14.786
33536W        W 5207   4.002  19.130  11.013
33537W        W 5208  29.851  42.876   2.636
33538W        W 5209  33.392  36.186  11.245
33539W        W 5210  27.913  25.895   4.930
33540W        W 5211  20.962  32.991  13.998
33541W        W 5212  31.417  43.205   3.349
33542W        W 5213  18.353  39.869  13.113
33543W        W 5214  13.344   6.134   1.184
33544W        W 5215  40.450  21.826   1.748
33545W        W 5216  27.887  17.974   2.222
33546W        W 5217  21.436   3.499   1.407
33547W        W 5218  38.000  33.922  12.455
33548W        W 5219   7.964  35.353  12.855
33549W        W 5220  21.744  35.096  13.551
33550W        W 5221  38.820  30.484  13.738
33551W        W 5222  22.381  24.884  12.417
33552W        W 5223  30.091   7.463  12.980
33553W        W 5224  31.025  32.081   4.557
33554W        W 5225  31.089  35.496   3.657
33555W        W 5226  22.098   4.203   1.720
33556W        W 5227  20.784  33.182   1.780
33557W        W 5228  41.599  28.129  12.055
33558W        W 5229   8.860   0.434  14.716
33559W        W 5230  33.368  44.815   1.930
33560W        W 5231  13.854   8.856  10.728
33561W        W 5232  27.851  30.022  11.734
33562W        W 5233   2.460   4.355   0.803
33563W        W 5234  14.362   5.729   1.201
33564W        W 5235  19.230  28.674   4.096
33565W        W 5236  27.212  19.169   3.306
33566W        W 5237  21.179  27.668   4.647
33567W        W 5238  26.566   9.841  10.608
33568W        W 5239  30.493  31.966   3.802
33569W        W 5240  13.823  10.611   1.220
33570W        W 5241  32.088  41.054   4.133
33571W        W 5242  35.664   4.869  12.467
33572W        W 5243  20.823  14.762  12.382
33573W        W 5244   1.878   6.011   1.191
33574W        W 5245   4.475  44.666   0.990
33575W        W 5246  33.951  13.682  11.828
33576W        W 5247  24.098  17.813  13.754
33577W        W 5248  15.556  31.420   2.785
33578W        W 5249  15.497  43.871   0.757
33579W        W 5250  44.292  38.761  10.507
33580W        W 5251  17.371   1.479   1.749
33581W        W 5252   3.705   6.941  14.953
33582W        W 5253  36.142  19.678  13.431
33583W        W 5254  18.400  38.771  12.072
33584W        W 5255   2.366  18.724   4.145
33585W        W 5256   6.931  23.199  14.479
33586W        W 5257  34.079  16.291  11.832
33587W        W 5258  16.080  27.766   1.248
33588W        W 5259  18.404   0.799  10.972
33589W        W 5260  27.754  36.117  14.394
33590W        W 5261  13.792  41.580  11.382
33591W        W 5262  28.473  19.573   1.480
33592W        W 5263  41.745  36.977   2.772
33593W        W 5264  13.302   1.291  14.951
33594W        W 5265  11.707  11.115   0.698
33595W        W 5266   6.347  41.271  11.450
33596W        W 5267  44.131  44.794  14.335
33597W        W 5268  37.247  43.318  14.654
33598W        W 5269   1.297  11.279  12.395
33599W        W 5270   7.689  32.783  13.038
33600W        W 5271  30.508   4.710  12.900
33601W        W 5272  42.520   4.834   2.105
33602W        W 5273  44.675  29.083   0.543
33603W        W 5274  17.656  11.167   2.368
33604W        W 5275  27.902  12.605  13.465
33605W        W 5276  20.142  40.057  14.958
33606W        W 5277  16.508  43.979  14.493
33607W        W 5278  19.288  24.766   9.933
33608W        W 5279  24.625  43.401   4.394
33609W        W 5280  13.905  13.708   4.120
33610W        W 5281   5.999  10.289   0.909
33611W        W 5282  43.303  13.860  12.008
33612W        W 5283  12.906  31.027  10.780
33613W        W 5284   4.231   8.285  14.760
33614W        W 5285   3.977  44.958  11.622
33615W        W 5286  27.643   3.566  12.921
33616W        W 5287   0.474  26.043   2.951
33617W        W 5288   5.405  26.572   1.428
33618W        W 5289  15.777  11.386   0.919
33619W        W 5290  11.685  31.485   0.873
33620W        W 5291   1.752  21.848  14.881
33621W        W 5292  30.907   9.092   4.051
33622W        W 5293  39.961  31.775   4.618
33623W        W 5294  27.913   7.367  10.685
33624W        W 5295  27.471   0.769  12.822
33625W        W 5296  44.146  12.058   9.814
33626W        W 5297  12.743   6.669   2.291
33627W        W 5298  18.308  14.748   2.338
33628W        W 5299  37.351  11.619   4.587
33629W        W 5300  15.957   7.310  14.542
33630W        W 5301  24.813  31.213  11.495
33631W        W 5302   7.339  10.400   0.387
33632W        W 5303  34.112   2.496   1.559
33633W        W 5304  15.232   7.598  10.593
33634W        W 5305  34.961  33.132   0.752
33635W        W 5306  38.800  19.201   0.719
33636W        W 5307   1.252  23.481  14.303
33637W        W 5308  15.081   9.096   3.156
33638W        W 5309  42.134   9.307   0.412
33639W        W 5310  25.224  41.621  11.652
33640W        W 5311   1.360  16.163  11.422
33641W        W 5312  32.119  12.832  12.455
33642W        W 5313  12.918   3.369   0.990
33643W        W 5314  41.136  29.648  11.086
33644W        W 5315  22.745  37.325   4.249
33645W        W 5316   1.732  44.014   2.922
33646W        W 5317   1.369  40.336   0.405
33647W        W 5318  10.848  33.118   2.362
33648W        W 5319  21.463  34.417   5.027
33649W        W 5320   9.455  24.101   4.185
33650W        W 5321   1.858   4.900   3.208
33651W        W 5322  41.592  34.438   1.714
33652W        W 5323   4.208  41.623  12.196
33653W        W 5324  21.736  12.850   5.218
33654W        W 5325  23.577  21.576  13.169
33655W        W 5326  43.541  26.069  10.548
33656W        W 5327  35.160  27.751   2.718
33657W        W 5328  21.083  11.822  11.635
33658W        W 5329  27.471  35.468  14.217
33659W        W 5330  13.466  28.146   2.762
33660W        W 5331  15.806  34.632   0.471
33661W        W 5332  20.809  28.119   2.374
33662W        W 5333  27.968  26.087   2.170
33663W        W 5334  35.107  28.142  13.550
33664W        W 5335  44.551  34.249   3.595
33665W        W 5336   6.304  31.642   2.938
33666W        W 5337  32.624   4.295  10.729
33667W        W 5338  44.426  24.294   1.713
33668W        W 5339   4.257  42.461   4.876
33669W        W 5340  14.801   0.303   0.396
33670W        W 5341  10.596  18.595   1.388
33671W        W 5342  39.003  15.587  12.404
33672W        W 5343  36.854  26.453   1.778
33673W        W 5344  33.467  40.432  13.076
33674W        W 5345  34.995  41.403   4.183
33675W        W 5346  24.028  39.080   5.045
33676W        W 5347   5.633  22.696  11.539
33677W        W 5348   5.280   2.735   3.103
33678W        W 5349  18.645  26.992  14.283
33679W        W 5350  14.327  44.235   3.294
33680W        W 5351  21.617  17.759  14.254
33681W        W 5352   4.969  21.912   3.769
33682W        W 5353  37.045   3.977   4.627
33683W        W 5354   2.541  22.092   4.667
33684W        W 5355  42.494  22.478  12.115
33685W        W 5356  30.695  12.120  12.560
33686W        W 5357   3.186  41.834   1.693
33687W        W 5358  39.429   1.655  12.487
33688W        W 5359  21.747   9.141  11.122
33689W        W 5360  30.646   0.016   3.318
33690W        W 5361  31.387  22.160   4.311
33691W        W 5362  30.863  25.785  13.792
33692W        W 5363  28.926  27.625   0.383
33693W        W 5364  40.342   4.356  10.699
33694W        W 5365  38.835  32.117  12.320
33695W        W 5366  24.216  32.086  14.487
33696W        W 5367  33.390  41.344   2.930
33697W        W 5368  16.116   2.428   1.181
33698W        W 5369   0.946  19.252   2.521
33699W        W 5370   2.540   0.987  12.051
33700W        W 5371  35.379  18.657  14.934
33701W        W 5372  36.541  38.135   4.522
33702W        W 5373  25.615   0.953  14.339
33703W        W 5374  25.545   0.963  11.500
33704W        W 5375  14.654  23.174  13.008
33705W        W 5376  13.817  21.172   3.964
33706W        W 5377  16.165   5.274  13.762
33707W        W 5378  34.688   8.858   3.781
33708W        W 5379  44.559   0.717   5.132
33709W        W 5380  35.204  19.753  14.376
33710W        W 5381   6.793  14.108  13.013
33711W        W 5382  37.507  25.200  13.669
33712W        W 5383   9.510  24.912   0.269
33713W        W 5384  29.157  42.393   2.852
33714W        W 5385  27.253  16.783  11.884
33715W        W 5386  30.674  10.831  14.777
33716W        W 5387  36.879  10.806  14.094
33717W        W 5388  35.173  32.186  10.719
33718W        W 5389  36.845  20.344   0.790
33719W        W 5390  19.386   8.344   0.479
33720W        W 5391  19.031  14.670   3.219
33721W        W 5392  41.030   2.951   0.273
33722W        W 5393  23.095  37.527  10.397
33723W        W 5394   3.013  42.426   1.711
33724W        W 5395  35.346  20.625  12.068
33725W        W 5396  35.795  25.107   1.374
33726W        W 5397   5.124  27.950   1.193
33727W        W 5398  29.190   5.892  13.160
33728W        W 5399  42.821  14.031   5.474
33729W        W 5400  22.028  13.190  14.443
33730W        W 5401  15.043  17.263  11.137
33731W        W 5402  31.699  35.572  11.779
33732W        W 5403  30.627  21.130   0.852
33733W        W 5404  22.462  25.551  11.635
33734W        W 5405   9.317  23.488  12.966
33735W        W 5406  42.125  21.541   1.985
33736W        W 5407  42.396  34.297  13.699
33737W        W 5408  23.421  14.271  13.122
33738W        W 5409  33.399   3.470  13.050
33739W        W 5410   7.402  31.958   2.404
33740W        W 5411  42.455   1.497  14.436
33741W        W 5412  25.287   8.112  14.410
33742W        W 5413   7.342  36.094  13.547
33743W        W 5414  38.523  44.680   1.648
33744W        W 5415   0.635  41.968   4.587
33745W        W 5416  11.674  17.918  11.723
33746W        W 5417  44.295  15.669  13.435
33747W        W 5418  18.288  21.172   2.938
33748W        W 5419  29.981  34.341  14.338
33749W        W 5420  28.106  10.156  10.640
33750W        W 5421  19.182  19.792   3.745
33751W        W 5422  40.473  40.746  13.575
33752W        W 5423  10.261  38.526  11.947
33753W        W 5424  25.634  31.362   3.818
33754W        W 5425  36.353   0.504  13.945
33755W        W 5426  44.897  31.231  14.284
33756W        W 5427   9.257  11.201   0.380
33757W        W 5428  21.202  16.589  14.992
33758W        W 5429  39.293  43.280  13.326
33759W        W 5430  42.544  36.954  10.594
33760W        W 5431  13.689  40.795  13.614
33761W        W 5432  36.000  30.983   2.345
33762W        W 5433   0.285  14.839   0.646
33763W        W 5434  44.852  31.694  14.005
33764W        W 5435  29.155   9.937   3.259
33765W        W 5436   6.971   7.401   0.777
33766W        W 5437  30.035   3.644  10.948
33767W        W 5438  20.319  41.315  13.523
33768W        W 5439   9.639   3.141  12.520
33769W        W 5440  14.187   1.342  11.923
33770W        W 5441   3.754  39.861   3.887
33771W        W 5442  40.805  20.716  13.357
33772W        W 5443   5.409  24.482  13.460
33773W        W 5444  17.192   1.199   4.094
33774W        W 5445  37.230  22.202  14.297
33775W        W 5446  23.240  21.796   4.929
33776W        W 5447  30.242   8.208   3.217
33777W        W 5448  42.316  10.632   4.029
33778W        W 5449  23.085   4.292  11.203
33779W        W 5450  31.379  17.148  12.993
33780W        W 5451   1.858  33.312  10.621
33781W        W 5452  30.507  40.149   3.761
33782W        W 5453  32.762  15.619   3.582
33783W        W 5454  23.424  37.333   1.705
33784W        W 5455  15.183  15.675   1.335
33785W        W 5456  31.167  24.596   2.520
33786W        W 5457  31.517   4.427  14.110
33787W        W 5458  30.614   5.443  11.534
33788W        W 5459  42.360  28.003   3.647
33789W        W 5460  38.409  15.562  12.913
33790W        W 5461  32.970  25.734   2.700
33791W        W 5462  28.937   3.549   0.023
33792W        W 5463   1.201   5.188  10.510
33793W        W 5464  41.079  41.041  12.816
33794W        W 5465  37.661  11.778  14.295
33795W        W 5466   5.123   6.221  13.009
33796W        W 5467  42.938  44.853  12.852
33797W        W 5468  20.978  23.242   2.362
33798W        W 5469  19.105   6.233  11.382
33799W        W 5470  20.957  13.464   5.579
33800W        W 5471  37.651  23.415   0.452
33801W        W 5472  27.590  40.240   2.260
33802W        W 5473  17.800  34.363  12.860
33803W        W 5474  32.984   6.330  11.146
33804W        W 5475  35.752   7.454   0.513
33805W        W 5476   3.869   9.869   3.746
33806W        W 5477  13.558   2.532  12.902
33807W        W 5478   6.336   2.849  14.083
33808W        W 5479   5.164  20.721  11.498
33809W        W 5480  12.875  43.528  11.657
33810W        W 5481  24.247   8.494   3.682
33811W        W 5482  36.914  16.103  10.477
33812W        W 5483  41.982  11.689   0.236
33813W        W 5484  37.951  10.656  14.991
33814W        W 5485  22.568  18.499   1.370
33815W        W 5486  24.011   1.278   0.374
33816W        W 5487   5.120  32.977  14.465
33817W        W 5488  19.510   4.215  14.029
33818W        W 5489  33.003  22.171  12.166
33819W        W 5490  17.838  20.172   1.277
33820W        W 5491  19.028  44.570   0.455
33821W        W 5492  38.768  42.009   4.604
33822W        W 5493  24.772  13.252   3.383
33823W        W 5494  23.391   8.380  13.513
33824W        W 5495  35.892   3.799  12.501
33825W        W 5496  39.369  10.152  11.199
33826W        W 5497  29.077  21.346   1.764
33827W        W 5498  11.433   7.872   1.862
33828W        W 5499  12.492  37.612  13.422
33829W        W 5500  33.063  26.985  12.081
33830W        W 5501   9.287  43.823   1.302
33831W        W 5502  20.929  15.121  10.678
33832W        W 5503   9.267  23.233   0.040
33833W        W 5504  42.002  13.620   3.581
33834W        W 5505  44.297   5.286  10.931
33835W        W 5506   4.659  37.788  14.921
33836W        W 5507  11.787  19.092   4.641
33837W        W 5508  14.091  21.120  12.639
33838W        W 5509  43.493  27.919   2.343
33839W        W 5510  24.170  10.816   1.497
33840W        W 5511   4.205  16.985  14.501
33841W        W 5512  17.572  40.479  12.780
33842W        W 5513  28.468  12.975  13.549
33843W        W 5514   1.909  23.889  13.175
33844W        W 5515  20.015  35.939   2.320
33845W        W 5516   3.426  35.539   1.404
33846W        W 5517  12.379  40.836   3.943
33847W        W 5518  32.805  31.667  12.981
33848W        W 5519  30.143  13.150  10.728
33849W        W 5520  35.835  41.817   2.810
33850W        W 5521  35.371  43.616  11.228
33851W        W 5522  20.678  11.127   2.007
33852W        W 5523  19.720  29.375  14.568
33853W        W 5524  15.201  14.380  13.752
33854W        W 5525  38.870   5.917   4.575
33855W        W 5526  16.697   4.016  11.908
33856W        W 5527  25.497  25.521   1.743
33857W        W 5528  31.549   8.968   0.268
33858W        W 5529  25.586  35.765   1.761
33859W        W 5530  43.739  27.155  12.970
33860W        W 5531  43.709   1.417  12.112
33861W        W 5532  10.306  13.747  11.084
33862W        W 5533  25.279  11.312  11.054
33863W        W 5534  36.082   0.049  14.240
33864W        W 5535   7.194  37.371   0.339
33865W        W 5536  13.343  38.048  14.324
33866W        W 5537  20.894  18.278   1.793
33867W        W 5538   7.781  20.242   2.884
33868W        W 5539  11.841  31.503   1.748
33869W        W 5540  12.819  34.050   0.861
33870W        W 5541  24.595  36.112  10.826
33871W        W 5542  26.892  15.928   0.007
33872W        W 5543  30.435  37.989   2.005
33873W        W 5544  30.865   2.543   3.344
33874W        W 5545  29.720  24.667  11.672
33875W        W 5546   5.222  32.687  12.570
33876W        W 5547  12.932   3.368   0.411
33877W        W 5548  32.063  40.929   1.014
33878W        W 5549  35.089  18.370   2.380
33879W        W 5550  40.262  13.882  10.456
33880W        W 5551  21.998  23.361   4.378
33881W        W 5552  35.949  26.282  14.814
33882W        W 5553  17.033  25.469   2.772
33883W        W 5554  34.053  24.592  14.380
33884W        W 5555   6.611  37.459  14.206
33885W        W 5556  43.464  28.014   0.685
33886W        W 5557   4.205  39.358  12.131
33887W        W 5558  39.035  36.157   4.268
33888W        W 5559  22.354  25.622   2.365
33889W        W 5560  14.195  26.409   2.739
33890W        W 5561  44.793  10.385   1.708
33891W        W 5562  23.673  18.281   3.367
33892W        W 5563   5.697  10.865   3.181
33893W        W 5564  43.112  13.594   5.376
33894W        W 5565   9.412  27.607   3.852
33895W        W 5566  30.804  33.667  13.627
33896W        W 5567  32.162   7.689  14.462
33897W        W 5568   0.374   5.178   0.061
33898W        W 5569  16.144  43.770   1.832
33899W        W 5570  15.297  21.644   0.179
33900W        W 5571  43.455  34.500   0.851
33901W        W 5572  18.038  16.611   1.156
33902W        W 5573  23.484  21.093   0.715
33903W        W 5574  28.965  37.367  13.913
33904W        W 5575  36.531  17.303  10.068
33905W        W 5576  26.765  21.219   4.588
33906W        W 5577  17.562  34.323   1.250
33907W        W 5578  22.142  30.454  12.605
33908W        W 5579  18.680  17.797  10.654
33909W        W 5580  25.193  38.357   3.564
33910W        W 5581  29.670   0.908   4.671
33911W        W 5582  22.461  38.828  12.605
33912W        W 5583  36.487  24.062   5.221
33913W        W 5584  20.103  30.358  11.054
33914W        W 5585   4.781   0.820   0.830
33915W        W 5586  15.853  30.667  12.974
33916W        W 5587  42.369  15.308   1.805
33917W        W 5588  25.597   0.038  11.421
33918W        W 5589  15.597   3.826  11.129
33919W        W 5590   0.586  40.512   0.773
33920W        W 5591  22.770   9.772   0.388
33921W        W 5592  44.816  23.509   3.226
33922W        W 5593  13.427  29.515  14.466
33923W        W 5594  34.436  38.428   2.256
33924W        W 5595  11.650   7.174  12.175
33925W        W 5596  44.383  14.537   3.209
33926W        W 5597  25.212  20.752  13.465
33927W        W 5598   5.147  20.147   3.670
33928W        W 5599  22.692  25.639  10.702
33929W        W 5600   4.195   1.507   3.788
33930W        W 5601  17.564  17.328   0.236
33931W        W 5602  14.713   7.670  10.053
33932W        W 5603  20.108  44.289  10.879
33933W        W 5604  32.420   8.799   1.428
33934W        W 5605  41.244  41.485  10.540
33935W        W 5606   7.402  26.066  14.506
33936W        W 5607  37.455   0.274  13.087
33937W        W 5608  15.745  38.513  11.939
33938W        W 5609  22.557  24.079   0.385
33939W        W 5610   8.882  25.524  11.895
33940W        W 5611   2.032  34.943  14.375
33941W        W 5612  12.762  35.382   5.031
33942W        W 5613  25.878  43.269   2.878
33943W        W 5614  28.417   4.995   9.988
33944W        W 5615  18.554  21.644  13.313
33945W        W 5616  36.124   4.668   1.844
33946W        W 5617  19.556   2.003  10.768
33947W        W 5618  33.588  25.651  12.052
33948W        W 5619  23.051   3.454  10.684
33949W        W 5620  41.294   0.921  12.784
33950W        W 5621  27.464   0.437   2.280
33951W        W 5622   9.227  37.673   4.576
33952W        W 5623  27.790  21.048   4.612
33953W        W 5624  35.537  32.368  11.036
33954W        W 5625   0.149   0.676   2.783
33955W        W 5626  25.161  29.206  10.386
33956W        W 5627  38.860  22.601   9.890
33957W        W 5628   3.855  44.471   2.616
33958W        W 5629  31.967  32.688  14.486
33959W        W 5630  19.659   7.321   1.444
33960W        W 5631   0.867  13.287   1.416
33961W        W 5632  36.546   8.360   3.239
33962W        W 5633  27.216  14.406   3.770
33963W        W 5634  31.876  25.374  11.072
33964W        W 5635  10.246  25.637   0.777
33965W        W 5636  26.367  24.260   5.084
33966W        W 5637  42.277  26.470   3.425
33967W        W 5638  41.094  39.518   1.330
33968W        W 5639  36.104  21.153   2.937
33969W        W 5640  15.640  28.240   4.341
33970W        W 5641  14.592  38.619   0.438
33971W        W 5642   1.644  24.961   0.292
33972W        W 5643  32.912  42.761  13.500
33973W        W 5644  33.206   4.364  13.870
33974W        W 5645  17.517  34.343  10.412
33975W        W 5646  35.607  39.852  11.192
33976W        W 5647   3.834  38.500  11.861
33977W        W 5648  20.796  37.147   2.727
33978W        W 5649  10.385  32.808   4.669
33979W        W 5650  42.249  16.310   2.015
33980W        W 5651  26.367  15.644  10.638
33981W        W 5652   2.230  41.255   4.571
33982W        W 5653  39.080  43.368   1.893
33983W        W 5654  19.495  12.130   1.277
33984W        W 5655   3.692  27.425   4.211
33985W        W 5656   2.048  43.894   2.260
33986W        W 5657  28.073  25.392  13.007
33987W        W 5658   2.164  28.043   0.439
33988W        W 5659  29.522   9.389   0.335
33989W        W 5660   7.008  42.311  13.828
33990W        W 5661  33.514  30.912   3.415
33991W        W 5662  25.034   7.814   0.663
33992W        W 5663  23.475  21.327  14.825
33993W        W 5664  20.046  28.554   4.704
33994W        W 5665  16.220  21.908   3.597
33995W        W 5666  21.148  10.363  13.103
33996W        W 5667  39.554  20.763   2.829
33997W        W 5668  23.615   7.729  12.122
33998W        W 5669   6.441   5.656   1.804
33999W        W 5670  18.050   8.136  14.953
34000W        W 5671  38.870  18.132   3.620
34001W        W 5672   8.295  33.014   0.244
34002W        W 5673  26.717  37.017   2.278
34003W        W 5674  13.073  25.591  14.234
34004W        W 5675  29.972  24.576   0.766
34005W        W 5676  28.205  30.072  10.597
34006W        W 5677  31.997  20.674   2.999
34007W        W 5678   4.201  39.040  10.730
34008W        W 5679  31.157  36.487   1.897
34009W        W 5680  16.988   7.707   2.176
34010W        W 5681  18.731   3.013  12.496
34011W        W 5682   5.674  25.035  14.503
34012W        W 5683  19.577  31.029   4.193
34013W        W 5684  39.071   8.859  11.042
34014W        W 5685  36.746  39.520  14.208
34015W        W 5686  22.015  22.670   0.712
34016W        W 5687  30.048  41.855  10.777
34017W        W 5688  17.093  15.774   1.354
34018W        W 5689  18.132  26.420   3.605
34019W        W 5690  28.959   2.251  14.070
34020W        W 5691  34.712  16.265  12.484
34021W        W 5692  38.426  37.806  11.827
34022W        W 5693  15.759  14.450  13.426
34023W        W 5694   6.792  30.130  11.122
34024W        W 5695  42.194  23.781   9.840
34025W        W 5696   9.189  43.189   0.723
34026W        W 5697   1.443   8.330   1.961
34027W        W 5698  19.701   8.532   3.282
34028W        W 5699  32.037  35.190   2.605
34029W        W 5700  17.183  27.494  13.527
34030W        W 5701  31.039  19.499  13.723
34031W        W 5702  34.076   2.855  10.659
34032W        W 5703  35.879  32.679  14.438
34033W        W 5704  37.551  41.487   0.138
34034W        W 5705  26.638  44.548  12.117
34035W        W 5706  41.830  10.473   1.327
34036W        W 5707   8.938  10.850  11.142
34037W        W 5708  14.958  43.275   1.173
34038W        W 5709  44.512   4.288  11.611
34039W        W 5710  38.888  12.175   2.739
34040W        W 5711  42.790  29.064   1.897
34041W        W 5712   1.287  18.587   2.228
34042W        W 5713  36.937  41.223  14.003
34043W        W 5714  11.452  25.727  12.103
34044W        W 5715  11.051  14.871  11.851
34045W        W 5716  34.918  13.900  12.959
34046W        W 5717   2.408  10.097  13.399
34047W        W 5718  22.415   1.406  10.608
34048W        W 5719  20.141  35.418  12.059
34049W        W 5720  10.975   4.060  12.381
34050W        W 5721  14.793  31.664   4.606
34051W        W 5722  21.031  37.748   0.759
34052W        W 5723   2.315  11.474  10.347
34053W        W 5724  36.597   3.421  12.967
34054W        W 5725  30.498  17.057   2.093
34055W        W 5726  39.337  10.320   2.939
34056W        W 5727  15.652  41.753   2.211
34057W        W 5728   0.988   7.896   4.637
34058W        W 5729  14.527  19.548   0.856
34059W        W 5730  20.727  40.935   5.378
34060W        W 5731  14.283  43.540   4.135
34061W        W 5732  29.092  30.558   3.406
34062W        W 5733   2.226  12.204  14.346
34063W        W 5734   4.920  29.286  11.210
34064W        W 5735  35.438  15.013   4.163
34065W        W 5736   8.559  11.907  12.486
34066W        W 5737  10.541  35.017  13.495
34067W        W 5738  20.047  41.329  13.954
34068W        W 5739  34.420  26.570   1.299
34069W        W 5740  14.209   7.295  10.770
34070W        W 5741   9.139  22.810   9.981
34071W        W 5742  34.515   6.839   1.337
34072W        W 5743  11.863  26.947   2.460
34073W        W 5744  40.030   6.482   0.371
34074W        W 5745  26.453  31.525  12.426
34075W        W 5746  30.637  21.580  13.946
34076W        W 5747  24.220  35.424   2.582
34077W        W 5748  39.343  24.674   1.373
34078W        W 5749  18.270  31.862   4.222
34079W        W 5750  19.167  44.724  10.628
34080W        W 5751  28.935   5.191   2.605
34081W        W 5752  38.868  37.480   2.231
34082W        W 5753   3.718   3.781  12.002
34083W        W 5754  36.533  24.548   4.331
34084W        W 5755  28.378  39.348  12.180
34085W        W 5756  10.790  28.820  12.026
34086W        W 5757  27.473   7.210  13.780
34087W        W 5758  18.832  27.417   4.080
34088W        W 5759  14.344   5.859   3.586
34089W        W 5760   0.168  38.967   1.921
34090W        W 5761  14.803  26.317   3.272
34091W        W 5762   9.587  13.576   1.643
34092W        W 5763  17.638  26.121  12.277
34093W        W 5764  11.160  42.992  10.607
34094W        W 5765  41.442  43.019   4.427
34095W        W 5766   2.687  11.204   0.758
34096W        W 5767  43.118  37.038   3.190
34097W        W 5768  37.336  36.018  11.085
34098W        W 5769  27.849  37.631   2.311
34099W        W 5770  23.541  43.609  14.820
34100W        W 5771  32.107  41.944   5.089
34101W        W 5772  21.290  38.603  12.999
34102W        W 5773   9.080  11.144   0.871
34103W        W 5774  20.705  10.700  11.178
34104W        W 5775   8.458  36.335   2.478
34105W        W 5776  11.132  20.259  13.004
34106W        W 5777  36.495  12.651  14.887
34107W        W 5778  12.410  20.226   1.264
34108W        W 5779   1.647  21.056  10.587
34109W        W 5780  35.875  16.251   3.808
34110W        W 5781   6.281  39.954  14.886
34111W        W 5782  25.680   2.143  12.414
34112W        W 5783  26.233  41.276  11.597
34113W        W 5784  35.800  42.878  11.548
34114W        W 5785  21.295   7.265   1.571
34115W        W 5786  26.476   9.970   4.192
34116W        W 5787  39.086   9.802  14.832
34117W        W 5788  31.915  14.297   2.254
34118W        W 5789  16.266  26.909  10.834
34119W        W 5790  37.938  38.453   0.332
34120W        W 5791   4.037  11.308   0.421
34121W        W 5792   7.666  13.250  11.380
34122W        W 5793  28.950  28.098   3.561
34123W        W 5794   9.152   2.932  12.413
34124W        W 5795   5.812   1.591   4.261
34125W        W 5796  25.744   5.777   2.486
34126W        W 5797   9.837  31.978  14.954
34127W        W 5798  17.970   2.369   1.502
34128W        W 5799  25.750  34.419   4.566
34129W        W 5800  14.196   1.529  12.400
34130W        W 5801   7.869   0.761  14.678
34131W        W 5802  19.612  32.948  13.839
34132W        W 5803   3.321  23.642  10.755
34133W        W 5804   1.372  43.734  11.150
34134W        W 5805   8.298  31.874  10.946
34135W        W 5806  28.882   9.689   3.727
34136W        W 5807  12.599  35.607   3.116
34137W        W 5808  29.648  11.298  11.129
34138W        W 5809  42.071  43.727   3.602
34139W        W 5810  42.117  19.861   2.160
34140W        W 5811  30.506  19.634  12.163
34141W        W 5812  26.596  43.927   4.340
34142W        W 5813  21.509  40.525  12.377
34143W        W 5814  42.357  44.679  11.488
34144W        W 5815  30.093  28.403  12.345
34145W        W 5816  15.945  14.455  14.447
34146W        W 5817  20.828  36.338  11.539
34147W        W 5818  41.854   2.314   0.420
34148W        W 5819  29.180  36.012  11.669
34149W        W 5820  14.091  44.420  10.605
34150W        W 5821  17.827  28.101  14.675
34151W        W 5822  34.833  41.232  12.042
34152W        W 5823  40.825  43.764   0.702
34153W        W 5824  29.915  40.710  13.180
34154W        W 5825  16.838   1.330  14.830
34155W        W 5826  16.687  12.878  11.610
34156W        W 5827   3.700  30.149   0.681
34157W        W 5828  21.017  14.276  10.120
34158W        W 5829  32.477   0.965   2.034
34159W        W 5830   8.648  27.319  13.193
34160W        W 5831   0.395  19.459   1.122
34161W        W 5832  43.107   0.834  10.838
34162W        W 5833  20.053  40.187  14.434
34163W        W 5834  38.883  22.836   2.412
34164W        W 5835  43.844   3.787  13.850
34165W        W 5836  11.582   5.823  12.011
34166W        W 5837   6.214  14.426  11.961
34167W        W 5838  23.303   1.335   4.145
34168W        W 5839  11.528  44.456   0.364
34169W        W 5840  24.587  34.118   0.310
34170W        W 5841   7.272  14.454  14.097
34171W        W 5842  31.031  38.156  10.743
34172W        W 5843  41.097   1.193  14.492
34173W        W 5844  12.152  19.993   2.867
34174W        W 5845  14.801  43.241   1.646
34175W        W 5846  30.493  36.341  12.851
34176W        W 5847  40.820  17.268   4.092
34177W        W 5848   7.856   3.112   9.505
34178W        W 5849  40.947  44.543   3.766
34179W        W 5850  35.884  18.187   2.784
34180W        W 5851  22.208   8.994  14.539
34181W        W 5852  31.621  12.105  12.701
34182W        W 5853  12.177  16.278   3.374
34183W        W 5854  11.417  34.888  13.231
34184W        W 5855  23.642  31.892  11.168
34185W        W 5856  21.592  10.648  14.474
34186W        W 5857  20.742   6.163  13.394
34187W        W 5858   5.638  19.097   4.890
34188W        W 5859  35.995  31.376   4.742
34189W        W 5860  42.248   8.333   1.165
34190W        W 5861  34.290   5.772  11.892
34191W        W 5862  37.652  26.611   3.727
34192W        W 5863  14.304   7.016  12.347
34193W        W 5864   4.398  21.097   4.377
34194W        W 5865  34.537  12.458   1.043
34195W        W 5866  31.483   3.372  14.882
34196W        W 5867  14.187  29.587  13.891
34197W        W 5868  15.202  26.984   4.356
34198W        W 5869  39.843  38.584  11.485
34199W        W 5870   8.693  18.087   4.682
34200W        W 5871  36.596  40.644  12.084
34201W        W 5872  13.860  24.543   0.567
34202W        W 5873  10.064  12.362  12.430
34203W        W 5874  43.008  24.850  12.651
34204W        W 5875   0.302  39.720  12.840
34205W        W 5876  20.329  34.326   3.376
34206W        W 5877   2.179  36.858   1.827
34207W        W 5878   7.823  28.257  12.299
34208W        W 5879  30.386  22.589   3.118
34209W        W 5880  42.764  11.615   2.179
34210W        W 5881  22.193  22.668  10.581
34211W        W 5882  10.235  16.719   2.257
34212W        W 5883  20.753  17.167   2.943
34213W        W 5884  29.402   3.411  14.852
34214W        W 5885  34.886  12.637  11.044
34215W        W 5886  13.286  38.884  12.667
34216W        W 5887  15.249  16.545  12.007
34217W        W 5888  39.878  21.370   1.407
34218W        W 5889   4.347  15.734   0.865
34219W        W 5890  33.110  24.191  10.371
34220W        W 5891  18.379  10.543   0.591
34221W        W 5892   5.817  15.727  12.682
34222W        W 5893  38.983  23.310  13.668
34223W        W 5894  13.699  24.235   1.831
34224W        W 5895  12.873  22.527  13.595
34225W        W 5896  24.829  24.677   1.751
34226W        W 5897  30.527  34.152   0.887
34227W        W 5898  41.640  25.741   0.020
34228W        W 5899  11.191  22.628   4.592
34229W        W 5900  22.077  12.173   4.943
34230W        W 5901  26.416  19.533   4.833
34231W        W 5902  33.916   8.045   0.342
34232W        W 5903  31.446  31.867   2.150
34233W        W 5904  10.263  38.859  13.428
34234W        W 5905  31.442   3.203  12.909
34235W        W 5906  23.180   9.845  14.571
34236W        W 5907  26.204  39.376  11.778
34237W        W 5908  43.403  37.834   1.861
34238W        W 5909  37.385  39.724  10.168
34239W        W 5910  24.295  21.050   5.088
34240W        W 5911  38.841   6.931  12.146
34241W        W 5912  34.369  12.081  11.518
34242W        W 5913  42.593  14.386   3.296
34243W        W 5914  21.798  36.535  11.950
34244W        W 5915   8.872  18.090   0.938
34245W        W 5916  27.980  20.588   4.747
34246W        W 5917  30.673  37.392   1.028
34247W        W 5918  28.605  12.338   0.621
34248W        W 5919   3.872   6.484   3.758
34249W        W 5920   6.265  39.584  14.515
34250W        W 5921  40.929  10.133  11.581
34251W        W 5922  44.709  19.920  12.959
34252W        W 5923   6.597  26.492  14.592
34253W        W 5924   0.042   3.742  12.092
34254W        W 5925  12.321  37.643  12.901
34255W        W 5926  26.042  35.997  10.998
34256W        W 5927   9.605  27.109   0.771
34257W        W 5928  19.050  20.747  12.621
34258W        W 5929  25.342  24.630   1.695
34259W        W 5930   3.074  11.194  10.715
34260W        W 5931  20.102  21.032  12.043
34261W        W 5932  19.489  23.944  11.990
34262W        W 5933  31.533   7.021   0.813
34263W        W 5934  40.550   8.643   3.422
34264W        W 5935  37.647   2.271   2.704
34265W        W 5936   5.721   8.202  14.888
34266W        W 5937  43.965  41.583  10.919
34267W        W 5938  25.804  28.908  11.129
34268W        W 5939   0.386  15.384  10.598
34269W        W 5940  23.581  30.619  14.920
34270W        W 5941  31.905  27.728   1.374
34271W        W 5942  25.977   3.503  12.120
34272W        W 5943  31.947  30.342   2.695
34273W        W 5944  23.937  19.544   3.129
34274W        W 5945  32.013   3.826   2.440
34275W        W 5946   7.321  35.200   4.362
34276W        W 5947  39.901  42.742   2.836
34277W        W 5948  23.835  44.917   0.921
34278W        W 5949  37.417  30.692  14.918
34279W        W 5950   8.411   7.286   4.396
34280W        W 5951   5.310  40.049   4.602
34281W        W 5952  29.336  23.225   2.600
34282W        W 5953  16.218   6.907   4.362
34283W        W 5954  27.813  27.885  13.564
34284W        W 5955   9.282  24.027   4.692
34285W        W 5956   0.430  36.916  13.412
34286W        W 5957  15.314  26.985   3.854
34287W        W 5958  13.347  18.241   0.553
34288W        W 5959  34.594  12.316  12.492
34289W        W 5960  10.752  39.059  10.771
34290W        W 5961   8.639  15.858  14.147
34291W        W 5962  24.419  36.830   3.604
34292W        W 5963  30.991  21.533  13.550
34293W        W 5964   0.349  26.934  13.537
34294W        W 5965  41.539  13.723   2.718
34295W        W 5966  25.524   0.021   2.234
34296W        W 5967  12.740  27.198  12.027
34297W        W 5968   6.757  34.597   0.198
34298W        W 5969  41.847  25.157   0.004
34299W        W 5970  17.799  19.225  11.921
34300W        W 5971   2.217   1.382  12.511
34301W        W 5972   1.188  41.487  10.971
34302W        W 5973  40.556  40.974   4.550
34303W        W 5974  20.736  19.287   3.870
34304W        W 5975   9.851  43.822   0.916
34305W        W 5976  35.079  37.276   2.204
34306W        W 5977  21.207   7.864   3.799
34307W        W 5978   1.827   3.194  11.176
34308W        W 5979  31.122  14.365  11.178
34309W        W 5980  28.620  11.906  14.816
34310W        W 5981   6.647  17.672   1.175
34311W        W 5982  38.819  19.659   1.792
34312W        W 5983  41.563  17.534   1.323
34313W        W 5984   5.752  31.313  12.435
34314W        W 5985  27.366  34.089   3.301
34315W        W 5986   6.415  33.399  14.486
34316W        W 5987   2.800  32.799  14.861
34317W        W 5988  21.611  19.776  12.608
34318W        W 5989  33.707   0.444  11.645
34319W        W 5990  16.783  33.693   2.257
34320W        W 5991   6.000   1.690  12.050
34321W        W 5992  36.780  12.882   3.291
34322W        W 5993  27.419  18.513   1.810
34323W        W 5994  33.651   8.959  14.384
34324W        W 5995  23.691   4.896  14.241
34325W        W 5996  39.520  30.379  14.322
34326W        W 5997  15.375  25.972   1.308
34327W        W 5998  28.524  33.500  12.502
34328W        W 5999  44.589  15.229  11.328
34329W        W 6000   4.945  16.767   2.392
34330W        W 6001  23.725  41.781  10.757
34331W        W 6002  26.072  44.471  14.478
34332W        W 6003  11.269  35.101   4.069
34333W        W 6004  27.549   2.789  12.791
34334W        W 6005  22.527  31.376  14.108
34335W        W 6006   1.301  34.145  12.874
34336W        W 6007   8.125   4.967   2.266
34337W        W 6008  26.017  23.053  12.442
34338W        W 6009  42.477  42.376   4.256
34339W        W 6010  24.528  14.151   1.416
34340W        W 6011   3.709  29.084  11.894
34341W        W 6012  35.539  38.428  12.605
34342W        W 6013  27.957  21.045  11.623
34343W        W 6014  27.943  42.322   0.278
34344W        W 6015  21.595  18.999   3.783
34345W        W 6016  43.277  29.079   3.774
34346W        W 6017  36.444  14.681   3.026
34347W        W 6018   9.836  32.437  12.869
34348W        W 6019  21.970  22.915   2.708
34349W        W 6020  18.814  37.353   2.687
34350W        W 6021   4.978  23.615   1.388
34351W        W 6022  14.288  36.058  10.501
34352W        W 6023  40.092  18.472  14.744
34353W        W 6024  41.921  38.758   4.107
34354W        W 6025  29.559   6.748   3.203
34355W        W 6026  25.971   5.311   2.344
34356W        W 6027  22.607   7.159   1.374
34357W        W 6028   9.831  37.391  11.492
34358W        W 6029  19.441  24.033  10.326
34359W        W 6030  27.807  18.105  13.953
34360W        W 6031  33.618  19.642   4.394
34361W        W 6032  18.033  40.098  14.418
34362W        W 6033  10.848  37.762  14.266
34363W        W 6034   0.391  14.944   4.721
34364W        W 6035  30.218  16.634  13.922
34365W        W 6036  21.110  10.314   1.993
34366W        W 6037   2.325   5.828  11.804
34367W        W 6038   3.710  28.763  10.914
34368W        W 6039  26.065  41.872   3.648
34369W        W 6040  23.418  27.215  14.411
34370W        W 6041  11.849  40.105  10.641
34371W        W 6042  13.786  15.077  12.454
34372W        W 6043  14.213   6.843   1.964
34373W        W 6044  15.892  26.560   4.767
34374W        W 6045  15.141  44.252  12.482
34375W        W 6046   6.534   3.397   2.248
34376W        W 6047  21.138  28.725   0.874
34377W        W 6048   3.307  27.667   1.563
34378W        W 6049  11.345  31.550   2.620
34379W        W 6050  21.144   4.933   1.463
34380W        W 6051   0.845  17.682   0.949
34381W        W 6052  44.886   6.041  14.189
34382W        W 6053  17.664   7.811   3.451
34383W        W 6054  27.900  31.604  12.458
34384W        W 6055  23.752  31.823   0.381
34385W        W 6056  30.454  31.580   3.138
34386W        W 6057   5.375  40.626   1.924
34387W        W 6058  40.010  34.109  11.086
34388W        W 6059  32.979   0.926   0.176
34389W        W 6060   2.918  18.461  10.741
34390W        W 6061  37.416  31.415   2.840
34391W        W 6062  43.182  25.124   1.823
34392W        W 6063  42.564  20.683   4.688
34393W        W 6064   6.761  39.575  14.415
34394W        W 6065  44.259  33.831   3.637
34395W        W 6066  38.314  27.560   4.597
34396W        W 6067  39.948  14.754  10.395
34397W        W 6068  31.845   5.364  13.372
34398W        W 6069  36.388  28.584  12.477
34399W        W 6070  18.203   6.660   3.032
34400W        W 6071  23.191  23.682   3.667
34401W        W 6072  44.716   2.866   0.519
34402W        W 6073  20.407  41.072   3.126
34403W        W 6074  33.456   7.214   3.293
34404W        W 6075   2.901  13.169   2.857
34405W        W 6076   7.270  43.411  14.936
34406W        W 6077  26.475   5.979   3.736
34407W        W 6078  37.995  38.514   1.735
34408W        W 6079  23.771   5.462  12.035
34409W        W 6080  42.061  24.200   0.232
34410W        W 6081  16.685  10.684  12.507
34411W        W 6082  16.727  38.634  12.497
34412W        W 6083  29.996  17.152  14.835
34413W        W 6084  17.312  42.037  12.592
34414W        W 6085  37.258   5.476   1.863
34415W        W 6086  40.872  38.318  14.283
34416W        W 6087  37.573  43.656  14.409
34417W        W 6088   0.241  24.933  12.021
34418W        W 6089   5.303  17.522   1.873
34419W        W 6090  10.844  23.693   4.174
34420W        W 6091  16.189  18.925   2.070
34421W        W 6092  33.094  40.871  13.603
34422W        W 6093  12.939  13.828  10.508
34423W        W 6094  12.653  32.516  12.964
34424W        W 6095   7.831  32.956   4.305
34425W        W 6096   3.365   1.943  14.996
34426W        W 6097   6.298  17.502   3.281
34427W        W 6098  24.454  11.738  11.659
34428W        W 6099  32.077  44.636  13.504
34429W        W 6100  15.732  27.910  13.019
34430W        W 6101  15.823  18.218  12.345
34431W        W 6102  33.465  21.542  10.687
34432W        W 6103  27.586  37.334   3.233
34433W        W 6104  44.001  25.076  11.175
34434W        W 6105  33.704   3.839  12.200
34435W        W 6106   8.687  10.795   2.232
34436W        W 6107  40.846  31.938  14.378
34437W        W 6108  13.760  23.724   1.781
34438W        W 6109  24.072  21.512  10.508
34439W        W 6110   7.341  18.287   2.484
34440W        W 6111   2.386  30.129   1.669
34441W        W 6112  24.250  19.062  10.581
34442W        W 6113  10.752  17.474   4.377
34443W        W 6114  40.225  17.847  11.462
34444W        W 6115  23.151   3.555   2.072
34445W        W 6116   6.429  16.747  14.854
34446W        W 6117  23.747   5.225   1.841
34447W        W 6118   3.388  17.341  11.685
34448W        W 6119  23.555  42.167  14.474
34449W        W 6120  42.970   8.317  13.859
34450W        W 6121  44.863  15.036  11.972
34451W        W 6122  21.612  42.056   1.501
34452W        W 6123  30.469  40.866   2.187
34453W        W 6124  25.829  44.701  11.129
34454W        W 6125  23.144   5.276   4.534
34455W        W 6126  31.185   8.122  13.660
34456W        W 6127  24.616  28.188   3.924
34457W        W 6128  25.419  43.394  14.618
34458W        W 6129  28.111   0.662  13.330
34459W        W 6130  14.438   8.923   3.195
34460W        W 6131  28.631  15.740  13.640
34461W        W 6132  30.669  23.028   4.446
34462W        W 6133  35.138   2.461  13.081
34463W        W 6134  41.419  36.298  13.821
34464W        W 6135   7.577  15.136  11.048
34465W        W 6136  33.083  40.602  11.984
34466W        W 6137  13.235  13.577   1.281
34467W        W 6138  31.437  12.443  14.413
34468W        W 6139   7.747   8.829   9.600
34469W        W 6140   4.453  10.616  12.954
34470W        W 6141  12.667  20.380   2.622
34471W        W 6142   5.464   1.397   0.915
34472W        W 6143  35.613  14.222  11.682
34473W        W 6144  36.063   9.379   1.260
34474W        W 6145  42.333   0.253   3.830
34475W        W 6146  32.991   8.415   3.805
34476W        W 6147  36.503  25.154  13.696
34477W        W 6148  13.073  37.049   3.602
34478W        W 6149  12.124   4.464  13.737
34479W        W 6150  17.822  15.366   0.690
34480W        W 6151   7.578  19.170  11.607
34481W        W 6152  16.700  44.072  12.437
34482W        W 6153  23.088   0.856   2.304
34483W        W 6154  17.600  40.104  10.692
34484W        W 6155  17.309  41.323  10.165
34485W        W 6156  37.944  43.106  12.751
34486W        W 6157  38.939  17.612   2.926
34487W        W 6158  30.725  34.808  12.976
34488W        W 6159   5.896  18.254  13.659
34489W        W 6160  42.751  25.172   0.325
34490W        W 6161  31.707  16.704   1.267
34491W        W 6162  10.342  30.991  14.985
34492W        W 6163  11.995   6.173  14.918
34493W        W 6164  44.697   4.304  14.869
34494W        W 6165  41.610  20.498   3.656
34495W        W 6166  35.397  18.605   3.787
34496W        W 6167   8.817  26.634  13.948
34497W        W 6168  22.993  29.432  11.991
34498W        W 6169  42.523  29.032   3.094
34499W        W 6170   9.285   1.373  14.525
34500W        W 6171  34.344  18.582   2.465
34501W        W 6172  42.534  18.725   4.921
34502W        W 6173  29.031  14.512  11.110
34503W        W 6174  41.421  17.606   3.098
34504W        W 6175   5.439  41.454   0.898
34505W        W 6176  13.348  22.617  14.360
34506W        W 6177  23.009  20.483  14.398
34507W        W 6178  24.633  16.750  12.845
34508W        W 6179  38.423  43.011  11.949
34509W        W 6180   1.372  22.854  11.787
34510W        W 6181  21.064   0.567   5.235
34511W        W 6182  26.699  27.627  14.366
34512W        W 6183  11.627   5.355   2.251
34513W        W 6184  44.501  30.460  10.509
34514W        W 6185   5.387  13.231   3.369
34515W        W 6186   8.803  10.059  12.812
34516W        W 6187  12.230  15.626  14.250
34517W        W 6188  40.532   1.305   0.761
34518W        W 6189  39.783  39.970   0.913
34519W        W 6190   5.770  44.454  13.905
34520W        W 6191   6.614  11.587  13.616
34521W        W 6192  15.145  31.493   0.288
34522W        W 6193  14.301  19.550  12.550
34523W        W 6194  18.210  26.045  14.431
34524W        W 6195  31.023  14.150   2.768
34525W        W 6196  24.674  42.086   0.454
34526W        W 6197  39.440  22.824  12.325
34527W        W 6198   4.145  22.699  12.789
34528W        W 6199  40.279  36.577  13.829
34529W        W 6200  14.193  39.958   1.591
34530W        W 6201  15.568  20.011   3.331
34531W        W 6202   0.775  27.627  14.048
34532W        W 6203   6.624  35.136   0.016
34533W        W 6204  23.594  36.407   0.677
34534W        W 6205  10.741  35.477   4.359
34535W        W 6206  20.194  11.548  12.140
34536W        W 6207  40.960  13.749   0.138
34537W        W 6208  28.622  19.544   0.479
34538W        W 6209  15.470  21.205   3.786
34539W        W 6210  11.473  41.740  11.435
34540W        W 6211  18.891  24.856  10.240
34541W        W 6212  29.395  26.185  12.962
34542W        W 6213  16.228  40.112   0.816
34543W        W 6214  18.633  22.524   0.009
34544W        W 6215  26.258  13.465  13.944
34545W        W 6216   8.149  12.724   0.938
34546W        W 6217   4.684  18.117  13.241
34547W        W 6218   1.689  42.777  13.464
34548W        W 6219  13.103  38.000  14.797
34549W        W 6220  19.056  39.992  10.633
34550W        W 6221   7.814  31.955  14.086
34551W        W 6222  41.228  17.744  12.368
34552W        W 6223  40.309  29.155   3.922
34553W        W 6224  44.636   1.303  13.818
34554W        W 6225  32.261  17.605   4.300
34555W        W 6226  11.210  26.866   0.166
34556W        W 6227   0.327  20.497   0.197
34557W        W 6228  17.312  43.426  14.681
34558W        W 6229  10.144  43.973   4.988
34559W        W 6230  31.454  13.613   1.509
34560W        W 6231  15.661  43.541  12.103
34561W        W 6232  43.381  11.219  10.463
34562W        W 6233  29.598  21.968  12.417
34563W        W 6234  28.389  38.361   1.775
34564W        W 6235  15.606   7.883   2.934
34565W        W 6236  44.951  29.412  14.702
34566W        W 6237  28.944  27.042   1.320
34567W        W 6238  12.323  30.648  14.691
34568W        W 6239  44.072   1.891   3.558
34569W        W 6240   4.386  35.762   2.839
34570W        W 6241  20.756  17.046   1.209
34571W        W 6242  35.369  44.433  11.651
34572W        W 6243  39.038   4.431  11.954
34573W        W 6244  36.637  31.897   0.854
34574W        W 6245  19.478  44.691   1.320
34575W        W 6246  29.624  18.599   2.336
34576W        W 6247   0.207  23.050  12.090
34577W        W 6248  21.083  42.001  11.115
34578W        W 6249   2.563  28.870  13.904
34579W        W 6250  12.828  13.748   0.984
34580W        W 6251   5.665  24.137   4.217
34581W        W 6252  44.047  10.898   2.473
34582W        W 6253  29.438  26.307   0.452
34583W        W 6254  20.519  31.032   4.630
34584W        W 6255  19.128  27.395  13.421
34585W        W 6256  24.031   4.872   4.154
34586W        W 6257   8.341  34.840  11.987
34587W        W 6258  23.168  18.100   3.324
34588W        W 6259  42.393  26.361   0.817
34589W        W 6260  31.456   7.034  13.380
34590W        W 6261   5.119   0.494   2.845
34591W        W 6262  22.449  37.171   1.902
34592W        W 6263  26.649  31.129  13.816
34593W        W 6264   1.327  39.772   1.936
34594W        W 6265  39.946  43.843  14.499
34595W        W 6266  23.136   6.183  13.918
34596W        W 6267  28.703   0.958  14.534
34597W        W 6268  24.092  22.540  13.464
34598W        W 6269  17.769  34.170  13.526
34599W        W 6270   6.293  34.500   1.451
34600W        W 6271  33.380  32.956   3.724
34601W        W 6272   9.677   4.440   1.311
34602W        W 6273  23.973  37.186  14.886
34603W        W 6274  37.966  17.772   3.543
34604W        W 6275  32.590   3.360  14.557
34605W        W 6276  15.176   5.643  13.521
34606W        W 6277  19.006  30.699  10.683
34607W        W 6278   0.293  28.757   3.740
34608W        W 6279  29.994  17.160  13.088
34609W        W 6280  29.095  35.363   2.296
34610W        W 6281  30.549  29.046  11.653
34611W        W 6282  40.338   7.161  14.908
34612W        W 6283  24.105  35.586  12.114
34613W        W 6284  20.253  18.541  11.916
34614W        W 6285  30.194  37.559   3.257
34615W        W 6286  25.666   6.172  10.982
34616W        W 6287  11.220  38.612  13.158
34617W        W 6288  20.630  35.077   0.255
34618W        W 6289   8.289  13.058  14.463
34619W        W 6290  39.491  26.104   4.685
34620W        W 6291  18.234  43.220  11.160
34621W        W 6292  40.121  20.571  10.598
34622W        W 6293  27.291  30.405  12.491
34623W        W 6294  16.195  39.313   4.786
34624W        W 6295  37.055  13.102   1.322
34625W        W 6296  38.391  17.674  14.856
34626W        W 6297   6.251  20.223   4.237
34627W        W 6298  40.780   7.694   0.776
34628W        W 6299  33.332  24.236   3.767
34629W        W 6300  43.758   5.177  14.441
34630W        W 6301  32.617  31.635  14.006
34631W        W 6302  17.624  24.436   1.276
34632W        W 6303  35.492  41.344  10.626
34633W        W 6304  20.729  24.373  14.477
34634W        W 6305  40.136  22.092   0.889
34635W        W 6306  34.769  31.226  13.467
34636W        W 6307  10.176  36.341   1.121
34637W        W 6308  30.832  17.371   4.212
34638W        W 6309  16.729  30.021  11.691
34639W        W 6310  25.632  31.741   5.064
34640W        W 6311  28.345   3.334   1.320
34641W        W 6312   8.798  23.575   2.241
34642W        W 6313  26.239   8.185  11.348
34643W        W 6314  18.729  40.270   3.281
34644W        W 6315   9.882  44.302  11.452
34645W        W 6316  15.775  16.873  13.451
34646W        W 6317  23.907   2.244   0.801
34647W        W 6318  35.969  38.961   2.677
34648W        W 6319   2.511  37.972  13.452
34649W        W 6320   9.198  35.146   0.641
34650W        W 6321  19.749  43.951   5.031
34651W        W 6322   0.913  39.564   0.347
34652W        W 6323  32.000  28.600   2.332
34653W        W 6324  17.488  12.241   2.346
34654W        W 6325  44.550  20.536  11.451
34655W        W 6326  17.851  11.207   1.903
34656W        W 6327   5.749  28.135  12.669
34657W        W 6328  36.766   0.341  11.665
34658W        W 6329  21.118  11.133   1.664
34659W        W 6330   8.381  14.086  11.511
34660W        W 6331  28.553  19.772  10.527
34661W        W 6332   7.697  18.539  12.608
34662W        W 6333   4.448  39.910  11.094
34663W        W 6334  40.419  32.905  10.744
34664W        W 6335  31.247   8.939   5.204
34665W        W 6336  10.565  27.052  12.116
34666W        W 6337  13.805  36.934  13.241
34667W        W 6338  28.065  38.630   3.225
34668W        W 6339  24.021  27.245  13.077
34669W        W 6340  29.999   1.429  11.407
34670W        W 6341  16.960  18.787  13.175
34671W        W 6342  17.339  22.684   4.556
34672W        W 6343  30.297  20.308   3.778
34673W        W 6344   6.302   6.913  12.861
34674W        W 6345  44.974  12.418   2.476
34675W        W 6346  40.876  35.082   1.763
34676W        W 6347  26.223  36.544  12.380
34677W        W 6348  13.213  44.890  10.556
34678W        W 6349  42.993   4.817   3.330
34679W        W 6350  20.785  20.260   0.396
34680W        W 6351  44.315  41.741   5.291
34681W        W 6352   4.305  37.756  14.058
34682W        W 6353  37.074  20.552   0.361
34683W        W 6354  40.861   1.442   2.283
34684W        W 6355  14.120  37.030  13.997
34685W        W 6356  11.626  41.967   3.983
34686W        W 6357  20.539  25.383  14.704
34687W        W 6358  10.842  40.458  10.660
34688W        W 6359   1.275  34.954  12.132
34689W        W 6360  23.211   6.343  12.813
34690W        W 6361  41.609  11.394   2.421
34691W        W 6362  32.465  42.203   1.863
34692W        W 6363  35.320  39.518  11.522
34693W        W 6364  38.321  43.247   3.261
34694W        W 6365  15.524   7.586  14.454
34695W        W 6366   9.347  25.244   4.067
34696W        W 6367  35.032  26.204   1.739
34697W        W 6368  18.552  37.327   4.176
34698W        W 6369  14.160  35.991  12.479
34699W        W 6370  37.275  22.153  13.348
34700W        W 6371  40.043  13.890   0.011
34701W        W 6372  18.602   5.903  13.901
34702W        W 6373   3.536  16.709  12.937
34703W        W 6374  17.634  24.700   3.461
34704W        W 6375  44.892   0.260   2.605
34705W        W 6376  43.205  25.789   1.175
34706W        W 6377  13.243  32.558   0.055
34707W        W 6378  26.077  23.999  10.627
34708W        W 6379  27.646  12.144  11.740
34709W        W 6380  23.198  29.000  12.937
34710W        W 6381   8.812   7.834  13.544
34711W        W 6382  44.888  14.095  14.100
34712W        W 6383  31.522   0.709   4.087
34713W        W 6384   2.585  19.970  13.491
34714W        W 6385  28.237  11.630   1.355
34715W        W 6386  12.536  41.892  12.874
34716W        W 6387  40.312  28.956   9.935
34717W        W 6388  32.877   9.748  13.024
34718W        W 6389  23.697  11.501  12.070
34719W        W 6390  18.524  44.940   0.329
34720W        W 6391  14.332  27.038  13.388
34721W        W 6392  17.083  32.896   0.347
34722W        W 6393   9.422  42.769  13.830
34723W        W 6394  43.314   8.380   3.370
34724W        W 6395  32.051  33.621   0.012
34725W        W 6396  23.455   3.774   4.126
34726W        W 6397   8.681  38.065  13.812
34727W        W 6398   5.723  36.394  13.070
34728W        W 6399   1.990   9.172  14.475
34729W        W 6400  16.180  38.299   4.799
34730W        W 6401  15.158  16.792   4.496
34731W        W 6402   7.111   9.750   2.009
34732W        W 6403   0.715  29.912  10.956
34733W        W 6404  26.984   0.716   1.335
34734W        W 6405  15.564  44.504   2.851
34735W        W 6406   4.747  37.977  13.901
34736W        W 6407  41.786   3.936  12.796
34737W        W 6408  34.461  20.268   2.018
34738W        W 6409   8.184   4.386  11.895
34739W        W 6410  11.904   3.410  13.021
34740W        W 6411   7.428  32.115   3.731
34741W        W 6412  22.540  42.996  14.061
34742W        W 6413  25.910   7.425   2.838
34743W        W 6414  33.850   8.640   4.935
34744W        W 6415  29.488  37.797   3.728
34745W        W 6416  21.566  13.378   2.499
34746W        W 6417  25.136  42.565  13.387
34747W        W 6418  27.857  15.775  13.419
34748W        W 6419   4.271  21.553   3.454
34749W        W 6420  29.159  42.422   2.329
34750W        W 6421  30.145  40.988   1.092
34751W        W 6422  42.306  34.040  12.503
34752W        W 6423   8.254  39.111   3.104
34753W        W 6424  20.613  11.137   1.514
34754W        W 6425   6.754  10.622  12.593
34755W        W 6426  19.777   2.970  12.544
34756W        W 6427  16.323   6.428  14.508
34757W        W 6428  10.921  19.514  12.569
34758W        W 6429  11.680   5.404  14.370
34759W        W 6430   0.788   7.281  12.084
34760W        W 6431  31.847   1.820  14.045
34761W        W 6432  32.656  39.999   1.915
34762W        W 6433  40.017  23.053   4.892
34763W        W 6434  22.986  23.089  13.878
34764W        W 6435  44.794  25.028   2.338
34765W        W 6436  10.723  17.091   2.749
34766W        W 6437  26.440  37.450  11.028
34767W        W 6438   0.909  44.331   1.698
34768W        W 6439   3.656  31.483   4.728
34769W        W 6440  37.939  13.886   4.350
34770W        W 6441  31.462   1.197   1.717
34771W        W 6442  33.144  23.607   3.154
34772W        W 6443  34.898  38.893   0.978
34773W        W 6444   5.444  34.832  11.517
34774W        W 6445  41.804  12.401   4.409
34775W        W 6446   2.826  38.744   3.952
34776W        W 6447   7.955  26.455   4.092
34777W        W 6448  36.127  19.496   2.867
34778W        W 6449  12.941  30.390   0.873
34779W        W 6450  39.307  27.458   0.461
34780W        W 6451   6.312  34.655  13.317
34781W        W 6452  19.668  31.609   2.361
34782W        W 6453  19.204  32.150  10.698
34783W        W 6454  40.888   9.750  10.639
34784W        W 6455   2.429  28.145   0.878
34785W        W 6456   8.169  15.232  14.912
34786W        W 6457  13.720  25.996  13.070
34787W        W 6458  25.729  40.417  11.264
34788W        W 6459  28.431  29.501  13.786
34789W        W 6460  44.164   4.236  14.840
34790W        W 6461  31.146   4.786  12.526
34791W        W 6462   4.474  33.643  13.931
34792W        W 6463  34.355  27.620  14.264
34793W        W 6464  13.135  20.027  11.219
34794W        W 6465  44.775  39.397   0.751
34795W        W 6466  41.918  21.780  12.820
34796W        W 6467  18.166   0.027   3.042
34797W        W 6468   2.255   8.676   0.242
34798W        W 6469  26.920  18.869  13.958
34799W        W 6470  33.101   5.239  14.813
34800W        W 6471  44.980  17.469   1.503
34801W        W 6472  14.064  26.793  14.140
34802W        W 6473  16.122   7.664  13.755
34803W        W 6474  38.278  35.336  11.900
34804W        W 6475  25.066  28.731   1.888
34805W        W 6476  11.901  32.937   4.213
34806W        W 6477   8.817  22.687   3.181
34807W        W 6478  20.394   1.825  12.060
34808W        W 6479  35.409  36.257   1.258
34809W        W 6480  21.537  16.623   1.307
34810W        W 6481  39.071   4.366  11.073
34811W        W 6482  22.085   2.585   0.761
34812W        W 6483  13.294  13.661  12.872
34813W        W 6484  20.561  12.310   2.343
34814W        W 6485  43.903  20.665   9.981
34815W        W 6486  10.809   8.445   2.722
34816W        W 6487  10.003  27.827  11.698
34817W        W 6488  28.448   6.680  13.319
34818W        W 6489  22.261  15.746  11.573
34819W        W 6490  13.063  20.946   1.667
34820W        W 6491   7.418  22.732  12.490
34821W        W 6492  38.977   9.511   1.712
34822W        W 6493  33.954  18.268  13.004
34823W        W 6494  41.975   6.278  12.118
34824W        W 6495   5.929  27.353   0.031
34825W        W 6496   5.766  44.183   1.287
34826W        W 6497  37.897  14.083   2.551
34827W        W 6498  19.358  13.212  13.655
34828W        W 6499  27.935  21.695  11.882
34829W        W 6500  14.566   0.423   2.725
34830W        W 6501  18.451  16.549  13.774
34831W        W 6502  32.546  32.627   2.232
34832W        W 6503  17.398   2.717   1.646
34833W        W 6504  18.925  15.488  11.998
34834W        W 6505  28.722  31.006   4.691
34835W        W 6506   1.927   1.823   2.261
34836W        W 6507  25.067  37.448  13.440
34837W        W 6508  25.361   8.222  11.004
34838W        W 6509  26.371  19.992  13.884
34839W        W 6510  42.335   0.998  12.804
34840W        W 6511  17.554  11.690  14.709
34841W        W 6512  23.302  16.335   2.145
34842W        W 6513  41.291  20.097   1.175
34843W        W 6514  14.329   4.080   5.096
34844W        W 6515  12.356  21.504   4.511
34845W        W 6516   1.804   0.872   4.757
34846W        W 6517   2.493  21.189  13.990
34847W        W 6518  11.911   6.982  12.588
34848W        W 6519  32.347  37.822  11.147
34849W        W 6520  42.293  12.798   1.912
34850W        W 6521  30.403  18.409   1.772
34851W        W 6522  28.641   4.868   0.826
34852W        W 6523  38.414  34.621  10.722
34853W        W 6524  24.476  36.686  12.535
34854W        W 6525  35.634   1.522   4.870
34855W        W 6526   9.945  17.640   0.288
34856W        W 6527   2.891  17.620  10.932
34857W        W 6528  14.288  37.783  11.108
34858W        W 6529  27.948  39.943   1.066
34859W        W 6530  24.060  37.570   3.164
34860W        W 6531  30.832   7.953  13.999
34861W        W 6532  36.118  23.071   2.862
34862W        W 6533   8.761   0.445  13.809
34863W        W 6534  30.668  35.498  11.082
34864W        W 6535  19.865   9.358  13.513
34865W        W 6536  15.554   6.919  13.786
34866W        W 6537  42.560  12.145  14.040
34867W        W 6538  37.882  19.320  12.697
34868W        W 6539  33.174  17.703   0.451
34869W        W 6540  33.841  19.233  14.384
34870W        W 6541  29.138  23.322  14.377
34871W        W 6542  29.133  25.961  13.381
34872W        W 6543  39.846  11.222   0.255
34873W        W 6544  10.576  42.335   1.897
34874W        W 6545   9.818  42.533  14.070
34875W        W 6546  10.434  20.112  10.498
34876W        W 6547  44.725  26.012   4.697
34877W        W 6548  26.659   3.020  12.605
34878W        W 6549  30.063   1.759   4.095
34879W        W 6550  26.197   6.936  14.800
34880W        W 6551   2.766  44.302   1.412
34881W        W 6552  11.768  10.899   1.448
34882W        W 6553  28.204   2.170   0.369
34883W        W 6554  24.230  38.151  10.231
34884W        W 6555  39.542  35.025   2.642
34885W        W 6556  26.361  25.311  10.846
34886W        W 6557  28.489  30.549  11.742
34887W        W 6558  43.867  23.515   1.429
34888W        W 6559  39.293  40.794  13.462
34889W        W 6560  43.816   6.699   3.710
34890W        W 6561  20.189  29.771   3.253
34891W        W 6562  13.665   4.342   0.354
34892W        W 6563  17.731  26.102   3.744
34893W        W 6564  23.709  41.001   1.438
34894W        W 6565  18.724   1.231  14.959
34895W        W 6566  37.662   1.870   1.890
34896W        W 6567  18.737  20.313  14.487
34897W        W 6568  15.338  43.945  12.085
34898W        W 6569  32.467  11.064   2.416
34899W        W 6570  33.070  32.635  14.836
34900W        W 6571  28.695  27.933  12.019
34901W        W 6572  19.180   0.920   0.963
34902W        W 6573   9.342  12.325   1.873
34903W        W 6574   1.731  35.531   2.339
34904W        W 6575  40.497  29.089  13.828
34905W        W 6576  19.673  22.882  13.844
34906W        W 6577  23.123  30.329   1.016
34907W        W 6578  39.089  44.570  11.532
34908W        W 6579  37.468  19.199  11.576
34909W        W 6580  16.084  28.649   0.755
34910W        W 6581  26.219  10.612   0.659
34911W        W 6582   1.249  40.084   2.371
34912W        W 6583  17.109   4.671   3.144
34913W        W 6584  13.131   9.845  13.483
34914W        W 6585  36.041  37.598   3.279
34915W        W 6586  24.012  22.698   1.437
34916W        W 6587  35.119  36.048  11.452
34917W        W 6588  34.406   0.924  14.951
34918W        W 6589  28.309  39.004  11.023
34919W        W 6590  15.423  24.977  11.872
34920W        W 6591  33.037  25.779   1.149
34921W        W 6592  18.191  44.071  11.610
34922W        W 6593  18.783  39.927  12.705
34923W        W 6594  42.857  32.874  13.426
34924W        W 6595  37.467  43.328  12.321
34925W        W 6596  21.819  39.287   1.236
34926W        W 6597  40.982  29.743  10.607
34927W        W 6598  11.759  33.930   3.401
34928W        W 6599  30.533   8.107   5.258
34929W        W 6600  14.608  39.047   1.675
34930W        W 6601  38.745  16.154   4.360
34931W        W 6602  18.038  30.013  14.595
34932W        W 6603   6.159  27.951  14.474
34933W        W 6604  19.478  15.655   1.218
34934W        W 6605  23.065  33.678  11.139
34935W        W 6606  23.701  21.697   3.561
34936W        W 6607   6.689  10.331  10.737
34937W        W 6608   6.242  10.779   1.849
34938W        W 6609  33.802  27.897  10.139
34939W        W 6610  14.069  43.968  12.762
34940W        W 6611   3.066  36.863  13.737
34941W        W 6612  35.354   8.315  11.988
34942W        W 6613   2.952  20.594   3.323
34943W        W 6614  12.869  11.405  12.965
34944W        W 6615  15.642  38.462  14.359
34945W        W 6616  40.127  35.512   1.776
34946W        W 6617  16.266  38.719  10.505
34947W        W 6618   3.404  18.618  10.580
34948W        W 6619  40.639  25.701  13.479
34949W        W 6620  10.903  24.597   3.388
34950W        W 6621  13.886  38.881  13.324
34951W        W 6622  10.447  15.624   4.636
34952W        W 6623  35.420  16.039  13.097
34953W        W 6624  15.305  38.526   1.978
34954W        W 6625  28.900  30.127  12.946
34955W        W 6626  29.595   8.239  14.825
34956W        W 6627  14.729  11.401  12.238
34957W        W 6628  21.234  17.543  13.401
34958W        W 6629  34.726  17.301   1.397
34959W        W 6630  30.911  23.975   3.634
34960W        W 6631  13.475  16.789  12.933
34961W        W 6632  13.378  35.004   2.535
34962W        W 6633  25.065  41.034  14.809
34963W        W 6634  15.648  44.411   0.260
34964W        W 6635   0.261   4.326   1.370
34965W        W 6636  14.655  40.788  10.728
34966W        W 6637  21.847  25.609  10.269
34967W        W 6638  24.282   0.400  11.526
34968W        W 6639  40.907  12.140  13.562
34969W        W 6640   2.852  29.497   0.754
34970W        W 6641  39.094  40.016  13.848
34971W        W 6642  11.575   7.840   0.347
34972W        W 6643  44.876  30.152   1.868
34973W        W 6644  33.557  40.836   4.157
34974W        W 6645  32.425  29.239   3.930
34975W        W 6646  26.496  12.256  10.656
34976W        W 6647  39.927  34.365  12.986
34977W        W 6648  16.123  38.773   4.581
34978W        W 6649   9.703  14.437  13.796
34979W        W 6650  39.374  20.717  11.088
34980W        W 6651  31.552   2.498   4.693
34981W        W 6652  31.425  27.351   2.442
34982W        W 6653  33.491   6.095   3.992
34983W        W 6654  15.671  10.737  10.765
34984W        W 6655   0.216   9.392  11.152
34985W        W 6656  22.709  13.242  13.476
34986W        W 6657  42.707  11.340   4.812
34987W        W 6658  41.554   9.666   1.883
34988W        W 6659  27.961  19.590  13.697
34989W        W 6660  41.451  33.032   4.540
34990W        W 6661  37.411  28.088  11.075
34991W        W 6662  25.370   8.464   4.985
34992W        W 6663  16.867  25.480  11.167
34993W        W 6664   2.197   6.200   0.428
34994W        W 6665  11.779  24.490   3.792
34995W        W 6666  37.289  23.342  12.694
34996W        W 6667  29.123  44.924  13.303
34997W        W 6668  23.512  42.406   4.738
34998W        W 6669  26.625  20.653   4.180
34999W        W 6670  27.839   3.325   1.203
35000W        W 6671  32.992  35.185   2.824
35001W        W 6672  26.773  39.851  10.735
35002W        W 6673   5.805  41.309  10.496
35003W        W 6674  25.103  29.230   1.996
35004W        W 6675  12.169  13.240   1.177
35005W        W 6676  28.600  17.484  13.669
35006W        W 6677  18.974  16.651   2.184
35007W        W 6678  37.948  18.737  14.111
35008W        W 6679  38.599  32.874   0.676
35009W        W 6680  13.634  41.887  10.934
35010W        W 6681  24.195  15.731  14.128
35011W        W 6682  35.314  30.451   4.482
35012W        W 6683  16.977  43.498  12.585
35013W        W 6684   2.930  43.328  14.151
35014W        W 6685  14.390  10.802  14.410
35015W        W 6686  11.810  23.078  14.188
35016W        W 6687  14.294   2.498  14.932
35017W        W 6688  23.208  15.682   3.828
35018W        W 6689  38.466  29.734  13.497
35019W        W 6690   3.027  37.103   0.881
35020W        W 6691  33.587  36.376  13.476
35021W        W 6692  25.434  41.731   1.633
35022W        W 6693   5.765   6.200   2.313
35023W        W 6694  43.252  22.367   3.248
35024W        W 6695  41.457  44.843   4.085
35025W        W 6696  10.265  20.703  12.601
35026W        W 6697  21.111  21.520   4.373
35027W        W 6698  43.385  37.158  12.837
35028W        W 6699  27.097  30.103   4.646
35029W        W 6700  29.489   2.177  11.667
35030W        W 6701  22.777  29.403   3.847
35031W        W 6702  16.616  13.112   1.743
35032W        W 6703  32.462  19.906   2.239
35033W        W 6704  34.202  36.326  10.734
35034W        W 6705  33.302  12.208   3.670
35035W        W 6706   5.261  15.221  11.065
35036W        W 6707  41.436   9.524   0.791
35037W        W 6708  28.939   1.480   0.247
35038W        W 6709  22.191  11.715  10.669
35039W        W 6710  26.709  42.762   2.939
35040W        W 6711  35.105  38.789  11.037
35041W        W 6712  14.429  20.336   5.077
35042W        W 6713  29.331  38.457   2.877
35043W        W 6714  34.168  19.820  13.027
35044W        W 6715   7.292  42.615   1.282
35045W        W 6716  42.523  34.461  12.701
35046W        W 6717   7.764   9.754  10.939
35047W        W 6718  40.311   6.126   0.135
35048W        W 6719  23.586  11.135   4.548
35049W        W 6720  21.240  29.927   3.127
35050W        W 6721  17.415  17.197   0.739
35051W        W 6722  29.472  22.377  11.934
35052W        W 6723  25.300  34.409  10.027
35053W        W 6724  29.871  32.556   4.229
35054W        W 6725  12.412   7.948   1.715
35055W        W 6726  36.031  28.910  13.839
35056W        W 6727   3.003   8.334  12.459
35057W        W 6728  40.542  23.777   0.884
35058W        W 6729  33.325   0.478   0.825
35059W        W 6730  11.901   5.659  14.867
35060W        W 6731  21.584  17.296   0.804
35061W        W 6732  22.661  10.579  10.060
35062W        W 6733   8.390  18.553  14.954
35063W        W 6734  31.424  41.244  10.991
35064W        W 6735  40.913   7.859  13.229
35065W        W 6736  28.507  15.178   3.660
35066W        W 6737  11.352  15.413   0.880
35067W        W 6738  24.907  40.415   0.849
35068W        W 6739  11.510  22.518   4.173
35069W        W 6740  25.383   9.712   3.549
35070W        W 6741  30.469  17.346  14.916
35071W        W 6742  35.017  39.098  13.654
35072W        W 6743  19.067   6.711  14.883
35073W        W 6744  35.701  12.687   1.917
35074W        W 6745  25.131   3.733  12.580
35075W        W 6746  31.039  14.707   0.381
35076W        W 6747   9.669  40.142  12.477
35077W        W 6748  19.663   2.698   3.597
35078W        W 6749  14.349  29.215   4.606
35079W        W 6750  26.022  13.653  12.161
35080W        W 6751  43.179   0.501  12.998
35081W        W 6752  32.392  12.383  13.003
35082W        W 6753  14.743  16.233  14.881
35083W        W 6754  24.527  14.335  14.966
35084W        W 6755  42.723  15.785  12.513
35085W        W 6756  12.881  14.008   2.300
35086W        W 6757   7.238  17.500   2.830
35087W        W 6758   8.604  44.471  13.746
35088W        W 6759  43.467  10.262  13.212
35089W        W 6760  44.396   7.115   1.153
35090W        W 6761  29.074  32.200   1.798
35091W        W 6762  11.955   9.416  12.344
35092W        W 6763  42.900  44.400   0.714
35093W        W 6764  44.265  23.315  13.436
35094W        W 6765  12.943  38.310   0.829
35095W        W 6766  41.505  42.340   1.954
35096W        W 6767   0.190  14.892   1.708
35097W        W 6768  33.084  21.184   0.422
35098W        W 6769  37.291   6.742   3.436
35099W        W 6770   6.365   7.268  11.177
35100W        W 6771  40.490  38.938  11.539
35101W        W 6772  17.323   7.370  14.038
35102W        W 6773   9.418  31.238   1.352
35103W        W 6774   7.734  34.446   1.825
35104W        W 6775  17.011  15.183  14.385
35105W        W 6776  42.042  39.041   4.554
35106W        W 6777  28.569  28.993  13.831
35107W        W 6778  39.052  25.498   0.826
35108W        W 6779  32.090   4.955   4.209
35109W        W 6780  15.438  34.364   1.847
35110W        W 6781  39.289  21.787   4.719
35111W        W 6782  35.805   5.201  12.897
35112W        W 6783  23.038  30.896  13.483
35113W        W 6784  37.857   8.963   3.445
35114W        W 6785  42.986  41.445   5.651
35115W        W 6786  36.214  16.718   3.034
35116W        W 6787  39.310   1.292  11.168
35117W        W 6788   8.433   8.907  11.133
35118W        W 6789  20.126  15.262  14.313
35119W        W 6790  14.584  12.188   0.771
35120W        W 6791  44.943  38.041  13.533
35121W        W 6792  36.343  34.319   3.217
35122W        W 6793  36.371  30.340   4.049
35123W        W 6794  41.313  24.436  13.406
35124W        W 6795   6.660  15.052   0.087
35125W        W 6796  39.776   0.875   3.181
35126W        W 6797  23.586   3.755   0.002
35127W        W 6798  36.645  29.420   0.866
35128W        W 6799  36.814  26.043   3.520
35129W        W 6800  19.408  25.040   2.169
35130W        W 6801   1.467  32.367   0.799
35131W        W 6802  44.121   0.040   3.795
35132W        W 6803  37.038  39.543   4.638
35133W        W 6804  42.378  26.482  12.451
35134W        W 6805  33.975  31.648   2.919
35135W        W 6806  18.479  41.043   3.697
35136W        W 6807  40.434   2.298   0.559
35137W        W 6808  42.375  29.206  11.042
35138W        W 6809  41.723   7.195  11.108
35139W        W 6810  29.288   3.695  12.439
35140W        W 6811  41.572  21.361  12.046
35141W        W 6812   0.944  19.978   4.572
35142W        W 6813  31.251  16.145   4.670
35143W        W 6814   6.179  31.015   0.381
35144W        W 6815  23.405   6.243   2.276
35145W        W 6816   9.727  37.762   0.123
35146W        W 6817  43.929   9.661   4.602
35147W        W 6818  24.019  35.637   1.120
35148W        W 6819  39.740  26.975   3.513
35149W        W 6820  23.269  31.640   3.897
35150W        W 6821  19.820   4.256  12.489
35151W        W 6822  25.005  14.532   0.920
35152W        W 6823  10.841  23.447  12.458
35153W        W 6824  30.145  25.730  14.771
35154W        W 6825  33.179  20.467   0.776
35155W        W 6826   7.923  36.978  10.888
35156W        W 6827  41.796  35.936   4.584
35157W        W 6828  30.698  28.833   3.967
35158W        W 6829  26.478   0.552  12.065
35159W        W 6830   7.513   8.082   4.956
35160W        W 6831   4.702   9.858   4.163
35161W        W 6832  25.578  31.351   3.303
35162W        W 6833   9.692  34.082  10.535
35163W        W 6834  28.697  15.633  11.127
35164W        W 6835  22.175  35.072   1.014
35165W        W 6836  35.972  29.011   4.040
35166W        W 6837  30.955  17.231  12.086
35167W        W 6838  26.944   7.167  11.396
35168W        W 6839  18.744  16.227   0.967
35169W        W 6840  36.151  44.617  12.063
35170W        W 6841  34.868  22.273   3.750
35171W        W 6842  29.925  35.747   3.804
35172W        W 6843  26.282  29.460  11.598
35173W        W 6844   9.160  21.552  13.959
35174W        W 6845  34.119  13.292  12.592
35175W        W 6846  37.083  25.278  13.322
35176W        W 6847  28.342  36.960  14.251
35177W        W 6848  25.439   8.234   2.246
35178W        W 6849  15.101  40.336  11.538
35179W        W 6850  28.662  13.142   1.916
35180W        W 6851  19.224   5.281   4.058
35181W        W 6852   3.434   1.792   1.753
35182W        W 6853   6.760  26.884   3.336
35183W        W 6854  27.919   2.819  13.566
35184W        W 6855  43.581  14.745  13.077
35185W        W 6856  42.432  14.158   2.892
35186W        W 6857   4.348  20.556   3.523
35187W        W 6858  22.075   5.041   4.856
35188W        W 6859   0.834  17.078   1.188
35189W        W 6860  21.797  16.743   3.251
35190W        W 6861  23.921  26.198  10.723
35191W        W 6862  28.683  26.196  12.490
35192W        W 6863  22.802  11.810   2.440
35193W        W 6864  28.630  22.217   2.053
35194W        W 6865  14.635  12.317  12.316
35195W        W 6866  20.553  13.262  12.665
35196W        W 6867  25.233  14.725   4.555
35197W        W 6868  19.603  29.638   4.657
35198W        W 6869  31.947  26.655  12.304
35199W        W 6870  34.269   3.209  13.975
35200W        W 6871  35.556  34.918   1.200
35201W        W 6872  11.080  35.411   2.784
35202W        W 6873  23.254   8.835  13.711
35203W        W 6874  36.080  13.732   0.354
35204W        W 6875  22.907   4.841   0.724
35205W        W 6876  41.302  30.419  12.519
35206W        W 6877  17.558   4.986  14.399
35207W        W 6878  20.528  39.479   4.193
35208W        W 6879  20.822  36.277   2.260
35209W        W 6880  21.027   5.972   2.686
35210W        W 6881  25.700  35.427   2.137
35211W        W 6882  10.100   8.872   2.329
35212W        W 6883  31.930  34.397  13.463
35213W        W 6884  16.059  28.720   2.242
35214W        W 6885   6.172   8.131   3.186
35215W        W 6886  44.467  16.389   0.312
35216W        W 6887   7.549  23.736  12.855
35217W        W 6888  19.474   9.318   4.989
35218W        W 6889  17.217   2.330   0.868
35219W        W 6890  31.529  26.591  13.574
35220W        W 6891  43.140   5.439   1.825
35221W        W 6892  20.152  25.508   0.007
35222W        W 6893  27.478  36.828  14.774
35223W        W 6894  27.449  36.072  12.477
35224W        W 6895   0.224  37.539  13.124
35225W        W 6896  39.775  16.281   4.195
35226W        W 6897  22.535  44.246  11.951
35227W        W 6898  10.638  18.933  12.148
35228W        W 6899   0.762   3.223   3.713
35229W        W 6900  38.642   4.277  13.456
35230W        W 6901  37.500   0.583  14.348
35231W        W 6902  31.200   0.707  10.031
35232W        W 6903  15.040  18.654  14.457
35233W        W 6904  35.650  29.521  13.102
35234W        W 6905   3.008   9.221  11.384
35235W        W 6906  44.844  25.924   4.200
35236W        W 6907  14.703  31.322  14.336
35237W        W 6908  18.515   7.246  11.921
35238W        W 6909  33.642  38.473  14.431
35239W        W 6910  34.319  22.170  14.806
35240W        W 6911   1.505   8.197  13.444
35241W        W 6912  22.787  15.815  11.552
35242W        W 6913  23.194  44.327  10.566
35243W        W 6914  10.407   5.200   0.393
35244W        W 6915   2.796  28.385  14.592
35245W        W 6916   1.938  43.335   3.733
35246W        W 6917   2.134  24.579  11.262
35247W        W 6918  36.217  32.087   2.089
35248W        W 6919  16.670  25.331  12.442
35249W        W 6920  10.237  32.120   0.701
35250W        W 6921  12.336   2.866   4.595
35251W        W 6922  29.677  43.402   3.839
35252W        W 6923   0.938  28.188   4.074
35253W        W 6924   8.489  24.735  11.098
35254W        W 6925   3.796  34.719  13.943
35255W        W 6926  40.043   7.044  14.476
35256W        W 6927  15.585  22.037   3.203
35257W        W 6928  14.198   5.217  11.991
35258W        W 6929  24.893  43.065   5.108
35259W        W 6930  19.835  43.664  10.989
35260W        W 6931  36.957  22.245   1.477
35261W        W 6932   6.777  43.447   0.191
35262W        W 6933  35.243  34.560  10.955
35263W        W 6934  13.359   4.393  11.849
35264W        W 6935  16.769   2.109  14.269
35265W        W 6936  15.328  10.659   1.258
35266W        W 6937  14.164  15.947   2.838
35267W        W 6938  26.733  13.455   1.916
35268W        W 6939  30.568  42.957   3.208
35269W        W 6940  39.272  38.316  13.803
35270W        W 6941  27.575  44.990  14.897
35271W        W 6942  34.011  38.253   2.006
35272W        W 6943  14.791  36.460   3.577
35273W        W 6944  33.120  44.458  11.122
35274W        W 6945  14.850  34.420   3.600
35275W        W 6946   1.513  10.239   0.067
35276W        W 6947  26.199  16.354   2.817
35277W        W 6948  26.993  18.989  13.040
35278W        W 6949   7.868  17.113  11.599
35279W        W 6950   4.897  26.039  12.518
35280W        W 6951  41.025  21.159  11.989
35281W        W 6952  23.101  32.043   0.008
35282W        W 6953  42.340  23.590   2.847
35283W        W 6954  30.805  38.421   2.647
35284W        W 6955   1.846  43.967  13.356
35285W        W 6956  43.188  34.124  14.923
35286W        W 6957  22.684  17.173   4.933
35287W        W 6958  20.118  31.403  13.609
35288W        W 6959   2.726  20.515  11.385
35289W        W 6960  27.723  17.370   4.969
35290W        W 6961  11.730  44.297  14.870
35291W        W 6962   4.885  13.286  12.148
35292W        W 6963   8.133   2.002  14.496
35293W        W 6964  11.259   6.826  14.480
35294W        W 6965  29.378  15.815   3.142
35295W        W 6966  15.134  44.187   2.908
35296W        W 6967  13.752  18.623   2.527
35297W        W 6968   8.267  26.152  13.429
35298W        W 6969  19.586  44.394  11.551
35299W        W 6970   6.724  16.405   0.139
35300W        W 6971   3.785  17.732   1.348
35301W        W 6972   8.639  15.424   2.333
35302W        W 6973  33.505  40.327   4.202
35303W        W 6974  10.355  11.144   2.743
35304W        W 6975  12.912  29.818  11.089
35305W        W 6976  41.505  26.139   3.152
35306W        W 6977   0.583  31.590   0.733
35307W        W 6978   5.433   5.890   2.604
35308W        W 6979  16.611  32.651   0.424
35309W        W 6980  38.970  30.917   2.142
35310W        W 6981  32.888  25.767  14.792
35311W        W 6982   8.846  44.708  10.909
35312W        W 6983  16.015  20.125  10.857
35313W        W 6984  44.526  36.906   3.174
35314W        W 6985  13.855  34.918   2.830
35315W        W 6986   9.312  26.585  14.535
35316W        W 6987  33.333  38.285   3.160
35317W        W 6988   3.376  37.487   1.106
35318W        W 6989  15.171  44.429  14.543
35319W        W 6990  39.094  28.094   2.651
35320W        W 6991   8.863  35.455  11.687
35321W        W 6992   8.810  10.202   4.563
35322W        W 6993  31.067  40.304  11.666
35323W        W 6994  35.858  25.097   0.845
35324W        W 6995  30.601  27.492  12.440
35325W        W 6996  10.816  25.752   1.769
35326W        W 6997  37.992  17.652   0.942
35327W        W 6998   3.387  37.579   3.061
35328W        W 6999  10.290  13.896  13.081
35329W        W 7000  28.422   9.406   1.238
35330W        W 7001  13.290  21.465   0.858
35331W        W 7002  37.315  36.454   3.163
35332W        W 7003  42.553  25.413  13.956
35333W        W 7004  37.905   1.390   0.854
35334W        W 7005   3.409  24.193   3.199
35335W        W 7006  24.149   3.979   2.323
35336W        W 7007  25.967   1.871   3.770
35337W        W 7008   4.525  23.482  11.087
35338W        W 7009  30.015  15.778  10.795
35339W        W 7010  28.388   7.506   1.770
35340W        W 7011  14.249   1.860   2.383
35341W        W 7012  24.612  13.522  13.112
35342W        W 7013  35.024  27.159  12.626
35343W        W 7014  41.231  23.804  14.023
35344W        W 7015  24.479  14.132  14.455
35345W        W 7016  13.041   3.195   1.835
35346W        W 7017  41.486  41.795  14.375
35347W        W 7018  40.533   8.250  12.670
35348W        W 7019  33.937  20.505   2.755
35349W        W 7020  43.705  17.205   3.076
35350W        W 7021  22.023  12.604   2.699
35351W        W 7022   9.843  40.835   0.937
35352W        W 7023  32.736  31.880   0.432
35353W        W 7024  31.165  23.590  11.196
35354W        W 7025   1.485  25.622  11.177
35355W        W 7026  33.934   8.505  12.003
35356W        W 7027  32.013  32.933  13.828
35357W        W 7028  44.290   7.894   4.865
35358W        W 7029  26.976  36.850  10.935
35359W        W 7030  31.022   1.714   4.907
35360W        W 7031  41.649  44.845  11.953
35361W        W 7032   4.413  44.230   1.937
35362W        W 7033   1.298  17.554  12.456
35363W        W 7034   4.316  22.026  14.553
35364W        W 7035  34.119  39.742  14.295
35365W        W 7036  41.443  18.361   1.774
35366W        W 7037  39.445  34.456  14.865
35367W        W 7038  44.539   2.982  12.085
35368W        W 7039  35.050   3.643   2.469
35369W        W 7040   9.969  30.185   0.649
35370W        W 7041   9.840  36.589   4.351
35371W        W 7042  39.924  34.252   1.260
35372W        W 7043  19.426  31.150   2.540
35373W        W 7044   6.013   2.031   2.748
35374W        W 7045  13.192  36.092  10.583
35375W        W 7046   2.056  14.654  10.756
35376W        W 7047  20.337  14.938   1.667
35377W        W 7048   8.649   3.286   3.121
35378W        W 7049   7.732  12.832   4.315
35379W        W 7050  27.718   5.974   0.534
35380W        W 7051  42.883  42.248  12.434
35381W        W 7052  30.604  24.393   3.694
35382W        W 7053  20.286  32.387   1.760
35383W        W 7054   9.470   4.792   3.817
35384W        W 7055  15.493   1.364   1.303
35385W        W 7056  24.524  37.764   3.681
35386W        W 7057  43.499  24.459   0.689
35387W        W 7058  37.034  36.466   1.890
35388W        W 7059   2.490  25.135   3.230
35389W        W 7060  29.046   1.251  13.001
35390W        W 7061  26.412   4.117   2.289
35391W        W 7062  37.340  22.080   4.565
35392W        W 7063   8.906  28.579  11.210
35393W        W 7064  15.633  17.661  10.568
35394W        W 7065  30.429  42.875  14.310
35395W        W 7066   3.012  20.046   2.470
35396W        W 7067  27.646  16.846  11.566
35397W        W 7068  39.433  24.520  11.498
35398W        W 7069  12.704   6.933   3.310
35399W        W 7070  13.196  28.915  12.387
35400W        W 7071   3.835  25.444  14.361
35401W        W 7072  31.382   8.837   3.255
35402W        W 7073  23.733   1.749   2.676
35403W        W 7074  16.788  30.135   3.087
35404W        W 7075  30.036   8.841  11.146
35405W        W 7076  31.126  30.911  13.323
35406W        W 7077   1.346  28.902  12.955
35407W        W 7078  44.740  37.593  13.314
35408W        W 7079   0.408  15.802  14.009
35409W        W 7080  25.836  43.859  11.159
35410W        W 7081  44.804  14.663   0.877
35411W        W 7082  27.244  43.657   2.764
35412W        W 7083  33.326   6.206  13.004
35413W        W 7084   7.826  24.236  12.390
35414W        W 7085   4.710  38.849   4.575
35415W        W 7086   3.707   1.403  10.727
35416W        W 7087  27.000  29.056  13.340
35417W        W 7088  13.738   1.665   4.167
35418W        W 7089   6.746  10.065  11.186
35419W        W 7090  38.951  33.784  13.934
35420W        W 7091  41.139  19.808  13.325
35421W        W 7092  39.618   4.002   3.347
35422W        W 7093  25.228   3.835   3.555
35423W        W 7094  14.988  44.752  13.448
35424W        W 7095   8.376  39.181  11.847
35425W        W 7096  23.016  37.053   0.803
35426W        W 7097  40.120  42.472  11.943
35427W        W 7098   8.741  11.305  10.975
35428W        W 7099  35.359  33.536  11.795
35429W        W 7100  22.984  30.909  10.621
35430W        W 7101  34.725  38.902   0.270
35431W        W 7102   2.338  44.957  11.094
35432W        W 7103  19.222   3.921   1.360
35433W        W 7104  39.926  32.639   0.638
35434W        W 7105  31.049   1.242  13.115
35435W        W 7106  39.360   6.659   4.413
35436W        W 7107   7.405  22.756   3.853
35437W        W 7108  36.834  25.693  12.398
35438W        W 7109  20.547  20.201  13.445
35439W        W 7110  16.199  27.156  11.280
35440W        W 7111  11.644  20.297  11.612
35441W        W 7112   9.813   6.827   3.706
35442W        W 7113  28.678  29.157  12.894
35443W        W 7114  20.952  36.601  13.425
35444W        W 7115  29.446   2.474  10.700
35445W        W 7116  27.175  30.260   2.789
35446W        W 7117  17.732   4.382   0.236
35447W        W 7118  21.023  40.056   2.875
35448W        W 7119  21.490  17.561   4.293
35449W        W 7120   2.928  32.623   1.156
35450W        W 7121  13.117  39.040   0.639
35451W        W 7122  13.776  20.725   4.194
35452W        W 7123  41.298  16.250  13.406
35453W        W 7124  35.052  23.721   3.345
35454W        W 7125   0.210  15.269   2.896
35455W        W 7126   2.720   6.851  11.713
35456W        W 7127  16.821  40.056  11.127
35457W        W 7128  30.642  10.577  14.298
35458W        W 7129  14.229  37.108   2.476
35459W        W 7130  40.529  41.705  14.321
35460W        W 7131  25.742   9.864   0.200
35461W        W 7132  38.279   3.008  12.107
35462W        W 7133  14.860  22.075  12.562
35463W        W 7134  37.580  31.848   1.740
35464W        W 7135  30.524   9.780  10.762
35465W        W 7136  42.484   1.858  11.889
35466W        W 7137  41.366   2.319   3.939
35467W        W 7138   5.372  17.842  10.705
35468W        W 7139  36.827  36.182   4.160
35469W        W 7140  35.335   9.784  13.085
35470W        W 7141  22.578   0.835  10.662
35471W        W 7142   5.180  22.622  14.402
35472W        W 7143  19.181  11.261   4.619
35473W        W 7144   7.717  42.912   4.956
35474W        W 7145  28.669  40.246  11.042
35475W        W 7146  14.153  24.852  13.415
35476W        W 7147   0.898  28.706   3.990
35477W        W 7148  15.589  35.278   3.728
35478W        W 7149  17.399  18.028  14.449
35479W        W 7150  37.916   5.220   1.619
35480W        W 7151  29.331  30.013   4.182
35481W        W 7152  11.197  29.488   0.530
35482W        W 7153  42.989  41.370   0.340
35483W        W 7154  14.318  10.303  13.543
35484W        W 7155  10.228  37.049  11.551
35485W        W 7156  39.044  40.707  12.085
35486W        W 7157  18.136  33.182  13.827
35487W        W 7158  39.241  37.416  13.298
35488W        W 7159  20.604  20.485   4.969
35489W        W 7160  20.636  17.952  13.904
35490W        W 7161  28.961  33.432  13.040
35491W        W 7162  13.296  39.740   3.462
35492W        W 7163  24.475  42.966   1.666
35493W        W 7164  33.804  26.946   3.619
35494W        W 7165  23.903  40.580  11.910
35495W        W 7166  33.555  32.041  12.142
35496W        W 7167   6.944  29.322   3.275
35497W        W 7168  11.838   2.265   3.186
35498W        W 7169  36.025  12.991  13.812
35499W        W 7170  32.091  40.869  12.862
35500W        W 7171  30.496  36.551   4.432
35501W        W 7172  42.765  16.064  14.293
35502W        W 7173  16.928  14.640  12.544
35503W        W 7174  42.705  23.646   9.767
35504W        W 7175   1.818  41.041   2.789
35505W        W 7176  35.986  23.233  11.747
35506W        W 7177  29.352  40.449   9.907
35507W        W 7178  17.514  21.705  11.510
35508W        W 7179  41.463  11.761  11.583
35509W        W 7180  21.510  43.002   4.857
35510W        W 7181  38.138   8.112  13.395
35511W        W 7182  20.552  43.594   1.356
35512W        W 7183   5.201  41.020   1.625
35513W        W 7184   5.766  30.091   4.765
35514W        W 7185  44.725  24.359  14.564
35515W        W 7186   9.358  10.067  12.601
35516W        W 7187  16.390  24.230  10.999
35517W        W 7188   4.626  33.857   0.388
35518W        W 7189  17.104   6.319   1.167
35519W        W 7190  42.464  24.720   2.015
35520W        W 7191   6.617  32.920   0.702
35521W        W 7192   4.389   1.026   2.453
35522W        W 7193  12.175   5.300   2.277
35523W        W 7194  32.308  22.677  11.611
35524W        W 7195  20.215  12.583   1.430
35525W        W 7196  26.525  13.419  12.092
35526W        W 7197  38.007  44.394  13.999
35527W        W 7198   5.399  10.698  11.028
35528W        W 7199  32.917  32.161  12.979
35529W        W 7200  16.632   3.538  10.762
35530W        W 7201  15.280  28.221   1.426
35531W        W 7202   6.768  42.391  11.825
35532W        W 7203  32.552  22.524  12.495
35533W        W 7204  10.839  38.944   2.791
35534W        W 7205   7.994  43.264   0.289
35535W        W 7206  43.385  23.125  12.843
35536W        W 7207  33.533  30.288   1.198
35537W        W 7208  30.600  36.485   1.060
35538W        W 7209  29.631  42.037   0.339
35539W        W 7210  31.129  19.259  12.406
35540W        W 7211   7.737  44.389   1.014
35541W        W 7212  17.792  28.076   4.816
35542W        W 7213  17.054   2.141  11.561
35543W        W 7214  27.242  23.618   3.333
35544W        W 7215  27.966  19.672   3.159
35545W        W 7216  29.088  31.388   3.777
35546W        W 7217  10.407  37.998   4.659
35547W        W 7218   6.919  34.888   1.981
35548W        W 7219  10.330   9.356  11.994
35549W        W 7220   9.844  39.357  12.872
35550W        W 7221   5.461  41.943  12.095
35551W        W 7222  12.826   1.883  10.684
35552W        W 7223   3.947  37.945   0.460
35553W        W 7224   7.443  22.344  14.068
35554W        W 7225  19.936  21.085   4.739
35555W        W 7226   7.383  25.418  10.725
35556W        W 7227  26.435  21.224  12.530
35557W        W 7228  24.846   4.875   4.590
35558W        W 7229  36.611  20.359  12.278
35559W        W 7230  21.235   9.771   0.309
35560W        W 7231  36.597  23.952  10.570
35561W        W 7232  13.387  12.124   2.156
35562W        W 7233   4.300  26.208  10.978
35563W        W 7234  36.181   5.791  10.654
35564W        W 7235  38.438  42.264   1.364
35565W        W 7236  14.695  38.462   3.305
35566W        W 7237  21.048  36.475  13.952
35567W        W 7238   0.787  32.309   4.782
35568W        W 7239  40.772  40.026   0.470
35569W        W 7240  37.901  36.492   1.473
35570W        W 7241  29.313   4.198   3.172
35571W        W 7242  12.612   0.554   0.466
35572W        W 7243  10.754  41.242  12.583
35573W        W 7244  40.429  19.575   4.415
35574W        W 7245   8.728  10.996   0.503
35575W        W 7246   0.224  37.662   4.116
35576W        W 7247  30.698   7.402  10.511
35577W        W 7248  34.505   8.386   1.758
35578W        W 7249   6.744   8.624   4.160
35579W        W 7250  23.014  23.167   2.656
35580W        W 7251   6.655   6.472   0.534
35581W        W 7252  16.218  14.256  10.770
35582W        W 7253  28.295  44.734  12.539
35583W        W 7254  19.485  14.205   2.916
35584W        W 7255  28.558  28.573   3.388
35585W        W 7256  32.937  20.937   0.907
35586W        W 7257  31.895  17.576  14.678
35587W        W 7258  23.542   3.648  11.527
35588W        W 7259   0.329  33.843   0.381
35589W        W 7260  18.082  35.631  14.588
35590W        W 7261  13.734  17.796  14.566
35591W        W 7262  17.751   9.573   3.756
35592W        W 7263  43.671  12.254   5.547
35593W        W 7264  43.784   5.857   2.763
35594W        W 7265   4.450  41.181  12.096
35595W        W 7266  36.237  18.153  14.436
35596W        W 7267  27.492  19.497  13.432
35597W        W 7268  16.348  18.616   1.227
35598W        W 7269  39.303  34.770   0.830
35599W        W 7270  43.018   4.435  13.832
35600W        W 7271  38.062  19.955   1.351
35601W        W 7272   4.964  34.555   1.221
35602W        W 7273  43.791  44.473  11.479
35603W        W 7274   1.524   7.281  14.887
35604W        W 7275  11.372  38.837   0.849
35605W        W 7276   7.793  14.437   9.836
35606W        W 7277   8.201  42.684  13.411
35607W        W 7278  33.834  22.040  14.892
35608W        W 7279  24.168  15.597   5.657
35609W        W 7280  29.087  15.618  14.374
35610W        W 7281  42.397  38.544   4.163
35611W        W 7282  36.047  17.493   1.672
35612W        W 7283   7.734  26.442  12.092
35613W        W 7284  35.541  43.033   4.326
35614W        W 7285   5.102  20.841   4.261
35615W        W 7286  15.430  22.161   2.701
35616W        W 7287   3.526  22.373   5.199
35617W        W 7288  26.985  17.515  11.496
35618W        W 7289  29.184  44.937   0.283
35619W        W 7290   0.907   0.386   1.697
35620W        W 7291  25.224  35.419  12.445
35621W        W 7292   7.776   0.542   4.648
35622W        W 7293  16.698  35.578  14.924
35623W        W 7294  12.725  25.238  13.008
35624W        W 7295  44.152  41.132   0.795
35625W        W 7296  19.717  23.217  11.505
35626W        W 7297  19.237   5.798   2.296
35627W        W 7298  12.105   1.882   4.601
35628W        W 7299   4.055  35.175  13.847
35629W        W 7300   5.167   4.154   1.204
35630W        W 7301   0.803  44.468   4.545
35631W        W 7302  39.710  18.328   3.236
35632W        W 7303  28.339  35.223   2.192
35633W        W 7304  32.994  10.866   0.997
35634W        W 7305  11.555  23.011  13.737
35635W        W 7306  23.030  35.819   3.199
35636W        W 7307  44.735  40.250  13.316
35637W        W 7308  43.348  39.386   4.659
35638W        W 7309  11.187  37.521   0.222
35639W        W 7310  31.600   4.431   2.493
35640W        W 7311  33.566  38.358   0.378
35641W        W 7312  17.130  30.431   3.354
35642W        W 7313  37.598  31.424  11.152
35643W        W 7314   9.218  29.432   0.902
35644W        W 7315  42.855  22.737   2.417
35645W        W 7316  34.958   7.372   4.124
35646W        W 7317  27.012   1.998   0.499
35647W        W 7318  44.534  15.823  13.955
35648W        W 7319  11.511  12.350  11.173
35649W        W 7320  13.403   6.339   2.859
35650W        W 7321  37.649   7.956  12.413
35651W        W 7322  17.232   6.335  10.099
35652W        W 7323   2.743  29.216  14.878
35653W        W 7324  34.039  41.593   2.184
35654W        W 7325  25.189  40.824  14.322
35655W        W 7326   5.845  10.049   1.916
35656W        W 7327   9.417  41.796   0.886
35657W        W 7328  16.815  29.919  10.757
35658W        W 7329   8.464  27.625   3.445
35659W        W 7330  42.848  18.858  11.566
35660W        W 7331   1.312  22.443  11.008
35661W        W 7332  32.252  39.231   1.699
35662W        W 7333   4.933  44.721   1.729
35663W        W 7334  30.876   7.708  13.535
35664W        W 7335  32.939  18.871   4.671
35665W        W 7336  34.204  26.972  14.852
35666W        W 7337   8.141  10.738  13.724
35667W        W 7338   0.740  43.092  13.410
35668W        W 7339  37.014  33.008  14.499
35669W        W 7340  17.719  19.211   3.608
35670W        W 7341  12.086  14.406   3.097
35671W        W 7342  18.830  19.505   0.677
35672W        W 7343  41.817  36.068   1.829
35673W        W 7344  17.040  35.046   0.376
35674W        W 7345  40.064  42.165   2.008
35675W        W 7346  16.153   4.415   9.670
35676W        W 7347  10.248  14.558  10.656
35677W        W 7348  12.215  31.998   0.798
35678W        W 7349  12.787  33.993   3.185
35679W        W 7350   9.843   9.299   0.301
35680W        W 7351  38.581  27.999   2.613
35681W        W 7352   7.293  21.540  11.956
35682W        W 7353  17.957   1.434   0.642
35683W        W 7354   7.489  38.984  11.180
35684W        W 7355  22.993  26.987  11.175
35685W        W 7356  34.629   8.302  12.617
35686W        W 7357   1.164  42.783   0.330
35687W        W 7358  39.261  17.749  13.212
35688W        W 7359   0.316  14.872   3.213
35689W        W 7360  36.375   6.805  12.104
35690W        W 7361  34.046  23.480   1.040
35691W        W 7362  15.174   7.217  14.775
35692W        W 7363  38.298  16.573   1.442
35693W        W 7364  31.859  40.539  14.821
35694W        W 7365  13.387  32.109   5.050
35695W        W 7366  32.524  10.840   1.216
35696W        W 7367  17.053   2.205  13.366
35697W        W 7368  11.589  25.043   4.102
35698W        W 7369  37.601  10.195   0.788
35699W        W 7370  33.908  27.016   1.789
35700W        W 7371  43.424   5.379  11.701
35701W        W 7372   9.837  41.170  14.961
35702W        W 7373  35.364  19.218  13.434
35703W        W 7374  37.102  30.671   0.329
35704W        W 7375  24.595  28.281   4.978
35705W        W 7376  34.092  33.978  14.053
35706W        W 7377  31.994  34.846   0.752
35707W        W 7378  15.197  10.799  11.511
35708W        W 7379  44.543  23.484  13.043
35709W        W 7380  37.496   1.434   1.167
35710W        W 7381  31.666  17.163  12.536
35711W        W 7382  34.275   6.409   1.519
35712W        W 7383   3.963  29.498  12.666
35713W        W 7384  42.379  25.585   0.269
35714W        W 7385  21.030  19.343   4.666
35715W        W 7386  41.161   6.438  12.573
35716W        W 7387  22.261  33.122  10.916
35717W        W 7388  44.756  14.226  11.698
35718W        W 7389  19.799  23.735   3.678
35719W        W 7390  17.169  29.850  11.218
35720W        W 7391   6.328  40.080  13.564
35721W        W 7392  36.859  44.715   1.301
35722W        W 7393  23.187   4.916  10.672
35723W        W 7394   6.470   6.311   1.491
35724W        W 7395  17.327  34.506  12.678
35725W        W 7396  15.115  33.590  14.028
35726W        W 7397   3.773  27.656  14.717
35727W        W 7398  32.043  18.320   4.821
35728W        W 7399  31.701  27.606  13.684
35729W        W 7400  43.908  24.595  13.887
35730W        W 7401  40.244   4.945  11.376
35731W        W 7402  44.362  27.207  13.413
35732W        W 7403  19.661  29.249  13.403
35733W        W 7404  28.479   0.446   2.604
35734W        W 7405  24.857  10.163  13.040
35735W        W 7406  36.103  22.575  13.853
35736W        W 7407  22.655  37.778   1.363
35737W        W 7408  18.679  44.685  12.038
35738W        W 7409  32.383  22.320   0.093
35739W        W 7410   4.552  30.718  12.424
35740W        W 7411  19.649   2.272   5.141
35741W        W 7412  39.610  33.148   0.461
35742W        W 7413   7.059   6.124  14.089
35743W        W 7414   4.968  31.456  14.447
35744W        W 7415  37.261  41.881   3.689
35745W        W 7416  34.406  10.741  11.988
35746W        W 7417  16.295  12.216   0.244
35747W        W 7418   4.938  23.016   3.014
35748W        W 7419  30.703  30.548  12.897
35749W        W 7420  31.993  27.817  11.710
35750W        W 7421  40.787  10.242   1.185
35751W        W 7422   1.027  28.859  12.555
35752W        W 7423  24.015  27.094   3.682
35753W        W 7424   2.560  10.183   2.901
35754W        W 7425  26.466  43.343   3.254
35755W        W 7426   1.581  30.329  13.497
35756W        W 7427   7.232   4.218  11.568
35757W        W 7428   0.821  35.056   2.178
35758W        W 7429  23.030  11.094  13.267
35759W        W 7430  39.050   6.017   1.795
35760W        W 7431  16.181  25.495   4.041
35761W        W 7432  35.463  43.270  12.123
35762W        W 7433  26.511  39.998   2.205
35763W        W 7434  19.743   8.340  11.126
35764W        W 7435  37.711   6.830   0.554
35765W        W 7436  44.326  27.641  14.510
35766W        W 7437  11.644  26.859   3.864
35767W        W 7438  43.603   9.616  11.369
35768W        W 7439  24.446   8.165  12.079
35769W        W 7440  21.958  35.911   0.373
35770W        W 7441  14.203  27.055  10.744
35771W        W 7442  44.105  13.723   3.738
35772W        W 7443   0.774  38.634   3.923
35773W        W 7444  37.917  13.887  10.684
35774W        W 7445  41.626  11.314   4.070
35775W        W 7446   0.307  31.005   0.921
35776W        W 7447  39.294  11.704   0.751
35777W        W 7448  44.805  20.784   4.987
35778W        W 7449  13.599  30.469  13.854
35779W        W 7450  35.981  39.367  14.350
35780W        W 7451   2.820  43.350  12.204
35781W        W 7452  22.767  18.811  11.135
35782W        W 7453  15.874  27.460  13.954
35783W        W 7454  12.039   3.242   2.372
35784W        W 7455   0.950   9.492  14.439
35785W        W 7456  40.870  35.918   1.969
35786W        W 7457  20.012  10.889   2.369
35787W        W 7458  11.467   0.988  12.042
35788W        W 7459  24.226   6.225  12.962
35789W        W 7460  16.816  21.114  14.262
35790W        W 7461   8.168  27.563  13.848
35791W        W 7462  20.716  28.858   4.562
35792W        W 7463   2.122  28.542   0.803
35793W        W 7464   5.509  22.464  14.026
35794W        W 7465  41.541  25.541   4.085
35795W        W 7466  18.795  30.657   4.357
35796W        W 7467  33.154  36.268   0.874
35797W        W 7468  12.198  17.746  11.657
35798W        W 7469  13.822   5.660   2.994
35799W        W 7470  33.031  15.707  14.839
35800W        W 7471  42.022  36.549   1.802
35801W        W 7472  20.324  13.751   0.934
35802W        W 7473   9.544  39.932   5.079
35803W        W 7474  25.304   6.377  11.869
35804W        W 7475  44.564  18.806  14.877
35805W        W 7476  30.396  41.084  13.847
35806W        W 7477  38.008   8.216   1.892
35807W        W 7478  42.645  30.312  11.963
35808W        W 7479  40.986  41.760   1.785
35809W        W 7480   3.308  34.569   3.919
35810W        W 7481  15.116  32.610   3.583
35811W        W 7482  13.109   2.771  14.877
35812W        W 7483  44.519  16.573  12.011
35813W        W 7484  16.494   3.518  13.645
35814W        W 7485  30.446  16.749  10.738
35815W        W 7486  28.978  35.185  11.118
35816W        W 7487  16.646  21.203  12.421
35817W        W 7488  18.146  35.827   0.190
35818W        W 7489   7.908  33.630   2.348
35819W        W 7490  23.051  13.237   0.261
35820W        W 7491  41.472  19.156   1.311
35821W        W 7492  14.512  33.065  13.109
35822W        W 7493  12.216  35.171  11.126
35823W        W 7494  36.464  39.576  12.303
35824W        W 7495  39.945  43.254   4.533
35825W        W 7496  38.896  15.080   0.862
35826W        W 7497   9.303  40.790  13.080
35827W        W 7498  15.566  18.547   2.453
35828W        W 7499   4.272  38.095   2.743
35829W        W 7500  16.079  39.981   3.614
35830W        W 7501   5.828  21.521  14.926
35831W        W 7502  16.199  43.748  11.760
35832W        W 7503  32.111   9.682   4.290
35833W        W 7504  41.348   0.514   3.588
35834W        W 7505   4.878  32.823  11.901
35835W        W 7506  36.603   9.214   4.693
35836W        W 7507  12.363  22.143   1.794
35837W        W 7508  41.112  25.482   2.822
35838W        W 7509  13.810   6.224   0.350
35839W        W 7510   5.933  40.865   0.303
35840W        W 7511  43.007   5.183   3.718
35841W        W 7512  12.801  25.035  11.633
35842W        W 7513  41.259  20.747   0.835
35843W        W 7514  32.525  35.664  13.354
35844W        W 7515  11.970  21.211  14.875
35845W        W 7516  40.985  41.994   0.413
35846W        W 7517   2.432  25.049  12.081
35847W        W 7518  14.789  27.623   2.863
35848W        W 7519  23.741  29.964  11.851
35849W        W 7520   7.752  29.442   0.808
35850W        W 7521   1.294  39.440  13.553
35851W        W 7522   7.375  17.762   0.451
35852W        W 7523  35.660   6.171  12.384
35853W        W 7524  40.066  23.238   4.402
35854W        W 7525   2.421  38.971  13.273
35855W        W 7526  13.205   3.730  13.065
35856W        W 7527  30.312   1.458  14.478
35857W        W 7528  14.825  19.001   3.218
35858W        W 7529  44.889  14.635   4.868
35859W        W 7530  40.877  32.242   1.896
35860W        W 7531  17.679   7.682  12.600
35861W        W 7532  26.191  42.078   1.269
35862W        W 7533   9.061  41.894  12.116
35863W        W 7534   9.630  12.682  12.404
35864W        W 7535  36.789   7.683   3.777
35865W        W 7536   2.904  41.295  14.766
35866W        W 7537  20.115  38.894  14.572
35867W        W 7538  11.872  23.803   0.490
35868W        W 7539   8.339  30.999  11.882
35869W        W 7540  25.709  12.750  10.496
35870W        W 7541   5.280  36.263   2.189
35871W        W 7542  17.210  38.410  12.515
35872W        W 7543  23.062  23.445   0.705
35873W        W 7544  11.859  30.190   3.792
35874W        W 7545  12.663   4.689  12.439
35875W        W 7546  24.011  44.957  11.550
35876W        W 7547  28.573  29.816  14.908
35877W        W 7548  24.304  10.264   4.202
35878W        W 7549   5.790  16.051  14.755
35879W        W 7550  13.095  40.751  11.951
35880W        W 7551  33.004  10.456  12.926
35881W        W 7552  32.844  17.579  13.489
35882W        W 7553  26.642  39.434  11.461
35883W        W 7554  37.103   4.163   4.106
35884W        W 7555  17.650  21.464   2.275
35885W        W 7556  43.423   5.761   2.369
35886W        W 7557  20.704   8.158   1.847
35887W        W 7558  41.236  43.942  13.921
35888W        W 7559  18.461  23.516   5.500
35889W        W 7560   2.945  10.624  13.888
35890W        W 7561  12.883  23.026   4.698
35891W        W 7562  17.453   6.419   4.700
35892W        W 7563  27.941  30.208   3.609
35893W        W 7564  20.509   9.716   3.009
35894W        W 7565   4.990  16.612  11.807
35895W        W 7566   4.363  19.677   3.093
35896W        W 7567  27.869  44.421  13.286
35897W        W 7568  17.199  39.262  11.501
35898W        W 7569   9.940   2.878   1.453
35899W        W 7570  15.279  22.057   2.188
35900W        W 7571  17.379  28.780   0.364
35901W        W 7572   7.480  34.352   4.007
35902W        W 7573  43.209  43.563   1.814
35903W        W 7574   5.685  29.410  12.871
35904W        W 7575   8.284   6.022  11.805
35905W        W 7576  14.074  19.325  13.996
35906W        W 7577  25.441   3.994   2.199
35907W        W 7578  17.259  25.067   2.105
35908W        W 7579  23.594  40.777  12.359
35909W        W 7580  42.823  16.340  10.656
35910W        W 7581   9.855   9.897  11.669
35911W        W 7582  27.361  18.770   4.242
35912W        W 7583   1.439  32.853   2.983
35913W        W 7584  41.320  41.487  14.805
35914W        W 7585  41.010  33.229   1.813
35915W        W 7586  44.629  35.366  13.578
35916W        W 7587  30.267  31.373  11.110
35917W        W 7588  36.597   3.241   4.144
35918W        W 7589  38.150  25.825   3.718
35919W        W 7590  12.743   1.422   2.723
35920W        W 7591  16.610   1.737   4.684
35921W        W 7592  22.929  28.316   1.003
35922W        W 7593  22.793  24.569  10.632
35923W        W 7594   7.602   4.267   4.163
35924W        W 7595  16.297  40.887   2.799
35925W        W 7596  11.853  30.899  14.354
35926W        W 7597  36.413  42.517   3.351
35927W        W 7598  32.136  13.300   0.347
35928W        W 7599   7.760  14.647  11.904
35929W        W 7600  39.789  19.554  11.143
35930W        W 7601  13.352  38.990  11.293
35931W        W 7602   4.940  26.938  14.334
35932W        W 7603   7.267  16.539   1.665
35933W        W 7604  36.160  43.955  12.995
35934W        W 7605  37.519  42.248  13.437
35935W        W 7606  12.532  34.866  10.646
35936W        W 7607  41.460  20.286   3.148
35937W        W 7608  38.969  10.094  12.077
35938W        W 7609  36.586  24.212   0.353
35939W        W 7610  33.512  16.103  14.578
35940W        W 7611  30.678  12.452   0.302
35941W        W 7612  43.355  26.873   2.368
35942W        W 7613  16.114  27.930   1.769
35943W        W 7614  14.314  15.031   4.412
35944W        W 7615  12.147   0.064  13.913
35945W        W 7616  25.906  12.324   4.820
35946W        W 7617  42.825   1.784   1.439
35947W        W 7618  29.477  25.947   0.897
35948W        W 7619  23.035  28.789  11.602
35949W        W 7620   4.456  27.835   0.784
35950W        W 7621  13.438  12.766  13.074
35951W        W 7622  41.042  23.094  13.387
35952W        W 7623  31.074  27.705  11.602
35953W        W 7624  16.616   5.212  14.108
35954W        W 7625  27.492  18.111  13.020
35955W        W 7626   8.545  17.614   2.836
35956W        W 7627  23.624  43.031   1.229
35957W        W 7628   9.701  35.079   1.437
35958W        W 7629  31.918  15.873  12.156
35959W        W 7630  11.586  43.342  11.994
35960W        W 7631  12.770   3.477   3.722
35961W        W 7632  39.052  25.433   3.819
35962W        W 7633  33.392   9.765  13.056
35963W        W 7634  15.961  20.472  13.899
35964W        W 7635  33.139  28.378  11.297
35965W        W 7636  31.530  18.670   3.125
35966W        W 7637  16.317   9.332  12.500
35967W        W 7638   5.276   7.923  14.872
35968W        W 7639  27.086   9.649   5.037
35969W        W 7640  43.607  29.500   3.793
35970W        W 7641  30.146  35.353  13.924
35971W        W 7642  28.625  25.876   0.516
35972W        W 7643   1.523  20.794  13.163
35973W        W 7644   9.854  43.480   2.791
35974W        W 7645  28.844  18.097   3.144
35975W        W 7646   3.469  29.093   0.553
35976W        W 7647   2.371   3.673  13.077
35977W        W 7648   6.479  15.928   5.152
35978W        W 7649  28.702  36.561  13.544
35979W        W 7650   2.162  10.813  12.928
35980W        W 7651   8.138  10.726   4.895
35981W        W 7652   1.726  29.097   4.121
35982W        W 7653  18.454   6.941   2.255
35983W        W 7654  15.710  17.805  13.115
35984W        W 7655   1.311  10.417  12.346
35985W        W 7656  16.560   1.898   3.846
35986W        W 7657  39.213  31.524  14.908
35987W        W 7658  40.825   3.521  14.271
35988W        W 7659  39.947  24.092   0.399
35989W        W 7660  30.099  17.545  13.511
35990W        W 7661  24.049  34.462   2.339
35991W        W 7662  14.261  25.140   4.542
35992W        W 7663   2.729  44.769   0.692
35993W        W 7664  29.250  43.575   1.304
35994W        W 7665  23.460  16.226   2.646
35995W        W 7666  36.298  28.132   3.337
35996W        W 7667  37.176  39.436  13.866
35997W        W 7668  40.802   4.149  10.607
35998W        W 7669  26.985  26.996   2.287
35999W        W 7670  16.992   5.083   4.632
36000W        W 7671   5.644  33.670  13.484
36001W        W 7672  44.983   1.452  14.886
36002W        W 7673  19.158  43.492   4.466
36003W        W 7674   3.259  42.814   3.769
36004W        W 7675  36.033  16.955  12.120
36005W        W 7676   3.204   1.816  11.865
36006W        W 7677  10.168  29.061   3.021
36007W        W 7678  23.509   3.362  14.330
36008W        W 7679   8.742  33.570  14.987
36009W        W 7680  11.397  26.664  14.714
36010W        W 7681  25.521  18.156   3.675
36011W        W 7682   0.402  15.782  14.536
36012W        W 7683  15.108  40.002  10.623
36013W        W 7684  23.242  44.849  12.071
36014W        W 7685  23.247  29.669   1.320
36015W        W 7686  11.812  21.730  10.811
36016W        W 7687  11.116  14.717   0.264
36017W        W 7688   6.197  43.984   4.223
36018W        W 7689  33.174   9.306  12.933
36019W        W 7690  40.925  19.490   4.597
36020W        W 7691  38.797  19.358  10.418
36021W        W 7692  32.464  24.164  13.885
36022W        W 7693   3.789  32.507  11.598
36023W        W 7694  24.294  44.826  12.054
36024W        W 7695   8.284  38.439   1.748
36025W        W 7696  15.831   7.244   1.690
36026W        W 7697  33.072  27.011  13.546
36027W        W 7698  32.487  28.706  12.086
36028W        W 7699  24.810  11.675   2.687
36029W        W 7700  34.005  39.007  10.081
36030W        W 7701  20.366  22.154   2.317
36031W        W 7702   3.306  30.271  12.108
36032W        W 7703   5.957  16.256  10.754
36033W        W 7704   0.162  30.239   0.473
36034W        W 7705  24.109   4.449  12.396
36035W        W 7706   2.780  39.461  14.424
36036W        W 7707  35.764  24.941  11.539
36037W        W 7708   8.100  17.372  13.418
36038W        W 7709   3.413   1.545   0.347
36039W        W 7710   8.973  41.294  14.706
36040W        W 7711  10.115  42.207   1.732
36041W        W 7712  26.685  16.019   1.678
36042W        W 7713  43.559   1.939   1.359
36043W        W 7714  27.032  39.540  13.327
36044W        W 7715  32.884  16.871  10.735
36045W        W 7716   2.391  34.937  11.221
36046W        W 7717   7.703  32.532  12.431
36047W        W 7718   8.266  13.141  13.346
36048W        W 7719  35.770  12.984   5.170
36049W        W 7720  29.849  19.058  11.102
36050W        W 7721  40.365  28.023   0.591
36051W        W 7722   8.322  38.364   0.457
36052W        W 7723  39.352  39.498  13.044
36053W        W 7724  29.552   7.189   0.387
36054W        W 7725   3.398   4.717  14.384
36055W        W 7726   9.024  38.010  13.007
36056W        W 7727  21.589  17.508  12.087
36057W        W 7728  40.511  33.930  11.197
36058W        W 7729   5.327  18.679  12.873
36059W        W 7730  26.687  42.348  12.926
36060W        W 7731  42.945  27.123   1.674
36061W        W 7732  44.334   9.322  12.282
36062W        W 7733  17.139  12.287  13.402
36063W        W 7734  43.899  43.250   0.235
36064W        W 7735  26.769  41.349   0.844
36065W        W 7736  19.536  33.737  13.499
36066W        W 7737   7.989  40.079  13.969
36067W        W 7738   0.370  14.361  14.010
36068W        W 7739  24.733  20.572  10.692
36069W        W 7740  10.868  32.942  13.334
36070W        W 7741  11.750  27.608   3.087
36071W        W 7742  32.980  31.158  14.023
36072W        W 7743  42.071   6.210   2.870
36073W        W 7744  33.651  17.305   0.028
36074W        W 7745  41.019  35.850  13.608
36075W        W 7746  37.021  24.437   4.149
36076W        W 7747  29.230   8.798   2.131
36077W        W 7748  33.830   3.857   4.255
36078W        W 7749  42.510  43.015  12.383
36079W        W 7750  12.532  18.431  14.487
36080W        W 7751  13.476  30.702   1.425
36081W        W 7752  30.059  12.039  13.849
36082W        W 7753  21.530  36.947   2.406
36083W        W 7754  37.344  42.363  14.306
36084W        W 7755  32.799  35.960  12.074
36085W        W 7756  18.555  28.948  11.496
36086W        W 7757   2.470   2.280   2.798
36087W        W 7758  23.002  30.335  13.060
36088W        W 7759  27.482  32.944   0.313
36089W        W 7760  22.447  36.111  10.992
36090W        W 7761  13.706  39.573   0.740
36091W        W 7762  23.616  34.881  12.842
36092W        W 7763  31.294   9.224  12.322
36093W        W 7764  42.465   6.591   4.074
36094W        W 7765  41.615   2.074  11.085
36095W        W 7766   1.768  26.987  10.440
36096W        W 7767  36.602  22.316  14.939
36097W        W 7768  20.169  41.347   0.350
36098W        W 7769  11.744   7.104   4.201
36099W        W 7770   7.245  28.040  11.618
36100W        W 7771  25.596  40.845   4.004
36101W        W 7772  39.732  12.398  14.821
36102W        W 7773  36.235   8.705   1.725
36103W        W 7774  33.121   6.174   1.371
36104W        W 7775  24.013   0.016   2.336
36105W        W 7776  40.794   1.878  13.510
36106W        W 7777  27.925  27.208  10.106
36107W        W 7778  15.150  42.834   1.020
36108W        W 7779  39.597  39.624  11.660
36109W        W 7780  13.546   3.278   1.706
36110W        W 7781  23.515  21.817  14.591
36111W        W 7782  20.605  14.494  12.780
36112W        W 7783   5.114   4.226  14.335
36113W        W 7784  17.940  12.372   4.292
36114W        W 7785  15.145  27.697   1.507
36115W        W 7786  15.822   1.317  14.701
36116W        W 7787  26.714   4.992   1.275
36117W        W 7788  25.258  17.585  13.100
36118W        W 7789  18.075  40.038   4.225
36119W        W 7790  18.882  39.599  14.708
36120W        W 7791  38.777  30.719  11.127
36121W        W 7792   1.755  20.379   9.834
36122W        W 7793  35.076  26.913   4.076
36123W        W 7794  38.551  30.487  10.715
36124W        W 7795  24.492  28.654   0.923
36125W        W 7796  24.041   1.977  13.932
36126W        W 7797  10.634  31.060  14.453
36127W        W 7798  32.506  35.801  13.884
36128W        W 7799   4.724   5.255   2.348
36129W        W 7800   2.387  43.699   0.641
36130W        W 7801  13.431  32.702   1.035
36131W        W 7802   7.264  22.456  12.024
36132W        W 7803  42.402  22.694   2.736
36133W        W 7804  27.670  21.643   2.828
36134W        W 7805  13.807   5.304   4.044
36135W        W 7806  38.023   1.030   0.331
36136W        W 7807  21.471  14.930   2.317
36137W        W 7808  17.888  13.145  13.464
36138W        W 7809  34.095  18.474   3.242
36139W        W 7810  26.332   5.307   1.960
36140W        W 7811  35.327  22.250  12.066
36141W        W 7812  44.962   8.375   0.287
36142W        W 7813   3.961  39.889  13.030
36143W        W 7814  42.346  44.894   4.285
36144W        W 7815  44.684  40.876  14.750
36145W        W 7816  41.826   9.322   3.836
36146W        W 7817  44.268  31.056   0.892
36147W        W 7818  22.983  27.771  10.633
36148W        W 7819  23.362  13.656   1.028
36149W        W 7820  27.639  15.127   2.654
36150W        W 7821  44.331  20.488   3.342
36151W        W 7822   8.313  27.589   0.932
36152W        W 7823  19.171  43.582   3.428
36153W        W 7824   7.768  14.831   3.540
36154W        W 7825  30.952  28.074  14.355
36155W        W 7826  40.713  29.062  12.259
36156W        W 7827  25.929  13.098  10.868
36157W        W 7828  41.381  40.357  13.800
36158W        W 7829  20.178  10.222   1.802
36159W        W 7830  13.909  14.812   4.077
36160W        W 7831  38.258   5.165   1.232
36161W        W 7832  15.286  39.894   1.370
36162W        W 7833  39.745   3.534   0.411
36163W        W 7834  29.155  42.628   3.855
36164W        W 7835   4.891   6.773   0.802
36165W        W 7836  20.511  44.434   0.782
36166W        W 7837  43.793  10.380  14.568
36167W        W 7838  24.753   6.721  13.841
36168W        W 7839   8.352  35.917  14.055
36169W        W 7840  35.771  36.355   0.305
36170W        W 7841  17.245  38.931  13.602
36171W        W 7842   6.646  27.053   0.457
36172W        W 7843  19.705  11.328   9.696
36173W        W 7844  13.672  24.260  14.859
36174W        W 7845  16.694  29.191   0.343
36175W        W 7846   8.237  15.881   0.908
36176W        W 7847  43.784  38.817   0.285
36177W        W 7848  30.991  27.117  14.211
36178W        W 7849  15.092  35.210  14.178
36179W        W 7850  31.752  43.459   3.663
36180W        W 7851  10.833  33.705  10.985
36181W        W 7852  20.479  23.935   4.737
36182W        W 7853   2.834  10.688   2.903
36183W        W 7854  34.554  44.792   3.715
36184W        W 7855   8.359  13.207   2.707
36185W        W 7856  11.101  40.101   2.208
36186W        W 7857  39.431  43.870  14.313
36187W        W 7858   7.680   0.396   3.629
36188W        W 7859  30.379   9.304  12.776
36189W        W 7860   7.168  11.279  13.493
36190W        W 7861  41.065   7.789   1.243
36191W        W 7862  15.628  28.441   1.001
36192W        W 7863  10.365   2.706  10.768
36193W        W 7864  33.977  26.210  10.523
36194W        W 7865   4.135  10.133  12.015
36195W        W 7866   8.407  27.175  11.658
36196W        W 7867  16.096   0.852  10.118
36197W        W 7868  40.562  30.711   2.346
36198W        W 7869  39.303  42.800  12.987
36199W        W 7870  23.718  35.842  12.418
36200W        W 7871  32.475  13.571   4.886
36201W        W 7872  23.491   1.020   1.985
36202W        W 7873  18.516  12.614   3.612
36203W        W 7874  13.705  10.153   4.599
36204W        W 7875  11.606   3.245   0.493
36205W        W 7876  11.288  42.406  12.094
36206W        W 7877   8.689  11.466  14.718
36207W        W 7878  35.087   3.308  14.296
36208W        W 7879  14.877  23.271   2.122
36209W        W 7880  10.753  13.959  11.926
36210W        W 7881  21.765  37.589  11.666
36211W        W 7882  16.487  26.431  10.665
36212W        W 7883   6.941  44.763  10.892
36213W        W 7884  39.394  25.584  14.486
36214W        W 7885  38.249   9.892  14.466
36215W        W 7886  22.042  42.661   3.984
36216W        W 7887  21.701  40.346   2.166
36217W        W 7888  35.579   0.252   1.684
36218W        W 7889   4.507  33.672   2.217
36219W        W 7890   9.793   1.747  12.615
36220W        W 7891  19.208   8.376  12.538
36221W        W 7892  19.241   2.396  12.059
36222W        W 7893  23.242  12.288   4.944
36223W        W 7894  35.576  25.395  14.878
36224W        W 7895  14.736  16.877  12.062
36225W        W 7896  38.525  44.208  14.018
36226W        W 7897   9.798  30.896   1.275
36227W        W 7898  19.210  36.621  10.663
36228W        W 7899  25.310  33.183  13.583
36229W        W 7900  10.849  17.426  10.416
36230W        W 7901  13.582  40.660   2.409
36231W        W 7902  28.047  28.518   3.171
36232W        W 7903   8.546  33.277   2.859
36233W        W 7904  43.716  35.073  11.337
36234W        W 7905  44.236  22.556   1.718
36235W        W 7906  22.026  11.907  13.472
36236W        W 7907   2.699  14.741   0.966
36237W        W 7908  35.985  27.143   3.680
36238W        W 7909   7.864  19.868  10.231
36239W        W 7910  30.509  37.598   2.354
36240W        W 7911  33.329  44.804   2.452
36241W        W 7912  11.663  25.538  11.175
36242W        W 7913   3.074  39.396   0.707
36243W        W 7914  37.076  39.068   3.073
36244W        W 7915   1.906   8.251   4.356
36245W        W 7916   4.977  25.154   0.968
36246W        W 7917  17.778  42.816  13.387
36247W        W 7918  39.199  38.113   4.105
36248W        W 7919  20.704  39.097  13.434
36249W        W 7920  33.854  29.947  12.896
36250W        W 7921  42.831   3.250  13.026
36251W        W 7922  31.640  25.885   4.588
36252W        W 7923   5.290   4.459  12.331
36253W        W 7924  13.840  12.797  13.388
36254W        W 7925   4.476   6.070   2.167
36255W        W 7926  23.562  26.893  10.429
36256W        W 7927  23.957  11.647  14.983
36257W        W 7928  42.251  37.082   0.937
36258W        W 7929  32.793  26.241  11.112
36259W        W 7930  27.668  41.292  13.826
36260W        W 7931  24.033  21.230  13.525
36261W        W 7932  22.962  27.237  12.553
36262W        W 7933  26.455   8.163   2.335
36263W        W 7934  27.743  36.998   2.277
36264W        W 7935  21.443   5.341  12.616
36265W        W 7936  20.547   1.411   5.046
36266W        W 7937   7.655  19.781   3.124
36267W        W 7938  14.238   3.506   1.863
36268W        W 7939   7.352  41.921   0.173
36269W        W 7940   3.887  30.396   2.169
36270W        W 7941  15.995  41.521  14.073
36271W        W 7942   1.645  34.544  12.868
36272W        W 7943  35.500  12.843   0.828
36273W        W 7944   9.158  37.340   0.452
36274W        W 7945  30.034  37.021   1.221
36275W        W 7946  35.433   3.916  13.886
36276W        W 7947  36.663  22.545   4.978
36277W        W 7948  35.333  23.700  13.859
36278W        W 7949   3.894  27.317  13.314
36279W        W 7950  31.618  25.363   5.001
36280W        W 7951  15.558  16.173  13.074
36281W        W 7952  21.536  26.605   2.208
36282W        W 7953  38.087  10.309   1.690
36283W        W 7954  31.539  39.105  14.300
36284W        W 7955  37.954  31.234   2.429
36285W        W 7956  39.904   5.979  11.390
36286W        W 7957  24.097  27.478   0.482
36287W        W 7958   9.229  15.996  11.583
36288W        W 7959   2.244  11.897   0.450
36289W        W 7960   9.191   0.943   3.277
36290W        W 7961   3.328   7.811  13.311
36291W        W 7962  42.819   7.930   2.892
36292W        W 7963  15.080  44.028  11.623
36293W        W 7964  21.001  44.453   3.167
36294W        W 7965  14.205   1.794  10.483
36295W        W 7966  39.393  44.868  13.958
36296W        W 7967   0.670   8.314  12.989
36297W        W 7968  23.722  15.784  10.991
36298W        W 7969  14.830  30.837  10.838
36299W        W 7970  34.586  40.422   4.703
36300W        W 7971  24.573  21.543  10.631
36301W        W 7972  14.808  31.592  12.052
36302W        W 7973  31.980  18.838  12.523
36303W        W 7974  44.856   6.817  13.372
36304W        W 7975   8.998  13.416  14.831
36305W        W 7976  11.246  10.292   4.969
36306W        W 7977  23.574  39.062  14.303
36307W        W 7978  40.631  20.692  14.994
36308W        W 7979  13.112  19.372   3.786
36309W        W 7980  11.200  20.778   1.559
36310W        W 7981   8.856  31.114   0.225
36311W        W 7982  43.006  36.173   0.491
36312W        W 7983   5.851  23.460  14.412
36313W        W 7984  17.228  24.978   4.994
36314W        W 7985  14.147  16.980   3.707
36315W        W 7986  14.118  34.536  11.145
36316W        W 7987   3.256  19.492  10.777
36317W        W 7988   8.800  32.374   3.628
36318W        W 7989   3.450   1.451  14.411
36319W        W 7990  35.566  44.789   0.884
36320W        W 7991  15.142  17.103  12.901
36321W        W 7992  41.506  15.916   4.618
36322W        W 7993  21.442  42.436   3.158
36323W        W 7994  26.992   7.893   4.662
36324W        W 7995  16.499  24.322  14.880
36325W        W 7996  32.324   6.821  12.496
36326W        W 7997  14.074   5.779  11.244
36327W        W 7998   1.390   1.248   3.726
36328W        W 7999  28.230  37.989  14.842
36329W        W 8000  39.351   9.317  14.926
36330W        W 8001  14.008  24.589  14.608
36331W        W 8002  19.583   2.720  13.415
36332W        W 8003  33.504  10.388   4.061
36333W        W 8004  20.171  17.007   1.469
36334W        W 8005  14.826  34.902  14.481
36335W        W 8006  40.009  31.500   3.800
36336W        W 8007  40.260  36.421   1.334
36337W        W 8008  39.478  34.137  13.893
36338W        W 8009  27.743  26.085  14.296
36339W        W 8010   0.745  27.744  11.048
36340W        W 8011  33.478  39.824   3.264
36341W        W 8012  25.662  35.066  14.916
36342W        W 8013  40.519   8.318  14.974
36343W        W 8014  28.965  21.132  13.522
36344W        W 8015  37.015  21.761  10.730
36345W        W 8016   2.504  32.018   5.055
36346W        W 8017   5.370   7.717   3.847
36347W        W 8018  40.820  28.767  10.598
36348W        W 8019   4.195  39.475  11.233
36349W        W 8020  14.204  12.185  12.057
36350W        W 8021  20.445  23.789   0.771
36351W        W 8022  10.659  18.765   0.880
36352W        W 8023  30.848  41.858   3.675
36353W        W 8024  21.490  15.826   2.835
36354W        W 8025  20.201   7.808  13.738
36355W        W 8026  20.530   4.435   3.202
36356W        W 8027   4.550  33.440  11.082
36357W        W 8028  28.954  43.222   0.786
36358W        W 8029   6.757  15.135   2.249
36359W        W 8030  32.010  39.963   1.031
36360W        W 8031  17.544  35.144   1.924
36361W        W 8032  34.177  38.383  12.399
36362W        W 8033  41.918  32.793  12.418
36363W        W 8034  17.230  21.058   3.604
36364W        W 8035  18.559  43.463  11.549
36365W        W 8036  42.499  44.175  14.904
36366W        W 8037  17.720  24.961   4.857
36367W        W 8038   8.081  19.193   0.786
36368W        W 8039  12.670  36.054   3.320
36369W        W 8040  43.550  31.469  11.951
36370W        W 8041  22.815  37.042   4.686
36371W        W 8042  43.274  37.051   0.829
36372W        W 8043  33.912   4.763  12.145
36373W        W 8044  44.851  12.253  13.470
36374W        W 8045  36.604  22.179   4.307
36375W        W 8046  37.102  27.649   3.213
36376W        W 8047  21.659  42.342  14.679
36377W        W 8048   1.450  22.186  10.591
36378W        W 8049  17.737  31.384   1.152
36379W        W 8050   6.546   8.589  14.456
36380W        W 8051  17.820  29.377  12.941
36381W        W 8052  10.283  26.512   0.879
36382W        W 8053  38.987  39.509   4.277
36383W        W 8054  25.022  36.038  12.693
36384W        W 8055   6.919  31.619  14.261
36385W        W 8056  31.532   3.892   1.225
36386W        W 8057   4.025  44.471   0.828
36387W        W 8058  17.221  11.479  14.248
36388W        W 8059   4.587  42.360  13.009
36389W        W 8060   6.392  29.582  11.662
36390W        W 8061   3.446  11.604  11.515
36391W        W 8062  30.372  26.159  12.845
36392W        W 8063  43.937   5.707  14.283
36393W        W 8064  25.567   3.785  14.948
36394W        W 8065  27.708  42.009  12.542
36395W        W 8066  41.403  31.114  10.769
36396W        W 8067  42.104  32.031   0.687
36397W        W 8068   4.234  20.849  11.521
36398W        W 8069  40.437   1.065   4.512
36399W        W 8070  16.575  29.025  12.965
36400W        W 8071  34.120  35.450  14.006
36401W        W 8072   1.558  35.708   4.128
36402W        W 8073  25.442   5.823   4.382
36403W        W 8074   9.022  41.052  13.416
36404W        W 8075  15.834  23.096   4.248
36405W        W 8076  42.692  25.686   1.072
36406W        W 8077  18.189  11.698  10.971
36407W        W 8078  43.405   7.759  12.304
36408W        W 8079  25.162   7.698   4.689
36409W        W 8080  17.371  13.262  12.592
36410W        W 8081  39.371   7.413   0.255
36411W        W 8082  17.672   4.734   1.870
36412W        W 8083  42.372  14.840  12.436
36413W        W 8084  11.621  39.820  11.044
36414W        W 8085  25.997  35.375   3.248
36415W        W 8086  43.259  28.962  10.860
36416W        W 8087  40.004  17.309  11.593
36417W        W 8088  11.404  12.012   0.778
36418W        W 8089  11.245  30.926   1.202
36419W        W 8090  30.956  35.977  12.214
36420W        W 8091  35.406  19.541   3.525
36421W        W 8092  19.733  28.122   0.343
36422W        W 8093  33.475  17.670   2.495
36423W        W 8094  12.668   4.841  10.577
36424W        W 8095   8.349   5.829   0.845
36425W        W 8096   2.357  29.966   2.253
36426W        W 8097  26.053  42.050  13.439
36427W        W 8098  39.346   7.087  10.742
36428W        W 8099  16.631  40.484  11.819
36429W        W 8100  24.091   7.331  14.886
36430W        W 8101  34.051  38.984   0.835
36431W        W 8102  36.769   5.871  10.680
36432W        W 8103  33.061  11.723   4.086
36433W        W 8104   4.895  40.611  12.568
36434W        W 8105  27.528   6.850  12.842
36435W        W 8106  35.714  34.113   0.861
36436W        W 8107  40.041  10.605  14.384
36437W        W 8108  18.464  11.192  13.362
36438W        W 8109  37.355  27.093   1.950
36439W        W 8110  44.866  31.308  10.929
36440W        W 8111   6.902  12.349   3.835
36441W        W 8112   9.075  27.063   3.598
36442W        W 8113  10.343  13.723   2.094
36443W        W 8114  40.273   5.309  10.614
36444W        W 8115  34.493  16.778  12.459
36445W        W 8116  11.768  26.607  10.246
36446W        W 8117  37.685  32.572   2.851
36447W        W 8118   0.677   1.481  10.478
36448W        W 8119  33.439  23.320   2.288
36449W        W 8120  32.398  15.480  13.889
36450W        W 8121   7.498  14.972  12.196
36451W        W 8122  21.648  29.751  13.631
36452W        W 8123  23.666  26.972  13.991
36453W        W 8124  29.904  17.086  11.191
36454W        W 8125  17.654  24.714  11.762
36455W        W 8126  43.739  22.760   0.916
36456W        W 8127  40.332  10.337  13.533
36457W        W 8128  12.354  35.878   1.345
36458W        W 8129  12.357  35.545   0.045
36459W        W 8130  12.071   0.852  11.158
36460W        W 8131  12.689  43.223   0.212
36461W        W 8132  43.411  15.380   0.882
36462W        W 8133  42.852  14.266   4.264
36463W        W 8134  27.207  12.944  11.090
36464W        W 8135  39.237  40.732   1.422
36465W        W 8136   2.315  39.648   2.777
36466W        W 8137  34.617  31.208   2.261
36467W        W 8138  14.838  15.105   4.403
36468W        W 8139  22.481  35.158   4.264
36469W        W 8140  38.140  23.179   2.719
36470W        W 8141  31.492   6.807   2.825
36471W        W 8142  27.971  34.049  14.005
36472W        W 8143  22.980  23.184   0.249
36473W        W 8144  15.066  34.059  13.795
36474W        W 8145  24.588  21.743   0.347
36475W        W 8146  20.330  32.859  14.518
36476W        W 8147  21.573  17.048   4.668
36477W        W 8148  36.946  43.352  14.021
36478W        W 8149  44.890  14.647   3.377
36479W        W 8150  22.026  14.953   0.242
36480W        W 8151   8.724  40.262   2.824
36481W        W 8152  28.138   1.431  13.975
36482W        W 8153   7.455   8.175  11.666
36483W        W 8154  13.134  35.977   0.899
36484W        W 8155  18.054   4.918  14.600
36485W        W 8156  19.973  15.279  11.162
36486W        W 8157  14.531  17.184  11.189
36487W        W 8158  21.138  31.923  14.894
36488W        W 8159  39.970  18.634   4.154
36489W        W 8160  43.411  33.111   2.890
36490W        W 8161  34.882  27.197   0.902
36491W        W 8162   9.045   7.249  13.887
36492W        W 8163  16.119  17.733  10.690
36493W        W 8164   0.517  32.457   0.462
36494W        W 8165  35.991  33.341   0.814
36495W        W 8166   0.885  19.067  14.879
36496W        W 8167  23.716   5.902   0.540
36497W        W 8168  32.500  31.394   2.872
36498W        W 8169  34.631  35.367   0.287
36499W        W 8170   9.541  22.100  10.639
36500W        W 8171  42.811  30.156   1.224
36501W        W 8172  21.983  20.788   1.806
36502W        W 8173  32.350   5.078   2.183
36503W        W 8174  19.261   8.883  10.740
36504W        W 8175  14.237  22.619  14.784
36505W        W 8176  22.643   3.314  12.527
36506W        W 8177  42.471   6.878  13.005
36507W        W 8178   2.422   1.422   4.569
36508W        W 8179  25.387   7.702   2.387
36509W        W 8180  12.747  42.199  11.435
36510W        W 8181  28.661   1.888   1.140
36511W        W 8182  18.778  44.439  10.425
36512W        W 8183  40.858   1.410  13.279
36513W        W 8184  36.468   0.365  13.067
36514W        W 8185  34.796  35.569  13.158
36515W        W 8186   5.165  12.805  11.994
36516W        W 8187   5.328  39.140  13.624
36517W        W 8188  11.154  34.043   0.940
36518W        W 8189  25.135   5.824   1.204
36519W        W 8190  44.345   2.053  14.276
36520W        W 8191  19.830  17.282  12.874
36521W        W 8192   1.852   9.007   3.348
36522W        W 8193  11.573  30.506  13.368
36523W        W 8194  44.003   5.386   2.893
36524W        W 8195   2.771  34.988  12.405
36525W        W 8196  10.407  25.555  11.979
36526W        W 8197  43.459  11.187  12.921
36527W        W 8198  28.419  40.450   2.094
36528W        W 8199  41.253  25.725  14.623
36529W        W 8200   4.800   5.219   0.809
36530W        W 8201   2.532  41.603  14.605
36531W        W 8202  40.959  11.648  11.467
36532W        W 8203   1.888  31.451  11.948
36533W        W 8204  11.257  16.183   2.787
36534W        W 8205  10.358  14.738   2.282
36535W        W 8206  30.081  11.430  11.481
36536W        W 8207  19.559  20.063   3.997
36537W        W 8208  16.555  13.747   4.403
36538W        W 8209  24.912  16.457  12.487
36539W        W 8210  44.466  42.398  13.130
36540W        W 8211  39.299  11.646  12.437
36541W        W 8212  21.234   3.188  13.629
36542W        W 8213   0.946  40.069   0.241
36543W        W 8214  17.079   6.749  12.786
36544W        W 8215  29.096  22.801   2.739
36545W        W 8216  36.362   3.980   2.298
36546W        W 8217  28.540  41.250  14.742
36547W        W 8218   1.907  19.119   2.786
36548W        W 8219  41.184  30.264  13.836
36549W        W 8220  18.549   0.884   2.660
36550W        W 8221  32.823  17.528  11.571
36551W        W 8222   1.070  18.530  14.281
36552W        W 8223  32.395  35.588   0.893
36553W        W 8224   4.565  27.224  14.779
36554W        W 8225  37.039  42.519   0.460
36555W        W 8226  23.599  40.112   4.573
36556W        W 8227   3.235  26.310   2.008
36557W        W 8228   8.175  19.645  11.804
36558W        W 8229  24.676  41.893  10.572
36559W        W 8230  27.797   1.946  10.956
36560W        W 8231   0.781   5.921  14.335
36561W        W 8232  17.184  11.392   2.277
36562W        W 8233  38.861   7.252   0.068
36563W        W 8234  12.383   8.915  10.898
36564W        W 8235   5.394  13.235   3.883
36565W        W 8236  20.615  38.144   5.440
36566W        W 8237   2.842  14.128   1.764
36567W        W 8238  32.495   2.265   2.842
36568W        W 8239   4.485  41.948  12.663
36569W        W 8240  29.739  40.293   1.741
36570W        W 8241  42.933  24.910   4.570
36571W        W 8242  39.434  34.567   0.368
36572W        W 8243  39.862  24.788  11.431
36573W        W 8244  25.210   0.402   3.756
36574W        W 8245  17.128  15.940   4.612
36575W        W 8246  11.135  37.929  13.456
36576W        W 8247  32.533  13.167  13.980
36577W        W 8248  26.726   8.141  14.797
36578W        W 8249  17.533  30.428   2.925
36579W        W 8250  14.816  19.358  11.944
36580W        W 8251   9.414  28.662  12.637
36581W        W 8252  27.907  40.427   1.866
36582W        W 8253  10.551  28.168  10.948
36583W        W 8254  43.728  31.412   2.334
36584W        W 8255  10.697  42.337   3.234
36585W        W 8256  40.841  16.658  10.716
36586W        W 8257  41.473  23.440  13.446
36587W        W 8258  35.535  19.516   0.855
36588W        W 8259   2.911  12.773  11.703
36589W        W 8260   9.889  32.312   5.277
36590W        W 8261  32.342  35.376   4.559
36591W        W 8262  14.183   3.025  11.870
36592W        W 8263   5.887  11.394   2.253
36593W        W 8264  19.525  17.142  12.483
36594W        W 8265  23.753  26.434  14.013
36595W        W 8266  28.410  32.884  11.905
36596W        W 8267  33.821  43.391   2.498
36597W        W 8268  27.621  38.605  12.467
36598W        W 8269  32.130  18.462   1.870
36599W        W 8270  19.982   3.524  13.287
36600W        W 8271  30.273   7.197   1.539
36601W        W 8272  16.640  35.400   0.396
36602W        W 8273  22.698  42.161   4.172
36603W        W 8274  40.007  19.824  12.883
36604W        W 8275   4.466  16.342  13.824
36605W        W 8276  31.257  20.172   2.732
36606W        W 8277  41.346  39.471   4.577
36607W        W 8278  12.107   4.036  14.574
36608W        W 8279  11.824  25.234  11.613
36609W        W 8280  26.666   4.740   0.782
36610W        W 8281  43.808  33.512   2.861
36611W        W 8282   7.750  35.092  14.062
36612W        W 8283  40.340   6.801  14.100
36613W        W 8284  28.924  29.743   2.772
36614W        W 8285   3.859  38.945  13.828
36615W        W 8286  26.241   7.441   4.485
36616W        W 8287  12.808  39.382   4.730
36617W        W 8288   8.438  16.471   3.698
36618W        W 8289  12.995  25.891  11.635
36619W        W 8290   4.844  13.831  11.994
36620W        W 8291   0.358  41.855  10.402
36621W        W 8292  26.198  39.870  12.559
36622W        W 8293  19.233  30.737   2.799
36623W        W 8294   5.249  33.299   1.001
36624W        W 8295  31.256   7.729  10.583
36625W        W 8296  31.111   1.309   2.614
36626W        W 8297  25.501  18.310   1.244
36627W        W 8298  18.642  25.719   1.242
36628W        W 8299   0.969   6.776   0.917
36629W        W 8300   4.313  33.068  14.552
36630W        W 8301  19.145  19.983   1.485
36631W        W 8302  36.437  17.218   2.330
36632W        W 8303  40.296   6.720  12.473
36633W        W 8304  33.498  11.572  11.370
36634W        W 8305   6.786  17.101  12.985
36635W        W 8306  19.555  25.408  12.061
36636W        W 8307  11.068  43.476  14.361
36637W        W 8308  44.268  27.820   1.895
36638W        W 8309  39.340  19.490  13.415
36639W        W 8310  27.219  14.494   0.048
36640W        W 8311   2.031   1.750   1.460
36641W        W 8312  26.075  41.642   2.203
36642W        W 8313   3.239  40.516   5.106
36643W        W 8314  18.475  13.282   0.908
36644W        W 8315  17.276  23.161   4.334
36645W        W 8316  11.198  22.952  12.125
36646W        W 8317  14.279  23.238   2.287
36647W        W 8318   7.752  35.884   1.902
36648W        W 8319  36.761  44.365  11.550
36649W        W 8320  32.135  33.362   2.872
36650W        W 8321  10.694  40.371  11.659
36651W        W 8322  28.470  28.050  13.811
36652W        W 8323  20.686  13.128  14.058
36653W        W 8324  18.977  15.570  10.412
36654W        W 8325  42.902  40.147   4.549
36655W        W 8326  36.530  11.538   1.061
36656W        W 8327   2.427  24.128   4.852
36657W        W 8328  23.606   0.080  14.450
36658W        W 8329  19.783   6.560   2.780
36659W        W 8330  13.528  14.285  10.584
36660W        W 8331  25.234  28.497   0.369
36661W        W 8332  18.069  30.497   3.667
36662W        W 8333  25.466  35.532   1.302
36663W        W 8334  12.400  10.642   2.202
36664W        W 8335  41.034  29.179  11.276
36665W        W 8336  20.693  28.074   4.219
36666W        W 8337  15.121  25.539  13.969
36667W        W 8338  43.379   4.848  10.663
36668W        W 8339  20.074  36.513  11.082
36669W        W 8340  25.421   8.712   4.531
36670W        W 8341  23.842  44.289   0.618
36671W        W 8342  16.385   3.494   2.363
36672W        W 8343  20.029  13.747   0.502
36673W        W 8344   0.978  27.412  14.922
36674W        W 8345  38.790   4.706   3.717
36675W        W 8346  15.694   5.883  12.646
36676W        W 8347   0.739  39.163   4.058
36677W        W 8348  37.501  13.666   1.340
36678W        W 8349   6.871  14.735   4.131
36679W        W 8350  10.167  17.618   2.130
36680W        W 8351  12.272  32.866  12.998
36681W        W 8352  35.039  24.212   4.608
36682W        W 8353  36.129  37.007  11.687
36683W        W 8354  42.212  42.793   4.184
36684W        W 8355  41.425   6.939  11.452
36685W        W 8356  41.561   4.930   2.218
36686W        W 8357  25.135  36.145   1.040
36687W        W 8358  25.870  38.748   2.410
36688W        W 8359  26.101  44.999  14.780
36689W        W 8360  10.679  17.941  14.856
36690W        W 8361  20.150  21.759   1.780
36691W        W 8362  29.147  14.112  13.349
36692W        W 8363  12.232   4.835   3.770
36693W        W 8364  41.051   7.298   3.686
36694W        W 8365   2.284  20.150  13.878
36695W        W 8366   1.469  26.234  10.470
36696W        W 8367  30.936  42.609   5.307
36697W        W 8368  29.905   5.509   2.951
36698W        W 8369  13.668  44.448  11.995
36699W        W 8370  26.601  34.703  12.363
36700W        W 8371  20.008  29.587   0.380
36701W        W 8372  30.349  18.585   4.148
36702W        W 8373   8.781  16.827  12.020
36703W        W 8374  36.546   1.216   0.837
36704W        W 8375  32.860  40.120  12.080
36705W        W 8376  10.904  18.862  13.951
36706W        W 8377  28.093  10.676   1.663
36707W        W 8378  35.806  17.147  10.771
36708W        W 8379   4.899  39.600  12.451
36709W        W 8380   0.863   8.442   0.345
36710W        W 8381   6.196  31.009   2.216
36711W        W 8382  16.867   3.766  14.946
36712W        W 8383  38.352  14.760  14.312
36713W        W 8384   7.779  20.538   1.983
36714W        W 8385  44.082  37.251   1.861
36715W        W 8386   2.046  15.036   0.452
36716W        W 8387  28.693   7.286  11.142
36717W        W 8388  40.883  41.328   3.644
36718W        W 8389   3.902  15.730  12.487
36719W        W 8390  25.513  20.185   0.669
36720W        W 8391  43.930  30.149  10.959
36721W        W 8392  33.543   8.390  11.487
36722W        W 8393  44.737   9.667  12.842
36723W        W 8394  38.350  21.196  10.853
36724W        W 8395   8.386  19.662   3.491
36725W        W 8396  31.288  14.376  12.889
36726W        W 8397  18.285  44.570   4.206
36727W        W 8398  14.142   9.804  14.374
36728W        W 8399  34.890   0.463   3.252
36729W        W 8400  14.072  32.423   1.333
36730W        W 8401  13.219   1.215  13.889
36731W        W 8402   6.608   5.312   4.104
36732W        W 8403  20.216  26.682  11.122
36733W        W 8404  30.482   0.759   3.782
36734W        W 8405  33.304  42.727   2.009
36735W        W 8406  15.211  13.295   4.782
36736W        W 8407  32.547  33.203  12.511
36737W        W 8408  13.665   6.946  11.249
36738W        W 8409   8.618  14.440   3.280
36739W        W 8410   8.190  12.478   2.385
36740W        W 8411  14.566  40.729   4.143
36741W        W 8412  16.404  14.115  13.023
36742W        W 8413  11.280  36.071   3.677
36743W        W 8414  36.777  23.066   4.480
36744W        W 8415  18.652   9.938  14.780
36745W        W 8416   7.664  11.441   4.226
36746W        W 8417  23.703  22.811  10.795
36747W        W 8418   3.262  15.905   4.560
36748W        W 8419  19.512  25.520  14.284
36749W        W 8420   5.693  12.279  10.684
36750W        W 8421  11.836  16.435   1.725
36751W        W 8422   2.198  15.128   1.064
36752W        W 8423   9.734  25.428  13.368
36753W        W 8424  32.399   2.768   0.360
36754W        W 8425  22.526  31.519  12.509
36755W        W 8426   6.427  23.846   1.853
36756W        W 8427  31.424   1.774  13.760
36757W        W 8428  29.027   5.170   4.664
36758W        W 8429  13.263  15.539   4.263
36759W        W 8430  10.870   0.915  11.462
36760W        W 8431  19.619  41.131  10.969
36761W        W 8432  37.375  13.374   2.775
36762W        W 8433  42.417  29.735  10.990
36763W        W 8434  37.024  22.577   1.876
36764W        W 8435  21.787  18.041   3.948
36765W        W 8436  35.962  25.800  13.044
36766W        W 8437   6.682  42.547   1.815
36767W        W 8438  31.247  35.338  11.756
36768W        W 8439  42.749   8.665  10.263
36769W        W 8440  35.848  42.933  14.333
36770W        W 8441  11.471   4.883   2.137
36771W        W 8442  40.292  35.950  13.017
36772W        W 8443  37.605  39.005  12.489
36773W        W 8444   3.848  29.910   3.653
36774W        W 8445  35.076   8.918  11.108
36775W        W 8446  32.968  38.668  12.000
36776W        W 8447  22.454  42.076  14.484
36777W        W 8448   0.495   3.930   2.722
36778W        W 8449  34.674  11.153  12.865
36779W        W 8450  40.092  41.987  10.614
36780W        W 8451  34.493   6.299   4.288
36781W        W 8452  13.063  39.077  14.120
36782W        W 8453  25.884  22.188  12.539
36783W        W 8454  30.729  34.314   4.277
36784W        W 8455  13.687  17.929  12.082
36785W        W 8456  44.428  37.087   4.157
36786W        W 8457  15.698  24.018   4.191
36787W        W 8458  31.273  10.021   4.139
36788W        W 8459  14.875   8.238  13.131
36789W        W 8460   6.038  35.253   2.788
36790W        W 8461  38.387  42.405   0.373
36791W        W 8462   2.035  38.357   3.328
36792W        W 8463  16.714  13.410   2.642
36793W        W 8464  38.805  43.552   2.325
36794W        W 8465  39.462  18.681   1.198
36795W        W 8466  21.652  38.515  14.548
36796W        W 8467  21.603  41.519   5.153
36797W        W 8468  44.005  23.298   4.242
36798W        W 8469  22.138  19.119  12.410
36799W        W 8470  11.891  34.911  12.385
36800W        W 8471  21.616  42.556  12.373
36801W        W 8472  16.243  21.748  10.936
36802W        W 8473  25.750  17.566  11.076
36803W        W 8474  14.965  22.313  13.513
36804W        W 8475  19.079   1.770   2.729
36805W        W 8476  13.088  36.643  11.282
36806W        W 8477  20.202  33.348  14.549
36807W        W 8478  23.011  16.274  11.525
36808W        W 8479  19.664  28.196   4.711
36809W        W 8480  42.033   2.202  11.402
36810W        W 8481  25.734  20.233  12.859
36811W        W 8482  42.019  29.143  12.813
36812W        W 8483  22.008  38.307   1.339
36813W        W 8484  11.278  10.781   1.328
36814W        W 8485   3.660  22.613  13.111
36815W        W 8486   3.388  24.448  12.078
36816W        W 8487  41.742  21.899   1.237
36817W        W 8488  23.792  38.997   1.592
36818W        W 8489  43.719  43.773   4.316
36819W        W 8490  23.082  38.097   4.074
36820W        W 8491  23.510  16.373  11.592
36821W        W 8492  26.105  10.316   1.958
36822W        W 8493  24.235  25.168  12.059
36823W        W 8494  15.761   8.008  13.564
36824W        W 8495  18.921  11.086   4.187
36825W        W 8496  27.654  15.250  14.765
36826W        W 8497  39.096  40.866   9.749
36827W        W 8498  20.590  34.913   1.857
36828W        W 8499   9.362  16.100  14.666
36829W        W 8500  40.440  25.551   3.323
36830W        W 8501  16.111  41.184   5.058
36831W        W 8502  10.146  12.519  14.917
36832W        W 8503  44.921   8.151   1.280
36833W        W 8504  18.937  25.770  13.866
36834W        W 8505   9.257  25.775   0.705
36835W        W 8506   2.436  22.419   2.786
36836W        W 8507  29.267   4.496  12.901
36837W        W 8508  42.437   0.449  12.504
36838W        W 8509  15.773   2.150  14.931
36839W        W 8510  18.374   7.198   9.992
36840W        W 8511  36.492  27.643  13.415
36841W        W 8512  32.971  33.126   2.595
36842W        W 8513  37.471  15.293   4.919
36843W        W 8514  38.059  39.511   1.884
36844W        W 8515  26.884  29.738  13.834
36845W        W 8516   1.434  18.841  14.022
36846W        W 8517   5.303   8.746  13.474
36847W        W 8518  35.905  37.424   0.739
36848W        W 8519   3.095  40.809   1.438
36849W        W 8520  39.331  20.181  14.301
36850W        W 8521  14.280  22.264   2.708
36851W        W 8522  13.657   5.393  14.241
36852W        W 8523  34.677  34.028   0.747
36853W        W 8524  39.496   5.817   2.131
36854W        W 8525  13.636   1.492  13.065
36855W        W 8526  29.869  38.633  12.128
36856W        W 8527   4.525  20.896  13.241
36857W        W 8528   3.252  22.602  10.915
36858W        W 8529  13.140  13.197  12.551
36859W        W 8530  11.600  27.974  11.021
36860W        W 8531  26.609  23.546   1.773
36861W        W 8532   8.249  44.528  10.170
36862W        W 8533  22.748  14.221   3.597
36863W        W 8534   5.406  10.722   1.492
36864W        W 8535  36.893   3.448  11.206
36865W        W 8536  26.262   8.370   0.023
36866W        W 8537  41.711  14.579  13.505
36867W        W 8538   9.080  21.159   1.057
36868W        W 8539  35.701  29.903   1.877
36869W        W 8540  26.901  12.485   2.277
36870W        W 8541  11.086  42.823   2.621
36871W        W 8542  24.692  34.904  14.808
36872W        W 8543  15.195   5.845   4.348
36873W        W 8544  27.868  44.763   1.630
36874W        W 8545   2.912  30.660   3.240
36875W        W 8546  12.131  23.419  13.023
36876W        W 8547  36.352  25.685   3.384
36877W        W 8548  20.228  12.568   4.208
36878W        W 8549  14.550  18.860  11.309
36879W        W 8550  30.884  21.276   3.320
36880W        W 8551  11.337  39.055  14.292
36881W        W 8552  39.859  11.275  10.694
36882W        W 8553  15.445  16.138  14.827
36883W        W 8554  10.871  34.316   4.611
36884W        W 8555  26.097  30.411  13.025
36885W        W 8556  30.966  31.024  12.836
36886W        W 8557   2.650   1.246   3.972
36887W        W 8558  18.110  19.531   1.357
36888W        W 8559  13.084   9.761   0.256
36889W        W 8560   0.493  29.721   1.398
36890W        W 8561   7.404  19.379  14.598
36891W        W 8562  18.078  34.192  14.023
36892W        W 8563   1.393  23.577   2.258
36893W        W 8564  15.334  36.366  12.943
36894W        W 8565  44.583  40.361   1.104
36895W        W 8566  10.375  29.616  12.071
36896W        W 8567  22.535  12.561  13.984
36897W        W 8568   1.200  19.513   5.497
36898W        W 8569  40.023  35.080  10.690
36899W        W 8570  28.336  26.225  12.887
36900W        W 8571  38.880   9.816   0.827
36901W        W 8572  39.539  32.491   4.459
36902W        W 8573   4.035  12.427   1.466
36903W        W 8574  27.271  28.245  11.119
36904W        W 8575   3.305  21.275   2.716
36905W        W 8576  38.806  15.948  12.069
36906W        W 8577  21.758  27.960  14.760
36907W        W 8578   0.217  43.339  11.951
36908W        W 8579   4.464  31.834   1.418
36909W        W 8580  18.545  26.121  12.467
36910W        W 8581  12.120   6.451  12.461
36911W        W 8582  21.296  24.972  14.294
36912W        W 8583   7.143   2.967   1.778
36913W        W 8584  29.124   4.668  11.561
36914W        W 8585  40.542   5.223   0.456
36915W        W 8586  40.925  39.370   3.223
36916W        W 8587  29.332  23.240   2.095
36917W        W 8588   0.449  38.852  12.338
36918W        W 8589  28.657  13.453   3.775
36919W        W 8590  35.239  16.611  11.121
36920W        W 8591   2.955   5.962   2.420
36921W        W 8592  12.184  43.176   0.158
36922W        W 8593  23.571  38.827  10.845
36923W        W 8594  12.322  17.406  14.374
36924W        W 8595  14.491  27.534   3.374
36925W        W 8596   3.280  23.984  13.017
36926W        W 8597  10.170   5.415   0.822
36927W        W 8598  36.286  12.824  10.340
36928W        W 8599  26.135  13.831  13.553
36929W        W 8600   9.333  29.054   2.178
36930W        W 8601  43.485   9.183   3.798
36931W        W 8602   8.393  28.197  13.599
36932W        W 8603  31.508  30.213  12.007
36933W        W 8604  20.655  16.009  11.148
36934W        W 8605  15.823   8.743  11.983
36935W        W 8606   5.768  36.569  11.318
36936W        W 8607   4.406  22.451   1.799
36937W        W 8608   5.117   4.168   2.700
36938W        W 8609  14.073  27.141   1.116
36939W        W 8610   7.327  21.956   0.958
36940W        W 8611  20.238  19.770   2.821
36941W        W 8612  36.842  36.932   5.607
36942W        W 8613  17.697  25.927   1.260
36943W        W 8614  21.808  30.508   3.871
36944W        W 8615   6.397   9.363  14.265
36945W        W 8616  12.518  18.487  13.609
36946W        W 8617  10.129  16.167  13.397
36947W        W 8618  25.755   4.798   0.224
36948W        W 8619  29.261  30.132   0.967
36949W        W 8620  23.364  42.330   0.354
36950W        W 8621  35.003  12.079   1.779
36951W        W 8622  42.251  31.604   0.957
36952W        W 8623  25.629   2.001   2.396
36953W        W 8624  31.032  42.306   3.462
36954W        W 8625  36.647  32.988   3.245
36955W        W 8626  28.231  25.665   2.332
36956W        W 8627  37.010   7.127  14.970
36957W        W 8628  19.285  42.768  10.521
36958W        W 8629  38.012  22.283   0.482
36959W        W 8630  12.357  37.468   2.431
36960W        W 8631  22.479  21.170   4.916
36961W        W 8632  41.066  31.651  11.262
36962W        W 8633  26.465  40.817  14.885
36963W        W 8634  24.315  32.450  12.855
36964W        W 8635  25.368  36.431  14.541
36965W        W 8636  33.570  15.386   2.428
36966W        W 8637  18.925   9.852  12.837
36967W        W 8638  36.541  15.850   9.986
36968W        W 8639  19.047   1.902  14.407
36969W        W 8640  27.410  10.319  12.875
36970W        W 8641   8.318  12.160   2.799
36971W        W 8642  12.709  22.159  13.915
36972W        W 8643  28.212  36.920   4.608
36973W        W 8644  27.039  44.196   4.210
36974W        W 8645  11.668  12.191   2.052
36975W        W 8646  29.959  35.543   0.741
36976W        W 8647  33.933  43.955  13.529
36977W        W 8648  22.382  44.718   4.977
36978W        W 8649  36.815  36.832  10.128
36979W        W 8650  11.388  33.569   0.446
36980W        W 8651   9.125   4.380   2.316
36981W        W 8652  35.109  35.855  14.166
36982W        W 8653  27.963  44.218  13.730
36983W        W 8654   6.691  38.881   1.811
36984W        W 8655  21.139  19.543   4.183
36985W        W 8656  19.202  22.262  11.649
36986W        W 8657   8.938  28.500  12.527
36987W        W 8658  25.378  11.849   4.143
36988W        W 8659   6.841  41.294  13.880
36989W        W 8660  34.386  28.527   3.673
36990W        W 8661   2.155  23.303   3.174
36991W        W 8662   0.449   2.401  12.104
36992W        W 8663  39.912   5.342  12.196
36993W        W 8664  29.597  35.938  10.909
36994W        W 8665  36.582  28.115  10.663
36995W        W 8666  36.910  39.888  13.900
36996W        W 8667  41.565  12.812   1.170
36997W        W 8668  38.872  36.054   1.919
36998W        W 8669  44.486  28.667  10.713
36999W        W 8670  30.426  26.033   0.265
37000W        W 8671  24.624  31.338   1.299
37001W        W 8672  32.456  24.757  11.244
37002W        W 8673  16.296  10.803   2.777
37003W        W 8674  36.549   4.869   4.614
37004W        W 8675  40.387   9.777  13.401
37005W        W 8676  43.368  39.439   2.788
37006W        W 8677  18.607  14.637  13.803
37007W        W 8678  33.281  26.082  11.074
37008W        W 8679  24.002  20.459   1.417
37009W        W 8680  30.015  16.462   2.787
37010W        W 8681  44.327  23.708   2.519
37011W        W 8682  40.929  16.103  13.747
37012W        W 8683  37.970  16.096   0.512
37013W        W 8684  23.062   8.411  13.957
37014W        W 8685  18.096  19.181  10.604
37015W        W 8686   5.339  24.662  12.506
37016W        W 8687  25.837   8.271  11.685
37017W        W 8688  26.750  27.611  11.567
37018W        W 8689   9.241   8.034  11.589
37019W        W 8690  37.551  23.073   1.392
37020W        W 8691  27.444  43.194  11.700
37021W        W 8692   5.183   7.293  10.480
37022W        W 8693  22.842  25.022  12.599
37023W        W 8694   5.486  31.623   1.245
37024W        W 8695  11.725  38.132  11.422
37025W        W 8696   2.304  20.118   1.668
37026W        W 8697   6.168  17.528   4.149
37027W        W 8698  22.510   2.928   0.769
37028W        W 8699  27.449  17.680   2.297
37029W        W 8700  27.635   6.848  11.505
37030W        W 8701  21.045   0.235   3.675
37031W        W 8702   3.863   6.125   1.405
37032W        W 8703  22.538   1.346   1.080
37033W        W 8704  35.116  34.672  13.421
37034W        W 8705  38.653  16.168  13.115
37035W        W 8706  37.010  38.879   3.551
37036W        W 8707  19.789   3.279   2.814
37037W        W 8708  29.445  33.263  13.051
37038W        W 8709  31.704   0.857  10.994
37039W        W 8710   5.112   5.153   2.780
37040W        W 8711  41.339  16.881   1.778
37041W        W 8712  24.798   0.401  11.558
37042W        W 8713  22.993  32.889   1.672
37043W        W 8714  16.518  11.344  12.517
37044W        W 8715  18.088  16.266   3.534
37045W        W 8716  33.422  38.782  14.807
37046W        W 8717  43.032  40.573  14.719
37047W        W 8718  26.099   8.429  12.674
37048W        W 8719  37.011  18.147  10.655
37049W        W 8720  15.556  21.640   4.061
37050W        W 8721   5.274  31.041   2.863
37051W        W 8722  13.033  41.753   1.654
37052W        W 8723  35.300  33.066   2.538
37053W        W 8724  21.147   2.848  10.784
37054W        W 8725  18.132  37.941   0.506
37055W        W 8726   9.748  13.092  12.718
37056W        W 8727  32.535  14.206  13.661
37057W        W 8728   9.741  31.048   0.371
37058W        W 8729  17.273  36.926   4.426
37059W        W 8730  39.333  34.763  10.713
37060W        W 8731  41.543   6.112   3.749
37061W        W 8732  43.815   3.701  11.539
37062W        W 8733  19.192  16.099  12.583
37063W        W 8734  10.712  37.539  10.151
37064W        W 8735  14.780  30.701   3.343
37065W        W 8736  29.973  28.158   3.813
37066W        W 8737  17.178   9.913  14.363
37067W        W 8738  13.749  40.707  11.641
37068W        W 8739   5.189  30.187   4.723
37069W        W 8740  12.042   8.852  14.090
37070W        W 8741  35.490  24.128   1.425
37071W        W 8742  30.991  23.502   3.881
37072W        W 8743  28.386  27.186   2.998
37073W        W 8744   6.350   2.325  13.180
37074W        W 8745  25.590  17.316  11.503
37075W        W 8746  21.270  17.738   4.719
37076W        W 8747  37.492   7.473  12.519
37077W        W 8748   9.325  41.729   4.573
37078W        W 8749  33.340  43.978   2.198
37079W        W 8750  14.547  15.152   2.746
37080W        W 8751  30.884   1.815   1.341
37081W        W 8752   6.227  11.116  14.985
37082W        W 8753  39.804  11.219  12.089
37083W        W 8754   6.237  22.167  12.809
37084W        W 8755  15.207   4.139   0.442
37085W        W 8756  10.014   5.987   0.825
37086W        W 8757  18.102  18.161   0.345
37087W        W 8758  37.015  12.130  14.852
37088W        W 8759   6.943  11.350   3.702
37089W        W 8760  23.213   4.305   4.496
37090W        W 8761  20.298  22.784  12.481
37091W        W 8762  20.588  20.252  12.460
37092W        W 8763  37.869  26.835  11.169
37093W        W 8764  27.570  42.375  12.909
37094W        W 8765  40.780   0.380  11.083
37095W        W 8766   1.896  38.122   1.624
37096W        W 8767   2.737  43.611  13.506
37097W        W 8768  42.944  36.606   4.517
37098W        W 8769  34.871  33.401  11.588
37099W        W 8770  39.283  18.731   5.224
37100W        W 8771   3.157  14.965  11.188
37101W        W 8772  44.012  10.294  13.647
37102W        W 8773  43.702  40.669  13.151
37103W        W 8774  33.495  39.498  12.150
37104W        W 8775   8.775  31.674  11.127
37105W        W 8776  41.389   9.236   1.660
37106W        W 8777  22.773  29.910   2.849
37107W        W 8778  14.624  35.366  14.505
37108W        W 8779  12.776  27.871  13.768
37109W        W 8780  39.859  23.708  13.887
37110W        W 8781   8.284  32.967  11.978
37111W        W 8782  18.036  31.687  12.154
37112W        W 8783  34.514  19.698   4.879
37113W        W 8784   8.669  41.249  11.618
37114W        W 8785  36.563   3.637   1.944
37115W        W 8786  33.647  13.486  11.344
37116W        W 8787  34.748  34.135  10.666
37117W        W 8788  18.038  11.956   0.394
37118W        W 8789  35.536   1.341   3.306
37119W        W 8790   7.152   4.786  14.428
37120W        W 8791  26.304  18.203  14.122
37121W        W 8792   3.780   7.411  12.501
37122W        W 8793  31.948  23.085  11.538
37123W        W 8794  41.055   2.506   0.997
37124W        W 8795  42.988  25.014   3.665
37125W        W 8796  32.891  44.494   2.575
37126W        W 8797  13.870  24.522  11.162
37127W        W 8798  41.261  29.437   4.034
37128W        W 8799   4.306  38.340   0.451
37129W        W 8800  37.987  37.155   4.215
37130W        W 8801  11.752  13.610  14.934
37131W        W 8802   8.996  43.313   5.157
37132W        W 8803  35.086  20.676  11.609
37133W        W 8804  27.634  11.063   2.861
37134W        W 8805  38.223   3.921   2.284
37135W        W 8806  36.174   0.546   2.532
37136W        W 8807  44.414  31.426   2.657
37137W        W 8808  24.509  15.653   0.447
37138W        W 8809  29.963  28.719  14.545
37139W        W 8810   9.771  16.874   0.887
37140W        W 8811  23.115  35.694   1.339
37141W        W 8812  22.386  18.567   4.219
37142W        W 8813  32.444  28.956   1.096
37143W        W 8814   5.032   7.994   3.577
37144W        W 8815  44.254  25.399   3.554
37145W        W 8816  44.422  10.698  13.800
37146W        W 8817  11.600   1.855   2.334
37147W        W 8818  34.710  24.947  12.998
37148W        W 8819  27.587   0.207   2.727
37149W        W 8820  20.256  12.413  14.402
37150W        W 8821  16.119   6.531  14.987
37151W        W 8822   2.204  26.175   3.093
37152W        W 8823  10.895   2.842  13.895
37153W        W 8824  17.206  40.640   0.783
37154W        W 8825  25.291  42.285   4.926
37155W        W 8826  21.205  13.740   2.395
37156W        W 8827  38.968   1.813   1.286
37157W        W 8828  30.987  11.033  10.387
37158W        W 8829  12.079   9.379   2.007
37159W        W 8830  19.967  25.308  10.285
37160W        W 8831   0.128   9.156   1.330
37161W        W 8832  20.518  16.349  11.519
37162W        W 8833  41.785  41.053  11.066
37163W        W 8834   5.375  20.460   4.492
37164W        W 8835   5.446  31.133   4.743
37165W        W 8836   3.772  13.276  10.650
37166W        W 8837  21.039   3.282   4.183
37167W        W 8838   1.415  12.854   4.573
37168W        W 8839   7.433  41.904  11.614
37169W        W 8840  34.156  21.279   1.830
37170W        W 8841  30.197  21.594  13.622
37171W        W 8842  13.670   9.772   1.513
37172W        W 8843  24.900  19.092  13.972
37173W        W 8844   8.867  34.537  10.484
37174W        W 8845  28.064  12.651  14.381
37175W        W 8846  31.386  29.099  13.848
37176W        W 8847  37.464  21.628   0.978
37177W        W 8848  38.506   6.024  12.948
37178W        W 8849  20.793  15.829   1.948
37179W        W 8850  32.505  39.508  11.032
37180W        W 8851   9.924  40.799   2.218
37181W        W 8852  26.319  10.759   2.788
37182W        W 8853   3.360  28.341   2.746
37183W        W 8854  37.519   1.798  11.175
37184W        W 8855  17.304  38.098   3.693
37185W        W 8856   1.818  28.704  14.836
37186W        W 8857  11.816  23.652  11.551
37187W        W 8858  16.875  34.445   1.900
37188W        W 8859  20.288  11.376  11.646
37189W        W 8860   1.262  10.362   2.307
37190W        W 8861   1.300  20.284   0.895
37191W        W 8862  29.549  41.259  13.478
37192W        W 8863  18.151  32.924  10.692
37193W        W 8864   3.285  40.778  12.540
37194W        W 8865  33.944   3.648  14.022
37195W        W 8866  24.479  21.064  13.338
37196W        W 8867   1.048  11.260   0.056
37197W        W 8868   4.522  33.933   3.712
37198W        W 8869   1.338  44.468  10.948
37199W        W 8870  26.809  29.156  12.032
37200W        W 8871  18.831  44.435  10.944
37201W        W 8872  27.726   2.238   1.888
37202W        W 8873  11.359   6.152   0.952
37203W        W 8874  31.875  30.347   4.263
37204W        W 8875   7.978   3.728   2.681
37205W        W 8876  15.971   1.256   0.622
37206W        W 8877  43.907   2.846  11.173
37207W        W 8878   7.851  38.919   4.123
37208W        W 8879   5.010   2.515  13.912
37209W        W 8880   6.371   7.647   1.474
37210W        W 8881  31.843  38.619   4.541
37211W        W 8882  11.447  29.907  14.356
37212W        W 8883  28.586  17.039   4.604
37213W        W 8884  22.029  14.124   4.928
37214W        W 8885  32.450  28.193  14.312
37215W        W 8886  21.804  21.140   4.265
37216W        W 8887  30.427   6.806   3.800
37217W        W 8888  44.342  40.936   4.163
37218W        W 8889   0.300   3.897   1.666
37219W        W 8890   4.265  34.132   0.114
37220W        W 8891  34.894  37.926  14.512
37221W        W 8892   5.284   5.934   0.992
37222W        W 8893  32.425  26.398  13.609
37223W        W 8894  23.524  17.546   2.648
37224W        W 8895  38.884  24.450  10.483
37225W        W 8896  31.587  26.675  10.017
37226W        W 8897  19.726  39.894   4.160
37227W        W 8898  29.547  37.918   2.210
37228W        W 8899  24.655  31.407  14.090
37229W        W 8900  19.706   0.203   3.822
37230W        W 8901  10.110  33.316   4.096
37231W        W 8902  27.439  16.154   1.104
37232W        W 8903  16.863  33.407  12.708
37233W        W 8904  14.161  38.481  12.584
37234W        W 8905   7.442   2.757  13.346
37235W        W 8906   6.279  38.344  13.015
37236W        W 8907  21.803  39.888   3.857
37237W        W 8908  11.836  43.796  14.958
37238W        W 8909  13.305   9.262   4.808
37239W        W 8910  31.887  32.518   4.743
37240W        W 8911  37.948  42.641  11.240
37241W        W 8912  11.731  27.238   3.455
37242W        W 8913  33.603  18.164   2.386
37243W        W 8914   3.412   1.239   4.229
37244W        W 8915  27.908  16.806  12.653
37245W        W 8916  23.059  17.482   0.433
37246W        W 8917  43.439  14.973  12.630
37247W        W 8918  27.755  38.523  14.246
37248W        W 8919  38.307  29.919  14.264
37249W        W 8920  27.130   9.720  14.702
37250W        W 8921   4.925  27.660  10.606
37251W        W 8922  44.644  44.963   3.791
37252W        W 8923  13.112   0.301   1.150
37253W        W 8924  16.007  29.522   2.812
37254W        W 8925  13.796  35.501  10.868
37255W        W 8926  40.767  31.680  13.785
37256W        W 8927  30.095  15.670  14.337
37257W        W 8928  19.204  12.646   3.114
37258W        W 8929  10.107   5.252  12.420
37259W        W 8930  33.864  38.013  14.436
37260W        W 8931  44.025  28.014   4.531
37261W        W 8932  32.439  22.994   4.172
37262W        W 8933  17.160  25.499   0.021
37263W        W 8934  37.161  33.449   3.671
37264W        W 8935  20.017  30.147  11.509
37265W        W 8936   4.889  13.585   4.642
37266W        W 8937  44.889  43.001  12.542
37267W        W 8938  18.885  21.585  12.447
37268W        W 8939  41.358  28.470  11.768
37269W        W 8940  24.229   5.209   3.727
37270W        W 8941   6.615  27.225  13.539
37271W        W 8942   4.703  17.722  12.922
37272W        W 8943   6.548   2.444  13.623
37273W        W 8944  13.442  19.507   5.011
37274W        W 8945  37.078  11.289   2.092
37275W        W 8946  41.511  31.193  13.826
37276W        W 8947  21.742   7.940  14.864
37277W        W 8948  15.804  30.472   1.126
37278W        W 8949  16.900  31.891   0.725
37279W        W 8950   8.805  18.540   3.660
37280W        W 8951  12.594  21.181   3.269
37281W        W 8952   4.819   6.935  12.565
37282W        W 8953   7.078  19.285  11.657
37283W        W 8954   8.837  29.644   4.111
37284W        W 8955   3.697  28.172   0.401
37285W        W 8956  28.986   6.671   2.409
37286W        W 8957  33.169  20.706  11.254
37287W        W 8958  41.446  37.437   1.016
37288W        W 8959   0.259   4.342   2.395
37289W        W 8960  12.673  41.610   2.935
37290W        W 8961   6.321  34.302   1.930
37291W        W 8962  35.193  21.242  12.998
37292W        W 8963  18.526   6.185   1.759
37293W        W 8964  33.207   2.448   1.760
37294W        W 8965  22.063  24.090  12.768
37295W        W 8966  17.612  11.424  13.630
37296W        W 8967  11.673  23.262  13.293
37297W        W 8968  12.892  14.699   3.166
37298W        W 8969   4.828  13.847   1.815
37299W        W 8970  29.502   5.730   2.225
37300W        W 8971   6.871  40.463  11.136
37301W        W 8972  35.301   7.836   1.891
37302W        W 8973  38.839  14.840   3.740
37303W        W 8974   9.227  22.480  12.395
37304W        W 8975  17.808  22.179  10.669
37305W        W 8976  33.160   6.401  14.903
37306W        W 8977  42.308  16.048  12.642
37307W        W 8978   2.217   1.670   4.996
37308W        W 8979  17.803  14.465  13.059
37309W        W 8980  31.698   4.379   4.011
37310W        W 8981  41.307   6.315   2.269
37311W        W 8982  16.998  33.399   0.987
37312W        W 8983   3.425   0.327   0.867
37313W        W 8984  28.695   3.665   0.733
37314W        W 8985   7.380  18.000   1.505
37315W        W 8986   0.536  21.035  11.169
37316W        W 8987  10.147   9.835  12.105
37317W        W 8988  31.299  41.360   1.447
37318W        W 8989  31.917  26.360  10.925
37319W        W 8990  10.351   9.250  11.455
37320W        W 8991   2.349  35.441  11.274
37321W        W 8992   4.955  31.126  11.705
37322W        W 8993  12.956   9.014   3.147
37323W        W 8994   8.754  35.235  14.382
37324W        W 8995  29.711  28.600   4.087
37325W        W 8996  34.130  27.935  12.619
37326W        W 8997  10.911  27.628  12.658
37327W        W 8998  19.318  43.261  14.326
37328W        W 8999   4.306  27.491   0.258
37329W        W 9000  22.292  43.478  13.235
37330W        W 9001   2.690  16.713  10.676
37331W        W 9002  16.319  19.299  11.113
37332W        W 9003   5.652  28.616  14.318
37333W        W 9004  41.446  37.628  12.466
37334W        W 9005  41.358  41.251   5.569
37335W        W 9006  13.537  16.041  11.614
37336W        W 9007  21.298  14.323   4.084
37337W        W 9008  30.625  14.674   4.448
37338W        W 9009  42.256   9.769  11.582
37339W        W 9010  21.143  19.896   3.214
37340W        W 9011  40.863   9.913   2.393
37341W        W 9012  31.459  15.284  14.317
37342W        W 9013   4.434  31.419  12.025
37343W        W 9014   7.324  27.139   4.397
37344W        W 9015  42.884  34.958  14.368
37345W        W 9016  31.841  11.606  11.541
37346W        W 9017  32.824  19.769  13.039
37347W        W 9018  40.828   0.731   1.361
37348W        W 9019  38.568  33.503   1.300
37349W        W 9020  35.056  30.794  11.090
37350W        W 9021  31.057  38.573  10.444
37351W        W 9022  21.690  35.618   4.130
37352W        W 9023   5.742  30.980   3.180
37353W        W 9024  12.839   7.741  11.389
37354W        W 9025  23.133  15.240  12.822
37355W        W 9026  10.642  11.416   1.749
37356W        W 9027   1.473  39.279   4.158
37357W        W 9028  42.019   1.798   2.789
37358W        W 9029   3.000  35.948  13.868
37359W        W 9030  26.994  40.862  14.095
37360W        W 9031  16.975  18.647   3.831
37361W        W 9032  13.729  21.194   0.911
37362W        W 9033   0.783  35.370  14.847
37363W        W 9034  38.340  35.832   0.858
37364W        W 9035   2.350   4.827   3.371
37365W        W 9036  27.239  34.376  14.930
37366W        W 9037   2.398   7.841   3.145
37367W        W 9038  40.930  43.371   4.789
37368W        W 9039  22.166   9.183  11.896
37369W        W 9040  14.282  13.354   3.222
37370W        W 9041  44.771  41.620   4.485
37371W        W 9042   1.825  34.119   2.840
37372W        W 9043  37.744   5.622  14.942
37373W        W 9044  31.266  34.942   4.288
37374W        W 9045   5.082  11.555  12.366
37375W        W 9046  30.995  19.610   1.503
37376W        W 9047  43.756  15.298  14.024
37377W        W 9048   4.921  35.952  11.296
37378W        W 9049  44.945  23.900   4.178
37379W        W 9050  14.845  28.543   4.192
37380W        W 9051  38.282   8.536  13.771
37381W        W 9052  40.356  44.527   1.012
37382W        W 9053  29.140  42.502   4.713
37383W        W 9054   1.882  43.014   4.151
37384W        W 9055  27.556  30.447  13.382
37385W        W 9056  34.954  19.465  12.028
37386W        W 9057  24.037  34.627  14.907
37387W        W 9058  19.527   5.628  11.195
37388W        W 9059  29.117  32.395   3.600
37389W        W 9060  12.094  31.022   0.500
37390W        W 9061   0.331  13.927  10.676
37391W        W 9062   7.154  21.245   0.209
37392W        W 9063  42.021   7.814  12.141
37393W        W 9064  27.154   7.943  11.052
37394W        W 9065  23.169   1.535  13.779
37395W        W 9066  22.491  29.526  12.021
37396W        W 9067   6.671  41.790  13.989
37397W        W 9068   1.044  12.718  11.658
37398W        W 9069   4.732  11.780   4.144
37399W        W 9070  26.350  34.302  14.475
37400W        W 9071  23.567  40.266   0.342
37401W        W 9072   7.145  28.961   3.701
37402W        W 9073  32.171  25.899   3.161
37403W        W 9074  28.476  11.196   3.101
37404W        W 9075  37.442  14.539  11.960
37405W        W 9076  23.251  15.844   2.315
37406W        W 9077   3.260  34.415   4.780
37407W        W 9078  19.130  28.875  11.208
37408W        W 9079  14.065  42.318   0.304
37409W        W 9080   2.494  16.199  13.563
37410W        W 9081  15.320  21.668  12.472
37411W        W 9082  43.279  29.659  11.951
37412W        W 9083  42.528  20.074  14.943
37413W        W 9084  10.211   8.688   3.761
37414W        W 9085   7.225  14.468   1.807
37415W        W 9086  38.431  34.057   2.874
37416W        W 9087  13.751   5.160  11.496
37417W        W 9088  18.073  34.568   4.182
37418W        W 9089  18.539  16.648  10.778
37419W        W 9090  13.665  17.840   4.294
37420W        W 9091  22.658  20.562  13.464
37421W        W 9092  25.657   6.000  14.600
37422W        W 9093  30.108  44.671   2.734
37423W        W 9094  43.483  25.753  13.454
37424W        W 9095  28.100  32.320   4.029
37425W        W 9096  20.685  38.426   4.984
37426W        W 9097   9.637   4.956   1.269
37427W        W 9098   2.673  38.381  11.195
37428W        W 9099  13.871   1.368   2.301
37429W        W 9100   9.205  15.198  12.606
37430W        W 9101  32.727  42.258  12.985
37431W        W 9102   5.389  13.495  12.690
37432W        W 9103   9.827  39.145  12.379
37433W        W 9104  37.181  41.549   4.113
37434W        W 9105  31.358  17.501  14.829
37435W        W 9106  38.570  12.925   0.947
37436W        W 9107  35.196  31.788   0.664
37437W        W 9108  22.644  19.492  10.575
37438W        W 9109  16.168   5.967   2.841
37439W        W 9110  42.811  18.316  14.810
37440W        W 9111  18.370  39.672  11.016
37441W        W 9112  18.903  28.651  13.015
37442W        W 9113  29.533  43.890   4.359
37443W        W 9114  13.088   7.364  13.943
37444W        W 9115  34.606   3.727   2.196
37445W        W 9116  30.788  10.841   4.562
37446W        W 9117  17.378  38.149  12.947
37447W        W 9118  42.736  32.943   2.601
37448W        W 9119  29.537  37.101  14.776
37449W        W 9120   4.368  23.916   3.628
37450W        W 9121   3.989   0.484  12.976
37451W        W 9122  19.387   5.974   0.389
37452W        W 9123   6.216  19.585   0.562
37453W        W 9124  32.957  42.018  11.792
37454W        W 9125   8.837   7.171  12.107
37455W        W 9126  28.029  10.780  13.816
37456W        W 9127  37.856  26.291  12.853
37457W        W 9128   0.366  44.274  12.004
37458W        W 9129  32.410  21.628  14.537
37459W        W 9130  20.388  33.524  12.933
37460W        W 9131   6.104   0.870   2.792
37461W        W 9132  29.127  39.739  13.786
37462W        W 9133   8.748  20.509  10.547
37463W        W 9134  24.543  19.427   4.488
37464W        W 9135  34.806  25.594  12.490
37465W        W 9136  43.899  21.164  14.367
37466W        W 9137  14.741  19.276  12.426
37467W        W 9138   6.896  33.893  10.863
37468W        W 9139  17.544  39.997   2.702
37469W        W 9140  20.663  21.614   1.888
37470W        W 9141   2.681  31.230  10.706
37471W        W 9142  40.343  42.498   2.866
37472W        W 9143   7.446  23.219  14.540
37473W        W 9144  41.780   3.335  14.022
37474W        W 9145  30.504  27.515   2.814
37475W        W 9146  25.523   0.957  13.803
37476W        W 9147  41.509  40.764   4.742
37477W        W 9148  10.597  33.508   4.108
37478W        W 9149   1.411  31.613   1.978
37479W        W 9150  35.836  25.547   3.334
37480W        W 9151  38.853  35.547   1.500
37481W        W 9152  37.458  35.753  11.510
37482W        W 9153  15.112  21.288  10.484
37483W        W 9154  34.666  35.418   1.845
37484W        W 9155  32.962  12.390  11.071
37485W        W 9156  26.072   3.282   0.716
37486W        W 9157  31.919   2.948   2.671
37487W        W 9158   3.922  17.752  14.957
37488W        W 9159  32.653  42.686  10.969
37489W        W 9160  13.747  17.359   2.267
37490W        W 9161  22.502   4.632  10.618
37491W        W 9162  21.711   2.028   2.535
37492W        W 9163   5.924  27.639  10.620
37493W        W 9164  25.708  22.228   4.041
37494W        W 9165  22.038  22.202  11.491
37495W        W 9166  37.342  24.930  11.089
37496W        W 9167  28.501   1.410   2.014
37497W        W 9168  31.811   1.861  12.827
37498W        W 9169  11.889  44.059   3.827
37499W        W 9170  44.395   3.477  12.060
37500W        W 9171  43.605  44.187   9.932
37501W        W 9172  32.674   7.797   4.082
37502W        W 9173  11.589  13.137   2.810
37503W        W 9174  18.182  17.772  12.041
37504W        W 9175  13.170   4.780   3.647
37505W        W 9176  10.922   9.322  12.537
37506W        W 9177  29.566  25.065  12.513
37507W        W 9178  40.770   1.794   3.175
37508W        W 9179  19.833  44.427   2.740
37509W        W 9180  18.775  29.225   2.722
37510W        W 9181  30.114  18.197  12.169
37511W        W 9182   9.701  28.040   3.246
37512W        W 9183  13.578  20.722  10.599
37513W        W 9184  39.228  31.979  14.626
37514W        W 9185  26.432  35.628  11.718
37515W        W 9186  15.535  19.555   1.399
37516W        W 9187   6.070  42.817   0.313
37517W        W 9188   6.699  14.193   4.997
37518W        W 9189  21.260  42.449   0.028
37519W        W 9190  14.151  39.583  12.105
37520W        W 9191  29.881   2.468  11.443
37521W        W 9192  31.076  17.685   1.269
37522W        W 9193  10.171  31.407  13.919
37523W        W 9194   3.435   3.647   1.872
37524W        W 9195   0.505  24.114  14.103
37525W        W 9196   0.464  13.608   0.424
37526W        W 9197  44.962  32.085   4.699
37527W        W 9198   9.654  21.739  14.886
37528W        W 9199   8.437  12.687   2.790
37529W        W 9200  26.651  40.044   1.283
37530W        W 9201   7.474   8.169   1.834
37531W        W 9202  23.344  20.134   1.769
37532W        W 9203   8.552  29.187  14.892
37533W        W 9204  34.044  24.405   2.815
37534W        W 9205  11.649   8.440   1.505
37535W        W 9206   1.572   4.405  11.574
37536W        W 9207  32.571  10.392   3.210
37537W        W 9208  18.340  32.548   3.071
37538W        W 9209  22.810  43.666   1.251
37539W        W 9210  18.153  27.878  13.420
37540W        W 9211   5.490   2.775  11.895
37541W        W 9212  20.034  41.461   1.431
37542W        W 9213  35.303  16.456   3.180
37543W        W 9214   6.362  19.624  11.189
37544W        W 9215   3.292   0.767   2.601
37545W        W 9216  34.152  22.154   3.045
37546W        W 9217   3.663  37.781  11.014
37547W        W 9218  15.811   6.852  10.999
37548W        W 9219  27.576  29.912  13.343
37549W        W 9220  24.078  18.999  11.061
37550W        W 9221  31.344  17.602  12.014
37551W        W 9222   9.367  27.308   2.421
37552W        W 9223  14.289  11.318   0.779
37553W        W 9224  36.420  33.789  10.106
37554W        W 9225  22.031  38.747  13.444
37555W        W 9226  11.316  24.992   0.458
37556W        W 9227   6.918  29.980   1.184
37557W        W 9228   9.380  40.026   4.110
37558W        W 9229  30.052  43.700  11.636
37559W        W 9230  18.103   3.842  11.642
37560W        W 9231  32.055  39.141  13.974
37561W        W 9232  26.416  16.344   1.374
37562W        W 9233  40.835  10.295   4.381
37563W        W 9234  31.000  37.292  12.658
37564W        W 9235  27.185  24.737   3.456
37565W        W 9236  39.817  42.423  14.185
37566W        W 9237  14.789  29.064   4.351
37567W        W 9238  43.015   8.199   0.363
37568W        W 9239  33.494  20.492   1.660
37569W        W 9240  10.174   5.105  10.737
37570W        W 9241  35.904  30.615  14.113
37571W        W 9242  12.573  28.450  14.789
37572W        W 9243  22.019  38.666  12.381
37573W        W 9244  12.541  24.926  13.832
37574W        W 9245  10.935  20.947   3.615
37575W        W 9246   7.938  23.176  10.787
37576W        W 9247  22.962   6.697   3.230
37577W        W 9248  44.147   3.848  10.932
37578W        W 9249  14.347  23.563   2.907
37579W        W 9250  15.299  11.600   0.888
37580W        W 9251  35.092   9.094  11.605
37581W        W 9252  26.931  16.820  12.292
37582W        W 9253  16.977  26.027  13.456
37583W        W 9254  20.482   2.647   0.589
37584W        W 9255   4.289  17.359  12.919
37585W        W 9256   5.887   7.720   0.791
37586W        W 9257  36.492  19.293  13.856
37587W        W 9258  29.948  43.032  14.240
37588W        W 9259  15.825  40.691   5.241
37589W        W 9260   5.875  14.639   2.137
37590W        W 9261  24.999  29.045   1.476
37591W        W 9262  27.409   6.120  11.954
37592W        W 9263  14.072  34.687   2.416
37593W        W 9264  42.424  15.634   2.822
37594W        W 9265  35.691  36.418   1.677
37595W        W 9266  32.374   8.194   0.812
37596W        W 9267  20.684  10.341   4.893
37597W        W 9268  34.214  16.322  12.346
37598W        W 9269  15.596   4.642   4.659
37599W        W 9270  17.994  31.193   3.028
37600W        W 9271  16.490  36.837   0.519
37601W        W 9272   0.657  23.140   0.389
37602W        W 9273  25.939  41.770  10.780
37603W        W 9274  44.892  13.333  12.778
37604W        W 9275  26.269  12.190  14.478
37605W        W 9276  19.655  10.309   0.704
37606W        W 9277   9.588   7.861   2.803
37607W        W 9278  34.821   5.593   4.029
37608W        W 9279  10.108  19.180  11.448
37609W        W 9280  29.317  11.760   2.812
37610W        W 9281  34.771  44.451  11.600
37611W        W 9282  24.613   7.419  14.844
37612W        W 9283  43.593  43.382  13.800
37613W        W 9284  19.226  38.850   1.245
37614W        W 9285   3.845  12.080   3.293
37615W        W 9286  44.521   1.724  14.980
37616W        W 9287  12.970   6.212  12.164
37617W        W 9288  22.048  39.567   0.863
37618W        W 9289  30.058   1.045   3.633
37619W        W 9290  42.493  26.034   3.286
37620W        W 9291  43.880  20.612   0.310
37621W        W 9292   1.596   6.982  13.873
37622W        W 9293  26.408   9.593   0.886
37623W        W 9294  20.556  39.104  12.538
37624W        W 9295  25.118  10.965   0.966
37625W        W 9296  15.168   9.464   3.510
37626W        W 9297   2.252  20.493   4.033
37627W        W 9298  44.923  34.788  13.015
37628W        W 9299  17.289  35.836   0.840
37629W        W 9300  18.202  11.166   2.345
37630W        W 9301  26.785  26.993  11.883
37631W        W 9302  43.772  16.169  11.649
37632W        W 9303  18.194  16.893  12.909
37633W        W 9304  21.436   3.859  12.046
37634W        W 9305  35.376  35.959  11.025
37635W        W 9306  12.276  41.736   0.362
37636W        W 9307  12.221   2.002   0.380
37637W        W 9308  22.731  38.411   1.872
37638W        W 9309  28.223   1.901  12.145
37639W        W 9310   1.191  41.886  14.430
37640W        W 9311  34.286  30.879  11.519
37641W        W 9312   4.788  38.913  14.197
37642W        W 9313  21.751  24.500   4.985
37643W        W 9314  12.233  15.751   0.191
37644W        W 9315  21.984  32.828   2.481
37645W        W 9316   2.981  31.865  14.985
37646W        W 9317  41.272  26.681  11.095
37647W        W 9318  42.335  30.639   0.355
37648W        W 9319   0.754   3.594  13.599
37649W        W 9320  44.313  37.426  14.051
37650W        W 9321  22.025  12.455  11.514
37651W        W 9322  14.705  18.846   1.243
37652W        W 9323  20.217  32.015  10.513
37653W        W 9324  43.276  27.356  13.031
37654W        W 9325   5.779  31.565   4.701
37655W        W 9326  20.959  33.929   4.535
37656W        W 9327   6.849  28.008   3.338
37657W        W 9328  20.528  41.994  12.435
37658W        W 9329   1.846   8.309   1.142
37659W        W 9330  33.527  18.003  12.876
37660W        W 9331  23.504  40.654   5.269
37661W        W 9332  23.706   2.768   1.690
37662W        W 9333  29.430   5.670  11.083
37663W        W 9334  36.618  33.891   3.233
37664W        W 9335  24.672   9.744  12.812
37665W        W 9336   7.934  20.580  14.350
37666W        W 9337  27.191  36.056  13.146
37667W        W 9338  37.489   5.966   4.193
37668W        W 9339   7.836  23.814   2.553
37669W        W 9340  41.241  43.571  12.624
37670W        W 9341  42.838   8.379  12.807
37671W        W 9342  18.275  32.826   3.683
37672W        W 9343  18.172   0.906  13.902
37673W        W 9344  18.224   2.465   3.400
37674W        W 9345  33.367  37.967  12.287
37675W        W 9346  35.995  29.911   4.720
37676W        W 9347  42.850  13.743  10.170
37677W        W 9348  21.667  44.364  11.828
37678W        W 9349  28.771  12.606   3.210
37679W        W 9350   9.215  27.651  14.545
37680W        W 9351  43.425  25.048  10.484
37681W        W 9352  14.686  32.155  14.845
37682W        W 9353  35.000   1.889   3.374
37683W        W 9354   1.326  29.274  11.695
37684W        W 9355   6.576   7.856   4.466
37685W        W 9356  36.624  19.532  13.391
37686W        W 9357  14.619   2.457   3.437
37687W        W 9358  22.245   3.432   3.787
37688W        W 9359  18.077  30.728   0.380
37689W        W 9360  44.273  22.259  10.418
37690W        W 9361   8.953  36.000   5.033
37691W        W 9362  28.775  36.464  11.382
37692W        W 9363  41.324  13.694   1.825
37693W        W 9364  38.383  44.509   2.128
37694W        W 9365  40.312  11.125   0.420
37695W        W 9366  13.555  28.741  11.576
37696W        W 9367  14.790  35.974   2.852
37697W        W 9368  27.558  40.495  13.438
37698W        W 9369  30.416  41.462   4.718
37699W        W 9370   3.012  21.620  13.585
37700W        W 9371  27.712  43.790  12.338
37701W        W 9372  38.004  17.083  12.337
37702W        W 9373  36.255  11.280  11.074
37703W        W 9374   8.404   7.422  12.171
37704W        W 9375   5.147  30.765   4.568
37705W        W 9376  20.189  36.831  14.110
37706W        W 9377  21.079  44.218  10.697
37707W        W 9378  29.858   7.868  10.214
37708W        W 9379  35.865   8.706  13.042
37709W        W 9380  10.294  26.920  11.278
37710W        W 9381  16.286  39.027  14.671
37711W        W 9382   9.650  40.579   1.836
37712W        W 9383  25.306  32.192   3.286
37713W        W 9384  30.150  15.298  14.803
37714W        W 9385   7.720  41.346   4.658
37715W        W 9386  29.640   7.590  11.115
37716W        W 9387  26.241  30.707   2.347
37717W        W 9388  17.689  14.763   3.109
37718W        W 9389  11.293  13.846  14.896
37719W        W 9390  14.723  10.546  12.626
37720W        W 9391  28.129  29.234   1.959
37721W        W 9392  40.122  18.200  13.483
37722W        W 9393   7.644  41.692   1.274
37723W        W 9394  44.483  10.580   2.171
37724W        W 9395  22.566   7.440  13.035
37725W        W 9396   7.650   9.602  12.784
37726W        W 9397  24.505  24.577   0.724
37727W        W 9398  40.004  42.779   4.728
37728W        W 9399  13.789  15.469  12.945
37729W        W 9400   9.296  12.366   3.782
37730W        W 9401   6.847   8.759   1.977
37731W        W 9402  37.710  34.882  11.160
37732W        W 9403  34.933  27.204   4.524
37733W        W 9404   5.169  33.071  12.960
37734W        W 9405   0.025  43.785   4.551
37735W        W 9406  33.431  18.318  13.827
37736W        W 9407  29.912   3.535   3.757
37737W        W 9408  28.632  15.759  14.144
37738W        W 9409  40.733  35.404  13.487
37739W        W 9410  25.905  29.425  14.704
37740W        W 9411  38.551  37.547  10.113
37741W        W 9412  31.497  28.208  12.865
37742W        W 9413  26.767  25.905  14.670
37743W        W 9414  44.874   3.882   0.490
37744W        W 9415   3.318  38.039   2.781
37745W        W 9416  27.535  26.994   3.478
37746W        W 9417  38.915  23.169  13.172
37747W        W 9418  26.991   5.868  10.988
37748W        W 9419   5.633  15.851  13.524
37749W        W 9420  23.837  13.127   4.080
37750W        W 9421  26.561   1.974   2.305
37751W        W 9422  13.629  31.575  14.993
37752W        W 9423  23.758  24.058   4.128
37753W        W 9424  28.308   8.317  10.261
37754W        W 9425  41.843  17.086   3.267
37755W        W 9426  20.162  21.714  14.809
37756W        W 9427  29.814  20.259   2.205
37757W        W 9428  24.325  13.236   2.802
37758W        W 9429  10.159  39.084  11.560
37759W        W 9430   9.430  16.559   2.547
37760W        W 9431  24.529  29.408  14.288
37761W        W 9432  18.576  11.124  12.460
37762W        W 9433   8.656   5.662  12.744
37763W        W 9434  33.680  32.047  11.599
37764W        W 9435  44.288  42.669   1.706
37765W        W 9436  34.395  44.969  12.204
37766W        W 9437  43.872  25.428  13.565
37767W        W 9438  37.343  41.691   4.589
37768W        W 9439   1.705  16.549   1.927
37769W        W 9440  36.910  25.311  12.041
37770W        W 9441  37.136  22.434   1.025
37771W        W 9442  21.219   2.970   1.334
37772W        W 9443   2.054  25.545  12.639
37773W        W 9444   1.508  22.755  10.643
37774W        W 9445  24.568  22.065   1.391
37775W        W 9446  33.695  37.105  14.371
37776W        W 9447   8.141  22.522   3.306
37777W        W 9448  27.429   7.761  13.715
37778W        W 9449  40.118  24.700  13.723
37779W        W 9450   9.243  41.027  11.945
37780W        W 9451  28.714  25.687  14.799
37781W        W 9452  12.796  27.861   4.627
37782W        W 9453  34.182  31.210   1.513
37783W        W 9454  41.786  29.899  12.076
37784W        W 9455   1.745  15.315  12.863
37785W        W 9456  11.861  10.329   0.409
37786W        W 9457  12.617   3.291  11.111
37787W        W 9458  16.747  36.314  13.283
37788W        W 9459  20.203  40.377   0.383
37789W        W 9460  37.126  37.399   4.361
37790W        W 9461  30.117   5.877  10.694
37791W        W 9462  36.262   5.923   2.161
37792W        W 9463  26.190  16.589  13.803
37793W        W 9464  27.078  10.356   2.953
37794W        W 9465  30.415  40.949   0.658
37795W        W 9466   0.937   0.250   0.117
37796W        W 9467  35.998  36.476  14.827
37797W        W 9468  21.991  21.127  10.805
37798W        W 9469  25.055  11.321  14.275
37799W        W 9470  34.410  26.669   2.934
37800W        W 9471  21.318   5.260  10.502
37801W        W 9472  15.612  40.045  12.930
37802W        W 9473  10.152  31.107   3.704
37803W        W 9474  31.298   2.965   0.672
37804W        W 9475  17.557   6.629  14.782
37805W        W 9476  42.050   1.852  12.710
37806W        W 9477  39.541  32.863   1.743
37807W        W 9478  33.021  38.395   2.285
37808W        W 9479  38.602  11.944   3.241
37809W        W 9480   5.699  28.382   2.346
37810W        W 9481  35.645  23.604   0.341
37811W        W 9482  37.881   2.704  12.021
37812W        W 9483   9.090   2.656  14.164
37813W        W 9484  39.287  35.890   2.173
37814W        W 9485  28.460  38.668   0.838
37815W        W 9486  21.910   2.800  14.040
37816W        W 9487   5.922   2.193  12.939
37817W        W 9488  34.592  19.821  10.740
37818W        W 9489  15.901   5.385   5.012
37819W        W 9490   3.806  16.854  13.410
37820W        W 9491  14.071  38.604   0.365
37821W        W 9492  29.148  32.923   3.578
37822W        W 9493  13.306  40.200   3.173
37823W        W 9494   0.428  43.724   4.211
37824W        W 9495  25.564  16.806  10.507
37825W        W 9496  26.190  13.774   0.263
37826W        W 9497   2.692  20.198   4.132
37827W        W 9498   3.440  42.397  12.251
37828W        W 9499  44.770  39.833  14.973
37829W        W 9500  31.247  39.512   1.834
37830W        W 9501   1.775  13.757   0.598
37831W        W 9502   9.411   3.673   2.862
37832W        W 9503  20.005  12.099   1.310
37833W        W 9504  12.144  12.723   1.920
37834W        W 9505   0.012  35.591  14.861
37835W        W 9506  27.751  23.723   3.435
37836W        W 9507   8.404  42.980  14.632
37837W        W 9508  11.797  28.408   2.816
37838W        W 9509  25.956  39.496  13.442
37839W        W 9510  37.080  34.853   2.838
37840W        W 9511   1.865  41.475   1.738
37841W        W 9512  39.011   8.615   2.654
37842W        W 9513   1.932  30.507   1.204
37843W        W 9514  14.194  17.717   3.163
37844W        W 9515  17.038  40.944  10.609
37845W        W 9516  30.101  32.580  12.900
37846W        W 9517  25.919   7.170   4.178
37847W        W 9518  37.818  10.568  14.022
37848W        W 9519  37.494  31.337  13.808
37849W        W 9520   8.928  17.732   0.194
37850W        W 9521   8.372  42.081  11.423
37851W        W 9522  22.376   5.747   0.502
37852W        W 9523  20.700  37.219  11.657
37853W        W 9524   5.336   3.183  13.499
37854W        W 9525  35.669  19.069   3.534
37855W        W 9526  12.113   3.349  11.042
37856W        W 9527  31.331  23.901   3.890
37857W        W 9528  43.329  36.888   3.645
37858W        W 9529  14.060  43.903  14.635
37859W        W 9530  27.200   4.345  11.536
37860W        W 9531   0.902   2.754  12.559
37861W        W 9532  18.136  44.484   1.744
37862W        W 9533  31.331  28.301   1.265
37863W        W 9534  43.140  12.406  14.556
37864W        W 9535   8.924  22.686  11.068
37865W        W 9536  27.976  13.307   4.254
37866W        W 9537  41.756  14.459  14.342
37867W        W 9538   7.147  10.840  12.342
37868W        W 9539  30.466  13.062  12.024
37869W        W 9540  36.746  26.026  10.751
37870W        W 9541  36.829  41.823  14.808
37871W        W 9542  15.800  41.574  14.550
37872W        W 9543  26.975   7.815   3.836
37873W        W 9544  14.086  35.025  13.912
37874W        W 9545  39.682  16.291  12.955
37875W        W 9546  32.362  24.314   1.728
37876W        W 9547   4.573  31.167   4.031
37877W        W 9548  20.521  29.316  14.006
37878W        W 9549  25.236  17.004  11.296
37879W        W 9550  36.968   1.739   3.327
37880W        W 9551   5.954   1.488   1.008
37881W        W 9552   4.018   0.016  12.662
37882W        W 9553   6.678  33.184  11.264
37883W        W 9554  30.111  24.611  13.943
37884W        W 9555  36.251  11.670   2.683
37885W        W 9556  18.296   8.027  13.291
37886W        W 9557  16.592   8.422   2.108
37887W        W 9558   6.737   4.432   0.300
37888W        W 9559  30.414  20.749  13.849
37889W        W 9560   7.889  14.749  10.925
37890W        W 9561  19.537  24.980  11.699
37891W        W 9562  14.324  25.873  14.573
37892W        W 9563  25.912  17.687  12.299
37893W        W 9564  10.294   2.884   1.896
37894W        W 9565  19.847  19.254  12.988
37895W        W 9566  39.326  28.677   2.759
37896W        W 9567  39.979  15.584   2.823
37897W        W 9568   7.938  19.082  12.933
37898W        W 9569  35.093  23.500  11.975
37899W        W 9570   7.691   1.741  13.432
37900W        W 9571  32.011   4.061   1.004
37901W        W 9572  10.098  33.787  13.945
37902W        W 9573  43.930  23.796  14.325
37903W        W 9574   9.273   2.318  13.085
37904W        W 9575  44.990  26.028  14.359
37905W        W 9576  30.068  10.421  12.652
37906W        W 9577   0.516  11.877   0.845
37907W        W 9578  21.004  40.406   1.420
37908W        W 9579   1.879  43.405  10.690
37909W        W 9580  17.118  15.320  10.622
37910W        W 9581  18.816  11.257   2.760
37911W        W 9582  19.690  32.433  12.350
37912W        W 9583  28.837   8.887  13.793
37913W        W 9584  10.109  43.871   4.088
37914W        W 9585  13.802  18.149   4.759
37915W        W 9586  34.169  14.569   1.973
37916W        W 9587  14.350   7.342   2.686
37917W        W 9588  19.255   1.920   4.043
37918W        W 9589   3.922  28.615   0.618
37919W        W 9590  30.038  18.073   2.850
37920W        W 9591  22.933  18.208   2.376
37921W        W 9592  24.631  13.508   3.815
37922W        W 9593  39.750  30.911   3.532
37923W        W 9594   4.728  36.935  10.515
37924W        W 9595   7.045  37.548  10.664
37925W        W 9596  38.877  21.014   2.873
37926W        W 9597  10.140  36.988  14.966
37927W        W 9598  37.016  44.206  12.444
37928W        W 9599  25.869  15.605   3.118
37929W        W 9600  15.327   1.871  13.280
37930W        W 9601  24.560   2.391  11.095
37931W        W 9602  21.714  33.610  11.598
37932W        W 9603  23.148  20.182  12.254
37933W        W 9604  32.549   4.498   3.443
37934W        W 9605  43.882  29.108  12.556
37935W        W 9606  18.593  20.627   2.630
37936W        W 9607   1.508  34.595  11.777
37937W        W 9608  16.283  16.332   1.341
37938W        W 9609  17.331  19.681  11.495
37939W        W 9610  13.781  39.952  11.896
37940W        W 9611  28.135  16.223   1.753
37941W        W 9612  27.681  44.304  12.838
37942W        W 9613  40.828  21.722  12.999
37943W        W 9614  12.314  12.931   3.319
37944W        W 9615  29.205  34.987   2.688
37945W        W 9616  32.944   7.832  13.266
37946W        W 9617  26.721  20.592   1.450
37947W        W 9618  20.096  32.844  12.646
37948W        W 9619  24.063  41.242   3.624
37949W        W 9620   9.836   1.835  14.383
37950W        W 9621  15.510  14.134   3.743
37951W        W 9622   8.416  25.124   2.660
37952W        W 9623   4.126  21.783   3.879
37953W        W 9624  31.681   5.829  12.427
37954W        W 9625  32.242  18.316   1.274
37955W        W 9626  39.976  24.007  14.888
37956W        W 9627  29.634   0.036   0.079
37957W        W 9628  22.489  16.644  13.870
37958W        W 9629  38.311   2.423  12.114
37959W        W 9630  44.424  44.005  10.470
37960W        W 9631  38.418  21.359   3.028
37961W        W 9632  27.146  14.242  10.544
37962W        W 9633   8.381  21.178   2.350
37963W        W 9634  19.980   8.693   0.691
37964W        W 9635  12.328   2.250   3.438
37965W        W 9636  33.600  27.648  14.994
37966W        W 9637   7.512  23.713  14.361
37967W        W 9638  43.509  39.940  12.458
37968W        W 9639   2.519  38.235  13.907
37969W        W 9640  13.798  28.024  12.240
37970W        W 9641  34.907  34.168  13.374
37971W        W 9642  32.126  20.319   2.295
37972W        W 9643   5.221  30.008   3.018
37973W        W 9644  21.666  33.829  12.045
37974W        W 9645  14.771  38.573  14.268
37975W        W 9646   0.580  41.950   1.831
37976W        W 9647   5.766  13.988   3.970
37977W        W 9648  42.228   0.848   0.827
37978W        W 9649   3.969  29.869   1.375
37979W        W 9650  15.773  19.569  10.367
37980W        W 9651  13.555  32.361   4.653
37981W        W 9652  10.374  31.187  12.065
37982W        W 9653  42.938  39.130  14.845
37983W        W 9654   0.405  33.146   3.241
37984W        W 9655  17.977  11.403   4.186
37985W        W 9656   1.366  14.798   1.216
37986W        W 9657   2.734  37.517   2.244
37987W        W 9658  23.163  17.627  12.590
37988W        W 9659  32.253  36.613   1.243
37989W        W 9660  29.359  17.147   4.392
37990W        W 9661  15.967  29.694  13.374
37991W        W 9662  28.091  28.268   0.330
37992W        W 9663  33.599  24.035   1.710
37993W        W 9664  12.551  36.980   3.568
37994W        W 9665  20.195  25.153   0.826
37995W        W 9666  27.943  16.110  12.943
37996W        W 9667  26.020  27.072  12.590
37997W        W 9668  43.513  21.031  10.048
37998W        W 9669   7.740  42.196   1.332
37999W        W 9670  25.674  21.603  13.999
38000W        W 9671  35.623  10.137   4.522
38001W        W 9672  43.886  39.327  11.519
38002W        W 9673  22.481  19.648   2.175
38003W        W 9674   5.150  36.011  12.571
38004W        W 9675  10.857  21.417  14.477
38005W        W 9676  24.168  26.286   2.534
38006W        W 9677  13.256  11.289   0.770
38007W        W 9678  28.395   5.478  14.924
38008W        W 9679  11.686  38.835   0.436
38009W        W 9680  27.605  33.584   1.727
38010W        W 9681  11.239  30.384   4.160
38011W        W 9682  44.807  19.201   4.072
38012W        W 9683   2.459   9.233  13.513
38013W        W 9684  12.339  40.883   0.631
38014W        W 9685  11.745  25.794   1.828
38015W        W 9686  30.571   0.490  13.425
38016W        W 9687   2.977  30.717   1.438
38017W        W 9688  10.313   9.809  13.889
38018W        W 9689  44.953  22.875   2.621
38019W        W 9690  19.654  21.475   3.978
38020W        W 9691  27.045  27.873   1.337
38021W        W 9692   3.979  35.337   0.217
38022W        W 9693  40.215  36.758  11.551
38023W        W 9694  14.160   5.279  14.029
38024W        W 9695  36.863   7.488   2.293
38025W        W 9696  12.881  21.217   2.870
38026W        W 9697   7.408  12.199   4.700
38027W        W 9698   2.410  22.737   1.908
38028W        W 9699  33.904  40.460   2.815
38029W        W 9700   6.329   4.405  10.685
38030W        W 9701  41.882  42.466   1.122
38031W        W 9702  16.687  26.516  12.291
38032W        W 9703  24.821  27.141   3.156
38033W        W 9704  37.864   7.566  10.730
38034W        W 9705  32.737  32.932   4.575
38035W        W 9706   7.889   0.359  15.000
38036W        W 9707  34.389  34.180  14.963
38037W        W 9708  30.149  10.180   0.736
38038W        W 9709  40.328  17.775  14.075
38039W        W 9710  22.492  44.603   4.147
38040W        W 9711  42.703  31.365   0.805
38041W        W 9712  37.291  12.515  12.803
38042W        W 9713  21.696  40.600   0.829
38043W        W 9714  29.696  26.152  13.394
38044W        W 9715   5.679  39.407   4.265
38045W        W 9716   0.217  25.082   0.502
38046W        W 9717  20.455  21.303  14.935
38047W        W 9718   4.716   3.794   4.262
38048W        W 9719  27.054  28.156   3.967
38049W        W 9720  39.538  24.288   2.713
38050W        W 9721  30.936  21.468   1.710
38051W        W 9722  42.880  29.244  13.114
38052W        W 9723   7.133  18.194   3.327
38053W        W 9724  10.933  24.097  13.339
38054W        W 9725  12.124  10.423   2.796
38055W        W 9726  40.824  39.409   3.716
38056W        W 9727  20.160  40.057  12.982
38057W        W 9728  17.609  41.421  14.102
38058W        W 9729  25.184  21.292   2.378
38059W        W 9730  19.074  24.551  14.251
38060W        W 9731  17.087  20.134  11.492
38061W        W 9732  29.341  17.147   9.866
38062W        W 9733  41.270   4.446   2.666
38063W        W 9734  14.083  39.541   3.008
38064W        W 9735  26.090   0.525   4.421
38065W        W 9736  23.109  20.809  13.472
38066W        W 9737  34.508  22.740   0.674
38067W        W 9738   6.375  28.161   3.177
38068W        W 9739   7.142   6.549  13.754
38069W        W 9740  38.424  27.290   3.304
38070W        W 9741   6.704  26.815  11.223
38071W        W 9742  42.379  29.562  12.457
38072W        W 9743  22.332  15.843   4.058
38073W        W 9744  43.343   2.889  13.842
38074W        W 9745  29.903  44.923  11.147
38075W        W 9746  19.158  40.541  11.432
38076W        W 9747  35.798   3.530   1.458
38077W        W 9748   9.285  32.664  14.061
38078W        W 9749  23.949   8.783   5.121
38079W        W 9750  41.429  22.194  13.353
38080W        W 9751  28.101  21.291   0.727
38081W        W 9752  11.702   6.448  11.631
38082W        W 9753  37.535  10.207   1.661
38083W        W 9754  34.431  27.810  13.036
38084W        W 9755   9.349  35.414  10.547
38085W        W 9756  38.014   3.346   3.869
38086W        W 9757  34.992  14.429   0.010
38087W        W 9758  39.247  14.125   4.692
38088W        W 9759   1.299  32.998   1.464
38089W        W 9760  18.533   7.685  12.553
38090W        W 9761  35.134  38.025  11.463
38091W        W 9762  18.796  10.805   1.829
38092W        W 9763  28.626  23.129  12.409
38093W        W 9764  35.108   6.462  14.820
38094W        W 9765  37.791  20.186   4.831
38095W        W 9766   1.317   9.598   3.072
38096W        W 9767  18.711  30.642   0.942
38097W        W 9768  29.507   8.145   4.141
38098W        W 9769  17.957   9.817   4.172
38099W        W 9770  17.168  43.043   3.622
38100W        W 9771  26.438  34.415  11.555
38101W        W 9772   0.403   5.254  11.269
38102W        W 9773  43.270   0.538  14.393
38103W        W 9774  33.661   8.470   1.284
38104W        W 9775  39.388  17.821   1.936
38105W        W 9776  32.705   4.762  10.977
38106W        W 9777  43.719  24.543   5.572
38107W        W 9778  34.040   6.254   1.950
38108W        W 9779  21.994  26.677   0.168
38109W        W 9780   8.229  37.988  12.141
38110W        W 9781  35.906  31.058   3.461
38111W        W 9782  26.493  26.161   4.610
38112W        W 9783   5.156  10.723  14.951
38113W        W 9784   1.198  29.174   0.418
38114W        W 9785  44.025  30.501   1.941
38115W        W 9786  25.963  11.508  12.250
38116W        W 9787  11.916  38.369   3.687
38117W        W 9788  39.503  20.692   3.363
38118W        W 9789  33.068   1.050   3.814
38119W        W 9790  18.524   9.494  13.753
38120W        W 9791  42.678  22.346   5.059
38121W        W 9792   1.095  43.839  12.657
38122W        W 9793  23.244  17.737   4.647
38123W        W 9794   8.359  10.446   0.921
38124W        W 9795  20.114  11.365  14.950
38125W        W 9796  36.935  43.699   1.342
38126W        W 9797  33.211   4.405  13.121
38127W        W 9798  36.636   4.291   2.661
38128W        W 9799  43.513  38.852   0.748
38129W        W 9800  35.859  28.402  13.166
38130W        W 9801  40.522  26.450  13.413
38131W        W 9802  16.332   4.981   3.788
38132W        W 9803  39.919   6.074  14.217
38133W        W 9804  10.179   4.284   0.364
38134W        W 9805  44.760   4.231  14.349
38135W        W 9806  10.226  27.524  10.948
38136W        W 9807  12.106  11.262   1.151
38137W        W 9808   6.677  44.480  13.949
38138W        W 9809   4.325  42.998  14.209
38139W        W 9810  17.843  31.097  12.415
38140W        W 9811  11.166  12.855  12.093
38141W        W 9812  39.320  40.560   3.669
38142W        W 9813   2.317  21.013   1.244
38143W        W 9814   9.294  22.532  13.408
38144W        W 9815  18.737  40.877   2.382
38145W        W 9816  32.133   4.689   1.773
38146W        W 9817   9.381   0.411   3.205
38147W        W 9818  17.709  36.404   3.311
38148W        W 9819  20.000   3.357   0.272
38149W        W 9820   1.503   4.709  11.985
38150W        W 9821   1.359   3.234  13.749
38151W        W 9822  18.197   9.113  13.892
38152W        W 9823  10.728  15.180  11.343
38153W        W 9824  42.243  21.181   0.780
38154W        W 9825  26.791  41.524  10.747
38155W        W 9826  14.349  25.788   1.360
38156W        W 9827  38.425   2.403   1.064
38157W        W 9828  12.051  41.252   0.393
38158W        W 9829  22.117  25.504   2.807
38159W        W 9830   6.246   3.446   3.572
38160W        W 9831  34.042  36.492   4.015
38161W        W 9832  16.679   4.458   0.359
38162W        W 9833   4.942   8.548   0.165
38163W        W 9834  35.500  40.691  12.216
38164W        W 9835   9.246  42.784  11.302
38165W        W 9836   6.732   2.522   3.731
38166W        W 9837   7.463  35.804  11.475
38167W        W 9838  19.334  42.698   0.739
38168W        W 9839   9.276  23.510   2.436
38169W        W 9840  34.400  39.474   4.047
38170W        W 9841   3.830   3.565  13.941
38171W        W 9842  38.872  29.156   1.974
38172W        W 9843   4.355  30.209  14.510
38173W        W 9844   1.485   9.372   0.879
38174W        W 9845  28.505  13.568  10.441
38175W        W 9846  43.044  12.290  13.616
38176W        W 9847  11.056  40.055  14.202
38177W        W 9848  21.493   6.872  13.923
38178W        W 9849  29.944   9.225   2.309
38179W        W 9850  29.760  24.684   1.234
38180W        W 9851  40.363  25.093  12.195
38181W        W 9852  43.046  27.505  11.899
38182W        W 9853  14.542  19.755   2.763
38183W        W 9854  34.839  35.920  11.918
38184W        W 9855  33.053  19.650   3.724
38185W        W 9856  19.140  42.485   0.282
38186W        W 9857  23.661   2.773   4.054
38187W        W 9858   0.375   5.482  12.462
38188W        W 9859  20.445  13.522   3.774
38189W        W 9860   2.970  28.250  11.420
38190W        W 9861   3.740  42.320  14.757
38191W        W 9862  17.036  14.202   3.758
38192W        W 9863   0.320  24.330   5.052
38193W        W 9864   1.893   9.641   2.056
38194W        W 9865  25.555  38.706  10.432
38195W        W 9866  44.393  37.344   3.702
38196W        W 9867  20.717  41.242   2.187
38197W        W 9868  30.933  17.323  11.234
38198W        W 9869  38.520  23.112  14.972
38199W        W 9870   3.986  29.105  13.363
38200W        W 9871  22.174   5.232   3.746
38201W        W 9872   3.011  32.632  13.492
38202W        W 9873  44.186  39.019  13.496
38203W        W 9874  10.864  21.999   3.560
38204W        W 9875   8.185   5.463  13.921
38205W        W 9876  39.625   7.363  14.428
38206W        W 9877  18.707  22.235   3.408
38207W        W 9878  44.384  16.173  12.297
38208W        W 9879  36.335  26.247  11.643
38209W        W 9880  42.935  33.562   4.511
38210W        W 9881  13.747  14.865  14.428
38211W        W 9882   3.005  13.490  13.949
38212W        W 9883  19.681  27.517   2.848
38213W        W 9884   8.090  40.599   3.426
38214W        W 9885  27.923  17.316  11.491
38215W        W 9886   6.416  24.293   2.812
38216W        W 9887  22.604  22.529   3.176
38217W        W 9888   3.391   4.417  14.827
38218W        W 9889  14.222  15.714  10.479
38219W        W 9890   7.423  26.952  13.777
38220W        W 9891  42.064  22.681   3.227
38221W        W 9892  40.992  14.638   0.842
38222W        W 9893  10.860  18.056   4.310
38223W        W 9894   0.143  32.895   0.252
38224W        W 9895  25.962   5.302  13.501
38225W        W 9896   7.643  22.356  11.048
38226W        W 9897  16.357  26.980   4.059
38227W        W 9898   9.700  42.525   1.757
38228W        W 9899   1.246  36.021   0.482
38229W        W 9900  31.067   5.642   0.899
38230W        W 9901   6.652  42.272  11.340
38231W        W 9902  35.949  36.686  10.125
38232W        W 9903  23.952  21.021  10.423
38233W        W 9904   2.783  40.034   0.374
38234W        W 9905  10.197  36.056  12.495
38235W        W 9906   2.986  17.143  10.720
38236W        W 9907  10.692  20.735  12.014
38237W        W 9908  22.095  18.672   2.770
38238W        W 9909  42.885  15.135   2.716
38239W        W 9910  27.601  10.864   1.853
38240W        W 9911  22.286   5.404  11.636
38241W        W 9912  25.827  15.081  13.354
38242W        W 9913   0.578  36.339   0.790
38243W        W 9914  33.894  20.700  14.293
38244W        W 9915   8.468  36.482   4.192
38245W        W 9916  34.863   2.680   2.173
38246W        W 9917   0.914  25.682   1.339
38247W        W 9918   5.439  22.300   0.656
38248W        W 9919  17.196   6.309   2.617
38249W        W 9920  26.611  38.640   0.431
38250W        W 9921  43.101   1.658   4.941
38251W        W 9922  30.085  44.987  12.035
38252W        W 9923  37.823  40.845   0.295
38253W        W 9924  22.272  13.892   2.429
38254W        W 9925  21.657  16.541   4.811
38255W        W 9926  32.471   0.965   0.971
38256W        W 9927  22.332  18.313  14.303
38257W        W 9928   4.323  28.658   2.765
38258W        W 9929  40.887  11.290   4.549
38259W        W 9930  34.446  38.184  10.533
38260W        W 9931  22.743  39.057   0.359
38261W        W 9932  44.309   9.913   3.162
38262W        W 9933  40.852  43.286   0.953
38263W        W 9934  13.615  23.561   3.644
38264W        W 9935  18.397   8.890   4.043
38265W        W 9936   4.135  23.124  12.459
38266W        W 9937  35.934  22.219   3.209
38267W        W 9938  15.714  38.190  14.817
38268W        W 9939   0.841   1.834  12.675
38269W        W 9940  19.072  38.089  10.650
38270W        W 9941   9.574  12.499  13.779
38271W        W 9942  29.159  40.054  12.762
38272W        W 9943  41.274  23.246  11.167
38273W        W 9944  27.087  40.378   2.317
38274W        W 9945  15.777   0.221  12.474
38275W        W 9946  13.099   5.403   1.954
38276W        W 9947  44.045  36.379  14.269
38277W        W 9948  21.483   7.694  13.418
38278W        W 9949  34.436   4.180   3.551
38279W        W 9950  35.565   1.754  13.343
38280W        W 9951  22.724  27.193  13.398
38281W        W 9952   4.193  11.320   4.214
38282W        W 9953   4.814  32.407   1.280
38283W        W 9954  42.292  36.720  11.670
38284W        W 9955   1.411  36.019   0.965
38285W        W 9956  31.386  43.727   4.492
38286W        W 9957   2.268  15.351  12.981
38287W        W 9958  30.068  15.707  11.294
38288W        W 9959  11.298  41.532  14.553
38289W        W 9960  44.727  22.085  11.190
38290W        W 9961  15.116   1.929  11.087
38291W        W 9962   3.870  13.958  13.993
38292W        W 9963  17.837   7.873  14.175
38293W        W 9964   8.771   4.140  14.177
38294W        W 9965  25.687   6.875  14.760
38295W        W 9966  37.145   4.223  11.197
38296W        W 9967  30.643  23.657   1.937
38297W        W 9968  30.588   4.203  11.011
38298W        W 9969  24.075  35.097  12.942
38299W        W 9970   3.010   5.213   3.755
38300W        W 9971  35.518  27.601  11.989
38301W        W 9972  28.733  39.752   3.395
38302W        W 9973   4.617  15.769  14.920
38303W        W 9974   9.277  26.635   1.053
38304W        W 9975   3.060  33.949   2.979
38305W        W 9976  31.654  18.183   3.797
38306W        W 9977  24.052  31.138  11.100
38307W        W 9978   7.047  30.110   4.117
38308W        W 9979  43.479  26.754  13.626
38309W        W 9980   7.874   7.839  14.357
38310W        W 9981  44.275  33.482   3.109
38311W        W 9982  13.218  28.210  11.138
38312W        W 9983   1.492  23.637  12.956
38313W        W 9984  43.015  44.926   0.774
38314W        W 9985  34.398  21.962  13.870
38315W        W 9986   3.029  19.050  11.337
38316W        W 9987   4.768  14.279  13.753
38317W        W 9988  33.082  19.780  10.589
38318W        W 9989  32.398  15.198   1.457
38319W        W 9990  42.366   9.792   0.336
38320W        W 9991  19.880  13.589  11.555
38321W        W 9992  10.086  13.258   2.246
38322W        W 9993   5.676  41.488   0.443
38323W        W 9994  34.541  21.621  10.698
38324W        W 9995   2.033  26.552   4.717
38325W        W 9996  39.311  41.157  11.671
38326W        W 9997  18.626  33.881   4.423
38327W        W 9998  37.644  11.202  11.463
38328W        W 9999  34.881  18.775   1.899
38329W        W10000  38.164   2.288  10.736
38330W        W10001  43.994  44.020  11.575
38331W        W10002  25.984   2.969   1.906
38332W        W10003  15.567  43.482   0.348
38333W        W10004  34.888  16.706   1.729
38334W        W10005  29.162  44.688   4.562
38335W        W10006  19.113   1.506  13.277
38336W        W10007  11.576  17.812  12.532
38337W        W10008  13.189   3.234   3.940
38338W        W10009  19.504   5.721   1.732
38339W        W10010  36.829  38.404   3.700
38340W        W10011  28.182  44.810  11.603
38341W        W10012  34.697  24.871  13.901
38342W        W10013  12.401  31.443  11.191
38343W        W10014  17.056  36.464   4.585
38344W        W10015   2.555  40.679   2.305
38345W        W10016   6.403   2.754   0.916
38346W        W10017  18.657   2.878  11.609
38347W        W10018   3.276  29.182   2.303
38348W        W10019   4.325  44.374  14.554
38349W        W10020  16.125  34.447   0.845
38350W        W10021   1.813  15.427   4.225
38351W        W10022  15.694   9.614   4.256
38352W        W10023  16.212  31.860  14.035
38353W        W10024  15.030  14.129   3.552
38354W        W10025   4.931  35.049   0.793
38355W        W10026  38.062  23.537  12.532
38356W        W10027  41.450  34.652   3.753
38357W        W10028  31.057  30.755   3.249
38358W        W10029  17.782  25.415   4.173
38359W        W10030   6.423  29.067  11.847
38360W        W10031  19.668  25.418   5.157
38361W        W10032   3.149  21.088   9.840
38362W        W10033  39.447  28.933  10.589
38363W        W10034   7.898   6.885   3.786
38364W        W10035  34.109  13.725   5.004
38365W        W10036   0.880  25.712   2.710
38366W        W10037  37.632  44.793  10.998
38367W        W10038  24.546  39.719   4.886
38368W        W10039  10.337  14.207  12.090
38369W        W10040   1.367  16.557  10.478
38370W        W10041  42.501  25.076  11.021
38371W        W10042  35.717   2.448  13.661
38372W        W10043   2.475  34.389  14.540
38373W        W10044  30.063  20.544  12.407
38374W        W10045  10.766  25.483  14.945
38375W        W10046  14.598  29.575  10.707
38376W        W10047  13.136   5.031  12.565
38377W        W10048  44.465  39.550  13.886
38378W        W10049  42.601   5.236  12.878
38379W        W10050   3.671  41.208  10.284
38380W        W10051  43.448  40.603   0.834
38381W        W10052  15.302   3.956   2.806
38382W        W10053  17.239  21.520   3.884
38383W        W10054   0.671   4.750   2.167
38384W        W10055  35.480  34.663  13.818
38385W        W10056   8.305  25.314   0.740
38386W        W10057  31.428  16.660  14.704
38387W        W10058  22.234  13.572  14.734
38388W        W10059  43.902  11.356   4.079
38389W        W10060  28.934   9.369  12.989
38390W        W10061  43.969  36.012  11.613
38391W        W10062  32.829  30.679   4.264
38392W        W10063  43.705   9.712   2.687
38393W        W10064  21.118  22.237   2.274
38394W        W10065  38.825  32.871   2.248
38395W        W10066   9.198  37.411   1.759
38396W        W10067  21.938  12.734   1.776
38397W        W10068   3.647  11.398   0.765
38398W        W10069  38.510  29.392  12.093
38399W        W10070  18.601  26.522   5.004
38400W        W10071  24.294  23.245   1.846
38401W        W10072  26.621  20.621  14.881
38402W        W10073  38.112  10.579  11.152
38403W        W10074  39.401  18.163   1.287
38404W        W10075   5.866   2.167  14.886
38405W        W10076  26.691   3.940   0.920
38406W        W10077   5.720  22.329   2.320
38407W        W10078  22.786  41.265  11.160
38408W        W10079  33.873  23.621   2.310
38409W        W10080  23.755  41.825  13.862
38410W        W10081  27.987  37.530  12.871
38411W        W10082  34.034  33.895  10.717
38412W        W10083  15.715   5.042  12.040
38413W        W10084  16.776  39.253   1.950
38414W        W10085  28.892   9.857  11.567
38415W        W10086  23.113  38.324   3.206
38416W        W10087  27.058  42.684   2.552
38417W        W10088  28.037  43.404   2.542
38418W        W10089  44.833  16.683   3.794
38419W        W10090  24.021   0.514   0.264
38420W        W10091  30.175  17.146  11.636
38421W        W10092  17.749  36.500  11.525
38422W        W10093  11.415   3.290  13.084
38423W        W10094  18.790  43.946   1.300
38424W        W10095  18.485  27.721  13.035
38425W        W10096   3.193  33.408  10.756
38426W        W10097  41.298  25.222  12.927
38427W        W10098   8.447   5.903   4.466
38428W        W10099   1.416   0.914   0.449
38429W        W10100  28.979  28.660   1.818
38430W        W10101  27.917  28.917   1.074
38431W        W10102  32.033  35.481  10.927
38432W        W10103   9.245  37.907  13.839
38433W        W10104  35.775  24.658  12.004
38434W        W10105   7.544   8.212  12.870
38435W        W10106  24.436  38.524  12.553
38436W        W10107  31.515  37.456  11.304
38437W        W10108  41.001  30.662   2.718
38438W        W10109  38.003   5.163   0.781
38439W        W10110  32.670  43.203  11.040
38440W        W10111   0.297   1.216   2.681
38441W        W10112  42.817  31.557  14.325
38442W        W10113  44.564  17.219   0.482
38443W        W10114  40.920  29.627   1.001
38444W        W10115  37.974   1.414  12.480
38445W        W10116  25.046  43.786  14.032
38446W        W10117   4.310  32.772   0.532
38447W        W10118   9.030  42.845   3.774
38448W        W10119  25.771   9.284  14.111
38449W        W10120  33.130  13.192  11.678
38450W        W10121  30.457  44.462  12.219
38451W        W10122  28.016  18.907  11.117
38452W        W10123   3.463  30.523   1.283
38453W        W10124  23.114  28.483   1.449
38454W        W10125  30.189  11.879   4.292
38455W        W10126  42.744  31.375  13.484
38456W        W10127  11.922  39.779   4.574
38457W        W10128  15.741  25.414   4.340
38458W        W10129   1.000  24.061  13.464
38459W        W10130  22.673  12.037  12.465
38460W        W10131  22.453  14.726  13.957
38461W        W10132  44.018  29.629   4.524
38462W        W10133  14.069  29.940  14.332
38463W        W10134  32.593  29.383   0.811
38464W        W10135  10.118  19.760  10.126
38465W        W10136   5.973   3.154  14.387
38466W        W10137  37.988  32.034   5.058
38467W        W10138  28.509  16.061   0.991
38468W        W10139  10.767  35.491  10.970
38469W        W10140  22.489  23.067   0.171
38470W        W10141  28.954   5.234  10.602
38471W        W10142  27.416  26.235   3.227
38472W        W10143  26.256  34.823   4.184
38473W        W10144  31.476  16.455   2.713
38474W        W10145   0.389  25.344  12.656
38475W        W10146   7.956  15.185   3.167
38476W        W10147   0.256  28.989  10.286
38477W        W10148   3.870  38.511   4.852
38478W        W10149   4.708  15.795   1.246
38479W        W10150  39.227  11.410  10.824
38480W        W10151  30.823  26.274  13.986
38481W        W10152  31.125  38.882   2.618
38482W        W10153  28.530  44.232  11.141
38483W        W10154  17.659  35.924   4.132
38484W        W10155  38.803  17.877  13.738
38485W        W10156  28.305  43.759  10.466
38486W        W10157  23.083  19.172   2.849
38487W        W10158  17.079  29.424   3.654
38488W        W10159  30.630   6.798  11.905
38489W        W10160  43.399  35.858   0.350
38490W        W10161  22.126  33.913  14.424
38491W        W10162  19.278  20.093   1.989
38492W        W10163  37.552  39.066  11.016
38493W        W10164  44.658  10.442   0.756
38494W        W10165  35.592  15.465  10.652
38495W        W10166  15.128  37.096   3.696
38496W        W10167  33.624  40.578   3.721
38497W        W10168  11.924  13.668  11.140
38498W        W10169  27.133  40.433   0.463
38499W        W10170  12.865   5.412   3.815
38500W        W10171  37.618   1.687  10.667
38501W        W10172  35.419  28.004  14.889
38502W        W10173  20.019  22.141  11.930
38503W        W10174  21.119  32.495  12.004
38504W        W10175  40.895  37.881   0.188
38505W        W10176  13.789  15.868   1.182
38506W        W10177  25.719  37.564   3.190
38507W        W10178   3.396  25.071  10.114
38508W        W10179   1.454  12.614  10.683
38509W        W10180  34.078  13.736  10.941
38510W        W10181  16.057  28.422   4.086
38511W        W10182   5.710  23.552   3.586
38512W        W10183  42.488  16.240  11.096
38513W        W10184  24.240  31.001   4.497
38514W        W10185  25.122  36.363  13.539
38515W        W10186   7.111  23.032   2.715
38516W        W10187  11.632  19.714  14.052
38517W        W10188  34.546  27.364   3.352
38518W        W10189   0.822  37.514  14.393
38519W        W10190  23.383  36.506  13.048
38520W        W10191  28.625  37.662  14.923
38521W        W10192   4.834   5.310   4.425
38522W        W10193  22.297  40.660  14.373
38523W        W10194  28.559  30.934  11.138
38524W        W10195  39.143   1.823   0.513
38525W        W10196   1.995  22.134   3.774
38526W        W10197   2.783   8.232   2.807
38527W        W10198  11.420  38.576   2.278
38528W        W10199  36.143  22.644   4.968
38529W        W10200  30.070  36.051   0.509
38530W        W10201   7.638  12.956   1.809
38531W        W10202  42.909   2.248   0.539
38532W        W10203  33.342  44.360  13.883
38533W        W10204  39.460  15.314  14.939
38534W        W10205   6.105  20.048   2.381
38535W        W10206  29.078  27.586   2.694
38536W        W10207   1.307  29.143   4.636
38537W        W10208   8.458   9.864  13.543
38538W        W10209  21.377  11.874   4.097
38539W        W10210  33.133  29.279   1.182
38540W        W10211  17.851   3.879   4.090
38541W        W10212  42.544  20.295   3.501
38542W        W10213  18.017   0.076  11.443
38543W        W10214   4.820  39.817  14.277
38544W        W10215  44.953  19.325   1.332
38545W        W10216  41.266   6.466  11.576
38546W        W10217  29.351   1.366  14.382
38547W        W10218  10.017  25.396   0.343
38548W        W10219  10.405  40.400   0.460
38549W        W10220  37.506  27.203   1.441
38550W        W10221  27.885  26.582  12.929
38551W        W10222  41.067  17.068  12.512
38552W        W10223  23.028  26.430  13.490
38553W        W10224  24.202  19.194  13.140
38554W        W10225  16.425  21.725   4.434
38555W        W10226  43.286   8.131  10.666
38556W        W10227  37.518   4.794  10.457
38557W        W10228  41.145  33.495   2.250
38558W        W10229  36.490  25.506  11.208
38559W        W10230  42.291  14.802   3.287
38560W        W10231  38.618  27.487   1.685
38561W        W10232  29.301  27.168  13.762
38562W        W10233  32.476  38.825  14.236
38563W        W10234  35.396  27.682   2.226
38564W        W10235  26.185   5.022  13.988
38565W        W10236  34.651  12.295  13.312
38566W        W10237  30.491   0.333  14.014
38567W        W10238  43.372  18.198  13.040
38568W        W10239   6.791  28.334  11.575
38569W        W10240  42.943   5.494   4.903
38570W        W10241   9.435  27.287   2.920
38571W        W10242  17.651  35.441   3.363
38572W        W10243  28.603  22.263   3.509
38573W        W10244  13.879  26.475  13.032
38574W        W10245  14.650  17.739  12.446
38575W        W10246  39.991  15.351   4.615
38576W        W10247  26.194   2.452   4.870
38577W        W10248  21.977  44.816   2.145
38578W        W10249  44.458  43.495   3.693
38579W        W10250  17.090  16.778  13.960
38580W        W10251  18.859  36.979  11.644
38581W        W10252   6.714  34.344  12.074
38582W        W10253  28.654  33.076   3.706
38583W        W10254  40.123   8.154  10.954
38584W        W10255  18.458   9.592  12.733
38585W        W10256  12.918  23.406  12.574
38586W        W10257  30.546  33.629   0.941
38587W        W10258   0.223  44.309  14.735
38588W        W10259  42.608   4.902  12.484
38589W        W10260   2.357   2.937  12.528
38590W        W10261  38.116  18.822   2.680
38591W        W10262  42.395  30.097  13.494
38592W        W10263  44.721  25.465   3.241
38593W        W10264  27.284  44.435   4.599
38594W        W10265  15.927  16.493   4.092
38595W        W10266  43.001  20.307   3.825
38596W        W10267  43.497   0.758  14.838
38597W        W10268  35.913  31.042   0.910
38598W        W10269  33.614   9.613   4.587
38599W        W10270  12.378  20.077   4.709
38600W        W10271   5.581   0.853   4.567
38601W        W10272  18.956   3.960   0.442
38602W        W10273  11.222  43.942   4.245
38603W        W10274   7.864  26.255  14.272
38604W        W10275  36.362  34.599  11.743
38605W        W10276  40.624  40.078  10.179
38606W        W10277  25.890  21.243  11.214
38607W        W10278  25.244  44.225   4.181
38608W        W10279   9.946  17.760  14.465
38609W        W10280  37.590  10.989  12.533
38610W        W10281  25.615  33.960   2.787
38611W        W10282  15.726  14.917  14.824
38612W        W10283  34.845  29.922  14.908
38613W        W10284   4.854  14.850  13.050
38614W        W10285   6.475  37.941   2.661
38615W        W10286  37.964  13.168  11.785
38616W        W10287  21.526  36.080  10.937
38617W        W10288   4.908  40.564  13.861
38618W        W10289  21.109   6.129  11.880
38619W        W10290   8.704  16.809  12.923
38620W        W10291  36.113   0.425  13.445
38621W        W10292   4.628  17.011  11.816
38622W        W10293  17.178  36.443   3.163
38623W        W10294  29.555  18.156   1.934
38624W        W10295  41.051   9.600   1.950
38625W        W10296  15.197  17.649   3.035
38626W        W10297  28.446  33.096  14.806
38627W        W10298  44.574  33.274   1.714
38628W        W10299  22.210  22.391  11.035
38629W        W10300  17.163  12.701   4.112
38630W        W10301  31.913  12.559  13.896
38631W        W10302  27.565  26.842  10.297
38632W        W10303  10.197  42.458   0.307
38633W        W10304  12.575   7.293  11.359
38634W        W10305  39.788  40.443   4.553
38635W        W10306  30.293  12.367   4.132
38636W        W10307  16.239  30.872   3.110
38637W        W10308  38.070  27.045  10.751
38638W        W10309  11.711  21.237   0.322
38639W        W10310   0.354  16.749  10.676
38640W        W10311   0.410  20.216  14.355
38641W        W10312   9.761   8.797  13.485
38642W        W10313  27.917  15.573   4.566
38643W        W10314  25.605  19.105  14.297
38644W        W10315  28.642   4.101   0.468
38645W        W10316  38.877  21.004  12.684
38646W        W10317  26.255  24.023  14.873
38647W        W10318   8.183  12.290  12.543
38648W        W10319   5.807   8.077   4.153
38649W        W10320  41.509   7.371   1.885
38650W        W10321  30.505   1.934  14.722
38651W        W10322  11.223  14.363   4.093
38652W        W10323  35.758  42.007  13.133
38653W        W10324  14.185   0.961   4.321
38654W        W10325  31.252  36.803  14.569
38655W        W10326  17.224   7.715  12.862
38656W        W10327  38.908   7.195   3.883
38657W        W10328  16.139  41.995  11.233
38658W        W10329  13.421   5.779  14.486
38659W        W10330  24.542  43.177  12.886
38660W        W10331  27.496   7.594  12.082
38661W        W10332  29.276   7.604   9.489
38662W        W10333  27.092   6.825  13.103
38663W        W10334  20.166  21.546   4.767
38664W        W10335   3.303  13.756   4.654
38665W        W10336  17.259  23.713  14.076
38666W        W10337  18.622  42.373   0.236
38667W        W10338  22.056  11.593   2.804
38668W        W10339  31.073  41.956   4.137
38669W        W10340  16.173  14.182  14.839
38670W        W10341  26.120   8.600   2.454
38671W        W10342  27.861  37.049  10.550
38672W        W10343  14.251   3.862  10.807
38673W        W10344  13.519  31.589  11.727
38674W        W10345  31.434  11.339  10.462
38675W        W10346  15.538  14.186  11.517
38676W        W10347  25.014  25.389  14.298
38677W        W10348  18.535  16.121  10.727
38678W        W10349   1.696  38.507  14.851
38679W        W10350  36.205   0.909   3.324
38680W        W10351  29.176  36.102  12.187
38681W        W10352  30.163  32.144   3.444
38682W        W10353   3.067  42.489  14.424
38683W        W10354  35.106  33.552  14.252
38684W        W10355  24.698  40.162  10.396
38685W        W10356  24.427  25.620  14.070
38686W        W10357  27.528   2.575  12.339
38687W        W10358  10.650   7.372  13.898
38688W        W10359  14.390  20.649  11.440
38689W        W10360  17.713  16.772  13.015
38690W        W10361  37.313  44.992   1.416
38691W        W10362   3.817  34.543  11.954
38692W        W10363  44.550   5.885   1.032
38693W        W10364   7.996  23.498  12.905
38694W        W10365  34.469   7.429   3.806
38695W        W10366   6.058  25.075   0.029
38696W        W10367   4.456  32.108   0.994
38697W        W10368  25.162  44.229   2.104
38698W        W10369  13.621  35.003  14.848
38699W        W10370   4.195  43.769   1.913
38700W        W10371  31.834   9.655  12.926
38701W        W10372  38.057  21.007   4.393
38702W        W10373  29.488   2.638   3.936
38703W        W10374  12.647  17.055  11.962
38704W        W10375  23.501   4.324  13.072
38705W        W10376  35.176  25.576   1.523
38706W        W10377  40.481  19.884   0.719
38707W        W10378  12.111  16.614  11.171
38708W        W10379  10.247  14.349   4.145
38709W        W10380  39.901  30.410  13.968
38710W        W10381  24.701  32.341  14.372
38711W        W10382  27.827  35.047   3.837
38712W        W10383  10.916  21.824   4.042
38713W        W10384  35.980  38.884   4.564
38714W        W10385  27.181  16.291   0.208
38715W        W10386  22.237   5.303  14.316
38716W        W10387  37.280  40.977   2.281
38717W        W10388  43.542  27.193  13.956
38718W        W10389   7.372  25.743  11.126
38719W        W10390  34.492  37.625   3.171
38720W        W10391  12.696  11.699   2.707
38721W        W10392  31.626   0.177   1.834
38722W        W10393  15.894  33.042   3.305
38723W        W10394  31.052  36.649  11.650
38724W        W10395  17.581   6.253   0.911
38725W        W10396  33.080  29.511  12.917
38726W        W10397  43.541  14.405   3.598
38727W        W10398  21.185  43.842   4.874
38728W        W10399  28.990  15.995   0.709
38729W        W10400  41.696  36.256   4.208
38730W        W10401   9.201  12.834   1.785
38731W        W10402  23.622   8.868   3.314
38732W        W10403  44.670   2.688   3.378
38733W        W10404  37.432  22.274  13.827
38734W        W10405   9.868  32.057   2.001
38735W        W10406  18.119  35.013   1.287
38736W        W10407  33.926  35.818  13.105
38737W        W10408  28.444  41.286   1.765
38738W        W10409  29.449  39.019   1.643
38739W        W10410  44.303   9.932  10.937
38740W        W10411  18.598  34.417   3.677
38741W        W10412   9.817   9.841  12.500
38742W        W10413  44.266  22.403   2.223
38743W        W10414  17.327  33.165  10.996
38744W        W10415  17.628  33.957  13.983
38745W        W10416  24.077  31.982   2.689
38746W        W10417  33.910  18.245   0.488
38747W        W10418  25.180   1.901   2.657
38748W        W10419   2.011  38.355  14.343
38749W        W10420  31.925   9.342   1.054
38750W        W10421  17.875  21.113   4.285
38751W        W10422  37.071  39.430   0.836
38752W        W10423  12.204  16.848  13.101
38753W        W10424  22.455  34.030   3.741
38754W        W10425  27.858   1.712   1.689
38755W        W10426  16.511  27.653   4.315
38756W        W10427   4.077  34.985  13.096
38757W        W10428  32.358  20.560  12.062
38758W        W10429   3.356  14.085   3.554
38759W        W10430   1.428  41.328   0.237
38760W        W10431  20.301  41.081  12.078
38761W        W10432  33.016  36.464  14.917
38762W        W10433  29.471  39.904  11.563
38763W        W10434  10.058  19.550   0.593
38764W        W10435  21.160  37.086  11.937
38765W        W10436   4.290  14.089  12.016
38766W        W10437  21.284  38.072  14.809
38767W        W10438   0.430  11.390  12.938
38768W        W10439   6.483  24.958   0.358
38769W        W10440  24.593   6.253   2.731
38770W        W10441   5.671  31.983   2.181
38771W        W10442   5.718  37.551   3.600
38772W        W10443  33.444  22.405  10.254
38773W        W10444  24.296  32.619  11.852
38774W        W10445  39.411  26.932  13.709
38775W        W10446  20.259   9.286   1.832
38776W        W10447   7.013  43.451   1.611
38777W        W10448  23.605  17.304   3.478
38778W        W10449  40.778  16.863   3.806
38779W        W10450  40.136  18.147  11.943
38780W        W10451   5.995   0.751  14.932
38781W        W10452  44.233  44.412  14.683
38782W        W10453   7.958   1.031  12.053
38783W        W10454  26.007  33.318   1.696
38784W        W10455   0.519  33.306   2.750
38785W        W10456   1.405  32.098  14.898
38786W        W10457   0.940  19.715   1.898
38787W        W10458  23.668  12.265  12.091
38788W        W10459  37.564  36.043   1.264
38789W        W10460  10.211  15.640  14.855
38790W        W10461   9.164   9.232   1.900
38791W        W10462  35.442  35.472  14.261
38792W        W10463  15.668  21.846  11.629
38793W        W10464  10.707  33.186  13.862
38794W        W10465   0.501   2.201   1.791
38795W        W10466  37.548  16.826   4.407
38796W        W10467  35.029  24.755  12.030
38797W        W10468   2.300   1.480   0.688
38798W        W10469  35.350   6.455  11.137
38799W        W10470   2.717   4.148   3.931
38800W        W10471   1.028  14.590  12.208
38801W        W10472  26.820   8.168   3.216
38802W        W10473  28.918  27.010  13.401
38803W        W10474  22.544  14.885   0.830
38804W        W10475   2.107  14.643   3.089
38805W        W10476  42.116  40.885  10.686
38806W        W10477  44.983  16.075  12.735
38807W        W10478  12.208  26.427  12.845
38808W        W10479  43.473  16.032  13.409
38809W        W10480  32.542   4.792   0.388
38810W        W10481  13.205  29.909  12.349
38811W        W10482  20.555   1.777   0.496
38812W        W10483  43.394  11.151   3.680
38813W        W10484   6.187   8.861  10.795
38814W        W10485  24.489  44.925   0.330
38815W        W10486  38.883   3.369   4.176
38816W        W10487  43.494  31.364  10.939
38817W        W10488  37.538  41.048  11.935
38818W        W10489  39.091  43.234   3.666
38819W        W10490  44.775  22.253   5.713
38820W        W10491  41.001   4.297  13.070
38821W        W10492  22.575  41.532   4.614
38822W        W10493  15.087  41.424   2.373
38823W        W10494  41.522  15.562   1.382
38824W        W10495  14.861  22.475   3.548
38825W        W10496  12.583  41.174   1.128
38826W        W10497  36.084  42.052   4.862
38827W        W10498  26.329  40.759  10.705
38828W        W10499  15.790  27.479   3.046
38829W        W10500  40.535  19.554   1.119
38830W        W10501  11.247  21.645   3.630
38831W        W10502  19.875  14.677   4.499
38832W        W10503  19.796   1.448   4.638
38833W        W10504  26.775  33.535  11.312
38834W        W10505  24.630  27.412   2.447
38835W        W10506  21.325  38.093  12.925
38836W        W10507  11.246   9.284   0.362
38837W        W10508  31.615  12.864  11.571
38838W        W10509  19.160  18.041  14.501
38839W        W10510  26.463   7.693  14.690
38840W        W10511  16.580  15.359  10.709
38841W        W10512  30.735  14.600  12.453
38842W        W10513  41.530  13.358   4.662
38843W        W10514  11.854  10.979  10.887
38844W        W10515  30.206  29.901   2.921
38845W        W10516   2.538  40.436  11.921
38846W        W10517  10.563  10.365  14.967
38847W        W10518  21.221  19.824   4.658
38848W        W10519  15.081   9.225   4.473
38849W        W10520  20.794  13.752  14.856
38850W        W10521  42.337  37.656  10.865
38851W        W10522  43.502   6.122  10.012
38852W        W10523  40.292  28.166  14.681
38853W        W10524  11.894  11.328   1.717
38854W        W10525  25.235  31.215   0.299
38855W        W10526  26.588  41.259  11.190
38856W        W10527   7.745   4.850  10.254
38857W        W10528  34.459  21.206  14.818
38858W        W10529   9.142  25.444  12.652
38859W        W10530  44.206  31.243   2.221
38860W        W10531   4.813  16.036   0.785
38861W        W10532  42.924   4.812   1.240
38862W        W10533  22.897  13.706   0.836
38863W        W10534   6.425  36.625  11.855
38864W        W10535  40.835  41.027   2.260
38865W        W10536  26.608  19.525  13.872
38866W        W10537   2.985  40.793   4.668
38867W        W10538  30.658  25.232   1.768
38868W        W10539   3.805  12.359  12.611
38869W        W10540  44.406   5.158   3.359
38870W        W10541  39.978   7.103   1.748
38871W        W10542  41.885  32.072  12.107
38872W        W10543  44.409  38.133   4.135
38873W        W10544   2.005  35.564   1.881
38874W        W10545  13.672   7.258   4.272
38875W        W10546  31.428  39.617  12.060
38876W        W10547   1.324  43.435  12.883
38877W        W10548  31.510  34.806   1.967
38878W        W10549  34.570  37.813   1.374
38879W        W10550   2.044   6.539  12.419
38880W        W10551  37.541  32.179  14.815
38881W        W10552  10.874   4.977   1.276
38882W        W10553  23.586  28.253   1.414
38883W        W10554   2.976  33.311  14.861
38884W        W10555  24.407   6.289   1.290
38885W        W10556  17.364  38.443   0.389
38886W        W10557  17.034  22.777   0.517
38887W        W10558  33.107  29.736  13.956
38888W        W10559  40.303   8.401  11.994
38889W        W10560  31.429   4.166  11.092
38890W        W10561   9.657  18.062   0.378
38891W        W10562  30.475  33.707   0.405
38892W        W10563  16.992  21.266  10.746
38893W        W10564  38.418   3.191   4.129
38894W        W10565  38.531  27.702   0.716
38895W        W10566  43.881  37.412  11.330
38896W        W10567   4.870  44.199   1.714
38897W        W10568   1.494   3.743   3.753
38898W        W10569  28.324  32.785  13.569
38899W        W10570  40.315   5.663   1.441
38900W        W10571  41.704  38.125  10.414
38901W        W10572  28.321  19.220  12.036
38902W        W10573  25.879   9.691   3.702
38903W        W10574  34.315  11.809  11.949
38904W        W10575  12.709  31.960  12.976
38905W        W10576   6.892  27.206  12.540
38906W        W10577  24.160  34.899  14.493
38907W        W10578   6.805   1.478  13.062
38908W        W10579   2.928  16.984  12.981
38909W        W10580   2.896  43.011  11.508
38910W        W10581  11.384  34.170   3.134
38911W        W10582  36.576   3.462   0.320
38912W        W10583  16.042  24.466   0.068
38913W        W10584  29.054  14.016  11.133
38914W        W10585  10.793   4.692   1.803
38915W        W10586   0.027  39.447   2.366
38916W        W10587  39.115  19.613   4.919
38917W        W10588  39.349  12.002   0.314
38918W        W10589  33.190  32.095   4.588
38919W        W10590  38.570  43.340  14.771
38920W        W10591  34.471   4.892   0.278
38921W        W10592  12.848  26.622   0.023
38922W        W10593  36.929  30.998   4.903
38923W        W10594  22.231  36.415   4.058
38924W        W10595   0.898  40.009   3.784
38925W        W10596  13.859  28.950   2.909
38926W        W10597  10.807  39.082  14.151
38927W        W10598   3.010   7.765   2.829
38928W        W10599  29.857  32.578  14.499
38929W        W10600  28.434   7.803  14.478
38930W        W10601  26.938  24.123   0.630
38931W        W10602  24.089  28.293  14.010
38932W        W10603  10.851  39.416  12.580
38933W        W10604  42.995  39.403  11.427
38934W        W10605  36.301  23.549   2.761
38935W        W10606  30.437  38.883   1.934
38936W        W10607  33.154  39.333   1.624
38937W        W10608   4.024  24.023   2.745
38938W        W10609   1.883  20.092   1.988
38939W        W10610  38.452  23.673   3.551
38940W        W10611  11.901   5.391   2.711
38941W        W10612  14.351  16.651  12.330
38942W        W10613  20.297   4.423  13.380
38943W        W10614   6.703  43.279  12.414
38944W        W10615  30.922   2.678  13.427
38945W        W10616  31.073  41.387   3.494
38946W        W10617  42.482  29.839   1.446
38947W        W10618   1.835  10.837   2.862
38948W        W10619   5.562  22.746   0.898
38949W        W10620  43.880   5.341   0.012
38950W        W10621   2.212  41.880  10.543
38951W        W10622  42.249  44.265   2.332
38952W        W10623  25.915  32.278  14.896
38953W        W10624  42.357  12.806  14.688
38954W        W10625  31.468  39.951  14.205
38955W        W10626  44.478  27.426   0.494
38956W        W10627   2.099   4.998   1.751
38957W        W10628  41.920  44.476   3.662
38958W        W10629  22.404  11.103   2.144
38959W        W10630  26.671   7.327   5.464
38960W        W10631  33.015  43.472  10.744
38961W        W10632  31.464  37.161   0.440
38962W        W10633  34.812  19.461  14.185
38963W        W10634  30.418   3.468   3.652
38964W        W10635   5.225  40.581   4.898
38965W        W10636  25.790  44.282  13.887
38966W        W10637   1.735  29.612   1.796
38967W        W10638  21.597  31.424  14.253
38968W        W10639  15.872   9.917  12.047
38969W        W10640  18.622  28.014  11.468
38970W        W10641  23.652  42.897  12.623
38971W        W10642  43.267  34.042   3.408
38972W        W10643  13.538  16.893  12.036
38973W        W10644  37.632  24.729   3.416
38974W        W10645  21.305  22.831  10.387
38975W        W10646  22.616  42.748   0.348
38976W        W10647  37.146   7.439  13.484
38977W        W10648  17.798  43.479   2.933
38978W        W10649  30.730  41.289   1.468
38979W        W10650  34.867   6.277  11.981
38980W        W10651  11.636  12.685  11.631
38981W        W10652  19.507  27.017  10.629
38982W        W10653  32.064   4.401   3.262
38983W        W10654   5.431   0.704   1.617
38984W        W10655  41.748  25.196   1.907
38985W        W10656  17.998  16.808  13.809
38986W        W10657   1.401   2.731  13.772
38987W        W10658  20.499  39.628  12.515
38988W        W10659   4.524  42.452  12.508
38989W        W10660  28.593  18.387  11.000
38990W        W10661   3.222  33.363   1.228
38991W        W10662  42.274  10.672  13.922
38992W        W10663   2.263   0.930   4.512
38993W        W10664  34.529  27.899  10.954
38994W        W10665  37.105  32.125   4.612
38995W        W10666  21.486  36.006   0.573
38996W        W10667  30.175   8.634   0.430
38997W        W10668  11.242  13.011  14.552
38998W        W10669   9.260  34.704  12.439
38999W        W10670  27.681  25.589   4.178
39000W        W10671  26.433   8.947  10.683
39001W        W10672   6.456  22.733   0.713
39002W        W10673   3.950  11.700   4.552
39003W        W10674  34.857  37.329  11.997
39004W        W10675  43.083  24.765  13.427
39005W        W10676  42.959  20.734  11.485
39006W        W10677   5.480  14.040  14.058
39007W        W10678  22.631  12.389  11.103
39008W        W10679  25.620  10.242  11.975
39009W        W10680  10.676  28.939  10.595
39010W        W10681  16.783   5.789  10.726
39011W        W10682  24.793  25.682   4.033
39012W        W10683  18.733  19.439  12.612
39013W        W10684  41.902  14.579   0.888
39014W        W10685  16.555  12.589  11.171
39015W        W10686  40.432   1.819   0.759
39016W        W10687  13.059  26.432  10.459
39017W        W10688  10.318   8.480   5.148
39018W        W10689  38.201   7.603  13.320
39019W        W10690  25.718  16.667   3.330
39020W        W10691  32.107  44.002  11.115
39021W        W10692  24.074  16.581  14.141
39022W        W10693  30.140  11.081  14.017
39023W        W10694  27.009  39.241   4.052
39024W        W10695  35.890  28.366  12.539
39025W        W10696   6.005  44.524  12.423
39026W        W10697  36.960  30.019  12.986
39027W        W10698  43.934  23.928   4.826
39028W        W10699   1.309  17.122   2.843
39029W        W10700  26.074  29.919  11.631
39030W        W10701  36.188  40.894  11.507
39031W        W10702   0.273   9.611   2.279
39032W        W10703  29.843  27.603   0.291
39033W        W10704  37.067  18.235  13.398
39034W        W10705  33.985  25.980   4.680
39035W        W10706  38.567  17.198   0.852
39036W        W10707  43.083  43.448  13.063
39037W        W10708   6.807  19.754  12.337
39038W        W10709  29.834  15.498  12.285
39039W        W10710  32.969  25.959   3.255
39040W        W10711  20.589  17.635   3.250
39041W        W10712  27.919   1.776   2.242
39042W        W10713  44.866  23.677   4.765
39043W        W10714  15.638  41.051   2.992
39044W        W10715  36.913   2.026   1.485
39045W        W10716  27.246  10.636   1.196
39046W        W10717  16.005   3.810   2.413
39047W        W10718  12.383  14.641   1.261
39048W        W10719  17.071   9.798   4.514
39049W        W10720  12.208  12.180   4.864
39050W        W10721   6.658  28.030   2.743
39051W        W10722   1.836  27.328  13.402
39052W        W10723   9.853  40.087  11.472
39053W        W10724   5.173  39.486   0.027
39054W        W10725  29.745  20.782   4.269
39055W        W10726   6.699   0.190   1.188
39056W        W10727  15.236  21.469  11.639
39057W        W10728  19.000  32.906   3.783
39058W        W10729  41.956  31.628  11.498
39059W        W10730  25.146  27.993   3.126
39060W        W10731  26.454   5.225  10.370
39061W        W10732  24.034  40.477  12.432
39062W        W10733  31.958  34.500  12.064
39063W        W10734  28.702  27.440   0.841
39064W        W10735   6.511  40.817  14.465
39065W        W10736   8.580  32.412  14.539
39066W        W10737  27.083  24.639  13.011
39067W        W10738  26.266  23.794   0.350
39068W        W10739   0.224   1.744  10.428
39069W        W10740  26.223   0.260  13.938
39070W        W10741  19.945  17.136  14.029
39071W        W10742   3.152   5.714  12.724
39072W        W10743  35.863  11.289   2.701
39073W        W10744  37.702  19.776  12.529
39074W        W10745  36.340  25.000   0.664
39075W        W10746  14.637  44.220   4.571
39076W        W10747  42.291  13.669   3.118
39077W        W10748   0.692  42.154   5.076
39078W        W10749  24.893  32.575   1.460
39079W        W10750  41.660  30.375  11.161
39080W        W10751  42.891  12.138   1.464
39081W        W10752  14.619  21.918  13.542
39082W        W10753  34.884   0.189   3.705
39083W        W10754   6.336  33.566  11.797
39084W        W10755  34.492  25.135   5.145
39085W        W10756  12.921   3.785  11.041
39086W        W10757  17.203   8.616  11.959
39087W        W10758   9.692  19.233  12.732
39088W        W10759  37.618  37.520   1.398
39089W        W10760  35.136   3.555   0.374
39090W        W10761  22.261  20.776   2.672
39091W        W10762  35.545  43.921  14.901
39092W        W10763   8.342  34.610   3.108
39093W        W10764   1.933  15.163  13.881
39094W        W10765  14.863  41.252   3.304
39095W        W10766  20.423   3.842  13.412
39096W        W10767  41.521  40.766  12.939
39097W        W10768  17.251  31.077   1.775
39098W        W10769  25.603  40.229  11.720
39099W        W10770  39.877  21.279   0.259
39100W        W10771  18.801  14.958  14.869
39101W        W10772  11.055  34.503  14.395
39102W        W10773  33.608  21.836   1.269
39103W        W10774   6.443  21.567  12.039
39104W        W10775   2.714  10.640  12.092
39105W        W10776  36.205   5.843  13.957
39106W        W10777  36.675  29.035  10.739
39107W        W10778   4.292  11.771   1.885
39108W        W10779  33.115  27.584   3.643
39109W        W10780   1.818  23.993  14.618
39110W        W10781  28.775  19.546  11.377
39111W        W10782   6.122  10.566  11.557
39112W        W10783  21.246  26.437   3.054
39113W        W10784   1.031  44.943  11.075
39114W        W10785  37.432  36.307  10.658
39115W        W10786  15.052  17.275   0.418
39116W        W10787  41.337  43.218   2.329
39117W        W10788  10.081  10.741  14.355
39118W        W10789  19.579  23.693  14.675
39119W        W10790  41.316  40.514   0.934
39120W        W10791  13.161  15.158  10.779
39121W        W10792  36.020   7.885  13.913
39122W        W10793  14.424  32.037   0.415
39123W        W10794  19.136  16.539  13.477
39124W        W10795   7.579  31.486   2.254
39125W        W10796  32.996  19.389  11.348
39126W        W10797  21.127  27.805   1.171
39127W        W10798  34.342   5.810   4.128
39128W        W10799   6.434  33.883   4.574
39129W        W10800  38.949  42.316  13.523
39130W        W10801  18.118   3.707  14.419
39131W        W10802  40.622  36.365  14.512
39132W        W10803  42.276  36.810   4.870
39133W        W10804  36.179  21.420  11.133
39134W        W10805  20.535  36.855   2.195
39135W        W10806   2.755  32.083  12.520
39136W        W10807  30.949   4.442  12.185
39137W        W10808   7.825  14.326   0.320
39138W        W10809   4.520  32.534   4.157
39139W        W10810  34.513  36.339  13.606
39140W        W10811  36.324  34.874   4.177
39141W        W10812  29.041  21.882   0.301
39142W        W10813   0.694  17.475   2.288
39143W        W10814   1.325  24.945  13.495
39144W        W10815  19.452  37.601  14.117
39145W        W10816  33.832  18.745   2.432
39146W        W10817  37.477  26.533  11.086
39147W        W10818  29.080  27.746   3.887
39148W        W10819  21.551  19.650  11.994
39149W        W10820  25.139  40.774   4.352
39150W        W10821  26.690   2.737   3.644
39151W        W10822  27.497  19.755  13.863
39152W        W10823  20.970  10.426  14.013
39153W        W10824   1.761  12.210  10.844
39154W        W10825  37.409   0.917  11.747
39155W        W10826  19.605  13.207  14.844
39156W        W10827   4.188   4.720  10.787
39157W        W10828  13.112  41.036  10.716
39158W        W10829  29.228  16.364  13.474
39159W        W10830  13.755  12.100  14.781
39160W        W10831  35.181  31.155  12.562
39161W        W10832  31.914  35.005  11.146
39162W        W10833  16.101  10.822  11.090
39163W        W10834  43.362   8.147  11.177
39164W        W10835  26.966   6.595  13.535
39165W        W10836   2.006  37.413   0.263
39166W        W10837  30.596  29.080   2.440
39167W        W10838  44.385   0.520  12.563
39168W        W10839  12.926  13.676   0.470
39169W        W10840   3.869  25.281  13.870
39170W        W10841   7.166  11.727   2.332
39171W        W10842  24.623  38.467   1.999
39172W        W10843  18.482  44.284   4.592
39173W        W10844  16.330  26.860   0.286
39174W        W10845   9.601  28.030  11.985
39175W        W10846  13.712   1.136   3.618
39176W        W10847  21.710  28.453  11.996
39177W        W10848   2.274  23.261  14.245
39178W        W10849   6.734   8.357  13.994
39179W        W10850  43.500  38.979   9.833
39180W        W10851  25.992  39.507  10.807
39181W        W10852  39.965   5.479   4.808
39182W        W10853   4.269   4.343  11.577
39183W        W10854  36.061   3.277   1.083
39184W        W10855  17.133  34.127   2.210
39185W        W10856  44.918  14.535  12.068
39186W        W10857  18.605  16.395   1.908
39187W        W10858  37.633  19.666  11.682
39188W        W10859  23.767  19.167   4.644
39189W        W10860  20.992  30.157  11.091
39190W        W10861  24.013  42.948   1.921
39191W        W10862  31.040   3.139   2.510
39192W        W10863  38.982   5.675   4.133
39193W        W10864   9.956  18.072  13.591
39194W        W10865   8.156   4.777   4.725
39195W        W10866  44.916  28.698  14.726
39196W        W10867   7.719   4.731  12.449
39197W        W10868   9.216   4.672   0.508
39198W        W10869  30.668  18.824  14.767
39199W        W10870  42.751  28.662  14.810
39200W        W10871   2.896  37.807  14.798
39201W        W10872  16.072  18.722  13.540
39202W        W10873  31.890   2.700   3.536
39203W        W10874  11.890  30.217  11.188
39204W        W10875   2.217  19.271   1.819
39205W        W10876   9.691   0.212  13.668
39206W        W10877  26.942  24.953  12.491
39207W        W10878  30.236  25.130  11.915
39208W        W10879  19.875  41.781   5.047
39209W        W10880   2.300   0.752  13.973
39210W        W10881  40.559   6.745   3.358
39211W        W10882  11.401   2.610   4.502
39212W        W10883   3.444  30.994   1.493
39213W        W10884  32.911  22.493   0.639
39214W        W10885   3.271  36.325  11.655
39215W        W10886  28.175  19.648   4.674
39216W        W10887  21.729  36.628   4.022
39217W        W10888  16.887  23.995  14.315
39218W        W10889  40.332  17.383   4.078
39219W        W10890   7.907   4.517   0.916
39220W        W10891  31.178   2.498  13.877
39221W        W10892  42.390  35.933  14.791
39222W        W10893  28.161  37.048   3.721
39223W        W10894  13.358  31.631   0.937
39224W        W10895  43.462  40.574  11.864
39225W        W10896   6.947  11.865   3.693
39226W        W10897  18.819  37.053   0.748
39227W        W10898  11.146  16.133  13.351
39228W        W10899  26.895  23.702  14.039
39229W        W10900  38.031  11.575  11.419
39230W        W10901  15.423   1.670  14.744
39231W        W10902   9.452  44.939  14.263
39232W        W10903  13.606  13.577  14.706
39233W        W10904  16.122  21.322  10.680
39234W        W10905   1.310   8.374   0.095
39235W        W10906  18.838  43.230   3.825
39236W        W10907  23.592  39.763   0.284
39237W        W10908  44.478  26.114   0.051
39238W        W10909  30.488  16.953  13.083
39239W        W10910  20.104  41.796   2.178
39240W        W10911  36.955  27.796  11.097
39241W        W10912  24.236  24.172   2.354
39242W        W10913  24.061  33.710  10.997
39243W        W10914   3.545   1.609  12.180
39244W        W10915   6.142  29.720   2.269
39245W        W10916  40.845  18.878  12.040
39246W        W10917   3.231  40.926  13.576
39247W        W10918  20.717  14.716  11.582
39248W        W10919   4.864  31.386  13.106
39249W        W10920  25.238  12.265   3.788
39250W        W10921  34.329  25.737  12.571
39251W        W10922  10.335  38.504   0.862
39252W        W10923   1.206   4.080   0.264
39253W        W10924  12.777  27.439   0.693
39254W        W10925  38.997  13.647   0.986
39255W        W10926   1.493  13.867   4.756
39256W        W10927  22.160  36.931   4.726
39257W        W10928  43.341   7.239  13.082
39258W        W10929  14.149  17.179  12.577
39259W        W10930   0.950  43.869  14.908
39260W        W10931   5.221  36.378  11.483
39261W        W10932  44.059  36.141   3.264
39262W        W10933   3.822  27.054   4.568
39263W        W10934  15.047  43.763  14.318
39264W        W10935  34.621  15.039  14.186
39265W        W10936  43.356   6.307   2.302
39266W        W10937  38.820  11.090  12.296
39267W        W10938   2.893  21.769   0.483
39268W        W10939  10.322  18.164   2.614
39269W        W10940   0.634  32.398  14.555
39270W        W10941  15.309  29.973  10.574
39271W        W10942  37.537  37.310   4.017
39272W        W10943   4.557  19.700  12.577
39273W        W10944  21.082  25.099   3.141
39274W        W10945  39.903   0.701  14.334
39275W        W10946  34.122  34.971  13.793
39276W        W10947  13.272   7.237  10.723
39277W        W10948  13.771  24.674  11.630
39278W        W10949  17.324   2.388   3.657
39279W        W10950  23.163  12.141  12.554
39280W        W10951  11.380  30.936   4.010
39281W        W10952  32.104  21.945   3.311
39282W        W10953  17.374  25.973   3.381
39283W        W10954   8.929  11.647  14.281
39284W        W10955  42.543  35.584  10.746
39285W        W10956  39.826   2.245  14.066
39286W        W10957  43.029  32.128   0.573
39287W        W10958  35.605  39.643  10.244
39288W        W10959  17.549  18.167   0.293
39289W        W10960  30.156  33.328  11.502
39290W        W10961  30.462  25.809   3.134
39291W        W10962  37.938  17.376   1.385
39292W        W10963  44.050   1.730   0.467
39293W        W10964  33.658  30.920   0.334
39294W        W10965  37.877  44.808   4.559
39295W        W10966   5.373  28.881   1.882
39296W        W10967  11.892  40.798  11.178
39297W        W10968  25.874  43.345  12.493
39298W        W10969   3.777  24.614  13.294
39299W        W10970   6.760  43.330   0.685
39300W        W10971  18.217   9.230   3.360
39301W        W10972  26.567  33.343   5.056
39302W        W10973  23.228   8.610   1.663
39303W        W10974  27.574   6.839   2.619
39304W        W10975  33.161  43.420  13.935
39305W        W10976   7.774  22.962  12.217
39306W        W10977  21.695  28.082   1.236
39307W        W10978  18.649  13.645   2.617
39308W        W10979  33.734  34.064  12.315
39309W        W10980  17.867  12.086  12.860
39310W        W10981  22.713  34.479   3.801
39311W        W10982  39.412  34.431   1.237
39312W        W10983  42.697  39.063   3.127
39313W        W10984  19.139  32.098   0.772
39314W        W10985   4.422  31.548  10.555
39315W        W10986   5.202  30.054  14.369
39316W        W10987   3.832  34.127   1.957
39317W        W10988   8.646  43.396  11.553
39318W        W10989  18.526  28.183   0.911
39319W        W10990   4.412  15.214   4.094
39320W        W10991  32.067  33.379  10.815
39321W        W10992  42.402  39.653   0.393
39322W        W10993  36.909  33.152  13.908
39323W        W10994   5.288   3.463  14.925
39324W        W10995   7.589  40.957   1.771
39325W        W10996   9.787  19.501  10.914
39326W        W10997  42.387  25.712   2.361
39327W        W10998  32.888   3.432  12.966
39328W        W10999  38.162   5.301   3.365
39329W        W11000  25.317   6.788  12.485
39330W        W11001   6.172  40.923   0.765
39331W        W11002  42.333   3.725   3.606
39332W        W11003   7.210  24.457   2.984
39333W        W11004  30.955  39.711  12.312
39334W        W11005  17.068   2.977   4.135
39335W        W11006  33.127  36.839  11.138
39336W        W11007  10.641  39.863  14.444
39337W        W11008  32.991  35.530  11.798
39338W        W11009  13.530   0.500  12.107
39339W        W11010  33.991   3.328  14.973
39340W        W11011   5.307  33.089  13.936
39341W        W11012  25.333  31.638   2.490
39342W        W11013   7.829   8.874   1.168
39343W        W11014   6.345  23.276   4.995
39344W        W11015  38.601  25.015  12.949
39345W        W11016  23.904   2.689   2.817
39346W        W11017  18.588  38.486   1.921
39347W        W11018  39.030  37.828  14.205
39348W        W11019  38.937  36.676   0.679
39349W        W11020   4.198  12.963   4.773
39350W        W11021   6.497  14.107   0.184
39351W        W11022  15.106  10.196  14.390
39352W        W11023  37.052  26.800  11.049
39353W        W11024  36.928   8.842   0.316
39354W        W11025  23.668   7.649   1.343
39355W        W11026   6.462  40.969   0.328
39356W        W11027  15.165  12.238   4.653
39357W        W11028  27.988   6.894  13.071
39358W        W11029  44.291  16.627  13.459
39359W        W11030   7.177  39.134  12.840
39360W        W11031  31.065  31.431  13.121
39361W        W11032  21.537  11.385   0.029
39362W        W11033   6.841  35.680  12.365
39363W        W11034  40.972  18.518   1.666
39364W        W11035   1.397  29.228  13.484
39365W        W11036  30.636  29.541   4.146
39366W        W11037  27.287  17.144   2.673
39367W        W11038  28.239  26.196  14.271
39368W        W11039  12.952  19.619  14.380
39369W        W11040  16.108   7.845   1.672
39370W        W11041  33.249  23.659   0.372
39371W        W11042  21.057  30.083   3.588
39372W        W11043  11.277   2.535  14.404
39373W        W11044  23.677  12.639   4.122
39374W        W11045  42.524  28.961  11.504
39375W        W11046   2.447  44.947   2.199
39376W        W11047  12.938   1.229   3.207
39377W        W11048  29.523   0.292  14.423
39378W        W11049  34.379  29.944  12.985
39379W        W11050  32.671   3.048  11.636
39380W        W11051  17.849  21.532   0.911
39381W        W11052  24.883  39.281  12.011
39382W        W11053  36.177  16.351  11.509
39383W        W11054  16.126   9.957   4.314
39384W        W11055   0.339   8.864  11.761
39385W        W11056  36.666  38.474   4.180
39386W        W11057  26.739  28.575  11.908
39387W        W11058  10.624  27.444  10.648
39388W        W11059   5.198  11.924   1.072
39389W        W11060  36.545  31.652   3.336
39390W        W11061  44.061  24.378  13.421
39391W        W11062   2.383  34.168  10.716
39392W        W11063  19.176  26.084   1.281
39393W        W11064   3.915   0.550   3.229
39394W        W11065  37.089  22.619  13.462
39395W        W11066   7.839  16.340  11.217
39396W        W11067  12.585  31.472   4.168
39397W        W11068  37.448  11.603   0.859
39398W        W11069  31.616   9.807  10.656
39399W        W11070  23.137  40.410   2.942
39400W        W11071   5.937   4.922  11.625
39401W        W11072  42.208  14.643  13.254
39402W        W11073  17.591   3.445   2.293
39403W        W11074  38.412  29.982   4.427
39404W        W11075  38.569   8.765   2.913
39405W        W11076  44.001   4.710   1.468
39406W        W11077  13.902  38.378  14.953
39407W        W11078  25.661  12.133  11.146
39408W        W11079  25.011  30.658  13.449
39409W        W11080  38.798  37.669  13.245
39410W        W11081  19.860  22.137   2.710
39411W        W11082   5.446  35.969  12.987
39412W        W11083  10.074  12.790  12.161
39413W        W11084   7.257  11.113   1.775
39414W        W11085  25.269  38.044  13.012
39415W        W11086   1.477  34.419  13.870
39416W        W11087  24.201  38.864   9.732
39417W        W11088  11.053   2.491  11.173
39418W        W11089  22.108  19.853   3.722
39419W        W11090  21.274  14.262   1.124
39420W        W11091  13.345   7.324  13.001
39421W        W11092  38.176  44.430  10.280
39422W        W11093   9.618  42.278   4.120
39423W        W11094  16.751  38.928   0.843
39424W        W11095  28.697  14.940   1.327
39425W        W11096  35.511  35.433  10.945
39426W        W11097  42.732  33.108  10.912
39427W        W11098  28.780  11.467  11.649
39428W        W11099  13.542  26.866  12.976
39429W        W11100  37.536  42.837   1.929
39430W        W11101  28.110  16.100   4.577
39431W        W11102  14.836   0.687   4.179
39432W        W11103  29.534  14.012  12.484
39433W        W11104  23.610   7.161  14.344
39434W        W11105  42.926  44.441  10.695
39435W        W11106  43.333  13.886  11.458
39436W        W11107   9.826  39.181   2.430
39437W        W11108  37.732  29.428   4.258
39438W        W11109  26.688  17.508   3.503
39439W        W11110  42.109  10.299   1.771
39440W        W11111  38.937  23.757   4.450
39441W        W11112  25.176   9.706  10.252
39442W        W11113  10.300  13.438   5.071
39443W        W11114  27.482  13.240   4.198
39444W        W11115   8.304  15.599  14.504
39445W        W11116  36.106  38.136  13.810
39446W        W11117   2.973  41.857  14.769
39447W        W11118  27.644   7.783  11.156
39448W        W11119   0.386   8.373  14.972
39449W        W11120   1.846  20.801   4.123
39450W        W11121  14.268  42.528   1.643
39451W        W11122  18.176  14.827  13.030
39452W        W11123  23.960  24.561   2.023
39453W        W11124   1.494  11.812   1.669
39454W        W11125   9.334  44.144  12.745
39455W        W11126  20.595  36.243  13.334
39456W        W11127  34.075  19.288  13.017
39457W        W11128  10.780   2.726  13.407
39458W        W11129   5.898   2.900   0.955
39459W        W11130   3.471   4.649   4.218
39460W        W11131  42.995  17.818  10.758
39461W        W11132   7.856  20.873  13.891
39462W        W11133   5.146  26.769  11.167
39463W        W11134  18.827  36.370  11.612
39464W        W11135  15.192  38.601  10.761
39465W        W11136  34.493   7.757   1.329
39466W        W11137   6.007   5.334   1.289
39467W        W11138   3.457  20.492  11.140
39468W        W11139  36.072   6.729  11.680
39469W        W11140  35.391  31.145  11.681
39470W        W11141  37.883  35.063   3.353
39471W        W11142  28.497  41.001  13.401
39472W        W11143  16.793   7.126  13.407
39473W        W11144  35.030   6.166  14.356
39474W        W11145   1.352  25.223   1.664
39475W        W11146  35.819  40.545   1.038
39476W        W11147  15.164  33.168   2.319
39477W        W11148  21.310  30.402  13.895
39478W        W11149   2.152  28.175   2.198
39479W        W11150  40.824  41.331  10.806
39480W        W11151  24.500  37.553   4.556
39481W        W11152   0.970  35.129  10.878
39482W        W11153  19.516  21.638  13.002
39483W        W11154  15.212  29.190  11.106
39484W        W11155  42.242  28.225   1.761
39485W        W11156  29.609  43.381   4.360
39486W        W11157  34.488  41.810  13.488
39487W        W11158  18.325  41.951  11.676
39488W        W11159   3.021  39.568   1.673
39489W        W11160  43.454   6.163   4.782
39490W        W11161  34.817   5.914  12.626
39491W        W11162  32.587  21.326  12.131
39492W        W11163  21.646   3.026  11.511
39493W        W11164  42.929  11.415   3.542
39494W        W11165  28.495  24.891   1.001
39495W        W11166  42.280  19.244   0.895
39496W        W11167   5.216  31.519   5.028
39497W        W11168  23.958   4.757   0.809
39498W        W11169   7.760  17.533   4.358
39499W        W11170  27.450  17.301  11.725
39500W        W11171  23.965   8.850   0.337
39501W        W11172  28.689   3.082  12.921
39502W        W11173  21.117  38.193   5.170
39503W        W11174  19.245   8.612   3.553
39504W        W11175  38.638  12.815  10.331
39505W        W11176  44.020  34.885  13.053
39506W        W11177  28.686  26.133  14.529
39507W        W11178  39.441  36.513   4.025
39508W        W11179   3.310  12.839  12.056
39509W        W11180  35.986  31.489   2.143
39510W        W11181  17.784   7.367  14.321
39511W        W11182   5.114  20.180  13.169
39512W        W11183  24.544  25.072  10.373
39513W        W11184  32.967  25.468   3.723
39514W        W11185  28.062  39.016  14.382
39515W        W11186  26.919  30.548  11.055
39516W        W11187  38.508   3.452  11.979
39517W        W11188  13.581  44.541  10.409
39518W        W11189   1.057  21.421   1.846
39519W        W11190   9.098   0.329   3.623
39520W        W11191  13.548  43.826   1.976
39521W        W11192   2.275  38.066  11.213
39522W        W11193  13.054  37.447   1.248
39523W        W11194   2.723   5.633  14.540
39524W        W11195  41.824  35.580  13.129
39525W        W11196  16.310  39.038  13.253
39526W        W11197   8.969  16.140   3.276
39527W        W11198   9.475  21.334   1.897
39528W        W11199  39.609  42.882   1.611
39529W        W11200  34.632  14.721  11.111
39530W        W11201  13.076  27.016   0.809
39531W        W11202  15.337  16.202  14.038
39532W        W11203  44.960   5.675  13.369
39533W        W11204  22.706  11.425  12.852
39534W        W11205   9.417   1.267   5.069
39535W        W11206  41.336   8.487   4.138
39536W        W11207   3.464   2.230   4.094
39537W        W11208  42.286  28.627   0.162
39538W        W11209  33.125   7.701   2.653
39539W        W11210  36.070   0.128   2.811
39540W        W11211  31.130  37.146   3.363
39541W        W11212  40.818   0.214   1.344
39542W        W11213   4.874  17.527   0.016
39543W        W11214  25.702  15.754  11.388
39544W        W11215   2.437  43.454   3.589
39545W        W11216  12.435  32.420   1.854
39546W        W11217  31.469  19.480   4.227
39547W        W11218  14.113   3.370   3.677
39548W        W11219  23.074   3.101   3.241
39549W        W11220   8.258  43.758   3.301
39550W        W11221  42.382  39.544  12.903
39551W        W11222  29.259  39.449  11.025
39552W        W11223   1.008  16.266  14.309
39553W        W11224  33.059  12.159   0.782
39554W        W11225  44.949  21.686  10.557
39555W        W11226  36.274  12.815   3.311
39556W        W11227   8.324   2.926  11.739
39557W        W11228   8.370  31.699  11.432
39558W        W11229  38.146   3.776  14.968
39559W        W11230   3.869  22.548   4.164
39560W        W11231  41.015  30.582  11.217
39561W        W11232  19.637  22.670   2.818
39562W        W11233  43.359  16.599   2.628
39563W        W11234  12.052  18.833  10.721
39564W        W11235   5.691  26.129   1.448
39565W        W11236   4.818  37.825   4.143
39566W        W11237   7.138  16.025   3.651
39567W        W11238  35.466  25.627  13.044
39568W        W11239  11.754  43.414   0.306
39569W        W11240   9.770  39.851  11.916
39570W        W11241  32.218  13.665  12.108
39571W        W11242  17.895  38.877  12.004
39572W        W11243  17.829  36.838   3.605
39573W        W11244  38.582  41.921   0.664
39574W        W11245  30.339   6.767   1.871
39575W        W11246   7.708  13.420   4.411
39576W        W11247   2.218  38.892   3.203
39577W        W11248  35.008  41.062  10.699
39578W        W11249  13.695  17.621   3.323
39579W        W11250   1.893   2.456  10.493
39580W        W11251  41.827  44.826  11.469
39581W        W11252  15.007  26.419   0.117
39582W        W11253  31.577  34.528   0.824
39583W        W11254  43.360  43.250   4.996
39584W        W11255  17.667  10.151  12.268
39585W        W11256  15.360   0.086   3.734
39586W        W11257  31.068  32.085   3.601
39587W        W11258  20.100  21.658  13.732
39588W        W11259  32.891  42.989   1.776
39589W        W11260  30.489  23.218  10.686
39590W        W11261  17.353  37.617  10.909
39591W        W11262  15.611  30.393  13.345
39592W        W11263  10.202  41.322  13.737
39593W        W11264   8.196  42.105   0.423
39594W        W11265  41.490  11.589  12.994
39595W        W11266  39.635  21.936   0.927
39596W        W11267  33.547   0.994   0.852
39597W        W11268   5.118   0.085   0.413
39598W        W11269   9.938   0.272   2.307
39599W        W11270  19.157  10.617  14.502
39600W        W11271  29.109  34.069   2.809
39601W        W11272  21.004  25.901   0.302
39602W        W11273  35.541  43.407   2.722
39603W        W11274  38.342  24.461   1.289
39604W        W11275  10.744  10.312   2.947
39605W        W11276  25.916  18.606  13.201
39606W        W11277  27.615  44.693  12.130
39607W        W11278  22.751  23.268  10.965
39608W        W11279   3.915  29.136  14.800
39609W        W11280  37.912  41.876   1.885
39610W        W11281   7.301  23.896  11.629
39611W        W11282   6.251  36.453   0.992
39612W        W11283  33.067  37.803   0.855
39613W        W11284   2.733  39.997  11.574
39614W        W11285  34.447  11.602   2.560
39615W        W11286  22.145  20.820   3.909
39616W        W11287  42.864  42.534  13.505
39617W        W11288  40.515  40.794  14.098
39618W        W11289   1.312  19.689  13.094
39619W        W11290  40.551  34.650   1.874
39620W        W11291  28.639   1.972   3.648
39621W        W11292  15.287  24.740   3.860
39622W        W11293  18.809  13.316   1.370
39623W        W11294  44.480  35.488   1.274
39624W        W11295   0.904  40.570   0.339
39625W        W11296  15.273  30.656  11.101
39626W        W11297  41.425   2.333  12.026
39627W        W11298  39.938  27.482   3.698
39628W        W11299   4.545  34.936   2.665
39629W        W11300  23.648  44.705   3.428
39630W        W11301  35.542   1.535  13.837
39631W        W11302  38.905  19.473   4.444
39632W        W11303  44.761  24.650  11.102
39633W        W11304  44.624  44.709  14.235
39634W        W11305  34.454  28.962  14.971
39635W        W11306  31.013  39.413   4.688
39636W        W11307   8.207  36.437  11.877
39637W        W11308  30.636  17.330  10.814
39638W        W11309   6.172  21.819   4.147
39639W        W11310  37.086   0.456  13.475
39640W        W11311   4.742  15.703  11.573
39641W        W11312  38.808  20.087   3.706
39642W        W11313  41.035  35.139  13.170
39643W        W11314  19.811  15.162  12.517
39644W        W11315   2.963  36.810  11.956
39645W        W11316  14.260  32.263  11.944
39646W        W11317  28.956  30.881   3.832
39647W        W11318  14.273  30.619  12.941
39648W        W11319  13.231   9.320  13.634
39649W        W11320  16.975  20.878  11.086
39650W        W11321  34.000  19.450   4.087
39651W        W11322   9.730  22.767  13.620
39652W        W11323   9.141  42.250  14.503
39653W        W11324  20.067  11.875   2.477
39654W        W11325   1.625  24.559   1.215
39655W        W11326   6.743   6.097  12.455
39656W        W11327  18.461  18.813   1.820
39657W        W11328  23.167  15.001   0.388
39658W        W11329  26.796  21.942   2.824
39659W        W11330  21.369  44.349   0.359
39660W        W11331  14.828  29.024   1.980
39661W        W11332   6.176  24.549   3.211
39662W        W11333  12.032  16.645   1.267
39663W        W11334  18.717   1.063   1.256
39664W        W11335  37.983  35.292   2.034
39665W        W11336  26.130  39.549  14.828
39666W        W11337  15.479  37.878   3.679
39667W        W11338  32.407  37.107  12.459
39668W        W11339  24.913   5.135  11.548
39669W        W11340  44.221   8.216  11.082
39670W        W11341  37.776  24.997   4.143
39671W        W11342  30.593  26.758  14.005
39672W        W11343  22.278   7.896  12.999
39673W        W11344  11.085  23.291   2.329
39674W        W11345  43.540   8.624  12.547
39675W        W11346  40.524  44.662  12.801
39676W        W11347   9.711  22.569   4.132
39677W        W11348  33.880  35.340   4.473
39678W        W11349   4.934  31.575  10.484
39679W        W11350  26.604  32.369  14.336
39680W        W11351  43.904  25.134  14.014
39681W        W11352  30.389   3.769  14.784
39682W        W11353  24.661  14.611  14.526
39683W        W11354  24.700  42.673  14.192
39684W        W11355   3.199  16.745  14.981
39685W        W11356   1.923  44.844   3.391
39686W        W11357  33.871  41.573   1.428
39687W        W11358  18.332  10.068   0.334
39688W        W11359  20.730  21.197   4.202
39689W        W11360   7.191  12.703   2.388
39690W        W11361  37.556  41.945   2.272
39691W        W11362   5.095  32.431   2.785
39692W        W11363   7.727  27.911  13.055
39693W        W11364  29.450   4.364   0.830
39694W        W11365  26.216   3.378  14.745
39695W        W11366  37.948  34.678   1.238
39696W        W11367   7.629   6.727   3.366
39697W        W11368  18.132  28.099  12.955
39698W        W11369   7.628   3.531   3.192
39699W        W11370  24.173  17.035   1.323
39700W        W11371   9.432  44.914   3.577
39701W        W11372   5.678  35.613   2.653
39702W        W11373  38.849  20.480   4.562
39703W        W11374  15.058  10.260  11.670
39704W        W11375  26.025  11.793   2.049
39705W        W11376  41.506   3.990   2.730
39706W        W11377  10.295   8.021  12.571
39707W        W11378  16.874  37.835  12.071
39708W        W11379  21.154  40.075  12.905
39709W        W11380  19.136  12.662   0.289
39710W        W11381   3.984   8.882   1.840
39711W        W11382   0.127   1.729   2.706
39712W        W11383  17.526   0.497  10.693
39713W        W11384  43.445  20.118   1.882
39714W        W11385  24.167   7.738   4.230
39715W        W11386  31.916  21.681   1.738
39716W        W11387  17.079  26.735  12.014
39717W        W11388  34.765   5.638  10.279
39718W        W11389  41.014   8.791   4.499
39719W        W11390  31.618  40.444   0.485
39720W        W11391  26.484   6.890  10.530
39721W        W11392  28.268  17.040  10.191
39722W        W11393   6.991  31.594  12.979
39723W        W11394  23.228  26.245  12.540
39724W        W11395  39.959   4.018  12.921
39725W        W11396  27.588  31.982   1.573
39726W        W11397  10.768   2.662  12.907
39727W        W11398   5.910  15.137   3.240
39728W        W11399  31.085  14.903   1.263
39729W        W11400  29.608  27.998   4.608
39730W        W11401  38.141  43.900  13.091
39731W        W11402   3.153  38.932  11.614
39732W        W11403  12.630  37.479   3.397
39733W        W11404  18.569  42.891   3.106
39734W        W11405   3.108  21.018  11.952
39735W        W11406  40.033  38.852  14.919
39736W        W11407  26.200  18.345  11.110
39737W        W11408  20.611  33.901   3.155
39738W        W11409  16.442  19.665   3.650
39739W        W11410  41.249  38.824   5.080
39740W        W11411   2.701   6.589  12.976
39741W        W11412  39.575  13.733   0.912
39742W        W11413  10.206   2.935   4.896
39743W        W11414  12.147  39.280   3.210
39744W        W11415  40.553   5.439  14.072
39745W        W11416  34.583  25.990   1.831
39746W        W11417  13.876  24.104   1.344
39747W        W11418   5.211  12.320  14.331
39748W        W11419  29.515  43.520  12.803
39749W        W11420   7.690  29.287  14.057
39750W        W11421   7.400  12.482   1.946
39751W        W11422   5.769  31.674   1.707
39752W        W11423  39.843  44.215   4.543
39753W        W11424   1.280  22.073  14.517
39754W        W11425   6.555   8.091   2.238
39755W        W11426  43.451   6.930   0.835
39756W        W11427  33.468  44.864  10.262
39757W        W11428  13.706  19.071   1.958
39758W        W11429  29.702   3.570  12.083
39759W        W11430  23.459   7.267  13.449
39760W        W11431  18.408  22.480   1.681
39761W        W11432  34.674  14.126   4.946
39762W        W11433   7.739  10.132   2.676
39763W        W11434   3.047  22.566   5.038
39764W        W11435  16.569  24.123  11.463
39765W        W11436  31.286  39.493  14.065
39766W        W11437  16.606  41.002   4.103
39767W        W11438  28.166  19.068   3.453
39768W        W11439  34.093  14.545  12.026
39769W        W11440   7.621  25.030   4.719
39770W        W11441   0.879  35.970   0.976
39771W        W11442  10.627  24.092  14.254
39772W        W11443   6.812  27.018   4.355
39773W        W11444  15.722  21.310  11.564
39774W        W11445   1.762  19.604   2.206
39775W        W11446  29.369  11.159   3.131
39776W        W11447  15.748  42.963   1.686
39777W        W11448   0.112  20.228  12.828
39778W        W11449  36.318  43.408   3.206
39779W        W11450  26.278  17.744  13.245
39780W        W11451  37.872  38.401  14.514
39781W        W11452  13.947   0.256  14.321
39782W        W11453  19.280  34.335  13.030
39783W        W11454   9.354  29.601   2.173
39784W        W11455  17.266  19.466   5.385
39785W        W11456   5.737  23.140  13.505
39786W        W11457   9.777  15.178  11.370
39787W        W11458  15.051  30.526  11.594
39788W        W11459  41.885  22.738  12.698
39789W        W11460  19.960  39.997   4.607
39790W        W11461  36.301   2.218   2.670
39791W        W11462   2.021  23.588   3.863
39792W        W11463   9.642   2.850  14.782
39793W        W11464  31.456  33.088   0.423
39794W        W11465  37.329  34.364   2.278
39795W        W11466  39.538   4.378  12.906
39796W        W11467  23.122  13.351   3.744
39797W        W11468  15.107  20.445   4.014
39798W        W11469  31.970  44.863   4.770
39799W        W11470  29.567  40.771   1.645
39800W        W11471  19.784   5.200   1.322
39801W        W11472   9.912  11.118   4.273
39802W        W11473   1.793   8.113   4.872
39803W        W11474  15.284  11.708  11.427
39804W        W11475  40.998  37.257   1.907
39805W        W11476  28.301  15.203   0.401
39806W        W11477  23.620  17.427   4.464
39807W        W11478  26.256  18.186   4.635
39808W        W11479   2.071  16.253   2.723
39809W        W11480  27.374   3.444  13.933
39810W        W11481  32.554  37.325  14.294
39811W        W11482  28.670   8.750   4.096
39812W        W11483  17.584  33.468   1.683
39813W        W11484  41.254  35.400   4.312
39814W        W11485  22.763  17.287  11.521
39815W        W11486  12.703  17.028  14.354
39816W        W11487  20.607  35.400  12.279
39817W        W11488  33.028   1.478   0.245
39818W        W11489   1.342  44.933   4.584
39819W        W11490   0.078  27.747   0.847
39820W        W11491  18.914  36.104  14.981
39821W        W11492  29.140  19.803  14.522
39822W        W11493  41.420   9.327  12.461
39823W        W11494   2.610  11.380  13.211
39824W        W11495   4.320  18.640   3.148
39825W        W11496  40.144  25.573   4.353
39826W        W11497  15.307  41.933  13.801
39827W        W11498   8.351  27.109   1.184
39828W        W11499  10.775  39.380  14.573
39829W        W11500   1.168  28.769  13.408
39830W        W11501  26.840   4.912  10.535
39831W        W11502   3.698  23.772  12.055
39832W        W11503   1.834   0.976  11.630
39833W        W11504  22.007  27.534   3.216
39834W        W11505   4.125  15.521  12.078
39835W        W11506  22.150  39.580  14.941
39836W        W11507   8.672  42.980  12.601
39837W        W11508   5.519   8.394  13.155
39838W        W11509  16.104   3.229  13.004
39839W        W11510  34.642  22.258  12.836
39840W        W11511  37.081  20.034   0.443
39841W        W11512   6.550  39.306  11.541
39842W        W11513  39.423  14.907   0.807
39843W        W11514  27.991  22.702   0.427
39844W        W11515  36.598   7.291  11.217
39845W        W11516   6.450  41.794  11.373
39846W        W11517  21.895  34.096   2.795
39847W        W11518   3.212  28.112   1.331
39848W        W11519  12.642   1.412  10.498
39849W        W11520  44.314   3.470  10.205
39850W        W11521  32.659  21.065   1.873
39851W        W11522  44.920  16.215  11.199
39852W        W11523  19.233   0.514  14.858
39853W        W11524  31.090  23.673  10.173
39854W        W11525  14.962  25.701   3.724
39855W        W11526  23.639  13.380   3.673
39856W        W11527   0.301  28.406   0.999
39857W        W11528  42.834  25.057  11.844
39858W        W11529  11.807   9.624  13.555
39859W        W11530  27.648  25.265   0.740
39860W        W11531   3.131  15.345  10.829
39861W        W11532  44.782  32.128   0.518
39862W        W11533  18.531  35.952   2.252
39863W        W11534  13.021  22.113  12.144
39864W        W11535  17.571  10.778   0.354
39865W        W11536  23.449  24.072   2.610
39866W        W11537   0.692  19.067   0.770
39867W        W11538  39.876   3.929   4.814
39868W        W11539   9.560   6.163   2.120
39869W        W11540  44.024  25.922  13.540
39870W        W11541   2.763  27.088  10.700
39871W        W11542   0.475  24.137   3.098
39872W        W11543  44.701  40.278  11.993
39873W        W11544  13.217  22.277  13.963
39874W        W11545  34.602  27.050  10.500
39875W        W11546   1.233  18.675   0.569
39876W        W11547  26.689  27.188  14.079
39877W        W11548  27.965  31.903  14.901
39878W        W11549   8.514  42.821  10.666
39879W        W11550  12.859  44.017  11.546
39880W        W11551  30.044  32.899   4.575
39881W        W11552  11.643  38.992  14.706
39882W        W11553  26.608  15.041   3.260
39883W        W11554  30.645  13.326   4.154
39884W        W11555  32.706  31.951   4.533
39885W        W11556   2.367  34.253  13.295
39886W        W11557  41.414   2.731   4.543
39887W        W11558  26.912  26.903   0.434
39888W        W11559  29.579  37.900   1.670
39889W        W11560  23.543  14.166  10.717
39890W        W11561  27.821  25.719   0.544
39891W        W11562  14.082  17.984  11.645
39892W        W11563  23.618  35.080   3.258
39893W        W11564  21.371  40.889   3.417
39894W        W11565   4.672  30.553  14.756
39895W        W11566  17.756   0.927  10.505
39896W        W11567  24.178  37.454   1.249
39897W        W11568  18.002   8.192  10.582
39898W        W11569  35.367  39.904  12.467
39899W        W11570  25.686  19.579   9.958
39900W        W11571  41.376  14.690   3.381
39901W        W11572  15.849  24.829  12.248
39902W        W11573   4.725   6.569   1.286
39903W        W11574  31.003  31.046  14.281
39904W        W11575  40.742   0.493   1.845
39905W        W11576  29.623   4.724  13.185
39906W        W11577  12.581  19.327  13.456
39907W        W11578  39.000  32.923  12.917
39908W        W11579  16.663  18.309  11.641
39909W        W11580   5.923   8.247  11.730
39910W        W11581   0.451   2.943   4.393
39911W        W11582   9.603   1.789   0.756
39912W        W11583   6.597  30.848   2.957
39913W        W11584  10.659   6.658   4.174
39914W        W11585   5.863  33.328   1.318
39915W        W11586  28.952   4.642  13.848
39916W        W11587  11.104  19.414   3.120
39917W        W11588  27.498   3.698   4.222
39918W        W11589  24.034   6.792  12.009
39919W        W11590  43.747  28.709   3.205
39920W        W11591  29.334  14.083   3.630
39921W        W11592  25.450  24.195   0.297
39922W        W11593  22.073  31.142   0.728
39923W        W11594  22.066  44.473   1.335
39924W        W11595  17.106  40.445  13.054
39925W        W11596  11.707   2.427   1.364
39926W        W11597  43.972  24.922  13.489
39927W        W11598   2.682  11.263  12.711
39928W        W11599  21.583  17.207   1.647
39929W        W11600  33.057  30.534  13.547
39930W        W11601   3.238  21.668  13.085
39931W        W11602   0.336  41.855  12.937
39932W        W11603  41.212   1.636   0.393
39933W        W11604  11.729  40.043  13.451
39934W        W11605  26.648  24.753  13.337
39935W        W11606  41.080   1.924   3.767
39936W        W11607  14.869  38.002  14.187
39937W        W11608  24.183  26.935  13.534
39938W        W11609  10.806  19.180  11.737
39939W        W11610  15.773  10.822   2.740
39940W        W11611  26.691  31.019  12.476
39941W        W11612  37.894  19.226  13.199
39942W        W11613   8.907  33.564  10.479
39943W        W11614  28.494  30.445  11.240
39944W        W11615   0.329  23.499   4.059
39945W        W11616  39.935  30.131   0.846
39946W        W11617  39.286  15.231   1.914
39947W        W11618   5.126  10.138  12.342
39948W        W11619  28.827   7.985   3.038
39949W        W11620  20.937  39.973   1.915
39950W        W11621  41.901  21.686  14.478
39951W        W11622  37.956  21.511   4.573
39952W        W11623   7.346  12.445   2.864
39953W        W11624   4.618   7.149   5.006
39954W        W11625  15.988  38.311  10.637
39955W        W11626  13.833  44.829   2.882
39956W        W11627  36.567  32.129   4.575
39957W        W11628  25.586   0.108   1.729
39958W        W11629  41.840  16.894  12.467
39959W        W11630  34.547  27.946  11.816
39960W        W11631  20.675  19.298  11.638
39961W        W11632  42.919  10.267   4.505
39962W        W11633   7.356  35.961  10.998
39963W        W11634  16.713  37.221   1.827
39964W        W11635  35.263   6.759  12.079
39965W        W11636  37.746  41.838  13.182
39966W        W11637  43.957  10.889  14.491
39967W        W11638  39.407   9.848   2.657
39968W        W11639  11.798  31.674   3.788
39969W        W11640  24.791  38.112  12.847
39970W        W11641  36.889  15.669  11.249
39971W        W11642  44.065  41.363   5.031
39972W        W11643  26.063  21.632   4.494
39973W        W11644  15.307  13.722  11.503
39974W        W11645  18.525  22.766  11.063
39975W        W11646  13.868   8.470   3.919
39976W        W11647  28.507  31.172   2.250
39977W        W11648  22.765  23.750   2.273
39978W        W11649  31.963   3.252   1.383
39979W        W11650  14.226  12.924   1.699
39980W        W11651  19.514  16.317   3.860
39981W        W11652  34.889  17.142   0.935
39982W        W11653  18.421  23.487   0.897
39983W        W11654  14.224  15.597   4.986
39984W        W11655  35.370  17.590  11.451
39985W        W11656  13.851  28.712   0.688
39986W        W11657   8.624   8.139  14.856
39987W        W11658   5.859   5.822  11.212
39988W        W11659  16.674  14.784  14.354
39989W        W11660   2.678  12.701   2.922
39990W        W11661  15.377  39.380  12.343
39991W        W11662  40.439  37.308  12.776
39992W        W11663  35.135  43.281   3.731
39993W        W11664   9.605  32.301  11.167
39994W        W11665  43.250  13.912   3.525
39995W        W11666  39.322  39.137  14.046
39996W        W11667  15.362  41.405  10.914
39997W        W11668   5.208  19.994   2.261
39998W        W11669  29.214  41.421  10.999
39999W        W11670   5.435  30.681  12.453
40000W        W11671   5.025   9.455  13.360
40001W        W11672  38.638  10.221   3.715
40002W        W11673  11.752  15.648   3.826
40003W        W11674  41.571   8.630  11.211
40004W        W11675  44.330  16.603  14.240
40005W        W11676   0.763  30.280   2.071
40006W        W11677  10.291  32.087  13.446
40007W        W11678  24.673   1.758   0.815
40008W        W11679  26.950  28.047   4.466
40009W        W11680  20.629  33.201   0.430
40010W        W11681  12.128  36.014  13.101
40011W        W11682  33.609   5.409   0.302
40012W        W11683  38.430  44.967   2.354
40013W        W11684  29.044   9.603   4.573
40014W        W11685   3.412  33.356  12.471
40015W        W11686  11.759  34.084  14.170
40016W        W11687  28.571  26.669   4.259
40017W        W11688  15.556  13.457  13.877
40018W        W11689  37.699   7.345   3.762
40019W        W11690  38.970   6.723  14.901
40020W        W11691  29.006  37.052  13.470
40021W        W11692  18.892   4.715   3.734
40022W        W11693  33.621  27.003  11.389
40023W        W11694  41.594  34.931  14.997
40024W        W11695   6.596  36.519   0.573
40025W        W11696  36.559  35.508   1.772
40026W        W11697  29.891  12.022  13.055
40027W        W11698  33.225  36.354  10.415
40028W        W11699   4.961  32.610   3.304
40029W        W11700  21.468   4.373  13.044
40030W        W11701  16.640   0.467   1.368
40031W        W11702  30.002  37.481   4.277
40032W        W11703  11.485  40.816   3.464
40033W        W11704  19.668   7.295   3.354
40034W        W11705  35.505  44.240  14.336
40035W        W11706  24.643   2.695   0.834
40036W        W11707  20.125  36.142  12.861
40037W        W11708  27.523  25.166   4.902
40038W        W11709  24.342   8.345  13.501
40039W        W11710   3.880   1.435  13.864
40040W        W11711  30.507  35.903  11.371
40041W        W11712  21.921  23.059  13.882
40042W        W11713  25.658  18.332   1.742
40043W        W11714   3.905  13.030   3.211
40044W        W11715  41.272  40.488  13.321
40045W        W11716   9.780  33.433   0.245
40046W        W11717   9.731  33.923  12.418
40047W        W11718  36.901  42.699   3.218
40048W        W11719  39.972  24.245   4.329
40049W        W11720  20.866   9.900  11.964
40050W        W11721  21.762  23.917  11.937
40051W        W11722  43.967  27.058   1.171
40052W        W11723  19.548  11.195  14.733
40053W        W11724   2.113  21.773   4.637
40054W        W11725  18.764  44.203  11.914
40055W        W11726  32.461  27.284   1.980
40056W        W11727  43.262   6.267   1.317
40057W        W11728  33.969  22.910   0.424
40058W        W11729   9.325  12.012   3.379
40059W        W11730  22.001  31.896  13.387
40060W        W11731  20.076   2.738  12.183
40061W        W11732  40.505  15.310   4.481
40062W        W11733  43.337  37.540   5.296
40063W        W11734  26.536  29.474  14.574
40064W        W11735  38.540   0.920   0.452
40065W        W11736  27.543  41.058   4.679
40066W        W11737  11.625  26.765   1.377
40067W        W11738  34.357  27.004   3.744
40068W        W11739  38.388  20.586  12.774
40069W        W11740  19.675  18.532  10.800
40070W        W11741  19.754  37.158  14.027
40071W        W11742  31.969  11.232  14.868
40072W        W11743  39.107  26.798  14.892
40073W        W11744   1.519   5.764  12.958
40074W        W11745  27.224   7.278  12.849
40075W        W11746  21.709  22.514   3.875
40076W        W11747  29.187  24.488   3.850
40077W        W11748  24.692  28.220   2.434
40078W        W11749  37.532  31.175   0.008
40079W        W11750  14.145  30.348   4.660
40080W        W11751  25.142   6.164  14.710
40081W        W11752  38.620  13.732   4.218
40082W        W11753   8.107  37.337  11.408
40083W        W11754  35.771  36.832   0.555
40084W        W11755  40.090   1.303   1.012
40085W        W11756  35.468  23.015  12.475
40086W        W11757  16.689  27.047  12.066
40087W        W11758  14.515  39.631  11.396
40088W        W11759  14.381  10.754  12.954
40089W        W11760   5.469  33.142  12.531
40090W        W11761  30.166  35.417  11.153
40091W        W11762  12.065  28.969   4.663
40092W        W11763   3.284  23.222  12.640
40093W        W11764  43.177  24.973   2.692
40094W        W11765  17.498  42.828  12.952
40095W        W11766  15.147  39.862   4.172
40096W        W11767   0.235  35.170   3.304
40097W        W11768  37.799  15.672   0.228
40098W        W11769  29.251   3.762  11.928
40099W        W11770  20.823   9.876   2.066
40100W        W11771  18.689  19.655   3.602
40101W        W11772  38.458  26.724  13.565
40102W        W11773  28.276  39.077   2.296
40103W        W11774  15.970  28.576   3.595
40104W        W11775  29.141   3.795   0.446
40105W        W11776  40.820  29.509  12.487
40106W        W11777  10.623  40.222  12.154
40107W        W11778  42.145   4.700   9.999
40108W        W11779   3.730  34.101   3.329
40109W        W11780  25.036   1.302   4.951
40110W        W11781  33.825  42.032   4.910
40111W        W11782  31.235  24.618  13.538
40112W        W11783  44.787   6.354   1.156
40113W        W11784  11.433  32.171   5.121
40114W        W11785  20.853  41.217   4.974
40115W        W11786  39.584  14.593  12.395
40116W        W11787   0.192  38.920   3.384
40117W        W11788  25.451  22.774  13.020
40118W        W11789  23.789  25.561  14.973
40119W        W11790  17.077  16.296   1.293
40120W        W11791  10.244  43.583   3.635
40121W        W11792  27.544  30.746  12.073
40122W        W11793  24.073  21.949   1.228
40123W        W11794  41.252  29.763  13.779
40124W        W11795  37.571   0.496  10.306
40125W        W11796  43.704  33.077  13.935
40126W        W11797  10.933  28.581   0.901
40127W        W11798  32.401  28.996  14.789
40128W        W11799  32.506   5.930  12.885
40129W        W11800  23.052  10.208   2.237
40130W        W11801  27.618  20.042   3.067
40131W        W11802   1.159  33.009  13.090
40132W        W11803  36.899  23.183  11.338
40133W        W11804   1.704  17.531   1.953
40134W        W11805  37.947   8.947   3.948
40135W        W11806  32.955   7.896   3.633
40136W        W11807   5.905  42.537   2.914
40137W        W11808  22.330  38.653   1.670
40138W        W11809  23.438  38.886   1.964
40139W        W11810  35.481   8.449   4.957
40140W        W11811  42.350  38.618  11.044
40141W        W11812  22.479  16.584  11.027
40142W        W11813   7.740  30.698  10.214
40143W        W11814   4.241   9.711   1.007
40144W        W11815  33.608  30.376  14.434
40145W        W11816   4.508  16.213  10.575
40146W        W11817   2.019  11.780   1.701
40147W        W11818  36.752  32.971  11.446
40148W        W11819   3.859  25.669  14.837
40149W        W11820  21.520  33.687  14.951
40150W        W11821  28.678  20.608  12.311
40151W        W11822  23.594  20.732  11.696
40152W        W11823  35.140   9.902   2.520
40153W        W11824   0.235   3.003   1.745
40154W        W11825  25.841  10.392  12.936
40155W        W11826  19.969  24.128  14.956
40156W        W11827  20.771  30.862  12.148
40157W        W11828   1.015   8.946   1.343
40158W        W11829  34.348   4.659   3.293
40159W        W11830  26.587  36.086   3.254
40160W        W11831  24.265  35.905   2.783
40161W        W11832  40.599  27.107  14.515
40162W        W11833   5.461  21.196  13.775
40163W        W11834  33.336  22.033   0.010
40164W        W11835   3.533   2.648   0.552
40165W        W11836  13.924  30.461  14.293
40166W        W11837   1.437  26.180   0.918
40167W        W11838   9.683  23.167  13.284
40168W        W11839  12.735   3.632  14.981
40169W        W11840  24.036  12.085   0.438
40170W        W11841  33.628  17.141  10.860
40171W        W11842  11.603  44.014   0.956
40172W        W11843  12.663  30.193   4.295
40173W        W11844  12.849  13.127  11.473
40174W        W11845   0.831  31.387   4.295
40175W        W11846   9.283  18.035  14.181
40176W        W11847  35.841  15.872   0.316
40177W        W11848  35.505   3.952   4.531
40178W        W11849  18.427  23.296   5.044
40179W        W11850  33.413  42.467   0.084
40180W        W11851  27.651  29.882  12.519
40181W        W11852  34.561   9.925  13.380
40182W        W11853  18.062  26.852  13.504
40183W        W11854   5.867  15.195   0.187
40184W        W11855  16.278  22.216   2.412
40185W        W11856  28.471   0.552   2.100
40186W        W11857  15.193  30.923   0.003
40187W        W11858  42.640  16.636   1.261
40188W        W11859  25.565  25.058   1.489
40189W        W11860  39.102   0.016  12.781
40190W        W11861  29.180  35.898   3.165
40191W        W11862  14.089  44.979   1.307
40192W        W11863  32.466  35.538  10.657
40193W        W11864   0.911  26.476  13.020
40194W        W11865  26.724  43.404  14.772
40195W        W11866  29.433  10.601   4.565
40196W        W11867  34.752  18.524  13.123
40197W        W11868  43.976  23.314  12.481
40198W        W11869  11.725  23.447   3.578
40199W        W11870  16.867  34.657  12.482
40200W        W11871  32.656  24.256  12.520
40201W        W11872   4.141  33.453   4.366
40202W        W11873   8.851  39.377  12.410
40203W        W11874  27.162  10.937   4.690
40204W        W11875  41.626  32.128  13.033
40205W        W11876  20.033  16.317  13.033
40206W        W11877   2.537   9.485   1.702
40207W        W11878  26.652  42.586  11.577
40208W        W11879  28.668  21.747   3.388
40209W        W11880   9.682  20.308   2.242
40210W        W11881  44.475  39.475   9.430
40211W        W11882  12.587  43.342   0.707
40212W        W11883  13.869   7.353  13.078
40213W        W11884  29.491   0.822   2.626
40214W        W11885  11.760  27.515  10.317
40215W        W11886  37.428  41.705  11.211
40216W        W11887  44.569   7.749   1.830
40217W        W11888  27.824  16.495   3.644
40218W        W11889  28.534  36.535  10.877
40219W        W11890  31.078  20.123   1.619
40220W        W11891  15.885  26.138  12.544
40221W        W11892  32.385  35.135   2.233
40222W        W11893  14.139  40.700   0.032
40223W        W11894  19.126  20.271   4.225
40224W        W11895  20.100  35.621  12.958
40225W        W11896  29.773  17.935   5.054
40226W        W11897  22.282  42.474  13.002
40227W        W11898  35.028  35.553  15.000
40228W        W11899  22.639  32.871  11.162
40229W        W11900  25.929  21.762   4.018
40230W        W11901  37.125  27.658  14.319
40231W        W11902  32.937   2.251  10.752
40232W        W11903  42.893  41.037  13.065
40233W        W11904  24.215  42.487  14.229
40234W        W11905   7.124  29.999   1.713
40235W        W11906  42.710   8.645  14.851
40236W        W11907  38.514  19.676  10.734
40237W        W11908  16.711  23.752  12.475
40238W        W11909  26.394  17.180  12.698
40239W        W11910  28.382  30.149  14.543
40240W        W11911  40.172  25.063   0.156
40241W        W11912  38.621  44.363  12.223
40242W        W11913  28.121  33.539   1.769
40243W        W11914  24.417  43.077  13.981
40244W        W11915   7.048   2.198   1.365
40245W        W11916  14.071  24.466  10.699
40246W        W11917  10.291   5.022   1.157
40247W        W11918  38.398  31.707  12.439
40248W        W11919   3.317  15.591   3.635
40249W        W11920  39.970  19.071  11.081
40250W        W11921  38.450   4.611   1.763
40251W        W11922  40.462  28.824   2.408
40252W        W11923  31.440  19.774   0.150
40253W        W11924  27.708  21.042   2.038
40254W        W11925  28.114  34.918   1.222
40255W        W11926  35.367   6.206  11.978
40256W        W11927  31.180  42.962   2.205
40257W        W11928  33.962  42.821   0.745
40258W        W11929  38.455  12.914   1.724
40259W        W11930  17.267   4.407  11.301
40260W        W11931  10.100  10.740  11.396
40261W        W11932  39.189  41.322  13.503
40262W        W11933   0.847   2.533   2.684
40263W        W11934  31.108  35.035   2.283
40264W        W11935  35.050  17.188  13.090
40265W        W11936  30.178  26.906   0.821
40266W        W11937   6.421  14.771   1.268
40267W        W11938  26.588  16.505  10.877
40268W        W11939  26.230   6.641   0.643
40269W        W11940  21.087  31.130   0.936
40270W        W11941  22.312   9.780   1.724
40271W        W11942  40.039  40.459   2.743
40272W        W11943  24.558  12.120   2.581
40273W        W11944   6.299  27.288  12.453
40274W        W11945  28.627   1.005   2.333
40275W        W11946  20.633  15.661   4.577
40276W        W11947  15.717   5.798  10.787
40277W        W11948  24.942  27.718   0.835
40278W        W11949  12.853  43.452  14.799
40279W        W11950  19.922  33.614  13.112
40280W        W11951  10.448   1.040  13.072
40281W        W11952  23.761  19.234  11.933
40282W        W11953  24.955  43.427  14.403
40283W        W11954  17.665   0.174  12.136
40284W        W11955   4.247  42.408   1.236
40285W        W11956   4.486   2.832  12.642
40286W        W11957  25.514  25.512   0.762
40287W        W11958  22.299  28.986  12.133
40288W        W11959  18.120   3.165  10.833
40289W        W11960  32.241  14.253  12.431
40290W        W11961  23.837  16.854   0.475
40291W        W11962  36.336  41.308  14.385
40292W        W11963  30.666  31.586  14.924
40293W        W11964  36.609  26.358   2.221
40294W        W11965  26.576  34.534  13.782
40295W        W11966  36.415  10.723   1.602
40296W        W11967  20.182  14.395   2.454
40297W        W11968  35.051   2.896  10.985
40298W        W11969  18.764  12.367   3.217
40299W        W11970  22.018  11.419  11.574
40300W        W11971  10.751  21.687   4.525
40301W        W11972   6.961  15.396   1.234
40302W        W11973   2.017  20.575   2.131
40303W        W11974  34.370  29.972   4.363
40304W        W11975  42.690  42.800  10.617
40305W        W11976  44.467   5.192   4.100
40306W        W11977   9.894  24.835   3.649
40307W        W11978  44.998  14.992  10.607
40308W        W11979  44.798  39.743  13.433
40309W        W11980  44.066   3.494   2.403
40310W        W11981  26.318   0.517  11.548
40311W        W11982   0.886  31.994  12.666
40312W        W11983   0.843   7.509  12.570
40313W        W11984  25.872  12.851  13.307
40314W        W11985  19.112  18.697   3.761
40315W        W11986  43.916   3.805  12.536
40316W        W11987  31.055  29.219   0.280
40317W        W11988  16.095  38.337  14.119
40318W        W11989   1.530   1.742   1.242
40319W        W11990   6.680  34.883  10.781
40320W        W11991  26.026   0.193   3.198
40321W        W11992  16.383  26.503   3.830
40322W        W11993  12.921  40.830   2.502
40323W        W11994  23.286  17.320   1.367
40324W        W11995  13.336  12.366  10.829
40325W        W11996   0.818  10.687  13.432
40326W        W11997  13.005  27.190   4.227
40327W        W11998  21.488  36.584  13.390
40328W        W11999   5.418  24.632   2.641
40329W        W12000  26.149  13.627  13.072
40330W        W12001  34.934  44.947   3.253
40331W        W12002  20.179   2.378   3.256
40332W        W12003  36.354  13.290   0.357
40333W        W12004  31.607   6.224   1.761
40334W        W12005  17.783  25.468  13.475
40335W        W12006   8.368   7.765   4.617
40336W        W12007  39.625   4.316  14.317
40337W        W12008  19.164  41.857  12.955
40338W        W12009  25.980   3.249   0.197
40339W        W12010  23.204  28.113  12.758
40340W        W12011  22.484   7.440   4.981
40341W        W12012  20.252  38.444  11.443
40342W        W12013  19.943  25.348   1.267
40343W        W12014  10.920  34.389   3.219
40344W        W12015  26.795  43.514   4.596
40345W        W12016  32.921  14.218  11.161
40346W        W12017  22.189  38.951  11.182
40347W        W12018  25.237  43.431  11.494
40348W        W12019   2.176   4.827  10.241
40349W        W12020   3.955   6.515   2.899
40350W        W12021  27.068   5.737  14.910
40351W        W12022  36.456  38.274   1.942
40352W        W12023  19.765  44.313   0.509
40353W        W12024  42.889  40.762   2.356
40354W        W12025  15.433  36.863  11.195
40355W        W12026  12.168  35.021   1.134
40356W        W12027   7.649  24.102   1.160
40357W        W12028  27.372  30.675  12.908
40358W        W12029  41.554  13.234   1.741
40359W        W12030  27.293  21.957   1.647
40360W        W12031  14.186  32.628  11.561
40361W        W12032  22.388   5.649   3.923
40362W        W12033  14.399  30.990   0.547
40363W        W12034  17.202  22.199   4.761
40364W        W12035  21.667  27.128   0.661
40365W        W12036  15.237  36.516  14.453
40366W        W12037   2.709  40.184   2.238
40367W        W12038  32.204   2.034   0.853
40368W        W12039  18.627  28.201  14.968
40369W        W12040  39.566  38.144  11.562
40370W        W12041  12.816   9.621   4.396
40371W        W12042   5.165  42.075  13.451
40372W        W12043  32.467   7.678  14.921
40373W        W12044  33.822  44.749   4.466
40374W        W12045   3.967   2.387   2.897
40375W        W12046  34.953  30.744  13.332
40376W        W12047  15.956  34.030   1.125
40377W        W12048  38.373  15.043   3.705
40378W        W12049   4.947  40.238   4.155
40379W        W12050  36.512  39.418   9.722
40380W        W12051   4.791  36.170   2.326
40381W        W12052  39.526   0.403  11.787
40382W        W12053  23.810  19.301  10.646
40383W        W12054  11.905  17.770  12.145
40384W        W12055  42.616  30.032  12.503
40385W        W12056  31.941   2.842  11.190
40386W        W12057  24.985  25.171   0.925
40387W        W12058   3.673  41.712   2.194
40388W        W12059  25.048  34.012   0.101
40389W        W12060  33.960  40.083  12.965
40390W        W12061  34.052  13.232  11.100
40391W        W12062  33.171   5.304  13.959
40392W        W12063  32.806   0.500   0.875
40393W        W12064   4.729  19.369   4.164
40394W        W12065  31.626  30.993   0.267
40395W        W12066  16.083  17.322  10.334
40396W        W12067  37.158  15.080   1.236
40397W        W12068  43.885  22.467   1.341
40398W        W12069  23.239  32.069  14.509
40399W        W12070   9.327   3.461  13.979
40400W        W12071  36.456  35.960   4.508
40401W        W12072  38.060  40.001  11.083
40402W        W12073  18.977   2.865  12.079
40403W        W12074   2.380  44.484   3.627
40404W        W12075  15.834   5.581  13.479
40405W        W12076  32.347  38.070   2.336
40406W        W12077   8.810   9.298   2.840
40407W        W12078  31.688   2.102   0.859
40408W        W12079  27.417   9.154  13.803
40409W        W12080  12.800  19.615   2.230
40410W        W12081   0.234  11.835  14.332
40411W        W12082  44.532   5.694  10.739
40412W        W12083   0.526  26.104   2.435
40413W        W12084  18.909   7.644  13.893
40414W        W12085  29.765  31.522  11.968
40415W        W12086  32.224  41.635  14.020
40416W        W12087  11.438   0.259   4.056
40417W        W12088  17.732   4.904  12.932
40418W        W12089  34.500   2.126   4.637
40419W        W12090  26.986  13.187   4.119
40420W        W12091   5.855  44.361   4.426
40421W        W12092  25.769  17.234  14.934
40422W        W12093  24.991   5.778   4.625
40423W        W12094  10.838   8.663   4.012
40424W        W12095   3.788   4.625   4.640
40425W        W12096   9.710  20.271   3.270
40426W        W12097  42.847  13.576  11.965
40427W        W12098   6.451  32.622   4.132
40428W        W12099  16.096  43.742   3.989
40429W        W12100  11.235  38.913  10.980
40430W        W12101  31.557   8.299   2.876
40431W        W12102  21.620   3.019  10.988
40432W        W12103  38.440  26.195   4.425
40433W        W12104  28.544  14.201   4.093
40434W        W12105  39.824  23.389  12.041
40435W        W12106  44.599   7.451  13.955
40436W        W12107  38.964  40.685   5.000
40437W        W12108  28.418   3.242   4.299
40438W        W12109   7.572   9.980  12.398
40439W        W12110  44.936  25.638   1.322
40440W        W12111  44.405  36.400  12.155
40441W        W12112  24.722  25.707   0.227
40442W        W12113  44.922  33.517  10.242
40443W        W12114   8.163   1.965   3.245
40444W        W12115   2.950  16.008   4.945
40445W        W12116  15.879  11.050  11.554
40446W        W12117  30.604  20.545  14.327
40447W        W12118  38.294  16.209   4.136
40448W        W12119  17.246  13.572  10.464
40449W        W12120  33.193  17.147  12.965
40450W        W12121  37.929  10.327   4.136
40451W        W12122  42.802   5.250  14.171
40452W        W12123  42.845  20.196  13.072
40453W        W12124  19.581  31.140   0.281
40454W        W12125  36.173  10.898   4.119
40455W        W12126  14.100   4.719  11.068
40456W        W12127  35.904  32.145  14.543
40457W        W12128  31.080  12.577   1.740
40458W        W12129   6.530  19.358  12.508
40459W        W12130  40.005  41.922   0.335
40460W        W12131  20.690  12.679  11.362
40461W        W12132   6.734  29.432  11.337
40462W        W12133  33.523  20.058  14.274
40463W        W12134  36.021  42.953   3.316
40464W        W12135  34.514  25.542   3.803
40465W        W12136  16.689  20.649  14.427
40466W        W12137  26.226   1.472   2.823
40467W        W12138  42.328  39.862   2.284
40468W        W12139  25.910   9.769  14.198
40469W        W12140  28.437  31.534  11.575
40470W        W12141   0.330   3.745  13.886
40471W        W12142  22.618  39.010   0.872
40472W        W12143  21.864  11.677   3.668
40473W        W12144  30.145   3.539  14.351
40474W        W12145  30.176   0.317   3.206
40475W        W12146  40.219  36.883   2.064
40476W        W12147   2.344  11.893   2.814
40477W        W12148  25.051  38.876   1.275
40478W        W12149  10.265   3.839  13.627
40479W        W12150  31.026  39.267  14.525
40480W        W12151  38.995   5.525   0.901
40481W        W12152   7.595  12.353  14.283
40482W        W12153  22.261  25.398   3.297
40483W        W12154   1.847  28.775  13.043
40484W        W12155  41.898  21.751   0.311
40485W        W12156  18.104   1.926   0.799
40486W        W12157  10.407  12.538   1.227
40487W        W12158  31.493  21.559   2.659
40488W        W12159  13.707   6.255   5.679
40489W        W12160   3.291   7.707  13.826
40490W        W12161   1.078  31.129   0.183
40491W        W12162  37.035  34.046  14.400
40492W        W12163  36.482  23.313  14.065
40493W        W12164   9.583  16.567   1.260
40494W        W12165  14.678  40.409  13.989
40495W        W12166  26.087   0.702   1.026
40496W        W12167  13.888  18.127   3.329
40497W        W12168  23.555  37.498  12.918
40498W        W12169  30.140  37.420  12.615
40499W        W12170   6.451  12.113   0.750
40500W        W12171  22.567  26.962  10.899
40501W        W12172  20.497  32.475  13.595
40502W        W12173  25.188  37.786   1.319
40503W        W12174  28.112  20.464   1.825
40504W        W12175  23.774  38.083   2.162
40505W        W12176  10.807  44.707  13.580
40506W        W12177   9.404  36.571  13.373
40507W        W12178   1.575  11.760  12.383
40508W        W12179  18.213  21.520   4.256
40509W        W12180   6.009  24.626  11.907
40510W        W12181  20.852  27.522  13.391
40511W        W12182  30.934  14.107  11.596
40512W        W12183  13.837  24.736   0.094
40513W        W12184  27.097  20.580   2.653
40514W        W12185   7.600  39.730   0.250
40515W        W12186   4.897   6.472  10.794
40516W        W12187  23.095  19.190  13.598
40517W        W12188   0.800  34.979  11.904
40518W        W12189   6.397   1.715   4.580
40519W        W12190   3.741  21.720   1.680
40520W        W12191  11.738  36.379  13.107
40521W        W12192   1.118  11.941   3.212
40522W        W12193  29.421  22.692  13.949
40523W        W12194  11.409  18.762  11.543
40524W        W12195  16.220   9.510  14.594
40525W        W12196  42.548  31.178   0.349
40526W        W12197  36.197  36.509   3.735
40527W        W12198  15.170  13.827   0.619
40528W        W12199  18.581   6.723  11.638
40529W        W12200   9.757  35.614   2.817
40530W        W12201  41.414  12.716   2.925
40531W        W12202  17.647   5.396  12.607
40532W        W12203  18.567  30.946  14.422
40533W        W12204  24.224  18.684   3.590
40534W        W12205   0.510  24.459  12.336
40535W        W12206  25.026  11.703   1.740
40536W        W12207  18.330   7.130   2.755
40537W        W12208   5.584   0.502   3.447
40538W        W12209  22.172  34.549   3.034
40539W        W12210  11.274  13.851   4.105
40540W        W12211  23.543  13.031   4.501
40541W        W12212   3.460  28.946  12.500
40542W        W12213  22.619  14.135   1.607
40543W        W12214  29.980  27.713  14.802
40544W        W12215  20.882  15.526   2.356
40545W        W12216  21.735  27.478  11.231
40546W        W12217  30.421   1.904  13.848
40547W        W12218  38.055  40.034  11.579
40548W        W12219  39.360  15.111   3.271
40549W        W12220  40.776  32.649   0.958
40550W        W12221  21.623   2.861   0.595
40551W        W12222  20.617   5.961   0.802
40552W        W12223  24.688  40.443  11.621
40553W        W12224  11.734  26.490   2.282
40554W        W12225  16.856  23.577  10.792
40555W        W12226  36.393  20.690   1.818
40556W        W12227  27.714   0.437   3.666
40557W        W12228  44.627  19.141   2.642
40558W        W12229   4.353  32.322  12.446
40559W        W12230  16.528  41.030   3.589
40560W        W12231  16.047  42.412  14.528
40561W        W12232  18.789  11.272   9.763
40562W        W12233  12.411  17.340  10.723
40563W        W12234  34.168  39.296  14.532
40564W        W12235   8.209  16.642   4.204
40565W        W12236  30.936  44.385  13.046
40566W        W12237  17.349  29.585   4.988
40567W        W12238  11.635  30.972   0.247
40568W        W12239  34.228  10.334   0.708
40569W        W12240  32.456  43.505   1.176
40570W        W12241   0.653  30.191   1.276
40571W        W12242  44.539  39.298   0.279
40572W        W12243  12.755  14.591   0.829
40573W        W12244  24.967  42.869   1.888
40574W        W12245  43.450  39.634  11.641
40575W        W12246  23.042  36.919  14.360
40576W        W12247  20.912  19.526   2.322
40577W        W12248  14.103   8.792   1.325
40578W        W12249  31.952  43.395  14.307
40579W        W12250  31.057  39.411   3.193
40580W        W12251  43.352  34.921   1.769
40581W        W12252   6.003  19.216  11.192
40582W        W12253  24.423  11.775  13.510
40583W        W12254  19.231  17.752   0.904
40584W        W12255  15.564   1.461  12.122
40585W        W12256  31.695  31.623  11.947
40586W        W12257  16.389  44.053  12.847
40587W        W12258  37.128  12.933  11.682
40588W        W12259  27.146  18.347   4.935
40589W        W12260  21.646   3.951   3.677
40590W        W12261  39.853  16.740  14.559
40591W        W12262   6.009  13.980   1.322
40592W        W12263   0.250  32.324   1.753
40593W        W12264   6.176  42.283   4.679
40594W        W12265  15.813  14.374   3.128
40595W        W12266  33.098  36.080  11.655
40596W        W12267  15.228  15.626  10.412
40597W        W12268  43.768  19.553   3.410
40598W        W12269   0.931  26.101   0.738
40599W        W12270   0.900  35.194   2.681
40600W        W12271  35.575  25.571   1.202
40601W        W12272  36.323  10.119  13.294
40602W        W12273  24.095  37.810  14.044
40603W        W12274  36.637  31.036  13.859
40604W        W12275  13.250  25.580   2.005
40605W        W12276  18.716  28.401  14.446
40606W        W12277  26.630  20.711  11.654
40607W        W12278  34.066  24.282  12.003
40608W        W12279  29.947   1.954   4.554
40609W        W12280  11.847  13.894  11.967
40610W        W12281  33.459  24.230   1.219
40611W        W12282  30.615  39.892  14.737
40612W        W12283   3.871  18.379   4.555
40613W        W12284  30.544  43.819   2.867
40614W        W12285  19.517   6.483   0.426
40615W        W12286  10.567  18.019  14.335
40616W        W12287  20.281   3.177  11.664
40617W        W12288  20.039  18.295  12.793
40618W        W12289  38.476  10.250   2.715
40619W        W12290  44.393  24.819   1.759
40620W        W12291  13.644  36.933   0.674
40621W        W12292  17.981  32.566   2.597
40622W        W12293  42.422   0.034   3.365
40623W        W12294  30.821  39.262   0.939
40624W        W12295  28.872  23.585  12.502
40625W        W12296  26.383  43.573   1.480
40626W        W12297  20.098   9.308   5.341
40627W        W12298   2.176  12.052  11.187
40628W        W12299  44.839  40.404  14.521
40629W        W12300  26.061   1.422  11.388
40630W        W12301  20.472  44.319  13.809
40631W        W12302  19.959   5.358  13.733
40632W        W12303   1.454  24.183  12.998
40633W        W12304  42.013  18.537  13.558
40634W        W12305  39.322  32.722   2.202
40635W        W12306  20.423  16.849   1.928
40636W        W12307  39.025  43.775  11.159
40637W        W12308  29.538  41.711   2.150
40638W        W12309  41.724  13.787  13.139
40639W        W12310   1.219  23.016   0.054
40640W        W12311  44.841  37.290   2.794
40641W        W12312  17.136  38.914  12.645
40642W        W12313  41.776  22.868   3.621
40643W        W12314  27.161   6.911  11.008
40644W        W12315  28.433  19.821  11.087
40645W        W12316   6.391   1.017   3.781
40646W        W12317  23.125  17.163  12.375
40647W        W12318  19.182  12.860  11.178
40648W        W12319  25.928   1.893  11.516
40649W        W12320  26.591  11.229   3.678
40650W        W12321  27.460  12.396  13.191
40651W        W12322  42.073  13.811   1.182
40652W        W12323  12.304  19.187  11.585
40653W        W12324  21.250  15.187  14.951
40654W        W12325   7.626  21.556  11.578
40655W        W12326  32.756  10.903  12.989
40656W        W12327   1.784  40.076   4.500
40657W        W12328  25.547  15.445  14.819
40658W        W12329  21.480  35.625  10.673
40659W        W12330   2.911  15.754  14.449
40660W        W12331  32.681   1.871   0.869
40661W        W12332  12.261  25.735   4.070
40662W        W12333  43.733  35.179   3.313
40663W        W12334  37.650   4.428   0.312
40664W        W12335  11.757  16.103   3.053
40665W        W12336  10.263  21.538   2.300
40666W        W12337  18.107  39.068   1.456
40667W        W12338  11.348  10.692   4.134
40668W        W12339  11.697  44.512   3.734
40669W        W12340  29.778  18.003  12.561
40670W        W12341  26.183  41.513   3.075
40671W        W12342  41.500  30.049   1.475
40672W        W12343  20.667  38.210  11.598
40673W        W12344  22.615   1.981  12.875
40674W        W12345  23.145  25.459  14.394
40675W        W12346   4.941  25.572   4.572
40676W        W12347  20.206  28.919   4.363
40677W        W12348  14.533  10.718   0.728
40678W        W12349  44.819  23.758   5.780
40679W        W12350   4.985  26.598   4.706
40680W        W12351  25.388  19.009  11.117
40681W        W12352  34.401  13.643  10.542
40682W        W12353  16.132  16.642   0.822
40683W        W12354   8.813  23.441  14.829
40684W        W12355  28.946  33.419   3.963
40685W        W12356  27.363   9.170   3.112
40686W        W12357  37.547  12.126   4.186
40687W        W12358  13.089  22.989  10.474
40688W        W12359   7.648   5.368  14.926
40689W        W12360   8.474   3.734   2.876
40690W        W12361  39.480  14.757   2.718
40691W        W12362  36.848  21.737   1.462
40692W        W12363  10.168  19.540   3.354
40693W        W12364  35.505  12.826   3.776
40694W        W12365  33.433  17.441   3.523
40695W        W12366  33.447  15.584   0.781
40696W        W12367  35.940  14.029  13.955
40697W        W12368  14.091  31.313  12.534
40698W        W12369  20.617   9.018   4.151
40699W        W12370   6.732  39.917   0.240
40700W        W12371   1.043  43.898   0.768
40701W        W12372  41.612  10.761  12.545
40702W        W12373  42.513   8.375   3.729
40703W        W12374   5.468  31.525  14.265
40704W        W12375  21.022  38.407   5.627
40705W        W12376   0.476  21.498  13.469
40706W        W12377   4.950  16.605  14.509
40707W        W12378  12.688   4.397  13.901
40708W        W12379  25.507   7.848   4.329
40709W        W12380  23.296  32.043   0.487
40710W        W12381  38.318  31.879   2.848
40711W        W12382  12.296  12.843  13.397
40712W        W12383  22.504  11.413   2.548
40713W        W12384  28.429   3.591  12.070
40714W        W12385  44.236  25.884   4.844
40715W        W12386  43.698  15.128   4.882
40716W        W12387   7.328  27.509   0.754
40717W        W12388  20.508  44.985  10.659
40718W        W12389  23.131  19.733   4.672
40719W        W12390  19.213  13.143  13.143
40720W        W12391   0.985  11.787   1.745
40721W        W12392  11.485  38.507  11.144
40722W        W12393  44.572   5.867   1.954
40723W        W12394  29.621  38.102  11.018
40724W        W12395  36.284  27.176  13.407
40725W        W12396  18.646   8.222   1.376
40726W        W12397  39.547   2.713  14.865
40727W        W12398  16.719  24.203   4.110
40728W        W12399  27.634   5.689   4.048
40729W        W12400  37.547  20.248  12.397
40730W        W12401  24.303  18.652   5.025
40731W        W12402   5.143  42.762   1.231
40732W        W12403  42.961   0.303  12.567
40733W        W12404  34.440  43.866   4.375
40734W        W12405   4.925   6.123  13.893
40735W        W12406   1.860   4.244   1.572
40736W        W12407   7.331  21.461  12.443
40737W        W12408  41.325  38.314   5.079
40738W        W12409  42.890  14.755  10.439
40739W        W12410  14.644   3.339   3.880
40740W        W12411  24.640  29.998   0.449
40741W        W12412  39.910  35.009   0.155
40742W        W12413  41.034  38.860   3.066
40743W        W12414   7.879   4.694   5.167
40744W        W12415  23.146  14.040  14.892
40745W        W12416   8.272  25.449   3.151
40746W        W12417  34.585  43.017  13.071
40747W        W12418  40.308   0.676   1.163
40748W        W12419  39.275  42.280   0.200
40749W        W12420  18.952  27.944  14.614
40750W        W12421  27.958  30.852   1.368
40751W        W12422  37.282  35.512   4.418
40752W        W12423  13.375  35.880   2.849
40753W        W12424   6.875  18.567  13.816
40754W        W12425  11.178  33.060  14.745
40755W        W12426  21.484  25.723   4.271
40756W        W12427  40.599  10.015  13.828
40757W        W12428  34.058   4.240  12.013
40758W        W12429  12.251  34.187  11.088
40759W        W12430  18.369  21.441  11.076
40760W        W12431  32.196  38.524  12.414
40761W        W12432  14.213   7.399   5.037
40762W        W12433  21.055   4.890  14.296
40763W        W12434  42.013  42.084  13.017
40764W        W12435  24.189  39.205  10.146
40765W        W12436   9.216  29.657  13.954
40766W        W12437   8.190  10.823   2.386
40767W        W12438   4.954   2.320   3.218
40768W        W12439  36.637  42.821  13.041
40769W        W12440  34.745  34.286   3.877
40770W        W12441   8.983  24.120  13.089
40771W        W12442   5.326  23.241   1.681
40772W        W12443   2.821  40.081   4.178
40773W        W12444  29.893  44.734   0.873
40774W        W12445  24.215  19.606  10.741
40775W        W12446  33.844  42.912  13.513
40776W        W12447  20.728  43.351   0.873
40777W        W12448  43.996  38.965  12.443
40778W        W12449  18.163  37.468   4.474
40779W        W12450  14.207  17.573  13.292
40780W        W12451  31.554  25.629   4.138
40781W        W12452   1.236  43.448  12.370
40782W        W12453  40.374  42.934  12.021
40783W        W12454   2.181   2.212   1.992
40784W        W12455  39.472  42.241   3.228
40785W        W12456  40.948  17.662  11.954
40786W        W12457   3.159  32.540  10.754
40787W        W12458  14.277   6.428  10.202
40788W        W12459  29.534   0.786  10.357
40789W        W12460  11.924  23.953  11.965
40790W        W12461  16.676  24.553  12.188
40791W        W12462  25.685  37.092   1.242
40792W        W12463   7.394   9.092  13.978
40793W        W12464  34.929  21.178  12.546
40794W        W12465  31.917  42.805   4.527
40795W        W12466  36.911  16.702  12.553
40796W        W12467   2.480   1.188  12.939
40797W        W12468   3.214  26.634  12.531
40798W        W12469  37.405  42.310   1.212
40799W        W12470   4.144  41.332  13.967
40800W        W12471   6.432  17.281  10.155
40801W        W12472  27.551   5.944   1.377
40802W        W12473  26.793  30.096  11.918
40803W        W12474  36.749  26.567   3.695
40804W        W12475   5.672  26.802  11.159
40805W        W12476   2.403  24.360  10.895
40806W        W12477  12.606   8.681  13.116
40807W        W12478  35.169  12.703   0.445
40808W        W12479  26.992  44.839   2.171
40809W        W12480  18.575   0.413  12.569
40810W        W12481  14.303  44.414  12.634
40811W        W12482   0.196  42.692  14.185
40812W        W12483  22.206   5.429  12.158
40813W        W12484  26.565  10.180  13.380
40814W        W12485  40.994  37.730   1.717
40815W        W12486  21.569  18.116   1.199
40816W        W12487  22.910  39.990   1.793
40817W        W12488   8.620  44.276  10.747
40818W        W12489   8.076  34.709   0.950
40819W        W12490  20.375   0.040   2.492
40820W        W12491  30.244  26.011   3.617
40821W        W12492  15.871  17.536   0.398
40822W        W12493   7.609  15.204  14.046
40823W        W12494   9.094   6.096   3.677
40824W        W12495  11.958  40.146   3.592
40825W        W12496   3.685  42.419   0.772
40826W        W12497   4.828  37.300   1.638
40827W        W12498  28.692  15.303  10.733
40828W        W12499  42.009  34.872   9.755
40829W        W12500  29.643   6.221   2.090
40830W        W12501  20.528   1.786   1.002
40831W        W12502  35.018  28.162  11.607
40832W        W12503  18.513  29.152  14.105
40833W        W12504   4.657  41.431  13.968
40834W        W12505   1.343  17.511   3.756
40835W        W12506  36.462  25.045   4.361
40836W        W12507  14.390  40.314  13.566
40837W        W12508  41.392  31.075   2.139
40838W        W12509   9.695  22.986   2.747
40839W        W12510  31.123   6.296   4.816
40840W        W12511  15.945  30.518  11.656
40841W        W12512  33.886  11.904   4.238
40842W        W12513   5.060   3.600  12.554
40843W        W12514   3.241  40.401   3.135
40844W        W12515  31.830  22.231  10.865
40845W        W12516  13.357  18.507   1.999
40846W        W12517   9.929   7.131   3.299
40847W        W12518   4.783  31.140   4.503
40848W        W12519  23.455  38.983   3.218
40849W        W12520  29.654  31.536   0.955
40850W        W12521  29.988  40.917   3.469
40851W        W12522   0.284  32.439  13.088
40852W        W12523  43.003  43.028   4.633
40853W        W12524  23.016  20.740   1.892
40854W        W12525  27.630  36.148   0.915
40855W        W12526  37.965  23.044   3.195
40856W        W12527  10.158  21.481  13.382
40857W        W12528  12.338  18.249   4.774
40858W        W12529  40.887  40.430  13.674
40859W        W12530  31.194   4.433   4.140
40860W        W12531  21.674  26.241   4.287
40861W        W12532   6.743  31.886   2.842
40862W        W12533  43.948  10.949  13.016
40863W        W12534  34.797   0.011  12.853
40864W        W12535  18.115  39.824   4.696
40865W        W12536  17.143  16.754   1.018
40866W        W12537   1.543  21.263   1.918
40867W        W12538  34.564  25.592   4.897
40868W        W12539   9.182  41.318  13.833
40869W        W12540   5.174  15.789   2.904
40870W        W12541  38.943  20.985   4.522
40871W        W12542   0.433  19.780   1.936
40872W        W12543   7.258  38.363  12.861
40873W        W12544  13.680  31.502  10.728
40874W        W12545  18.172  37.588   3.955
40875W        W12546   3.408  33.058  14.356
40876W        W12547  12.414  39.978   2.894
40877W        W12548   1.009   4.296   1.579
40878W        W12549  11.741  13.387  11.987
40879W        W12550  35.071  41.997   2.183
40880W        W12551  10.315  18.300   3.118
40881W        W12552  39.182  39.969   3.108
40882W        W12553  39.194  29.684  11.614
40883W        W12554  44.081   1.456  14.947
40884W        W12555   9.308  25.573  12.165
40885W        W12556  40.124  35.801  13.960
40886W        W12557  26.782  17.258   0.898
40887W        W12558  28.071   6.805  14.124
40888W        W12559  15.705  11.278   1.827
40889W        W12560  37.316   1.429  13.422
40890W        W12561  19.837  32.686  11.371
40891W        W12562   3.308   6.708  14.690
40892W        W12563  17.122  27.202   0.375
40893W        W12564  24.788   5.334   1.782
40894W        W12565  15.181  22.955  14.732
40895W        W12566   8.905  22.422   2.215
40896W        W12567  38.647  19.375  12.074
40897W        W12568   1.470  20.621   0.253
40898W        W12569  16.086  12.523  14.320
40899W        W12570  43.996  21.115  10.245
40900W        W12571   3.365  29.927  12.475
40901W        W12572  18.783   7.380   3.451
40902W        W12573  10.125   7.709  14.715
40903W        W12574   7.148  38.550   3.205
40904W        W12575  17.003  30.055   2.164
40905W        W12576  41.047  30.635  14.719
40906W        W12577  31.555  41.093  12.927
40907W        W12578  18.584  13.097  14.976
40908W        W12579  17.629   8.631  12.962
40909W        W12580  38.113   9.407   4.645
40910W        W12581  33.447  14.113  14.525
40911W        W12582   7.656  21.492   0.196
40912W        W12583  14.045  24.148  11.681
40913W        W12584  33.640  17.426  13.088
40914W        W12585  34.603   2.745   3.126
40915W        W12586  15.529   2.676   1.731
40916W        W12587  34.906  17.165   4.528
40917W        W12588  19.195  41.916   0.020
40918W        W12589  10.157  17.317  12.482
40919W        W12590   8.914  28.054  14.464
40920W        W12591  43.292  23.597  12.062
40921W        W12592  31.914  43.427  12.001
40922W        W12593  25.035  29.475  14.080
40923W        W12594  33.542  19.420  11.546
40924W        W12595  31.274  29.863  13.354
40925W        W12596   9.716  37.529   3.881
40926W        W12597  10.818   2.188  13.472
40927W        W12598  36.301  42.935  11.537
40928W        W12599  21.017  23.197  12.311
40929W        W12600   6.082  21.406  11.681
40930W        W12601  10.395   1.761  11.232
40931W        W12602  12.912  20.089  10.762
40932W        W12603  37.464  16.756  10.485
40933W        W12604  28.089  16.318   3.203
40934W        W12605  10.909  27.021  10.634
40935W        W12606  12.635   8.441  12.568
40936W        W12607  20.331  24.415   1.346
40937W        W12608  44.161  25.938   0.397
40938W        W12609  26.872  14.704  12.759
40939W        W12610   7.763  41.553   4.184
40940W        W12611   7.195  40.841  11.608
40941W        W12612   4.699  21.523   0.608
40942W        W12613  37.464  24.071  13.147
40943W        W12614  13.714  35.606   2.017
40944W        W12615  11.714  40.253   4.651
40945W        W12616  27.406  27.354   3.840
40946W        W12617  22.332  20.542  12.065
40947W        W12618  22.743  38.856   2.616
40948W        W12619  43.031  20.031  10.816
40949W        W12620   5.242  23.347   3.668
40950W        W12621  34.442  42.705   3.211
40951W        W12622  31.633   8.536  11.876
40952W        W12623  19.688  32.943   1.853
40953W        W12624  42.457  11.701  11.226
40954W        W12625  38.963  12.843   0.355
40955W        W12626  13.880  15.594   3.122
40956W        W12627  30.081  13.836   1.125
40957W        W12628  34.849  33.669  12.015
40958W        W12629  17.102  20.166   3.160
40959W        W12630   0.452  29.085  12.594
40960W        W12631   6.644  26.761   0.025
40961W        W12632  17.650  10.846  11.546
40962W        W12633  12.119  13.769  13.431
40963W        W12634  43.972  15.868  11.280
40964W        W12635  28.449  33.972  13.807
40965W        W12636  23.053  39.299   3.314
40966W        W12637  18.009  27.179   1.450
40967W        W12638  24.609  25.129  12.839
40968W        W12639  12.668  17.912   3.079
40969W        W12640   0.724  40.086  14.780
40970W        W12641   5.882  25.276   4.888
40971W        W12642  16.958  42.183   2.443
40972W        W12643   0.406  37.888  12.788
40973W        W12644  31.146   7.306   1.413
40974W        W12645  29.238  39.434   3.300
40975W        W12646   1.405  22.827   3.577
40976W        W12647  31.254  23.993   2.667
40977W        W12648  34.499  38.368   4.645
40978W        W12649  34.847  19.218  10.637
40979W        W12650  31.963  22.198  10.249
40980W        W12651  27.740  18.204  12.566
40981W        W12652  13.985   7.536  12.522
40982W        W12653  16.832  29.623   4.099
40983W        W12654  42.783  10.357   4.014
40984W        W12655   4.955  26.451  11.567
40985W        W12656  14.839  29.135  10.517
40986W        W12657  27.929  44.816   2.636
40987W        W12658  24.526  20.035   2.446
40988W        W12659  16.084   1.303   3.065
40989W        W12660  35.940  37.062   4.151
40990W        W12661  34.813  33.053   3.657
40991W        W12662  36.126   6.852   1.226
40992W        W12663   3.753  37.785  14.976
40993W        W12664   0.046  14.208   3.623
40994W        W12665  36.295  32.059  13.999
40995W        W12666  30.148  37.066  13.839
40996W        W12667  30.617  31.990   4.873
40997W        W12668  44.117  12.869  12.988
40998W        W12669   7.808  43.294   4.613
40999W        W12670  42.333   3.931   2.173
41000W        W12671  32.072   9.406  13.801
41001W        W12672  13.713  33.859   0.321
41002W        W12673  21.625   6.895   0.785
41003W        W12674  10.671  41.142   0.882
41004W        W12675  13.012  14.161  13.678
41005W        W12676   5.499   2.269  12.636
41006W        W12677  10.802  35.818   3.581
41007W        W12678  36.937  33.120   0.496
41008W        W12679  24.111  31.857  14.959
41009W        W12680  41.451   8.794  13.326
41010W        W12681  27.915  16.227  13.821
41011W        W12682  14.410  11.320   3.287
41012W        W12683  32.610  42.367   1.357
41013W        W12684  41.898  32.586  11.937
41014W        W12685  26.750  17.683   1.206
41015W        W12686   2.607   3.820  13.514
41016W        W12687  41.085   6.814   3.227
41017W        W12688  23.117  30.600   0.555
41018W        W12689   1.058  20.680  11.697
41019W        W12690  41.571   4.986   1.296
41020W        W12691  29.988  43.715   4.130
41021W        W12692  20.156  27.039  13.349
41022W        W12693  24.946  40.982   0.896
41023W        W12694  42.663  20.590   0.778
41024W        W12695  38.562  15.108   2.308
41025W        W12696   1.315  31.102   2.146
41026W        W12697  16.588  42.376  11.036
41027W        W12698  12.071   3.023   0.500
41028W        W12699  37.336   5.280   4.650
41029W        W12700  36.081  40.702  11.039
41030W        W12701  44.404  24.101   4.146
41031W        W12702   9.603  24.522   3.925
41032W        W12703  17.161  13.094   1.733
41033W        W12704  21.592  39.763  11.834
41034W        W12705  38.991  33.313   2.397
41035W        W12706   3.219  13.067   0.417
41036W        W12707  17.090  39.918  10.703
41037W        W12708   9.853  27.589   4.121
41038W        W12709  30.667  12.648  11.295
41039W        W12710   2.903   4.442  10.989
41040W        W12711   5.312  15.273  11.568
41041W        W12712  20.353  19.218  13.766
41042W        W12713  21.044  26.308   9.967
41043W        W12714  13.166  35.418  13.883
41044W        W12715  16.315  38.744   4.084
41045W        W12716  39.498  38.618  10.186
41046W        W12717  15.123   0.778   1.713
41047W        W12718  12.620   0.233  12.065
41048W        W12719   3.253   2.403  13.725
41049W        W12720   9.426   5.836  14.945
41050W        W12721  22.674  31.878  11.150
41051W        W12722  10.962  29.974  14.481
41052W        W12723  14.532  33.157  12.597
41053W        W12724  39.297  38.846   2.825
41054W        W12725  39.097  38.173   4.915
41055W        W12726  36.868  34.174  13.902
41056W        W12727  27.515  33.066   1.754
41057W        W12728   7.784  32.805  11.916
41058W        W12729  26.115  25.888  14.100
41059W        W12730   5.228  18.768   1.640
41060W        W12731  27.909   8.814   2.772
41061W        W12732  31.272   7.643  13.889
41062W        W12733  26.183  29.558  13.359
41063W        W12734  16.017   3.479   4.571
41064W        W12735   9.433  26.475  12.429
41065W        W12736  37.333  20.003   5.020
41066W        W12737  16.043  28.131   0.872
41067W        W12738  32.518  16.294   4.163
41068W        W12739  20.232  34.382   0.350
41069W        W12740  12.559  21.110   0.468
41070W        W12741  24.061  33.824  11.493
41071W        W12742  39.643  19.708   1.066
41072W        W12743  14.635  34.823   2.294
41073W        W12744   5.338  31.986   2.604
41074W        W12745  16.234   5.783  10.747
41075W        W12746  20.499  35.423   4.722
41076W        W12747  21.344  43.324   4.126
41077W        W12748   0.448  32.001   4.570
41078W        W12749  13.652  24.250  13.274
41079W        W12750  14.103  11.882  13.410
41080W        W12751  15.833   1.836  11.877
41081W        W12752   3.202  10.860  13.442
41082W        W12753  41.427  32.475  14.877
41083W        W12754  41.932  44.747  12.370
41084W        W12755   7.383  25.951   2.748
41085W        W12756  26.489  23.418   0.668
41086W        W12757   1.553  22.352  11.905
41087W        W12758  23.618  19.541   0.007
41088W        W12759  14.929  16.627   1.833
41089W        W12760   7.953  32.049   3.677
41090W        W12761  10.203   6.824   4.328
41091W        W12762  25.473   4.234  10.771
41092W        W12763  22.142  19.412  13.245
41093W        W12764   4.377   8.366   4.701
41094W        W12765  40.168  34.014   0.302
41095W        W12766  29.982  39.939   2.717
41096W        W12767  16.034  13.279  13.842
41097W        W12768  21.029  36.158  13.049
41098W        W12769  21.408  11.674  12.873
41099W        W12770  20.645  21.743   4.159
41100W        W12771  23.789  20.086   4.150
41101W        W12772   8.906   8.407   0.967
41102W        W12773   9.430  30.635  13.892
41103W        W12774  35.074  26.083  14.244
41104W        W12775  21.176   3.184   2.598
41105W        W12776  40.151  30.689  12.280
41106W        W12777  32.180  43.234   4.400
41107W        W12778  10.100  16.560   1.171
41108W        W12779  15.071  23.006  13.813
41109W        W12780  28.940   4.074   0.034
41110W        W12781  17.503  41.569   4.307
41111W        W12782  32.971   6.664  14.445
41112W        W12783  17.586  35.363  12.523
41113W        W12784   0.737  44.287   2.191
41114W        W12785  24.996  22.689   4.079
41115W        W12786   3.855  30.715   1.758
41116W        W12787  36.395  42.881   0.268
41117W        W12788  35.640  38.626  13.080
41118W        W12789  13.065  25.892   4.732
41119W        W12790  25.757   4.220  12.526
41120W        W12791  37.687  22.207  13.022
41121W        W12792  24.487  25.979   4.363
41122W        W12793  44.330  19.666   0.013
41123W        W12794  31.463  10.178   3.643
41124W        W12795  35.820  18.428   1.798
41125W        W12796  21.941  40.276  14.453
41126W        W12797  33.295  21.080   3.319
41127W        W12798  13.598  36.621   4.624
41128W        W12799   4.491  15.785   4.141
41129W        W12800   5.124  12.233  12.898
41130W        W12801   3.935  22.053   5.105
41131W        W12802  23.267   8.252   4.606
41132W        W12803  36.213  31.638   3.722
41133W        W12804  19.703  12.747   2.241
41134W        W12805   4.329  29.654   4.668
41135W        W12806   2.825  43.409   0.554
41136W        W12807  23.976  20.598  12.940
41137W        W12808  30.639  12.753   4.704
41138W        W12809  17.784   0.921   0.801
41139W        W12810  17.704   0.898  14.867
41140W        W12811  19.244  11.538   9.773
41141W        W12812  37.557  22.738  14.717
41142W        W12813  15.214  17.014   0.835
41143W        W12814   4.045   9.178  11.220
41144W        W12815  40.545  25.264   4.696
41145W        W12816  25.308  26.256   4.829
41146W        W12817  27.144  29.396   4.181
41147W        W12818   2.501  36.038  13.914
41148W        W12819  16.622  28.029   1.831
41149W        W12820  37.930  31.466  12.495
41150W        W12821   0.851  40.950   4.297
41151W        W12822  20.206  17.114  11.944
41152W        W12823  43.396  12.054   5.109
41153W        W12824  35.584  10.972  11.699
41154W        W12825   9.914  32.595  11.994
41155W        W12826  42.353  36.950  14.982
41156W        W12827  39.323  23.812   4.131
41157W        W12828   3.940  44.408  13.428
41158W        W12829   2.743  31.915   1.891
41159W        W12830  38.538  14.391   2.825
41160W        W12831  28.001  19.059   1.916
41161W        W12832  15.571  15.153   0.511
41162W        W12833  18.174   3.427   3.733
41163W        W12834  17.568  29.998   0.875
41164W        W12835  34.528  24.617  11.190
41165W        W12836  40.520  42.536  14.930
41166W        W12837  44.850  29.282  11.012
41167W        W12838  42.573  25.638   2.925
41168W        W12839   1.298  10.213  10.599
41169W        W12840  15.699  24.235   3.687
41170W        W12841   5.057  42.777   9.954
41171W        W12842  44.124  43.346  13.542
41172W        W12843  15.272  33.125  11.097
41173W        W12844  31.610  43.845  12.084
41174W        W12845   3.938  26.216  10.581
41175W        W12846  24.934  41.803  14.414
41176W        W12847  42.038   3.631   3.191
41177W        W12848  18.761  23.066   0.944
41178W        W12849  38.123  33.874   0.694
41179W        W12850  31.410  32.975   4.167
41180W        W12851  34.092  22.637  11.515
41181W        W12852  24.275   1.429  13.030
41182W        W12853  13.393  42.751   0.205
41183W        W12854  36.066  12.148   0.932
41184W        W12855   8.799  43.986   1.393
41185W        W12856  18.274  44.738   4.874
41186W        W12857  31.610  17.264   3.389
41187W        W12858  10.709  21.786   2.231
41188W        W12859  29.429  32.752  12.935
41189W        W12860  33.387   2.573  11.685
41190W        W12861  31.845   9.277  13.342
41191W        W12862   9.828  38.819   1.236
41192W        W12863  33.985  25.022   2.562
41193W        W12864  41.455  10.615   0.938
41194W        W12865  35.353  38.602   3.588
41195W        W12866  31.706  32.387  12.636
41196W        W12867  36.798  43.630  11.177
41197W        W12868  34.954  17.644   3.616
41198W        W12869   0.494  19.521   4.229
41199W        W12870  11.554  16.231   2.139
41200W        W12871  20.367  43.422   0.460
41201W        W12872  21.032  36.462   1.718
41202W        W12873  28.983   7.986   3.619
41203W        W12874   5.981  12.603   2.845
41204W        W12875  30.625  14.179   3.127
41205W        W12876   1.981  39.730  11.751
41206W        W12877  23.370  43.016  11.536
41207W        W12878   3.977  42.210  13.907
41208W        W12879  18.764  21.245  14.071
41209W        W12880  23.980  31.963   1.305
41210W        W12881  43.285   6.983   1.753
41211W        W12882  21.769  28.648  10.589
41212W        W12883  44.100  34.641   4.125
41213W        W12884  42.983  40.794  11.712
41214W        W12885  23.534  34.993  11.370
41215W        W12886   0.314  15.838   4.677
41216W        W12887  41.792  23.601  13.860
41217W        W12888   0.569  18.529  11.947
41218W        W12889   6.162   4.424   3.653
41219W        W12890   5.187  17.040  10.050
41220W        W12891   1.685  43.765   1.884
41221W        W12892  19.983  44.784   0.360
41222W        W12893  38.565  26.777   0.786
41223W        W12894  16.333  32.439   0.800
41224W        W12895   5.959  44.011  12.412
41225W        W12896  36.667   5.635   3.196
41226W        W12897  24.009  17.184   2.242
41227W        W12898  34.149   1.038  10.656
41228W        W12899   0.737  28.342   4.923
41229W        W12900   6.020  18.999  14.952
41230W        W12901  23.522  28.913  13.942
41231W        W12902  21.485  21.276   4.664
41232W        W12903   6.446   9.877   4.852
41233W        W12904   5.447  13.774   4.601
41234W        W12905  17.322   5.812   0.486
41235W        W12906  25.454  21.303  13.361
41236W        W12907  10.994  20.270  10.552
41237W        W12908  12.699  13.758  12.173
41238W        W12909  14.335  34.831  14.335
41239W        W12910  32.174  23.741  13.843
41240W        W12911   5.778  30.481  13.863
41241W        W12912   4.350  38.003  12.982
41242W        W12913  13.857  29.822   4.758
41243W        W12914  40.941   2.259   3.404
41244W        W12915  34.810  15.314   4.961
41245W        W12916   5.156  20.272  14.550
41246W        W12917  20.110   7.424  14.707
41247W        W12918  30.523  43.399  11.377
41248W        W12919  12.717  35.353   3.541
41249W        W12920  42.925  23.888   1.219
41250W        W12921  42.407  31.945  14.891
41251W        W12922  44.046  22.706   3.538
41252W        W12923  28.143  11.693  13.073
41253W        W12924  11.424  18.355  12.599
41254W        W12925  16.557  28.555   1.875
41255W        W12926  10.012  29.935  14.271
41256W        W12927  18.737  24.664   0.681
41257W        W12928  21.297  41.635  10.720
41258W        W12929  40.846  30.952   4.287
41259W        W12930  32.381  23.340   3.215
41260W        W12931  20.234  32.082   2.831
41261W        W12932  30.116   8.107   4.621
41262W        W12933  23.487   8.001  14.004
41263W        W12934   8.848  16.033  12.461
41264W        W12935  13.101  22.220   3.378
41265W        W12936  12.410  29.553  11.588
41266W        W12937  32.611  26.064   2.899
41267W        W12938  24.075   6.899  13.447
41268W        W12939  32.335  34.454   1.416
41269W        W12940   8.241   8.757   1.725
41270W        W12941  29.561  37.808   0.245
41271W        W12942  39.003  19.771  10.096
41272W        W12943  43.455  12.345   0.298
41273W        W12944  36.907  28.696   4.031
41274W        W12945  16.617   7.409   0.434
41275W        W12946   8.413  13.593   3.596
41276W        W12947  44.576  40.053   1.835
41277W        W12948  34.371  17.008   0.854
41278W        W12949  20.582  41.701   2.341
41279W        W12950  27.453  36.817  10.755
41280W        W12951  15.668  24.035   3.195
41281W        W12952  30.208  41.442   1.382
41282W        W12953  29.210  40.318  14.402
41283W        W12954  13.870   0.672  12.481
41284W        W12955   8.278  11.144   1.954
41285W        W12956  30.005   8.694  10.664
41286W        W12957   5.246  24.093  11.494
41287W        W12958   5.342  33.542  11.464
41288W        W12959   7.666  18.432  11.087
41289W        W12960  33.116  19.621   4.243
41290W        W12961  25.494  23.133  12.425
41291W        W12962  16.070  35.418  14.400
41292W        W12963  34.052  15.702   0.918
41293W        W12964  43.473  44.380  12.174
41294W        W12965   0.394  34.043   1.229
41295W        W12966   8.632  31.087  14.342
41296W        W12967  41.873  24.156  10.017
41297W        W12968  38.111  11.315   4.093
41298W        W12969  38.430  16.601  13.309
41299W        W12970  37.337  30.492  14.067
41300W        W12971  41.336  35.371   2.784
41301W        W12972  36.014  12.356  12.535
41302W        W12973  40.816  13.377  12.912
41303W        W12974  21.706  29.606  14.455
41304W        W12975  27.128  12.029   2.283
41305W        W12976  22.625  16.588  14.387
41306W        W12977  13.790  43.445  10.688
41307W        W12978   6.756  40.858  14.918
41308W        W12979  41.885  12.102   2.377
41309W        W12980  37.620   9.697  13.939
41310W        W12981  13.861  23.704   2.675
41311W        W12982  43.967  14.686   4.727
41312W        W12983  12.258   8.429   0.350
41313W        W12984  32.013  27.215   5.068
41314W        W12985  15.784  29.249   4.343
41315W        W12986  23.616  12.634  14.870
41316W        W12987   5.952  10.123   2.690
41317W        W12988  26.569  10.181  10.231
41318W        W12989  33.403   2.275  12.537
41319W        W12990  40.940  13.184   2.329
41320W        W12991  29.889  31.609   0.406
41321W        W12992   5.688  37.659   1.249
41322W        W12993  32.570  25.142   2.584
41323W        W12994  20.191  38.845  14.072
41324W        W12995   5.314   6.706   0.448
41325W        W12996   3.986   8.729  11.957
41326W        W12997  30.599  21.328  11.577
41327W        W12998  16.349  25.551  11.005
41328W        W12999  42.533   0.513  11.227
41329W        W13000  42.618  11.407   4.300
41330W        W13001  41.294  19.185  14.999
41331W        W13002  31.958   3.308   2.291
41332W        W13003  35.482  42.429   1.225
41333W        W13004  20.269   7.074   4.971
41334W        W13005  17.323  10.856  11.955
41335W        W13006  21.747  36.502  10.419
41336W        W13007  37.893  33.877  14.664
41337W        W13008  27.070  29.432  10.443
41338W        W13009  35.047  11.557   1.844
41339W        W13010  32.412  39.844   1.348
41340W        W13011  25.735   6.743   0.689
41341W        W13012  40.808  16.961  13.466
41342W        W13013   4.694  33.144  12.751
41343W        W13014   0.745  22.908  13.908
41344W        W13015  42.893  14.720  12.452
41345W        W13016   0.358  17.896  11.303
41346W        W13017  38.403  22.938   2.200
41347W        W13018  15.550   3.589   3.230
41348W        W13019  34.345  28.988   1.814
41349W        W13020   1.957  39.057   1.948
41350W        W13021   0.555  23.650  13.779
41351W        W13022  20.002  37.818   0.269
41352W        W13023   2.184  15.688  11.813
41353W        W13024  26.631  25.144   4.657
41354W        W13025  11.692  12.336  13.996
41355W        W13026  25.575   7.785   3.367
41356W        W13027  28.771  43.529   0.373
41357W        W13028   9.584  29.117  12.971
41358W        W13029  27.542  20.325   4.615
41359W        W13030  10.173  14.289  11.099
41360W        W13031  16.062  31.512   2.881
41361W        W13032  14.705  25.343   3.329
41362W        W13033  26.552  32.023  12.231
41363W        W13034  25.404  24.228   2.949
41364W        W13035  21.089   4.415   1.385
41365W        W13036   3.238   0.036   3.759
41366W        W13037  43.855  21.356  12.541
41367W        W13038   2.207  30.676   2.772
41368W        W13039   6.252  11.069   0.800
41369W        W13040  13.644  18.597   3.875
41370W        W13041  18.278   6.924   1.355
41371W        W13042  39.320  21.160   2.601
41372W        W13043  19.302  41.445  10.452
41373W        W13044  24.128  31.799   0.849
41374W        W13045  24.230  28.414   4.244
41375W        W13046   6.247  42.815   1.701
41376W        W13047  17.876   2.856  12.898
41377W        W13048  33.982  10.395  10.689
41378W        W13049  24.618   3.035   3.725
41379W        W13050  19.297   5.355   2.569
41380W        W13051  33.630  27.407   4.323
41381W        W13052  13.822  44.225   0.714
41382W        W13053  26.185  21.669  12.475
41383W        W13054  26.775  41.244  14.894
41384W        W13055  18.575  39.830  10.543
41385W        W13056  29.626  32.010   1.191
41386W        W13057  20.059  35.120   3.176
41387W        W13058  20.277  34.599   4.362
41388W        W13059  27.416  19.579   4.434
41389W        W13060  26.216  29.460   4.239
41390W        W13061   4.672  16.672  12.197
41391W        W13062   1.388  32.998   3.971
41392W        W13063  14.688  13.212   0.420
41393W        W13064  40.591  30.545   4.537
41394W        W13065  43.811  30.489   3.234
41395W        W13066  38.426  32.848  10.972
41396W        W13067  35.053   6.040   0.503
41397W        W13068  17.296   4.304  14.290
41398W        W13069  41.088  13.080   4.590
41399W        W13070  23.947  18.334   1.029
41400W        W13071   7.793  19.551  10.651
41401W        W13072  13.351   5.450   2.974
41402W        W13073  39.410  30.023   0.889
41403W        W13074  10.319  19.668  13.599
41404W        W13075   7.718  13.878   4.993
41405W        W13076   3.535  16.459   3.751
41406W        W13077   1.285  16.023   3.871
41407W        W13078   9.185  23.659  10.927
41408W        W13079  20.119  18.427   4.154
41409W        W13080  24.912  39.897  12.922
41410W        W13081   5.643   0.934  12.439
41411W        W13082  25.272  13.269  12.371
41412W        W13083  34.021  21.036  13.498
41413W        W13084  39.177  30.269  14.981
41414W        W13085  15.250  16.409  11.082
41415W        W13086   5.899  40.049   2.731
41416W        W13087  26.210  42.327  11.605
41417W        W13088  23.056  10.336  14.705
41418W        W13089  30.907  27.031   1.292
41419W        W13090  25.170  43.329  10.993
41420W        W13091  31.048  17.192   0.827
41421W        W13092   8.645  29.196   2.765
41422W        W13093   0.841  26.674   2.476
41423W        W13094  22.955  15.278   0.781
41424W        W13095  35.544  39.063  13.337
41425W        W13096  17.956  42.818   3.989
41426W        W13097  20.212  37.159  14.505
41427W        W13098  31.107  14.143  10.724
41428W        W13099   6.343  14.679   3.403
41429W        W13100  14.765   3.262  13.348
41430W        W13101  36.059   3.961   1.303
41431W        W13102   0.287  23.226   1.835
41432W        W13103  14.324  28.481   0.899
41433W        W13104  40.031  10.190  11.630
41434W        W13105  43.413  16.284   0.664
41435W        W13106  14.718  38.800  10.432
41436W        W13107  34.398   2.291   0.274
41437W        W13108  10.440   3.623   2.766
41438W        W13109  19.327  15.784   1.699
41439W        W13110   3.526  18.530   0.890
41440W        W13111  35.983  40.216  10.965
41441W        W13112   4.305   5.226  14.529
41442W        W13113  18.336   6.406   1.106
41443W        W13114  33.507  35.046  10.391
41444W        W13115   5.154  31.658  13.440
41445W        W13116  27.627  22.260  13.018
41446W        W13117   4.207  16.188  11.004
41447W        W13118  31.970  29.948  11.997
41448W        W13119  14.852  38.394   2.218
41449W        W13120  18.533  19.288   2.620
41450W        W13121  12.269  40.911   2.882
41451W        W13122   3.991  28.618   1.125
41452W        W13123   3.200  24.212  10.653
41453W        W13124   2.186  38.962  10.651
41454W        W13125  10.462  44.971   3.775
41455W        W13126  42.050  42.736  14.029
41456W        W13127  42.806  14.073  12.080
41457W        W13128   6.121  27.047  11.990
41458W        W13129   4.669  37.959  14.406
41459W        W13130  21.692  36.430   3.173
41460W        W13131  23.269  11.202   1.846
41461W        W13132  18.094  27.584   2.793
41462W        W13133  38.995  34.844   2.095
41463W        W13134   1.017  43.838  12.100
41464W        W13135  12.796  17.809  12.445
41465W        W13136  42.483  24.622  12.071
41466W        W13137  16.731  44.337  10.666
41467W        W13138  41.544   8.729   1.509
41468W        W13139   7.181  38.128   0.785
41469W        W13140  39.092  14.664   3.337
41470W        W13141   7.220  31.534  14.800
41471W        W13142  26.361  44.074   2.836
41472W        W13143  21.560  18.565  13.231
41473W        W13144  27.895  10.320  13.058
41474W        W13145  38.336  40.320   1.016
41475W        W13146  22.946  24.094   1.033
41476W        W13147  12.297  28.513   2.039
41477W        W13148  13.280  32.021  14.331
41478W        W13149  44.456  39.312  14.375
41479W        W13150  40.879  35.360   2.273
41480W        W13151  30.296  34.976  13.216
41481W        W13152  30.573  31.065   3.784
41482W        W13153  44.139   2.788   0.918
41483W        W13154  41.789  23.111   3.117
41484W        W13155  16.516  23.465  12.093
41485W        W13156  33.555   5.580   3.152
41486W        W13157  44.202  27.793  11.098
41487W        W13158  36.447  20.957  10.735
41488W        W13159  33.020   6.138   2.690
41489W        W13160   4.777  13.156  11.160
41490W        W13161  10.857  35.967   2.714
41491W        W13162   9.126  19.749   0.277
41492W        W13163  18.294  35.484   1.447
41493W        W13164  36.951  27.641   4.417
41494W        W13165   7.106  10.915  14.433
41495W        W13166  31.034  27.474   1.536
41496W        W13167  20.268  37.003  11.859
41497W        W13168  30.183  35.331   3.674
41498W        W13169  21.264  24.570  11.507
41499W        W13170  30.920  24.046   1.741
41500W        W13171  40.596  21.154   4.686
41501W        W13172   6.349  44.021  11.153
41502W        W13173   1.787  31.608   4.157
41503W        W13174  26.020  43.382   4.173
41504W        W13175  39.496  10.643   1.428
41505W        W13176  40.801  20.666   3.759
41506W        W13177  34.536  20.079  11.921
41507W        W13178   4.717  15.546   3.710
41508W        W13179  12.584   5.980   0.874
41509W        W13180  42.456  41.287  12.900
41510W        W13181  21.910  30.893  13.431
41511W        W13182   1.372  38.521  10.930
41512W        W13183   0.189  19.023   0.918
41513W        W13184  29.160  10.289   4.202
41514W        W13185  29.199  44.363   0.530
41515W        W13186   5.726  28.660   0.774
41516W        W13187  33.513  41.756  12.681
41517W        W13188  27.123  18.748   0.896
41518W        W13189  28.454  11.173   1.195
41519W        W13190  37.584  28.460  14.329
41520W        W13191   8.911   9.854   1.234
41521W        W13192  33.852  12.282  14.493
41522W        W13193  33.154  42.333   1.349
41523W        W13194  40.683  39.366  11.799
41524W        W13195  11.338  41.969   0.521
41525W        W13196   2.481  10.382   0.265
41526W        W13197  42.139   0.788  11.050
41527W        W13198  13.180  21.284  13.821
41528W        W13199  40.346  16.580  14.789
41529W        W13200  16.304  21.047   2.755
41530W        W13201  32.237  42.279   0.998
41531W        W13202   0.754  16.689   2.215
41532W        W13203  21.442   1.355  13.489
41533W        W13204  40.045  27.192  12.938
41534W        W13205  22.519  18.133  13.403
41535W        W13206  10.366  32.495   1.817
41536W        W13207  24.596  34.351   3.747
41537W        W13208   3.149  24.328   4.189
41538W        W13209  28.928  28.848   0.810
41539W        W13210  30.634  15.139   1.325
41540W        W13211  10.233  28.880  13.439
41541W        W13212  36.812  13.807   1.805
41542W        W13213  19.653  12.849   0.204
41543W        W13214  34.021  38.480   1.007
41544W        W13215   6.138   8.647   3.045
41545W        W13216   2.646  40.976  11.573
41546W        W13217  35.726   2.071   0.351
41547W        W13218  28.114  44.322   3.435
41548W        W13219  42.820   2.824  12.671
41549W        W13220  24.964  22.478  12.157
41550W        W13221  23.047  28.505   2.294
41551W        W13222  27.350   6.440  14.273
41552W        W13223  21.954  36.400   3.617
41553W        W13224   6.447   0.242  13.496
41554W        W13225  15.340  38.278   0.208
41555W        W13226  36.593  40.356   2.275
41556W        W13227   9.836   9.469   4.577
41557W        W13228   9.640  10.669  12.072
41558W        W13229  17.174  14.715  13.594
41559W        W13230   5.298   1.667  13.626
41560W        W13231  16.780   8.593  14.644
41561W        W13232   9.381  26.167  14.836
41562W        W13233  13.401  13.392   0.444
41563W        W13234  31.034  40.846   2.870
41564W        W13235   7.691   2.951   1.809
41565W        W13236  25.275  42.909  13.843
41566W        W13237  16.695  35.165  13.994
41567W        W13238   9.258   0.429  13.418
41568W        W13239   1.772  40.051   1.803
41569W        W13240  21.542  42.661   3.895
41570W        W13241  44.235  38.313  11.975
41571W        W13242  14.403  26.753   0.931
41572W        W13243  25.116  44.951   1.870
41573W        W13244  13.998  10.344   4.194
41574W        W13245   9.751  24.547  10.699
41575W        W13246  39.418   1.392  10.680
41576W        W13247  43.494  37.391  12.403
41577W        W13248  39.880  35.849   3.889
41578W        W13249  40.341  18.744  10.974
41579W        W13250  21.990   3.046   4.061
41580W        W13251  23.488  43.964  11.614
41581W        W13252   0.199  23.605  13.370
41582W        W13253  43.912  25.543  12.123
41583W        W13254  27.312  14.827  10.684
41584W        W13255  10.679  24.047   1.805
41585W        W13256   3.462  42.747  14.694
41586W        W13257  31.459  25.208   2.854
41587W        W13258  17.581   3.967   1.339
41588W        W13259   3.277  26.925  10.544
41589W        W13260  14.757  34.586   1.821
41590W        W13261  38.804  38.769   2.783
41591W        W13262  37.951  32.160  10.382
41592W        W13263  14.312   7.904   3.186
41593W        W13264  38.456  40.795  12.416
41594W        W13265   4.441  27.480  13.825
41595W        W13266  24.543  41.619   2.718
41596W        W13267  16.881  35.978  10.607
41597W        W13268  19.212   6.328   2.197
41598W        W13269   9.676   0.355   1.871
41599W        W13270  15.012  33.819  11.657
41600W        W13271  13.599  27.636   0.367
41601W        W13272   5.778  32.003   0.235
41602W        W13273  21.487  24.191   4.632
41603W        W13274  20.173  13.554   2.683
41604W        W13275  25.229   3.100   0.844
41605W        W13276  39.313  20.710   1.685
41606W        W13277  43.911  37.615   3.610
41607W        W13278  38.459  18.423  12.023
41608W        W13279  18.435  26.466  12.827
41609W        W13280   2.919  20.546  11.853
41610W        W13281  22.284  12.744  14.477
41611W        W13282   8.782  44.641  10.383
41612W        W13283  14.870  24.223   0.313
41613W        W13284  37.201  28.898  10.748
41614W        W13285  42.598  10.532  12.592
41615W        W13286  15.349   9.760   0.927
41616W        W13287  29.546   9.277  11.643
41617W        W13288  30.139  32.863  13.355
41618W        W13289  29.074   5.393  13.314
41619W        W13290   5.267   0.494  12.990
41620W        W13291  42.802  41.786   4.117
41621W        W13292  15.323  28.167  12.808
41622W        W13293  31.361  16.998   1.970
41623W        W13294   9.797   2.995   0.263
41624W        W13295  42.537  27.014  10.666
41625W        W13296   5.977  22.823   0.518
41626W        W13297   1.574  41.000   1.390
41627W        W13298  12.634  36.414  13.819
41628W        W13299  38.084  12.294  12.546
41629W        W13300  15.186  42.198  12.544
41630W        W13301  18.472  17.094  12.506
41631W        W13302  13.697  18.183  13.769
41632W        W13303  24.746  36.500  14.477
41633W        W13304  39.235  14.708   2.187
41634W        W13305  27.704  10.118   2.186
41635W        W13306  41.281  33.986   1.559
41636W        W13307  23.149  24.742   0.278
41637W        W13308   0.680  32.312  13.497
41638W        W13309  23.024   0.252   4.542
41639W        W13310   6.432  42.877   4.026
41640W        W13311   5.299  21.184  12.700
41641W        W13312  13.053  13.025   3.733
41642W        W13313  28.686   1.637  11.481
41643W        W13314  12.093   2.854   4.130
41644W        W13315  43.460  34.490  12.302
41645W        W13316  18.088   9.823   2.612
41646W        W13317  32.881  41.970   4.656
41647W        W13318  37.335  14.797   2.480
41648W        W13319  44.287   5.159   1.550
41649W        W13320  27.236  32.342   3.602
41650W        W13321  18.048  33.424  14.448
41651W        W13322   1.420  35.360  14.373
41652W        W13323  13.810  22.965   4.232
41653W        W13324   0.338  33.184  12.503
41654W        W13325   6.449  22.334  13.909
41655W        W13326   1.797  10.434   1.895
41656W        W13327  19.460  39.802   3.730
41657W        W13328  23.714  15.840  10.480
41658W        W13329  36.245  25.687   4.989
41659W        W13330  38.495  24.672   1.745
41660W        W13331   1.867  30.864   4.647
41661W        W13332  14.428   4.298  13.403
41662W        W13333  28.373   3.942  13.331
41663W        W13334  22.194   6.464  13.813
41664W        W13335  14.802  32.375  13.556
41665W        W13336  28.622   6.407  11.529
41666W        W13337   8.163  19.269  13.363
41667W        W13338  16.534  23.592  14.258
41668W        W13339  19.865  44.148   3.669
41669W        W13340  41.956  20.567  12.371
41670W        W13341  37.021  18.302   2.373
41671W        W13342  37.335  18.339   0.332
41672W        W13343   5.707  30.744  14.655
41673W        W13344  43.674  27.686  10.208
41674W        W13345  15.174   2.774   1.282
41675W        W13346  13.603  34.496   2.584
41676W        W13347  18.983  44.843   2.671
41677W        W13348  10.812   3.691  13.807
41678W        W13349  21.484  18.388  11.621
41679W        W13350  19.161  25.075   3.160
41680W        W13351  22.011  18.623  10.726
41681W        W13352  16.151  25.986   0.721
41682W        W13353   2.988  43.382   1.943
41683W        W13354  12.112  32.070   1.301
41684W        W13355  39.836  26.077  12.189
41685W        W13356   3.134  30.621  13.799
41686W        W13357  37.502   5.356  12.694
41687W        W13358  31.936  25.557  12.872
41688W        W13359  38.499  13.149   0.425
41689W        W13360  38.972  33.723  10.248
41690W        W13361  37.865   5.781  13.345
41691W        W13362  13.642   2.180   4.719
41692W        W13363  21.005   3.552   1.105
41693W        W13364  20.802  11.262  11.362
41694W        W13365  23.927  31.405  10.666
41695W        W13366  30.604  42.296  12.028
41696W        W13367  41.406  12.549  12.002
41697W        W13368   6.792  30.904  11.576
41698W        W13369  34.816  14.831  12.889
41699W        W13370  41.854  44.901  12.848
41700W        W13371  24.556  28.532  12.802
41701W        W13372  42.834  32.006  14.557
41702W        W13373   9.640   2.942   3.689
41703W        W13374  16.752  16.077  12.394
41704W        W13375   4.385  20.335   2.656
41705W        W13376  17.747  43.990  12.672
41706W        W13377  20.156  26.994   3.529
41707W        W13378  44.410  10.882   0.889
41708W        W13379  40.393   2.928  11.160
41709W        W13380   4.360   1.462   5.116
41710W        W13381  16.842  12.155  12.991
41711W        W13382  29.073  36.500  14.342
41712W        W13383  34.325   0.587  13.844
41713W        W13384  26.433  31.118  12.049
41714W        W13385  12.566  10.890  14.046
41715W        W13386  42.684  42.963   0.040
41716W        W13387  21.625  32.882   0.678
41717W        W13388  41.365  32.403   1.783
41718W        W13389  16.334  14.508   3.306
41719W        W13390  38.760  12.293   2.242
41720W        W13391  22.715   2.311   1.437
41721W        W13392  30.147  38.084  14.010
41722W        W13393  29.888   3.528   2.332
41723W        W13394  18.795   2.776   1.021
41724W        W13395  38.031  41.133   3.715
41725W        W13396   7.359  43.587  13.894
41726W        W13397  13.383  35.537   2.436
41727W        W13398  26.636  18.241  10.247
41728W        W13399  33.976  42.496   3.204
41729W        W13400  15.117  26.170   0.897
41730W        W13401   4.268  41.232   0.385
41731W        W13402   6.332   9.444  12.850
41732W        W13403   1.461  17.289  14.760
41733W        W13404  29.456  28.457  13.545
41734W        W13405  23.715  22.108   2.268
41735W        W13406  27.470  15.076   2.159
41736W        W13407  10.754  23.647  14.528
41737W        W13408   7.641   3.751  11.582
41738W        W13409  19.362  39.738  13.386
41739W        W13410  16.138  21.043  13.327
41740W        W13411  43.519   3.668  13.394
41741W        W13412   2.353  38.313  11.687
41742W        W13413  28.054  32.927  13.995
41743W        W13414  10.917   6.608  11.629
41744W        W13415  39.038  43.531  11.609
41745W        W13416  23.204  11.907   1.373
41746W        W13417  43.504  17.015   0.351
41747W        W13418   6.152  27.914   2.740
41748W        W13419  20.469  11.920  13.502
41749W        W13420   0.970  25.445  13.088
41750W        W13421  43.591  10.876  14.088
41751W        W13422  17.607  27.170  13.502
41752W        W13423   6.543  25.175  14.889
41753W        W13424  31.380  35.523   0.690
41754W        W13425   4.387  37.915  11.567
41755W        W13426  27.111   5.002  14.476
41756W        W13427  34.856   4.571  12.316
41757W        W13428  36.507  13.813   2.389
41758W        W13429  10.796  44.737  11.668
41759W        W13430  19.267  19.604   0.975
41760W        W13431   4.485  34.523   1.021
41761W        W13432  12.377  21.095   2.736
41762W        W13433  25.976   5.762  11.145
41763W        W13434  14.210  14.589  14.528
41764W        W13435  14.648  35.356  12.981
41765W        W13436  19.667  26.180   2.042
41766W        W13437  23.741   0.744  11.909
41767W        W13438  38.211   4.184   4.107
41768W        W13439  40.990  23.663   2.256
41769W        W13440  42.543  42.251  13.948
41770W        W13441  19.324  24.725  14.695
41771W        W13442  26.058   9.624  13.319
41772W        W13443  42.352   7.192  13.927
41773W        W13444  40.612  15.096  12.891
41774W        W13445  24.588  25.217   0.096
41775W        W13446  24.081  17.141  12.363
41776W        W13447  43.783  10.819   3.427
41777W        W13448  34.610  41.318   1.737
41778W        W13449  24.512  10.180  14.978
41779W        W13450  10.312  26.056   4.890
41780W        W13451  34.091  11.622   1.289
41781W        W13452  22.522  41.060   2.524
41782W        W13453  19.938   7.562  12.572
41783W        W13454   6.733  11.658   0.729
41784W        W13455  19.833  41.829  13.916
41785W        W13456  40.385  30.019  14.781
41786W        W13457  43.903   3.774  14.707
41787W        W13458  13.946  25.505  14.648
41788W        W13459  37.292   5.290  14.037
41789W        W13460  12.691   9.901   3.618
41790W        W13461  23.436  41.012  12.892
41791W        W13462   1.270   2.323   3.662
41792W        W13463  44.458  19.273   1.264
41793W        W13464   4.010   3.060  14.814
41794W        W13465  34.932  41.909   4.005
41795W        W13466  13.291  14.799  12.583
41796W        W13467  11.038  41.462   2.732
41797W        W13468  35.877  19.904  11.988
41798W        W13469   1.891  30.123   0.866
41799W        W13470  28.173  10.398   2.125
41800W        W13471  38.824   3.972   2.653
41801W        W13472  30.541  33.897  10.926
41802W        W13473  43.306  17.409  14.177
41803W        W13474   5.979  33.563   5.035
41804W        W13475  19.541   1.496  10.699
41805W        W13476  44.027  41.233   2.821
41806W        W13477   9.638  15.869  14.281
41807W        W13478  27.613  20.566  13.967
41808W        W13479  19.094  39.941   1.229
41809W        W13480  24.077   5.497   4.137
41810W        W13481  43.548   1.314  14.834
41811W        W13482  18.630  10.462  13.829
41812W        W13483  25.234  30.915  11.631
41813W        W13484  36.019  14.592  10.806
41814W        W13485  44.439  14.214   9.709
41815W        W13486  32.096   0.495  12.513
41816W        W13487  44.009   9.302   2.666
41817W        W13488  28.545  13.587  14.877
41818W        W13489  12.826   4.156  14.994
41819W        W13490  35.622  18.246   3.284
41820W        W13491  23.316   9.098  11.090
41821W        W13492  21.927  28.158  10.583
41822W        W13493  42.340  40.125   2.733
41823W        W13494  33.327   7.451  13.436
41824W        W13495  37.314  36.080  12.874
41825W        W13496  41.465  22.708   1.771
41826W        W13497  30.623  30.718  14.536
41827W        W13498  31.250  18.632  12.934
41828W        W13499  33.228  15.314  10.504
41829W        W13500  35.626  17.724   1.366
41830W        W13501   3.442  33.636  12.888
41831W        W13502  33.537  12.232  14.914
41832W        W13503  30.693  38.418   0.319
41833W        W13504   6.239  10.096  11.364
41834W        W13505   7.794  24.426  14.917
41835W        W13506  28.799  36.888  12.078
41836W        W13507  10.611  34.884   3.696
41837W        W13508  43.422  21.118   1.497
41838W        W13509  38.053  38.253   9.926
41839W        W13510   5.202  14.561   1.480
41840W        W13511  13.737   9.396   2.247
41841W        W13512   0.505  29.435   4.277
41842W        W13513  21.650   4.278   4.516
41843W        W13514  13.607  39.335  13.296
41844W        W13515  11.835  22.097  13.984
41845W        W13516  26.853  13.297   0.289
41846W        W13517  15.810  16.221   0.792
41847W        W13518  27.402   2.975   2.789
41848W        W13519  38.659  37.334   1.263
41849W        W13520  25.162  20.142  11.676
41850W        W13521   3.500  13.308  12.075
41851W        W13522  22.314  13.297  11.929
41852W        W13523  23.651  27.968  11.053
41853W        W13524  19.185  27.632   3.650
41854W        W13525  24.819  30.626   0.973
41855W        W13526  38.614  29.700   0.470
41856W        W13527   0.392   6.807  13.647
41857W        W13528   1.659  38.329  12.968
41858W        W13529  34.619  24.595  13.463
41859W        W13530  31.083  23.593  13.137
41860W        W13531  11.347   4.962   2.624
41861W        W13532  27.666  22.399  14.005
41862W        W13533   1.547  32.875   4.442
41863W        W13534   4.838  14.699  11.652
41864W        W13535  23.467  41.579  13.012
41865W        W13536  16.602   1.065  14.465
41866W        W13537   4.914  27.597  14.667
41867W        W13538  23.783  20.314  14.307
41868W        W13539  29.190  10.454   3.292
41869W        W13540   1.169   6.556   1.340
41870W        W13541  14.363  10.016   2.037
41871W        W13542  39.334  19.003  14.816
41872W        W13543  38.105  11.002  14.028
41873W        W13544  44.061  20.912   3.799
41874W        W13545  39.343  44.831   1.270
41875W        W13546   0.252  14.393   0.919
41876W        W13547  15.210   5.676  10.809
41877W        W13548   8.311   3.486  11.179
41878W        W13549  33.929  11.669   4.691
41879W        W13550  43.295  32.859   0.255
41880W        W13551  19.519  17.551   1.343
41881W        W13552  13.149  17.236  11.944
41882W        W13553  38.245  37.986   5.145
41883W        W13554  32.827  25.598   2.201
41884W        W13555  19.627  14.509   9.796
41885W        W13556   8.691  12.065  10.409
41886W        W13557  33.656  22.987   2.709
41887W        W13558  33.314  10.806   3.258
41888W        W13559  27.663   5.116   1.247
41889W        W13560  32.604   7.582  13.559
41890W        W13561  35.131  35.076  14.368
41891W        W13562  24.942  35.952   3.737
41892W        W13563   3.480  24.973  12.943
41893W        W13564   5.649  29.948  12.173
41894W        W13565  44.997  25.613  13.469
41895W        W13566  24.065   6.156  11.556
41896W        W13567  30.584   3.282  14.495
41897W        W13568  22.550  11.143  14.881
41898W        W13569   6.812  33.416  13.169
41899W        W13570   2.214  39.302   4.533
41900W        W13571   3.415  26.905  11.509
41901W        W13572  14.805   3.162  10.765
41902W        W13573  24.231  34.226   1.117
41903W        W13574   8.821  23.171  14.397
41904W        W13575  42.360  36.054  10.622
41905W        W13576  11.350  28.175  14.829
41906W        W13577  35.753  27.155  11.886
41907W        W13578   9.297  33.954  14.294
41908W        W13579  20.307   5.253  11.504
41909W        W13580  37.409  36.552   1.297
41910W        W13581  42.284  27.505  10.748
41911W        W13582  22.433  33.156  10.434
41912W        W13583  19.950   7.525   5.101
41913W        W13584   2.001   0.410  13.057
41914W        W13585  21.230  25.973  11.452
41915W        W13586  20.703  14.336   5.060
41916W        W13587   0.436  37.659  10.945
41917W        W13588   4.402  20.098  13.999
41918W        W13589  31.661   4.145  12.873
41919W        W13590   3.932  21.182  11.760
41920W        W13591  16.117  39.206  10.654
41921W        W13592  16.505  17.224   1.791
41922W        W13593   0.413  43.335  13.058
41923W        W13594  28.210  20.602  11.424
41924W        W13595  43.864  40.130   3.651
41925W        W13596   1.815   0.133   0.811
41926W        W13597  21.001  44.203  14.557
41927W        W13598  26.998  18.890   0.373
41928W        W13599  43.495   0.586  11.079
41929W        W13600   7.967  41.198   0.469
41930W        W13601  14.046  43.069  10.447
41931W        W13602   9.186  32.302  10.423
41932W        W13603  17.319  39.290  12.369
41933W        W13604  34.002  37.623  10.121
41934W        W13605  44.386  35.386  11.936
41935W        W13606  30.566  36.623   3.830
41936W        W13607  26.667  33.136  13.851
41937W        W13608  16.405  37.851  11.848
41938W        W13609  35.731  22.975   3.679
41939W        W13610  33.246  35.766   1.069
41940W        W13611  26.191   5.749  13.384
41941W        W13612  15.682  25.963   2.651
41942W        W13613  29.994  12.717   1.819
41943W        W13614  27.570  27.385  11.981
41944W        W13615  39.911  16.000   3.247
41945W        W13616  22.271   2.991  13.451
41946W        W13617  40.726  29.525   4.019
41947W        W13618   9.923  24.184   3.154
41948W        W13619  38.739  41.909  13.016
41949W        W13620  26.963   1.749  13.473
41950W        W13621  42.229  11.291   5.052
41951W        W13622  37.148  34.203  12.900
41952W        W13623   3.863  19.738   3.802
41953W        W13624  18.116  38.404  10.489
41954W        W13625  40.920  43.873   2.824
41955W        W13626  22.792  24.512   3.138
41956W        W13627  18.368   5.816   0.406
41957W        W13628   5.356  14.511  12.527
41958W        W13629  42.500  11.760   5.055
41959W        W13630  36.226  32.874  14.770
41960W        W13631   4.253  18.785   0.344
41961W        W13632  33.657  33.075   0.142
41962W        W13633  42.888  32.115  14.006
41963W        W13634  43.307  40.079   4.032
41964W        W13635   0.165  41.311   5.459
41965W        W13636  32.478  18.067   4.237
41966W        W13637   8.389  36.824  10.635
41967W        W13638   2.874  32.181   2.329
41968W        W13639  25.464  26.448   2.681
41969W        W13640  20.284  28.004  12.988
41970W        W13641  19.093  43.391  14.828
41971W        W13642  13.716  35.175  11.744
41972W        W13643  39.331  12.378   1.874
41973W        W13644  40.101  40.976   2.819
41974W        W13645  19.564   9.637  14.773
41975W        W13646  43.822  22.456  11.129
41976W        W13647  28.429  24.453  10.704
41977W        W13648  38.504  36.026  14.526
41978W        W13649  30.977  10.399  14.742
41979W        W13650  30.238   3.639  12.390
41980W        W13651  35.538  27.252   3.915
41981W        W13652   7.166   1.529   4.273
41982W        W13653  12.664   5.323   2.431
41983W        W13654  29.143   2.041  10.815
41984W        W13655  29.301  22.581   4.605
41985W        W13656  14.273  15.166   2.285
41986W        W13657  22.509   1.044   2.432
41987W        W13658  29.090  26.464  12.628
41988W        W13659  13.387  40.985  14.040
41989W        W13660  36.977  36.532  10.515
41990W        W13661  26.544  14.139  14.452
41991W        W13662  18.038  27.942  12.078
41992W        W13663   5.903  26.593   4.180
41993W        W13664  17.280  19.063  14.404
41994W        W13665   9.156  30.956   4.699
41995W        W13666  31.796  32.184  14.421
41996W        W13667  18.089  27.615  12.500
41997W        W13668  36.050  29.725  12.829
41998W        W13669   9.871  10.193   3.449
41999W        W13670  13.824  20.534   1.683
42000W        W13671  28.156  11.285  14.481
42001W        W13672  12.138  42.868  11.902
42002W        W13673  15.490  25.233  12.295
42003W        W13674   5.730   4.371  12.587
42004W        W13675  15.028   8.221  14.467
42005W        W13676  13.144  35.066   4.726
42006W        W13677  19.540   9.239  13.939
42007W        W13678  41.876  38.293   0.606
42008W        W13679   5.270   8.426  14.781
42009W        W13680   9.554   5.913   3.738
42010W        W13681  36.365  31.883  14.487
42011W        W13682  15.043  10.681   0.817
42012W        W13683  41.784  38.060   4.587
42013W        W13684  39.565   7.899   0.362
42014W        W13685  22.244   4.427  14.027
42015W        W13686   9.424  24.059   3.234
42016W        W13687  42.067  34.544   1.394
42017W        W13688  27.158  40.649  12.818
42018W        W13689  37.097  15.301   4.573
42019W        W13690  28.692  22.603  13.302
42020W        W13691  14.270  44.892   0.802
42021W        W13692  29.972  29.520  10.596
42022W        W13693  42.755  13.954   1.731
42023W        W13694  18.157  29.552   3.762
42024W        W13695  12.415   2.872   2.350
42025W        W13696  15.991   2.778  12.199
42026W        W13697  35.123  14.508   3.681
42027W        W13698  39.439   5.743  13.075
42028W        W13699   7.651  25.763  12.850
42029W        W13700  39.296  38.425  12.515
42030W        W13701   8.314  17.842   0.705
42031W        W13702  16.322  30.876  11.506
42032W        W13703  10.307  23.731   0.922
42033W        W13704  42.332  24.060  10.247
42034W        W13705  10.202  34.298   4.213
42035W        W13706   1.751   2.972   1.627
42036W        W13707  28.650  15.198   1.775
42037W        W13708   0.361  27.577  11.581
42038W        W13709  42.775  12.085  11.040
42039W        W13710  35.129  43.099  10.185
42040W        W13711  24.149  24.898  11.630
42041W        W13712   2.731  13.705  12.082
42042W        W13713  16.889  30.127   4.020
42043W        W13714  36.428   7.715   0.261
42044W        W13715  33.713  42.761   2.331
42045W        W13716  13.190  16.156   3.299
42046W        W13717  21.132  28.609  13.798
42047W        W13718  10.038  44.456   4.855
42048W        W13719  42.683  19.496  14.401
42049W        W13720  14.284  11.229  14.762
42050W        W13721  17.822  37.128   1.672
42051W        W13722  38.412  27.225  13.506
42052W        W13723   2.034  20.066   2.463
42053W        W13724  19.115   1.415   0.263
42054W        W13725   3.242   1.969   4.470
42055W        W13726  19.505  28.172  11.467
42056W        W13727   6.685  16.526  13.833
42057W        W13728  12.938  15.080  14.072
42058W        W13729  16.140  19.623  14.231
42059W        W13730  10.290  30.994  11.006
42060W        W13731  36.921  22.490   3.233
42061W        W13732   1.126  20.159  13.006
42062W        W13733  43.161  17.017   2.923
42063W        W13734  13.600   2.324   1.807
42064W        W13735   7.979  34.851  13.183
42065W        W13736  18.545  37.335  10.764
42066W        W13737  34.123  13.263  12.087
42067W        W13738   9.173  17.653  13.850
42068W        W13739  43.770  31.782   1.454
42069W        W13740  12.288  40.945   1.840
42070W        W13741   2.931  30.398   3.678
42071W        W13742  30.901  22.195   4.698
42072W        W13743  28.498  14.751   3.333
42073W        W13744  31.049   8.666   3.637
42074W        W13745  31.048  13.864  12.064
42075W        W13746  44.884  43.022  13.914
42076W        W13747  12.200  35.429   4.287
42077W        W13748   2.804  38.024   2.084
42078W        W13749  33.315  10.871  12.997
42079W        W13750   8.973  27.671   3.598
42080W        W13751  39.070  34.307  14.526
42081W        W13752   1.932  15.832  10.131
42082W        W13753  18.941  26.542   4.582
42083W        W13754  10.131  22.722  13.243
42084W        W13755  34.313  41.738   1.662
42085W        W13756   6.928   9.262  12.515
42086W        W13757  20.664  32.028   4.809
42087W        W13758  25.209  13.728   2.376
42088W        W13759   5.164   5.337  14.089
42089W        W13760  22.563   3.213  13.867
42090W        W13761  37.985   7.539  12.271
42091W        W13762  18.446  17.544  11.662
42092W        W13763   9.200  38.821  12.397
42093W        W13764   1.048  15.404   2.619
42094W        W13765  39.120   7.895   1.247
42095W        W13766  40.159  42.457   5.134
42096W        W13767  10.250  13.162  11.042
42097W        W13768   9.958  44.331  10.031
42098W        W13769  15.605   3.147  14.951
42099W        W13770  43.964  34.710  13.538
42100W        W13771  41.349   3.978   1.378
42101W        W13772  37.726  10.202  12.108
42102W        W13773  44.051  19.759   3.858
42103W        W13774  15.180  14.829   0.452
42104W        W13775   4.219   8.367   3.669
42105W        W13776  28.419  18.820   2.867
42106W        W13777  19.565  12.729  13.902
42107W        W13778   1.922  44.236   1.907
42108W        W13779  32.627   0.498   1.834
42109W        W13780  31.141   8.671   4.252
42110W        W13781   8.766  41.430   0.401
42111W        W13782  17.139  26.240   0.514
42112W        W13783  40.303  27.525   4.615
42113W        W13784  38.328   6.387  13.293
42114W        W13785  34.782  27.916  12.580
42115W        W13786  39.000  10.119   4.674
42116W        W13787  26.040  18.556  11.547
42117W        W13788  43.379  31.427  12.934
42118W        W13789   1.734  17.033   0.618
42119W        W13790  41.383  35.582   2.298
42120W        W13791   4.317  27.628  12.374
42121W        W13792  38.553  32.687  11.496
42122W        W13793  28.364  32.744   0.270
42123W        W13794  28.509  29.077   2.492
42124W        W13795  29.518  25.701  13.140
42125W        W13796  11.286   1.629  10.472
42126W        W13797   8.324   8.515  13.967
42127W        W13798  21.066   9.391   2.232
42128W        W13799  40.481  13.360   4.144
42129W        W13800  18.512  28.418   3.157
42130W        W13801  34.346  14.689  10.672
42131W        W13802   6.755  41.111  11.724
42132W        W13803  28.188  19.163   3.963
42133W        W13804  25.719  20.579  14.800
42134W        W13805  29.389   3.455   4.249
42135W        W13806  19.641   9.629   1.283
42136W        W13807  29.955  34.603   3.175
42137W        W13808  20.267  12.299  10.902
42138W        W13809   5.360   5.809  12.679
42139W        W13810  43.360  42.863  10.649
42140W        W13811   2.940  38.865   1.493
42141W        W13812  22.778  19.209  14.017
42142W        W13813  14.550  13.240   1.232
42143W        W13814  39.061  17.433  13.837
42144W        W13815  24.972  24.554  14.882
42145W        W13816  12.727   1.039  11.758
42146W        W13817  19.566  34.017   2.172
42147W        W13818  21.775  26.287   2.879
42148W        W13819  32.547  26.183   0.453
42149W        W13820  15.672  16.142   0.302
42150W        W13821  16.085  19.123  13.916
42151W        W13822  15.156   9.270  13.703
42152W        W13823  30.891  20.461  11.571
42153W        W13824   3.977  14.298  12.598
42154W        W13825  38.908   4.929  10.966
42155W        W13826  14.777  42.748   3.816
42156W        W13827  21.429  33.332  11.978
42157W        W13828   7.340   9.330  14.440
42158W        W13829  13.622  38.484  14.528
42159W        W13830  31.491  44.405  10.539
42160W        W13831   1.292  27.504   3.990
42161W        W13832  12.066  22.080  10.472
42162W        W13833  18.610  20.289  11.597
42163W        W13834  16.561  28.037   0.938
42164W        W13835  11.681  28.550   1.378
42165W        W13836  10.136  13.239  12.386
42166W        W13837   9.069  10.306  10.657
42167W        W13838  35.000  31.871   1.976
42168W        W13839  29.126  25.523  10.851
42169W        W13840  41.764  16.016  13.505
42170W        W13841  28.455  39.229  14.928
42171W        W13842   7.841  20.747   1.197
42172W        W13843  37.873  34.480  11.455
42173W        W13844  10.195  35.348   0.798
42174W        W13845  20.050  11.675   2.005
42175W        W13846  36.115   9.338   3.200
42176W        W13847   7.437   2.009   1.688
42177W        W13848  29.617  19.529  12.875
42178W        W13849  31.460   9.505  14.768
42179W        W13850  41.656  25.127  14.090
42180W        W13851  18.551  15.189  13.027
42181W        W13852  34.057  11.314  14.376
42182W        W13853  41.768   7.909  11.645
42183W        W13854   9.879  21.139  13.103
42184W        W13855  43.498   8.567  14.451
42185W        W13856  30.532  30.674  12.009
42186W        W13857  37.979  24.990  13.773
42187W        W13858  34.413  28.602   4.215
42188W        W13859   2.219  13.307  14.066
42189W        W13860  40.592  28.176   3.238
42190W        W13861   1.303  39.159   3.212
42191W        W13862   6.285  27.804  13.987
42192W        W13863  18.477  33.930  14.890
42193W        W13864   4.532  35.630  11.205
42194W        W13865  43.522  12.159   3.773
42195W        W13866  28.464  39.455  14.446
42196W        W13867   6.947   5.698   2.754
42197W        W13868  16.254   1.841  12.216
42198W        W13869  28.696  30.271   3.580
42199W        W13870   3.626  13.214   1.922
42200W        W13871  17.178  10.302   1.945
42201W        W13872  13.182  18.869   0.224
42202W        W13873  27.475  41.095   2.531
42203W        W13874  15.112  25.103  11.495
42204W        W13875  20.730  39.955   4.207
42205W        W13876  33.635  33.214  10.289
42206W        W13877  38.907  32.066  12.812
42207W        W13878  41.566   0.363   4.204
42208W        W13879  22.647  13.852  14.889
42209W        W13880  43.797  41.173  13.096
42210W        W13881  14.565  28.998   3.380
42211W        W13882  24.448  36.401   5.423
42212W        W13883  37.544  17.167   1.140
42213W        W13884   6.362  12.208   4.627
42214W        W13885  21.797  35.687   4.663
42215W        W13886   3.735  17.771   2.254
42216W        W13887   0.220   6.391  13.389
42217W        W13888  39.851  28.348  13.986
42218W        W13889  40.763  38.057   3.667
42219W        W13890  22.978  30.252  14.453
42220W        W13891   0.160  37.837  14.289
42221W        W13892  17.165  36.081  12.583
42222W        W13893  13.488  19.906   9.857
42223W        W13894  31.656   2.863   1.329
42224W        W13895   2.340   7.393   3.437
42225W        W13896  14.851  11.181  13.470
42226W        W13897  30.628  22.057   0.551
42227W        W13898   3.998   2.223  13.224
42228W        W13899  36.913  21.549   1.986
42229W        W13900  40.298  15.191   1.709
42230W        W13901   7.666   0.509  12.015
42231W        W13902  12.125  24.471  11.979
42232W        W13903  35.612  37.639  11.469
42233W        W13904  17.016  43.921   2.810
42234W        W13905  21.553  44.407   0.838
42235W        W13906  33.871   3.847  10.625
42236W        W13907  39.422   4.811  13.523
42237W        W13908  43.236  27.619  13.859
42238W        W13909  35.199  20.073   2.508
42239W        W13910  44.209   4.679   0.780
42240W        W13911   1.134  31.381  11.890
42241W        W13912   3.975  14.856   1.214
42242W        W13913  28.237  13.353   4.712
42243W        W13914   0.356  27.953  13.338
42244W        W13915  25.726  35.470   3.700
42245W        W13916  13.749  29.407   1.282
42246W        W13917  35.543  15.060  13.409
42247W        W13918   4.337   7.928   4.136
42248W        W13919   5.752   6.739   3.772
42249W        W13920  31.969  32.426  10.688
42250W        W13921  38.821   2.787  11.559
42251W        W13922  42.932   8.859  13.620
42252W        W13923  38.895  24.644  12.697
42253W        W13924  19.828   6.110  14.375
42254W        W13925   0.754  11.716  14.322
42255W        W13926  29.354  41.362  12.404
42256W        W13927  11.533  40.765   2.959
42257W        W13928  27.183  35.843   1.814
42258W        W13929  17.055  18.123   1.216
42259W        W13930   1.406   9.780   2.174
42260W        W13931  20.296  24.531  13.880
42261W        W13932  18.625  31.829   0.780
42262W        W13933  41.278  31.146   2.644
42263W        W13934  18.787  41.398  10.564
42264W        W13935  10.894  20.328   4.689
42265W        W13936  42.531   6.124   3.802
42266W        W13937   7.223  26.699  13.365
42267W        W13938  18.631  31.099   4.127
42268W        W13939   2.244  19.510  12.604
42269W        W13940  23.018  41.271   1.724
42270W        W13941  19.069  35.063   3.068
42271W        W13942  42.758   4.715   3.777
42272W        W13943  34.366  33.977  10.330
42273W        W13944  36.988  14.321  11.864
42274W        W13945  35.835  33.057   1.839
42275W        W13946  31.053  14.864  12.783
42276W        W13947  21.037  41.556  13.819
42277W        W13948  24.094  14.289  11.579
42278W        W13949  17.870  38.508  13.332
42279W        W13950  33.964  43.580  10.483
42280W        W13951  22.575  18.525  13.020
42281W        W13952  19.818  25.486   2.679
42282W        W13953   0.722  38.324  14.710
42283W        W13954  34.336   0.770   2.306
42284W        W13955   0.591  10.418  14.720
42285W        W13956  34.145  36.698  11.909
42286W        W13957  37.118  24.325   2.249
42287W        W13958   5.248  35.147  12.473
42288W        W13959  13.562  32.890  10.966
42289W        W13960  23.435  12.163  10.771
42290W        W13961   1.949  15.344  10.305
42291W        W13962  31.245  27.825   2.549
42292W        W13963  17.292  14.158   4.214
42293W        W13964  40.008  10.521   2.308
42294W        W13965  10.968  44.732  14.518
42295W        W13966  26.386   7.432   0.529
42296W        W13967  19.058  20.494   0.528
42297W        W13968   3.803   9.641   1.292
42298W        W13969   7.150  21.554   1.808
42299W        W13970   9.209  14.639  14.001
42300W        W13971  37.122  27.899   3.688
42301W        W13972  10.413   7.402  11.830
42302W        W13973  42.108  25.578  14.829
42303W        W13974   1.946  32.856  13.419
42304W        W13975  28.269  40.307   5.059
42305W        W13976  21.622  40.985  14.824
42306W        W13977  10.795   7.652  12.541
42307W        W13978  25.975  20.796   3.371
42308W        W13979   3.820  27.635   1.719
42309W        W13980  35.412  13.326  10.720
42310W        W13981  43.200  22.669  14.849
42311W        W13982  10.257  38.377  10.945
42312W        W13983  14.599  22.262   3.138
42313W        W13984  13.438  36.581   1.644
42314W        W13985  38.622  11.650  13.561
42315W        W13986   8.752  30.543  12.464
42316W        W13987  29.794  25.125   2.801
42317W        W13988  36.943  44.984  13.283
42318W        W13989  41.341   7.712   2.676
42319W        W13990  43.919  42.970   1.506
42320W        W13991  18.824  33.073  13.607
42321W        W13992   6.436  17.746   2.334
42322W        W13993  18.376  13.420  14.356
42323W        W13994  37.882  13.373   4.371
42324W        W13995  16.273   0.326   4.580
42325W        W13996  42.609  29.933   2.338
42326W        W13997  43.591  12.189   4.660
42327W        W13998  12.386  44.465  12.792
42328W        W13999   1.482  18.752  14.561
42329W        W14000  15.743   5.915   3.699
42330W        W14001  30.815  32.669  13.627
42331W        W14002  29.529  33.531  10.224
42332W        W14003  26.327   8.244  11.833
42333W        W14004  26.536  39.073   4.784
42334W        W14005  38.635  12.937  11.642
42335W        W14006   9.575  17.694   2.570
42336W        W14007  43.518   2.791   2.336
42337W        W14008  14.671  14.628  10.702
42338W        W14009   5.760   0.403   4.385
42339W        W14010   8.924  37.812  12.525
42340W        W14011  16.685  40.621  11.336
42341W        W14012  32.821  11.691   1.954
42342W        W14013  19.608  22.528   4.280
42343W        W14014  30.616  20.152  10.403
42344W        W14015  33.706   9.148   4.940
42345W        W14016   9.677  43.271   0.953
42346W        W14017  43.837  23.232   0.454
42347W        W14018   8.379  35.904   1.283
42348W        W14019  10.166  44.853   4.217
42349W        W14020  37.765  17.002   3.141
42350W        W14021  32.486  31.895  10.890
42351W        W14022  17.790  31.039  10.942
42352W        W14023  18.720   8.284  10.931
42353W        W14024  23.033  12.995   4.641
42354W        W14025  10.949  24.753  12.832
42355W        W14026  37.098  31.351   4.115
42356W        W14027  28.176  33.979   0.520
42357W        W14028  36.852   3.405   3.693
42358W        W14029  28.118   0.440   4.377
42359W        W14030  25.740   1.383   0.304
42360W        W14031  32.631  40.496  10.711
42361W        W14032   4.380  32.826  11.701
42362W        W14033  10.853  26.077   4.123
42363W        W14034  17.339   9.011  10.136
42364W        W14035  34.243  31.646  12.853
42365W        W14036  32.905  33.151  12.871
42366W        W14037  18.968  21.727   2.107
42367W        W14038  35.336  12.730  14.420
42368W        W14039  35.953  17.646   4.639
42369W        W14040  41.224  26.548   1.420
42370W        W14041   2.003  40.798  12.035
42371W        W14042   5.644  18.955   1.863
42372W        W14043  13.860   4.416   0.826
42373W        W14044  27.191  33.473  11.651
42374W        W14045  36.125   0.412   0.357
42375W        W14046  27.582  24.241  11.586
42376W        W14047  26.653  27.448  12.067
42377W        W14048  23.640  29.663   4.193
42378W        W14049  18.719  35.273   1.185
42379W        W14050   1.925   4.390  11.986
42380W        W14051  19.296  42.342  12.099
42381W        W14052  20.449  25.444   1.441
42382W        W14053  16.534   0.877  10.415
42383W        W14054  33.040  21.530   3.208
42384W        W14055  42.562  23.764   4.169
42385W        W14056  21.561  43.729   1.369
42386W        W14057   1.657  24.552   2.174
42387W        W14058  34.030  29.999   3.367
42388W        W14059  20.689   8.990   2.386
42389W        W14060  24.086  35.426   0.439
42390W        W14061  44.107   2.424   1.310
42391W        W14062  41.267  23.118   3.129
42392W        W14063  43.026   7.389   3.781
42393W        W14064   5.455   8.983  14.044
42394W        W14065  43.323  28.959   0.474
42395W        W14066   7.254  29.467   3.789
42396W        W14067  12.708   5.161   0.318
42397W        W14068  38.638   9.293  14.466
42398W        W14069  22.688  32.900   3.397
42399W        W14070  24.023  18.195   2.341
42400W        W14071  26.158   7.702   2.112
42401W        W14072   4.192  26.901  14.983
42402W        W14073  34.611   1.414  14.052
42403W        W14074   6.834   0.997  14.752
42404W        W14075   3.538   8.333  12.393
42405W        W14076   1.384  10.171  11.433
42406W        W14077  16.892  41.251   3.272
42407W        W14078  24.901  42.765   3.427
42408W        W14079  26.691  34.433  10.286
42409W        W14080  34.901  21.701  14.373
42410W        W14081  43.700  26.324  11.164
42411W        W14082  30.750  16.171  14.337
42412W        W14083  10.403  26.866  12.563
42413W        W14084  13.882  12.147  13.846
42414W        W14085  30.140  39.433  11.908
42415W        W14086   6.742  31.889  10.419
42416W        W14087  39.828  26.622   1.288
42417W        W14088  19.798  26.656   3.306
42418W        W14089  40.390  19.189  12.453
42419W        W14090  21.570  28.987   1.145
42420W        W14091  20.513  28.792  13.979
42421W        W14092  14.754  32.017   0.794
42422W        W14093   6.449   7.394   4.644
42423W        W14094  29.128  41.309  12.868
42424W        W14095  35.135  40.799  14.376
42425W        W14096  38.549   9.874  14.872
42426W        W14097   7.738  20.107  13.372
42427W        W14098   4.253  43.103  10.158
42428W        W14099  33.385  39.572  10.003
42429W        W14100  30.095  30.850   3.842
42430W        W14101  17.834  15.540  14.686
42431W        W14102  14.819  41.030   2.812
42432W        W14103  23.194  16.818   1.523
42433W        W14104  11.223   8.311  13.326
42434W        W14105  18.864  38.803  13.480
42435W        W14106   4.917  43.330   3.282
42436W        W14107  17.498  43.300   3.316
42437W        W14108  36.965   9.314  13.352
42438W        W14109  29.145  20.142  13.741
42439W        W14110  41.813  41.696  14.796
42440W        W14111  27.956   2.675   2.001
42441W        W14112  14.188  33.813   0.115
42442W        W14113  23.126  42.393  14.302
42443W        W14114   8.018  23.551  13.735
42444W        W14115  43.536   2.847  13.363
42445W        W14116  28.950  12.223  11.545
42446W        W14117  32.591   1.730   0.366
42447W        W14118   3.935  42.877  14.914
42448W        W14119  11.411  33.193   1.345
42449W        W14120   2.268  17.725  12.914
42450W        W14121  16.230  40.039  13.319
42451W        W14122  20.189  33.341  12.500
42452W        W14123  31.695   1.662   1.647
42453W        W14124  18.534  19.470  14.865
42454W        W14125  26.254  28.131  14.975
42455W        W14126  25.048   4.822   1.697
42456W        W14127  20.671  12.870   1.404
42457W        W14128  20.762   9.921  14.459
42458W        W14129  41.081  15.844  11.130
42459W        W14130  33.974   2.950  13.481
42460W        W14131  36.760  34.248   1.765
42461W        W14132   2.654  18.092   0.029
42462W        W14133  41.199  29.571  11.574
42463W        W14134   3.269   1.282   2.632
42464W        W14135  20.335  42.853   1.305
42465W        W14136  25.161  15.655  12.868
42466W        W14137   5.717  22.329   4.243
42467W        W14138  28.417   0.058   3.296
42468W        W14139  20.420  24.903  11.565
42469W        W14140  17.308  41.981   0.112
42470W        W14141  22.090  10.921   4.647
42471W        W14142  11.367  36.802   4.314
42472W        W14143   3.481  29.186   1.823
42473W        W14144   0.758   6.211  14.800
42474W        W14145  15.666  20.250  14.568
42475W        W14146  42.791  27.473  12.882
42476W        W14147   9.318   7.744  14.495
42477W        W14148   7.177   3.471   2.903
42478W        W14149  19.973  42.936   3.205
42479W        W14150  13.559  41.863  13.035
42480W        W14151  41.792  14.785   3.086
42481W        W14152  19.647  15.937  13.072
42482W        W14153  39.759   1.874  12.980
42483W        W14154   4.418  28.710  12.438
42484W        W14155  32.231  15.314  12.155
42485W        W14156  25.991   8.068   1.297
42486W        W14157  35.004  17.068  11.174
42487W        W14158   1.757  20.002  13.875
42488W        W14159  14.344  35.500  12.523
42489W        W14160   4.403  10.383   4.847
42490W        W14161  43.830   1.500  10.697
42491W        W14162  13.300  20.817  14.928
42492W        W14163  10.103  19.501   1.232
42493W        W14164  11.893   9.786  14.860
42494W        W14165  29.614   8.768   1.181
42495W        W14166  15.258  23.792  13.449
42496W        W14167  36.446  35.528  11.199
42497W        W14168  42.323  30.093   3.755
42498W        W14169  35.444   2.776  11.829
42499W        W14170   6.290  11.379  11.985
42500W        W14171  19.106  15.077  11.161
42501W        W14172   4.120   2.383  11.957
42502W        W14173  14.556  43.299   4.487
42503W        W14174  28.390  43.649   4.168
42504W        W14175  18.785   2.253  10.521
42505W        W14176  40.669  29.619  12.996
42506W        W14177  10.242   8.836   0.931
42507W        W14178  31.094  10.803  14.450
42508W        W14179  35.465  12.823   1.354
42509W        W14180  16.215  14.884  14.574
42510W        W14181  15.549  17.982   0.397
42511W        W14182  28.912  37.752   2.889
42512W        W14183  15.494   7.710   5.288
42513W        W14184  23.529  15.148  13.122
42514W        W14185  24.991   8.463   2.132
42515W        W14186   1.372  28.379   0.035
42516W        W14187  30.687   6.446   2.227
42517W        W14188   9.189  34.611   0.546
42518W        W14189  44.195  21.618  10.103
42519W        W14190   7.504  38.853  14.130
42520W        W14191  34.055   0.963   1.306
42521W        W14192   5.342  33.164  10.783
42522W        W14193  38.509  40.307   2.272
42523W        W14194  39.480   3.711   1.024
42524W        W14195   2.727  43.300   2.381
42525W        W14196  11.100  43.490  10.433
42526W        W14197  40.619  33.448   1.347
42527W        W14198   5.956  40.804   3.665
42528W        W14199  29.376  15.471  11.617
42529W        W14200   8.983  41.918   3.654
42530W        W14201  28.038   0.808   2.956
42531W        W14202  16.801  30.172  12.556
42532W        W14203  40.843  22.257   4.330
42533W        W14204   3.006  14.276  12.839
42534W        W14205  13.073  24.063  10.771
42535W        W14206   1.295  30.457   2.915
42536W        W14207  19.032  12.100  14.402
42537W        W14208  43.757   2.412  13.515
42538W        W14209  36.619  44.564  11.110
42539W        W14210  24.151  43.754   1.388
42540W        W14211  16.251  27.403  13.599
42541W        W14212   0.193   9.720  13.450
42542W        W14213  14.941  18.619   3.551
42543W        W14214  35.994  14.427  11.985
42544W        W14215  31.426  44.774  12.466
42545W        W14216  36.090   8.910   4.183
42546W        W14217  11.867  21.038   2.730
42547W        W14218  43.913  44.767   1.739
42548W        W14219  35.642   7.254   2.831
42549W        W14220  31.645  25.272   1.327
42550W        W14221  15.057  30.400   3.681
42551W        W14222  22.719  11.978  10.250
42552W        W14223  26.035  19.330   2.825
42553W        W14224  27.080  16.205   4.583
42554W        W14225  22.884  42.918  11.390
42555W        W14226  39.637  27.875  14.025
42556W        W14227   5.950  38.096  12.426
42557W        W14228  15.023   1.516   1.104
42558W        W14229  42.399  36.288  13.883
42559W        W14230  21.395  27.188   4.523
42560W        W14231  39.619  38.349  13.406
42561W        W14232  41.823  38.364  11.145
42562W        W14233   3.352   9.734  12.616
42563W        W14234  23.496  37.073  10.679
42564W        W14235  25.193  34.010  14.100
42565W        W14236   7.103  42.885   0.350
42566W        W14237  42.257  12.724   0.842
42567W        W14238   3.986   2.641  11.170
42568W        W14239  14.867  24.243  14.406
42569W        W14240  11.883   1.909  11.040
42570W        W14241  30.911  43.397  13.948
42571W        W14242  34.892   5.748   3.543
42572W        W14243   6.876  28.352   1.103
42573W        W14244  42.818   0.959  10.432
42574W        W14245  39.930  42.084  13.376
42575W        W14246  14.266  14.140   2.257
42576W        W14247  32.570  38.029   4.587
42577W        W14248  44.932  35.648   2.470
42578W        W14249   3.665  43.001   4.033
42579W        W14250  15.075  20.637   1.584
42580W        W14251  30.084  32.160   1.447
42581W        W14252  44.178  10.597   4.285
42582W        W14253  37.992  22.014  11.637
42583W        W14254  30.043   6.688   4.234
42584W        W14255  27.592  18.324  13.529
42585W        W14256   0.706  39.882  11.932
42586W        W14257   3.546  34.696   1.680
42587W        W14258   6.239  29.912  12.828
42588W        W14259  34.664  43.405   0.587
42589W        W14260  20.578  30.103   1.321
42590W        W14261  27.913   6.230  11.971
42591W        W14262  36.936  37.049  13.840
42592W        W14263  31.906  44.763  14.895
42593W        W14264  18.974   5.142  13.893
42594W        W14265  12.130  36.001   1.813
42595W        W14266  43.092   0.809   2.931
42596W        W14267   1.512  41.390  10.596
42597W        W14268  14.046  40.392   0.915
42598W        W14269  27.158  42.541  13.158
42599W        W14270  29.476  20.614   4.660
42600W        W14271  39.929  38.666   2.122
42601W        W14272  14.366  44.071  13.640
42602W        W14273  28.481  14.823  10.790
42603W        W14274  30.023  14.072  12.569
42604W        W14275  36.108  33.177   4.096
42605W        W14276  38.462   6.596   3.545
42606W        W14277  14.422   7.263  10.262
42607W        W14278  27.098  25.704  13.141
42608W        W14279  35.023  28.787  12.374
42609W        W14280  12.589  29.225  12.684
42610W        W14281  20.652  20.610   1.285
42611W        W14282  12.627  40.462  14.007
42612W        W14283  10.735  14.138   0.645
42613W        W14284  33.580  32.438   1.836
42614W        W14285  43.335  22.184  14.979
42615W        W14286  13.630  24.177  10.829
42616W        W14287  12.571  13.988  13.506
42617W        W14288  25.500  10.698   3.045
42618W        W14289   0.894  40.756  11.178
42619W        W14290  23.950  13.874  13.811
42620W        W14291  26.572  42.151   4.720
42621W        W14292  33.884   0.344  12.937
42622W        W14293  24.513   6.439  11.537
42623W        W14294  44.374   4.706  14.811
42624W        W14295  41.909  15.107  14.960
42625W        W14296  17.104  34.629  10.194
42626W        W14297  20.870  19.059  12.078
42627W        W14298   8.173   7.660  10.717
42628W        W14299  28.885  35.394   1.070
42629W        W14300   6.865  21.303  11.883
42630W        W14301  20.155  13.237  10.446
42631W        W14302  32.491  10.403   0.239
42632W        W14303  40.850  40.622   3.625
42633W        W14304   2.953  41.885  13.864
42634W        W14305  37.823  11.987  13.859
42635W        W14306  19.329  41.844  11.620
42636W        W14307  18.512  42.335  14.191
42637W        W14308  21.262  26.415   1.248
42638W        W14309  35.652   2.363  13.092
42639W        W14310  44.096   6.915  11.050
42640W        W14311   7.892  35.364   3.218
42641W        W14312   2.962   2.997   3.207
42642W        W14313  27.466   6.845   0.217
42643W        W14314  18.398  41.078   0.439
42644W        W14315  25.190   7.398  10.665
42645W        W14316  41.204   4.490  10.585
42646W        W14317   4.732  16.108  11.043
42647W        W14318   0.681  42.563  14.039
42648W        W14319  22.258  31.547   2.422
42649W        W14320  38.412  35.413   1.792
42650W        W14321   4.179  20.795   2.640
42651W        W14322  27.506  10.363  13.782
42652W        W14323   6.578  44.776  12.576
42653W        W14324  32.822  37.614  11.043
42654W        W14325  24.476   8.443  11.600
42655W        W14326   9.244  35.315   2.603
42656W        W14327   4.277  17.645  13.379
42657W        W14328  36.646   9.977  13.706
42658W        W14329   6.322  16.720   3.711
42659W        W14330  28.210  38.478   3.700
42660W        W14331  21.234  41.650  12.962
42661W        W14332  33.334  10.920   2.226
42662W        W14333  13.180  25.413  11.648
42663W        W14334  18.034  20.893  11.039
42664W        W14335  28.646  31.063  11.642
42665W        W14336   8.602   6.451  13.878
42666W        W14337   2.906  17.273  13.429
42667W        W14338  34.389  12.788  12.528
42668W        W14339  40.532  32.570  13.300
42669W        W14340   9.662  28.467   3.593
42670W        W14341  29.061  21.665   4.632
42671W        W14342  27.613  37.999  10.328
42672W        W14343  18.893   1.198   1.864
42673W        W14344  43.775  16.690  12.526
42674W        W14345  27.416   2.784  13.301
42675W        W14346  41.979   8.822   1.167
42676W        W14347  14.787  11.372  14.916
42677W        W14348   8.408  17.158  14.043
42678W        W14349  29.451   4.756   1.297
42679W        W14350  17.236  36.095   3.834
42680W        W14351  24.610  16.371  10.692
42681W        W14352   6.166  15.590   3.272
42682W        W14353  41.571  21.190   2.775
42683W        W14354  40.707  17.154  10.609
42684W        W14355   9.084  41.734  14.480
42685W        W14356  42.050  17.351   1.389
42686W        W14357   8.809  35.212  13.046
42687W        W14358  22.979  10.078  11.130
42688W        W14359  21.526   9.117   2.218
42689W        W14360  14.650  17.077   0.835
42690W        W14361  23.833  31.388   0.661
42691W        W14362  28.134  22.590  13.948
42692W        W14363  33.249  31.492   2.152
42693W        W14364   5.652  11.407  14.323
42694W        W14365  37.896  12.506  13.883
42695W        W14366  20.140  27.611   1.733
42696W        W14367  18.826  11.004   5.336
42697W        W14368  16.083  30.130  14.037
42698W        W14369   1.465  34.339  14.376
42699W        W14370  32.628  21.805   2.362
42700W        W14371  25.155  25.976   0.008
42701W        W14372  40.314  33.218   2.581
42702W        W14373   8.710   0.871  11.173
42703W        W14374   3.971  10.133   1.243
42704W        W14375  43.603  36.226  10.291
42705W        W14376  37.270   3.714   3.933
42706W        W14377   5.492  21.983  13.763
42707W        W14378  31.778  44.023  10.724
42708W        W14379  13.788   5.709   0.344
42709W        W14380  27.451  16.632   2.753
42710W        W14381  26.129  43.786   0.676
42711W        W14382   9.334  40.924   0.924
42712W        W14383  34.471  10.562   2.795
42713W        W14384  22.701  22.897  14.291
42714W        W14385   4.546   6.723  11.083
42715W        W14386   7.669  44.002  13.914
42716W        W14387   3.740  29.519  12.201
42717W        W14388  32.016  37.607  14.059
42718W        W14389  11.014  40.785   3.655
42719W        W14390  15.702  34.023  12.579
42720W        W14391  20.095  23.181   9.980
42721W        W14392  20.737   1.842   2.235
42722W        W14393  32.092  25.043   1.345
42723W        W14394  23.429  13.497   3.221
42724W        W14395  12.369  19.692   1.930
42725W        W14396  35.793  24.413  14.644
42726W        W14397  13.801  44.288  13.097
42727W        W14398  33.840   2.397   1.111
42728W        W14399  33.413  37.142  13.900
42729W        W14400  32.938  17.566   2.462
42730W        W14401  32.611  11.537  13.298
42731W        W14402  33.116  38.161   1.828
42732W        W14403   8.584  32.903  11.562
42733W        W14404  19.653  44.500   2.271
42734W        W14405  16.529   0.409   0.861
42735W        W14406  35.547   3.751  12.924
42736W        W14407  36.079  29.293   0.355
42737W        W14408  32.859  30.883   1.835
42738W        W14409  39.980   7.745  13.645
42739W        W14410  30.382  40.934  11.556
42740W        W14411  32.518   5.732  13.393
42741W        W14412  37.400   5.713   3.737
42742W        W14413  25.654   9.506   4.427
42743W        W14414  18.574   1.000   9.984
42744W        W14415  30.154  19.802  11.188
42745W        W14416  29.004  33.779   0.838
42746W        W14417   8.272   3.470  11.690
42747W        W14418  30.434  15.348   0.625
42748W        W14419  22.657  34.333   3.281
42749W        W14420   1.840  18.296  12.578
42750W        W14421  16.830  27.501   3.067
42751W        W14422  36.895  19.737  11.227
42752W        W14423  30.054  37.692   1.799
42753W        W14424  21.615  10.671   4.800
42754W        W14425   4.218  35.937   1.360
42755W        W14426   2.889  37.097   1.790
42756W        W14427   6.488  38.625  13.404
42757W        W14428   8.638  27.916   3.876
42758W        W14429  32.983  35.564  14.697
42759W        W14430   6.001  11.892   0.417
42760W        W14431  27.493   5.195   4.037
42761W        W14432  16.851  21.529   4.213
42762W        W14433  35.871  44.835  11.676
42763W        W14434  17.803   1.796   1.572
42764W        W14435   9.195   5.465  13.982
42765W        W14436  18.695  19.813  14.435
42766W        W14437   1.477  28.616  11.969
42767W        W14438  38.109   4.313  14.437
42768W        W14439   8.380   1.180   0.953
42769W        W14440  25.552  40.898  11.180
42770W        W14441  15.209  10.361  12.496
42771W        W14442   0.184  39.095  10.947
42772W        W14443  21.469   0.017  14.469
42773W        W14444   8.812  30.473   1.447
42774W        W14445   8.887  14.210  14.617
42775W        W14446  44.538  38.052  12.284
42776W        W14447  20.724  20.694   4.466
42777W        W14448  13.809   3.799  13.199
42778W        W14449  33.857  19.817   0.860
42779W        W14450   4.879  32.818  13.928
42780W        W14451  13.127  15.101  11.690
42781W        W14452  42.072   0.890   3.940
42782W        W14453  10.448  23.502  11.842
42783W        W14454  19.953  30.637   3.213
42784W        W14455   3.895   4.264  10.825
42785W        W14456  16.948  18.996   2.612
42786W        W14457  25.395  22.594   1.217
42787W        W14458   7.907   7.445  11.092
42788W        W14459  44.898   9.306   3.141
42789W        W14460  24.916  36.706  12.014
42790W        W14461  34.303  42.335  10.395
42791W        W14462  25.226  39.622  10.863
42792W        W14463  40.359  43.497  11.333
42793W        W14464  19.295  42.317  14.712
42794W        W14465  41.819  12.340  12.998
42795W        W14466   8.978   5.741  14.684
42796W        W14467  18.720  25.381   5.268
42797W        W14468  16.451  43.831   3.631
42798W        W14469   4.405  38.846   3.678
42799W        W14470   5.336  42.824   3.635
42800W        W14471   6.226  43.386   1.397
42801W        W14472  11.840   6.806  11.243
42802W        W14473  30.901  11.761   4.553
42803W        W14474  22.671  10.712  10.607
42804W        W14475  29.081  20.890   0.511
42805W        W14476  20.325   4.202  10.688
42806W        W14477  33.920  20.147  11.124
42807W        W14478  19.640   3.774  14.292
42808W        W14479  18.578  28.028   1.405
42809W        W14480  17.635  11.113  14.055
42810W        W14481  28.154  16.614  14.058
42811W        W14482  28.137   5.313   1.177
42812W        W14483  30.871  18.364   5.091
42813W        W14484  10.371  23.521   3.303
42814W        W14485  44.970  34.431   4.353
42815W        W14486  35.978   9.597  14.338
42816W        W14487  44.989  36.980  11.997
42817W        W14488  11.742  10.248   3.549
42818W        W14489  24.245  27.447   1.476
42819W        W14490   7.437   9.262  12.464
42820W        W14491  14.335  13.116  14.377
42821W        W14492   7.833  13.808   2.665
42822W        W14493   6.658  23.964   3.712
42823W        W14494   3.157  33.647   0.259
42824W        W14495  28.639   2.556  11.329
42825W        W14496  12.764  39.195  14.930
42826W        W14497  24.008  30.422   3.094
42827W        W14498  26.784   9.701  10.174
42828W        W14499  31.353  40.783  13.314
42829W        W14500  20.985  35.307   2.256
42830W        W14501  19.160  42.433   2.695
42831W        W14502  19.533  10.733   4.871
42832W        W14503  30.983  36.126  11.214
42833W        W14504  37.558   4.433  12.062
42834W        W14505  21.253  21.275  13.012
42835W        W14506  21.145  34.955  11.628
42836W        W14507   2.315  26.845  13.706
42837W        W14508  34.470   7.244   3.294
42838W        W14509  42.537  18.734  10.676
42839W        W14510   4.796  15.592  13.871
42840W        W14511  41.957  12.525  14.956
42841W        W14512  32.108  14.992   4.367
42842W        W14513  10.392   5.457  14.941
42843W        W14514  25.656  27.361  13.504
42844W        W14515  16.071  11.173   3.639
42845W        W14516  11.636  16.783  11.055
42846W        W14517  21.647  19.621   0.864
42847W        W14518  42.517  23.438  11.588
42848W        W14519  41.480  21.064  12.925
42849W        W14520  31.236  11.852  10.999
42850W        W14521  13.059   2.308   1.807
42851W        W14522  16.824  34.404   3.597
42852W        W14523   0.755  23.105   9.826
42853W        W14524  15.493  43.178  12.463
42854W        W14525   3.082   4.787   3.398
42855W        W14526  31.831   5.135   2.526
42856W        W14527  25.101   2.810   3.646
42857W        W14528  23.965  35.152   1.884
42858W        W14529   4.427  14.332  11.537
42859W        W14530  14.519  12.145   2.984
42860W        W14531  41.958  10.134   0.327
42861W        W14532  20.926  32.379  14.083
42862W        W14533  28.546  22.801  13.737
42863W        W14534  13.356  34.176  11.148
42864W        W14535  31.757  37.722  13.039
42865W        W14536  10.922  36.894  12.380
42866W        W14537  15.086  23.753  14.331
42867W        W14538  32.191  20.520   5.011
42868W        W14539  19.110  39.409   1.926
42869W        W14540  41.782   3.130  13.531
42870W        W14541  25.148   5.407  11.166
42871W        W14542  19.607   3.014  11.596
42872W        W14543  34.053  32.096  11.964
42873W        W14544  27.436  26.835  11.105
42874W        W14545  16.396  30.373   4.036
42875W        W14546   3.241   9.875  10.595
42876W        W14547  35.479  30.355   1.848
42877W        W14548  44.883  17.642  14.394
42878W        W14549  42.217   6.227   1.424
42879W        W14550  33.055   9.313   2.272
42880W        W14551  44.073   5.925   1.761
42881W        W14552  31.649  16.025   1.901
42882W        W14553  19.928   4.427  13.768
42883W        W14554  12.358  29.036   0.856
42884W        W14555  26.542  27.980  10.199
42885W        W14556  18.092  16.578  14.432
42886W        W14557  35.227   4.885  14.184
42887W        W14558  38.106   0.523  11.986
42888W        W14559   6.248  32.164  11.702
42889W        W14560   5.812  20.634   3.658
42890W        W14561  11.933   5.419  11.644
42891W        W14562   8.900  17.291   3.289
42892W        W14563  26.649  21.433   2.713
42893W        W14564  21.486  35.610  11.842
42894W        W14565  27.606  14.543  12.012
42895W        W14566  30.823  27.486   0.177
42896W        W14567  10.539  42.458   4.561
42897W        W14568  39.862  13.624   1.362
42898W        W14569   3.872  36.026   0.977
42899W        W14570  13.204  27.100  13.936
42900W        W14571  34.591  26.448  11.176
42901W        W14572  39.993  23.071   0.491
42902W        W14573  23.166  20.684   4.598
42903W        W14574  43.691  43.364   1.756
42904W        W14575  20.550  32.999  13.424
42905W        W14576  30.390  31.137  13.763
42906W        W14577  41.787  22.196   2.192
42907W        W14578   4.011  41.456  10.629
42908W        W14579   2.920  44.505  14.321
42909W        W14580  39.974  38.485  11.988
42910W        W14581   8.389  17.713   0.200
42911W        W14582  19.661  17.552   3.767
42912W        W14583  29.519   8.486   4.522
42913W        W14584  43.907  17.702  12.510
42914W        W14585  42.377  13.319   0.478
42915W        W14586  20.040  27.943  10.758
42916W        W14587  41.841  10.986   1.330
42917W        W14588   5.898  38.650   0.804
42918W        W14589  14.664  12.652  14.548
42919W        W14590   0.515  24.455  11.440
42920W        W14591   1.943  17.765   3.704
42921W        W14592  40.784   1.859  12.980
42922W        W14593  29.901  11.192   0.920
42923W        W14594  22.916  35.244  13.999
42924W        W14595  24.166  33.563  12.259
42925W        W14596  13.769  10.322   3.707
42926W        W14597  25.086  25.151  12.523
42927W        W14598  15.125  28.881  14.090
42928W        W14599  43.924  22.485  13.430
42929W        W14600  10.211   7.337   1.476
42930W        W14601  20.072   4.732   3.147
42931W        W14602  34.431  42.344  13.500
42932W        W14603  28.082  19.160   4.464
42933W        W14604  14.035  18.278   4.128
42934W        W14605  35.875  33.895  14.857
42935W        W14606  21.134   4.204   1.891
42936W        W14607  43.825   5.069  11.600
42937W        W14608  42.449  31.976  10.504
42938W        W14609  39.074  17.865  12.354
42939W        W14610  23.585   8.509  13.979
42940W        W14611  18.714  29.596  13.892
42941W        W14612  42.321  26.451  14.757
42942W        W14613  13.950  35.591   0.946
42943W        W14614   1.418   0.809  13.930
42944W        W14615  25.353   4.812   2.836
42945W        W14616  17.428   2.501   0.066
42946W        W14617  32.950  43.839   3.188
42947W        W14618  23.273   4.310  12.128
42948W        W14619  17.594  18.687   3.605
42949W        W14620  16.309  21.401  14.202
42950W        W14621  24.573  34.995   1.656
42951W        W14622   7.760   0.502   1.843
42952W        W14623  29.516  10.765  11.236
42953W        W14624  31.624  33.587  12.820
42954W        W14625   4.275  33.924   1.802
42955W        W14626  20.246  26.546  13.059
42956W        W14627  10.240  43.825  13.981
42957W        W14628  17.602  27.468   2.740
42958W        W14629  44.775  11.567   0.431
42959W        W14630  18.780  43.225   4.890
42960W        W14631  22.244  21.138   0.367
42961W        W14632  23.611   8.316  10.827
42962W        W14633   2.875  17.117  11.672
42963W        W14634  17.094  34.497   4.638
42964W        W14635  23.484  32.570   3.159
42965W        W14636  30.432  33.751  11.411
42966W        W14637  25.219  13.594  10.575
42967W        W14638  38.256  28.190   2.241
42968W        W14639   1.548  39.346   2.286
42969W        W14640  18.993  37.497  13.356
42970W        W14641  14.103  44.987   0.311
42971W        W14642  29.674   5.374  13.750
42972W        W14643  44.833  40.646  10.662
42973W        W14644  10.224  31.244   0.418
42974W        W14645  12.393   9.647  11.528
42975W        W14646   9.426  14.362   3.524
42976W        W14647  37.937  19.270   3.634
42977W        W14648  43.563   2.894   3.779
42978W        W14649  32.457   3.858   1.198
42979W        W14650  21.216  40.075   5.529
42980W        W14651  30.198  36.549  10.632
42981W        W14652  42.444  18.910   2.324
42982W        W14653   8.193   9.318  10.917
42983W        W14654   3.208  20.778  11.486
42984W        W14655  22.082   6.941  10.455
42985W        W14656   5.457   3.360  14.439
42986W        W14657   7.746  26.626   0.043
42987W        W14658  18.039   8.661   3.063
42988W        W14659  10.593  36.434  14.265
42989W        W14660   5.968  38.446  10.803
42990W        W14661   5.724  21.967   1.841
42991W        W14662  11.232  41.084   4.443
42992W        W14663   6.392  17.503  11.625
42993W        W14664  14.348  41.185   4.282
42994W        W14665   1.996  43.322  14.588
42995W        W14666  17.653  20.549   0.664
42996W        W14667  11.371  18.685  13.881
42997W        W14668  39.832  30.843   4.047
42998W        W14669  36.789  15.314  13.457
42999W        W14670  14.748  29.356  12.184
43000W        W14671  21.240  15.154  11.125
43001W        W14672  34.448  18.206  10.612
43002W        W14673  27.789  31.401   3.893
43003W        W14674   7.258  33.048  10.627
43004W        W14675  39.018  31.370   2.654
43005W        W14676  23.809   7.112   1.845
43006W        W14677  38.064   7.105   0.821
43007W        W14678  43.341  28.125  13.700
43008W        W14679  35.562  35.739   4.068
43009W        W14680  23.497  25.993  12.052
43010W        W14681   7.938  14.579  12.455
43011W        W14682  40.009  28.143   3.007
43012W        W14683  41.443  26.264  10.748
43013W        W14684   6.436  44.989   3.346
43014W        W14685  44.017  26.615  11.657
43015W        W14686  33.281  31.929   1.838
43016W        W14687  44.502   3.527  11.158
43017W        W14688  38.498  17.062  13.103
43018W        W14689  22.890  20.722   3.212
43019W        W14690  33.833  22.442   0.196
43020W        W14691  30.189  16.139  12.564
43021W        W14692   2.475  27.919   3.745
43022W        W14693  25.541  15.904  10.943
43023W        W14694   9.860   6.637  11.479
43024W        W14695  36.602   3.863   1.472
43025W        W14696   4.261  27.636  14.293
43026W        W14697  33.324  20.738   0.335
43027W        W14698  22.090  24.113  11.038
43028W        W14699  29.941  36.913  10.863
43029W        W14700  25.006  14.555   0.044
43030W        W14701  19.445  24.530   2.877
43031W        W14702  41.658   3.111  13.015
43032W        W14703  31.927  17.506   2.603
43033W        W14704  31.577  43.243  11.357
43034W        W14705   9.757  13.098   1.853
43035W        W14706  22.200  36.462  10.666
43036W        W14707   4.341  24.728  12.621
43037W        W14708  26.100   2.251   2.404
43038W        W14709  17.762  32.979   4.664
43039W        W14710   6.843  18.497   3.784
43040W        W14711   5.371  16.082   3.293
43041W        W14712  17.327  44.729   3.281
43042W        W14713  41.065   6.033  11.419
43043W        W14714  17.709  35.452   3.875
43044W        W14715   2.458  29.459   2.255
43045W        W14716   2.174  13.072   1.313
43046W        W14717  34.156  25.956  11.522
43047W        W14718  12.225  40.022   0.816
43048W        W14719  11.406  20.231  13.484
43049W        W14720  26.170  32.011   1.483
43050W        W14721   4.866  30.634  11.892
43051W        W14722  16.323  43.091  12.703
43052W        W14723  14.122  18.492   5.058
43053W        W14724  16.693  13.421   5.223
43054W        W14725  39.946  44.224  13.863
43055W        W14726  18.619   7.373   1.955
43056W        W14727  34.241  16.137   5.095
43057W        W14728  14.676  16.180   1.779
43058W        W14729  34.984  37.557   4.050
43059W        W14730  22.762  11.468   3.940
43060W        W14731  10.143   0.800   3.285
43061W        W14732   0.496  27.472   1.427
43062W        W14733  42.403   5.280  13.338
43063W        W14734  29.081  38.270  11.617
43064W        W14735  44.164  17.083  14.241
43065W        W14736  22.720  43.468  11.557
43066W        W14737   0.308  27.695   0.365
43067W        W14738  29.455  33.467  12.160
43068W        W14739  39.769  10.642   4.219
43069W        W14740  23.647  43.093   2.702
43070W        W14741  31.006  20.401  10.669
43071W        W14742  41.776  10.540  12.970
43072W        W14743   0.975  44.764  14.916
43073W        W14744  39.838  11.834   4.867
43074W        W14745  41.438  37.132   3.358
43075W        W14746  44.783   6.881   0.414
43076W        W14747  16.707   9.838   4.882
43077W        W14748  21.574  14.417   2.264
43078W        W14749  33.151  32.557   4.355
43079W        W14750  43.664  35.583  11.576
43080W        W14751   1.346  40.064  14.518
43081W        W14752  17.771  42.057   4.600
43082W        W14753   9.826  37.378  14.750
43083W        W14754   2.854  13.278  12.825
43084W        W14755   1.006  30.007   3.033
43085W        W14756  24.217   4.703  11.953
43086W        W14757   8.974  28.930  11.592
43087W        W14758  24.258  13.599  10.953
43088W        W14759  17.817  24.720  12.259
43089W        W14760  35.132   1.347   0.827
43090W        W14761  23.138   4.918  12.490
43091W        W14762  31.966  27.410   1.800
43092W        W14763   3.719  11.957   4.119
43093W        W14764  13.219  42.473  14.807
43094W        W14765  42.467   9.400   3.105
43095W        W14766  24.433   7.243  12.146
43096W        W14767  20.215   3.993  13.869
43097W        W14768  36.013   2.735   2.948
43098W        W14769   6.332  19.130   0.373
43099W        W14770  21.535  39.029  14.400
43100W        W14771  13.407   8.894  13.390
43101W        W14772  36.329  43.781   1.963
43102W        W14773  36.153  40.807  13.341
43103W        W14774   1.264   2.860   2.658
43104W        W14775   5.626  33.005  14.326
43105W        W14776  28.747  21.562  10.776
43106W        W14777  32.780  31.380   1.223
43107W        W14778  21.697  25.618   5.082
43108W        W14779  25.399  16.854   4.109
43109W        W14780  20.234   2.476   3.887
43110W        W14781  43.537   9.366   0.601
43111W        W14782  44.221   5.486   1.994
43112W        W14783  40.222  23.365   0.855
43113W        W14784  22.857  13.358  11.153
43114W        W14785  35.361  42.921   0.461
43115W        W14786  17.635  22.673  10.726
43116W        W14787  27.006  39.261   4.570
43117W        W14788   9.728  37.064   4.120
43118W        W14789  34.607  15.843  12.881
43119W        W14790  31.650   9.826  14.420
43120W        W14791  28.438   1.008   0.920
43121W        W14792  10.882  23.583   1.904
43122W        W14793   8.254  40.922  14.851
43123W        W14794   4.362  21.758  10.681
43124W        W14795  40.598  29.980   0.254
43125W        W14796  32.580   1.879   1.386
43126W        W14797  28.864   8.689  12.023
43127W        W14798  21.397   0.625  11.993
43128W        W14799  30.832  16.968   1.265
43129W        W14800  37.344  25.684  12.372
43130W        W14801  23.757  28.480   3.993
43131W        W14802  21.961  26.139  12.006
43132W        W14803  44.948  43.684   3.657
43133W        W14804   5.835  40.642   1.023
43134W        W14805  25.218   8.196  13.318
43135W        W14806  21.202   3.517  12.982
43136W        W14807  18.431   2.928  12.065
43137W        W14808  32.084  15.213  13.563
43138W        W14809   3.256  32.981   2.179
43139W        W14810  14.448  19.476   5.273
43140W        W14811   7.393  13.090   3.658
43141W        W14812   8.961  31.929  10.714
43142W        W14813   4.272  25.076  12.236
43143W        W14814  38.175   3.852   3.610
43144W        W14815  40.408  43.521  14.841
43145W        W14816  37.085   8.823  12.528
43146W        W14817   3.902  23.116   1.305
43147W        W14818  44.290  40.071   0.778
43148W        W14819  28.018  25.033  14.777
43149W        W14820  41.418  37.324  14.719
43150W        W14821   5.737  12.007  13.508
43151W        W14822  42.998   7.676  14.569
43152W        W14823  30.138  30.627   1.250
43153W        W14824  41.337  12.513  11.113
43154W        W14825   1.378  44.684  11.401
43155W        W14826  27.163  22.933   1.588
43156W        W14827   1.976  26.012  12.460
43157W        W14828  31.969  23.534   1.427
43158W        W14829  28.923   2.016   2.388
43159W        W14830  37.982  23.378  10.660
43160W        W14831  40.459  22.561   2.292
43161W        W14832  36.674  38.876  10.469
43162W        W14833  23.155  31.683  11.103
43163W        W14834  38.981   1.443   0.941
43164W        W14835  19.679  34.880  11.962
43165W        W14836  42.136  39.072  11.019
43166W        W14837  24.298  17.798   3.310
43167W        W14838  13.436  28.001   2.253
43168W        W14839  29.619  28.250   2.377
43169W        W14840   3.411  35.341   2.453
43170W        W14841  15.205   5.963  14.865
43171W        W14842   2.233  16.076   1.240
43172W        W14843  40.227  17.325  10.753
43173W        W14844  37.401  21.562   4.615
43174W        W14845   4.901  34.388  13.304
43175W        W14846   3.909  24.555   0.187
43176W        W14847  28.085  21.237   0.207
43177W        W14848  28.662  24.486   0.384
43178W        W14849  13.196  12.149   3.111
43179W        W14850  29.406   7.883  10.467
43180W        W14851   7.406  10.090   0.788
43181W        W14852  33.919  33.216   1.012
43182W        W14853   8.740  20.454   9.999
43183W        W14854  33.364  29.542   0.287
43184W        W14855  42.313  21.086  12.496
43185W        W14856   1.930  41.932  13.812
43186W        W14857  41.266  31.908   1.913
43187W        W14858  44.024   2.274  13.927
43188W        W14859   7.024  37.546  13.280
43189W        W14860  14.590  31.974   3.977
43190W        W14861  40.965  22.677   3.119
43191W        W14862  42.027  40.645   4.741
43192W        W14863  25.291  38.063   1.761
43193W        W14864  37.266   5.731  10.619
43194W        W14865  26.231  33.440  14.565
43195W        W14866  14.733  39.682   3.314
43196W        W14867   6.467   9.448  13.330
43197W        W14868  26.621  27.665   4.580
43198W        W14869  25.831  17.280  11.973
43199W        W14870   0.949  21.198  14.766
43200W        W14871  41.471  44.421  14.004
43201W        W14872  21.575   0.340   0.795
43202W        W14873  41.902  12.845  11.712
43203W        W14874  15.706  31.549   2.279
43204W        W14875  36.638  25.407   3.750
43205W        W14876   3.138  40.015   3.461
43206W        W14877  29.039  15.296   3.414
43207W        W14878  24.693   4.930  10.626
43208W        W14879  32.943  18.352   4.630
43209W        W14880  23.153  10.751   0.040
43210W        W14881  27.675  31.643  12.923
43211W        W14882  22.668   9.131   3.333
43212W        W14883  42.432  42.902  14.464
43213W        W14884  38.475  19.293   4.182
43214W        W14885  40.540   9.397  14.562
43215W        W14886  11.662  17.223  13.786
43216W        W14887  19.775  42.776   3.703
43217W        W14888   5.502   0.697   4.024
43218W        W14889   4.295  20.737   4.005
43219W        W14890   4.338  38.802  13.952
43220W        W14891  24.801   0.767   1.308
43221W        W14892  34.059  18.575  12.383
43222W        W14893  16.199   7.901  11.507
43223W        W14894  13.669   5.419  14.780
43224W        W14895  15.649  25.527  14.185
43225W        W14896  27.575  40.843  11.675
43226W        W14897  38.410   3.734   4.292
43227W        W14898  44.923  17.063   1.188
43228W        W14899  15.368   3.989   0.925
43229W        W14900  41.371   6.861   1.832
43230W        W14901  41.427  14.432   2.349
43231W        W14902  31.201   9.998   3.207
43232W        W14903  41.262  38.403   2.392
43233W        W14904  29.585  26.684  13.796
43234W        W14905   8.762  18.879   1.402
43235W        W14906  21.180  26.488   2.545
43236W        W14907   2.737   1.254   0.527
43237W        W14908  33.005  24.197   2.371
43238W        W14909  10.609  11.406  12.352
43239W        W14910   8.630   7.650  13.973
43240W        W14911   6.225  22.133   1.832
43241W        W14912  19.422   9.817   1.712
43242W        W14913  22.074  25.645  13.862
43243W        W14914   8.968   3.172  14.270
43244W        W14915  29.321  18.084  13.915
43245W        W14916   8.892  44.794  11.414
43246W        W14917  29.012   0.233   4.556
43247W        W14918  21.789  15.106   1.363
43248W        W14919  21.725  17.702  13.381
43249W        W14920  28.214  12.372   0.993
43250W        W14921  16.202  40.824   1.343
43251W        W14922  35.577  15.099   1.923
43252W        W14923  32.113  26.013  13.497
43253W        W14924   7.825   6.799   2.900
43254W        W14925  32.521  31.459   4.519
43255W        W14926  24.171   2.354  11.615
43256W        W14927  17.684  10.353   1.839
43257W        W14928  35.795  33.021   2.810
43258W        W14929  31.679  43.278   4.547
43259W        W14930  17.192  24.502   0.320
43260W        W14931   2.780   1.472  11.203
43261W        W14932  36.823  39.488   2.236
43262W        W14933  42.762   0.840   0.923
43263W        W14934  44.862  11.112   4.260
43264W        W14935  25.115  19.360   2.768
43265W        W14936  17.651   8.356  11.547
43266W        W14937  36.758  23.043   1.795
43267W        W14938  11.593  10.924   1.976
43268W        W14939   1.703   4.919  10.430
43269W        W14940  39.250  31.090   1.715
43270W        W14941  25.803  27.924  11.090
43271W        W14942  16.639  30.567  13.480
43272W        W14943  37.884  26.362  11.981
43273W        W14944  34.462  12.757  14.124
43274W        W14945  38.988  41.688   9.890
43275W        W14946  18.552   9.660   3.379
43276W        W14947  19.366  20.198   2.963
43277W        W14948  25.165   7.837  12.442
43278W        W14949   4.204  18.202  13.449
43279W        W14950  10.124   9.853   2.332
43280W        W14951   8.455   8.724  13.512
43281W        W14952  44.096   1.027  14.072
43282W        W14953  19.033  41.051   4.292
43283W        W14954  33.430  42.362  13.485
43284W        W14955  12.520  31.979  13.896
43285W        W14956  27.007  30.734   3.670
43286W        W14957  18.522  15.246   3.662
43287W        W14958  42.039  30.576   9.818
43288W        W14959  41.476  24.748   1.954
43289W        W14960  31.107   1.758  10.617
43290W        W14961  19.638  31.074  10.708
43291W        W14962  28.562  31.658   1.263
43292W        W14963  44.655   8.035  11.718
43293W        W14964  28.032   9.715   0.224
43294W        W14965  24.589  27.561  11.588
43295W        W14966  19.083  13.385  11.212
43296W        W14967  29.709  23.709  13.419
43297W        W14968  42.808  26.169   1.288
43298W        W14969  32.081  34.077  13.843
43299W        W14970  30.459  22.179   1.938
43300W        W14971  19.605  42.896   1.731
43301W        W14972  25.531  33.067   1.428
43302W        W14973  27.053   8.706  14.451
43303W        W14974  42.740   2.977  12.173
43304W        W14975   4.307   5.719  14.313
43305W        W14976  33.896  30.660   0.703
43306W        W14977   8.260   2.342   3.637
43307W        W14978  39.031  43.526   0.068
43308W        W14979  28.631   6.133  12.423
43309W        W14980  20.086  43.943   4.104
43310W        W14981  36.661  12.851   0.352
43311W        W14982  21.307  31.539   0.668
43312W        W14983   6.683  21.635   3.476
43313W        W14984  35.124  27.370  11.134
43314W        W14985  38.860  22.634  14.886
43315W        W14986  10.727   3.805   4.567
43316W        W14987  19.479  41.442  14.975
43317W        W14988  17.647  41.395  13.569
43318W        W14989  35.404   4.922  11.163
43319W        W14990  24.699   6.171  12.517
43320W        W14991  33.808  36.500  11.585
43321W        W14992  36.392  32.661   4.576
43322W        W14993  12.190  13.205  14.732
43323W        W14994  37.310  37.644  12.021
43324W        W14995  38.376  16.725   0.957
43325W        W14996  17.152  33.825   2.628
43326W        W14997  39.882  36.420  13.503
43327W        W14998  14.667   0.511  14.943
43328W        W14999  25.696  34.480   0.533
43329W        W15000  36.376  23.023  10.496
43330W        W15001  28.847   4.579  14.878
43331W        W15002  34.575  40.376  13.769
43332W        W15003   8.377   7.333   4.917
43333W        W15004  41.735  17.258   1.837
43334W        W15005   2.782  35.100   1.380
43335W        W15006  33.833  41.536   3.621
43336W        W15007  19.214  36.286   1.879
43337W        W15008  19.152  28.918   1.231
43338W        W15009  11.735   7.619  14.362
43339W        W15010  28.513  28.397   2.905
43340W        W15011  36.434  12.293   4.713
43341W        W15012  38.429  15.267   3.130
43342W        W15013  23.241  19.548  12.834
43343W        W15014   2.939  25.553  11.705
43344W        W15015  24.688   0.392   4.829
43345W        W15016  21.117  30.495  14.403
43346W        W15017  40.033  13.594   2.780
43347W        W15018  42.353  24.133   1.308
43348W        W15019   2.363   5.678   0.419
43349W        W15020   2.826  18.133   2.608
43350W        W15021  38.065   1.855   2.225
43351W        W15022   5.379  14.344  11.563
43352W        W15023  32.162  21.222   1.731
43353W        W15024  20.026  41.396  11.686
43354W        W15025  21.510   9.931  13.372
43355W        W15026  23.742  43.735  12.007
43356W        W15027  38.026  28.582   0.870
43357W        W15028  33.559  32.859   1.017
43358W        W15029   1.346   6.672  10.510
43359W        W15030   1.970  22.670   0.008
43360W        W15031  22.653  28.984  10.776
43361W        W15032  19.105  14.435   9.755
43362W        W15033  10.257  32.860  14.530
43363W        W15034  12.263  23.081  11.010
43364W        W15035  11.849  42.472   4.656
43365W        W15036  40.206  37.973   4.864
43366W        W15037  12.681   6.894  12.833
43367W        W15038  33.441  22.032  14.518
43368W        W15039  27.759  29.622   1.791
43369W        W15040  39.062  28.103  12.341
43370W        W15041  42.832   7.141   3.365
43371W        W15042  23.056  10.296  14.184
43372W        W15043   4.988  30.160  13.898
43373W        W15044  19.015  34.582   0.143
43374W        W15045   4.044   2.542  14.057
43375W        W15046  21.962  27.496  11.692
43376W        W15047  34.048  33.854   4.128
43377W        W15048   0.265  16.361  12.350
43378W        W15049  42.093   3.484   2.290
43379W        W15050  34.668  23.452   3.148
43380W        W15051  19.645  19.779  13.311
43381W        W15052  35.074  29.609   3.476
43382W        W15053   7.164  33.592   3.084
43383W        W15054   9.747  23.906   2.712
43384W        W15055  37.491  34.885  14.492
43385W        W15056  24.668  33.125  12.793
43386W        W15057  29.649  38.998  14.276
43387W        W15058  22.536   5.887  11.624
43388W        W15059   1.487   5.645  10.561
43389W        W15060  22.223   8.068   4.106
43390W        W15061  18.960  20.774  11.461
43391W        W15062   1.732  19.741  10.524
43392W        W15063   0.507  11.384  11.083
43393W        W15064  19.659  26.960   3.753
43394W        W15065   5.315   9.335  12.945
43395W        W15066   8.359  38.707  11.537
43396W        W15067  32.579  37.794   4.111
43397W        W15068  10.258  19.232   4.110
43398W        W15069  41.514  37.015   0.711
43399W        W15070  29.343  40.913   0.643
43400W        W15071  40.800   6.869  11.168
43401W        W15072  38.378  14.208   4.191
43402W        W15073  16.237  31.893   1.858
43403W        W15074   1.277  43.894  13.146
43404W        W15075  21.763  15.119   3.617
43405W        W15076  27.063  32.591   1.700
43406W        W15077   4.808   8.169  11.191
43407W        W15078  11.278  35.570   3.824
43408W        W15079   1.251  17.003   3.678
43409W        W15080  30.420  15.744  13.901
43410W        W15081  15.491  35.766  13.407
43411W        W15082  43.097  41.954   3.547
43412W        W15083  42.739  31.154  11.858
43413W        W15084  28.189   8.118  12.378
43414W        W15085  32.378  13.628   1.980
43415W        W15086  15.683  19.070   3.318
43416W        W15087  41.387  24.082   4.191
43417W        W15088  13.838   8.800  11.581
43418W        W15089  11.703  24.734  10.466
43419W        W15090   6.425  41.345   2.255
43420W        W15091  19.048  33.790  13.887
43421W        W15092  38.580   3.195  12.472
43422W        W15093  32.513  22.947   1.807
43423W        W15094  35.998  25.387  14.373
43424W        W15095  21.117  12.125   2.654
43425W        W15096  20.480  23.193   3.575
43426W        W15097  30.121   8.212  10.830
43427W        W15098  28.200   3.883  13.936
43428W        W15099   6.713   4.945   0.354
43429W        W15100  28.974   5.667   2.424
43430W        W15101  17.596   8.810   1.976
43431W        W15102  18.199  40.709  12.126
43432W        W15103  40.904  34.388   4.792
43433W        W15104  44.618  36.347   3.887
43434W        W15105  25.757  21.209   4.727
43435W        W15106   0.584  22.705  10.576
43436W        W15107  23.653  40.432   0.822
43437W        W15108  24.948  11.343  11.768
43438W        W15109  32.610   8.849  10.800
43439W        W15110  43.448  43.440  12.291
43440W        W15111  44.670  13.567  11.098
43441W        W15112  19.607  32.820  12.020
43442W        W15113  36.779  12.692  10.458
43443W        W15114  39.016   6.403   0.344
43444W        W15115  12.259  34.140  14.955
43445W        W15116  25.409   2.887   4.220
43446W        W15117  31.425  23.370   1.340
43447W        W15118  21.568  23.026   2.396
43448W        W15119  27.956   2.378   3.209
43449W        W15120   1.488  15.313  11.084
43450W        W15121  40.439  44.338  13.937
43451W        W15122  21.647  33.204  14.800
43452W        W15123  37.939  36.085   4.868
43453W        W15124  38.355  23.098  12.451
43454W        W15125   2.332   6.968   4.345
43455W        W15126   5.311   7.923   1.142
43456W        W15127  43.424  41.214  13.937
43457W        W15128  25.609  44.928  13.538
43458W        W15129  11.191  41.998  13.381
43459W        W15130  32.800  34.556   3.257
43460W        W15131  18.360  43.775  12.028
43461W        W15132  23.504   0.274  11.936
43462W        W15133  22.751  35.611  14.356
43463W        W15134  32.120   5.207  11.644
43464W        W15135  18.777  24.840   5.245
43465W        W15136  18.449  16.837  14.808
43466W        W15137  43.770  17.191  11.540
43467W        W15138  21.139  36.941  13.774
43468W        W15139  25.927  41.529   0.243
43469W        W15140  37.098  29.231  12.017
43470W        W15141  32.608  35.430   1.863
43471W        W15142  26.017  23.162   2.390
43472W        W15143   7.155  26.665  14.943
43473W        W15144  27.151  19.320  14.057
43474W        W15145   9.945  21.513   4.055
43475W        W15146  31.591  18.911  13.887
43476W        W15147  35.584  38.606   2.745
43477W        W15148  28.385   5.342   0.722
43478W        W15149  12.536  31.762   1.338
43479W        W15150  27.046  23.165   3.219
43480W        W15151  41.715  38.506  14.489
43481W        W15152   3.945  31.040  11.891
43482W        W15153  15.294   0.268   0.247
43483W        W15154  44.974   1.013   0.299
43484W        W15155  34.324  41.382   3.683
43485W        W15156  20.224  13.362  14.069
43486W        W15157  28.390  15.655   1.816
43487W        W15158   7.470  20.208  10.772
43488W        W15159  38.379  21.517   2.521
43489W        W15160  13.239  30.523   3.752
43490W        W15161  32.141  27.603  10.711
43491W        W15162  30.315  25.062   2.670
43492W        W15163  18.248   0.897   4.316
43493W        W15164  35.096  25.042  11.520
43494W        W15165  23.750   0.979  11.096
43495W        W15166  27.888  16.483  10.780
43496W        W15167  12.623  13.328   3.700
43497W        W15168   8.251   6.284   3.583
43498W        W15169  30.589   7.830   4.382
43499W        W15170  38.097   9.818   1.882
43500W        W15171  43.384   6.407  13.014
43501W        W15172  44.712  14.155   5.014
43502W        W15173  37.559  21.486   2.811
43503W        W15174  28.432  32.103   3.500
43504W        W15175  25.936  38.329  12.487
43505W        W15176   0.300   6.360   1.398
43506W        W15177  31.616  25.332   3.720
43507W        W15178  26.693  42.465   2.131
43508W        W15179  23.932  30.560  12.776
43509W        W15180  36.022   7.264   0.935
43510W        W15181  39.372  34.077   2.107
43511W        W15182  32.004  19.574  11.996
43512W        W15183  15.270  28.669   0.075
43513W        W15184  36.358  18.801   0.281
43514W        W15185   7.345  10.916   0.411
43515W        W15186  20.799  14.792  14.933
43516W        W15187  42.291  10.771   1.628
43517W        W15188  25.915  40.953   1.138
43518W        W15189  26.708   5.689  12.463
43519W        W15190  18.891   3.191  13.739
43520W        W15191   1.584  36.867   3.274
43521W        W15192  27.036  29.414  12.867
43522W        W15193  11.876   8.880  14.922
43523W        W15194  34.142  22.489  13.878
43524W        W15195  10.192  15.414   4.223
43525W        W15196  27.323  39.405   2.304
43526W        W15197  29.624  44.983   1.261
43527W        W15198  42.727   4.411   4.179
43528W        W15199  12.831  40.937   4.163
43529W        W15200  30.612  26.146   2.285
43530W        W15201  22.153  22.159  14.385
43531W        W15202  43.730  12.584   1.854
43532W        W15203  37.352  40.270  10.182
43533W        W15204   7.905  35.601   3.662
43534W        W15205  32.649   7.032   4.627
43535W        W15206  28.892  23.014   3.193
43536W        W15207  43.340  13.504  11.087
43537W        W15208  33.921  36.588  14.880
43538W        W15209   1.192  39.692  11.259
43539W        W15210  38.529  12.876   4.387
43540W        W15211  31.138  25.059  10.619
43541W        W15212  28.836  21.982  13.036
43542W        W15213   7.717  31.288   3.556
43543W        W15214  14.263  39.740   4.024
43544W        W15215  32.759  18.751  13.351
43545W        W15216  14.731  15.094   0.531
43546W        W15217   2.307  44.583   0.426
43547W        W15218   9.835  15.739  13.361
43548W        W15219  42.970  36.647   0.692
43549W        W15220  23.424  33.834   0.788
43550W        W15221  29.202   6.333  12.853
43551W        W15222   3.365  27.483   3.265
43552W        W15223  37.353  19.498   2.712
43553W        W15224   2.196  25.504  10.567
43554W        W15225  41.849   6.625  10.450
43555W        W15226  42.048  41.788  10.750
43556W        W15227  16.696   8.187   4.274
43557W        W15228  28.619  16.066   3.881
43558W        W15229   7.148  12.213  10.482
43559W        W15230  33.789   1.661   2.656
43560W        W15231  43.906  40.219  10.658
43561W        W15232   1.094  28.160   4.566
43562W        W15233   0.724  15.753   4.989
43563W        W15234  35.655   1.937  12.419
43564W        W15235   2.509  36.991  12.184
43565W        W15236  25.000  32.255   0.262
43566W        W15237  26.122   7.333  12.448
43567W        W15238  27.685  29.027  11.040
43568W        W15239  24.922  38.821  11.118
43569W        W15240  10.783  14.052   3.302
43570W        W15241  16.265  40.367   4.577
43571W        W15242  20.135  27.984  11.255
43572W        W15243   7.973  29.634  14.431
43573W        W15244  41.851  20.110   4.693
43574W        W15245  39.038  37.435   3.198
43575W        W15246   1.567  20.827  13.681
43576W        W15247  27.777  39.974  12.742
43577W        W15248  33.722  27.695   2.669
43578W        W15249  22.987  10.096   3.751
43579W        W15250  10.595  21.740  11.514
43580W        W15251  13.440  26.147   1.265
43581W        W15252  10.048   2.318  10.600
43582W        W15253  44.466  31.154   0.023
43583W        W15254   2.976  25.512   1.781
43584W        W15255  41.008  13.842   4.089
43585W        W15256  34.688  22.119   2.918
43586W        W15257  16.777   3.419   4.098
43587W        W15258  23.035   3.177   0.340
43588W        W15259  16.490  17.069   3.604
43589W        W15260   3.967  31.795   3.085
43590W        W15261  17.805   6.771   1.109
43591W        W15262  28.206  17.645  10.565
43592W        W15263  22.746  35.941   2.669
43593W        W15264  17.412  23.454   3.208
43594W        W15265  19.722  27.672  11.293
43595W        W15266  21.789  41.021  13.915
43596W        W15267   9.735  40.344  11.891
43597W        W15268  40.348   8.934  10.537
43598W        W15269  42.632  40.551   2.763
43599W        W15270  34.398   7.703  12.656
43600W        W15271   5.760  38.401   3.226
43601W        W15272  31.306  25.720  13.527
43602W        W15273  40.588  44.301   4.145
43603W        W15274   2.206   8.199  12.079
43604W        W15275  16.734  12.641   3.186
43605W        W15276  23.409  25.280  11.095
43606W        W15277  22.002  11.367  14.766
43607W        W15278   2.705  41.211  13.334
43608W        W15279  33.541  43.884   4.924
43609W        W15280  35.584  27.649   4.224
43610W        W15281   6.313   5.161   1.695
43611W        W15282  26.725   0.884  13.456
43612W        W15283  22.107   3.137  14.396
43613W        W15284  39.524   8.698  10.907
43614W        W15285   3.528  22.749  11.910
43615W        W15286  28.520   2.884  11.706
43616W        W15287  11.228  19.027   1.679
43617W        W15288   0.285  32.642   0.897
43618W        W15289  44.678  26.507   0.327
43619W        W15290  33.844   5.423  13.444
43620W        W15291  10.370  33.145   1.372
43621W        W15292  15.851   7.871   4.150
43622W        W15293  34.203  16.250   3.687
43623W        W15294  27.284  30.454  10.673
43624W        W15295   4.005  10.009  11.174
43625W        W15296  34.228  30.885   3.265
43626W        W15297  12.601   7.690   4.287
43627W        W15298  23.405   2.370   0.930
43628W        W15299  26.023  13.458   4.866
43629W        W15300   4.266  27.114  14.125
43630W        W15301   8.093  33.089  12.900
43631W        W15302  17.104   8.063   4.567
43632W        W15303  10.711  36.688   3.591
43633W        W15304  26.015  38.022  11.625
43634W        W15305  28.287  13.075   3.716
43635W        W15306  37.505   9.331   3.396
43636W        W15307  29.207  17.549  11.670
43637W        W15308  27.223   0.464  13.952
43638W        W15309  20.988  44.468   4.081
43639W        W15310  22.960  29.464   2.702
43640W        W15311  40.273  19.984  14.324
43641W        W15312   7.426  34.696   4.396
43642W        W15313  28.543  27.155  11.601
43643W        W15314  13.569  14.179   2.843
43644W        W15315  44.451  16.158  13.311
43645W        W15316  28.037  10.912   2.115
43646W        W15317  20.622   5.163  14.444
43647W        W15318  38.801  25.537   1.252
43648W        W15319  31.915  28.137   2.104
43649W        W15320  23.110   0.754  10.699
43650W        W15321  27.454   7.822  12.910
43651W        W15322  19.627  31.491   2.862
43652W        W15323  37.299  42.822  14.510
43653W        W15324  10.153   1.300  14.875
43654W        W15325  11.417  31.111  11.220
43655W        W15326  24.523  16.564  13.420
43656W        W15327  11.588  22.146  11.892
43657W        W15328  32.252  33.438   4.258
43658W        W15329  28.194  19.971   3.504
43659W        W15330  43.064  17.538  12.057
43660W        W15331  35.305  32.028   3.649
43661W        W15332   2.014  11.808  12.648
43662W        W15333  13.298  15.145  14.443
43663W        W15334   9.179   4.115  13.834
43664W        W15335   3.152  30.118   4.053
43665W        W15336  19.816  24.436  12.368
43666W        W15337  27.638  29.586   2.474
43667W        W15338  30.051   9.224   0.499
43668W        W15339  34.951  32.126   3.270
43669W        W15340  11.817  16.643  13.891
43670W        W15341  39.099   2.149  10.794
43671W        W15342  17.170   3.335  14.801
43672W        W15343  37.584  36.793   1.770
43673W        W15344  34.533  25.090  13.457
43674W        W15345   1.361   8.764  13.215
43675W        W15346  32.892  21.682  12.421
43676W        W15347   1.887  43.361  12.117
43677W        W15348  41.438  44.359  11.879
43678W        W15349   3.134  21.997   1.688
43679W        W15350  16.500   6.043   0.795
43680W        W15351  15.774   6.285   4.095
43681W        W15352  11.655   2.778   0.273
43682W        W15353  25.223  29.024   3.757
43683W        W15354  17.335   5.845  12.680
43684W        W15355  16.480  38.114   1.265
43685W        W15356  37.927  12.333  10.747
43686W        W15357  27.039   1.681   2.388
43687W        W15358   4.655  25.078  13.611
43688W        W15359  34.989  32.840   1.673
43689W        W15360   2.550   8.999  14.345
43690W        W15361  12.726   7.380  14.500
43691W        W15362  16.291   0.729   4.247
43692W        W15363   4.563  36.272   1.579
43693W        W15364   9.557   9.895  14.325
43694W        W15365  37.357  27.430   3.609
43695W        W15366  29.168  35.511   3.675
43696W        W15367  41.887  30.117   2.833
43697W        W15368  30.539  15.642  11.032
43698W        W15369  19.980  33.025   3.592
43699W        W15370  39.879  21.032  10.770
43700W        W15371  29.590   6.486  14.331
43701W        W15372  41.084  37.287  11.551
43702W        W15373  41.510  20.322   4.351
43703W        W15374   3.106  21.250   3.175
43704W        W15375   4.477  44.942   3.334
43705W        W15376  35.356  29.237  14.339
43706W        W15377  27.619  29.219  12.592
43707W        W15378  36.202   1.845   0.428
43708W        W15379  24.901  23.570   0.042
43709W        W15380   9.157  14.145  11.147
43710W        W15381  23.190  26.972   4.155
43711W        W15382  29.561  26.032   0.035
43712W        W15383  41.748  29.372   0.222
43713W        W15384  21.067   1.844   2.906
43714W        W15385   1.218  42.167   2.112
43715W        W15386  39.396  39.119  10.263
43716W        W15387   8.721   7.647   2.806
43717W        W15388  28.301  23.237  11.990
43718W        W15389  36.231  35.110   1.657
43719W        W15390  31.526  25.517  13.940
43720W        W15391   5.080  20.086  10.689
43721W        W15392  14.666  14.665   4.650
43722W        W15393  10.883  31.680   2.399
43723W        W15394  20.161  21.303   4.294
43724W        W15395  12.859  28.703  12.930
43725W        W15396   8.598  20.478   2.066
43726W        W15397  31.995  18.092  11.016
43727W        W15398  44.394  22.978  14.747
43728W        W15399  10.893  37.832  12.926
43729W        W15400   7.105  24.967  10.763
43730W        W15401  21.712  38.923  14.897
43731W        W15402  26.297  21.893  14.983
43732W        W15403  27.658  10.347  14.524
43733W        W15404  21.000  39.480   3.717
43734W        W15405  23.416  26.635  13.074
43735W        W15406  36.232   8.563  10.737
43736W        W15407   3.339   4.329   3.331
43737W        W15408  24.968   3.248  12.510
43738W        W15409  11.416  31.368  14.528
43739W        W15410  37.478   3.301  12.582
43740W        W15411   9.073  39.086  10.101
43741W        W15412  14.105   3.358  13.171
43742W        W15413  32.257  17.506   2.178
43743W        W15414  40.257  29.991   3.789
43744W        W15415  30.371  39.552   2.555
43745W        W15416  10.814  40.103   2.642
43746W        W15417  44.961  15.120   4.135
43747W        W15418  19.508  34.337  14.376
43748W        W15419  21.310  37.269   2.758
43749W        W15420   8.085  43.942  11.295
43750W        W15421  44.196  44.751  12.373
43751W        W15422  24.980   3.775  14.941
43752W        W15423  34.833  35.998   3.692
43753W        W15424  27.696   3.021  14.256
43754W        W15425  25.675  32.010   1.341
43755W        W15426   6.205   3.029   2.199
43756W        W15427  26.912  16.026  13.653
43757W        W15428  14.811  44.215   1.188
43758W        W15429  27.189   7.265   3.555
43759W        W15430  14.015  33.403   3.332
43760W        W15431   2.137  23.004   9.597
43761W        W15432  32.390   4.599  13.834
43762W        W15433  18.670  36.723  14.950
43763W        W15434  23.128  20.175   0.775
43764W        W15435  18.387  21.033   1.399
43765W        W15436  21.648  39.448  14.799
43766W        W15437  32.532  23.431  10.710
43767W        W15438  42.407   6.170   1.899
43768W        W15439  10.537  31.970   5.014
43769W        W15440  28.031   5.743   1.434
43770W        W15441  19.032   2.059   2.281
43771W        W15442  11.442  11.149   4.950
43772W        W15443  41.990  43.349  11.958
43773W        W15444  43.570  33.406  10.799
43774W        W15445   3.200  27.633   4.164
43775W        W15446  21.404   1.099  11.755
43776W        W15447   2.813   1.479  11.709
43777W        W15448   1.682   8.163   3.640
43778W        W15449  39.576   9.438  13.486
43779W        W15450  19.492  18.732   0.838
43780W        W15451   6.226  16.567   4.444
43781W        W15452   3.391  34.454  14.765
43782W        W15453   5.139   7.865   4.698
43783W        W15454   7.322  44.703   0.266
43784W        W15455  19.463   5.207   1.733
43785W        W15456  15.080  14.702  12.386
43786W        W15457  27.472  33.576   4.060
43787W        W15458  10.144  44.361  14.325
43788W        W15459  18.574   6.771   3.643
43789W        W15460  27.251  30.517  13.806
43790W        W15461  42.350   9.809   3.377
43791W        W15462   0.813   9.953   4.494
43792W        W15463  22.041   2.399  12.574
43793W        W15464  35.410   9.667   4.663
43794W        W15465  32.052  40.582   4.984
43795W        W15466  25.181  20.796   0.516
43796W        W15467  39.790   5.727  13.529
43797W        W15468   0.879  44.507   4.048
43798W        W15469  33.514   7.720   1.606
43799W        W15470  31.431  40.331   0.016
43800W        W15471  32.683   1.980  14.416
43801W        W15472   1.208  41.130   2.244
43802W        W15473  13.389  18.504   5.263
43803W        W15474  20.347  27.389   2.193
43804W        W15475   3.947   5.941   2.348
43805W        W15476  44.128  44.057   2.884
43806W        W15477   6.143  32.982  14.326
43807W        W15478  21.566  12.882   2.694
43808W        W15479  39.097   3.813  11.583
43809W        W15480  24.140  24.762  12.997
43810W        W15481  32.752   9.429   0.247
43811W        W15482  40.111  33.584  13.309
43812W        W15483  21.598   8.185   3.668
43813W        W15484   9.803  44.341   0.210
43814W        W15485  39.081  27.729  14.952
43815W        W15486  25.950   8.761   4.750
43816W        W15487  40.242  28.249   9.865
43817W        W15488  15.642  29.446   0.918
43818W        W15489  12.430  40.873   4.501
43819W        W15490  30.380  40.813   3.150
43820W        W15491   0.480  30.936   3.781
43821W        W15492  24.204  41.607   2.278
43822W        W15493  37.894  24.868  14.778
43823W        W15494  17.477  12.640  14.545
43824W        W15495  41.045  12.142   1.322
43825W        W15496  20.479  33.156  13.913
43826W        W15497  12.549  22.145  10.719
43827W        W15498   1.866  32.143   0.547
43828W        W15499   0.663   8.195   3.698
43829W        W15500  35.833  17.586   0.734
43830W        W15501   4.153  27.652   2.574
43831W        W15502  12.463   0.373   4.042
43832W        W15503  32.002  35.502  10.404
43833W        W15504  37.413  24.632   4.418
43834W        W15505  37.851   8.882   1.401
43835W        W15506  13.575  29.416  14.981
43836W        W15507   4.267  36.313  14.317
43837W        W15508   9.784  35.141  13.060
43838W        W15509  29.848  33.062   4.114
43839W        W15510  43.760  42.464  11.358
43840W        W15511  41.346  14.543  13.112
43841W        W15512  40.215  43.772  13.991
43842W        W15513  13.144   5.960   3.169
43843W        W15514  20.666  11.309  12.923
43844W        W15515  30.027  33.920   2.757
43845W        W15516  25.481  34.751   1.734
43846W        W15517   9.152  11.278  13.939
43847W        W15518  17.792  11.657   1.344
43848W        W15519  19.311   2.440   0.066
43849W        W15520  39.865  44.722   4.670
43850W        W15521  14.626   5.810  12.947
43851W        W15522  25.594  39.607   1.298
43852W        W15523  23.596  17.750  13.901
43853W        W15524   1.688  17.200   1.459
43854W        W15525   4.569  30.831  11.480
43855W        W15526  12.196  35.956   4.599
43856W        W15527  10.156  27.422   0.967
43857W        W15528   4.000  34.909   2.707
43858W        W15529   8.621  18.818  12.282
43859W        W15530  13.567   5.455  10.047
43860W        W15531  43.380  40.735   3.250
43861W        W15532  32.486  35.680  12.405
43862W        W15533  36.962  17.112   4.913
43863W        W15534   0.418  25.938  13.302
43864W        W15535  27.019   9.195  14.610
43865W        W15536   8.229  38.341  14.054
43866W        W15537  36.912  13.413  14.342
43867W        W15538  44.272   1.228   4.294
43868W        W15539  12.428   4.430   0.861
43869W        W15540  11.815  25.726  13.007
43870W        W15541   9.808  19.214  12.224
43871W        W15542  18.550   4.948   2.392
43872W        W15543  15.099  12.643   3.361
43873W        W15544  28.522  23.225   3.497
43874W        W15545  13.147  22.999  12.376
43875W        W15546  19.352   6.798   1.933
43876W        W15547  12.757  32.547   4.054
43877W        W15548  40.924  13.256   0.324
43878W        W15549   4.470  18.878  13.314
43879W        W15550   9.649  35.944   0.366
43880W        W15551  16.246  44.249   0.943
43881W        W15552   5.062  27.469   3.795
43882W        W15553  40.130  22.958  10.694
43883W        W15554  26.263   1.993   2.811
43884W        W15555  43.453  38.610  10.312
43885W        W15556   8.940  16.500   3.650
43886W        W15557  13.776  37.331   2.495
43887W        W15558  26.212  43.543  14.804
43888W        W15559  25.047  16.976  12.609
43889W        W15560  38.981  26.301   5.192
43890W        W15561  14.619  31.140  12.371
43891W        W15562  26.113  41.316   4.820
43892W        W15563   5.992  31.432   1.306
43893W        W15564  12.210  21.278   2.134
43894W        W15565   3.493  27.983   4.914
43895W        W15566  38.993  40.289  11.797
43896W        W15567   1.929  35.043   2.263
43897W        W15568   1.885  17.720   0.026
43898W        W15569   9.156  23.791   0.766
43899W        W15570  12.098  32.382  10.543
43900W        W15571  21.505  22.902  11.202
43901W        W15572  24.718  25.437  12.194
43902W        W15573  33.014  13.580   4.819
43903W        W15574  13.678  37.199  14.188
43904W        W15575  12.053  31.935   2.658
43905W        W15576  44.371  41.591  10.142
43906W        W15577  24.051  15.378   0.463
43907W        W15578  37.096  16.658   4.621
43908W        W15579  17.819  38.286  14.535
43909W        W15580  34.428  21.794  13.032
43910W        W15581  13.801  22.036  12.870
43911W        W15582   2.163  36.566  14.737
43912W        W15583  26.543  42.343   0.260
43913W        W15584  22.623  38.454  13.092
43914W        W15585  32.031  39.579   0.364
43915W        W15586  28.486  21.694   1.372
43916W        W15587  37.333  32.198   3.084
43917W        W15588   5.479  16.602   1.555
43918W        W15589  28.440   1.532  10.627
43919W        W15590  28.901  27.051  11.232
43920W        W15591  20.976   0.207  14.475
43921W        W15592  27.904  40.782  12.518
43922W        W15593   8.138   5.464   2.443
43923W        W15594  25.818  16.618   3.889
43924W        W15595  43.007  26.987   0.689
43925W        W15596  39.857   6.735   3.219
43926W        W15597   7.660   5.653  13.430
43927W        W15598  16.894  37.125  11.492
43928W        W15599  21.095  32.169   3.865
43929W        W15600  29.113  29.729  14.550
43930W        W15601  22.566  22.137  13.501
43931W        W15602  35.881   5.132   1.942
43932W        W15603  42.296   1.249   3.651
43933W        W15604  23.568   4.962  13.416
43934W        W15605  40.515  26.393  11.500
43935W        W15606  25.185  33.130  10.680
43936W        W15607  17.841  24.276   2.349
43937W        W15608   1.455  15.090   3.682
43938W        W15609  44.870  16.234   2.571
43939W        W15610   1.307   5.807   4.691
43940W        W15611  13.290   2.453  12.477
43941W        W15612  29.676   0.668  13.419
43942W        W15613  18.286  32.520  14.861
43943W        W15614  20.698   3.448   4.535
43944W        W15615  31.164  28.799   3.130
43945W        W15616  15.793  21.736  10.650
43946W        W15617  37.043  34.976  10.598
43947W        W15618  30.872  28.452  13.224
43948W        W15619  35.427  13.815  12.999
43949W        W15620  26.205   5.776   2.207
43950W        W15621   5.751  31.071  14.244
43951W        W15622  22.557  34.025  12.858
43952W        W15623  13.643   3.776   2.386
43953W        W15624  15.840  12.207   1.714
43954W        W15625  17.558  23.727  12.910
43955W        W15626  29.510  37.029   1.289
43956W        W15627  37.132   3.898  14.149
43957W        W15628   8.471  37.286   4.435
43958W        W15629  44.953  27.626  10.733
43959W        W15630  34.957   1.992  13.131
43960W        W15631  10.264  35.474  13.469
43961W        W15632  21.001   9.737  12.474
43962W        W15633   9.243  28.227   0.501
43963W        W15634  43.230  39.980  12.003
43964W        W15635  31.847  36.369  12.898
43965W        W15636   8.112  11.148   4.108
43966W        W15637  21.747  13.068   2.120
43967W        W15638  42.275  23.548   4.547
43968W        W15639  43.669  41.420   3.142
43969W        W15640  28.429  33.111   3.247
43970W        W15641  33.065  44.048  12.770
43971W        W15642  24.161  15.364   3.816
43972W        W15643  23.298  22.662  13.912
43973W        W15644   1.418  18.375   1.013
43974W        W15645  36.856  14.173  10.783
43975W        W15646  26.296  37.925   2.142
43976W        W15647   3.267   3.372  13.748
43977W        W15648  36.612  11.371   2.919
43978W        W15649  28.069  30.821   2.343
43979W        W15650   1.289  42.309  10.690
43980W        W15651  43.829   9.730  12.856
43981W        W15652  38.559   3.801   1.447
43982W        W15653  25.007   4.251  14.733
43983W        W15654  24.340  18.194   2.770
43984W        W15655  16.749  37.010  13.931
43985W        W15656  24.433  42.863   4.206
43986W        W15657  25.960  34.051  14.771
43987W        W15658  43.722  31.260  14.851
43988W        W15659   2.356  35.506  12.652
43989W        W15660  16.690  28.499   0.008
43990W        W15661  24.411  15.045  11.147
43991W        W15662  22.424  14.644   2.744
43992W        W15663  39.232  14.214  13.577
43993W        W15664  33.286  26.607   4.257
43994W        W15665  11.871  40.543  13.462
43995W        W15666  29.043  39.661   1.201
43996W        W15667  23.546   5.917   4.972
43997W        W15668   7.910  23.351  14.260
43998W        W15669  39.747  15.211  12.074
43999W        W15670  33.106  32.542   3.837
44000W        W15671   7.824   4.536  13.992
44001W        W15672   4.948  36.375  11.029
44002W        W15673  18.780  35.415   2.819
44003W        W15674   1.071  10.890  11.589
44004W        W15675  42.042  39.552  11.923
44005W        W15676  38.743  11.536   1.098
44006W        W15677  13.766  39.254  11.425
44007W        W15678  20.272  31.642  14.038
44008W        W15679  34.376  30.918   1.895
44009W        W15680  27.214   0.874  11.814
44010W        W15681  18.879   6.069   3.119
44011W        W15682  38.048   6.968   3.614
44012W        W15683  25.201  14.113  10.664
44013W        W15684  33.045   8.904   3.622
44014W        W15685   4.112  35.444  12.905
44015W        W15686  33.915  39.310  11.887
44016W        W15687   7.696  14.698  13.926
44017W        W15688   2.977  22.493   1.889
44018W        W15689  39.829  42.578  13.170
44019W        W15690  11.324  22.127   3.839
44020W        W15691  34.998  13.161  12.801
44021W        W15692  24.543   9.072   3.239
44022W        W15693   3.715  22.491  12.580
44023W        W15694  44.912  37.916  12.957
44024W        W15695   0.740  43.189   1.248
44025W        W15696  36.011  10.235  14.987
44026W        W15697  17.859  13.764  11.635
44027W        W15698  25.664  27.053  13.087
44028W        W15699   2.957  40.331  12.288
44029W        W15700  20.538  41.512   2.813
44030W        W15701   8.404  20.652   0.006
44031W        W15702  34.956   2.154   2.132
44032W        W15703  42.195  22.748  13.750
44033W        W15704  36.501  12.635  11.250
44034W        W15705   1.329  11.904   4.571
44035W        W15706  35.722  20.494  14.059
44036W        W15707  28.046  36.452   0.854
44037W        W15708  23.489   3.936   3.224
44038W        W15709  27.252  30.824   0.828
44039W        W15710  44.969  13.626   5.252
44040W        W15711  21.559  38.566  13.541
44041W        W15712   7.923  42.510  11.160
44042W        W15713  24.078   3.775  13.602
44043W        W15714  44.188  39.401   4.796
44044W        W15715   1.382  44.737  13.437
44045W        W15716  19.731  32.006  12.610
44046W        W15717  39.757  30.665  11.054
44047W        W15718   4.014  22.558  14.888
44048W        W15719   2.964   2.009   2.289
44049W        W15720  16.372  24.122  14.376
44050W        W15721   4.115  38.578  10.942
44051W        W15722   8.910   5.181  12.120
44052W        W15723  25.926  22.522  12.102
44053W        W15724  33.843   4.405  11.543
44054W        W15725  24.726  39.316  11.084
44055W        W15726  43.894  10.195  10.150
44056W        W15727  25.741  23.028   1.198
44057W        W15728  27.887   3.179   2.028
44058W        W15729  28.103  22.866  12.393
44059W        W15730  28.387  38.919   1.771
44060W        W15731  42.864   9.719   3.164
44061W        W15732  29.769  40.262  14.411
44062W        W15733  43.961  39.916  13.868
44063W        W15734   0.421  37.825  11.794
44064W        W15735  44.916  21.183   4.708
44065W        W15736  23.262  28.313   4.101
44066W        W15737  40.753  23.304   0.789
44067W        W15738  35.115   5.158   0.920
44068W        W15739  31.406  23.028  13.122
44069W        W15740  40.063  19.321   2.285
44070W        W15741  21.635  38.443   4.950
44071W        W15742  33.311  30.082  12.189
44072W        W15743   7.350  14.142   1.347
44073W        W15744  29.893  19.835   0.955
44074W        W15745  21.045   4.079   0.948
44075W        W15746  38.774  31.236  14.920
44076W        W15747  30.677  33.469  12.829
44077W        W15748  26.208   0.951  13.321
44078W        W15749   7.373  41.251  12.851
44079W        W15750  14.653  34.114   3.229
44080W        W15751  15.320  32.413  10.702
44081W        W15752   6.598  33.052  12.063
44082W        W15753  17.315   2.365  14.512
44083W        W15754  28.137  43.168  14.034
44084W        W15755  18.116  38.358  11.374
44085W        W15756  16.138   2.063  14.485
44086W        W15757   8.246  15.138   4.663
44087W        W15758  16.324  18.383  12.593
44088W        W15759   0.126   2.430  11.675
44089W        W15760   9.343  33.692   3.813
44090W        W15761  12.265  29.855   4.348
44091W        W15762   8.348  40.498   3.845
44092W        W15763  40.631   3.277   0.328
44093W        W15764  22.701  21.689   2.681
44094W        W15765  35.977  29.128   3.551
44095W        W15766  23.632  10.348   2.003
44096W        W15767  22.568  17.037   4.011
44097W        W15768  12.687  38.663   4.238
44098W        W15769  22.641  44.435  10.615
44099W        W15770   5.692  34.613  12.680
44100W        W15771  10.366   7.106   4.727
44101W        W15772  12.147   0.585  14.946
44102W        W15773  34.166  24.888   4.522
44103W        W15774  19.652  20.573   0.983
44104W        W15775  18.763  14.816   0.843
44105W        W15776  21.816  13.835  10.685
44106W        W15777  29.249  20.114  12.360
44107W        W15778   8.329  26.585   1.167
44108W        W15779  41.532   4.927   4.162
44109W        W15780  29.505  40.252   3.353
44110W        W15781  31.036  21.026  13.359
44111W        W15782  14.834  33.942  14.289
44112W        W15783  22.955  10.217   0.182
44113W        W15784  35.634  33.999  14.380
44114W        W15785  18.239  44.824  11.034
44115W        W15786  38.809  36.043   3.397
44116W        W15787  33.814  24.673  13.947
44117W        W15788   4.147  12.215  12.979
44118W        W15789  20.172  10.209   4.590
44119W        W15790  29.051  19.057  10.703
44120W        W15791   5.456   0.836  14.773
44121W        W15792  23.255   8.628   0.750
44122W        W15793  16.875  15.169  13.415
44123W        W15794  20.000  29.193  12.412
44124W        W15795  19.850  38.690   2.321
44125W        W15796  10.307   2.901  13.576
44126W        W15797  17.562  19.881  13.194
44127W        W15798  27.941   7.292  14.012
44128W        W15799   5.743  20.414  12.432
44129W        W15800  11.128  15.710  10.722
44130W        W15801   9.145  13.336   3.147
44131W        W15802   4.573  16.714   0.975
44132W        W15803  35.971  27.557   2.236
44133W        W15804  28.000   4.662  10.026
44134W        W15805  15.067   7.187   3.272
44135W        W15806   9.471  30.617   5.226
44136W        W15807  28.708   2.913   2.700
44137W        W15808  11.052  13.246   0.401
44138W        W15809  29.756  21.156   4.634
44139W        W15810   8.923  22.100  12.254
44140W        W15811   7.547  29.791   0.422
44141W        W15812  44.383  19.823  10.629
44142W        W15813   9.401   6.654   0.984
44143W        W15814  38.685   4.383   4.227
44144W        W15815  34.100  26.114   1.986
44145W        W15816   9.593  11.140   0.801
44146W        W15817  30.153  29.623   0.943
44147W        W15818  14.319   2.850   4.586
44148W        W15819   6.402   1.755   0.929
44149W        W15820   7.750  39.925  13.026
44150W        W15821  19.792  11.857   5.042
44151W        W15822  39.997  24.207   2.442
44152W        W15823  38.382  28.182  14.805
44153W        W15824  39.260  19.228  10.603
44154W        W15825  12.648   3.673  11.461
44155W        W15826  13.140  18.337   1.543
44156W        W15827  17.185   9.113  14.011
44157W        W15828   5.971  42.283  13.013
44158W        W15829   1.183  22.058  14.011
44159W        W15830  42.766  37.470   2.351
44160W        W15831  20.637  43.360  12.843
44161W        W15832  17.566  35.061  13.976
44162W        W15833  21.402   9.199   4.550
44163W        W15834  15.675  15.292  11.078
44164W        W15835  21.056  28.586  12.536
44165W        W15836   0.540  32.416  11.160
44166W        W15837  42.517  38.798   4.600
44167W        W15838  15.549  13.721   4.729
44168W        W15839  41.220  42.361  14.371
44169W        W15840   2.349  23.416   2.694
44170W        W15841  15.457   0.384  14.232
44171W        W15842  17.313  20.433  10.996
44172W        W15843  21.232  10.347   0.996
44173W        W15844  15.428  28.092   2.347
44174W        W15845   3.439  37.113   3.276
44175W        W15846   9.926  20.993  14.323
44176W        W15847  36.749  22.378  14.447
44177W        W15848  18.109  32.667  13.895
44178W        W15849  34.129  22.662  12.444
44179W        W15850  42.959  42.747   2.460
44180W        W15851  43.459   1.991  13.806
44181W        W15852  18.708  44.052   2.316
44182W        W15853  28.745  39.886  13.044
44183W        W15854  27.733  18.110   0.417
44184W        W15855  35.537  34.243   4.079
44185W        W15856  33.956  44.315   1.385
44186W        W15857  22.290  30.273   4.122
44187W        W15858  10.897  12.772  12.509
44188W        W15859  36.998  14.781   4.757
44189W        W15860  25.675  22.786   1.647
44190W        W15861  11.583  42.071   3.186
44191W        W15862   7.683  40.995  13.651
44192W        W15863  18.628   0.750  12.971
44193W        W15864  22.550  35.014  12.411
44194W        W15865   7.381  32.879  12.261
44195W        W15866  10.053  28.744   0.784
44196W        W15867  24.504  38.966  14.738
44197W        W15868   0.064  24.110  13.330
44198W        W15869   9.316  21.967  11.061
44199W        W15870   5.713  44.351  14.900
44200W        W15871   3.999  18.335  10.715
44201W        W15872  36.610   3.476  11.671
44202W        W15873  44.316  27.444  10.714
44203W        W15874  37.428  32.243  10.557
44204W        W15875  29.144  31.471   0.867
44205W        W15876   3.943  42.711  13.905
44206W        W15877  35.933  37.619   5.007
44207W        W15878  29.622   0.410   3.275
44208W        W15879  14.884  27.427  12.083
44209W        W15880  43.503  39.501   1.287
44210W        W15881  40.252  22.486   5.335
44211W        W15882   9.875  38.985  14.236
44212W        W15883  27.409  24.987   0.334
44213W        W15884  18.860  42.417   0.712
44214W        W15885   5.644  24.527   3.162
44215W        W15886  30.083  24.495   3.718
44216W        W15887  23.274  12.346   0.818
44217W        W15888   9.816  10.319  14.510
44218W        W15889  40.287  32.480  10.481
44219W        W15890  24.263   0.446  10.677
44220W        W15891  21.507  16.177   4.060
44221W        W15892   5.765  14.192   2.912
44222W        W15893  36.942  42.171  12.561
44223W        W15894   2.380  20.694  13.842
44224W        W15895  27.559  27.498  14.538
44225W        W15896  43.843  11.032   9.716
44226W        W15897  25.528  24.895  12.644
44227W        W15898   9.869   2.414   4.542
44228W        W15899  36.137  20.758   2.247
44229W        W15900  12.202  11.740  10.545
44230W        W15901  37.330  15.708   2.906
44231W        W15902  28.432  14.301   0.573
44232W        W15903  44.759  18.538   3.870
44233W        W15904   1.689   5.215  12.414
44234W        W15905  39.830  29.949   2.293
44235W        W15906  40.929  19.839  12.842
44236W        W15907  20.531  18.661   1.660
44237W        W15908  32.588   1.858   1.916
44238W        W15909   2.339  27.155  10.982
44239W        W15910  19.570  24.035  12.557
44240W        W15911   7.377  25.205  11.523
44241W        W15912  44.002  44.239  13.410
44242W        W15913   2.345   0.466   2.279
44243W        W15914  17.632  32.919  10.621
44244W        W15915  38.634   3.681   0.034
44245W        W15916  10.632  24.513  13.220
44246W        W15917  32.883  11.283   1.628
44247W        W15918  24.008  13.218  12.509
44248W        W15919  11.558  41.355  14.998
44249W        W15920   4.447  28.326   1.840
44250W        W15921  18.622  18.314   1.912
44251W        W15922  34.618  27.793   4.155
44252W        W15923  23.052  41.653  13.301
44253W        W15924  19.322  26.577  12.678
44254W        W15925  29.608  22.197   3.015
44255W        W15926  37.894  15.086   1.618
44256W        W15927  27.451   2.292  12.857
44257W        W15928  43.173  27.833  12.923
44258W        W15929  18.741   3.830  12.452
44259W        W15930  36.153   9.418  13.087
44260W        W15931  37.885   2.153  12.936
44261W        W15932   8.661  17.718  14.743
44262W        W15933  13.571  25.242   1.792
44263W        W15934  19.320  20.180  11.958
44264W        W15935  40.324  26.139  14.314
44265W        W15936  11.265   4.012   0.483
44266W        W15937  29.250  41.522   0.010
44267W        W15938  23.702   8.609   4.671
44268W        W15939  24.176  14.358   3.566
44269W        W15940  16.264   1.533  14.418
44270W        W15941  17.082  28.091   0.802
44271W        W15942  14.802   4.228  14.791
44272W        W15943  11.026  24.556  13.552
44273W        W15944  33.556  32.544   0.039
44274W        W15945   7.056  35.478   4.695
44275W        W15946  16.705  33.120   1.325
44276W        W15947  35.716  10.735   2.793
44277W        W15948  29.986   6.940   0.225
44278W        W15949   4.223  36.571  11.530
44279W        W15950   4.867  32.953   4.251
44280W        W15951  28.520  22.330  11.109
44281W        W15952  32.550  36.382   3.729
44282W        W15953  26.770  12.684   3.228
44283W        W15954  19.237  22.787  12.654
44284W        W15955  25.562  29.435   0.884
44285W        W15956  30.101  17.629   1.357
44286W        W15957   4.228  32.943   0.058
44287W        W15958   3.469  43.565   1.318
44288W        W15959  44.688  11.400   4.639
44289W        W15960  10.292   3.718   1.423
44290W        W15961   1.708  40.574   2.577
44291W        W15962   9.233   4.411  10.472
44292W        W15963  43.460  37.653  14.041
44293W        W15964  11.659  41.230   1.306
44294W        W15965  17.009  14.993  12.940
44295W        W15966   0.902  26.482  13.984
44296W        W15967  41.276  15.382  11.953
44297W        W15968  18.340  23.133   2.837
44298W        W15969  30.111  21.632  10.770
44299W        W15970  28.658  16.025   2.806
44300W        W15971  34.179  19.923  13.558
44301W        W15972   9.094   1.507  10.668
44302W        W15973  35.590  29.692   1.427
44303W        W15974   7.796   2.220   1.341
44304W        W15975  29.233   7.226  12.923
44305W        W15976  18.288  27.136   2.681
44306W        W15977   9.852  32.954  12.794
44307W        W15978   9.724  16.540  12.643
44308W        W15979  11.150  17.782  13.872
44309W        W15980  15.422  20.511  13.794
44310W        W15981  18.544  42.924  10.769
44311W        W15982  37.970  22.696   2.805
44312W        W15983  41.317  11.775  12.473
44313W        W15984  15.885   3.388   1.415
44314W        W15985  44.975  15.268  12.429
44315W        W15986  13.986  11.611   5.054
44316W        W15987  32.493  38.831   0.666
44317W        W15988  44.280  22.752  11.118
44318W        W15989  23.710   9.472   0.340
44319W        W15990  37.465  18.840  11.081
44320W        W15991  15.340  19.990  13.165
44321W        W15992  40.769   3.330   1.996
44322W        W15993  19.615   1.235  12.072
44323W        W15994  43.435  28.169   1.873
44324W        W15995  26.097   3.505  13.565
44325W        W15996  41.839  17.625  14.706
44326W        W15997   9.839   0.828   3.697
44327W        W15998   0.495  43.495  10.642
44328W        W15999  31.400   0.027  14.210
44329W        W16000  39.860  12.544   2.198
44330W        W16001   1.948  14.339  11.154
44331W        W16002   3.541  11.276  13.539
44332W        W16003  33.627  32.840  12.216
44333W        W16004  18.488  35.880   3.198
44334W        W16005  15.674  24.088  12.423
44335W        W16006   3.394  23.841   0.014
44336W        W16007  27.449  26.513  11.623
44337W        W16008  34.604   6.319  14.980
44338W        W16009  12.329  41.655   4.528
44339W        W16010  37.962  22.009   1.453
44340W        W16011  11.348   8.808  13.428
44341W        W16012   7.807  38.082   4.542
44342W        W16013  30.249  37.142  14.354
44343W        W16014  29.765  31.563   4.462
44344W        W16015  30.845  17.637  10.466
44345W        W16016  24.461  26.565  10.652
44346W        W16017   1.565  22.276   2.791
44347W        W16018  17.908  38.453   0.381
44348W        W16019  27.088  38.095   1.830
44349W        W16020   9.842  19.273  14.964
44350W        W16021  13.329   5.911   4.484
44351W        W16022  21.814  35.027  10.674
44352W        W16023   2.124   9.300   4.428
44353W        W16024  21.572   8.188  11.704
44354W        W16025  25.875   6.659   0.203
44355W        W16026  27.014  22.446   9.926
44356W        W16027  15.616  26.493  11.387
44357W        W16028  18.111  12.960   0.175
44358W        W16029   2.155  39.811   1.578
44359W        W16030  11.422  43.496   1.298
44360W        W16031  15.274  25.043  13.039
44361W        W16032  29.553  18.006  11.682
44362W        W16033  30.593  42.511   4.322
44363W        W16034  13.234  34.416  14.121
44364W        W16035  18.798  39.753   3.276
44365W        W16036  14.774   4.207  14.266
44366W        W16037  35.414  23.650  14.368
44367W        W16038  13.171  32.860   2.729
44368W        W16039  19.946  20.707  12.942
44369W        W16040  35.116   0.462  13.340
44370W        W16041  32.628  41.367   2.206
44371W        W16042  29.542  14.276   0.270
44372W        W16043  24.937   3.826   1.310
44373W        W16044   8.727  34.176  12.999
44374W        W16045  15.771  19.255   3.790
44375W        W16046   8.745  38.356   0.802
44376W        W16047  14.638  37.446   1.348
44377W        W16048   6.914  27.617   1.964
44378W        W16049  16.150   6.385  13.072
44379W        W16050  16.644  38.134  12.576
44380W        W16051  18.073  14.396   2.670
44381W        W16052  16.836  13.853  10.763
44382W        W16053   0.690  11.871   1.319
44383W        W16054  28.639  41.261  12.048
44384W        W16055  22.077   1.553   1.200
44385W        W16056  35.571   8.876   4.181
44386W        W16057  39.906  18.552   2.753
44387W        W16058  38.471  28.040  12.853
44388W        W16059  13.645  36.896  10.651
44389W        W16060  22.933  33.381   3.287
44390W        W16061  10.812   5.919   4.772
44391W        W16062  39.308  12.001  12.035
44392W        W16063   2.179  16.595  13.423
44393W        W16064   7.784   1.391   2.347
44394W        W16065   9.696  44.746   3.160
44395W        W16066  34.285  36.537  14.028
44396W        W16067   8.313   4.496  10.897
44397W        W16068  38.426   5.334  12.212
44398W        W16069  14.393  37.358   0.893
44399W        W16070   5.482   9.655   3.962
44400W        W16071  37.876   7.255  14.053
44401W        W16072  31.081  23.130   3.046
44402W        W16073  37.537  17.161  12.146
44403W        W16074  29.480   4.265  14.494
44404W        W16075   1.360   0.159   3.697
44405W        W16076  14.185  29.515   0.884
44406W        W16077   2.788  31.425   3.853
44407W        W16078  32.293  23.609   2.778
44408W        W16079   4.177  38.065  14.480
44409W        W16080  18.689   1.785  13.124
44410W        W16081   7.356  19.709   2.361
44411W        W16082   8.366  42.359   3.168
44412W        W16083  42.035  42.191  14.778
44413W        W16084   7.005  39.030  12.095
44414W        W16085  44.803   5.550   3.296
44415W        W16086  14.592  20.657   3.854
44416W        W16087  14.512   2.416  13.346
44417W        W16088  30.643  44.978   0.409
44418W        W16089   1.899  22.660   0.524
44419W        W16090  22.806  24.204   1.975
44420W        W16091   9.153  26.178   3.579
44421W        W16092  43.245  26.661   1.840
44422W        W16093   5.212  21.746  11.576
44423W        W16094   4.078  19.420  12.554
44424W        W16095   8.234   0.175   0.912
44425W        W16096  32.190  35.838   0.115
44426W        W16097  28.843   1.035   1.257
44427W        W16098  23.158  24.631   3.854
44428W        W16099   5.408   4.429  13.909
44429W        W16100  20.075   7.583   0.219
44430W        W16101  24.472  16.721  12.339
44431W        W16102  29.687  42.568   0.467
44432W        W16103  17.651  35.904   3.590
44433W        W16104  25.437  33.739   0.891
44434W        W16105   3.906  31.549  11.964
44435W        W16106  13.836  21.459   0.454
44436W        W16107  21.635  31.979   1.214
44437W        W16108  36.345  13.882   1.600
44438W        W16109  17.428  36.528  13.637
44439W        W16110  40.008  12.054  14.538
44440W        W16111   7.768  25.345   3.755
44441W        W16112  16.733  34.571  14.682
44442W        W16113   1.749  36.091   2.333
44443W        W16114  13.010  14.832   1.872
44444W        W16115  29.900   9.216   3.172
44445W        W16116   2.939   9.722  12.274
44446W        W16117   9.806  13.796  10.954
44447W        W16118   0.706  19.126  10.216
44448W        W16119  21.764  14.896  13.428
44449W        W16120  21.564  20.054  10.783
44450W        W16121   5.277  18.762  12.253
44451W        W16122  25.979  17.604  14.502
44452W        W16123  19.627  36.114   1.265
44453W        W16124  25.394  12.103  11.583
44454W        W16125  34.614  24.119  11.721
44455W        W16126  13.495   2.530   4.364
44456W        W16127  14.755  42.894  13.570
44457W        W16128  38.070  20.685   3.950
44458W        W16129  18.853   6.148  14.885
44459W        W16130  36.711  41.998   1.079
44460W        W16131   8.187  41.829  14.382
44461W        W16132  10.954  28.662  13.762
44462W        W16133  27.060  28.200  13.947
44463W        W16134  18.645  18.269   3.125
44464W        W16135  37.437  28.173  13.909
44465W        W16136   3.923  34.139  11.416
44466W        W16137  22.803   1.731  10.350
44467W        W16138  25.640  14.786   0.353
44468W        W16139  14.184   4.701   3.738
44469W        W16140  32.451  25.488  14.791
44470W        W16141   0.856  30.455  14.381
44471W        W16142  21.712  40.405   1.632
44472W        W16143  17.203  39.338   4.171
44473W        W16144   4.637  36.567  14.026
44474W        W16145  27.026  31.468   4.854
44475W        W16146   4.000  27.160   1.723
44476W        W16147  36.993   7.720  13.929
44477W        W16148  32.500  41.518   2.724
44478W        W16149  28.396  36.545  13.135
44479W        W16150  10.780   0.988   0.781
44480W        W16151  38.396  23.525  12.139
44481W        W16152   7.144   2.185   4.957
44482W        W16153  41.864  23.748  11.388
44483W        W16154   3.915   6.054  14.699
44484W        W16155   8.860   9.176   0.612
44485W        W16156  12.074  29.658  11.189
44486W        W16157  14.143  25.478   0.984
44487W        W16158  44.261  21.641   1.503
44488W        W16159  12.578  44.235  11.929
44489W        W16160   7.753  37.950   0.971
44490W        W16161  22.895  25.296  11.030
44491W        W16162  21.142  14.674  11.901
44492W        W16163  39.152  41.836   3.305
44493W        W16164  30.165  43.986   5.058
44494W        W16165  13.784  37.516   5.251
44495W        W16166  35.006  11.819  10.675
44496W        W16167  14.664  17.110   3.653
44497W        W16168  36.975  17.122   0.236
44498W        W16169  14.080  13.361   1.919
44499W        W16170   0.354  23.806  14.699
44500W        W16171  22.179  12.676   4.908
44501W        W16172  16.206  27.906  13.515
44502W        W16173  28.435  13.929  13.236
44503W        W16174   3.372  17.517   3.680
44504W        W16175  28.511  29.613   2.449
44505W        W16176  30.636   7.796   3.873
44506W        W16177  32.312  44.743  14.574
44507W        W16178   6.243   6.195   0.389
44508W        W16179  34.449  36.179  14.858
44509W        W16180   0.852  22.038   0.995
44510W        W16181  22.768   5.830  11.156
44511W        W16182  11.061  34.591  12.377
44512W        W16183  35.551  27.193  13.638
44513W        W16184  44.938  43.575  13.183
44514W        W16185   5.915  32.430  14.960
44515W        W16186   1.329   5.392  10.982
44516W        W16187  40.393  37.987   2.891
44517W        W16188  34.803  24.344  13.921
44518W        W16189  11.897  31.269  11.182
44519W        W16190  16.760  30.167  11.192
44520W        W16191   0.602  10.418   4.573
44521W        W16192  32.069  40.538   0.275
44522W        W16193  40.450  18.539  12.002
44523W        W16194  17.788  39.563  12.558
44524W        W16195  41.843  16.347  11.623
44525W        W16196   9.613  32.941   0.891
44526W        W16197   8.855  22.228   1.698
44527W        W16198   8.218  28.052   3.610
44528W        W16199  13.339  28.319   1.251
44529W        W16200  13.515   8.145  11.975
44530W        W16201  40.218  26.599  12.079
44531W        W16202  22.942  38.044   1.020
44532W        W16203  43.791  41.550   0.623
44533W        W16204   0.950  41.086  12.915
44534W        W16205  28.716  40.859   1.948
44535W        W16206  22.245  29.796   3.303
44536W        W16207  15.964  33.551   0.919
44537W        W16208   8.862   0.614   0.223
44538W        W16209  11.734  24.215  12.808
44539W        W16210  37.830  37.525   0.004
44540W        W16211  24.221   1.483   4.141
44541W        W16212  40.984   4.940   1.340
44542W        W16213  24.417  28.678   3.848
44543W        W16214   4.870   2.092  10.996
44544W        W16215  13.151  25.616   3.870
44545W        W16216  23.504  17.018   0.837
44546W        W16217  28.135  21.583   2.627
44547W        W16218  17.533  23.026   3.840
44548W        W16219  41.738  25.417  12.421
44549W        W16220  42.249  12.373   4.148
44550W        W16221  39.020  17.595   1.665
44551W        W16222   1.823  40.560   3.620
44552W        W16223  21.056  29.979  13.717
44553W        W16224  21.615  40.820  11.966
44554W        W16225   6.239  30.510   0.424
44555W        W16226  40.423   0.268  12.992
44556W        W16227   7.422   2.496  11.201
44557W        W16228  27.157  39.122   1.902
44558W        W16229  23.920  30.003   2.224
44559W        W16230   2.957  34.015   4.693
44560W        W16231   3.879  21.029   4.049
44561W        W16232  24.742  21.600  13.776
44562W        W16233  43.838   5.156   3.332
44563W        W16234  32.069  40.991   0.504
44564W        W16235   0.862  36.245   0.191
44565W        W16236  17.120  33.998  10.411
44566W        W16237  18.286  23.567   0.361
44567W        W16238   1.190  18.215   4.270
44568W        W16239  34.400  25.789   0.484
44569W        W16240  24.623  23.986   1.892
44570W        W16241  27.660  31.632   2.956
44571W        W16242  15.113   8.784   4.229
44572W        W16243   6.405  43.971  14.314
44573W        W16244  13.612   4.873  11.082
44574W        W16245   8.275  41.493  13.985
44575W        W16246  21.163  13.334   1.255
44576W        W16247  17.673  12.702   4.000
44577W        W16248  43.808  24.688  12.958
44578W        W16249   1.930  12.860  13.394
44579W        W16250  32.610  11.844  14.134
44580W        W16251  34.866  26.913  11.129
44581W        W16252  34.352  44.673   1.340
44582W        W16253  20.731   6.670   1.561
44583W        W16254  25.644  23.551  14.532
44584W        W16255  37.769  23.640   2.233
44585W        W16256   9.485  19.833   4.504
44586W        W16257  10.600  29.970  14.867
44587W        W16258   1.716   1.597   3.498
44588W        W16259  19.288  44.393   2.676
44589W        W16260  25.125   2.646   0.662
44590W        W16261  41.512   5.827  10.779
44591W        W16262  22.116   1.010   1.214
44592W        W16263   8.941  26.546  13.232
44593W        W16264  32.047   3.941  12.069
44594W        W16265  14.720  15.447  13.505
44595W        W16266  36.469  29.077  12.610
44596W        W16267   4.635  26.521  14.286
44597W        W16268  44.025   6.104   4.696
44598W        W16269  26.335   3.842  14.428
44599W        W16270  19.248   4.241   0.765
44600W        W16271  21.109  24.673   1.911
44601W        W16272  25.708  25.173  13.517
44602W        W16273  20.208  15.851   3.552
44603W        W16274  43.232  24.221  13.402
44604W        W16275   0.456  12.733  12.465
44605W        W16276  16.386  36.602  11.974
44606W        W16277  24.360  40.226   1.577
44607W        W16278  21.571  25.413  13.942
44608W        W16279  25.172  33.584   2.254
44609W        W16280  39.824  37.502  14.048
44610W        W16281  42.273  17.065  10.761
44611W        W16282  19.105   5.286   4.571
44612W        W16283  14.834  41.288   4.104
44613W        W16284  35.934   1.771   1.394
44614W        W16285  44.533  16.275   3.901
44615W        W16286   2.530  18.949   0.439
44616W        W16287  34.096  37.773  13.091
44617W        W16288  27.120  26.001   1.133
44618W        W16289   8.814   6.965  11.243
44619W        W16290  26.684  43.523  12.193
44620W        W16291   1.686  28.733  13.548
44621W        W16292  16.612   4.720   1.151
44622W        W16293   7.481  19.376  12.895
44623W        W16294   8.702  30.591   1.964
44624W        W16295  10.593  23.225   2.145
44625W        W16296   9.201  42.280  11.140
44626W        W16297  25.765  13.606   1.620
44627W        W16298   4.728  31.976  12.242
44628W        W16299  17.354  14.622  11.209
44629W        W16300   5.185  44.344  14.914
44630W        W16301  13.113  19.558  11.847
44631W        W16302  24.137  21.200   9.945
44632W        W16303  14.694  20.259   2.761
44633W        W16304   3.053   5.324  13.906
44634W        W16305  16.757   7.909  12.728
44635W        W16306  18.745  13.058  10.966
44636W        W16307  28.128   0.823   2.440
44637W        W16308  24.320   7.660   0.220
44638W        W16309  36.239  24.185  13.746
44639W        W16310  25.231  10.337   0.696
44640W        W16311  16.776  36.075   2.777
44641W        W16312  35.252   0.773   0.387
44642W        W16313   4.261   6.295   9.716
44643W        W16314  17.690  31.355  11.952
44644W        W16315  41.841   4.995   1.789
44645W        W16316  10.812  23.716   0.994
44646W        W16317   8.892  11.242  10.487
44647W        W16318  33.234  32.225  11.177
44648W        W16319   6.798   6.222  13.035
44649W        W16320  44.565  14.608  12.888
44650W        W16321  37.458  40.916  10.460
44651W        W16322   0.755  11.806  10.669
44652W        W16323   5.803  35.350   3.635
44653W        W16324  34.444  10.092   2.567
44654W        W16325   4.928  41.056   0.138
44655W        W16326  36.135  24.584  11.120
44656W        W16327  30.024  18.283  14.855
44657W        W16328  18.540   4.758  11.621
44658W        W16329  44.332  15.905   0.501
44659W        W16330  39.961  24.575   2.825
44660W        W16331  16.130  15.224  13.770
44661W        W16332  34.176  28.167   2.762
44662W        W16333  33.061   4.973   0.984
44663W        W16334   3.884  30.096  13.368
44664W        W16335  21.152  29.406   4.881
44665W        W16336  21.658  38.924   3.148
44666W        W16337  41.969  14.225  11.517
44667W        W16338  36.590  12.035   4.258
44668W        W16339  36.035  40.321   2.364
44669W        W16340   3.154  31.018  12.392
44670W        W16341  11.751  29.309  12.594
44671W        W16342  15.325  44.904  14.406
44672W        W16343  42.781   7.639   0.037
44673W        W16344  29.972  24.197  14.928
44674W        W16345  32.346  19.604  13.802
44675W        W16346  12.704  35.464  14.110
44676W        W16347  16.360  44.203  11.965
44677W        W16348  18.863  17.298   2.749
44678W        W16349  37.801   5.409  13.964
44679W        W16350  28.689  43.445   2.290
44680W        W16351  23.169  13.846  13.036
44681W        W16352   2.432  38.765   0.716
44682W        W16353  28.203   0.963  14.690
44683W        W16354  43.441  42.525   2.762
44684W        W16355  43.260  12.162  11.171
44685W        W16356   0.041   3.681   3.733
44686W        W16357  31.056   6.243  12.465
44687W        W16358  17.372   3.793   0.050
44688W        W16359  41.047  38.858  14.989
44689W        W16360  16.642   3.275  11.199
44690W        W16361  17.227  36.918   2.986
44691W        W16362  31.016   5.645  13.538
44692W        W16363   1.201  44.070   2.908
44693W        W16364   3.428  32.855  12.562
44694W        W16365  21.570  14.144  13.137
44695W        W16366  15.849  33.240  12.366
44696W        W16367   9.694  19.325   4.708
44697W        W16368  14.082  33.468  11.401
44698W        W16369  17.569  14.062  14.980
44699W        W16370  27.218  32.434   3.096
44700W        W16371  28.439  39.307   4.221
44701W        W16372  13.841  33.953   4.953
44702W        W16373  39.784  26.998  13.361
44703W        W16374   6.935  21.231   1.459
44704W        W16375   3.002   8.811  12.926
44705W        W16376  14.530  22.302   2.266
44706W        W16377   2.984  36.970  12.432
44707W        W16378  38.329  13.513   4.621
44708W        W16379  36.448  38.863   2.824
44709W        W16380  12.374  13.603  12.582
44710W        W16381   3.189   1.473   1.306
44711W        W16382  23.147  42.691  10.573
44712W        W16383  10.456  27.237   1.887
44713W        W16384  43.924  12.423  13.105
44714W        W16385  20.140  44.304  11.999
44715W        W16386  21.526  36.971  11.116
44716W        W16387  44.775  23.780  11.236
44717W        W16388  14.554  23.815   3.317
44718W        W16389  19.606  29.151  12.045
44719W        W16390  10.702  13.421  10.986
44720W        W16391  43.296  34.988   0.852
44721W        W16392  23.032  35.773  12.941
44722W        W16393   4.675   0.128   2.857
44723W        W16394  34.914   6.914   2.172
44724W        W16395   6.976  12.901   0.210
44725W        W16396  35.964  28.609  14.435
44726W        W16397  38.178  41.581   9.736
44727W        W16398  38.537  43.940   3.656
44728W        W16399  26.709   4.282   0.527
44729W        W16400   6.366   5.282   2.312
44730W        W16401  40.896   7.652  11.915
44731W        W16402  18.657  18.219  12.824
44732W        W16403   5.791  22.269   1.377
44733W        W16404   6.193  35.466  14.909
44734W        W16405  19.449  35.281  14.506
44735W        W16406  33.380  18.561   2.644
44736W        W16407   2.646  10.826   0.077
44737W        W16408  26.769  39.065  13.501
44738W        W16409  35.882  36.875   9.665
44739W        W16410  26.014  20.480  13.550
44740W        W16411  18.428   7.837  11.226
44741W        W16412  24.946   5.099   0.792
44742W        W16413  42.921   5.152   0.594
44743W        W16414   0.960   0.779  10.719
44744W        W16415   2.357   6.651  14.458
44745W        W16416  40.850  41.370   4.829
44746W        W16417   8.102  16.289   2.466
44747W        W16418  33.968  43.009   3.350
44748W        W16419  16.148  14.554  13.063
44749W        W16420   2.860  31.676   2.344
44750W        W16421  10.352  21.147   4.463
44751W        W16422  29.457   2.414  13.946
44752W        W16423  25.921  37.889   4.628
44753W        W16424   5.679   7.107  11.674
44754W        W16425   7.447  15.389  14.520
44755W        W16426   4.775   1.871   3.458
44756W        W16427  13.714  41.519   1.035
44757W        W16428  25.246  25.802   4.218
44758W        W16429  23.124  10.653  12.433
44759W        W16430  34.204   6.875  14.838
44760W        W16431  26.658   6.236  13.130
44761W        W16432  36.973  28.474  11.506
44762W        W16433   7.399   5.810  14.806
44763W        W16434  26.225   5.720   4.156
44764W        W16435  23.813  32.575   2.777
44765W        W16436  27.152  33.968  12.393
44766W        W16437   5.390  37.342  14.963
44767W        W16438   3.359   0.148  13.824
44768W        W16439   8.193   9.932   2.838
44769W        W16440  22.500   0.928  12.988
44770W        W16441  39.591   3.229   0.816
44771W        W16442   4.012  24.919   5.039
44772W        W16443  40.586   5.689   0.251
44773W        W16444  14.330  42.291   3.277
44774W        W16445  28.533   2.476   3.591
44775W        W16446  19.386  19.304   3.816
44776W        W16447   6.332  42.503  12.136
44777W        W16448  34.513  33.691  10.757
44778W        W16449  21.811  31.931   3.269
44779W        W16450  34.025   5.370  14.564
44780W        W16451   4.443  43.968   3.742
44781W        W16452  13.754   1.140   4.121
44782W        W16453  40.915  15.593   4.735
44783W        W16454   5.351  38.953  14.983
44784W        W16455  40.741  41.434  12.548
44785W        W16456   5.871   8.284   2.787
44786W        W16457  33.124  33.516  13.609
44787W        W16458  17.680  21.582   4.155
44788W        W16459  12.707  16.751  10.583
44789W        W16460  25.534  32.086   2.715
44790W        W16461  31.083   6.166   0.908
44791W        W16462  42.604  41.027   1.764
44792W        W16463   1.401  15.294   4.547
44793W        W16464   3.103  33.566  12.130
44794W        W16465  22.511  17.655   0.223
44795W        W16466  11.927  19.201  12.388
44796W        W16467   9.775  41.260  10.677
44797W        W16468  27.528   7.187   4.859
44798W        W16469  42.513  25.954  14.829
44799W        W16470   2.768  40.440  14.250
44800W        W16471  29.976  29.331  12.399
44801W        W16472  20.586  22.741  13.436
44802W        W16473  37.715  20.712  13.900
44803W        W16474  32.919  43.316   1.370
44804W        W16475  18.051  15.131  14.371
44805W        W16476  29.108   9.817  11.081
44806W        W16477  37.752  15.047  11.125
44807W        W16478   1.569  33.010  11.557
44808W        W16479  11.225   5.328   0.811
44809W        W16480  10.622  38.795   3.857
44810W        W16481  40.893  41.538   2.233
44811W        W16482  28.322  33.526   1.272
44812W        W16483  31.603   2.431  11.635
44813W        W16484  17.934  17.247   4.792
44814W        W16485   4.471  24.302  10.786
44815W        W16486  34.878  18.602  14.750
44816W        W16487  15.157  31.165  11.056
44817W        W16488  18.689  32.794   3.382
44818W        W16489   5.486  28.667   4.477
44819W        W16490  25.547  43.938  13.558
44820W        W16491  27.450  10.257  11.427
44821W        W16492  35.479  28.114  11.939
44822W        W16493  30.929  40.968   4.740
44823W        W16494  29.813  39.160  12.174
44824W        W16495  11.840  29.764   0.544
44825W        W16496  22.121   4.349   4.242
44826W        W16497  41.483  32.090  13.542
44827W        W16498  30.154  24.790   4.149
44828W        W16499  43.850   9.898  13.348
44829W        W16500  12.515   6.452   0.038
44830W        W16501  11.256  37.009  11.525
44831W        W16502  26.655  34.512   4.304
44832W        W16503   7.006  23.583  10.808
44833W        W16504  29.547   8.379  12.201
44834W        W16505   5.740  21.775   1.276
44835W        W16506   5.825  14.226   1.782
44836W        W16507  15.353  27.272  13.406
44837W        W16508   0.362  17.015   2.427
44838W        W16509  22.233  19.157  14.280
44839W        W16510   4.195  14.155   3.211
44840W        W16511  19.204  40.595   4.081
44841W        W16512  39.898  34.868  12.206
44842W        W16513   0.880  26.235   0.241
44843W        W16514   8.850  23.700  14.363
44844W        W16515  25.264  20.770  12.516
44845W        W16516  43.425  20.221   4.923
44846W        W16517  12.931   2.251  14.933
44847W        W16518  39.980  27.612  12.390
44848W        W16519  25.600   7.301   0.022
44849W        W16520   2.317  33.002   2.277
44850W        W16521  27.003  24.434  12.560
44851W        W16522  37.760  16.333  10.617
44852W        W16523  35.111  31.677  10.711
44853W        W16524  21.484  42.280  10.945
44854W        W16525  23.126  17.238   2.803
44855W        W16526  23.994  24.690  10.768
44856W        W16527   8.461  19.919   2.904
44857W        W16528  22.516  38.536   3.419
44858W        W16529   4.931  23.625  11.391
44859W        W16530  35.171  25.153   4.549
44860W        W16531  10.459  18.652  12.563
44861W        W16532  37.758  41.382  10.436
44862W        W16533  24.591  22.633   4.922
44863W        W16534  28.412  38.763  14.728
44864W        W16535  43.056   1.266  11.602
44865W        W16536   4.668   2.368   3.640
44866W        W16537  43.657   5.601   1.909
44867W        W16538  29.087  29.716  12.652
44868W        W16539  35.006  10.156  13.477
44869W        W16540  44.016  38.723   2.620
44870W        W16541  33.361  17.038  11.982
44871W        W16542  29.001  20.642  10.513
44872W        W16543  39.342  12.432  10.683
44873W        W16544   0.551  12.343  10.694
44874W        W16545  24.863  37.325  12.953
44875W        W16546  10.599   4.734   0.873
44876W        W16547  14.905  11.730  14.314
44877W        W16548  26.171  33.063   3.598
44878W        W16549  26.470  23.560  14.940
44879W        W16550  34.288  16.732   3.037
44880W        W16551  29.129  11.388   1.888
44881W        W16552  24.235  20.308  14.017
44882W        W16553  11.794  40.470  14.356
44883W        W16554  23.422  39.789   1.813
44884W        W16555  36.298  18.720   4.105
44885W        W16556   3.378  42.989   4.801
44886W        W16557  14.185  35.599   3.766
44887W        W16558  18.203  17.088  13.396
44888W        W16559  23.277  23.941   0.687
44889W        W16560  42.316  13.064  12.837
44890W        W16561  24.109  41.505   3.177
44891W        W16562   4.329   1.076  14.893
44892W        W16563  12.845   2.913  13.399
44893W        W16564  39.026  29.788  13.768
44894W        W16565  33.057  39.235  14.792
44895W        W16566  29.899   9.773   1.864
44896W        W16567  17.500  35.596  14.549
44897W        W16568   6.069  24.615  13.841
44898W        W16569   9.687  22.450   0.868
44899W        W16570  37.044  17.837  11.074
44900W        W16571  40.249  42.832   0.410
44901W        W16572  12.869  18.344   0.693
44902W        W16573   0.080  40.319   4.221
44903W        W16574  43.436  27.646   1.696
44904W        W16575   1.552  40.863  13.388
44905W        W16576  28.903  40.875   2.428
44906W        W16577  20.517  19.701  13.616
44907W        W16578  39.533   1.610  14.794
44908W        W16579   2.840  32.342  11.706
44909W        W16580  37.353  27.049  14.534
44910W        W16581  39.720  21.541   2.358
44911W        W16582   7.312  20.018   2.784
44912W        W16583   2.052  28.931   1.674
44913W        W16584  44.964   4.879   1.212
44914W        W16585  27.138  36.870  14.289
44915W        W16586  32.251  44.849  11.897
44916W        W16587  25.039   7.608   4.205
44917W        W16588  33.939   3.250   3.277
44918W        W16589  19.595  24.720  13.270
44919W        W16590   5.823  37.525   4.527
44920W        W16591  44.433  31.339   0.494
44921W        W16592  32.973  32.974   4.086
44922W        W16593  30.348  35.125  12.640
44923W        W16594   0.923  31.258   2.890
44924W        W16595   7.122   3.857   4.686
44925W        W16596  18.723  39.779   2.414
44926W        W16597  10.272   3.452   0.954
44927W        W16598  11.224   7.739   1.335
44928W        W16599  32.420  26.482  12.165
44929W        W16600   8.380  19.185  11.123
44930W        W16601  39.784  28.047  14.525
44931W        W16602   8.596   7.083  13.066
44932W        W16603  39.116  27.395   4.592
44933W        W16604  20.985   8.297  11.683
44934W        W16605   3.723  42.389  10.643
44935W        W16606  11.121  19.866   4.850
44936W        W16607  18.593  19.805  10.365
44937W        W16608  20.010  30.890  12.888
44938W        W16609  32.172  21.150   2.819
44939W        W16610   4.427  39.367   2.363
44940W        W16611  38.576  25.177  10.623
44941W        W16612  34.664  15.031  13.347
44942W        W16613   0.336   8.892  14.946
44943W        W16614  10.614  44.244  11.492
44944W        W16615  29.973   1.201  14.812
44945W        W16616  23.356  36.952   4.602
44946W        W16617  35.919   0.974   1.002
44947W        W16618  41.098  15.602   1.686
44948W        W16619  20.760  34.490  12.642
44949W        W16620  14.751  28.975   0.990
44950W        W16621  43.493  36.847   2.751
44951W        W16622  36.944  37.034   3.176
44952W        W16623  30.218  33.526  13.743
44953W        W16624  11.563   5.964  11.126
44954W        W16625  14.445  21.963  14.016
44955W        W16626  29.410  19.991   2.379
44956W        W16627  26.382  19.511   2.204
44957W        W16628  14.638   6.181   3.307
44958W        W16629  19.268  28.066  12.606
44959W        W16630   2.836  12.424   2.489
44960W        W16631  44.795  24.997   0.185
44961W        W16632  36.537  42.457   1.269
44962W        W16633  14.797  29.922   0.377
44963W        W16634  12.270  20.739   0.717
44964W        W16635  13.995   5.249  10.252
44965W        W16636  16.195  24.421  12.427
44966W        W16637  14.113  30.324   2.672
44967W        W16638  34.444  16.676   3.539
44968W        W16639  28.680  19.139   1.278
44969W        W16640  35.058  32.313   0.779
44970W        W16641  14.221  19.049  12.581
44971W        W16642   6.862  35.392   4.186
44972W        W16643  28.172  31.130   0.972
44973W        W16644  16.806   1.589  14.370
44974W        W16645  24.242  29.321  11.596
44975W        W16646  41.401  36.962   4.386
44976W        W16647   9.798  28.129   1.367
44977W        W16648  42.732  27.733   2.822
44978W        W16649  20.725  30.632  13.099
44979W        W16650  20.057  26.970  14.386
44980W        W16651  21.284  18.125   0.723
44981W        W16652  10.272  19.660  13.087
44982W        W16653  11.877  41.474  13.613
44983W        W16654  42.016  34.631  14.990
44984W        W16655  36.214   7.918  12.029
44985W        W16656  28.667  44.987  11.638
44986W        W16657  27.240   6.653   0.951
44987W        W16658  39.974  37.832  11.563
44988W        W16659  19.597  19.646   1.939
44989W        W16660  40.052  31.554  14.487
44990W        W16661  18.749  27.026  14.798
44991W        W16662  29.191  38.323  14.296
44992W        W16663  25.157  35.846  13.665
44993W        W16664  43.935  21.566  10.530
44994W        W16665   1.239   4.957  14.519
44995W        W16666  32.470   2.220   0.407
44996W        W16667  39.347   5.198   0.728
44997W        W16668  27.556  29.603  11.564
44998W        W16669  24.565  27.071   0.074
44999W        W16670  21.076  29.171  10.870
45000W        W16671   2.964  25.134  14.937
45001W        W16672  18.686  29.910   5.003
45002W        W16673  11.667  28.752   0.306
45003W        W16674  22.658  35.935   2.154
45004W        W16675  33.136  34.419   0.878
45005W        W16676  24.586  43.422   4.922
45006W        W16677  30.548  43.401  10.352
45007W        W16678   8.562  20.716  11.066
45008W        W16679  25.259  33.538  14.431
45009W        W16680  33.972  16.111   3.252
45010W        W16681  22.135  25.707  11.254
45011W        W16682  24.450  31.250  12.843
45012W        W16683   8.547  16.728   2.118
45013W        W16684   8.099   9.792  14.464
45014W        W16685  37.561  28.388   3.685
45015W        W16686  44.684  16.217   0.776
45016W        W16687  10.244  29.458   4.265
45017W        W16688  10.883  33.341   3.670
45018W        W16689  17.838  23.227  14.142
45019W        W16690  11.084  35.802  11.664
45020W        W16691  10.100  12.482  10.680
45021W        W16692  27.415   8.785  12.375
45022W        W16693  13.369  24.963   0.503
45023W        W16694   4.801   2.714  14.377
45024W        W16695  11.155  27.172   4.177
45025W        W16696   4.923   3.704   0.498
45026W        W16697  36.956   6.330  13.485
45027W        W16698  17.962  12.696  13.215
45028W        W16699  19.362  24.105  11.122
45029W        W16700  13.297  34.598  14.974
45030W        W16701  15.143  41.868  10.833
45031W        W16702   5.417  42.280  14.034
45032W        W16703  37.611  12.782  14.263
45033W        W16704  18.520  22.618   2.680
45034W        W16705  13.578  25.909   4.577
45035W        W16706  29.425  37.252   3.391
45036W        W16707  31.203  26.587   1.324
45037W        W16708   7.373  38.787   3.644
45038W        W16709   2.971  26.059  11.484
45039W        W16710   9.352  40.424   3.746
45040W        W16711  15.627  14.570   1.825
45041W        W16712   3.171  21.098   4.836
45042W        W16713  26.179   1.824   1.060
45043W        W16714  31.006   8.673   4.826
45044W        W16715  22.107  23.875  12.317
45045W        W16716   9.093   2.986   3.329
45046W        W16717  30.003  44.465   1.764
45047W        W16718   3.898  13.331   3.628
45048W        W16719  32.560  25.267  12.516
45049W        W16720  22.682  43.882   3.060
45050W        W16721  44.872  29.988  12.570
45051W        W16722   3.759   2.864  12.839
45052W        W16723  11.808  26.897   4.618
45053W        W16724   9.284  35.814   2.724
45054W        W16725  34.875  27.794  13.930
45055W        W16726  22.738  25.634   4.124
45056W        W16727  29.012  17.172   1.721
45057W        W16728  39.908  39.816  12.406
45058W        W16729  31.974   2.579   3.032
45059W        W16730  40.506  26.292   4.564
45060W        W16731  10.262  21.972   1.305
45061W        W16732  12.619  24.067  14.803
45062W        W16733  43.915  38.217   2.676
45063W        W16734  41.858   0.464   3.737
45064W        W16735  15.163  39.518  10.408
45065W        W16736  25.334  43.807  11.146
45066W        W16737   7.819   4.414   2.872
45067W        W16738  22.750  36.004   1.649
45068W        W16739  37.096   3.324  12.943
45069W        W16740  24.236  20.506   3.752
45070W        W16741  20.981  22.650   0.825
45071W        W16742  13.720   6.772   5.562
45072W        W16743  13.284  29.407   0.730
45073W        W16744  30.999  21.343  10.172
45074W        W16745  43.228  29.863  14.012
45075W        W16746  38.585  22.689  12.194
45076W        W16747  11.410   1.471  11.832
45077W        W16748   8.133  17.099   1.907
45078W        W16749   4.449  44.415   0.498
45079W        W16750  31.695  35.076  11.616
45080W        W16751  24.522  41.089   1.850
45081W        W16752  29.712   9.401   2.730
45082W        W16753   8.880  40.364  11.999
45083W        W16754  43.236   2.433  13.566
45084W        W16755  32.793   7.779  10.681
45085W        W16756  35.162  29.017   4.203
45086W        W16757  23.512  20.653   1.901
45087W        W16758  10.062  14.101   2.841
45088W        W16759  18.672  14.398   0.538
45089W        W16760  17.968  17.284   2.772
45090W        W16761   0.396  29.585   3.256
45091W        W16762  41.706   6.230   1.261
45092W        W16763  23.011  25.253   5.083
45093W        W16764   1.272  42.582   0.800
45094W        W16765  36.636  39.230   1.830
45095W        W16766  13.795  34.804   3.347
45096W        W16767  17.651  22.080   3.931
45097W        W16768   9.779  21.140  12.097
45098W        W16769  17.734  34.345  12.339
45099W        W16770  29.474  25.659   1.568
45100W        W16771  44.350   0.771   0.356
45101W        W16772  33.332   5.703  11.797
45102W        W16773  11.273  10.682  13.292
45103W        W16774   9.396  23.090  11.047
45104W        W16775  38.907   1.596  12.557
45105W        W16776   0.479  15.249  12.501
45106W        W16777   6.849  22.714  11.864
45107W        W16778  28.049  21.048  13.385
45108W        W16779  30.819  19.937   2.940
45109W        W16780  23.775  38.273   2.721
45110W        W16781  32.372  30.544   3.338
45111W        W16782  33.166  38.982  11.076
45112W        W16783  10.283  20.341  14.499
45113W        W16784  11.179  14.910   2.157
45114W        W16785  36.550   1.258  10.422
45115W        W16786  40.014  29.587   2.621
45116W        W16787  13.454  42.471   3.803
45117W        W16788  38.412  36.190   2.148
45118W        W16789  31.750   4.999  14.975
45119W        W16790   7.943   9.099   2.726
45120W        W16791  43.249  41.733   3.077
45121W        W16792  11.864  23.997  11.085
45122W        W16793  27.396  28.477  13.026
45123W        W16794  35.480  17.030   4.067
45124W        W16795   2.453   1.954   2.328
45125W        W16796  33.058  25.616  11.119
45126W        W16797  12.648   9.123   1.280
45127W        W16798  31.970  24.793  14.020
45128W        W16799  16.602  37.269   0.244
45129W        W16800  42.326  40.568  11.433
45130W        W16801  29.475  24.155  12.205
45131W        W16802  31.589  38.269   1.325
45132W        W16803   2.747  14.537  12.122
45133W        W16804  13.969  44.420  13.687
45134W        W16805  11.383  31.117  12.075
45135W        W16806  15.324  20.727  12.459
45136W        W16807   7.719  23.116   3.619
45137W        W16808  21.114  26.242   4.960
45138W        W16809   0.017  26.509   1.351
45139W        W16810  36.045  15.128  12.544
45140W        W16811   1.526  18.236   0.535
45141W        W16812  16.194  22.487  11.929
45142W        W16813  27.133   3.694  12.992
45143W        W16814  23.151  22.747  12.371
45144W        W16815  34.985  34.574  10.509
45145W        W16816  21.527   4.779  10.633
45146W        W16817  30.048  35.926   4.978
45147W        W16818  12.799  35.318   1.846
45148W        W16819  30.463  25.624  13.502
45149W        W16820  38.420  37.322  12.024
45150W        W16821   1.329   7.521   1.317
45151W        W16822  41.021  27.639  14.803
45152W        W16823   0.921  16.386   3.697
45153W        W16824  40.453  17.472   0.000
45154W        W16825   8.353  20.317  12.613
45155W        W16826   2.103  39.304  12.985
45156W        W16827   2.863  36.393   3.315
45157W        W16828  11.132  13.723  12.962
45158W        W16829  20.643   5.386  14.902
45159W        W16830  24.379  39.401   0.013
45160W        W16831  39.509  21.436   0.978
45161W        W16832  10.766  14.461  11.938
45162W        W16833   1.380  33.309   1.054
45163W        W16834  23.364  28.123  10.636
45164W        W16835  40.156  42.806  14.057
45165W        W16836  18.328  13.885  14.844
45166W        W16837   7.140  41.401  14.296
45167W        W16838  15.276  10.471   1.745
45168W        W16839  41.440  31.040   0.171
45169W        W16840  10.792  25.028  14.702
45170W        W16841   8.788  28.853   3.747
45171W        W16842  17.319  38.969  10.764
45172W        W16843  28.946   3.872   2.410
45173W        W16844  39.510   9.728   0.242
45174W        W16845  42.355  35.501   1.010
45175W        W16846  41.531  27.938  14.847
45176W        W16847  18.027  12.818   3.633
45177W        W16848  10.837  37.911   1.383
45178W        W16849  26.077  33.833   4.250
45179W        W16850  33.560   0.068   3.117
45180W        W16851  36.575  16.036  11.431
45181W        W16852  22.153  27.739  14.527
45182W        W16853  12.797  22.771  13.151
45183W        W16854  43.945  16.569   4.276
45184W        W16855  12.737  34.756   4.706
45185W        W16856  37.529  19.600  10.617
45186W        W16857  22.079   0.963  10.737
45187W        W16858  28.153  30.079  11.097
45188W        W16859  12.858  13.820  12.667
45189W        W16860  18.486  11.687   0.367
45190W        W16861  26.161  32.604   2.243
45191W        W16862  10.240   5.472  14.025
45192W        W16863  18.364   8.165  12.751
45193W        W16864   5.775   7.179  13.910
45194W        W16865  13.249  32.900  13.743
45195W        W16866  15.269  13.223  11.543
45196W        W16867   5.774  40.057  12.644
45197W        W16868  38.413  27.019   2.839
45198W        W16869  28.667  11.084   0.259
45199W        W16870  37.904  14.009   1.282
45200W        W16871   9.809  14.723   0.272
45201W        W16872  11.087  27.481  10.890
45202W        W16873  13.087  34.081  13.337
45203W        W16874  13.569   5.272   0.274
45204W        W16875   9.381   7.674   2.355
45205W        W16876  33.533  37.473   2.395
45206W        W16877  29.943  30.440  14.830
45207W        W16878   2.849  42.226   1.243
45208W        W16879   7.588  31.837  10.970
45209W        W16880  28.729  18.538  12.887
45210W        W16881  40.533  30.524   0.505
45211W        W16882  14.316  43.349   1.766
45212W        W16883  30.413  33.897   3.227
45213W        W16884  36.772   5.833  13.847
45214W        W16885  31.833  44.350  12.010
45215W        W16886   6.234  26.014  12.965
45216W        W16887  12.268   1.680  11.290
45217W        W16888  33.068   4.765   0.505
45218W        W16889  35.001  34.887  13.895
45219W        W16890  12.730  21.162  14.095
45220W        W16891  24.961  28.630  12.019
45221W        W16892  36.172  23.735  10.918
45222W        W16893  28.787  24.103  12.508
45223W        W16894  30.814  27.012   3.741
45224W        W16895  28.008  40.557  14.900
45225W        W16896  15.803  30.560  11.146
45226W        W16897  31.900  32.045   4.996
45227W        W16898  21.989  16.979  11.095
45228W        W16899   2.682   8.284  11.174
45229W        W16900   9.326  14.141   4.551
45230W        W16901  12.541  27.715  12.076
45231W        W16902  10.151   1.416   1.351
45232W        W16903  32.338  21.760  13.659
45233W        W16904  16.068  42.476  11.097
45234W        W16905  26.126   9.238   3.706
45235W        W16906   0.978  25.014   3.143
45236W        W16907  21.067  23.557   2.856
45237W        W16908   7.087  12.044   1.930
45238W        W16909  21.527   9.674   4.738
45239W        W16910  10.424  13.088   1.256
45240W        W16911  36.986  25.121   1.432
45241W        W16912  13.137  19.120   4.214
45242W        W16913  18.505  25.199   3.670
45243W        W16914  23.238  41.913   4.780
45244W        W16915   4.297  33.014   4.104
45245W        W16916   5.325  23.053   4.645
45246W        W16917  35.090  10.867  11.621
45247W        W16918  16.106  35.931   3.644
45248W        W16919  28.699  30.456   1.737
45249W        W16920   7.330  33.754  11.114
45250W        W16921  11.370  43.271  13.870
45251W        W16922  41.567   7.238   2.804
45252W        W16923  38.557   5.712  11.886
45253W        W16924   3.744  16.705   2.749
45254W        W16925  15.642  35.565   1.966
45255W        W16926  38.840  26.677   1.734
45256W        W16927   1.480  24.602   3.590
45257W        W16928  44.372  37.318  11.515
45258W        W16929  31.462  31.710  12.982
45259W        W16930   2.740   5.663   3.686
45260W        W16931  36.707  41.235   5.210
45261W        W16932   4.331  18.175   0.980
45262W        W16933  14.654  43.278  14.398
45263W        W16934  40.894   5.226   1.795
45264W        W16935   0.352  16.296  10.940
45265W        W16936  41.329   1.792  12.961
45266W        W16937   6.805   2.064  13.879
45267W        W16938   1.582  36.696  11.783
45268W        W16939  18.460   5.140  13.963
45269W        W16940  23.694  31.983  12.938
45270W        W16941  36.819   4.211   2.182
45271W        W16942  44.838  26.465   2.913
45272W        W16943  44.519  33.185   0.759
45273W        W16944  15.115  19.332   0.254
45274W        W16945   6.819  20.795  11.957
45275W        W16946   9.344  33.337  13.408
45276W        W16947   8.771  21.923  13.948
45277W        W16948  14.213  21.219   1.794
45278W        W16949  15.422   4.352  13.366
45279W        W16950   0.036   3.727   2.550
45280W        W16951  27.443  42.532  10.565
45281W        W16952  35.433  14.801  13.851
45282W        W16953  17.540  25.708   1.730
45283W        W16954  34.415  31.170  12.822
45284W        W16955   4.485  25.725  11.730
45285W        W16956  11.333  42.526  12.626
45286W        W16957   9.355  22.143   2.140
45287W        W16958  34.429   9.559   2.523
45288W        W16959  22.174  40.836   3.813
45289W        W16960  36.414  34.615   1.874
45290W        W16961   3.910  20.181  13.538
45291W        W16962  19.728  36.604   1.397
45292W        W16963  16.743  11.193   1.884
45293W        W16964  33.446  43.708   0.787
45294W        W16965   1.976  33.469   2.309
45295W        W16966  10.638  16.998  10.212
45296W        W16967  15.473  17.216  12.490
45297W        W16968   9.272   6.960  10.471
45298W        W16969  34.976   9.255   0.637
45299W        W16970  39.721   4.867  10.685
45300W        W16971  42.426  27.690  13.492
45301W        W16972  39.051  39.660   0.468
45302W        W16973  15.125   6.882  14.066
45303W        W16974  43.515  39.909   0.104
45304W        W16975   3.160  29.605  13.063
45305W        W16976  24.430  42.360   0.032
45306W        W16977  12.050  20.821   2.302
45307W        W16978  29.126   7.711   2.714
45308W        W16979   4.958  38.603  10.654
45309W        W16980  38.344  29.074  14.700
45310W        W16981   3.368   4.454  12.040
45311W        W16982  40.422  36.135  10.766
45312W        W16983  32.797  40.517   0.920
45313W        W16984  29.669   7.252  10.756
45314W        W16985  11.068  31.404  11.509
45315W        W16986  11.283  43.631   2.728
45316W        W16987   1.526  23.212   3.251
45317W        W16988  30.451   8.357  13.939
45318W        W16989  38.032  40.809   2.677
45319W        W16990  42.528  16.156  12.164
45320W        W16991  28.433  15.811  14.626
45321W        W16992  17.578  12.261  12.434
45322W        W16993  42.516   8.892   3.743
45323W        W16994   5.824  27.002  10.430
45324W        W16995  41.745  33.129   2.884
45325W        W16996  34.091   4.580  14.326
45326W        W16997  20.163  24.180   1.889
45327W        W16998  22.241   8.196   2.317
45328W        W16999  41.360   4.265  14.760
45329W        W17000  25.463  13.528  12.819
45330W        W17001   0.816  21.749   4.964
45331W        W17002  36.827  30.843   0.717
45332W        W17003  18.134  20.720   0.564
45333W        W17004  25.943  34.999   3.771
45334W        W17005  20.442  37.536  11.217
45335W        W17006   2.142   4.297   2.706
45336W        W17007  21.900  44.447  11.172
45337W        W17008  39.894  36.557   4.777
45338W        W17009  37.138   7.883   4.189
45339W        W17010   3.884  30.868   5.117
45340W        W17011  40.573  15.507   5.150
45341W        W17012  40.754  10.524  13.823
45342W        W17013  24.981  26.983  11.728
45343W        W17014   4.613  18.372   4.104
45344W        W17015   3.797  12.365   1.934
45345W        W17016  38.646  40.996  10.316
45346W        W17017  40.182  35.026   3.202
45347W        W17018  32.300  36.989   3.692
45348W        W17019  10.749  29.604  11.658
45349W        W17020  12.595  25.300  10.973
45350W        W17021  35.415  22.368   1.192
45351W        W17022  37.901  20.235   1.780
45352W        W17023  15.855  39.238  12.536
45353W        W17024   9.909  37.543  13.316
45354W        W17025  25.883  13.765   4.456
45355W        W17026  13.319  24.686  12.811
45356W        W17027   8.472   1.887   0.461
45357W        W17028  34.503  37.647  14.697
45358W        W17029  17.022  23.070   2.729
45359W        W17030  23.176  20.869  14.806
45360W        W17031  39.650  39.594   2.291
45361W        W17032  18.057  15.584  12.497
45362W        W17033  11.169  36.998  13.514
45363W        W17034  41.400  11.070  13.011
45364W        W17035  20.691   7.145  11.578
45365W        W17036  12.512  43.981  12.677
45366W        W17037  40.710  38.023  10.597
45367W        W17038  37.430  31.271  12.440
45368W        W17039  28.763  33.301   0.209
45369W        W17040  27.400  36.451  13.408
45370W        W17041  17.873  11.827  13.284
45371W        W17042  37.887  19.106   1.159
45372W        W17043  28.121  44.332   1.592
45373W        W17044  36.557   3.794   4.643
45374W        W17045  29.619  15.857   4.131
45375W        W17046  44.015  21.751   4.220
45376W        W17047   4.378  44.477   2.391
45377W        W17048  12.164  14.903  14.798
45378W        W17049  17.451  12.249   4.155
45379W        W17050  34.367   3.685  13.264
45380W        W17051  32.109  12.199   2.911
45381W        W17052  21.072  35.965  10.704
45382W        W17053  19.097  20.805   0.096
45383W        W17054  18.538  21.993   2.403
45384W        W17055  21.689  35.107  11.997
45385W        W17056   3.227  20.410   0.842
45386W        W17057  10.728   5.165   3.305
45387W        W17058   7.770  44.475   0.497
45388W        W17059  37.960  36.593  11.628
45389W        W17060   0.389  25.150   0.009
45390W        W17061  22.372  31.812  14.314
45391W        W17062  37.410   5.551  13.276
45392W        W17063  23.790  30.138  14.881
45393W        W17064  27.424  19.586   0.789
45394W        W17065  32.600  19.079  11.150
45395W        W17066   1.667   8.683   4.177
45396W        W17067  31.660  42.118  12.958
45397W        W17068  35.528  17.721  12.347
45398W        W17069   9.315  17.934  11.544
45399W        W17070  40.506   5.185   3.716
45400W        W17071   8.660  26.774  12.018
45401W        W17072  10.660   7.707   0.461
45402W        W17073   5.976  38.906  11.105
45403W        W17074  19.083   6.000  12.076
45404W        W17075  16.505  20.248  12.319
45405W        W17076  37.556  30.948  12.037
45406W        W17077  31.444  13.671   4.718
45407W        W17078  27.216  42.334   3.533
45408W        W17079   0.229   1.976  13.360
45409W        W17080  37.376  26.967  13.003
45410W        W17081   0.508  29.164  13.947
45411W        W17082  40.572  28.674  13.478
45412W        W17083  21.014  24.076  13.774
45413W        W17084  27.134   1.009   0.921
45414W        W17085  36.466  34.636   4.607
45415W        W17086  24.321  16.388  11.126
45416W        W17087  27.161  21.716   0.450
45417W        W17088  12.656   9.641  13.444
45418W        W17089   7.028  32.125   1.818
45419W        W17090  19.582   0.359  12.864
45420W        W17091  33.649  17.514  14.458
45421W        W17092  37.091  41.908  12.105
45422W        W17093  36.139  31.446  13.381
45423W        W17094   2.899  44.827   2.732
45424W        W17095  22.747  40.252  10.319
45425W        W17096  38.413  16.197  14.131
45426W        W17097   8.467  38.332  13.413
45427W        W17098  10.611  18.832  14.971
45428W        W17099   5.267  40.493  14.228
45429W        W17100  42.810  27.341  11.472
45430W        W17101  10.852  13.046  11.743
45431W        W17102   4.669  43.307   2.828
45432W        W17103   9.493  38.367  11.491
45433W        W17104  32.802  13.761   2.904
45434W        W17105   6.721  37.908   0.703
45435W        W17106  32.808  36.881   3.642
45436W        W17107  32.623  18.271   2.364
45437W        W17108  36.062  20.469   3.626
45438W        W17109  29.275  16.690   3.575
45439W        W17110   3.273   2.728   4.148
45440W        W17111  38.542  34.034   1.328
45441W        W17112  43.486  17.112  12.478
45442W        W17113   0.533  39.460   2.190
45443W        W17114   1.374   0.831  14.478
45444W        W17115   6.026  40.091  13.124
45445W        W17116   9.120  19.071  10.450
45446W        W17117  29.240  24.968  11.015
45447W        W17118  25.513  16.599   2.853
45448W        W17119  29.102   6.974  12.180
45449W        W17120  32.669  36.447  11.941
45450W        W17121  19.113  19.177   4.710
45451W        W17122   5.521  22.518   3.754
45452W        W17123   7.896  28.880   1.671
45453W        W17124  29.794  12.091   5.053
45454W        W17125  37.588  39.811  11.474
45455W        W17126  36.302  33.354   2.266
45456W        W17127  10.786   2.888   3.708
45457W        W17128  13.445  19.158   0.970
45458W        W17129   6.390  24.002   0.476
45459W        W17130  19.687  12.250   2.555
45460W        W17131   7.783  38.603   4.532
45461W        W17132  18.854   8.758   4.489
45462W        W17133  32.666   9.258   3.718
45463W        W17134   8.444  11.755   0.149
45464W        W17135   9.312  37.074  13.281
45465W        W17136  14.141   4.848   0.872
45466W        W17137  23.978  37.543  10.794
45467W        W17138  13.092  11.866  12.069
45468W        W17139  18.088  42.844   2.658
45469W        W17140  10.090   3.400   4.118
45470W        W17141  13.078  43.075  10.865
45471W        W17142  43.214   4.718   0.829
45472W        W17143  44.442  24.350  10.192
45473W        W17144   9.521  42.985   3.703
45474W        W17145  20.232  11.084   2.815
45475W        W17146   1.970  19.703   1.691
45476W        W17147   7.922  15.820  11.231
45477W        W17148  20.673  27.039   1.393
45478W        W17149  27.004  20.299   0.089
45479W        W17150  18.899  23.476   5.151
45480W        W17151  26.628   2.693  14.139
45481W        W17152   7.216   7.213   0.375
45482W        W17153  11.701  28.202   2.195
45483W        W17154  44.768  40.561  12.451
45484W        W17155   0.992  32.674  14.276
45485W        W17156  44.301  41.361   4.509
45486W        W17157  34.531  11.510  14.366
45487W        W17158  13.602  12.838   1.420
45488W        W17159   2.686  33.414  10.844
45489W        W17160   8.865  27.388   0.314
45490W        W17161  29.417  10.136  13.934
45491W        W17162   7.755  28.123   3.364
45492W        W17163  43.722  19.813  14.083
45493W        W17164   8.251  36.380   3.731
45494W        W17165  33.583   7.319  10.750
45495W        W17166  30.107  15.059   2.105
45496W        W17167  39.602  19.263  13.821
45497W        W17168  30.366   7.277  14.091
45498W        W17169  23.986  17.240   0.840
45499W        W17170  26.454  44.264  11.708
45500W        W17171   5.606  33.881   2.193
45501W        W17172  42.843  12.346  11.501
45502W        W17173   2.439  33.126  11.531
45503W        W17174  14.842  28.046   3.649
45504W        W17175   7.736  13.835  11.090
45505W        W17176  24.171  43.739   0.212
45506W        W17177   5.516  24.135   2.675
45507W        W17178  40.140   4.295  14.332
45508W        W17179  43.065  21.918   4.454
45509W        W17180  11.765  16.121  13.916
45510W        W17181  43.275   9.798  13.082
45511W        W17182   1.828  35.007  10.611
45512W        W17183  25.751  20.050  14.764
45513W        W17184  19.875  33.218  11.812
45514W        W17185  25.907  25.958  10.733
45515W        W17186  31.660   5.499  14.130
45516W        W17187   2.494  42.218  11.165
45517W        W17188  33.435   0.127   0.454
45518W        W17189  33.631  21.161   0.444
45519W        W17190  29.109   7.358  14.919
45520W        W17191  19.085  43.470   0.368
45521W        W17192   2.439  15.169  13.435
45522W        W17193  36.550  16.799   2.635
45523W        W17194  29.118  29.245  14.372
45524W        W17195  10.809  38.909   4.808
45525W        W17196  37.403  12.646  13.268
45526W        W17197  44.781  14.741   2.443
45527W        W17198  44.464  28.490   3.747
45528W        W17199  17.478  30.156   2.255
45529W        W17200  35.515   0.679   0.865
45530W        W17201  39.019  30.782  10.679
45531W        W17202  44.981   8.843   3.429
45532W        W17203  29.950  26.636  11.583
45533W        W17204  22.805  32.419   0.226
45534W        W17205   0.423  16.379  12.827
45535W        W17206  43.426   9.423  12.767
45536W        W17207  18.788  10.957  14.747
45537W        W17208  42.962  35.097   4.560
45538W        W17209  21.728  37.303   0.072
45539W        W17210  23.239   6.327  11.900
45540W        W17211  17.076  31.861  13.456
45541W        W17212  38.355  28.145   3.377
45542W        W17213  33.042  37.318   5.008
45543W        W17214  15.831  23.195  12.356
45544W        W17215  34.582   7.180   1.867
45545W        W17216  42.318  21.406  11.490
45546W        W17217  12.682  28.841   3.781
45547W        W17218  35.741  41.284   4.014
45548W        W17219  39.362  24.552  12.469
45549W        W17220  26.658  30.781   0.412
45550W        W17221  43.933  14.817   2.930
45551W        W17222   1.613  36.956   1.410
45552W        W17223  28.629  10.718   1.375
45553W        W17224   6.074   4.192  13.479
45554W        W17225  25.234  36.947   1.736
45555W        W17226  22.751   2.444  14.931
45556W        W17227  25.789   8.321   1.698
45557W        W17228  10.694  15.656  13.139
45558W        W17229  10.086  14.800  12.898
45559W        W17230  32.883  19.343  10.818
45560W        W17231  20.954  33.970   3.610
45561W        W17232  19.995  26.298  14.398
45562W        W17233  28.395  24.963  12.932
45563W        W17234  25.112  19.812  13.960
45564W        W17235  38.600  33.386  13.897
45565W        W17236   5.318  22.262   1.659
45566W        W17237  32.379   5.916   3.311
45567W        W17238   7.134  22.310  12.634
45568W        W17239  35.675  14.911  14.829
45569W        W17240  31.024  12.677   3.547
45570W        W17241   1.218  30.066  14.477
45571W        W17242  17.131   6.657  13.297
45572W        W17243  37.855   2.164  12.054
45573W        W17244  32.994  39.397  10.846
45574W        W17245  17.322   6.428   3.814
45575W        W17246  29.388   6.895   0.784
45576W        W17247  37.936  20.619  11.357
45577W        W17248   8.232  30.127   3.622
45578W        W17249  22.503  11.751  14.544
45579W        W17250  43.878   6.898   0.219
45580W        W17251  32.987  27.438   0.410
45581W        W17252   3.543  14.408  10.754
45582W        W17253  11.706  14.068   3.248
45583W        W17254  15.770   4.823   9.762
45584W        W17255  14.666  12.802   1.940
45585W        W17256  23.266  10.770  11.563
45586W        W17257  31.565  27.057   0.915
45587W        W17258   4.343  14.709  13.963
45588W        W17259  38.815  14.456  13.385
45589W        W17260   2.283  17.240   2.778
45590W        W17261  13.675   9.702  11.225
45591W        W17262  42.483  38.002   1.228
45592W        W17263  15.217  37.351   4.134
45593W        W17264  13.675  34.396   4.152
45594W        W17265  18.688   4.381   2.429
45595W        W17266  43.487  19.383   3.802
45596W        W17267  17.269   4.370  13.248
45597W        W17268   8.357  38.766  10.959
45598W        W17269  44.016  42.118   3.704
45599W        W17270  17.811  11.884   4.138
45600W        W17271  17.776  31.946  10.511
45601W        W17272   8.918  15.235   1.942
45602W        W17273  19.700  43.261   4.073
45603W        W17274  15.287  39.532  11.860
45604W        W17275  15.674  38.111  13.859
45605W        W17276  21.001   7.820   3.328
45606W        W17277  12.971   1.450  14.266
45607W        W17278  15.102  43.679  11.234
45608W        W17279  21.518  23.916   3.669
45609W        W17280   3.293  16.875  11.513
45610W        W17281  35.568  43.031   0.016
45611W        W17282  37.668  22.082   2.855
45612W        W17283  43.066  21.193  11.218
45613W        W17284   9.333  14.397  14.444
45614W        W17285   9.980  22.007   0.842
45615W        W17286  35.977  43.186   0.856
45616W        W17287  23.284  39.039  13.845
45617W        W17288   5.535  17.197  13.924
45618W        W17289  42.317  23.776   1.705
45619W        W17290  13.841  39.960   1.185
45620W        W17291   4.383  11.146  11.960
45621W        W17292  31.004  27.496  12.085
45622W        W17293   2.978  31.929   2.842
45623W        W17294   0.948  21.043   0.802
45624W        W17295  12.370  21.660   4.018
45625W        W17296  17.282  32.645   0.778
45626W        W17297  23.187   5.447   5.009
45627W        W17298   2.319   5.773   3.348
45628W        W17299  13.306   6.052   5.389
45629W        W17300  42.617  40.859   1.018
45630W        W17301  35.130  32.969  11.159
45631W        W17302  30.111  14.771  14.790
45632W        W17303  13.836   8.667  13.594
45633W        W17304  37.903  18.551  14.990
45634W        W17305   5.815  26.227  11.747
45635W        W17306   3.929  24.396   3.106
45636W        W17307  17.951  24.036  13.062
45637W        W17308   1.511   2.797  10.630
45638W        W17309  38.443  41.025  10.796
45639W        W17310  42.955  35.600   3.737
45640W        W17311   5.737  28.050  11.678
45641W        W17312   1.418   1.729  11.463
45642W        W17313   6.729  35.276   1.721
45643W        W17314  24.978  15.841  10.255
45644W        W17315  29.637   0.011  12.485
45645W        W17316  19.148  31.349   2.126
45646W        W17317  18.154   7.680   0.491
45647W        W17318  17.083  28.669   1.292
45648W        W17319  19.136  29.397  12.066
45649W        W17320  14.357   0.953   0.870
45650W        W17321  38.103  21.657  13.448
45651W        W17322  35.925  32.411   4.623
45652W        W17323  33.026  42.748  11.624
45653W        W17324  28.481   1.040  10.673
45654W        W17325  20.640  41.547  14.486
45655W        W17326  43.423  38.519  14.453
45656W        W17327  40.742  16.423   3.373
45657W        W17328   9.856  29.859  13.393
45658W        W17329  10.120  23.760   4.923
45659W        W17330  35.862   7.702  14.400
45660W        W17331  40.921  30.100  10.994
45661W        W17332  15.902   4.924   0.062
45662W        W17333   8.102  35.283  10.645
45663W        W17334  10.779  25.998  10.486
45664W        W17335   4.409   0.766  11.663
45665W        W17336  13.279  40.874  13.078
45666W        W17337  37.106   4.742  14.109
45667W        W17338  20.549  13.540   4.835
45668W        W17339  27.914  11.695  11.670
45669W        W17340  27.932  24.527  14.925
45670W        W17341  20.976  23.338   4.212
45671W        W17342   3.345  24.144   3.731
45672W        W17343  32.024  44.363  10.388
45673W        W17344  24.220   5.261   0.891
45674W        W17345  43.420  28.832  12.583
45675W        W17346  28.491  36.987   1.463
45676W        W17347  21.142  43.449  14.962
45677W        W17348  15.961  43.064   5.103
45678W        W17349   6.675  31.069  10.640
45679W        W17350  34.072  16.312  10.606
45680W        W17351   5.201  31.142   4.225
45681W        W17352   6.844  36.090  10.888
45682W        W17353   1.529  14.323  14.089
45683W        W17354  29.020  33.831  14.968
45684W        W17355  21.754   5.304   4.519
45685W        W17356   8.830  23.955  13.922
45686W        W17357  33.070  41.867  14.538
45687W        W17358   7.154  25.014   1.364
45688W        W17359   4.385  23.864  14.776
45689W        W17360  27.914  12.996   2.964
45690W        W17361  27.336  16.733   0.463
45691W        W17362  16.192   3.971   4.563
45692W        W17363  43.816  44.712  12.699
45693W        W17364  29.981  22.131   4.247
45694W        W17365   1.218   9.134  11.182
45695W        W17366  34.039  26.515   4.670
45696W        W17367  29.505  31.594   3.003
45697W        W17368   5.159  40.459  14.754
45698W        W17369  32.985   1.496   4.706
45699W        W17370  36.560  32.881   4.134
45700W        W17371   9.265  34.845   1.633
45701W        W17372  34.603  44.713  13.649
45702W        W17373  31.527  22.826  11.610
45703W        W17374  20.116  35.628   0.695
45704W        W17375  36.698  12.553   1.931
45705W        W17376  24.100   2.849   2.052
45706W        W17377  14.683  23.452   4.801
45707W        W17378  32.642   1.737  10.637
45708W        W17379  32.322   9.632   3.741
45709W        W17380  28.236  14.232  14.887
45710W        W17381   0.334  43.044  11.503
45711W        W17382  43.020  31.613  13.868
45712W        W17383   6.272  18.240   2.327
45713W        W17384  32.420   8.847  13.130
45714W        W17385   4.444   6.291  14.055
45715W        W17386  16.780  28.159   3.725
45716W        W17387  24.072  26.083  11.198
45717W        W17388  10.586  15.808   1.410
45718W        W17389  30.031   2.319   2.259
45719W        W17390  24.739  28.636  11.553
45720W        W17391   0.986  29.875  14.919
45721W        W17392  17.793  12.610  14.959
45722W        W17393  31.133  12.726   4.542
45723W        W17394  37.395  15.796   1.659
45724W        W17395   6.458  24.021  11.293
45725W        W17396   7.860  21.110  14.851
45726W        W17397  22.007   5.799  14.445
45727W        W17398  33.552  12.625   0.270
45728W        W17399  27.568  15.139   1.156
45729W        W17400  10.871  14.315   1.486
45730W        W17401  16.014  25.282  12.442
45731W        W17402   4.671   3.378  12.825
45732W        W17403  42.037  43.513   0.367
45733W        W17404  21.703  12.277   1.852
45734W        W17405  30.153  22.989   3.633
45735W        W17406  21.725  24.915  13.976
45736W        W17407  27.969  19.613   4.197
45737W        W17408  29.533  32.634   3.279
45738W        W17409   2.729  24.654   3.440
45739W        W17410  20.632  23.875  14.347
45740W        W17411  42.967  41.935  14.795
45741W        W17412   8.361  28.013   1.207
45742W        W17413  10.328  33.006  13.521
45743W        W17414  28.030  24.939   9.941
45744W        W17415  13.901  21.200  14.554
45745W        W17416  44.654  38.862   2.077
45746W        W17417   0.547  40.028  11.460
45747W        W17418   2.334  18.363   3.358
45748W        W17419   0.858   7.738   1.278
45749W        W17420  10.639  30.477   1.674
45750W        W17421  10.779  15.114   3.369
45751W        W17422  19.125  37.752   2.844
45752W        W17423   8.568  29.996  13.145
45753W        W17424  34.233  14.023   0.546
45754W        W17425  29.855  30.015   4.196
45755W        W17426   9.812  14.270   3.849
45756W        W17427  20.073  29.376   1.355
45757W        W17428  24.600  35.860  13.808
45758W        W17429  13.305  44.048  13.046
45759W        W17430  25.003   4.406   4.323
45760W        W17431  41.388  22.580   4.940
45761W        W17432  22.831  44.241   0.409
45762W        W17433   8.890  13.197   4.763
45763W        W17434  27.065  14.636  13.218
45764W        W17435  10.701  36.407   4.389
45765W        W17436   1.350  26.038   0.365
45766W        W17437  33.131  12.681   1.223
45767W        W17438  36.397  35.501  14.294
45768W        W17439  19.861  29.070  12.940
45769W        W17440  41.112   3.456   0.247
45770W        W17441   4.013  34.477   1.606
45771W        W17442  20.530  36.242   3.407
45772W        W17443  15.141  37.960  13.752
45773W        W17444  14.846  39.229  10.685
45774W        W17445  27.198  34.066   0.458
45775W        W17446   6.258   5.735  13.706
45776W        W17447   2.560  20.575   4.446
45777W        W17448  11.120   5.896  12.909
45778W        W17449   0.433   3.065   1.255
45779W        W17450  12.353  21.840   4.910
45780W        W17451  36.009  39.903   5.658
45781W        W17452  11.180  29.352   3.366
45782W        W17453  41.425  29.109  11.638
45783W        W17454   1.355  35.804   2.106
45784W        W17455  14.196   2.735   2.732
45785W        W17456  34.754  42.605  12.833
45786W        W17457  15.252  19.286  12.545
45787W        W17458  23.986   1.882  11.597
45788W        W17459  13.317   7.380  11.230
45789W        W17460  23.488   5.439   3.181
45790W        W17461  21.987   5.085   0.932
45791W        W17462  10.243  15.037   2.739
45792W        W17463  10.282   6.299  11.073
45793W        W17464  22.129   9.100  12.398
45794W        W17465  10.809  26.588   0.743
45795W        W17466  24.512  13.027  13.090
45796W        W17467  13.949   0.155  12.519
45797W        W17468   1.715  18.212   0.008
45798W        W17469   2.961   9.429   2.727
45799W        W17470  40.611  18.726  12.462
45800W        W17471   3.048  44.372  10.974
45801W        W17472  31.909  25.396   4.586
45802W        W17473  22.683  39.708   0.456
45803W        W17474  12.570  41.303   0.388
45804W        W17475  38.145  43.952  14.935
45805W        W17476  26.785  15.049   0.889
45806W        W17477  43.398  17.616  12.453
45807W        W17478  44.886   7.263   1.175
45808W        W17479  16.528  28.401  12.898
45809W        W17480  18.773   5.383  14.309
45810W        W17481  22.638   2.007   2.762
45811W        W17482  19.069  21.309   0.041
45812W        W17483  12.123  12.071  12.297
45813W        W17484  35.051   8.755   0.702
45814W        W17485  16.366  44.436   3.235
45815W        W17486   4.432  31.832   3.286
45816W        W17487   3.233  10.766   3.260
45817W        W17488  17.396  25.252   4.542
45818W        W17489  28.781  39.256  11.045
45819W        W17490  15.996   3.219  12.493
45820W        W17491   7.265  44.221  13.037
45821W        W17492  10.729  42.913   1.816
45822W        W17493  28.071  43.941  13.284
45823W        W17494  31.852  16.222   2.400
45824W        W17495  21.453  23.665  13.500
45825W        W17496  30.653  11.410  11.117
45826W        W17497   1.058  12.207   1.397
45827W        W17498  28.178  42.414   3.187
45828W        W17499  40.082  19.403   3.773
45829W        W17500  43.101  41.958   1.793
45830W        W17501  39.257  15.342   0.458
45831W        W17502   4.967  28.183  10.486
45832W        W17503  43.548  29.541  14.780
45833W        W17504   8.896  20.717  14.305
45834W        W17505  41.436  36.104   2.265
45835W        W17506  44.175  30.636  13.918
45836W        W17507  27.469   4.839  11.639
45837W        W17508  19.553  23.256   3.561
45838W        W17509  27.167  28.509  14.901
45839W        W17510  28.789  25.256  13.068
45840W        W17511   5.862  33.379   0.288
45841W        W17512  21.492  22.725   0.685
45842W        W17513  43.968  21.144   2.911
45843W        W17514  22.009   6.565   3.126
45844W        W17515  27.895  15.639  10.557
45845W        W17516   2.463   4.478  11.674
45846W        W17517  10.902   2.876  14.420
45847W        W17518  12.387  38.979   1.209
45848W        W17519  32.484  18.943  12.437
45849W        W17520  33.377  36.620  13.897
45850W        W17521  25.228  44.932  12.978
45851W        W17522  20.504  34.502  10.712
45852W        W17523  28.734  44.397   2.267
45853W        W17524  19.513   6.931   3.687
45854W        W17525   4.861  31.542   4.195
45855W        W17526  39.287  14.766  10.983
45856W        W17527  35.415  38.696   5.218
45857W        W17528  23.775  29.580  10.610
45858W        W17529  43.871  37.777   4.182
45859W        W17530  37.075  36.512  11.459
45860W        W17531  22.045  41.958  11.074
45861W        W17532  13.212  22.099   4.387
45862W        W17533   9.725  11.611  14.819
45863W        W17534  28.440  31.273  13.383
45864W        W17535  38.430  21.047  12.439
45865W        W17536  17.172   3.018  13.032
45866W        W17537  21.970  15.684  11.102
45867W        W17538  34.835  43.472  13.058
45868W        W17539  33.811  32.882  14.216
45869W        W17540  24.073  18.447  10.978
45870W        W17541  25.681  41.858   2.636
45871W        W17542   1.132   8.200  12.133
45872W        W17543  32.860  40.928   2.335
45873W        W17544  27.523  36.834   1.816
45874W        W17545  27.867  12.743   2.059
45875W        W17546   8.778  30.637   0.479
45876W        W17547  24.969  32.631   2.246
45877W        W17548  28.722  13.805   4.380
45878W        W17549  16.825  13.328  10.719
45879W        W17550  18.602  19.341   4.593
45880W        W17551  20.270  32.828   4.507
45881W        W17552  41.628  30.133  14.042
45882W        W17553  11.935  43.004   2.409
45883W        W17554  43.196  11.245   1.800
45884W        W17555  21.267   4.473  13.526
45885W        W17556  16.088  23.215   2.844
45886W        W17557   3.811  32.337   3.000
45887W        W17558   5.058  13.555  10.997
45888W        W17559  40.080  40.309   3.256
45889W        W17560   9.087  38.983   4.817
45890W        W17561  32.356  24.508  14.270
45891W        W17562  40.430  34.366  12.438
45892W        W17563  38.055  35.182   1.460
45893W        W17564  20.260  26.183   2.699
45894W        W17565  29.526   6.304  14.836
45895W        W17566  33.479  34.009  10.224
45896W        W17567  43.596  29.632   4.825
45897W        W17568  17.056  23.967   1.845
45898W        W17569  15.337  42.363   0.884
45899W        W17570  15.940   2.881   2.015
45900W        W17571  21.637  36.187  11.561
45901W        W17572  17.467  14.247  10.118
45902W        W17573  36.561  32.171   3.095
45903W        W17574  37.398  15.663  11.224
45904W        W17575  36.074  33.552   1.771
45905W        W17576  31.846  12.819  14.337
45906W        W17577  12.590  23.092  12.336
45907W        W17578   3.539  30.520  12.511
45908W        W17579  35.558  29.025  11.845
45909W        W17580  27.293   3.951  13.961
45910W        W17581  25.835  12.255  14.752
45911W        W17582  14.317  28.085   4.586
45912W        W17583  17.989  12.638   2.581
45913W        W17584  44.001  22.738  11.562
45914W        W17585  40.123  19.857   1.184
45915W        W17586  22.243  23.063   4.059
45916W        W17587  13.349  29.778   0.317
45917W        W17588  31.103  21.059   1.995
45918W        W17589  18.456  36.924   0.388
45919W        W17590  25.222   6.388   1.737
45920W        W17591  25.640  26.122  14.074
45921W        W17592  35.422  25.773   3.786
45922W        W17593  18.962  25.488  14.337
45923W        W17594   3.565  42.522  14.228
45924W        W17595  30.506  44.256   0.845
45925W        W17596  27.319  23.963   0.946
45926W        W17597  15.766  39.992   0.395
45927W        W17598   5.576  36.879   4.241
45928W        W17599  11.827  25.046   4.565
45929W        W17600   7.194  36.153  10.514
45930W        W17601  17.823   4.712   2.837
45931W        W17602  18.502  14.175   0.955
45932W        W17603   0.758  17.276  10.533
45933W        W17604  19.311  34.860   3.527
45934W        W17605   6.307  27.233   4.155
45935W        W17606   8.723  18.015   3.804
45936W        W17607  26.758  29.039   3.347
45937W        W17608   3.713  34.989  11.223
45938W        W17609  44.792  39.922   0.880
45939W        W17610   4.397  26.956   0.785
45940W        W17611  32.466  29.091  11.653
45941W        W17612   9.916  14.291   0.004
45942W        W17613  12.330  20.751   1.226
45943W        W17614  32.049  35.684  12.130
45944W        W17615  38.321   4.272   1.382
45945W        W17616   3.710  35.866  13.571
45946W        W17617  24.658  11.599   3.779
45947W        W17618  25.586   7.830   2.845
45948W        W17619  11.325  42.487   1.223
45949W        W17620  44.562  31.679   3.076
45950W        W17621  41.862  43.320  10.594
45951W        W17622  29.906   0.795   4.077
45952W        W17623  42.933  33.427  14.569
45953W        W17624  26.496   3.255   0.418
45954W        W17625  13.888  33.116   4.319
45955W        W17626  40.029  39.582   1.145
45956W        W17627   6.660  12.080  13.461
45957W        W17628   3.398  16.382  11.576
45958W        W17629  27.572  43.959  13.433
45959W        W17630   7.216  22.665  11.068
45960W        W17631  34.550  19.774   3.263
45961W        W17632  40.721  19.025   4.619
45962W        W17633  18.540   0.240   4.732
45963W        W17634  23.570  30.923   2.307
45964W        W17635   6.824  12.739  11.123
45965W        W17636   9.366  31.309  14.463
45966W        W17637  14.223  22.348   4.097
45967W        W17638  34.040  10.299   2.842
45968W        W17639   4.025  43.646   1.311
45969W        W17640  21.167  39.728  10.928
45970W        W17641  33.575  24.950   3.414
45971W        W17642  12.598  23.630  13.037
45972W        W17643   0.737  27.959   1.652
45973W        W17644   6.892  22.341   4.716
45974W        W17645  27.585   8.382  11.743
45975W        W17646  26.024  10.542   4.495
45976W        W17647   2.230   8.350  13.894
45977W        W17648  21.985   6.109  12.864
45978W        W17649  17.103  32.323  11.215
45979W        W17650  11.248  19.753  13.127
45980W        W17651  15.787  38.938   3.180
45981W        W17652  43.722   2.165   0.400
45982W        W17653   7.368  35.071   2.207
45983W        W17654  32.092  28.671   0.836
45984W        W17655   8.885   2.480  11.600
45985W        W17656  17.487  27.452   1.365
45986W        W17657  39.107  19.175  13.883
45987W        W17658   6.160   4.765   0.775
45988W        W17659  28.829  37.288   1.149
45989W        W17660  17.208  21.748   2.390
45990W        W17661  23.651   1.936   2.166
45991W        W17662   8.294   0.482   3.147
45992W        W17663   1.458   1.500   2.301
45993W        W17664  38.675   0.824  12.683
45994W        W17665  16.601   3.894  11.124
45995W        W17666  12.036  22.622   4.198
45996W        W17667  32.881   1.079  13.003
45997W        W17668  30.904  11.002  12.958
45998W        W17669  13.763  22.578   3.339
45999W        W17670   4.429  42.228   0.270
46000W        W17671   0.264   6.323  11.547
46001W        W17672  44.718  40.358   0.039
46002W        W17673  37.102  31.033   3.718
46003W        W17674  22.593   2.916   2.447
46004W        W17675  22.341  21.668   3.648
46005W        W17676  44.914  33.758  13.163
46006W        W17677  44.068  31.083  12.662
46007W        W17678   0.026   2.255   1.342
46008W        W17679  16.018  30.531   2.788
46009W        W17680  19.725  10.173   1.244
46010W        W17681   3.984   3.397  10.279
46011W        W17682  26.011  31.426   0.765
46012W        W17683   0.463  41.076  14.842
46013W        W17684  28.584  31.962   2.611
46014W        W17685  35.556  37.801  10.681
46015W        W17686  17.624  22.978   3.325
46016W        W17687  14.019  38.532  12.077
46017W        W17688  34.497  31.487  14.269
46018W        W17689  26.205   6.324   1.355
46019W        W17690  21.482  11.784  14.723
46020W        W17691  27.179   5.133   2.944
46021W        W17692  27.572   3.715   1.390
46022W        W17693  35.596  24.006  14.957
46023W        W17694  42.086   0.272  11.287
46024W        W17695  17.715  32.251   2.909
46025W        W17696  23.183   3.856  10.959
46026W        W17697   2.291  27.933   1.329
46027W        W17698  26.451  10.821  11.898
46028W        W17699  42.706  25.562  11.194
46029W        W17700  31.720  21.303   1.419
46030W        W17701  43.381  37.494  13.226
46031W        W17702  26.485  16.108  11.856
46032W        W17703  36.818  24.109   1.856
46033W        W17704  27.021  13.888  10.908
46034W        W17705  32.902   1.946  13.944
46035W        W17706  33.220  23.148   2.901
46036W        W17707  34.783  39.824  11.097
46037W        W17708   2.413  23.888  11.068
46038W        W17709  10.180   0.786  14.943
46039W        W17710  23.867  18.022  12.969
46040W        W17711  14.713   8.881   3.666
46041W        W17712  26.666   0.688   1.744
46042W        W17713  24.244  20.820  14.945
46043W        W17714  12.108  40.066  11.777
46044W        W17715  15.849   1.828   0.377
46045W        W17716  43.909  12.212   1.527
46046W        W17717  41.273  16.303   4.292
46047W        W17718  27.906  36.225   2.733
46048W        W17719  13.803  24.894   4.585
46049W        W17720  15.244  35.989  14.862
46050W        W17721   1.397  13.347  13.843
46051W        W17722  28.444  36.172  10.508
46052W        W17723  31.379  12.464  13.057
46053W        W17724  31.857  24.152   4.309
46054W        W17725  38.863  38.974   4.279
46055W        W17726  18.780  32.730  14.465
46056W        W17727  31.440  33.505   2.293
46057W        W17728  44.489  36.877   2.635
46058W        W17729   6.141   9.233   0.257
46059W        W17730  38.017  17.244   2.681
46060W        W17731  32.954   4.282  14.810
46061W        W17732   5.256  39.503  13.248
46062W        W17733   8.376  19.848  12.782
46063W        W17734  34.657  43.920  11.447
46064W        W17735  16.721  18.216   3.133
46065W        W17736  43.427  20.785  13.214
46066W        W17737  44.280  39.566   0.822
46067W        W17738  43.146  44.200   3.764
46068W        W17739  39.227  16.222  12.152
46069W        W17740   0.857  39.588   1.786
46070W        W17741  41.496   5.392   3.897
46071W        W17742  42.533   1.776  13.445
46072W        W17743  22.992  22.004  13.743
46073W        W17744  35.601  37.060  13.674
46074W        W17745  13.389  12.721  12.580
46075W        W17746  30.435   2.493   1.062
46076W        W17747  41.227  22.969   5.268
46077W        W17748  43.738  24.272  14.268
46078W        W17749  17.731   6.775   0.250
46079W        W17750  13.721  35.672  11.842
46080W        W17751  23.458   3.892  14.472
46081W        W17752  36.109  33.053  10.953
46082W        W17753   7.248  26.059   3.234
46083W        W17754  17.205  11.875   3.385
46084W        W17755  18.809  22.141  11.296
46085W        W17756  21.176  30.269  10.628
46086W        W17757  38.056  42.982   0.731
46087W        W17758  16.780   9.400  13.831
46088W        W17759  27.942  22.594   1.317
46089W        W17760  10.698  17.217   0.292
46090W        W17761   5.147  29.888  11.982
46091W        W17762  13.261   1.516   2.913
46092W        W17763   3.244   9.761   4.419
46093W        W17764  13.264  23.101  14.517
46094W        W17765  10.126  44.444   1.343
46095W        W17766  16.586  21.550  10.608
46096W        W17767  35.387   2.242   3.363
46097W        W17768   3.314  20.074   5.364
46098W        W17769   5.418  13.241   2.302
46099W        W17770  37.045  16.977  12.958
46100W        W17771   7.382   2.807  14.821
46101W        W17772  31.918  13.670   1.715
46102W        W17773  36.380  41.828  12.684
46103W        W17774  44.116  22.435   3.096
46104W        W17775   7.703  32.274  12.911
46105W        W17776  15.101   3.980   4.284
46106W        W17777   5.411  10.151  13.257
46107W        W17778   9.166  19.589  11.722
46108W        W17779  42.307  11.239   1.401
46109W        W17780  24.904  23.898   1.318
46110W        W17781  24.670  38.403   2.498
46111W        W17782   5.744   6.924  13.429
46112W        W17783  38.294   4.588   3.805
46113W        W17784  13.320  40.749   3.170
46114W        W17785  24.682  11.992  13.008
46115W        W17786  37.380  41.364   1.523
46116W        W17787  13.342  22.561  13.349
46117W        W17788  26.678  10.736  13.925
46118W        W17789  14.588  24.583  13.295
46119W        W17790  28.033  21.284   3.064
46120W        W17791  28.450  42.321  12.909
46121W        W17792  20.640  29.086   2.703
46122W        W17793   0.706  23.643   4.867
46123W        W17794   7.084  24.445  13.882
46124W        W17795   8.461  11.697   1.828
46125W        W17796  33.099  42.562  10.702
46126W        W17797  15.702  37.338   3.657
46127W        W17798  26.992   1.421  10.976
46128W        W17799   9.492  17.997   3.368
46129W        W17800  11.348   7.106   2.988
46130W        W17801   3.656  35.704  13.065
46131W        W17802   8.620  32.881   3.694
46132W        W17803  41.294  11.603  11.099
46133W        W17804  18.204   5.169  11.727
46134W        W17805  19.713  14.610  11.773
46135W        W17806  24.813  26.099  11.662
46136W        W17807  26.722  42.844   0.064
46137W        W17808  20.183  15.733   3.070
46138W        W17809   3.275  26.399  11.715
46139W        W17810  25.869  10.243   4.906
46140W        W17811  44.299  18.466   3.650
46141W        W17812  14.442  20.696  13.817
46142W        W17813   2.957   0.698  11.830
46143W        W17814  35.500  28.083  11.411
46144W        W17815  28.540  34.851   2.492
46145W        W17816  12.571  25.255   1.777
46146W        W17817  43.885  32.918  12.025
46147W        W17818  24.698  38.802   9.480
46148W        W17819  44.802  36.513  10.354
46149W        W17820  36.797  10.464   1.391
46150W        W17821  32.899  23.002   1.404
46151W        W17822   0.750  39.527  11.486
46152W        W17823  20.618  32.600  12.063
46153W        W17824  25.986  11.158   1.305
46154W        W17825  27.010  10.083   3.419
46155W        W17826  13.946  36.016   1.256
46156W        W17827  14.707  17.840   1.227
46157W        W17828  42.940   7.675   4.573
46158W        W17829  13.508  33.308  11.751
46159W        W17830  19.571  35.104  14.048
46160W        W17831  25.364  17.264  13.986
46161W        W17832  37.968  15.269  10.691
46162W        W17833   4.699  39.075  10.693
46163W        W17834   2.293  24.103  13.912
46164W        W17835  32.946  42.792   1.303
46165W        W17836  11.324  30.103  12.055
46166W        W17837  24.504  29.564   2.639
46167W        W17838  31.242  34.024   2.446
46168W        W17839  25.255  26.501  11.106
46169W        W17840  40.019  23.934   0.978
46170W        W17841   5.722  39.938   0.807
46171W        W17842  25.760  23.187   1.947
46172W        W17843  29.223  39.795   4.982
46173W        W17844  34.108  16.386   1.772
46174W        W17845  15.664  41.898  11.044
46175W        W17846  21.600   0.963   3.799
46176W        W17847  25.070   4.893   4.135
46177W        W17848  23.695  21.518   1.966
46178W        W17849  39.414   2.192   2.844
46179W        W17850  14.391  44.731  10.911
46180W        W17851  39.775  25.838  11.623
46181W        W17852  44.767  14.841   1.417
46182W        W17853  41.793  40.359  13.504
46183W        W17854  29.935  22.102   3.733
46184W        W17855  13.512  24.723  14.683
46185W        W17856   0.961   4.164  13.506
46186W        W17857  32.143   8.943  14.554
46187W        W17858  38.872  25.426  14.436
46188W        W17859  27.954  11.594   0.077
46189W        W17860  37.193  19.747   3.406
46190W        W17861  44.770  15.418   0.271
46191W        W17862  25.902  18.583  14.918
46192W        W17863   4.532   1.437  11.070
46193W        W17864  43.482  14.170  10.815
46194W        W17865  41.462  40.343  11.995
46195W        W17866  17.333   0.043  10.863
46196W        W17867  25.894  36.665  12.762
46197W        W17868   4.236  33.155  13.034
46198W        W17869  37.070   8.303   1.829
46199W        W17870  38.610  36.521   2.481
46200W        W17871  41.541   7.941  14.324
46201W        W17872   9.883  29.834   4.130
46202W        W17873  19.636  26.203   1.520
46203W        W17874  29.871   3.680  14.789
46204W        W17875  27.618   3.482  14.507
46205W        W17876  32.377  20.085  10.355
46206W        W17877   7.626  36.366   2.637
46207W        W17878   4.888   2.345   2.201
46208W        W17879  33.075  19.144   0.704
46209W        W17880  38.536  28.633   2.308
46210W        W17881  17.561  33.960  13.087
46211W        W17882   5.642  13.035  12.728
46212W        W17883   0.980  30.896   4.599
46213W        W17884  13.773  11.371   0.909
46214W        W17885  15.361  37.356  14.793
46215W        W17886  21.190  19.471  10.448
46216W        W17887   0.934  11.015   3.322
46217W        W17888   0.347  22.797  10.143
46218W        W17889  25.782  34.443  10.769
46219W        W17890  36.552  14.596  10.724
46220W        W17891  29.027  23.701  13.004
46221W        W17892   4.599  11.378  12.454
46222W        W17893  32.350  23.081   2.763
46223W        W17894  42.317  19.302   4.524
46224W        W17895  42.525  37.418   2.810
46225W        W17896   6.499  34.905   2.823
46226W        W17897  12.411   3.904   2.812
46227W        W17898  26.147   4.492   2.011
46228W        W17899  44.026  36.451  13.737
46229W        W17900   5.887  10.645   2.722
46230W        W17901   5.810   7.468   0.300
46231W        W17902  23.551  30.368  14.457
46232W        W17903   7.928  30.887   3.219
46233W        W17904  14.820  36.220  14.307
46234W        W17905  28.527  19.145   1.774
46235W        W17906  14.112  41.494   2.698
46236W        W17907  37.381  19.798  13.837
46237W        W17908  26.955  21.228   0.427
46238W        W17909  31.724  17.611  13.832
46239W        W17910  39.791  42.422   0.268
46240W        W17911  44.818  28.510  13.712
46241W        W17912  34.483  13.612  13.040
46242W        W17913  22.779  39.278   3.806
46243W        W17914  34.588  43.872   3.874
46244W        W17915  32.895   4.538   4.530
46245W        W17916  24.496   7.766  13.031
46246W        W17917  12.159   3.633   3.188
46247W        W17918  16.072  17.065  13.841
46248W        W17919  12.507  35.880   4.188
46249W        W17920  16.647  12.703  13.099
46250W        W17921  10.413  26.940   2.403
46251W        W17922   7.333   8.511   2.237
46252W        W17923  13.902  19.850   4.148
46253W        W17924   8.689  35.961   3.264
46254W        W17925   0.745  40.120   4.805
46255W        W17926  13.366  44.569  13.052
46256W        W17927  26.415  11.332  12.007
46257W        W17928  27.538  34.927   2.414
46258W        W17929  40.371  30.950   4.790
46259W        W17930  34.579  16.097  10.455
46260W        W17931  29.328   1.925  13.839
46261W        W17932   6.282   4.754  12.026
46262W        W17933  29.353  25.961   2.629
46263W        W17934  29.867  11.276   3.121
46264W        W17935  43.925  10.883  10.565
46265W        W17936  40.382  25.487   2.411
46266W        W17937  43.834  41.192   5.460
46267W        W17938  23.092   0.055  14.474
46268W        W17939  18.194  35.499   0.933
46269W        W17940  11.984   8.206   1.835
46270W        W17941  16.387  16.693   1.844
46271W        W17942  35.995  33.621  13.037
46272W        W17943   1.206   3.682  14.449
46273W        W17944  12.164  33.216  10.994
46274W        W17945  10.194  18.784   3.267
46275W        W17946  18.782  38.292   2.349
46276W        W17947  30.606   5.405   4.792
46277W        W17948   5.389  26.396  12.883
46278W        W17949  31.571  11.846   1.246
46279W        W17950  23.512   6.759  12.039
46280W        W17951   3.705  32.823   2.814
46281W        W17952  15.255  27.187   0.786
46282W        W17953   4.859   9.010   2.301
46283W        W17954  18.302  33.182  12.446
46284W        W17955  39.285  11.847   1.756
46285W        W17956   9.331  31.863  13.630
46286W        W17957   5.552  29.254   4.538
46287W        W17958   1.815  42.922  11.423
46288W        W17959  17.251   3.897  13.510
46289W        W17960  36.998   9.611  10.996
46290W        W17961  24.857   3.400   4.511
46291W        W17962   6.547   1.446  14.893
46292W        W17963  30.117  32.408   1.910
46293W        W17964  38.932  25.544   4.317
46294W        W17965   5.342  10.609  13.047
46295W        W17966  37.946  28.692  11.688
46296W        W17967  19.272  21.092   2.649
46297W        W17968  37.880  33.954  13.800
46298W        W17969  19.357  15.123  13.374
46299W        W17970  37.318   8.877  13.948
46300W        W17971  39.311  28.185   2.196
46301W        W17972  33.673  37.434   0.264
46302W        W17973   9.631  20.613  11.900
46303W        W17974  17.118  39.788   4.479
46304W        W17975  32.608  40.362   4.246
46305W        W17976  38.354   8.697   0.137
46306W        W17977   9.553  30.153  14.867
46307W        W17978  10.150   1.231   4.621
46308W        W17979  12.677   5.899  11.779
46309W        W17980  24.114   9.926   2.408
46310W        W17981  27.722  36.950  12.121
46311W        W17982  33.143  38.365  11.613
46312W        W17983  44.199   7.455   0.844
46313W        W17984   1.192  17.734   2.271
46314W        W17985  44.278  24.043  10.622
46315W        W17986  40.730  40.918   1.392
46316W        W17987  32.494  15.000  14.946
46317W        W17988  35.488  10.950   0.911
46318W        W17989   9.313  20.522  14.072
46319W        W17990  23.567  27.053  11.938
46320W        W17991  33.471  14.211  11.404
46321W        W17992  17.272  13.582  12.978
46322W        W17993  17.617   2.578  12.489
46323W        W17994  43.919  25.179  10.671
46324W        W17995  24.430  29.975   2.316
46325W        W17996   4.788  23.280  14.926
46326W        W17997  31.544  29.115   4.525
46327W        W17998  21.547  44.989  13.614
46328W        W17999  12.626  42.772  12.976
46329W        W18000  17.530  37.102  13.345
46330W        W18001  23.691  32.017   4.475
46331W        W18002  36.949  23.517  13.161
46332W        W18003  11.847  29.382  14.012
46333W        W18004  31.078  35.529  12.777
46334W        W18005  16.626   2.400  11.476
46335W        W18006  16.358  25.278  12.029
46336W        W18007  36.453  11.503  13.371
46337W        W18008  44.924   4.134  12.414
46338W        W18009  41.467  26.619   2.963
46339W        W18010  41.360  40.082  12.407
46340W        W18011  29.085   4.376   0.429
46341W        W18012   4.418  20.193  12.620
46342W        W18013   4.839  36.855  10.999
46343W        W18014  29.914  26.046   0.419
46344W        W18015  18.312  18.170  11.241
46345W        W18016  25.763  32.562   2.678
46346W        W18017  22.425  33.130   3.760
46347W        W18018  14.878  43.554  14.775
46348W        W18019  36.874   7.825  12.939
46349W        W18020  13.212  40.477   2.730
46350W        W18021  31.491  27.171  10.917
46351W        W18022  31.123  31.153   0.728
46352W        W18023  20.626  23.968   2.016
46353W        W18024  12.783  37.454  10.827
46354W        W18025  13.657  13.692   3.669
46355W        W18026  28.544  37.037  13.256
46356W        W18027   7.542  17.930  11.204
46357W        W18028  40.173   1.497   1.482
46358W        W18029  13.096  10.369  13.489
46359W        W18030   4.283  24.890  13.963
46360W        W18031  22.755  32.434  14.709
46361W        W18032  15.166  40.311   3.231
46362W        W18033  17.000   5.983  14.627
46363W        W18034  15.670  17.072   3.333
46364W        W18035  11.707  17.059  11.469
46365W        W18036  12.675   0.411   2.721
46366W        W18037  11.411  27.178  14.806
46367W        W18038  16.595  41.902   3.880
46368W        W18039  36.837  35.417  14.555
46369W        W18040   8.178  33.336   1.514
46370W        W18041  30.478   0.759  12.978
46371W        W18042  21.353  34.634   3.404
46372W        W18043   4.660  35.994  10.874
46373W        W18044  27.156   0.494   0.859
46374W        W18045  42.873   4.469  14.719
46375W        W18046  15.633  32.572   2.357
46376W        W18047  24.111  32.667  13.505
46377W        W18048  16.800  31.723   3.341
46378W        W18049  32.138  41.470   2.348
46379W        W18050   7.415  24.190  11.213
46380W        W18051  22.656  16.902  12.399
46381W        W18052  39.317  20.127   3.693
46382W        W18053   1.355  43.265   4.281
46383W        W18054  18.151  20.550   3.374
46384W        W18055  33.683   6.773   4.799
46385W        W18056  31.501  40.890   2.638
46386W        W18057  29.780   6.739  14.766
46387W        W18058   3.704   9.139   4.684
46388W        W18059  15.762  12.245  12.035
46389W        W18060  43.353  32.815  11.972
46390W        W18061  23.260  24.407  11.552
46391W        W18062  11.373   9.822  14.804
46392W        W18063  12.224  11.451  14.295
46393W        W18064  22.744   6.579   3.730
46394W        W18065   6.497  16.490   3.275
46395W        W18066   6.702   4.377   4.388
46396W        W18067  41.819  31.047  12.971
46397W        W18068  21.635  10.568   1.262
46398W        W18069  20.996  42.452   2.853
46399W        W18070  11.624  11.172   2.576
46400W        W18071  32.170  31.919  14.154
46401W        W18072   6.252  24.785   3.703
46402W        W18073  28.991   2.948  11.486
46403W        W18074  44.432  38.154   3.234
46404W        W18075  20.619  19.685   1.912
46405W        W18076  34.060  25.919   2.475
46406W        W18077  31.991  39.259   3.792
46407W        W18078   0.055  26.015  12.073
46408W        W18079  11.617  41.026   2.146
46409W        W18080  37.091  19.399  10.909
46410W        W18081  30.669  34.311  12.779
46411W        W18082  38.800  11.065   0.874
46412W        W18083  13.981  25.183  12.457
46413W        W18084  10.675  39.486   0.072
46414W        W18085  26.045  36.372   3.127
46415W        W18086  29.554  25.135   2.339
46416W        W18087  32.699   7.425   2.871
46417W        W18088  34.410  12.524   2.847
46418W        W18089  40.885  40.527   2.266
46419W        W18090  41.914  11.046  12.871
46420W        W18091  39.683  42.353   1.668
46421W        W18092   5.652  41.353  12.166
46422W        W18093  36.849  32.481  10.692
46423W        W18094   7.324  21.260   2.204
46424W        W18095  44.008  38.091   3.804
46425W        W18096  15.285  42.971  13.757
46426W        W18097  16.737  34.577   2.768
46427W        W18098  22.199   0.375  11.499
46428W        W18099  22.633  14.153   0.309
46429W        W18100  23.448  32.429   0.967
46430W        W18101  16.588  21.003   3.352
46431W        W18102  16.530  12.274   1.292
46432W        W18103   8.379  25.643   1.734
46433W        W18104   7.390  16.348   4.385
46434W        W18105  39.385  24.143   0.748
46435W        W18106  33.417   3.786  10.881
46436W        W18107  31.005  13.917   2.193
46437W        W18108  25.627  36.481   0.497
46438W        W18109  17.177  21.554  13.420
46439W        W18110  11.340  28.273  10.669
46440W        W18111  40.497  15.061  11.561
46441W        W18112  33.872  22.208  12.515
46442W        W18113   5.982  40.995  12.994
46443W        W18114  42.476  36.621   0.856
46444W        W18115   3.126  27.195  11.803
46445W        W18116  20.949  32.637  12.479
46446W        W18117  20.032  27.216   2.592
46447W        W18118   9.133  38.943   3.417
46448W        W18119  31.400   8.256   3.707
46449W        W18120  26.847  16.506   1.689
46450W        W18121  41.961  33.123   4.511
46451W        W18122   1.158  37.397   0.728
46452W        W18123  22.759  41.344   9.508
46453W        W18124  36.472  17.093   5.135
46454W        W18125  16.318  35.606  13.465
46455W        W18126  13.383  38.565  11.016
46456W        W18127  24.153  22.911   3.389
46457W        W18128  29.388   4.947  11.910
46458W        W18129  15.683   8.137   1.689
46459W        W18130  18.171  39.301   0.375
46460W        W18131  38.904   0.874   2.647
46461W        W18132   6.906  19.468  14.748
46462W        W18133  25.655   2.315   1.298
46463W        W18134   6.618  41.305   2.788
46464W        W18135  22.826  30.038  13.972
46465W        W18136   7.429  16.073   1.848
46466W        W18137  38.783  39.891   3.956
46467W        W18138  34.001   7.289   1.025
46468W        W18139  15.688   0.418   0.536
46469W        W18140  32.411  26.236   3.966
46470W        W18141  41.490   5.417   2.437
46471W        W18142   8.852  31.502   1.949
46472W        W18143  15.798  39.056  14.990
46473W        W18144  23.929  38.004   4.293
46474W        W18145  33.523  13.945  12.235
46475W        W18146  43.959  23.699   5.291
46476W        W18147  20.396  38.031   0.026
46477W        W18148  34.295  36.885  10.328
46478W        W18149  42.718  32.101   4.196
46479W        W18150  29.931  16.499   2.028
46480W        W18151  31.117  32.212  11.584
46481W        W18152  24.763  34.080  10.500
46482W        W18153  43.500  14.020  14.351
46483W        W18154  22.546  26.034  10.371
46484W        W18155  34.563   9.399  14.280
46485W        W18156  17.014  39.991   1.915
46486W        W18157   7.875  25.171   2.040
46487W        W18158   3.944  33.598  13.921
46488W        W18159  22.625   0.421   4.798
46489W        W18160   2.719  31.545   0.919
46490W        W18161  20.134  11.116   0.419
46491W        W18162  30.413   4.694  11.986
46492W        W18163   9.740   8.818   3.569
46493W        W18164  30.903  25.003  13.466
46494W        W18165  18.221  24.182  12.240
46495W        W18166   5.984  21.186   1.850
46496W        W18167  19.182  21.260  12.847
46497W        W18168  38.990  11.189   2.933
46498W        W18169   4.138   2.300   2.416
46499W        W18170  24.947  41.796  13.078
46500W        W18171   9.936   4.347  11.676
46501W        W18172  43.448  19.545   1.644
46502W        W18173  39.413  29.190   3.658
46503W        W18174  18.770  20.108   3.846
46504W        W18175  28.862  31.219   1.876
46505W        W18176  25.363  38.835   3.375
46506W        W18177  35.036  28.913  14.816
46507W        W18178  30.031  12.385   0.964
46508W        W18179  44.490  36.112  10.869
46509W        W18180   9.349  21.046  12.347
46510W        W18181  22.101  33.285   0.498
46511W        W18182  28.929  42.431  11.747
46512W        W18183  16.724  16.217  14.349
46513W        W18184  27.479  22.787   1.213
46514W        W18185   8.377   1.834   3.699
46515W        W18186   0.519  13.673   5.044
46516W        W18187  34.424  29.061  10.347
46517W        W18188  32.964  10.235   0.406
46518W        W18189  24.640   4.435  13.137
46519W        W18190  10.993  18.292  13.904
46520W        W18191  41.357  22.740  11.146
46521W        W18192  24.950  20.926  12.984
46522W        W18193  40.427  14.785   2.724
46523W        W18194  11.729  18.078   0.253
46524W        W18195   7.879   3.504  13.951
46525W        W18196  18.746  15.754   1.839
46526W        W18197  16.371  22.560  10.593
46527W        W18198  19.823  36.785  13.360
46528W        W18199  26.927  39.544   0.194
46529W        W18200  26.528   4.408  13.512
46530W        W18201  25.266  14.823   3.228
46531W        W18202   3.764   2.828   4.165
46532W        W18203  35.358  39.796   1.682
46533W        W18204  42.396   6.247   4.689
46534W        W18205  37.560  18.554   3.164
46535W        W18206  20.268  14.018   5.038
46536W        W18207  22.495   9.690  12.866
46537W        W18208  22.071  29.134  12.566
46538W        W18209  41.582  23.722   0.862
46539W        W18210   4.976  26.125  13.043
46540W        W18211   6.769   4.903  12.784
46541W        W18212  40.333  20.354   0.546
46542W        W18213  10.102  41.005   4.740
46543W        W18214  14.897   5.483  11.683
46544W        W18215   3.962  10.861  14.313
46545W        W18216  14.214  30.201   3.614
46546W        W18217  22.661  44.051   2.055
46547W        W18218  37.936  24.251   0.229
46548W        W18219  23.084   5.908  14.481
46549W        W18220  33.653  26.263   4.393
46550W        W18221  28.160  36.225  12.409
46551W        W18222  40.355  26.503   1.247
46552W        W18223   4.666  16.686  10.401
46553W        W18224  34.613   5.305   4.774
46554W        W18225  30.017  23.733   2.402
46555W        W18226  32.927   9.615  11.687
46556W        W18227  41.967  40.518  11.928
46557W        W18228  41.269  14.585  11.664
46558W        W18229  23.600  40.808   0.391
46559W        W18230  18.288   9.329   2.849
46560W        W18231   6.521  44.216  11.628
46561W        W18232  19.595  15.318   3.624
46562W        W18233   0.282  30.929   1.857
46563W        W18234  13.397  36.010  11.461
46564W        W18235  36.258   3.165  11.486
46565W        W18236  41.492  35.565  12.425
46566W        W18237  35.547  36.151  14.083
46567W        W18238  22.715  14.209   4.093
46568W        W18239  44.767  42.763  13.484
46569W        W18240  42.710   3.802  12.935
46570W        W18241  30.598  31.676  13.016
46571W        W18242  43.739  20.840  12.466
46572W        W18243  32.940   1.954   2.907
46573W        W18244  28.204  10.795  14.309
46574W        W18245  40.009  22.592  11.448
46575W        W18246  14.646  43.226   0.382
46576W        W18247   1.874  40.153   2.833
46577W        W18248  44.025  16.180   3.952
46578W        W18249   7.661  37.687  10.019
46579W        W18250  35.560   5.395   2.437
46580W        W18251   9.211   5.821  10.684
46581W        W18252  10.379   2.764   2.429
46582W        W18253  16.299   0.515  11.582
46583W        W18254  32.706  25.197   0.396
46584W        W18255  41.999   7.184   1.041
46585W        W18256   6.989  35.445   3.159
46586W        W18257   6.319  35.358   1.997
46587W        W18258  10.659  42.932  13.347
46588W        W18259  19.851   5.373  12.859
46589W        W18260  42.299  16.021  14.025
46590W        W18261  30.197  27.428   1.608
46591W        W18262   0.051  39.555  13.866
46592W        W18263  22.279  44.355   4.606
46593W        W18264   8.910  26.562   3.322
46594W        W18265  37.395  40.968   3.227
46595W        W18266  21.569  43.452  10.712
46596W        W18267  32.579   2.526  13.267
46597W        W18268  30.915  25.962   1.714
46598W        W18269  27.952  14.815   3.314
46599W        W18270   2.725  24.590   0.802
46600W        W18271  12.581  37.449   4.714
46601W        W18272  22.436  25.610   0.279
46602W        W18273   6.288  10.355  13.395
46603W        W18274   5.950  38.437  11.692
46604W        W18275  37.570  17.569  13.260
46605W        W18276  32.030   2.717   4.520
46606W        W18277  21.259  14.327  13.963
46607W        W18278  20.584   7.593   1.922
46608W        W18279  13.661  15.802  11.171
46609W        W18280  29.906   2.674  13.823
46610W        W18281  37.361   6.104   2.320
46611W        W18282  24.985  21.202   0.260
46612W        W18283  10.828  23.089  10.511
46613W        W18284  28.056   9.584  11.436
46614W        W18285  14.377   9.142   2.302
46615W        W18286   3.220   1.505  13.348
46616W        W18287   9.576  26.080  13.911
46617W        W18288  20.059  11.936  13.095
46618W        W18289  22.627  30.030  12.061
46619W        W18290  38.526   0.991   1.370
46620W        W18291  16.156  23.249   3.366
46621W        W18292  30.465  20.939   0.384
46622W        W18293  11.785   7.480  12.572
46623W        W18294  11.129  27.644   1.313
46624W        W18295  14.755  19.709  11.227
46625W        W18296  28.152   9.629  10.643
46626W        W18297  30.827   2.496   4.152
46627W        W18298  26.072  37.081  12.994
46628W        W18299  16.665   8.567   2.627
46629W        W18300  21.720   2.432  12.992
46630W        W18301  24.282  18.711   0.213
46631W        W18302   1.463   3.269  13.257
46632W        W18303  43.012  23.905   4.533
46633W        W18304   0.680  32.906   4.753
46634W        W18305   1.461  42.964   3.299
46635W        W18306   8.395  23.019  13.335
46636W        W18307  11.389  34.127   2.264
46637W        W18308  33.605   1.310   1.268
46638W        W18309  43.374   2.078   4.089
46639W        W18310  14.974  23.450   4.354
46640W        W18311  23.045  36.531   4.635
46641W        W18312   5.564   3.012  11.422
46642W        W18313  39.831  23.533   4.832
46643W        W18314   4.423   2.022   1.418
46644W        W18315  13.332  22.598   2.642
46645W        W18316   6.371  28.909   2.681
46646W        W18317  27.784   1.250   2.638
46647W        W18318  26.168  31.604  13.037
46648W        W18319  30.477  36.063  12.388
46649W        W18320  16.246  36.516  14.511
46650W        W18321  13.117  32.771  12.875
46651W        W18322  37.790  35.781   5.266
46652W        W18323  42.074  29.548   1.675
46653W        W18324   1.377  42.905  11.692
46654W        W18325  37.652  16.297  13.489
46655W        W18326  36.396  12.794   1.261
46656W        W18327  19.284   3.000  12.460
46657W        W18328  20.286  23.260   3.120
46658W        W18329  44.061  36.609  14.755
46659W        W18330  41.749   0.430   2.736
46660W        W18331   7.956  23.951   3.441
46661W        W18332   6.924   5.294  11.892
46662W        W18333   2.900  17.690  14.271
46663W        W18334  21.010  31.164   1.458
46664W        W18335  37.759   3.950  12.017
46665W        W18336  42.321  34.058   0.484
46666W        W18337  27.117  30.242   3.706
46667W        W18338  37.957  40.734  13.216
46668W        W18339  27.560   4.688   4.269
46669W        W18340   0.663  23.158  10.341
46670W        W18341  33.960  19.589   1.340
46671W        W18342  26.016  24.619   0.871
46672W        W18343   2.213  33.507  12.000
46673W        W18344   6.905  19.608   2.617
46674W        W18345  12.831  43.806  13.058
46675W        W18346  41.379  35.379   1.371
46676W        W18347   4.211  33.558   3.859
46677W        W18348  37.279   2.444  13.663
46678W        W18349  40.219   1.561   3.710
46679W        W18350  29.744  19.067   2.542
46680W        W18351  37.394  37.348  10.693
46681W        W18352   1.328  40.471   3.735
46682W        W18353  24.961  35.355   1.491
46683W        W18354  17.339  15.248   0.804
46684W        W18355  25.113  37.684  12.071
46685W        W18356  37.594   6.683  11.416
46686W        W18357  40.106  32.012  12.795
46687W        W18358  25.775  28.430  11.628
46688W        W18359  44.193   7.636  12.085
46689W        W18360   3.673  19.554  12.826
46690W        W18361  37.382  14.286  11.489
46691W        W18362  25.214   8.693  11.176
46692W        W18363  13.148  37.824   0.703
46693W        W18364  21.507  33.089  10.726
46694W        W18365  34.383  14.177   2.281
46695W        W18366  12.814  25.105  14.260
46696W        W18367  20.106  16.834   2.371
46697W        W18368  17.202   5.361  12.875
46698W        W18369  13.449  40.338  11.914
46699W        W18370  40.127  33.592   2.278
46700W        W18371  41.864   2.369   3.795
46701W        W18372  21.510  44.548  12.813
46702W        W18373  12.852  20.988  14.583
46703W        W18374   0.678  30.931  11.570
46704W        W18375  23.260  21.100   3.166
46705W        W18376   6.189   7.159  13.612
46706W        W18377   9.146   8.639   4.936
46707W        W18378   3.448   6.172   2.173
46708W        W18379  21.532  24.036  13.893
46709W        W18380  29.157  30.553  13.102
46710W        W18381  37.448  21.234  10.914
46711W        W18382   3.504  33.416   2.097
46712W        W18383  42.435  12.688  10.585
46713W        W18384   8.221  18.203   3.286
46714W        W18385  38.708  37.895   3.804
46715W        W18386  40.460  43.305   1.285
46716W        W18387   9.341  15.696  13.350
46717W        W18388   5.845   1.013   0.799
46718W        W18389  31.674  41.704  11.596
46719W        W18390   1.737   1.314   5.045
46720W        W18391   0.420  25.231   1.903
46721W        W18392  25.990  30.657  13.454
46722W        W18393   4.494   5.967  11.656
46723W        W18394  37.178  40.593  14.615
46724W        W18395  24.811  23.551   4.524
46725W        W18396  18.902  26.631  12.989
46726W        W18397  30.430  21.565   1.725
46727W        W18398  35.546  28.703  14.126
46728W        W18399  23.066  12.101   0.250
46729W        W18400  14.648   1.811  12.496
46730W        W18401  12.222  38.144  10.675
46731W        W18402  17.583   4.990  10.575
46732W        W18403  19.588  11.831   9.500
46733W        W18404  23.523   7.586  13.054
46734W        W18405  35.732  13.094  11.929
46735W        W18406  40.471   6.976   1.950
46736W        W18407  31.992  23.398  10.160
46737W        W18408   3.426  42.584   2.267
46738W        W18409  19.168  44.124  14.098
46739W        W18410  11.058   5.847  13.809
46740W        W18411  44.475  13.534   1.279
46741W        W18412   7.928  25.384   1.531
46742W        W18413  11.745   0.527   1.270
46743W        W18414   0.484  39.574   1.166
46744W        W18415   2.555  28.696   4.232
46745W        W18416   4.742  39.827  13.257
46746W        W18417  40.392   4.443   2.295
46747W        W18418  30.377  40.858  13.362
46748W        W18419  36.357  43.837   4.926
46749W        W18420   2.425  29.400  11.577
46750W        W18421  20.201  26.614   1.762
46751W        W18422  27.665  35.519   1.309
46752W        W18423   6.792  38.133   1.189
46753W        W18424  16.409  31.942   0.984
46754W        W18425   3.441  20.568  11.895
46755W        W18426  37.003  31.169   2.639
46756W        W18427  33.165  33.258   1.646
46757W        W18428  44.683  10.300  13.088
46758W        W18429  33.499  32.856   2.658
46759W        W18430  34.075  44.371   0.874
46760W        W18431  27.829  12.212  10.026
46761W        W18432  44.868  22.068  14.088
46762W        W18433   4.197  43.963   0.494
46763W        W18434   7.372  34.913   1.702
46764W        W18435  34.366  34.089   2.661
46765W        W18436  15.643  10.854   3.646
46766W        W18437   6.736  15.689   3.766
46767W        W18438  42.442   7.862  11.178
46768W        W18439  21.941   2.240  11.556
46769W        W18440  34.572  10.418   0.276
46770W        W18441  19.706  35.588  13.991
46771W        W18442  42.044  10.331  10.681
46772W        W18443   5.925  28.999  13.655
46773W        W18444   0.262  14.667  11.698
46774W        W18445  23.145  29.378  13.333
46775W        W18446  13.647  35.405  14.507
46776W        W18447  38.046  25.438  10.737
46777W        W18448  40.921   3.959   4.642
46778W        W18449  44.635   6.808  12.834
46779W        W18450  14.270   4.955   4.678
46780W        W18451  29.971  12.198  12.194
46781W        W18452  42.631  16.004   0.088
46782W        W18453  44.227  31.958   1.339
46783W        W18454  27.389  38.136  14.298
46784W        W18455  24.678  28.001   2.902
46785W        W18456  22.268  30.017   2.849
46786W        W18457   0.413  42.973   2.946
46787W        W18458  11.336  34.035  14.486
46788W        W18459   6.708   1.039   1.944
46789W        W18460   9.200  12.163  10.852
46790W        W18461  11.044  36.550  14.026
46791W        W18462  21.298  35.865  12.537
46792W        W18463  16.787  33.832  13.441
46793W        W18464  35.289   2.295   0.051
46794W        W18465  13.413  41.342  12.061
46795W        W18466  19.259  32.049  12.395
46796W        W18467  39.801  18.083  14.942
46797W        W18468  32.539   2.561  11.956
46798W        W18469   4.313   9.188  13.048
46799W        W18470   1.779  23.359   9.760
46800W        W18471  29.063   4.688   3.632
46801W        W18472  15.762  16.782   2.418
46802W        W18473  22.279  12.330  13.326
46803W        W18474  24.056   3.464  10.734
46804W        W18475  36.214  39.082  10.557
46805W        W18476   4.899  24.624   0.969
46806W        W18477  41.091   0.857  11.077
46807W        W18478  31.361  44.193  11.753
46808W        W18479  33.486   5.404  14.365
46809W        W18480  28.671  41.735   1.838
46810W        W18481   7.146   9.437   4.567
46811W        W18482  42.309  41.938   4.022
46812W        W18483  35.784   0.570   1.313
46813W        W18484  23.313   4.338  14.892
46814W        W18485   9.580  36.530  11.958
46815W        W18486  14.962  40.056  13.740
46816W        W18487   4.390   0.379   0.521
46817W        W18488  31.440   6.343   2.607
46818W        W18489  28.375  18.706   1.987
46819W        W18490  24.996  34.619   1.011
46820W        W18491  44.318   9.642   4.960
46821W        W18492  27.535  14.162   2.705
46822W        W18493  40.552  27.022  13.911
46823W        W18494  23.949  21.448   1.351
46824W        W18495  19.685   5.881  10.779
46825W        W18496   1.020   4.320   2.078
46826W        W18497  14.329  37.917  14.258
46827W        W18498  11.355  35.196   2.378
46828W        W18499   6.169  37.530   1.457
46829W        W18500   6.349   3.808  10.343
46830W        W18501  11.131  25.051  11.592
46831W        W18502  11.252   2.799  12.999
46832W        W18503  26.459  16.218  12.844
46833W        W18504  20.155  37.752   3.616
46834W        W18505  41.571   8.143   0.833
46835W        W18506  44.519  35.095   2.743
46836W        W18507  14.821  39.273  11.180
46837W        W18508   5.746   1.740   1.431
46838W        W18509  33.570  30.581  12.037
46839W        W18510  42.312  38.081  11.646
46840W        W18511  34.941  28.300  14.022
46841W        W18512  36.406  34.488   0.345
46842W        W18513  14.971   5.758  11.250
46843W        W18514  38.529  21.458  14.636
46844W        W18515   4.078  31.195   4.039
46845W        W18516  35.314   8.873  12.030
46846W        W18517   3.473   9.230  12.609
46847W        W18518  18.615  38.716  10.253
46848W        W18519   8.822  36.080   2.773
46849W        W18520  27.238  11.756  13.520
46850W        W18521  20.314  20.552  12.044
46851W        W18522   5.697  24.062   3.718
46852W        W18523  43.451  39.319  11.234
46853W        W18524  14.360  39.752  14.801
46854W        W18525  12.213  22.547  10.661
46855W        W18526  41.323  23.019   2.198
46856W        W18527  40.510  33.135   1.741
46857W        W18528  11.441   6.465  11.180
46858W        W18529   8.612  32.480   1.365
46859W        W18530  14.570  18.342  11.991
46860W        W18531  33.185  34.191   4.625
46861W        W18532  41.005  16.626   4.771
46862W        W18533   0.196  15.717   0.365
46863W        W18534  10.698  34.687  13.060
46864W        W18535  39.338  32.012   1.396
46865W        W18536   8.951  34.040  11.648
46866W        W18537  16.530   7.887   2.010
46867W        W18538   7.670   3.719   0.300
46868W        W18539   4.566  37.857   2.341
46869W        W18540  16.131   5.819   4.438
46870W        W18541   3.767  13.102   0.509
46871W        W18542  33.834  15.549   1.712
46872W        W18543  23.763  10.180  12.127
46873W        W18544  13.201  42.059  11.651
46874W        W18545  18.578   4.762   3.330
46875W        W18546   3.757   7.250   2.620
46876W        W18547  42.082  24.642  11.751
46877W        W18548  19.093  22.994  14.406
46878W        W18549  16.362  44.887   4.847
46879W        W18550   8.733  29.199   0.822
46880W        W18551   6.193   0.476   5.199
46881W        W18552   3.013  35.150   4.687
46882W        W18553  24.783  42.018  12.543
46883W        W18554   6.206  43.076  10.907
46884W        W18555  10.960  20.926  11.618
46885W        W18556  33.952  27.740  14.562
46886W        W18557  33.263  26.205   3.620
46887W        W18558  18.324  31.086  10.963
46888W        W18559  35.931  43.472  12.949
46889W        W18560  28.295   2.850  11.116
46890W        W18561  19.271   9.391  12.493
46891W        W18562  18.525  37.966   3.377
46892W        W18563  19.119   7.166  13.966
46893W        W18564   4.772  25.910  11.058
46894W        W18565   8.638  27.424  13.705
46895W        W18566  25.114   1.515  12.941
46896W        W18567  14.816   8.389  10.744
46897W        W18568  43.381  38.008   5.061
46898W        W18569   1.449  14.847  12.008
46899W        W18570  24.048  43.049  12.989
46900W        W18571  17.033   1.915  13.814
46901W        W18572  26.626  40.900  12.621
46902W        W18573  10.770  10.277  10.853
46903W        W18574  40.291   8.328   1.320
46904W        W18575  17.721  18.085   2.197
46905W        W18576  20.480  30.739   3.243
46906W        W18577  33.943  36.788   3.548
46907W        W18578   8.239  36.513  12.392
46908W        W18579   3.322  38.783   4.140
46909W        W18580  38.939  27.009  14.439
46910W        W18581  31.531  39.317   2.225
46911W        W18582  28.132   8.221  13.322
46912W        W18583  26.043  35.899   3.374
46913W        W18584  22.557  34.083   0.355
46914W        W18585   8.830  15.223   3.899
46915W        W18586  38.517  35.616   0.418
46916W        W18587  22.064   7.977   2.762
46917W        W18588   5.553   0.820  11.559
46918W        W18589  26.710  35.085   0.039
46919W        W18590  33.112  23.742   2.648
46920W        W18591  43.996  34.360  12.976
46921W        W18592  31.469  13.847   2.471
46922W        W18593  33.404  11.281   3.544
46923W        W18594  35.965  30.762  12.659
46924W        W18595   8.632  10.200   3.683
46925W        W18596  15.799  16.362  13.522
46926W        W18597   2.063  17.642  12.046
46927W        W18598  43.969  29.935   2.066
46928W        W18599  33.443  43.996  11.304
46929W        W18600  29.607  39.154   4.863
46930W        W18601  24.010  41.984  14.307
46931W        W18602  43.396   3.820   1.272
46932W        W18603  30.830  23.165  13.882
46933W        W18604  19.196  36.561   4.249
46934W        W18605   8.790  40.918   3.362
46935W        W18606  37.251   7.020  11.242
46936W        W18607  10.385   6.551  11.523
46937W        W18608   7.344  20.394   1.205
46938W        W18609  44.952   2.810   1.322
46939W        W18610  44.200   2.268  11.606
46940W        W18611   6.940  10.893   0.741
46941W        W18612   2.501  18.026   0.504
46942W        W18613  12.381  11.888  14.963
46943W        W18614   5.425  34.502   1.459
46944W        W18615  37.348  15.554  12.153
46945W        W18616  36.801  24.766  12.521
46946W        W18617   8.795   5.181  11.181
46947W        W18618  13.244  11.753  13.002
46948W        W18619  42.822  28.148  13.510
46949W        W18620   6.839  36.383   2.178
46950W        W18621  42.144  41.038   2.603
46951W        W18622  24.491  29.171   3.261
46952W        W18623  27.180  23.234   3.729
46953W        W18624  37.111   1.202   3.425
46954W        W18625  11.156  38.816   3.241
46955W        W18626  29.297   7.866   3.222
46956W        W18627  12.322  11.292  11.467
46957W        W18628  40.746  16.272  12.006
46958W        W18629  34.721  13.131  13.833
46959W        W18630  16.068  39.756  10.643
46960W        W18631   1.823   5.407  14.511
46961W        W18632   0.377  24.110   0.831
46962W        W18633  41.438  14.616  12.140
46963W        W18634  20.118  14.317  11.914
46964W        W18635   1.878  39.019  14.033
46965W        W18636   3.298   3.020  10.708
46966W        W18637  22.280   0.726  11.135
46967W        W18638  13.769  43.462  13.481
46968W        W18639  11.187  11.009   0.848
46969W        W18640   7.150  10.772   4.375
46970W        W18641  29.764  41.183   1.376
46971W        W18642   0.704  14.638  13.607
46972W        W18643  30.748  24.487  11.122
46973W        W18644  11.807  24.541   1.013
46974W        W18645  37.333  38.921  13.922
46975W        W18646  27.692  12.653  10.979
46976W        W18647  43.751   4.090  11.176
46977W        W18648  30.705  13.399  14.009
46978W        W18649  25.235  36.879   0.328
46979W        W18650  42.050  24.170  11.189
46980W        W18651  16.801  39.518  14.018
46981W        W18652   5.704  41.025   1.800
46982W        W18653  41.867  23.037   4.132
46983W        W18654  23.975  28.706   3.593
46984W        W18655  27.810  27.596  12.784
46985W        W18656  44.770  27.428   2.731
46986W        W18657  33.401  27.134  14.332
46987W        W18658  19.076  25.785   0.350
46988W        W18659  10.855   1.669  13.517
46989W        W18660  30.705  38.320   3.149
46990W        W18661  30.439  35.428  11.576
46991W        W18662  18.791  32.064   1.677
46992W        W18663  32.357   7.125  11.178
46993W        W18664  41.873  28.498  13.957
46994W        W18665  38.078  37.566   3.265
46995W        W18666  31.664  38.330   2.168
46996W        W18667  20.562  44.905  14.434
46997W        W18668  35.432  23.137  14.316
46998W        W18669  23.225   2.299   4.659
46999W        W18670  29.626   1.884   2.768
47000W        W18671  34.826  22.163  10.150
47001W        W18672  15.720  25.691   0.202
47002W        W18673  19.293  14.887   3.675
47003W        W18674  27.687  27.990   0.071
47004W        W18675  15.830   6.435   2.798
47005W        W18676  20.089  28.871  13.606
47006W        W18677  30.278  39.738   4.219
47007W        W18678  40.549   9.065   4.155
47008W        W18679  32.952  37.362  13.845
47009W        W18680  25.206  29.632   4.390
47010W        W18681  25.969  28.654  14.264
47011W        W18682  38.018   2.364  11.616
47012W        W18683  33.387  19.076   0.277
47013W        W18684  41.850  18.352  14.601
47014W        W18685  44.313  20.707   4.194
47015W        W18686   7.455  18.062   2.011
47016W        W18687  28.351  12.848  11.764
47017W        W18688  38.418   0.989  14.517
47018W        W18689  30.051  18.725  14.103
47019W        W18690  27.972  30.011   4.094
47020W        W18691  35.006  26.300  12.911
47021W        W18692  42.959   5.589  12.989
47022W        W18693  29.097  20.386  10.954
47023W        W18694   4.753   4.206  14.751
47024W        W18695  20.081  27.091   0.824
47025W        W18696  31.561  39.286  11.120
47026W        W18697  41.996  42.900  13.513
47027W        W18698   6.704  13.282   2.730
47028W        W18699   0.392  11.945   4.881
47029W        W18700  17.033   2.468   4.082
47030W        W18701   9.594  29.883  10.769
47031W        W18702  16.667  39.004  12.863
47032W        W18703  40.960  42.213  11.205
47033W        W18704   2.517  27.046   2.713
47034W        W18705  35.836  43.007   1.863
47035W        W18706  35.473  31.505   0.299
47036W        W18707  21.780  15.846   0.774
47037W        W18708  13.901  26.604   0.950
47038W        W18709   5.731  15.259  10.840
47039W        W18710  15.318  34.296  14.901
47040W        W18711  38.299   7.361  11.460
47041W        W18712  37.741  13.277   0.877
47042W        W18713  16.892  14.184  10.208
47043W        W18714  20.274  22.618   0.390
47044W        W18715  39.838  31.258   2.165
47045W        W18716   3.673  36.550   3.647
47046W        W18717   3.986  36.825  11.126
47047W        W18718   0.833  36.494  14.412
47048W        W18719  33.881   6.547   0.222
47049W        W18720   0.780  27.577  12.546
47050W        W18721  29.403  15.161   4.844
47051W        W18722  16.249   7.560  14.901
47052W        W18723  21.102  32.235   5.209
47053W        W18724   8.290  38.842   4.415
47054W        W18725   5.913  42.211  12.180
47055W        W18726  15.886   9.266   0.461
47056W        W18727  19.024  21.111   0.512
47057W        W18728  15.227  13.888  10.674
47058W        W18729  39.384   2.712   4.612
47059W        W18730   0.422  30.447  10.989
47060W        W18731  25.099  10.409   3.899
47061W        W18732  32.418  27.438   1.121
47062W        W18733   8.271  27.697  14.887
47063W        W18734  29.133  34.399  12.990
47064W        W18735  35.462  23.500  11.577
47065W        W18736   8.849   5.296   4.845
47066W        W18737   0.805  18.010   2.470
47067W        W18738  36.929  28.980  12.883
47068W        W18739  36.963  22.459  13.941
47069W        W18740   5.331   9.284  10.696
47070W        W18741   6.500  33.944   2.806
47071W        W18742  24.631  35.807   0.760
47072W        W18743  27.678   4.013   3.668
47073W        W18744  29.900  36.926   0.717
47074W        W18745  36.477   6.110   1.717
47075W        W18746   9.296   8.672   1.164
47076W        W18747  42.870  37.735  14.395
47077W        W18748  26.671  41.488  10.241
47078W        W18749  27.531  42.468  12.406
47079W        W18750  38.815  31.648   0.250
47080W        W18751  30.165  36.528   0.335
47081W        W18752  14.518  23.896  10.852
47082W        W18753   5.805  43.545   3.756
47083W        W18754  18.730  23.405   2.699
47084W        W18755  26.243  30.980   0.097
47085W        W18756  39.341  28.225  13.778
47086W        W18757  22.179  31.651   3.629
47087W        W18758  29.053   5.412   3.087
47088W        W18759   0.945  15.305  14.726
47089W        W18760  12.079   5.893   0.830
47090W        W18761  29.598  24.191  10.242
47091W        W18762  43.691  20.730   0.803
47092W        W18763  26.608  39.589   4.712
47093W        W18764   7.504  34.147   2.775
47094W        W18765  41.413   0.808  14.339
47095W        W18766  39.623  19.849   2.768
47096W        W18767   5.939  34.200  11.926
47097W        W18768   4.195  17.874  12.928
47098W        W18769  37.690  30.674  11.627
47099W        W18770  13.389  19.920  14.305
47100W        W18771  15.534   6.883   0.860
47101W        W18772   5.150  38.664   0.388
47102W        W18773   8.665  27.301   3.785
47103W        W18774   5.401   3.928   1.603
47104W        W18775   5.965  19.932   1.754
47105W        W18776  13.660  16.223  13.966
47106W        W18777  27.394  19.774  11.132
47107W        W18778   8.979  20.012  11.478
47108W        W18779   6.201   6.958   0.953
47109W        W18780  18.702  37.934  11.603
47110W        W18781  12.667   7.757   0.462
47111W        W18782  42.698  27.544   2.350
47112W        W18783  23.063  35.076  13.473
47113W        W18784  13.424   4.148   0.825
47114W        W18785  31.419  21.053   2.421
47115W        W18786  18.775  41.428   3.860
47116W        W18787  29.233  43.057  11.453
47117W        W18788  37.646  13.268  14.991
47118W        W18789  36.000  10.673   3.232
47119W        W18790  43.183  34.539  10.598
47120W        W18791  37.128  42.443  11.481
47121W        W18792  28.208  21.436  12.596
47122W        W18793   5.396  36.491  11.945
47123W        W18794  36.381   9.964  14.445
47124W        W18795  16.679  39.690   2.219
47125W        W18796  21.111   6.262  12.918
47126W        W18797  22.640  39.918  11.552
47127W        W18798  28.679  19.410  10.853
47128W        W18799  15.797  18.320   0.728
47129W        W18800   9.166  41.264   1.831
47130W        W18801  29.755  27.126  14.049
47131W        W18802  44.831  20.990   2.728
47132W        W18803  42.903  38.244   5.001
47133W        W18804  21.553   1.983   0.400
47134W        W18805  16.129   3.052   4.870
47135W        W18806  22.712  17.830  12.446
47136W        W18807   7.192  28.944  12.135
47137W        W18808  26.194  40.423  11.072
47138W        W18809  37.412  43.970   1.319
47139W        W18810  19.680  21.487   4.999
47140W        W18811  29.132  32.055  10.632
47141W        W18812  44.768  21.603  14.950
47142W        W18813  17.017   2.804   3.647
47143W        W18814  40.856  42.770  12.060
47144W        W18815  18.892   6.249   4.727
47145W        W18816   5.762  17.167   0.860
47146W        W18817  25.781  25.177  14.450
47147W        W18818  22.053   8.653   2.116
47148W        W18819   6.304  39.901   4.744
47149W        W18820  13.146   6.195  14.424
47150W        W18821  30.699  28.557   3.095
47151W        W18822  39.471   0.534   1.940
47152W        W18823  20.556  43.786   4.278
47153W        W18824  19.263  41.017   2.606
47154W        W18825  34.810  16.276   1.400
47155W        W18826   2.570  27.078   1.751
47156W        W18827   9.698  16.713   4.600
47157W        W18828  22.694   5.107  10.697
47158W        W18829  13.385  22.550  10.398
47159W        W18830  37.277  23.031   0.352
47160W        W18831  10.608  24.510   1.440
47161W        W18832   2.214   0.167  10.238
47162W        W18833  15.444  38.745   1.458
47163W        W18834  18.244  13.537  13.411
47164W        W18835  24.514   5.803   3.395
47165W        W18836  28.548  36.993  13.778
47166W        W18837   0.790   9.225   4.147
47167W        W18838  14.215  29.867  13.445
47168W        W18839  20.051  25.196  13.376
47169W        W18840  39.472  19.600  12.054
47170W        W18841  36.800  42.999  11.665
47171W        W18842  27.041  30.677   1.834
47172W        W18843  38.864   0.550   0.179
47173W        W18844  38.639  22.231   4.141
47174W        W18845  17.419  24.550  12.541
47175W        W18846   5.699  44.994   2.750
47176W        W18847   9.940  23.429   2.802
47177W        W18848  39.344  24.214  11.919
47178W        W18849  39.053  33.344   4.571
47179W        W18850  25.474  10.694  13.158
47180W        W18851  17.024   0.139  13.394
47181W        W18852  23.649  14.810  14.967
47182W        W18853   5.317   7.227   0.407
47183W        W18854  17.204  18.947  10.271
47184W        W18855  14.243  21.230   0.860
47185W        W18856  22.213  12.822   0.372
47186W        W18857  11.612  39.229  10.696
47187W        W18858   1.873  24.041   3.670
47188W        W18859  20.772  26.869  14.029
47189W        W18860  32.408  11.103   3.767
47190W        W18861  15.257  10.243   2.208
47191W        W18862   3.930  24.125  14.886
47192W        W18863  23.606  16.425  13.302
47193W        W18864  13.407  33.817   4.691
47194W        W18865  14.104  33.498  13.930
47195W        W18866   6.858   8.602   1.360
47196W        W18867  25.945   7.840   4.607
47197W        W18868  44.351  14.889   0.722
47198W        W18869  35.095  27.255  13.933
47199W        W18870  31.479  32.604   1.309
47200W        W18871  33.811  12.142   3.744
47201W        W18872  18.574  41.433  13.898
47202W        W18873   0.456  35.818  10.506
47203W        W18874  35.032  43.761   3.608
47204W        W18875  26.729  35.947  14.544
47205W        W18876  30.951   2.974  13.875
47206W        W18877  34.111  43.339   0.615
47207W        W18878   1.882  36.620  14.056
47208W        W18879  43.024  35.140  12.017
47209W        W18880   0.769  12.796   1.245
47210W        W18881  31.847  13.316   1.312
47211W        W18882  44.407  30.952  13.556
47212W        W18883  22.542  16.023   2.677
47213W        W18884  39.603  23.946   4.536
47214W        W18885  35.521   8.825  13.463
47215W        W18886  36.953  41.474   2.735
47216W        W18887  18.635  32.921   4.184
47217W        W18888   3.916   8.326   2.800
47218W        W18889  28.419  41.987   0.222
47219W        W18890  21.092   5.448   1.386
47220W        W18891  28.024   1.172   5.073
47221W        W18892  31.866  25.772  14.285
47222W        W18893  42.521  20.067   0.476
47223W        W18894  23.158   0.976  13.570
47224W        W18895   3.382  12.910  14.967
47225W        W18896  32.543  19.120   3.851
47226W        W18897   6.790  24.156  11.688
47227W        W18898   9.833  16.144   3.261
47228W        W18899  24.666  23.558   0.502
47229W        W18900  35.819  39.255  12.000
47230W        W18901  38.524  26.508   2.957
47231W        W18902  31.808   3.639  13.807
47232W        W18903  11.799  30.107   4.323
47233W        W18904  20.812  24.531  14.970
47234W        W18905  34.833  24.188  11.238
47235W        W18906   9.852  15.333   2.887
47236W        W18907  40.753  10.342  12.032
47237W        W18908  44.990  29.516  13.801
47238W        W18909   6.032  40.881  14.354
47239W        W18910  18.730  17.322   3.532
47240W        W18911  42.423  36.646  11.041
47241W        W18912  21.133  28.469  13.314
47242W        W18913  24.176  15.849  11.238
47243W        W18914  23.072   8.290  10.724
47244W        W18915   9.838   1.920   2.769
47245W        W18916  38.100   8.928   2.343
47246W        W18917  13.480  13.645   2.699
47247W        W18918  11.682  24.775   1.817
47248W        W18919   8.327  20.115  12.068
47249W        W18920  40.918   0.918  13.461
47250W        W18921  35.075  30.895   2.228
47251W        W18922  16.324  16.168   0.837
47252W        W18923  39.085  34.243   3.663
47253W        W18924  14.636  40.833  11.964
47254W        W18925   8.679  23.647   0.625
47255W        W18926   4.322  38.350  11.896
47256W        W18927  24.947  19.788  12.552
47257W        W18928  32.676  17.571   0.250
47258W        W18929  37.473  42.913  12.641
47259W        W18930  28.557  38.353   0.018
47260W        W18931  12.341  15.232  11.279
47261W        W18932   7.917  18.544  10.626
47262W        W18933   4.234  26.753  14.504
47263W        W18934  18.893  26.338  13.512
47264W        W18935  26.880  27.043   1.803
47265W        W18936  35.472  39.806   2.168
47266W        W18937  10.970  19.982   0.388
47267W        W18938  36.897  43.921  14.265
47268W        W18939  43.404  27.168  11.729
47269W        W18940  10.893  20.681   4.319
47270W        W18941  35.840   2.348   2.343
47271W        W18942  38.728   7.913   0.934
47272W        W18943  18.610  39.334   2.140
47273W        W18944   2.496  43.076   1.339
47274W        W18945  24.480  11.225  11.592
47275W        W18946  14.704  21.088  14.042
47276W        W18947   4.708  14.421  14.890
47277W        W18948  14.248   6.233  13.005
47278W        W18949  22.184  23.666   0.452
47279W        W18950  31.845  34.500   0.379
47280W        W18951  14.657  19.596   0.355
47281W        W18952   2.945  36.836   2.243
47282W        W18953  38.411  43.031   4.114
47283W        W18954  40.763  13.245   3.666
47284W        W18955  36.033  26.054  10.472
47285W        W18956  36.317  35.958  12.983
47286W        W18957  11.665   4.495  13.357
47287W        W18958  14.123  20.668  14.295
47288W        W18959  13.404   8.730   3.162
47289W        W18960   4.060  35.021  11.828
47290W        W18961  35.388  14.394   0.736
47291W        W18962  37.358  26.156  11.520
47292W        W18963  37.646  23.289  13.994
47293W        W18964  25.928  39.946  13.029
47294W        W18965  18.329  12.015  14.969
47295W        W18966  28.506  26.739   1.349
47296W        W18967  38.382  10.927  12.062
47297W        W18968   0.508   6.752   4.369
47298W        W18969   0.554  17.696   3.180
47299W        W18970  21.216  38.612   3.335
47300W        W18971  29.713   6.835   2.652
47301W        W18972  20.049  33.912  13.548
47302W        W18973   6.741  22.484  13.448
47303W        W18974  15.466   0.016  13.435
47304W        W18975   5.115  25.114   2.692
47305W        W18976  37.514  12.883   3.666
47306W        W18977   4.523  24.683   4.145
47307W        W18978  12.905  43.502  13.871
47308W        W18979  42.005  39.594   4.539
47309W        W18980  26.970  21.270   2.342
47310W        W18981  19.103  27.163   2.215
47311W        W18982  29.834  27.797   2.295
47312W        W18983  16.249  34.310  10.416
47313W        W18984  37.023  17.684   4.636
47314W        W18985  19.118  37.373   1.133
47315W        W18986  23.931  34.469   0.776
47316W        W18987   7.790  40.295  14.433
47317W        W18988  20.664   8.726   1.456
47318W        W18989  28.127   6.201  12.445
47319W        W18990  12.052  40.227  13.070
47320W        W18991  11.917  12.290   9.956
47321W        W18992   4.321  23.446   0.061
47322W        W18993  42.273  42.678  14.917
47323W        W18994  18.692  13.624   3.869
47324W        W18995  40.041   8.152  11.613
47325W        W18996  19.670  24.227  13.445
47326W        W18997  35.416  32.176  12.376
47327W        W18998  17.422  44.610  10.613
47328W        W18999   3.509  44.364   1.735
47329W        W19000  14.253  12.790   3.232
47330W        W19001  28.535  25.127  14.998
47331W        W19002  26.515  38.130  14.463
47332W        W19003  39.577   0.951   2.288
47333W        W19004  20.549   1.807  13.987
47334W        W19005  44.916  34.669   0.163
47335W        W19006   8.754  31.407   3.680
47336W        W19007   6.897  34.597   3.328
47337W        W19008  37.622  27.891   3.621
47338W        W19009  22.529  25.928  12.824
47339W        W19010  26.593  44.559   1.430
47340W        W19011   6.863  19.605  13.765
47341W        W19012  17.088  26.496   0.045
47342W        W19013  20.035  16.730   3.187
47343W        W19014  30.059  35.907  11.127
47344W        W19015  24.667  41.354   2.280
47345W        W19016  10.031   6.183  11.631
47346W        W19017  13.253   8.851   5.135
47347W        W19018  13.814  14.425   2.235
47348W        W19019  42.852  40.952   5.775
47349W        W19020  13.194   1.420  12.183
47350W        W19021  43.248  16.675  12.536
47351W        W19022   6.733  24.787   1.606
47352W        W19023  14.275  23.112   4.830
47353W        W19024  11.159  28.850   4.783
47354W        W19025  31.434  19.101  14.579
47355W        W19026  17.764  12.651  14.118
47356W        W19027  20.582   6.009  12.411
47357W        W19028  28.406  24.653  14.725
47358W        W19029  37.889  39.428  12.716
47359W        W19030  26.939  34.876   3.843
47360W        W19031  28.959   9.378   0.022
47361W        W19032  31.142  33.074   2.392
47362W        W19033  44.685  21.557  12.947
47363W        W19034  37.996  18.356  14.480
47364W        W19035   9.029   0.881  11.566
47365W        W19036  10.459  15.621  13.996
47366W        W19037  27.644   1.736   0.734
47367W        W19038  36.031   1.270   4.101
47368W        W19039  32.106  19.606  10.346
47369W        W19040   8.157  35.649  12.493
47370W        W19041  41.176  14.098  10.503
47371W        W19042  22.268  36.491  11.677
47372W        W19043   2.893  36.615  14.420
47373W        W19044  14.578   1.831  13.949
47374W        W19045  16.178  42.523  14.045
47375W        W19046   1.756  20.005  11.618
47376W        W19047   2.439  24.761  13.956
47377W        W19048  31.845  15.555   1.872
47378W        W19049   2.781  14.396   4.078
47379W        W19050   6.445  31.128  14.901
47380W        W19051  37.079  35.109   2.368
47381W        W19052   1.178  25.920   3.147
47382W        W19053  29.523  21.209   4.073
47383W        W19054  42.065  30.069  11.245
47384W        W19055  37.370  44.476  14.801
47385W        W19056  22.029  39.803   0.397
47386W        W19057  20.122  18.061  11.913
47387W        W19058  10.590  33.895   0.639
47388W        W19059  27.905  30.572  13.012
47389W        W19060  23.728  32.324   0.517
47390W        W19061   3.161  33.847  11.027
47391W        W19062  13.681  44.171  11.322
47392W        W19063  20.046  36.783   3.884
47393W        W19064  29.911   2.861   4.119
47394W        W19065  11.189  35.040   0.818
47395W        W19066  36.995   0.810  12.610
47396W        W19067  26.541  41.037   2.381
47397W        W19068  24.509  34.821  12.975
47398W        W19069  24.557  27.384  12.131
47399W        W19070  38.066  12.793   2.595
47400W        W19071  37.977   0.419   1.896
47401W        W19072  32.001  24.226   3.156
47402W        W19073  12.504  42.195  14.264
47403W        W19074  39.829  14.712  13.316
47404W        W19075  41.420  18.032   0.460
47405W        W19076  10.914  32.879   4.674
47406W        W19077  39.575  33.654   2.319
47407W        W19078   1.141   7.944   3.684
47408W        W19079  10.275  27.198  13.344
47409W        W19080   6.238  44.909  12.173
47410W        W19081   3.982  33.620   2.147
47411W        W19082  24.284  32.953   3.539
47412W        W19083  23.544  26.978   1.774
47413W        W19084  31.305  43.298  14.287
47414W        W19085  34.148  44.251   2.274
47415W        W19086  36.890   9.795  12.840
47416W        W19087  40.103  14.515  12.313
47417W        W19088   1.396  22.703   0.691
47418W        W19089  12.365  35.903  11.606
47419W        W19090   1.824  23.994  14.093
47420W        W19091  14.122  11.377   0.254
47421W        W19092  24.957  30.000   3.766
47422W        W19093  24.407  18.663  11.302
47423W        W19094  39.371  28.150  14.826
47424W        W19095   1.504  25.753   2.766
47425W        W19096   0.843   5.086  13.476
47426W        W19097  10.061   3.402   5.110
47427W        W19098   7.427  31.351  10.965
47428W        W19099   0.825  14.128  14.874
47429W        W19100   7.020  33.400  10.940
47430W        W19101  18.114  37.081  10.890
47431W        W19102  42.419   5.705   4.093
47432W        W19103   7.212  25.929   0.981
47433W        W19104  31.345   2.946   0.162
47434W        W19105   6.361   2.519  12.278
47435W        W19106  31.690   6.402  14.973
47436W        W19107   4.296  16.603  12.549
47437W        W19108   8.390  35.664  12.959
47438W        W19109  34.582  30.452   1.839
47439W        W19110   5.402  31.333  11.153
47440W        W19111  42.856  32.055   4.715
47441W        W19112  11.660  40.240   0.976
47442W        W19113  44.090  21.037  14.845
47443W        W19114  16.273  44.932  12.977
47444W        W19115  27.843   0.274  10.776
47445W        W19116  34.088  13.306   3.161
47446W        W19117   3.356  17.067  13.289
47447W        W19118  32.439  32.040  12.811
47448W        W19119  39.634   6.721   1.704
47449W        W19120   3.507  17.245   3.236
47450W        W19121  21.012  20.596   1.674
47451W        W19122  37.597  13.519  11.877
47452W        W19123  18.734  23.550  12.618
47453W        W19124   0.960  22.334  12.574
47454W        W19125   0.882  17.219  12.407
47455W        W19126   2.748  32.373  10.493
47456W        W19127   7.601  31.481   1.740
47457W        W19128   0.171  19.037   3.133
47458W        W19129  38.396  32.191  10.106
47459W        W19130  25.260  40.965   2.974
47460W        W19131  13.510  14.263  13.473
47461W        W19132  30.680  43.761   1.334
47462W        W19133  22.630  31.151   3.157
47463W        W19134  35.853  24.555  10.694
47464W        W19135  14.857  39.527  14.560
47465W        W19136  22.176  33.397   1.931
47466W        W19137  26.226  35.641  13.425
47467W        W19138  26.114  26.082  12.610
47468W        W19139   6.171  37.980  11.861
47469W        W19140  42.281  24.488  13.019
47470W        W19141  41.954  27.432   0.403
47471W        W19142  30.946   9.337  13.011
47472W        W19143  13.828  26.737   4.209
47473W        W19144  34.093  32.374   4.779
47474W        W19145  43.355  41.497   9.756
47475W        W19146  44.746  19.243  13.524
47476W        W19147   8.919  15.951  11.118
47477W        W19148   4.222  37.530   4.719
47478W        W19149   4.278  42.792   1.592
47479W        W19150  34.353  23.399  13.902
47480W        W19151  18.966   4.282  12.341
47481W        W19152  43.934  43.977  14.959
47482W        W19153  42.933  36.639  12.407
47483W        W19154  15.683   7.739  10.760
47484W        W19155  41.799  44.000  13.039
47485W        W19156  12.797  39.536  13.936
47486W        W19157  29.221   9.805  12.880
47487W        W19158  41.294  19.113  12.989
47488W        W19159  25.651  14.239  11.756
47489W        W19160  17.283  10.602   2.957
47490W        W19161   7.544  31.714   0.458
47491W        W19162  11.489  10.024   4.242
47492W        W19163   7.392  18.521  14.793
47493W        W19164  26.081  44.931  12.752
47494W        W19165  29.459  33.703  11.264
47495W        W19166  25.720  13.571   3.145
47496W        W19167  15.599  23.992   0.836
47497W        W19168   7.184  28.789   2.333
47498W        W19169  38.187  22.317  12.902
47499W        W19170  34.869  21.512   0.208
47500W        W19171  26.509  29.960  10.637
47501W        W19172   5.519  15.636   4.365
47502W        W19173  20.642  22.976  11.019
47503W        W19174  18.176   1.085   1.382
47504W        W19175   0.972  14.999  11.853
47505W        W19176   2.225  33.001   1.338
47506W        W19177  22.731  29.561   3.310
47507W        W19178  14.100  41.927  11.143
47508W        W19179   3.049  15.153   0.761
47509W        W19180  34.505  41.035  12.961
47510W        W19181  14.876  36.620  12.997
47511W        W19182  35.108  28.419   1.038
47512W        W19183  22.156  18.207  13.825
47513W        W19184  21.005  16.545   4.160
47514W        W19185  26.148  15.563  11.639
47515W        W19186  31.262  32.168  14.421
47516W        W19187  20.528  35.712   1.452
47517W        W19188  30.096  13.345  14.037
47518W        W19189   4.316  10.952   4.561
47519W        W19190  28.043  12.166   1.441
47520W        W19191   6.722   0.907  10.557
47521W        W19192  42.948  33.333  13.643
47522W        W19193   4.746  33.781  13.435
47523W        W19194  36.333   0.969  11.208
47524W        W19195   1.880  12.150   0.121
47525W        W19196  17.826   2.337   4.538
47526W        W19197  27.078  15.318   3.373
47527W        W19198  40.411  36.789   3.125
47528W        W19199   6.508  18.650   5.328
47529W        W19200   2.651  20.481  12.275
47530W        W19201   1.994   7.751  12.920
47531W        W19202  11.657   6.982   0.367
47532W        W19203  25.211  32.630   3.596
47533W        W19204  20.512   3.164   4.146
47534W        W19205   3.719  33.513   1.171
47535W        W19206  22.257  20.528   2.224
47536W        W19207  10.692  22.310   2.077
47537W        W19208  27.890  21.566  11.061
47538W        W19209  17.013  21.805  10.761
47539W        W19210  39.507  43.031  14.854
47540W        W19211  44.456  23.046   4.249
47541W        W19212  37.270   3.331   2.713
47542W        W19213  24.021   0.933  11.545
47543W        W19214  17.610  43.308   0.459
47544W        W19215   0.976  41.981  11.549
47545W        W19216  11.710  15.627  12.850
47546W        W19217  28.166  28.841   1.612
47547W        W19218  40.312  37.651  11.933
47548W        W19219  42.028  29.522  11.234
47549W        W19220  14.143  34.404   4.407
47550W        W19221  42.019   1.760  11.675
47551W        W19222   8.618  29.021  11.204
47552W        W19223  16.788  38.504  10.654
47553W        W19224   4.379   2.357  10.985
47554W        W19225   1.708   8.405  13.878
47555W        W19226   0.651   9.765   2.603
47556W        W19227  42.242  42.867   3.267
47557W        W19228  24.013  43.816  13.462
47558W        W19229  12.465  12.064   4.421
47559W        W19230  18.178  43.744  14.899
47560W        W19231  24.582   7.522   4.445
47561W        W19232  39.346  22.196   0.587
47562W        W19233  40.786  15.562   0.417
47563W        W19234  13.838  37.075   4.986
47564W        W19235  42.169  21.942  12.369
47565W        W19236  36.339   2.159  10.558
47566W        W19237  25.419  39.955   4.093
47567W        W19238  13.841   0.961  10.733
47568W        W19239  18.975  22.501  12.034
47569W        W19240  17.826  27.986   3.779
47570W        W19241   0.853  33.914   5.113
47571W        W19242  30.985   4.122  11.795
47572W        W19243   6.364   8.205   4.780
47573W        W19244   5.830  42.748  12.096
47574W        W19245  40.476  22.621   3.788
47575W        W19246  21.210  30.873  13.590
47576W        W19247  31.090  19.926  11.563
47577W        W19248  16.777  42.322  10.542
47578W        W19249  29.396  29.367  14.832
47579W        W19250  32.394   3.448  13.138
47580W        W19251  28.986  23.722  11.611
47581W        W19252  43.009  25.643  13.725
47582W        W19253  37.301  17.170   2.240
47583W        W19254  38.537  40.149   1.464
47584W        W19255  16.379  17.326  11.550
47585W        W19256  25.017   4.596   0.764
47586W        W19257  44.318  40.378   4.575
47587W        W19258  23.127  32.071  13.867
47588W        W19259  28.617  17.456   0.983
47589W        W19260  39.782   9.958  10.984
47590W        W19261  20.051  42.209  14.261
47591W        W19262  15.844   1.236  14.184
47592W        W19263   1.671  33.359  14.341
47593W        W19264   5.068   5.749   4.260
47594W        W19265  37.977  39.091   2.171
47595W        W19266   4.192   9.350   3.581
47596W        W19267   9.687   7.701   4.107
47597W        W19268  41.633  19.820  10.666
47598W        W19269   9.773  12.865  10.874
47599W        W19270   1.047   4.519   0.769
47600W        W19271  29.710   2.200   0.366
47601W        W19272  17.384  30.151   0.372
47602W        W19273  34.580  43.322   2.122
47603W        W19274  32.001  31.064   2.497
47604W        W19275   9.216  25.174  11.667
47605W        W19276  26.337  12.073   5.225
47606W        W19277  40.811  26.019  13.097
47607W        W19278  16.618  13.340   0.456
47608W        W19279  40.005  36.915  10.531
47609W        W19280   1.542  27.522   0.729
47610W        W19281  18.196  28.398  13.532
47611W        W19282  36.341   5.619   1.741
47612W        W19283  21.014  10.641  13.513
47613W        W19284   4.287  25.680  14.424
47614W        W19285  25.148  13.076  10.489
47615W        W19286  43.401  19.749  10.579
47616W        W19287  42.081   3.775   1.734
47617W        W19288  41.872  32.362   0.204
47618W        W19289   3.324  29.058  14.133
47619W        W19290   2.501   4.168  11.217
47620W        W19291   6.687  37.927  13.359
47621W        W19292  19.091  13.699  10.812
47622W        W19293  29.050  28.263  12.915
47623W        W19294  15.726  12.142  14.379
47624W        W19295  37.467  24.432   0.381
47625W        W19296  40.463  12.300   4.377
47626W        W19297  36.066  31.474   0.002
47627W        W19298  38.402  19.613   4.592
47628W        W19299   8.923   7.430  14.356
47629W        W19300  31.947  31.439  12.352
47630W        W19301   8.221  44.700   0.678
47631W        W19302  39.778  27.398   0.252
47632W        W19303  25.058  25.688  11.891
47633W        W19304  24.502  30.655   1.915
47634W        W19305   7.695  22.280  10.534
47635W        W19306  33.735  23.932   3.642
47636W        W19307   7.868  30.708   4.145
47637W        W19308  33.413   2.339   2.268
47638W        W19309  12.738  42.526  14.603
47639W        W19310   0.438  41.941   3.718
47640W        W19311   6.331  34.791   0.448
47641W        W19312  12.444  15.626   3.144
47642W        W19313  22.726   6.131   0.418
47643W        W19314  31.507  31.542  11.199
47644W        W19315  32.865  14.043   2.166
47645W        W19316  40.756  44.019   1.822
47646W        W19317  37.812  23.093  12.541
47647W        W19318  27.118  30.394   5.098
47648W        W19319  14.318  19.070   3.204
47649W        W19320  38.010  15.755  10.484
47650W        W19321  40.976  36.286   4.206
47651W        W19322  23.044  33.304   1.962
47652W        W19323  34.415  19.462  13.357
47653W        W19324  11.417  23.187  14.996
47654W        W19325  31.409  13.154   4.699
47655W        W19326  19.940  14.238   3.214
47656W        W19327  10.930  37.300   2.042
47657W        W19328  24.954   8.897   4.728
47658W        W19329  38.000  20.051   4.143
47659W        W19330   3.001  31.476  12.716
47660W        W19331  37.150  25.459   3.784
47661W        W19332  12.095  12.631  12.976
47662W        W19333  23.686  16.822   1.273
47663W        W19334  11.353   2.751  12.402
47664W        W19335   6.764  35.906  14.357
47665W        W19336  20.071  33.845  14.511
47666W        W19337  43.558  43.478   3.472
47667W        W19338  39.562   5.750  14.003
47668W        W19339  42.030  13.866   2.719
47669W        W19340   5.435  12.307   2.344
47670W        W19341  35.057  21.691  10.730
47671W        W19342  44.894  32.913   3.396
47672W        W19343  15.329   9.919   3.739
47673W        W19344   8.302   5.464  11.177
47674W        W19345  17.446  14.605   1.386
47675W        W19346  34.491  39.886  13.958
47676W        W19347  16.578  20.041   3.266
47677W        W19348  43.357  39.929   4.525
47678W        W19349  39.040  14.569   0.887
47679W        W19350  41.711  40.413   1.879
47680W        W19351   9.254  23.249   3.657
47681W        W19352  31.565  35.877   4.783
47682W        W19353  36.317   4.954  11.158
47683W        W19354  15.543   6.747   4.193
47684W        W19355  37.936  25.412  14.072
47685W        W19356   7.684  20.798  12.055
47686W        W19357  18.084  39.581  10.611
47687W        W19358   9.089  21.683   2.768
47688W        W19359  34.982  25.780  12.951
47689W        W19360  24.084   5.464  14.672
47690W        W19361  19.632  33.948   1.644
47691W        W19362  33.583  15.522  12.001
47692W        W19363  16.836  29.911   1.684
47693W        W19364  40.935  36.380   1.775
47694W        W19365   1.084  32.579   0.487
47695W        W19366  13.802  39.078   0.899
47696W        W19367  20.844  44.689  13.990
47697W        W19368  10.745   8.218  12.439
47698W        W19369  42.523   7.670  12.334
47699W        W19370  13.749  25.235  11.626
47700W        W19371   1.650  29.030   3.363
47701W        W19372  11.793   3.351   3.978
47702W        W19373  22.760  36.003  13.349
47703W        W19374  26.701  10.393   0.801
47704W        W19375  23.111   8.887  14.722
47705W        W19376  38.442  11.124   0.295
47706W        W19377  39.955  25.711   3.248
47707W        W19378  20.307  36.984   1.742
47708W        W19379  28.172  13.274   0.746
47709W        W19380  19.052  14.915   5.323
47710W        W19381  35.893  15.281  14.498
47711W        W19382  10.228   7.591   2.854
47712W        W19383  35.271  21.794   0.343
47713W        W19384  11.408   0.985  12.985
47714W        W19385   3.408  39.010   4.595
47715W        W19386  18.172  20.190   0.301
47716W        W19387  28.075  29.979  12.169
47717W        W19388  28.912  27.498   2.196
47718W        W19389  41.432  42.411  11.390
47719W        W19390  29.866  16.175  11.147
47720W        W19391  26.184  12.150  11.665
47721W        W19392  44.271  26.152  13.116
47722W        W19393  11.921  41.728   3.617
47723W        W19394  44.620   1.928   2.777
47724W        W19395  41.426  12.586  14.342
47725W        W19396  31.866  36.160  12.211
47726W        W19397  27.583  14.778  11.112
47727W        W19398  27.650   4.761  10.403
47728W        W19399   6.740  24.432  14.397
47729W        W19400  29.981  29.714   2.451
47730W        W19401  29.960  17.789   0.693
47731W        W19402  35.148   0.055  10.044
47732W        W19403  18.035   5.233  12.284
47733W        W19404  13.599  11.613  10.617
47734W        W19405  21.070  15.098  11.616
47735W        W19406   6.894   4.868   4.216
47736W        W19407  13.839  22.456  14.497
47737W        W19408   2.702   1.636   0.973
47738W        W19409   1.061   7.316  10.178
47739W        W19410  44.843   3.606  13.993
47740W        W19411  38.424  33.892  12.144
47741W        W19412  26.879   6.410   2.553
47742W        W19413   5.240  12.122  14.819
47743W        W19414   3.398  12.398  14.952
47744W        W19415  44.032  35.597  14.522
47745W        W19416  44.412   7.763  11.210
47746W        W19417  26.055  31.046   1.121
47747W        W19418  10.218  22.637   4.710
47748W        W19419  13.694  23.061  14.032
47749W        W19420  17.111  13.088  10.328
47750W        W19421   1.351  24.695   1.673
47751W        W19422  35.373  42.016   0.257
47752W        W19423  10.095  26.962   0.721
47753W        W19424   4.877  39.847  14.780
47754W        W19425  23.613  24.500   2.398
47755W        W19426   9.264  26.698   4.354
47756W        W19427  34.698  17.328  12.315
47757W        W19428  44.865  23.050  12.513
47758W        W19429  43.256  13.511   0.941
47759W        W19430  38.837  28.247  14.050
47760W        W19431  30.458  32.197  12.889
47761W        W19432  13.779  15.379  14.372
47762W        W19433   2.805  39.737   3.147
47763W        W19434  15.772  42.084   3.178
47764W        W19435  30.952  25.668  10.236
47765W        W19436  16.004  42.785  10.698
47766W        W19437  37.959  25.803   3.196
47767W        W19438  23.269  25.201  11.792
47768W        W19439  22.481  24.688  11.921
47769W        W19440  18.262  31.336   2.231
47770W        W19441  14.323  41.475  11.222
47771W        W19442  32.354  39.033  11.609
47772W        W19443  12.076  18.699   4.382
47773W        W19444  28.884  18.581   0.369
47774W        W19445  22.057  42.701  13.423
47775W        W19446  31.211  39.617   0.889
47776W        W19447   6.404  24.554   0.733
47777W        W19448  30.856  12.101   1.991
47778W        W19449   3.376  13.840  13.874
47779W        W19450  15.400   1.974  10.607
47780W        W19451  22.760  27.797  11.496
47781W        W19452   2.422  39.880  12.014
47782W        W19453  34.027  17.881  10.734
47783W        W19454  44.455   7.787  14.774
47784W        W19455  26.345  32.072  11.761
47785W        W19456  10.949  34.217  13.039
47786W        W19457  22.789  37.295   1.534
47787W        W19458   2.797   5.199  11.746
47788W        W19459  40.429   7.469   0.395
47789W        W19460   0.242  19.743  12.967
47790W        W19461  16.820  39.544   0.352
47791W        W19462  23.571  44.570  14.442
47792W        W19463   4.717  30.610   3.673
47793W        W19464  24.113  15.572  10.669
47794W        W19465  27.566  41.815  11.614
47795W        W19466  44.869  31.551   4.695
47796W        W19467  37.541  15.373   3.815
47797W        W19468  25.263  13.842  14.483
47798W        W19469  17.890  22.252   1.694
47799W        W19470  21.141  40.246   4.979
47800W        W19471  17.510  41.275  14.593
47801W        W19472  19.520  11.645  11.335
47802W        W19473  37.780  24.517   2.605
47803W        W19474  18.209  32.117   2.658
47804W        W19475   5.217   4.836   3.244
47805W        W19476  37.107  10.449   2.620
47806W        W19477  29.136  44.804  10.787
47807W        W19478  33.084   1.780   1.192
47808W        W19479  12.373  27.913   1.390
47809W        W19480   2.623   0.597   3.265
47810W        W19481   1.773  43.448   0.888
47811W        W19482  44.893  16.569  10.799
47812W        W19483  10.739   9.992  10.430
47813W        W19484  40.439  24.093   3.218
47814W        W19485  18.561  16.298   3.254
47815W        W19486  38.292   2.875   4.525
47816W        W19487   9.628  20.300   0.765
47817W        W19488  35.370  18.145  14.862
47818W        W19489  36.265  18.245  11.091
47819W        W19490  23.068  41.396  10.766
47820W        W19491  26.207  10.702   1.159
47821W        W19492  20.176   6.941   2.724
47822W        W19493  44.911  15.600  11.484
47823W        W19494   9.272  34.946  12.912
47824W        W19495  26.571  41.844   1.509
47825W        W19496  33.615  16.056  11.975
47826W        W19497  12.381  24.150   1.419
47827W        W19498  17.977  18.236   2.788
47828W        W19499   0.505  18.787   2.368
47829W        W19500  43.653  23.058   2.278
47830W        W19501  34.487  23.247   0.834
47831W        W19502   2.744   5.171   3.301
47832W        W19503  38.446   2.007  14.331
47833W        W19504  30.682  35.306   1.511
47834W        W19505  22.236  25.385  14.285
47835W        W19506   4.928  29.428  14.314
47836W        W19507  19.843  32.478   4.598
47837W        W19508  17.066  34.441  10.677
47838W        W19509  36.468  36.445   1.159
47839W        W19510  29.816   0.151   0.556
47840W        W19511  41.799  38.579   5.464
47841W        W19512  17.549  13.102   4.308
47842W        W19513  24.032  20.096  10.688
47843W        W19514  44.914  36.580   1.790
47844W        W19515  40.833  43.905  10.535
47845W        W19516   9.355  26.125   4.094
47846W        W19517   0.041  29.209  12.295
47847W        W19518  26.158  35.997   0.935
47848W        W19519  32.033  21.255  12.397
47849W        W19520  34.490  43.873  13.550
47850W        W19521   3.497   2.409  14.186
47851W        W19522  43.505   6.281  11.175
47852W        W19523  35.245  42.725  10.936
47853W        W19524  22.758  18.295  11.063
47854W        W19525  23.605   9.605  14.786
47855W        W19526   8.693  30.452  13.393
47856W        W19527  36.436  13.481   1.981
47857W        W19528  21.986  29.443   4.144
47858W        W19529  19.582  37.808   0.978
47859W        W19530  22.165   5.567   2.939
47860W        W19531  30.081  38.831  11.238
47861W        W19532  27.719  27.858   0.979
47862W        W19533  42.611  14.028   4.631
47863W        W19534  16.733  14.683  13.279
47864W        W19535  22.748  19.999   3.586
47865W        W19536  36.495  32.066   3.663
47866W        W19537   8.609  43.477  12.451
47867W        W19538  36.100   2.926  14.821
47868W        W19539  17.599   3.840  10.699
47869W        W19540  41.932  27.535  13.565
47870W        W19541  34.122   8.481   3.004
47871W        W19542   7.434  23.485   4.000
47872W        W19543  40.882  37.961   3.123
47873W        W19544  24.758  21.791  12.827
47874W        W19545   3.026  27.138   4.179
47875W        W19546  31.251  32.425  14.922
47876W        W19547  20.553  38.074   2.736
47877W        W19548  30.438   0.704  11.242
47878W        W19549   6.406  31.355  12.987
47879W        W19550  32.578  18.250  14.799
47880W        W19551  26.167  14.694   0.245
47881W        W19552  16.629  17.083  11.163
47882W        W19553  18.202  34.932  10.693
47883W        W19554  18.462  27.913  14.478
47884W        W19555  43.333  22.637  12.653
47885W        W19556  41.852  18.263   3.924
47886W        W19557  23.182  39.488   2.838
47887W        W19558  42.407   5.360  11.401
47888W        W19559  33.998  10.797   2.772
47889W        W19560  19.546  15.555   2.306
47890W        W19561  32.239  21.555   2.122
47891W        W19562  11.642  34.369   3.622
47892W        W19563  42.849  33.348  11.401
47893W        W19564  11.775  16.811  13.413
47894W        W19565   0.397  43.596   1.289
47895W        W19566  29.005   8.395  12.918
47896W        W19567  41.421  41.088  12.403
47897W        W19568   7.785  30.260  13.838
47898W        W19569   5.869  22.900  12.079
47899W        W19570  11.099  27.837  13.577
47900W        W19571  40.341  35.700   2.829
47901W        W19572  19.622  24.909   1.320
47902W        W19573  27.786   1.448   3.563
47903W        W19574  39.466  19.709   3.225
47904W        W19575  44.916  20.706  14.945
47905W        W19576  23.497  22.655   4.142
47906W        W19577   7.758   4.692  13.465
47907W        W19578   8.706   6.145   3.369
47908W        W19579   1.350  42.918   4.654
47909W        W19580  38.686  34.626  11.157
47910W        W19581  33.111  43.640   4.203
47911W        W19582  35.033  40.314  10.013
47912W        W19583  11.120  24.008  14.407
47913W        W19584   6.244  23.896   3.133
47914W        W19585  39.220  20.143  10.405
47915W        W19586  18.805  36.889   4.308
47916W        W19587  14.284   5.209  11.051
47917W        W19588  13.315  35.781   4.226
47918W        W19589  43.992  15.850  13.014
47919W        W19590  23.626   1.003  12.383
47920W        W19591  16.571  19.732   0.500
47921W        W19592  23.202  34.560   3.662
47922W        W19593  24.790  16.093   0.427
47923W        W19594  38.819  16.906  10.681
47924W        W19595  41.872  44.540   4.187
47925W        W19596  32.683  38.987  13.780
47926W        W19597  42.348  30.959  11.479
47927W        W19598  44.455  30.338  12.351
47928W        W19599   6.471  29.945  14.318
47929W        W19600   0.707  16.672   4.337
47930W        W19601  36.524  42.036   3.182
47931W        W19602  28.963  10.606   0.919
47932W        W19603  39.423  26.354  12.271
47933W        W19604   2.923  39.490  11.555
47934W        W19605   2.909  15.819   3.333
47935W        W19606  13.141  36.969   2.337
47936W        W19607  12.163   4.802  10.404
47937W        W19608  30.927  15.934  11.191
47938W        W19609  42.553  28.767   3.549
47939W        W19610  18.555  27.951  10.555
47940W        W19611  16.800   5.545  14.436
47941W        W19612  37.571  24.243   3.584
47942W        W19613  42.882  27.464   0.871
47943W        W19614  34.972  35.024   0.871
47944W        W19615  21.664  26.137  12.525
47945W        W19616   4.232  28.676  10.992
47946W        W19617  27.840  13.822  12.486
47947W        W19618  36.095  13.990   3.743
47948W        W19619  22.663  13.627   1.499
47949W        W19620   5.458  26.923  14.354
47950W        W19621  30.238   3.311  11.347
47951W        W19622   2.850  28.672  11.676
47952W        W19623  38.016  29.663   4.678
47953W        W19624  28.186  28.967   3.414
47954W        W19625  17.258  26.715   3.536
47955W        W19626  35.075  24.929  10.663
47956W        W19627  15.658  12.621  10.604
47957W        W19628   9.414  11.700  10.716
47958W        W19629  16.267  26.205  12.183
47959W        W19630  38.403  40.768  11.492
47960W        W19631   7.665  20.610  14.806
47961W        W19632  41.805  23.417   3.795
47962W        W19633  21.032  35.627  12.995
47963W        W19634  18.262  28.146   0.446
47964W        W19635  30.990  10.151  11.644
47965W        W19636  23.766   1.422  11.510
47966W        W19637  20.030  20.579   0.634
47967W        W19638   3.321  44.193  14.456
47968W        W19639  11.582  13.171   0.542
47969W        W19640  13.050   7.926   4.364
47970W        W19641  22.806  24.041  10.596
47971W        W19642  11.078   0.934  10.985
47972W        W19643  16.477  34.081  13.803
47973W        W19644  36.471  21.573  14.419
47974W        W19645  42.300  28.465  14.687
47975W        W19646  17.480  28.933  14.871
47976W        W19647  11.248  13.077   4.584
47977W        W19648   2.625  24.880   1.211
47978W        W19649  40.557  42.068  10.869
47979W        W19650  23.005  29.955  10.777
47980W        W19651  30.547   2.824  14.250
47981W        W19652  25.966  35.053   0.723
47982W        W19653  35.327  40.993   4.159
47983W        W19654  22.235  14.390   2.349
47984W        W19655  26.903  19.863   1.645
47985W        W19656   4.479  32.413  11.054
47986W        W19657  18.607  13.293   1.870
47987W        W19658  20.774  10.207   2.934
47988W        W19659  25.118  29.825  12.429
47989W        W19660  26.242  21.491  13.531
47990W        W19661   4.496   3.412  14.362
47991W        W19662  26.733  40.206   0.750
47992W        W19663   2.191  11.134   3.969
47993W        W19664  15.092  38.647   0.546
47994W        W19665  26.250   1.453   0.339
47995W        W19666  21.433  36.866   3.314
47996W        W19667  21.895   8.837  10.704
47997W        W19668  30.614   3.691  12.028
47998W        W19669  37.915  23.371  10.134
47999W        W19670  12.534  10.483   3.133
48000W        W19671   7.270  36.581   0.872
48001W        W19672  44.992   9.320   0.682
48002W        W19673  27.680   8.826   2.311
48003W        W19674  23.561  25.634   4.642
48004W        W19675  30.362  37.881  11.857
48005W        W19676  21.647  16.991  12.142
48006W        W19677  35.079  32.956  11.661
48007W        W19678   9.225  37.356  12.536
48008W        W19679  43.307  19.055  11.566
48009W        W19680  41.112  15.257   1.282
48010W        W19681  33.094  30.780   3.178
48011W        W19682  15.486  23.866  11.185
48012W        W19683  33.348  31.059   1.869
48013W        W19684  13.793   7.781  11.149
48014W        W19685  14.136  24.582   3.145
48015W        W19686  22.227   0.452  12.409
48016W        W19687  16.820  20.033  11.935
48017W        W19688  41.412  15.302  14.934
48018W        W19689  36.978  17.852   3.323
48019W        W19690  40.964  30.670   0.739
48020W        W19691   5.331  16.282   2.371
48021W        W19692   9.771  22.624   0.374
48022W        W19693   1.815  10.798  10.985
48023W        W19694   8.171  43.134  12.476
48024W        W19695  14.760  38.789  10.956
48025W        W19696  12.604  13.154   2.230
48026W        W19697  34.002  14.039   4.138
48027W        W19698  18.109  44.189   1.317
48028W        W19699  41.295  23.762  14.900
48029W        W19700  33.953  24.252   1.423
48030W        W19701   9.193   5.399   4.037
48031W        W19702  35.442  12.343   4.536
48032W        W19703  30.028   2.187  14.753
48033W        W19704  38.557  44.775   3.323
48034W        W19705  20.195  16.242   3.197
48035W        W19706  21.062   2.814   4.394
48036W        W19707  12.709  39.925  12.574
48037W        W19708   3.950  33.374   0.174
48038W        W19709   5.506  27.600  11.602
48039W        W19710  35.600  28.497   0.829
48040W        W19711  32.677  15.846  14.453
48041W        W19712   6.885  12.241   4.663
48042W        W19713  29.478   1.309   1.946
48043W        W19714   5.419  11.157  12.329
48044W        W19715   1.786  13.842  11.069
48045W        W19716   5.908  17.808  14.312
48046W        W19717  35.101  23.088  10.702
48047W        W19718  27.626  27.700   1.476
48048W        W19719  31.658  21.571  12.253
48049W        W19720  16.649   6.072   2.655
48050W        W19721   3.522   1.882   1.266
48051W        W19722  22.797   9.282   1.250
48052W        W19723  26.455  26.627  10.934
48053W        W19724  19.156  25.756  10.231
48054W        W19725   4.818  39.870   4.650
48055W        W19726  18.195  44.504   3.264
48056W        W19727  27.754  36.604   3.587
48057W        W19728  38.574  43.384   3.709
48058W        W19729  22.886  22.924  14.791
48059W        W19730  43.956  33.001   4.122
48060W        W19731  39.980  38.916  12.339
48061W        W19732   2.268  21.594  11.909
48062W        W19733   2.768  41.771  11.913
48063W        W19734  17.783  37.768  14.550
48064W        W19735  33.616  27.516  12.046
48065W        W19736  40.312   4.570  13.928
48066W        W19737   1.427  16.522   3.794
48067W        W19738  18.778  34.137  10.493
48068W        W19739  18.163   0.319  11.935
48069W        W19740  27.704  34.034   2.920
48070W        W19741  13.698   1.170  12.490
48071W        W19742  40.858  16.526  12.496
48072W        W19743  27.929  41.785   0.258
48073W        W19744  30.209  31.415   4.695
48074W        W19745  25.506  17.781  10.679
48075W        W19746  18.524  11.871  11.387
48076W        W19747  29.738  41.520  11.015
48077W        W19748  26.511  28.505  13.588
48078W        W19749  32.503   3.527  13.647
48079W        W19750  41.862  28.744  14.815
48080W        W19751   4.016  18.672  13.243
48081W        W19752   0.385  29.452   0.968
48082W        W19753  29.622  21.649  12.853
48083W        W19754  28.534  15.813   0.533
48084W        W19755  12.866   4.309   4.186
48085W        W19756  10.314  32.600   0.519
48086W        W19757  20.753  43.220  11.022
48087W        W19758  17.255  22.758  10.391
48088W        W19759  36.765  38.413   0.818
48089W        W19760  41.909  31.913  14.279
48090W        W19761   6.929  42.364  12.806
48091W        W19762   4.928  34.126   3.459
48092W        W19763  29.979  41.016   1.875
48093W        W19764  28.199  41.699   4.581
48094W        W19765  37.666  43.943   0.852
48095W        W19766  27.581   2.666   0.143
48096W        W19767  38.329  16.397   2.655
48097W        W19768  39.895   2.708  11.413
48098W        W19769   2.246   0.242   3.166
48099W        W19770  14.393  36.732   1.530
48100W        W19771  33.122  11.716   0.466
48101W        W19772  43.515  43.304  13.303
48102W        W19773  19.523  32.445  13.868
48103W        W19774  30.496  41.366   0.966
48104W        W19775  21.997  23.510  12.657
48105W        W19776  24.012  20.751   1.874
48106W        W19777  13.772  26.369  12.119
48107W        W19778  22.619  26.674  13.326
48108W        W19779  43.709   2.180  11.729
48109W        W19780   3.513  19.837  13.671
48110W        W19781   7.821  44.945   3.830
48111W        W19782  41.526  22.485  14.426
48112W        W19783  24.963  16.823   1.577
48113W        W19784  14.523   7.633   4.061
48114W        W19785  32.342  30.154   2.368
48115W        W19786  42.986  26.745  10.685
48116W        W19787   4.393  28.342   0.858
48117W        W19788  36.562  11.547  12.598
48118W        W19789  37.640  17.329  12.625
48119W        W19790   9.611  12.422   0.931
48120W        W19791  41.028  31.602   3.158
48121W        W19792  29.934  31.078   1.038
48122W        W19793  15.263   8.060   0.843
48123W        W19794  32.526  24.223  11.177
48124W        W19795  35.574  12.080  12.517
48125W        W19796  15.390  10.836  13.035
48126W        W19797  24.938  14.599  10.748
48127W        W19798  41.857  17.652   0.902
48128W        W19799  38.949  28.013  14.526
48129W        W19800  32.574  41.077  14.801
48130W        W19801  28.190  22.480   3.728
48131W        W19802  43.413  44.802   3.286
48132W        W19803  23.651   0.634  10.731
48133W        W19804  26.933  44.398  11.538
48134W        W19805  40.499  40.743  12.037
48135W        W19806  21.767  25.699  14.341
48136W        W19807  36.917  33.471   3.218
48137W        W19808  20.625  31.096   1.132
48138W        W19809   2.758  37.337   3.890
48139W        W19810  26.900  42.739  12.033
48140W        W19811  24.279  38.109  12.828
48141W        W19812  25.568  20.308  13.336
48142W        W19813  17.467  39.405  14.822
48143W        W19814  28.547  33.496   2.367
48144W        W19815  13.175  22.164   3.881
48145W        W19816  21.859  38.857  11.924
48146W        W19817   5.484  29.722  14.970
48147W        W19818  37.330  24.652  12.548
48148W        W19819  10.366  44.837   2.616
48149W        W19820   0.287  16.709   4.064
48150W        W19821  36.973  42.418   0.968
48151W        W19822   2.960  35.542  11.187
48152W        W19823  21.650  42.483  11.387
48153W        W19824  41.753  26.028   2.710
48154W        W19825   8.209  32.280   2.138
48155W        W19826   7.427   8.918  11.081
48156W        W19827   5.511  37.841  12.393
48157W        W19828   9.249  33.875   2.466
48158W        W19829   2.220  15.069   4.249
48159W        W19830  38.077  24.000   1.287
48160W        W19831  31.900  33.031  12.917
48161W        W19832  14.752   2.718   1.572
48162W        W19833  42.316  23.278   1.836
48163W        W19834   1.400   6.132  11.481
48164W        W19835   5.321  27.912   1.673
48165W        W19836   2.498   0.396  14.892
48166W        W19837  23.248  21.727   0.054
48167W        W19838  10.484   1.262  11.385
48168W        W19839  44.893  19.151   4.618
48169W        W19840  25.957   4.461  10.785
48170W        W19841  31.649  39.122  14.811
48171W        W19842   6.636  39.755  13.914
48172W        W19843  31.898   6.304  13.585
48173W        W19844  13.325  36.943   0.259
48174W        W19845  19.679   5.691   2.594
48175W        W19846   7.280  22.340   3.154
48176W        W19847   4.094  35.889   4.632
48177W        W19848  38.815  22.104  10.093
48178W        W19849  30.561  37.977   1.509
48179W        W19850  31.616  38.570  11.602
48180W        W19851  20.219  13.873   2.277
48181W        W19852   0.475  25.107   0.946
48182W        W19853   5.473  35.762   3.605
48183W        W19854  41.707  40.357   5.031
48184W        W19855  26.068  23.662  12.082
48185W        W19856  10.161   6.283  14.823
48186W        W19857  16.849  10.368   3.239
48187W        W19858  16.791  39.176  12.363
48188W        W19859   7.692  34.037   3.671
48189W        W19860  25.750  33.206  13.884
48190W        W19861  43.540  27.216   1.424
48191W        W19862  28.554   3.973   3.627
48192W        W19863   7.839  36.138  11.640
48193W        W19864  42.845  31.440  12.988
48194W        W19865   7.005   0.772   4.260
48195W        W19866  38.361   0.892  10.741
48196W        W19867  39.280   8.192  12.956
48197W        W19868  25.582  24.972  14.872
48198W        W19869  28.214  25.674   4.121
48199W        W19870  22.524   5.682  13.422
48200W        W19871  19.006  33.096   2.051
48201W        W19872  35.950  11.842  14.266
48202W        W19873  22.025  15.057  14.451
48203W        W19874  18.731  11.916   1.450
48204W        W19875   4.378  14.232   3.699
48205W        W19876   5.401  22.062   3.115
48206W        W19877  19.063  20.863   3.610
48207W        W19878   5.134  25.509   4.106
48208W        W19879  34.683   2.887   2.621
48209W        W19880  31.237  28.978  12.422
48210W        W19881  20.170  39.859   1.357
48211W        W19882  11.490  18.581   0.295
48212W        W19883  28.392  12.706  14.830
48213W        W19884  23.013  13.062  12.617
48214W        W19885  36.995   9.958  11.351
48215W        W19886  25.268  28.143   0.774
48216W        W19887  32.444  33.416   4.735
48217W        W19888  23.053   9.692   2.431
48218W        W19889  41.548  37.474   4.175
48219W        W19890  21.805  15.284  14.892
48220W        W19891  21.792  42.404  11.876
48221W        W19892  37.054  24.101   3.702
48222W        W19893  39.663  20.698  14.646
48223W        W19894  44.446   6.040   5.007
48224W        W19895  20.698  24.561   2.242
48225W        W19896   3.950  14.190  10.173
48226W        W19897  24.132   7.185   2.613
48227W        W19898  12.794  44.302   1.804
48228W        W19899  13.664   6.764  13.677
48229W        W19900  24.311   1.781  14.493
48230W        W19901  20.181  31.430   4.741
48231W        W19902  29.901   3.124   1.366
48232W        W19903  28.474  11.876  11.500
48233W        W19904  44.917  11.241   2.891
48234W        W19905  33.108   4.307  12.024
48235W        W19906  28.446  21.162  10.720
48236W        W19907  10.565  21.753   2.739
48237W        W19908   0.758  31.531  10.989
48238W        W19909  22.058  40.309   2.594
48239W        W19910  12.773  23.179  14.770
48240W        W19911  42.388  30.433  11.526
48241W        W19912   6.422  35.602  10.031
48242W        W19913  29.977  11.833  14.319
48243W        W19914  36.112  41.299   3.136
48244W        W19915   7.366   9.277   0.369
48245W        W19916  18.862  31.503   3.908
48246W        W19917  29.689  36.740   4.824
48247W        W19918  12.823  16.213   0.302
48248W        W19919  32.702  34.344  11.593
48249W        W19920   5.323   8.385  10.499
48250W        W19921  31.484  22.929  12.634
48251W        W19922  18.377  18.817  13.874
48252W        W19923  12.398  26.107  13.511
48253W        W19924  12.917  40.816  11.229
48254W        W19925  29.694   8.878   4.196
48255W        W19926  32.426  28.148   2.163
48256W        W19927  44.333   3.773  11.597
48257W        W19928  30.049  41.511  14.383
48258W        W19929   5.725  42.921  11.040
48259W        W19930  24.553  11.114  12.088
48260W        W19931  31.541  20.060   3.168
48261W        W19932  23.100   3.437  13.929
48262W        W19933   8.421  41.224   0.782
48263W        W19934   1.181  18.224  13.368
48264W        W19935  21.931   1.798   3.358
48265W        W19936  36.033   6.767  13.475
48266W        W19937  44.204   6.439  11.603
48267W        W19938  13.352  26.904  11.166
48268W        W19939  23.516  44.859   1.409
48269W        W19940  29.962  36.824  11.425
48270W        W19941  15.052  43.518   0.276
48271W        W19942  29.120   8.915  12.836
48272W        W19943  35.288  17.511   1.705
48273W        W19944  13.450  25.563  13.038
48274W        W19945  41.268   0.325   2.130
48275W        W19946  13.460  36.400   4.139
48276W        W19947  44.565   2.484   1.060
48277W        W19948   0.658   9.935   0.352
48278W        W19949  14.246  17.625   1.395
48279W        W19950  11.337  18.091  13.027
48280W        W19951  29.980   9.330  11.933
48281W        W19952  32.250  27.113  14.067
48282W        W19953  38.563  41.304  12.392
48283W        W19954   2.532  38.888   4.513
48284W        W19955  11.692   3.034  12.704
48285W        W19956  24.521  11.597  14.915
48286W        W19957  38.120   8.678   0.602
48287W        W19958  19.324  36.562   0.447
48288W        W19959  13.222  22.933   1.827
48289W        W19960  24.709  44.884   1.540
48290W        W19961   5.182  43.929  13.534
48291W        W19962  15.605  41.912  12.473
48292W        W19963  42.907  39.596  12.900
48293W        W19964   5.961  26.597   2.751
48294W        W19965  34.416   1.800  11.550
48295W        W19966  35.528   3.589   2.673
48296W        W19967   9.072  43.782   0.382
48297W        W19968  28.240  16.141  12.480
48298W        W19969  11.879   5.279   4.608
48299W        W19970  35.082   4.261  10.769
48300W        W19971  25.399   1.449  13.966
48301W        W19972   0.786   4.923   0.316
48302W        W19973  32.904   5.320   3.704
48303W        W19974  14.112  27.531   3.716
48304W        W19975  40.380  14.163  12.718
48305W        W19976   7.958  44.228  12.571
48306W        W19977  41.313   7.340   3.245
48307W        W19978  20.249  30.384   2.233
48308W        W19979  33.511   2.493  14.817
48309W        W19980  22.509  10.172  13.510
48310W        W19981   4.212  23.065  13.570
48311W        W19982  19.207  35.939   1.492
48312W        W19983  27.395  28.923   3.108
48313W        W19984  27.472   4.781  12.558
48314W        W19985  39.575  26.621   0.811
48315W        W19986  14.991  37.311   4.600
48316W        W19987  33.861  25.218  14.191
48317W        W19988  17.329  12.390   0.817
48318W        W19989  39.041  32.706  11.671
48319W        W19990  24.460  29.152  14.947
48320W        W19991  21.967  41.844  12.380
48321W        W19992   4.412   3.028   4.729
48322W        W19993  33.099  11.716  14.219
48323W        W19994  13.939  17.566   0.984
48324W        W19995  25.172  30.572   1.339
48325W        W19996  35.734  31.460   3.756
48326W        W19997   9.006  44.281  11.157
48327W        W19998  29.310  40.053  11.096
48328W        W19999   7.435   0.844  13.445
48329W        W20000   6.854  13.699  13.374
48330W        W20001   6.145  32.330  12.722
48331W        W20002  15.663  31.417  10.561
48332W        W20003  18.400  24.205  11.053
48333W        W20004  39.609  14.406   2.358
48334W        W20005  43.705  20.341  11.591
48335W        W20006  44.525  14.065  13.396
48336W        W20007  27.650  43.019  13.935
48337W        W20008  44.248  21.256   4.162
48338W        W20009  17.740  44.271  14.012
48339W        W20010  38.645  13.695  12.318
48340W        W20011   2.027  14.612   2.193
48341W        W20012  40.487  12.117   0.435
48342W        W20013   1.391  35.867   2.616
48343W        W20014  24.092  32.902  13.028
48344W        W20015  42.176  39.095  12.750
48345W        W20016  28.282   5.384  12.305
48346W        W20017  28.981  30.111   0.519
48347W        W20018  29.421   7.258   2.714
48348W        W20019  25.040  43.474   2.730
48349W        W20020  19.580  18.825  13.605
48350W        W20021  34.593   4.727   1.957
48351W        W20022   2.310  37.766  13.014
48352W        W20023  31.880  37.027   4.029
48353W        W20024  17.980   5.638   3.206
48354W        W20025   1.625  37.442   4.860
48355W        W20026  12.723  14.675  12.550
48356W        W20027  25.972  10.821   3.179
48357W        W20028  35.854  21.291   1.636
48358W        W20029  44.134  32.025   4.237
48359W        W20030  36.113   4.375  10.431
48360W        W20031  31.437  17.269  11.167
48361W        W20032  15.787  37.389  13.465
48362W        W20033  39.987   7.888   4.096
48363W        W20034  34.484  37.402  12.341
48364W        W20035   3.766   0.275  12.012
48365W        W20036  26.952   0.009   3.166
48366W        W20037  15.013  30.187   2.271
48367W        W20038  44.965  29.035   1.438
48368W        W20039   4.764  18.497   2.869
48369W        W20040  20.214  28.913   0.452
48370W        W20041  17.288  25.018   3.166
48371W        W20042  10.027   4.864   3.111
48372W        W20043  43.792  22.812  12.469
48373W        W20044  37.158  18.580   2.802
48374W        W20045  13.352  12.868   0.434
48375W        W20046  31.887  27.170  12.222
48376W        W20047  29.384  39.380   2.792
48377W        W20048  36.950  40.824   3.517
48378W        W20049   7.869  39.839  10.798
48379W        W20050   4.203   7.860   1.384
48380W        W20051  24.437  10.729   4.743
48381W        W20052  26.167  15.801  12.974
48382W        W20053  14.800  30.717  14.749
48383W        W20054  28.580   5.278  11.903
48384W        W20055   7.157  40.304  11.534
48385W        W20056   6.379  25.072   0.863
48386W        W20057   9.074   9.846  11.310
48387W        W20058  34.597  10.544  11.543
48388W        W20059  27.519  35.821  10.712
48389W        W20060   8.654  12.400  12.395
48390W        W20061   1.770  18.669   2.362
48391W        W20062   7.724  13.714  13.034
48392W        W20063  11.466  23.216  11.634
48393W        W20064  37.107   4.916  11.544
48394W        W20065  33.890  11.148  13.507
48395W        W20066   1.606  11.549  11.900
48396W        W20067   8.370   4.274   4.810
48397W        W20068   8.260   8.338   4.628
48398W        W20069  15.216  19.466  11.630
48399W        W20070  43.692  36.032  12.530
48400W        W20071   3.090  39.596  13.978
48401W        W20072  35.461  22.740   1.602
48402W        W20073  44.456  27.702  12.051
48403W        W20074   1.416  17.296   2.379
48404W        W20075  42.920  33.073  14.960
48405W        W20076   5.293  14.084   1.684
48406W        W20077  11.165  27.389   0.227
48407W        W20078   8.070   2.230  12.125
48408W        W20079  17.171  17.218   3.149
48409W        W20080  33.557  22.631  10.701
48410W        W20081  23.676  23.477  11.697
48411W        W20082   0.931   6.557   3.077
48412W        W20083  14.645  25.186  14.970
48413W        W20084  32.919   8.466  14.894
48414W        W20085  24.439   5.094  13.759
48415W        W20086  20.254  41.738  14.208
48416W        W20087  11.201  22.981   1.936
48417W        W20088  10.238  41.806  13.521
48418W        W20089   9.965  42.471   1.314
48419W        W20090  34.180  29.028  12.491
48420W        W20091   0.236   0.775  13.371
48421W        W20092  19.568  18.042   2.695
48422W        W20093  27.637  41.316  14.675
48423W        W20094   8.903  37.026  12.948
48424W        W20095  20.235  36.315  12.391
48425W        W20096  25.362  42.743  12.925
48426W        W20097   6.605  38.520   4.061
48427W        W20098   9.913  17.294   2.423
48428W        W20099  15.404  22.499  11.643
48429W        W20100  29.138  12.298  13.462
48430W        W20101  25.458   7.314  11.681
48431W        W20102  42.741   9.916  11.607
48432W        W20103  28.684  23.621  14.278
48433W        W20104  25.959  23.566  14.949
48434W        W20105  30.433  39.250  13.395
48435W        W20106  13.377  28.792  11.117
48436W        W20107  41.427  33.520   1.787
48437W        W20108  44.428  20.320  12.107
48438W        W20109  24.922  39.885  14.874
48439W        W20110  19.318  33.569   4.143
48440W        W20111  34.966  20.999  13.986
48441W        W20112  24.334  43.432  12.475
48442W        W20113  21.989   9.890  14.764
48443W        W20114  10.370  38.902   4.298
48444W        W20115  31.836  17.183   2.147
48445W        W20116   4.038   4.039  13.400
48446W        W20117  22.210   1.251  11.975
48447W        W20118  11.149  39.020   0.414
48448W        W20119  30.382  12.685  10.866
48449W        W20120   7.846  26.740  11.676
48450W        W20121   3.894  16.818   1.252
48451W        W20122  40.839  43.674   3.303
48452W        W20123  39.071  14.647  12.496
48453W        W20124  38.307  19.035  12.951
48454W        W20125  28.709  16.311   2.379
48455W        W20126   9.723  41.496  12.446
48456W        W20127   3.322  12.231   4.269
48457W        W20128  12.223  27.102   3.251
48458W        W20129  27.209  22.475  12.763
48459W        W20130   8.767  21.156   5.431
48460W        W20131  38.531   1.208   3.119
48461W        W20132  18.263  35.892  10.743
48462W        W20133   5.177  15.621  13.495
48463W        W20134  19.194  33.062   4.245
48464W        W20135   1.837  13.835   1.108
48465W        W20136  24.287  13.664  14.327
48466W        W20137  17.802  28.340   1.145
48467W        W20138  28.162  24.601   1.274
48468W        W20139  37.919  24.062  13.386
48469W        W20140  31.852  37.682  10.963
48470W        W20141  24.027  44.378   4.955
48471W        W20142   6.843   8.501   2.429
48472W        W20143  26.218  17.309   2.785
48473W        W20144  41.266   1.831   3.288
48474W        W20145  21.170  13.240  13.771
48475W        W20146  22.625  31.025  11.551
48476W        W20147   2.333  42.032   2.688
48477W        W20148  39.394  11.687  13.371
48478W        W20149  25.769  11.394  13.571
48479W        W20150   9.349   4.873  10.253
48480W        W20151   0.553  12.813   1.739
48481W        W20152   2.315  13.831  13.978
48482W        W20153  33.564  37.308   3.329
48483W        W20154  44.021  21.861  12.565
48484W        W20155  25.739   8.586   5.603
48485W        W20156  24.662  42.164  14.028
48486W        W20157  23.076  41.920   2.841
48487W        W20158  43.245   9.869  14.929
48488W        W20159   2.360   5.331  11.993
48489W        W20160   6.926  36.738   1.378
48490W        W20161  26.061  18.617  10.653
48491W        W20162  38.471  17.383   2.888
48492W        W20163  34.853   5.486   0.535
48493W        W20164  32.919  24.159   2.887
48494W        W20165  40.577  27.730  14.534
48495W        W20166  17.351   3.850  14.028
48496W        W20167   2.448   5.962  11.295
48497W        W20168  31.877   3.695   3.941
48498W        W20169  35.089   1.299  13.910
48499W        W20170   8.259  12.306  10.578
48500W        W20171  25.493  15.784   3.403
48501W        W20172  35.825  22.832  14.515
48502W        W20173   1.384   0.473   2.306
48503W        W20174  40.282   0.931  11.688
48504W        W20175   3.707   0.983   1.766
48505W        W20176  15.332  12.266   1.827
48506W        W20177   5.259  11.089  11.587
48507W        W20178   0.780  10.460   2.154
48508W        W20179  40.341  28.593  10.334
48509W        W20180  10.843  34.875   4.690
48510W        W20181  19.004  44.891  11.672
48511W        W20182  27.094  30.970  14.004
48512W        W20183  28.434  15.681   3.576
48513W        W20184  44.215   1.467  12.023
48514W        W20185  39.239   2.622  12.438
48515W        W20186  41.811  29.966   3.723
48516W        W20187  37.294  11.262  13.532
48517W        W20188   4.292  24.180   1.432
48518W        W20189  15.401  24.567  12.160
48519W        W20190  28.487  20.583   0.853
48520W        W20191  41.564  26.224   0.226
48521W        W20192   6.706  38.294   3.230
48522W        W20193  41.777  29.927   1.940
48523W        W20194   0.213   7.857   3.734
48524W        W20195  27.552  40.095   2.786
48525W        W20196  16.555  42.784   3.149
48526W        W20197  10.213  17.141   2.828
48527W        W20198  15.135  11.318   0.465
48528W        W20199  43.189  35.857   5.187
48529W        W20200  19.836   5.675   4.456
48530W        W20201  40.791  22.049   3.163
48531W        W20202  14.284   6.760  12.972
48532W        W20203   7.772  22.190   3.175
48533W        W20204  39.034   8.661   1.641
48534W        W20205   4.708  26.537  12.493
48535W        W20206  15.128  35.055   2.453
48536W        W20207  42.276   6.222  13.503
48537W        W20208  36.937  32.054  11.916
48538W        W20209   6.923  14.300   0.451
48539W        W20210  20.764  41.282  13.162
48540W        W20211  36.155   4.279   4.058
48541W        W20212   7.573  39.356  11.553
48542W        W20213  12.454   0.520  10.811
48543W        W20214  32.044  34.845  12.440
48544W        W20215   6.728  13.602   4.322
48545W        W20216   4.359   4.667   1.388
48546W        W20217   1.308  18.882  11.056
48547W        W20218  36.480  12.161   2.779
48548W        W20219  38.928  38.426   1.473
48549W        W20220  43.980   2.862   4.559
48550W        W20221  41.223   4.834   0.889
48551W        W20222   4.284  23.229   4.204
48552W        W20223  25.578  44.958   3.146
48553W        W20224  36.640  31.818  10.984
48554W        W20225  41.582  34.412   4.187
48555W        W20226  30.651  18.798  11.905
48556W        W20227   1.243   3.656  10.602
48557W        W20228  26.570   3.339   2.828
48558W        W20229  38.297  19.318   2.794
48559W        W20230  15.756  23.950  13.447
48560W        W20231  24.002  42.790   2.937
48561W        W20232   1.452   2.224  14.048
48562W        W20233  35.873  24.129  12.011
48563W        W20234   0.801   3.042   2.816
48564W        W20235  25.180  38.311  13.878
48565W        W20236   0.282  32.395  10.712
48566W        W20237  29.946  15.187  13.439
48567W        W20238  24.224  35.917   0.407
48568W        W20239  42.209  25.515  12.566
48569W        W20240  13.376  11.922   0.749
48570W        W20241   7.676   4.943  12.981
48571W        W20242   4.983   3.298   1.715
48572W        W20243  22.521  14.672   3.866
48573W        W20244  44.411  34.590   1.169
48574W        W20245  11.767  44.883   2.376
48575W        W20246  21.787  42.512   4.784
48576W        W20247  30.992  15.729  10.722
48577W        W20248  42.551  17.231   0.421
48578W        W20249  12.277  18.516  12.473
48579W        W20250  27.208  34.067   1.270
48580W        W20251  13.370  38.429  14.986
48581W        W20252   8.694  25.486  10.607
48582W        W20253  33.105  15.110  14.194
48583W        W20254  32.122  19.788   3.344
48584W        W20255   3.051   3.728  14.511
48585W        W20256  10.832  27.575   4.270
48586W        W20257   8.800  33.437   4.517
48587W        W20258  29.055  11.128  10.502
48588W        W20259   3.005   7.098   3.152
48589W        W20260  42.906  34.141  12.876
48590W        W20261  43.194   3.435  11.595
48591W        W20262  16.306  27.889  14.496
48592W        W20263   8.869  26.812  14.424
48593W        W20264  22.144   3.482  14.011
48594W        W20265  11.673   2.284  14.590
48595W        W20266  21.021  12.331  11.600
48596W        W20267  40.545   4.777  12.361
48597W        W20268  11.056  21.516   2.732
48598W        W20269  18.787  13.121  10.444
48599W        W20270   1.398  43.078   0.691
48600W        W20271  13.723  40.954  10.737
48601W        W20272  42.929  15.694  12.991
48602W        W20273  17.612  35.566  14.039
48603W        W20274  12.592  24.611   1.379
48604W        W20275  12.611  14.179   4.227
48605W        W20276   3.693  32.752  12.038
48606W        W20277  21.304  42.493  13.788
48607W        W20278  16.917   0.688  14.269
48608W        W20279  23.945  10.704  14.586
48609W        W20280  28.206  32.396  11.945
48610W        W20281  34.455  17.759   1.414
48611W        W20282  19.041   3.326   3.621
48612W        W20283   7.819   7.050   1.015
48613W        W20284  15.674  13.568   1.915
48614W        W20285  16.663  42.252   3.193
48615W        W20286   9.230  25.570  13.383
48616W        W20287   9.881   9.814   4.211
48617W        W20288  34.663  18.062  12.874
48618W        W20289  17.644  27.967  13.861
48619W        W20290   2.909   7.831   1.867
48620W        W20291  16.177  44.508   2.303
48621W        W20292  44.287   4.783  12.478
48622W        W20293  39.059   3.862  10.453
48623W        W20294   6.719  17.351  10.788
48624W        W20295   2.402   4.738  14.354
48625W        W20296  25.973   6.264  14.249
48626W        W20297  41.468  11.860   1.518
48627W        W20298  39.129   6.807   1.811
48628W        W20299  35.639  19.816  14.097
48629W        W20300  14.974  38.612   0.031
48630W        W20301  22.884  22.299   4.229
48631W        W20302  26.474  16.149  13.898
48632W        W20303  20.289  20.080   1.819
48633W        W20304  15.689  43.370  12.932
48634W        W20305   5.809  38.104   0.956
48635W        W20306  27.577   4.932  13.770
48636W        W20307  17.599  34.845  12.961
48637W        W20308   7.416  34.054  10.709
48638W        W20309  21.800  17.761   3.345
48639W        W20310  29.032  34.930   1.281
48640W        W20311   6.413  30.091  11.536
48641W        W20312  30.687  32.912  14.245
48642W        W20313  22.233  42.149  10.630
48643W        W20314  44.933   5.924   1.399
48644W        W20315  44.732  10.254   2.678
48645W        W20316  32.517   5.978   2.542
48646W        W20317  36.939   1.549   2.843
48647W        W20318  28.154  35.664   3.942
48648W        W20319   3.824  43.764  12.989
48649W        W20320  28.861  42.965   3.583
48650W        W20321   9.853   1.677   1.852
48651W        W20322   0.829  10.219   1.716
48652W        W20323  25.611  19.373  12.926
48653W        W20324   0.510  40.347  12.093
48654W        W20325  19.333   8.581  14.995
48655W        W20326  37.491  33.599  13.309
48656W        W20327  24.463  33.477  11.825
48657W        W20328  29.447  35.328   0.891
48658W        W20329   0.890  42.824   2.693
48659W        W20330  31.388   3.344  13.836
48660W        W20331  34.596  10.454  13.397
48661W        W20332   8.836  24.045  10.868
48662W        W20333   1.790  38.758   0.999
48663W        W20334  41.256  20.647   4.027
48664W        W20335  17.069   5.344   2.178
48665W        W20336  36.732  24.509  11.737
48666W        W20337  35.675   9.350  12.206
48667W        W20338  27.833  27.922   1.925
48668W        W20339  32.337  40.942   2.345
48669W        W20340  20.092  26.337   1.321
48670W        W20341  19.473  10.075  13.853
48671W        W20342  22.628  36.716   3.840
48672W        W20343  17.276  13.717  10.958
48673W        W20344  28.126  22.588  14.475
48674W        W20345  34.913   9.692   4.922
48675W        W20346  40.453  16.316  13.760
48676W        W20347  24.238  42.388  13.296
48677W        W20348  27.445   1.528   3.973
48678W        W20349  36.934  22.915  12.841
48679W        W20350  36.496  16.312   2.818
48680W        W20351   6.209   3.500  12.514
48681W        W20352   2.729  24.718   4.868
48682W        W20353  24.104  12.233   2.840
48683W        W20354  13.357   1.341  11.156
48684W        W20355  29.795  36.398   0.023
48685W        W20356  10.100   5.863  12.967
48686W        W20357  41.721  24.119  13.556
48687W        W20358   7.908  23.290   2.379
48688W        W20359  19.593  25.937  12.138
48689W        W20360  32.310  34.966  12.863
48690W        W20361  11.744  15.335   4.255
48691W        W20362  29.250  25.182   4.607
48692W        W20363  21.236   1.449  12.073
48693W        W20364   6.481  19.732  13.417
48694W        W20365   1.696   3.236  12.601
48695W        W20366   5.461  39.990   3.645
48696W        W20367  19.492  17.296  14.276
48697W        W20368   0.282  43.554  11.470
48698W        W20369  21.759  30.330  11.173
48699W        W20370  17.526  24.064   2.700
48700W        W20371   7.133  39.508   4.016
48701W        W20372  24.109  38.558  14.786
48702W        W20373  40.706   6.509   4.146
48703W        W20374  19.009  14.325   0.943
48704W        W20375   1.362  36.329  12.619
48705W        W20376  30.526  36.999   1.420
48706W        W20377  10.810   5.181   1.937
48707W        W20378  35.017  24.290  13.425
48708W        W20379   2.863  41.367  12.868
48709W        W20380   7.640  33.859  12.831
48710W        W20381  23.233  31.189   3.662
48711W        W20382  15.084  21.085   1.955
48712W        W20383  23.882  27.230  10.699
48713W        W20384   2.662   4.851  10.415
48714W        W20385  38.930  17.606  10.247
48715W        W20386  31.600  39.752   4.441
48716W        W20387   0.661  19.729   1.459
48717W        W20388  17.242  14.707   2.852
48718W        W20389  27.332  44.685  12.566
48719W        W20390  28.223  14.587   4.232
48720W        W20391  15.819   3.826   4.915
48721W        W20392  28.461   4.929   1.330
48722W        W20393  32.548   8.956   4.569
48723W        W20394  22.092  42.492  14.433
48724W        W20395   3.792  23.461  10.647
48725W        W20396  16.830  32.417  10.763
48726W        W20397  10.872  37.995   4.392
48727W        W20398  44.045  27.178  13.835
48728W        W20399  44.722   2.768  12.543
48729W        W20400   9.530   2.710   3.196
48730W        W20401   5.247  21.654   1.314
48731W        W20402  29.995  17.277   0.765
48732W        W20403  11.080   2.428   2.454
48733W        W20404  35.366  36.298  12.700
48734W        W20405  32.118   0.253  14.822
48735W        W20406  43.343   4.935   0.383
48736W        W20407  12.861  15.169  10.374
48737W        W20408   7.873  17.567  12.498
48738W        W20409  39.351  14.790  11.478
48739W        W20410  34.669   7.853  11.125
48740W        W20411  44.778  26.740   4.690
48741W        W20412  13.082  13.298   0.851
48742W        W20413  15.923  24.013   2.208
48743W        W20414  37.426  23.608   4.584
48744W        W20415  10.652  27.952   4.879
48745W        W20416  33.481   6.804  10.725
48746W        W20417  33.484  38.861  13.474
48747W        W20418  39.810   9.224   0.269
48748W        W20419  43.558  24.000  11.056
48749W        W20420   9.337  39.365   0.338
48750W        W20421  43.717  42.486   0.783
48751W        W20422   3.760  13.360   2.825
48752W        W20423  27.428  44.311  10.757
48753W        W20424  21.787  18.354   0.793
48754W        W20425  14.658  18.031   1.705
48755W        W20426  30.129   9.302  13.606
48756W        W20427  39.857  40.414  13.121
48757W        W20428  37.287  14.138  12.424
48758W        W20429  41.525  28.226  12.963
48759W        W20430  37.659  30.936  14.196
48760W        W20431   7.751   4.340   1.964
48761W        W20432  42.245   1.429   4.593
48762W        W20433   4.894  42.333  14.008
48763W        W20434  27.054  19.751  12.383
48764W        W20435  21.596  10.188   1.842
48765W        W20436  17.385  32.537   1.756
48766W        W20437  30.875  44.456   3.787
48767W        W20438  44.759  15.934  10.165
48768W        W20439  24.089  34.310   3.288
48769W        W20440   7.549  33.639   2.736
48770W        W20441  36.598  27.601   3.333
48771W        W20442  18.750  35.684   0.871
48772W        W20443  44.735  14.153   3.211
48773W        W20444  15.323  27.949   4.645
48774W        W20445  43.807  23.261   0.979
48775W        W20446  32.449  26.758   1.929
48776W        W20447  43.066   9.130   0.526
48777W        W20448  17.226  36.613  10.996
48778W        W20449  32.341  26.515   2.370
48779W        W20450  11.209  10.203  13.533
48780W        W20451  27.058  44.069  13.381
48781W        W20452   6.862  42.498  10.930
48782W        W20453  36.133  26.873   1.451
48783W        W20454  37.903  18.886  14.601
48784W        W20455  13.668  25.741  10.800
48785W        W20456  32.925   4.389   2.235
48786W        W20457  44.833  30.947  10.569
48787W        W20458  10.334  21.325  12.298
48788W        W20459  10.641  22.206  13.250
48789W        W20460   5.814  36.933  10.977
48790W        W20461  11.748  20.787   4.208
48791W        W20462   4.488  40.501  11.580
48792W        W20463   4.232  32.669   2.335
48793W        W20464   5.491  39.867  11.151
48794W        W20465  32.327  22.631  14.668
48795W        W20466  34.584  19.970   0.819
48796W        W20467  28.487   1.417   1.304
48797W        W20468  36.597  34.339  14.386
48798W        W20469  12.937  33.352   1.824
48799W        W20470  40.775  34.386  13.548
48800W        W20471  37.560  27.951  14.405
48801W        W20472  10.628  25.571  12.457
48802W        W20473   1.810  39.775   0.773
48803W        W20474   5.838  10.318   3.172
48804W        W20475  20.479  17.766   0.377
48805W        W20476   8.031  44.233   2.801
48806W        W20477   3.212   4.199  14.377
48807W        W20478  42.934  37.794   4.073
48808W        W20479  24.260  12.714   1.108
48809W        W20480  41.953  15.623   1.686
48810W        W20481  23.885  36.679   0.206
48811W        W20482  15.688   8.086  12.658
48812W        W20483   2.968  18.986   3.630
48813W        W20484  37.495  31.904  10.928
48814W        W20485   9.754   6.130  13.410
48815W        W20486  37.527  18.872  12.011
48816W        W20487   1.247   9.652  11.240
48817W        W20488   9.742   8.760   1.767
48818W        W20489  11.524  24.084  14.036
48819W        W20490  39.874  43.438  11.477
48820W        W20491  26.212  40.411   3.248
48821W        W20492   0.407  39.924   4.270
48822W        W20493  44.094  37.168   3.348
48823W        W20494  44.532  43.322  11.133
48824W        W20495  15.611   2.235  14.438
48825W        W20496  24.338  35.303  10.844
48826W        W20497  37.060  17.102  13.883
48827W        W20498  23.544  23.570   3.280
48828W        W20499  30.043  27.893   0.670
48829W        W20500  39.392   3.409   1.943
48830W        W20501  32.183   5.746   2.871
48831W        W20502  35.093  36.467   0.718
48832W        W20503  31.398  41.264  11.512
48833W        W20504  39.046   5.760  14.910
48834W        W20505  36.530  35.187   4.609
48835W        W20506   4.249  18.268   4.952
48836W        W20507  30.429  23.473   1.483
48837W        W20508  39.500  24.293   4.151
48838W        W20509  33.107  21.282  13.033
48839W        W20510  18.997   7.343  12.458
48840W        W20511  13.264  19.900  10.376
48841W        W20512  34.599  20.428  11.540
48842W        W20513  27.394  42.097   1.503
48843W        W20514   8.095  10.078  12.084
48844W        W20515  28.609  32.323   0.565
48845W        W20516   8.049  43.936  14.259
48846W        W20517  12.921   8.596   4.118
48847W        W20518  29.856  39.752  14.420
48848W        W20519  40.354  40.026   1.146
48849W        W20520  15.077   8.714   1.466
48850W        W20521  13.776  18.708  11.597
48851W        W20522  20.164  20.705   1.107
48852W        W20523  44.482  44.070   1.797
48853W        W20524  17.081   8.167  14.616
48854W        W20525   1.287   6.374  11.940
48855W        W20526   3.530  43.846  14.829
48856W        W20527   4.662  26.030  14.440
48857W        W20528  18.651  34.697   5.032
48858W        W20529  22.158   4.894   2.338
48859W        W20530  10.436   4.885   2.147
48860W        W20531  41.360   8.415  10.799
48861W        W20532  30.451  18.985  10.841
48862W        W20533  38.420  43.879   0.392
48863W        W20534  23.784  40.197   5.073
48864W        W20535  33.841  24.494  11.587
48865W        W20536  24.639   8.846   3.728
48866W        W20537  18.515  13.126  11.829
48867W        W20538  32.086  27.875  13.418
48868W        W20539  18.992  31.599  11.074
48869W        W20540   0.476  27.463  14.948
48870W        W20541   8.849  16.285  14.356
48871W        W20542  18.315  11.691   1.264
48872W        W20543  37.023   4.790   1.293
48873W        W20544  38.038  21.740   2.809
48874W        W20545  21.577  23.056   1.402
48875W        W20546  14.095  19.788   1.045
48876W        W20547  28.681  18.798  14.832
48877W        W20548   8.650   6.664   1.229
48878W        W20549  23.897   6.247   1.302
48879W        W20550  26.593  34.575   3.326
48880W        W20551  36.601   6.879  14.724
48881W        W20552  22.670  38.902  10.371
48882W        W20553  30.670  10.641   4.099
48883W        W20554  32.212   0.962   4.998
48884W        W20555  31.348  34.791   4.781
48885W        W20556  12.168   0.891   3.129
48886W        W20557   0.395  35.090  12.619
48887W        W20558  36.535   2.495   3.707
48888W        W20559  18.908  43.381  13.504
48889W        W20560  31.923  15.406   1.331
48890W        W20561  37.587  10.149   4.827
48891W        W20562  44.396  40.300   2.345
48892W        W20563  10.817  22.524   3.463
48893W        W20564  44.757  38.669   4.711
48894W        W20565  32.614  44.899   4.083
48895W        W20566  29.111  23.963  11.121
48896W        W20567  11.135   4.540  13.351
48897W        W20568  20.798  19.146   1.415
48898W        W20569  32.123  23.574  11.526
48899W        W20570  19.742  11.210  10.672
48900W        W20571   2.139  18.322   4.380
48901W        W20572   2.908  14.276  13.504
48902W        W20573   0.915  11.933   4.169
48903W        W20574   0.874  22.643   4.784
48904W        W20575  18.300  30.468   1.331
48905W        W20576  25.489  28.685  11.988
48906W        W20577   0.491   7.304  14.904
48907W        W20578  39.878  18.544  10.879
48908W        W20579  28.404  35.621  11.621
48909W        W20580  27.365  31.214  12.038
48910W        W20581  31.066  36.792  12.754
48911W        W20582  23.362   3.886   0.826
48912W        W20583  22.070  20.652   0.345
48913W        W20584  12.172   3.262  13.763
48914W        W20585   2.949  13.420   2.378
48915W        W20586   6.396  18.506   1.857
48916W        W20587  11.027  35.346   0.389
48917W        W20588  13.900  44.919  10.677
48918W        W20589  29.013  27.625  11.198
48919W        W20590  40.064  38.894   0.860
48920W        W20591  19.459   7.894  11.168
48921W        W20592  22.065  22.578  13.663
48922W        W20593  30.112  17.593   4.857
48923W        W20594  40.586  33.032  13.096
48924W        W20595   6.604   6.577  12.564
48925W        W20596  29.375  43.995   0.019
48926W        W20597  23.812  39.808  12.495
48927W        W20598  24.091  36.021  14.047
48928W        W20599  11.254  13.239  13.133
48929W        W20600  17.618  37.569   3.247
48930W        W20601   0.134  12.767  12.064
48931W        W20602   4.700  15.059   4.566
48932W        W20603  20.089  25.395   2.247
48933W        W20604   2.984  20.294   1.294
48934W        W20605  36.789  28.874   3.553
48935W        W20606  16.848   2.320   2.686
48936W        W20607  44.748  28.925  11.976
48937W        W20608  23.486  25.712   0.371
48938W        W20609  14.171  44.896   1.899
48939W        W20610  13.402   6.394   4.742
48940W        W20611   5.117   7.547   4.261
48941W        W20612  26.684  18.553  12.967
48942W        W20613   9.823  38.833  11.935
48943W        W20614  30.506  15.837   2.395
48944W        W20615   0.280  25.655  10.758
48945W        W20616  27.408  23.718  14.075
48946W        W20617  36.383  37.070  14.383
48947W        W20618   4.714  14.134   2.293
48948W        W20619   0.850  11.194   2.846
48949W        W20620   9.145  38.850   1.895
48950W        W20621  26.002  15.152   2.395
48951W        W20622   0.798   8.286   1.296
48952W        W20623  43.202  40.313   0.482
48953W        W20624  19.151  18.645  12.426
48954W        W20625  12.794  40.962   2.996
48955W        W20626  28.051  39.326  13.464
48956W        W20627   3.221  43.813   1.708
48957W        W20628  16.287   2.469   2.118
48958W        W20629  17.105  42.816  14.958
48959W        W20630  28.116   6.568  11.623
48960W        W20631  43.423  38.651   1.234
48961W        W20632  27.075  16.074  11.568
48962W        W20633   1.376  18.028   1.421
48963W        W20634  20.936   1.480  14.359
48964W        W20635  44.696  18.303   3.340
48965W        W20636  33.783  31.145  14.890
48966W        W20637  16.594   4.694   2.458
48967W        W20638  37.414  19.950   3.856
48968W        W20639  23.042  33.886   4.496
48969W        W20640  19.291  42.544  13.820
48970W        W20641  25.925  13.810  12.658
48971W        W20642   2.147  40.385   4.802
48972W        W20643   1.768  33.589   2.798
48973W        W20644  23.642  39.354   1.939
48974W        W20645   3.502  10.944  14.593
48975W        W20646  27.571  34.509  13.469
48976W        W20647  44.408  26.557  12.839
48977W        W20648   8.121  28.043  14.018
48978W        W20649   0.282  22.701   1.815
48979W        W20650  19.034  33.992   4.053
48980W        W20651   4.935  42.712   2.172
48981W        W20652  23.275  25.527  12.177
48982W        W20653   2.247  22.036  11.157
48983W        W20654   8.379  10.120   1.785
48984W        W20655   1.404  24.581  11.526
48985W        W20656  13.261  16.865  13.799
48986W        W20657  42.092  35.479   3.407
48987W        W20658  18.368   0.227  13.542
48988W        W20659  33.335   3.815   2.804
48989W        W20660  39.220  44.592  13.538
48990W        W20661  13.741  42.569  11.497
48991W        W20662  13.651  35.935  13.517
48992W        W20663  15.699  15.071   1.647
48993W        W20664  32.849  13.253   3.332
48994W        W20665   9.983  39.095  10.018
48995W        W20666  28.918  15.886  14.816
48996W        W20667  40.392   8.948  11.839
48997W        W20668  19.581  23.271  14.368
48998W        W20669   5.218  43.760  10.787
48999W        W20670   0.781  43.586   4.636
49000W        W20671   7.442   7.201   4.508
49001W        W20672  20.485  39.535   0.708
49002W        W20673  35.973  34.959   0.652
49003W        W20674   4.288   1.431  13.472
49004W        W20675  42.584   2.359  12.736
49005W        W20676  32.735  42.777  12.988
49006W        W20677  24.180  29.280   1.616
49007W        W20678  19.578  12.527   3.638
49008W        W20679  32.121   2.355  11.153
49009W        W20680  29.373  39.345  13.497
49010W        W20681  37.113   5.766   4.569
49011W        W20682  38.064  22.887  10.548
49012W        W20683  20.218   2.306  11.940
49013W        W20684  10.258   4.861  14.665
49014W        W20685  18.826  11.848   3.283
49015W        W20686   8.312   2.459  14.281
49016W        W20687  24.246   0.266   4.506
49017W        W20688  10.228   2.604   2.903
49018W        W20689  36.104  33.522  13.968
49019W        W20690  21.233  11.942   3.156
49020W        W20691   3.933  30.179  10.445
49021W        W20692  33.905  17.086   3.124
49022W        W20693  33.975  34.768  10.372
49023W        W20694  36.850  44.197  14.983
49024W        W20695  24.914   7.657   2.180
49025W        W20696  41.368  23.297  13.980
49026W        W20697  29.894  34.884  12.615
49027W        W20698  35.421  17.462  14.359
49028W        W20699  34.520  34.400   0.418
49029W        W20700  35.065  42.491  13.865
49030W        W20701   9.637  20.702   3.798
49031W        W20702  35.625  40.868   3.730
49032W        W20703  43.218  40.546  11.318
49033W        W20704   2.161   5.340  13.588
49034W        W20705  21.436  37.646   4.534
49035W        W20706  32.024  16.850  11.888
49036W        W20707  24.482  11.169  14.529
49037W        W20708  33.587  34.436   0.645
49038W        W20709  40.937  17.308  14.464
49039W        W20710  22.142  41.427   2.675
49040W        W20711  37.568  44.796   2.679
49041W        W20712  26.514  11.876  13.441
49042W        W20713  36.413  14.176  13.794
49043W        W20714  23.163  25.732  11.066
49044W        W20715   0.062  26.049   1.606
49045W        W20716   4.626  39.396  10.283
49046W        W20717  40.978  26.217  11.650
49047W        W20718  11.202  16.869  12.422
49048W        W20719   1.947  29.099  10.710
49049W        W20720  24.644  11.045   1.485
49050W        W20721   0.827  34.157   2.712
49051W        W20722   7.154  41.462   3.941
49052W        W20723  24.430  26.055  10.789
49053W        W20724  30.954   3.465   3.714
49054W        W20725  11.752  25.736  11.680
49055W        W20726   9.292  34.366  10.755
49056W        W20727   6.435  14.707   4.924
49057W        W20728   2.516   1.750   4.145
49058W        W20729   5.164   5.135  14.588
49059W        W20730  30.675   4.292   4.044
49060W        W20731   0.293  12.785  14.876
49061W        W20732  12.883  33.478   0.895
49062W        W20733   0.160   6.988   2.963
49063W        W20734  39.702  39.003   4.179
49064W        W20735   4.764  14.552   4.579
49065W        W20736  28.966  30.602  11.583
49066W        W20737  31.878  23.546   0.537
49067W        W20738  38.251  29.094   0.192
49068W        W20739  36.333  11.752  13.807
49069W        W20740  30.345  36.087  14.339
49070W        W20741  21.048  30.094   2.097
49071W        W20742   2.016  42.364   0.295
49072W        W20743  35.208  10.953  14.354
49073W        W20744   9.372  23.624   2.925
49074W        W20745  11.813  18.759  14.108
49075W        W20746   4.833  10.328   1.678
49076W        W20747  20.146   4.351  14.250
49077W        W20748  11.464  15.283  13.825
49078W        W20749  38.307  39.935   0.625
49079W        W20750  26.013  38.652  12.052
49080W        W20751  13.132  19.683  12.343
49081W        W20752  40.334  15.663   1.442
49082W        W20753  27.955  39.277   4.071
49083W        W20754  21.131  30.760   3.368
49084W        W20755   0.712   8.378  11.237
49085W        W20756  11.756  33.012  12.537
49086W        W20757   7.867  41.587  11.032
49087W        W20758   2.772  13.198  10.905
49088W        W20759   6.760  38.445   0.774
49089W        W20760   3.175   1.818  12.764
49090W        W20761   7.756  41.412   5.171
49091W        W20762  15.040  17.177  13.822
49092W        W20763  11.372  42.765  13.904
49093W        W20764  24.088  33.854   3.073
49094W        W20765   6.250  14.653  13.480
49095W        W20766  11.381  25.009  13.005
49096W        W20767  38.456  39.417   0.742
49097W        W20768   1.355  22.929  11.138
49098W        W20769   6.152  31.901   3.338
49099W        W20770  27.650  37.107   3.684
49100W        W20771   5.875  40.536   1.842
49101W        W20772   6.451  29.435  14.385
49102W        W20773   2.632  36.641   1.883
49103W        W20774  25.661  34.627  12.446
49104W        W20775  23.223  11.290   4.166
49105W        W20776  31.637  42.750   3.197
49106W        W20777  34.144   6.237  13.335
49107W        W20778   2.948  26.459  12.973
49108W        W20779   6.616   7.116  13.324
49109W        W20780  26.600  41.514   3.397
49110W        W20781  21.956  29.254   0.770
49111W        W20782   1.825  19.883   4.522
49112W        W20783   8.141  36.178   1.685
49113W        W20784  38.570  26.808   3.380
49114W        W20785  31.695  37.361  11.764
49115W        W20786   4.420   6.183  12.123
49116W        W20787  30.717  26.150   1.255
49117W        W20788  39.463  17.767   4.361
49118W        W20789  14.789  25.690   2.635
49119W        W20790  40.453  24.200   1.173
49120W        W20791  30.090   1.052  11.072
49121W        W20792  35.871  17.349   4.207
49122W        W20793  19.163  37.423   4.709
49123W        W20794  15.655  17.078   1.338
49124W        W20795  20.099  22.318   4.096
49125W        W20796  41.757  33.733  14.887
49126W        W20797   9.669  10.628  14.054
49127W        W20798  15.330  14.359  11.052
49128W        W20799  38.947  42.911   2.513
49129W        W20800  42.876  30.629   0.350
49130W        W20801  23.566  11.295   0.065
49131W        W20802  40.075  23.747   4.402
49132W        W20803  24.771  31.424   3.592
49133W        W20804  31.775  29.899  13.446
49134W        W20805  13.824  28.188  10.723
49135W        W20806  19.804  20.546  10.490
49136W        W20807  21.003  35.327   4.791
49137W        W20808  30.535   1.805   3.685
49138W        W20809   4.859  34.742  12.865
49139W        W20810  36.472  38.377  10.675
49140W        W20811  18.799  41.401  12.919
49141W        W20812  43.735  42.700  12.965
49142W        W20813   6.713  10.678  13.117
49143W        W20814  42.458  41.494  10.918
49144W        W20815  17.297   5.698  13.706
49145W        W20816  32.209  16.642   3.768
49146W        W20817  27.927  35.255   2.513
49147W        W20818  12.836  23.014  13.747
49148W        W20819   9.939  25.563   3.308
49149W        W20820  37.623   3.111   2.365
49150W        W20821  15.509  36.525  13.966
49151W        W20822   6.194  44.431  10.856
49152W        W20823  12.734  31.919  14.609
49153W        W20824  29.498  30.020   0.325
49154W        W20825  10.803  31.245   1.305
49155W        W20826  24.479   8.369  14.470
49156W        W20827  21.012  12.947  11.054
49157W        W20828  25.168  15.730  13.896
49158W        W20829  33.186  16.122   2.774
49159W        W20830   0.413  17.227   3.411
49160W        W20831  14.268  43.203   2.267
49161W        W20832  25.569  32.044  12.472
49162W        W20833  12.757  38.058  13.377
49163W        W20834   7.811  11.370  12.309
49164W        W20835  38.398  33.797  14.797
49165W        W20836  36.415   2.276  12.418
49166W        W20837  21.230  41.780   1.250
49167W        W20838   2.723  17.557   3.895
49168W        W20839   7.919  24.827   2.436
49169W        W20840  33.463   2.002   3.745
49170W        W20841  17.557  20.685   2.781
49171W        W20842   6.913  38.103  14.504
49172W        W20843   7.388  21.074   1.712
49173W        W20844  31.824  11.123  11.726
49174W        W20845  13.475  36.923  11.137
49175W        W20846  32.920  26.912  13.034
49176W        W20847  11.629  20.513   2.313
49177W        W20848  30.552  31.508   5.091
49178W        W20849  41.683   0.507   1.813
49179W        W20850  21.601  23.142   0.414
49180W        W20851  33.143  27.378   4.117
49181W        W20852  43.319  15.429   2.702
49182W        W20853  24.316   4.882   2.373
49183W        W20854  33.077  21.584   2.297
49184W        W20855   1.456  21.031   1.455
49185W        W20856  29.112  42.829  14.301
49186W        W20857  22.822   2.838   4.423
49187W        W20858  23.028  12.280   2.542
49188W        W20859   1.939  10.939  14.382
49189W        W20860  32.586  28.233  13.433
49190W        W20861   4.770  28.025  12.027
49191W        W20862  26.033  16.809   1.884
49192W        W20863  24.965  38.416   0.454
49193W        W20864  24.992  27.642  10.949
49194W        W20865  35.940  32.842   0.724
49195W        W20866  36.901  33.111   2.822
49196W        W20867   5.492  43.951  11.192
49197W        W20868   5.880  44.522   0.904
49198W        W20869  42.993   3.305   3.209
49199W        W20870  42.660  38.948  13.510
49200W        W20871  14.678   2.335  13.853
49201W        W20872  41.059  21.147  13.229
49202W        W20873  27.506   0.483  12.099
49203W        W20874  20.773  35.363  13.885
49204W        W20875  24.650  30.364  10.689
49205W        W20876  24.226  37.744  11.186
49206W        W20877  36.873  37.836   4.224
49207W        W20878   5.373  35.383  14.550
49208W        W20879   4.136   0.825   0.377
49209W        W20880  16.363   2.224  11.871
49210W        W20881  22.507   6.743  10.738
49211W        W20882   8.435  28.498   2.429
49212W        W20883  44.861  42.448  12.571
49213W        W20884  39.083  28.542  13.446
49214W        W20885   7.236  28.590   1.851
49215W        W20886   0.328  10.939   2.751
49216W        W20887  10.777  16.938  14.842
49217W        W20888  43.480  31.387   0.550
49218W        W20889  10.460   2.970   0.879
49219W        W20890  34.354   8.213   0.788
49220W        W20891   6.145  15.158   3.686
49221W        W20892   3.487  27.235   1.781
49222W        W20893  31.059   7.307   2.248
49223W        W20894   2.166   8.230  11.197
49224W        W20895  11.248   7.203   0.842
49225W        W20896  31.287   8.756  14.469
49226W        W20897  14.520  29.508   4.225
49227W        W20898  32.732  14.016   4.952
49228W        W20899  26.557   5.443   0.385
49229W        W20900  32.006  31.874   2.137
49230W        W20901  20.776  17.474  13.157
49231W        W20902  39.375  27.677  14.419
49232W        W20903  34.527  14.374  14.804
49233W        W20904  29.876   8.219  12.564
49234W        W20905  18.796  36.369  12.456
49235W        W20906  39.840  17.291   1.323
49236W        W20907  13.017  35.829   5.112
49237W        W20908  40.883  38.832   4.105
49238W        W20909   2.848   6.959  12.203
49239W        W20910  30.903  28.161  11.489
49240W        W20911  39.034  10.650   0.642
49241W        W20912  29.496  41.334   0.916
49242W        W20913  26.455  42.462   2.589
49243W        W20914  32.986   9.659   2.874
49244W        W20915  27.051  30.555  14.834
49245W        W20916  11.747  40.310  12.576
49246W        W20917  27.646   6.912   2.106
49247W        W20918  23.741  43.383  13.358
49248W        W20919  20.057  41.977  10.481
49249W        W20920  44.033  32.058  13.030
49250W        W20921  35.879  39.177  13.738
49251W        W20922  30.088  16.145   4.131
49252W        W20923  28.700   2.477  12.026
49253W        W20924  10.173  18.107   0.389
49254W        W20925  29.138  16.149  14.417
49255W        W20926  38.070  44.741   3.518
49256W        W20927   1.208  15.661   4.842
49257W        W20928  11.064   9.912  11.111
49258W        W20929  23.111  15.780   4.344
49259W        W20930  15.988  38.318  10.110
49260W        W20931   2.509  25.786  12.460
49261W        W20932   8.810   1.978   4.249
49262W        W20933  30.642  23.837  13.263
49263W        W20934  35.499  14.664   1.649
49264W        W20935   8.839  18.614  13.317
49265W        W20936  27.056  21.467  14.478
49266W        W20937  44.074  29.011   5.008
49267W        W20938  11.827   0.529  11.524
49268W        W20939   0.662  37.419   0.944
49269W        W20940  10.636  28.512  12.447
49270W        W20941   5.744  10.551   3.627
49271W        W20942  14.773  27.974   1.797
49272W        W20943  42.373  12.421   2.381
49273W        W20944  38.311   6.603   2.215
49274W        W20945  31.698   4.471   0.072
49275W        W20946   1.415  29.563   4.350
49276W        W20947  23.213  18.559   3.601
49277W        W20948  21.763   1.263  11.405
49278W        W20949   7.822  33.500   3.700
49279W        W20950   6.222  13.752  11.728
49280W        W20951  33.002  23.069   2.422
49281W        W20952  30.399  10.907   2.758
49282W        W20953   7.785  31.357  13.091
49283W        W20954   4.926  26.727  10.706
49284W        W20955  44.343  41.824   2.453
49285W        W20956   9.938  13.635   3.043
49286W        W20957  36.888  36.602   2.896
49287W        W20958  37.258   0.508   2.264
49288W        W20959  15.179  41.537  13.446
49289W        W20960  20.985  14.651  10.910
49290W        W20961  15.790  40.744   2.597
49291W        W20962  39.047  41.587  11.664
49292W        W20963  35.763  11.691   4.690
49293W        W20964   0.189  13.407  13.680
49294W        W20965   9.256   4.434   1.615
49295W        W20966  42.965  16.035  13.419
49296W        W20967   1.885  11.145   0.452
49297W        W20968  24.526  41.008  14.881
49298W        W20969  38.684   8.837  13.642
49299W        W20970  36.008  42.337  12.816
49300W        W20971  26.936  17.168   3.144
49301W        W20972  37.011  29.031  13.862
49302W        W20973  25.400  16.603   1.992
49303W        W20974   9.903  36.302   0.660
49304W        W20975  15.245  32.593   4.576
49305W        W20976  20.801   6.680   2.081
49306W        W20977  34.296  44.827   4.193
49307W        W20978  29.471  23.286  13.890
49308W        W20979  21.848   3.943   0.719
49309W        W20980   0.979  28.662  14.704
49310W        W20981  31.655   5.757   1.412
49311W        W20982  36.750  29.991   4.079
49312W        W20983  16.790   2.771  11.131
49313W        W20984   1.818  35.032  13.006
49314W        W20985  31.023  10.900   0.465
49315W        W20986  43.534  24.975   0.794
49316W        W20987   6.985   3.948   3.659
49317W        W20988  21.973  20.545  14.261
49318W        W20989  11.334  33.844   2.688
49319W        W20990  36.811  15.395  14.063
49320W        W20991  13.146  30.407  12.533
49321W        W20992  25.102  39.720   4.520
49322W        W20993   0.270  11.245  11.522
49323W        W20994   6.044  33.643  10.891
49324W        W20995  23.960  30.683  11.368
49325W        W20996  26.003  39.441   4.093
49326W        W20997  41.301   9.060  12.034
49327W        W20998  44.768  26.928  14.447
49328W        W20999  10.174  22.729  10.625
49329W        W21000  38.473   0.988   4.511
49330W        W21001  15.036  33.945   0.543
49331W        W21002  40.391  28.624  10.844
49332W        W21003  39.022  31.912   3.356
49333W        W21004  10.809   5.739   3.376
49334W        W21005  22.040   4.365   2.233
49335W        W21006  13.921   2.482  14.047
49336W        W21007  20.080  28.700  12.484
49337W        W21008   2.211   4.699  12.457
49338W        W21009  18.103  27.584  11.186
49339W        W21010   0.134  28.249  14.551
49340W        W21011  20.856  10.812  13.031
49341W        W21012   5.453  23.719  12.729
49342W        W21013  15.136  21.259  13.399
49343W        W21014  20.951   8.894   1.008
49344W        W21015  21.672  14.965   0.881
49345W        W21016  13.230  33.678   2.385
49346W        W21017  13.196  16.141  14.291
49347W        W21018  42.444  11.114   3.879
49348W        W21019   6.306  11.410  12.923
49349W        W21020  27.696   9.775   5.631
49350W        W21021  42.222  18.472   2.170
49351W        W21022  25.278  37.413   5.104
49352W        W21023   5.465  27.935   2.178
49353W        W21024  20.037  30.009   2.783
49354W        W21025  26.269  32.929  13.249
49355W        W21026  10.700  21.127   3.187
49356W        W21027  27.925  15.211   0.781
49357W        W21028   7.952  11.733   2.772
49358W        W21029  34.103  11.919  12.413
49359W        W21030  43.515  19.804  13.589
49360W        W21031  15.071  18.672   2.326
49361W        W21032  22.824  29.167   4.299
49362W        W21033  37.403  38.033   3.113
49363W        W21034  13.089  39.595  14.909
49364W        W21035   0.466  44.628  13.791
49365W        W21036  33.359  12.372  14.370
49366W        W21037  41.973  15.846   3.709
49367W        W21038  14.630  25.966   1.842
49368W        W21039  16.304   6.665  11.047
49369W        W21040  12.571   3.221  14.105
49370W        W21041  27.115  41.264  10.432
49371W        W21042  10.446  44.845  14.558
49372W        W21043  36.138  41.419  11.586
49373W        W21044  44.399  17.517  12.495
49374W        W21045   3.693  23.705   1.801
49375W        W21046  31.330  39.008  11.485
49376W        W21047  11.570  13.288   3.726
49377W        W21048  18.311  36.835  14.598
49378W        W21049  11.375   4.348  10.682
49379W        W21050  17.693  21.871  14.124
49380W        W21051  26.399  34.513   1.345
49381W        W21052  20.494  26.131  10.296
49382W        W21053  15.581   9.298   0.879
49383W        W21054  43.822  17.751   4.625
49384W        W21055  40.058  15.202   1.253
49385W        W21056  42.478  44.796  13.603
49386W        W21057   2.475  25.214   4.097
49387W        W21058  20.161  16.815   0.941
49388W        W21059  42.365  19.218   3.996
49389W        W21060   1.687  37.969  14.300
49390W        W21061   6.479   3.209  11.484
49391W        W21062  41.266  14.555  14.371
49392W        W21063  16.062   3.729   4.133
49393W        W21064  24.877  39.382   0.140
49394W        W21065  25.068  28.516   3.258
49395W        W21066  39.812  33.864  14.462
49396W        W21067   1.303  24.223   1.903
49397W        W21068  10.668  34.176   1.068
49398W        W21069  10.981  10.262  14.011
49399W        W21070   0.476   0.425  14.961
49400W        W21071   2.762   7.585  13.594
49401W        W21072  41.517  17.732   4.327
49402W        W21073  30.637   9.933  13.566
49403W        W21074  26.694  24.731   3.287
49404W        W21075   2.685  26.663  13.403
49405W        W21076  14.666   5.927  14.826
49406W        W21077  28.449  36.456   4.565
49407W        W21078  26.918   3.704  13.674
49408W        W21079  23.455  17.246  13.849
49409W        W21080  40.944   2.953   4.585
49410W        W21081  10.799  14.078   4.247
49411W        W21082   5.973  40.295   1.383
49412W        W21083  12.880  32.389   2.676
49413W        W21084   6.616  20.285   0.777
49414W        W21085  16.117   8.440   4.840
49415W        W21086  10.228  35.531  14.846
49416W        W21087  44.866  12.600  12.506
49417W        W21088  39.440  25.177   0.801
49418W        W21089   8.894  43.012  12.112
49419W        W21090  15.458  13.025   5.162
49420W        W21091  24.725  41.565   4.139
49421W        W21092  32.143  40.428  11.638
49422W        W21093  35.942  44.257  14.971
49423W        W21094  44.985  22.663   3.625
49424W        W21095  38.822  44.299   1.863
49425W        W21096  43.035  22.007  14.499
49426W        W21097   1.925   6.376  14.649
49427W        W21098  16.323  24.969   0.462
49428W        W21099  25.748  15.036  10.786
49429W        W21100  26.605  32.915   3.316
49430W        W21101   6.977  26.602   5.134
49431W        W21102  26.906  35.396  11.592
49432W        W21103  31.964  18.665   3.404
49433W        W21104  33.884  39.928   0.311
49434W        W21105  35.600  29.550  12.589
49435W        W21106  44.699   0.938  12.454
49436W        W21107   3.781  23.627   4.089
49437W        W21108  20.619   5.351   3.872
49438W        W21109  32.898  38.749  14.660
49439W        W21110  16.398   3.398   1.403
49440W        W21111  28.714  38.853   2.175
49441W        W21112  29.167  33.288  14.002
49442W        W21113  28.046  41.825  14.379
49443W        W21114  19.746  12.375   1.708
49444W        W21115  41.816  15.749   0.300
49445W        W21116  42.376  13.315  14.924
49446W        W21117  18.460  40.972   0.959
49447W        W21118  13.076  42.903  13.722
49448W        W21119   2.285  15.075   3.406
49449W        W21120  31.945  26.404  13.822
49450W        W21121   7.347  14.734  10.832
49451W        W21122   3.641  22.232   0.753
49452W        W21123  42.487  42.515  12.228
49453W        W21124  38.733  37.092  14.682
49454W        W21125  41.784  38.088  13.375
49455W        W21126  19.427  15.715  10.650
49456W        W21127   1.766  35.582   4.593
49457W        W21128  31.126   7.037  12.998
49458W        W21129   9.972  43.323   0.033
49459W        W21130  37.976  19.007   4.102
49460W        W21131   6.640  24.239  13.015
49461W        W21132  18.655  44.985  14.456
49462W        W21133  26.703  28.775  12.374
49463W        W21134  23.997  31.516  12.826
49464W        W21135  15.850  21.063  12.017
49465W        W21136  17.965   2.919  10.374
49466W        W21137  10.941  39.356   1.788
49467W        W21138   3.988   5.451  13.386
49468W        W21139  25.437  36.861   3.806
49469W        W21140   0.485   2.892  14.319
49470W        W21141   3.959   4.801   3.637
49471W        W21142  33.565   5.919   1.399
49472W        W21143  25.667  29.041  10.276
49473W        W21144  26.173   6.969  11.015
49474W        W21145  19.169  26.223  14.721
49475W        W21146   6.426  21.216   3.298
49476W        W21147  10.228  42.945  11.137
49477W        W21148  12.175  12.778   0.030
49478W        W21149  36.322   6.839   0.201
49479W        W21150  39.235  37.805   4.547
49480W        W21151  15.835  21.004   3.504
49481W        W21152  24.936   3.778   4.019
49482W        W21153  42.752   9.770  13.024
49483W        W21154  13.693  18.542  12.092
49484W        W21155   5.570   6.715   2.201
49485W        W21156  41.507  19.681   1.428
49486W        W21157  24.487  15.621   4.620
49487W        W21158  36.437   1.744   3.084
49488W        W21159  27.645  14.946  11.632
49489W        W21160  21.685   0.307   4.261
49490W        W21161  34.233  28.477  13.494
49491W        W21162  12.266  42.400  14.755
49492W        W21163   1.988  37.953  11.619
49493W        W21164  41.734  15.222  13.957
49494W        W21165  14.570   6.440  14.812
49495W        W21166  31.576  23.258   2.253
49496W        W21167  42.727  13.694   4.264
49497W        W21168  40.323   3.765   1.255
49498W        W21169  23.983   7.641   2.878
49499W        W21170  20.691   9.448   3.832
49500W        W21171  41.761  37.356   1.445
49501W        W21172  11.849   1.749   1.897
49502W        W21173  16.954  12.221   4.221
49503W        W21174  35.596  24.005  11.591
49504W        W21175  37.021  30.537  13.097
49505W        W21176  33.827  24.564  13.034
49506W        W21177  34.796  40.534   4.015
49507W        W21178  15.684  17.293  12.027
49508W        W21179  43.887   0.523   2.051
49509W        W21180  40.499   7.210  12.572
49510W        W21181   9.652  18.215  11.107
49511W        W21182  16.194  10.372   0.484
49512W        W21183  32.554  29.737   3.931
49513W        W21184  38.529   3.228   2.161
49514W        W21185  30.911  26.973  12.027
49515W        W21186  41.911  39.300  14.619
49516W        W21187  29.536  21.594   4.424
49517W        W21188  23.776  38.437  11.572
49518W        W21189  15.591   2.934   4.327
49519W        W21190  21.553  18.111   0.238
49520W        W21191  10.881   7.635  11.777
49521W        W21192   7.427  35.863   3.831
49522W        W21193   7.187  14.874   2.161
49523W        W21194  17.358  42.412  14.803
49524W        W21195  14.236  21.749   0.894
49525W        W21196  22.490   6.171  13.526
49526W        W21197  23.200   2.998   4.112
49527W        W21198  24.654  11.635  14.384
49528W        W21199  30.086  19.277   3.358
49529W        W21200  44.380  12.481  13.378
49530W        W21201  28.464  41.520  14.302
49531W        W21202  44.465  34.327   1.606
49532W        W21203  10.169  26.982  11.790
49533W        W21204  11.717  42.566   3.135
49534W        W21205  33.307  18.418  11.676
49535W        W21206  18.771  13.141  12.294
49536W        W21207   9.949  20.012  13.464
49537W        W21208  28.057   5.401   2.891
49538W        W21209  13.825  42.540  11.991
49539W        W21210  43.888  31.198  11.701
49540W        W21211  16.276  21.722  13.334
49541W        W21212  18.275  16.122   1.242
49542W        W21213  35.899  27.121   0.929
49543W        W21214   1.479  42.348   3.880
49544W        W21215  44.971  39.158   4.680
49545W        W21216  28.490  21.133  11.638
49546W        W21217   9.685  11.608   2.706
49547W        W21218  10.749  10.384  12.432
49548W        W21219  24.648  20.523  14.792
49549W        W21220  11.411   6.346   2.911
49550W        W21221  16.174   9.885   2.838
49551W        W21222  19.063  11.454   5.467
49552W        W21223  16.067   0.465  14.191
49553W        W21224  41.302   4.368   0.700
49554W        W21225  12.247  15.608  12.013
49555W        W21226  30.489  22.017   4.948
49556W        W21227   0.973  29.910   4.944
49557W        W21228  43.107  19.472   4.631
49558W        W21229   7.076  12.304  14.234
49559W        W21230   6.238  38.129  13.469
49560W        W21231  38.241  14.390   3.235
49561W        W21232  19.205  40.494  10.575
49562W        W21233  14.609  21.573  11.801
49563W        W21234  11.388  32.937   4.893
49564W        W21235  17.710  31.053  11.496
49565W        W21236  20.634  29.794   4.089
49566W        W21237  12.278  39.043   2.675
49567W        W21238  30.606  25.276  10.988
49568W        W21239  30.443  23.601  13.970
49569W        W21240  40.237   3.125   4.317
49570W        W21241  43.605  12.123   0.750
49571W        W21242   2.962  31.215  11.964
49572W        W21243   7.877  39.022  10.341
49573W        W21244   0.637  20.576  13.550
49574W        W21245   2.300  22.904  11.293
49575W        W21246   1.756   0.609  13.447
49576W        W21247   5.980  35.640  10.969
49577W        W21248  14.782   0.278  10.849
49578W        W21249  44.011  21.132   0.722
49579W        W21250   0.640  19.084   3.370
49580W        W21251  35.002  41.646   0.879
49581W        W21252   7.921   8.445  13.639
49582W        W21253  20.136  28.850   2.510
49583W        W21254   9.166   1.269   4.579
49584W        W21255  37.865  31.474  13.390
49585W        W21256   4.147  19.805  12.895
49586W        W21257  30.465  44.559   2.355
49587W        W21258  18.044  32.940  14.310
49588W        W21259   7.698   8.905  11.533
49589W        W21260  31.914  23.986   2.682
49590W        W21261  20.747   0.462  13.524
49591W        W21262  24.560  33.651  10.280
49592W        W21263  43.736  19.531   2.500
49593W        W21264  31.423  21.547  13.248
49594W        W21265  28.040  21.506   1.640
49595W        W21266  42.985  35.927   0.017
49596W        W21267  44.185  29.697  13.048
49597W        W21268   5.442  22.764   4.224
49598W        W21269   1.828  35.445  12.665
49599W        W21270  14.842  20.803  14.815
49600W        W21271  21.409  44.790  10.576
49601W        W21272  14.525   3.195   3.415
49602W        W21273  22.476  21.230   2.748
49603W        W21274  14.366   2.542   0.847
49604W        W21275  29.478  20.806  11.685
49605W        W21276  32.231  30.442  13.941
49606W        W21277   7.672   2.489  13.742
49607W        W21278  14.009  23.023   1.389
49608W        W21279  10.171  17.669   4.890
49609W        W21280  19.487   3.268  14.428
49610W        W21281  40.392  36.886   2.576
49611W        W21282  34.575  21.056   1.652
49612W        W21283  24.565  11.142   4.448
49613W        W21284  33.873  18.210   1.936
49614W        W21285  12.950  32.423   1.858
49615W        W21286  29.461   9.943   0.308
49616W        W21287  37.442  16.343  12.599
49617W        W21288  40.087   9.744  14.572
49618W        W21289  36.888   0.937  11.003
49619W        W21290  15.476   9.320   2.835
49620W        W21291  39.234   9.550   4.238
49621W        W21292  42.330  32.445  14.823
49622W        W21293   9.677  22.585  10.588
49623W        W21294  14.830  34.889   1.399
49624W        W21295  29.749  12.088   4.095
49625W        W21296   4.774  19.989   2.832
49626W        W21297  16.855  15.368  11.568
49627W        W21298  14.269  12.101   2.139
49628W        W21299  33.576   5.921   2.733
49629W        W21300  30.917  10.898   2.788
49630W        W21301   8.847   6.220  14.853
49631W        W21302  28.063  41.980  10.364
49632W        W21303  10.254  42.353   2.938
49633W        W21304  37.613  34.018   2.045
49634W        W21305  14.095  24.579  13.992
49635W        W21306  33.025  42.325  14.783
49636W        W21307   2.858  23.511  12.437
49637W        W21308   8.921  40.478   2.360
49638W        W21309  15.289  21.750   1.714
49639W        W21310  34.527  23.811   4.059
49640W        W21311   5.459   5.396  11.962
49641W        W21312   3.945  20.673  11.921
49642W        W21313  30.347  13.345  11.601
49643W        W21314  42.757  26.499   0.486
49644W        W21315   2.359  11.241  14.851
49645W        W21316  25.241  17.472  11.059
49646W        W21317  27.574   7.341   4.361
49647W        W21318  12.881  28.609  10.477
49648W        W21319   0.977  17.761   4.086
49649W        W21320  23.364   7.971   0.329
49650W        W21321  34.037   7.166  11.617
49651W        W21322  40.802  32.588   4.294
49652W        W21323  24.484  17.236   3.909
49653W        W21324  19.631  21.805   3.036
49654W        W21325  44.950  31.150  13.347
49655W        W21326  12.801   6.783  11.399
49656W        W21327  22.791   0.698  11.117
49657W        W21328  13.735   5.468   3.533
49658W        W21329   1.736  26.932  12.476
49659W        W21330  22.847  28.550   3.860
49660W        W21331  39.497  35.033   2.127
49661W        W21332  32.095  41.954  14.908
49662W        W21333  17.300  18.326  14.853
49663W        W21334  37.796  34.604  12.832
49664W        W21335  25.197  33.047   3.270
49665W        W21336  19.450  42.901  12.959
49666W        W21337  21.864   2.974   1.966
49667W        W21338   7.036  34.262   4.220
49668W        W21339  22.251  34.813   2.121
49669W        W21340  31.066  34.629  12.636
49670W        W21341  24.881  37.900   4.618
49671W        W21342  19.816  10.805   1.891
49672W        W21343  44.024  12.244  14.107
49673W        W21344  10.705  38.850  14.618
49674W        W21345   5.811  32.405   1.008
49675W        W21346  34.074   5.317  10.522
49676W        W21347  21.083  14.213  12.961
49677W        W21348  24.673  23.476   2.795
49678W        W21349  21.040  16.166   3.795
49679W        W21350  43.903  30.760  13.483
49680W        W21351  30.220  12.655   0.302
49681W        W21352   2.471  23.626   3.569
49682W        W21353  16.659  25.538   3.800
49683W        W21354   3.452  12.107  11.326
49684W        W21355   7.404  34.609  11.996
49685W        W21356   7.194  14.880   4.718
49686W        W21357  20.751  38.298   3.580
49687W        W21358   2.190   5.130  11.124
49688W        W21359  13.616  39.069   1.899
49689W        W21360  22.724  34.182  13.525
49690W        W21361  34.581  28.988  12.876
49691W        W21362  35.787  42.831   1.364
49692W        W21363  33.557  12.837   9.953
49693W        W21364  37.774  39.068  11.825
49694W        W21365   5.806  40.405   0.560
49695W        W21366  10.842  34.058   1.525
49696W        W21367   4.401   2.963   0.375
49697W        W21368   7.392  38.433   0.393
49698W        W21369  44.118   7.548   9.857
49699W        W21370  43.850  20.682   3.378
49700W        W21371  37.029  36.836  11.009
49701W        W21372   4.354  30.073  10.758
49702W        W21373  40.392  30.002   1.361
49703W        W21374  30.892   0.423  11.183
49704W        W21375   0.663  41.045  10.550
49705W        W21376  41.805  30.898  14.181
49706W        W21377  37.221  11.656  11.990
49707W        W21378  32.393   9.329   0.759
49708W        W21379  39.603  30.175  11.012
49709W        W21380   7.892  23.052   0.271
49710W        W21381  24.528  38.531   9.986
49711W        W21382  22.317  42.478  13.958
49712W        W21383   3.538  35.891  11.534
49713W        W21384  44.759  16.484  12.499
49714W        W21385  32.387   2.846   3.761
49715W        W21386  26.221   9.785   1.332
49716W        W21387  26.124   2.755   2.341
49717W        W21388  24.918   7.261  11.077
49718W        W21389  43.767  24.621  14.754
49719W        W21390  24.031  10.853   4.263
49720W        W21391  27.023  39.720   1.591
49721W        W21392  34.247  41.849   1.153
49722W        W21393  16.374  24.908  12.436
49723W        W21394  18.278   8.171   1.877
49724W        W21395  37.079  26.465   0.863
49725W        W21396  37.816  10.466  10.716
49726W        W21397   2.624   5.981  13.935
49727W        W21398   8.479   7.256  10.484
49728W        W21399  15.000  18.473  12.845
49729W        W21400  21.243  28.130  13.936
49730W        W21401   9.819   3.524  13.761
49731W        W21402  40.539  18.576   2.192
49732W        W21403   4.681  44.894  10.436
49733W        W21404  10.348  28.465   2.739
49734W        W21405  43.077  36.491  13.348
49735W        W21406  38.966  25.779  14.893
49736W        W21407  17.275   0.268  14.360
49737W        W21408   1.773   2.691   0.284
49738W        W21409  22.248   5.770  12.570
49739W        W21410  37.366  14.607   2.007
49740W        W21411  36.151   6.663   4.805
49741W        W21412  37.508  43.435   2.143
49742W        W21413  29.403  10.963   0.800
49743W        W21414  30.645   8.746  14.350
49744W        W21415  40.850  24.541  12.698
49745W        W21416  41.290  18.022  12.787
49746W        W21417   5.251  41.814  13.896
49747W        W21418   1.798  24.932   1.804
49748W        W21419  41.887  12.752  14.496
49749W        W21420   7.174  40.253   5.111
49750W        W21421  37.152  13.345  14.815
49751W        W21422  27.464  19.192  13.035
49752W        W21423  43.303  32.338   0.176
49753W        W21424  15.527  17.267   2.527
49754W        W21425  19.309   1.231  11.088
49755W        W21426  13.879  32.279   2.282
49756W        W21427  34.362  38.823   1.271
49757W        W21428  29.105  30.607  13.604
49758W        W21429  21.563  28.721  13.433
49759W        W21430   7.387  36.996  12.799
49760W        W21431  20.087  10.730  11.183
49761W        W21432  37.617   3.516   4.762
49762W        W21433  27.248  27.924  11.546
49763W        W21434   3.860  29.375   2.272
49764W        W21435  33.449  19.560  14.367
49765W        W21436   7.289   6.979  11.163
49766W        W21437  18.977  31.686  10.542
49767W        W21438  41.303  25.070  14.490
49768W        W21439   7.687   3.304   3.687
49769W        W21440  33.485   5.154   4.367
49770W        W21441   4.840  37.456  14.318
49771W        W21442  24.225  19.671   0.835
49772W        W21443  17.576   7.688  11.120
49773W        W21444  17.691   0.341  11.150
49774W        W21445  14.155   8.276  13.736
49775W        W21446   5.498  33.989   1.390
49776W        W21447  37.006   0.506   2.730
49777W        W21448   1.503  30.032   3.173
49778W        W21449  16.886  18.324  13.512
49779W        W21450  28.302   5.328  13.997
49780W        W21451  22.503   6.747   2.322
49781W        W21452  37.068  25.632   2.715
49782W        W21453  37.643  29.404  10.739
49783W        W21454  14.399   8.411   3.141
49784W        W21455  21.036  34.960   4.167
49785W        W21456  44.365  12.212   5.038
49786W        W21457  39.139  35.585   4.286
49787W        W21458  15.226  43.448   0.775
49788W        W21459  30.344  22.877   2.684
49789W        W21460  14.238  16.553  14.328
49790W        W21461  20.487  26.102   1.070
49791W        W21462  15.646  33.832   2.738
49792W        W21463  16.559  30.622  12.480
49793W        W21464  22.536  43.279   1.904
49794W        W21465  24.622  14.578   0.446
49795W        W21466  31.243  42.444  13.018
49796W        W21467   9.456  16.989   4.968
49797W        W21468  15.249  35.820   3.045
49798W        W21469  27.879   4.822  11.350
49799W        W21470  29.805   2.005  13.112
49800W        W21471  26.079  19.198  13.138
49801W        W21472  27.991  40.410  12.866
49802W        W21473  14.144  38.735  11.615
49803W        W21474  32.300  36.215   2.013
49804W        W21475  22.108  33.632   2.934
49805W        W21476   7.800  12.758  11.541
49806W        W21477  36.040  22.368  12.802
49807W        W21478  21.390  15.499   2.436
49808W        W21479   9.839  39.060   4.229
49809W        W21480  38.503   3.006  12.944
49810W        W21481  29.522  13.681   0.838
49811W        W21482  37.851   3.585   2.433
49812W        W21483  38.527  34.732   4.629
49813W        W21484  38.347   5.230  13.061
49814W        W21485  27.624   4.404   2.726
49815W        W21486  33.103  26.820   2.707
49816W        W21487  18.724  18.320  13.329
49817W        W21488   8.625  26.736   2.321
49818W        W21489  26.738  36.639  12.504
49819W        W21490   4.287  14.777   4.385
49820W        W21491   0.810   3.411   3.209
49821W        W21492  30.183  19.598  13.569
49822W        W21493  26.602  25.765  13.386
49823W        W21494  13.647  21.622  14.378
49824W        W21495   0.830  13.140  11.460
49825W        W21496  23.224  27.223  13.899
49826W        W21497   0.086  20.254   0.765
49827W        W21498  13.393   7.858  14.790
49828W        W21499   4.676  38.615   0.207
49829W        W21500  25.319  22.087   2.404
49830W        W21501  16.429  19.207   4.421
49831W        W21502   2.230  32.169  12.546
49832W        W21503  36.566  11.354  10.619
49833W        W21504  27.602  35.515  13.717
49834W        W21505  13.367  20.156   1.722
49835W        W21506  25.457  27.136   3.599
49836W        W21507   1.733   3.315   3.537
49837W        W21508  41.341   7.818  14.800
49838W        W21509  21.196  33.121  14.509
49839W        W21510  26.225  22.600  12.527
49840W        W21511  41.024  36.934   4.748
49841W        W21512   6.694  40.791   2.853
49842W        W21513  12.478  24.066  14.271
49843W        W21514  12.685  28.325   3.774
49844W        W21515  27.278  10.095   0.022
49845W        W21516   9.320  14.936   1.214
49846W        W21517  43.976  16.217  12.592
49847W        W21518  19.660  23.143   2.606
49848W        W21519  37.060  19.277  13.379
49849W        W21520  23.625  29.115   4.345
49850W        W21521  22.152  33.576   3.958
49851W        W21522  20.702  41.382   1.667
49852W        W21523  40.878  29.442  13.970
49853W        W21524   9.379  44.702  11.022
49854W        W21525  12.826   7.239   2.896
49855W        W21526   4.782  12.830   4.138
49856W        W21527  35.005  32.875   4.731
49857W        W21528  15.082  41.767   3.383
49858W        W21529  33.034  16.694   1.069
49859W        W21530  12.828  40.000   4.276
49860W        W21531  30.021  13.544   0.109
49861W        W21532  15.746   4.344   9.998
49862W        W21533  29.240   9.794   4.114
49863W        W21534   8.420  44.909  11.108
49864W        W21535   2.376  13.857   1.764
49865W        W21536  21.868  11.798   0.091
49866W        W21537   1.389  35.390   2.793
49867W        W21538   5.901  12.217  13.072
49868W        W21539  44.341  34.802   1.787
49869W        W21540  41.134   0.358  14.985
49870W        W21541  26.404  13.816  14.810
49871W        W21542  17.736  22.901  12.612
49872W        W21543  25.430  23.616  14.990
49873W        W21544  21.631  31.313  13.736
49874W        W21545  14.577  31.197   4.708
49875W        W21546   0.419  39.951  13.577
49876W        W21547   5.639   6.187  12.936
49877W        W21548   5.790   8.291  11.220
49878W        W21549   5.767  15.665  14.055
49879W        W21550  17.025  32.150  14.772
49880W        W21551  25.776  23.716   4.702
49881W        W21552  11.938   0.383   3.150
49882W        W21553   7.371  18.459  13.844
49883W        W21554   5.452  40.481  10.656
49884W        W21555  24.564  38.309   3.512
49885W        W21556   9.864  35.069   0.011
49886W        W21557  11.397  38.418   3.801
49887W        W21558  13.029  20.031   2.433
49888W        W21559  23.859  30.194  14.079
49889W        W21560  15.553   1.960  13.969
49890W        W21561  25.518  18.794  10.675
49891W        W21562   1.993   0.473  14.875
49892W        W21563  37.880  16.728   1.161
49893W        W21564  13.420  16.799   0.032
49894W        W21565  28.623   9.071   0.287
49895W        W21566   3.235  18.580   1.320
49896W        W21567  44.861   5.426   1.270
49897W        W21568  20.595  36.348  12.806
49898W        W21569  10.371  40.493   1.458
49899W        W21570  33.993  19.921   4.664
49900W        W21571   0.934  18.525   4.609
49901W        W21572  18.253  38.071   1.004
49902W        W21573  25.367  42.891   4.270
49903W        W21574  44.731   5.251  12.415
49904W        W21575  40.760  12.233  10.803
49905W        W21576  14.649  11.091  12.644
49906W        W21577  38.896  16.664   4.373
49907W        W21578  41.076  14.639  12.504
49908W        W21579  37.782  26.005   1.802
49909W        W21580   4.806  18.824   3.262
49910W        W21581  18.292  38.291  12.331
49911W        W21582  34.678  36.311   4.169
49912W        W21583  32.384  18.286   3.340
49913W        W21584  44.290  26.885   2.251
49914W        W21585  40.252  30.548  13.577
49915W        W21586  15.007  18.995  11.583
49916W        W21587  32.842  25.675   4.207
49917W        W21588  11.226  32.825  12.409
49918W        W21589  16.612   0.063   1.704
49919W        W21590  26.424   4.791  12.614
49920W        W21591  26.154  44.111   4.551
49921W        W21592  28.507  35.550   0.261
49922W        W21593  28.903  22.327  10.739
49923W        W21594  36.912  38.606  13.830
49924W        W21595  44.511  29.232   2.350
49925W        W21596  43.245   5.634   3.667
49926W        W21597  21.152  13.442   4.068
49927W        W21598  24.663  30.730  11.633
49928W        W21599  25.878  42.912   4.206
49929W        W21600   1.301  22.210   0.546
49930W        W21601  26.604  38.878   5.267
49931W        W21602  20.125  33.520   3.745
49932W        W21603   7.862   2.919   2.385
49933W        W21604  16.068  24.512   2.262
49934W        W21605  37.896  13.157  14.501
49935W        W21606  19.723   7.895  13.957
49936W        W21607  20.597  16.200   4.379
49937W        W21608  28.911  28.675   2.755
49938W        W21609  24.713  10.730  10.899
49939W        W21610  30.153  33.132  11.989
49940W        W21611  36.054   0.528  14.393
49941W        W21612  42.294   6.439   0.426
49942W        W21613  17.803  29.891   0.102
49943W        W21614  16.868  11.845  13.459
49944W        W21615   4.449   7.322  13.709
49945W        W21616  21.068  42.881   3.149
49946W        W21617  27.555  28.716   1.402
49947W        W21618  11.362  27.945  13.147
49948W        W21619  15.015  39.041   2.884
49949W        W21620  18.740  30.967   3.649
49950W        W21621  42.940   0.022  11.547
49951W        W21622  21.480  43.942  14.454
49952W        W21623  37.999  26.882  13.412
49953W        W21624  33.415  15.153   0.489
49954W        W21625  37.992  34.984  13.935
49955W        W21626  12.366  29.667  10.725
49956W        W21627  27.662  42.176  13.388
49957W        W21628  25.511  33.364   1.868
49958W        W21629   9.843   8.936  14.902
49959W        W21630  21.807  38.580   1.777
49960W        W21631  28.193  19.946  12.002
49961W        W21632   7.402   9.437   2.301
49962W        W21633  42.932  18.735   3.234
49963W        W21634  35.855   9.870  13.102
49964W        W21635  36.892  35.815   3.767
49965W        W21636   3.509  18.686  13.156
49966W        W21637  44.222  14.832  13.741
49967W        W21638  41.609  25.428   2.734
49968W        W21639  37.796  29.244   5.047
49969W        W21640   1.567  32.435   2.693
49970W        W21641  28.481  18.055   4.359
49971W        W21642  35.566   5.233   1.180
49972W        W21643  31.025   9.516   3.235
49973W        W21644  37.957  38.773   9.831
49974W        W21645  40.352   5.539   4.085
49975W        W21646  27.407  42.183   1.002
49976W        W21647   1.845  42.906   0.859
49977W        W21648   2.726  44.797  12.047
49978W        W21649  28.897   4.364   0.915
49979W        W21650  17.438  16.090  13.635
49980W        W21651   9.166   7.838  10.703
49981W        W21652   2.964  41.950   2.960
49982W        W21653  14.749  22.515   4.557
49983W        W21654  29.656  35.073   1.307
49984W        W21655  22.241  38.471  10.985
49985W        W21656  43.920  43.099   4.610
49986W        W21657  13.940  26.182  13.517
49987W        W21658  38.457  37.574  12.848
49988W        W21659   3.262  17.532   2.265
49989W        W21660  16.498  10.460  13.886
49990W        W21661  37.753  30.657   2.658
49991W        W21662  34.308  39.494  13.370
49992W        W21663  32.646  27.651   0.733
49993W        W21664   6.654   8.748   2.902
49994W        W21665  28.282  39.425  10.240
49995W        W21666  19.697  27.814  11.826
49996W        W21667  20.599  11.743  11.487
49997W        W21668  32.059  34.291   2.434
49998W        W21669  14.762   4.950   1.312
49999W        W21670  25.008  40.083   4.896
50000W        W21671  16.168  44.291  12.437
50001W        W21672  36.906   3.094   0.414
50002W        W21673  42.051  15.802   9.977
50003W        W21674  39.291  27.636   4.165
50004W        W21675  10.698   0.360  10.935
50005W        W21676   2.035   3.672   3.810
50006W        W21677  18.629  17.792  14.598
50007W        W21678  23.783  27.462   1.725
50008W        W21679  15.081  33.899  12.463
50009W        W21680  13.707  41.195   3.987
50010W        W21681  42.873  30.124   2.899
50011W        W21682  18.636  34.481  12.600
50012W        W21683  34.666  44.895   0.949
50013W        W21684  36.288  26.850   4.186
50014W        W21685   8.279   7.331   2.758
50015W        W21686  25.611   1.344  11.140
50016W        W21687   6.386  16.673   0.811
50017W        W21688  29.644  13.810  14.804
50018W        W21689  43.845  37.469  14.830
50019W        W21690  16.762   6.244   2.189
50020W        W21691  18.828  26.044   5.175
50021W        W21692  41.036  31.351  12.610
50022W        W21693  37.103  32.330  14.061
50023W        W21694  44.480  14.132  10.205
50024W        W21695  13.783  35.660  11.342
50025W        W21696  29.590  33.643  13.951
50026W        W21697  29.724  27.979   1.427
50027W        W21698  39.796   8.376   0.388
50028W        W21699  36.356  23.870   1.746
50029W        W21700  37.260   4.825  11.075
50030W        W21701   8.360   4.051  12.587
50031W        W21702   1.697   4.656  12.449
50032W        W21703  17.366  10.833  14.828
50033W        W21704  41.094  21.232   4.533
50034W        W21705  19.019  12.700  10.692
50035W        W21706  23.472  30.611   1.802
50036W        W21707  28.998  17.998   4.585
50037W        W21708  19.169   7.076   3.226
50038W        W21709  18.283   5.813   2.316
50039W        W21710  31.073  15.929   4.223
50040W        W21711   0.317  19.505   3.309
50041W        W21712   2.957  24.534  14.062
50042W        W21713  33.396   9.199  10.814
50043W        W21714  24.484  41.922  13.378
50044W        W21715  34.032  40.195  11.981
50045W        W21716  29.530   0.803  12.128
50046W        W21717  42.420  24.232  12.420
50047W        W21718  28.895  23.079  13.446
50048W        W21719  27.911  12.801   0.786
50049W        W21720  16.355  20.903  12.112
50050W        W21721  25.905   7.097  11.551
50051W        W21722  24.256  11.069  12.935
50052W        W21723  31.112  16.471   0.046
50053W        W21724  20.580  18.301  12.515
50054W        W21725  26.584  13.702  10.634
50055W        W21726   2.361  21.082   2.686
50056W        W21727  16.125  20.440  10.455
50057W        W21728  29.245   2.200   2.732
50058W        W21729   2.258  22.192  13.487
50059W        W21730  33.058  15.701   4.479
50060W        W21731  12.321   7.373   0.354
50061W        W21732  28.627  39.781  12.133
50062W        W21733  39.596  14.649   3.221
50063W        W21734  15.404  26.423   0.506
50064W        W21735   7.245  21.969   2.747
50065W        W21736  17.029  24.733   2.814
50066W        W21737  13.628  41.470   2.441
50067W        W21738   5.894  28.437   1.255
50068W        W21739  14.036   3.122   1.606
50069W        W21740  30.608  18.952   1.279
50070W        W21741   2.351  33.733   3.543
50071W        W21742  25.632  13.613   2.638
50072W        W21743   5.204  39.938  11.589
50073W        W21744  24.574   4.707  12.604
50074W        W21745  18.680  30.143  10.862
50075W        W21746   5.558  43.774   4.914
50076W        W21747  30.531  37.068  12.572
50077W        W21748  18.292  13.278   1.415
50078W        W21749  15.125  13.193  13.079
50079W        W21750  42.397  39.680   4.998
50080W        W21751   9.805  34.773   1.023
50081W        W21752  10.981  44.910   3.930
50082W        W21753  41.858  16.720   1.927
50083W        W21754  22.259  39.058  11.675
50084W        W21755   3.099   1.103  11.451
50085W        W21756  30.397  44.726  14.815
50086W        W21757  16.977  37.015   0.465
50087W        W21758  16.546   2.741   2.725
50088W        W21759  22.546  26.690   3.072
50089W        W21760  35.463  38.392  13.547
50090W        W21761  35.908  30.641   1.864
50091W        W21762  11.873  34.511  12.066
50092W        W21763  22.091  12.342  13.807
50093W        W21764  33.321   2.254   1.252
50094W        W21765  21.680  10.750  11.017
50095W        W21766  42.410  22.899  11.817
50096W        W21767  10.367   8.195  14.750
50097W        W21768  41.723  31.022   1.430
50098W        W21769  29.929  41.809  12.120
50099W        W21770  35.104  34.673   0.204
50100W        W21771  34.582   4.177  13.915
50101W        W21772  42.614  15.265  12.543
50102W        W21773  43.455  43.680  14.999
50103W        W21774   4.352  24.063  13.513
50104W        W21775  16.374  15.911  11.529
50105W        W21776  13.454  34.788  11.536
50106W        W21777  23.819   6.588  14.145
50107W        W21778  11.038  41.365  14.986
50108W        W21779  23.659  34.835   2.167
50109W        W21780   7.734  25.508   3.273
50110W        W21781  16.867  38.737  14.310
50111W        W21782  28.674  10.211  12.536
50112W        W21783   8.159  40.786   0.890
50113W        W21784  40.515  13.064   3.246
50114W        W21785  28.161  30.488   2.737
50115W        W21786   6.664  32.631   1.524
50116W        W21787  25.181   2.427  11.578
50117W        W21788  31.575   2.269  14.118
50118W        W21789  32.097  29.558  13.796
50119W        W21790  38.679  30.484   2.246
50120W        W21791  44.330   9.746  13.676
50121W        W21792  14.137   8.960  13.239
50122W        W21793   5.203  16.360  12.480
50123W        W21794  13.220  14.563   1.433
50124W        W21795   4.339  18.293  11.988
50125W        W21796  21.227  34.034   4.097
50126W        W21797  26.494  39.245   2.731
50127W        W21798  16.836  32.395   0.850
50128W        W21799  14.715   2.906   0.631
50129W        W21800  24.446  31.574  11.491
50130W        W21801   4.406  14.910  14.908
50131W        W21802  20.168  30.617   1.715
50132W        W21803  22.550  35.181  13.625
50133W        W21804  41.576  42.568  13.862
50134W        W21805   2.441   9.920  12.904
50135W        W21806  39.084   4.593   5.051
50136W        W21807  34.795  18.169  10.991
50137W        W21808   8.121  44.035   4.158
50138W        W21809  14.124   3.839   2.270
50139W        W21810  25.589  20.055   2.547
50140W        W21811  11.259   0.766   0.859
50141W        W21812   4.929  28.699  12.981
50142W        W21813   6.496  31.566  13.869
50143W        W21814  18.480  26.685  13.830
50144W        W21815  24.215  10.451  13.499
50145W        W21816  15.773   3.758  12.001
50146W        W21817  25.671   0.604   4.072
50147W        W21818   3.687  36.306  14.994
50148W        W21819  42.216  34.702  13.022
50149W        W21820  12.370   4.160   4.162
50150W        W21821  39.653  19.722   3.718
50151W        W21822   6.418  11.396   0.386
50152W        W21823  17.696  13.639  12.108
50153W        W21824   8.807  21.576  12.953
50154W        W21825   4.436  36.336  11.950
50155W        W21826  13.726   0.665   2.929
50156W        W21827  32.220  39.418   3.373
50157W        W21828  24.182  43.329   0.507
50158W        W21829   1.376   2.749  13.267
50159W        W21830  22.259  21.002  14.435
50160W        W21831  19.173  26.196  11.843
50161W        W21832   8.913  13.515  10.823
50162W        W21833   2.046  31.373  12.470
50163W        W21834  41.098  44.580  11.511
50164W        W21835  11.142  14.080  13.636
50165W        W21836  12.042   4.941   4.240
50166W        W21837   3.358  37.978   0.912
50167W        W21838  16.912  35.046   3.383
50168W        W21839  36.258  25.544  13.942
50169W        W21840  36.718   9.382  12.045
50170W        W21841  18.599  13.063  14.013
50171W        W21842  30.511   4.455  12.455
50172W        W21843   3.259   0.738   0.003
50173W        W21844  29.233   7.588   4.552
50174W        W21845  12.463  30.668   0.473
50175W        W21846   4.657  19.579   3.710
50176W        W21847  16.965  10.428  11.034
50177W        W21848  33.895  12.254   0.436
50178W        W21849  23.135  16.564  13.135
50179W        W21850   4.784  37.297   4.121
50180W        W21851  31.002  22.750  10.725
50181W        W21852   1.324   3.302  14.784
50182W        W21853  42.356  20.283  14.472
50183W        W21854  23.511  20.217   2.696
50184W        W21855  40.566  35.094  11.101
50185W        W21856  13.992  33.080  11.704
50186W        W21857  17.081   4.786  11.616
50187W        W21858  10.005  13.865   5.022
50188W        W21859  14.233  43.246  13.366
50189W        W21860  22.972  15.027  10.453
50190W        W21861  15.849  18.755  10.786
50191W        W21862  25.996  16.247  14.769
50192W        W21863  17.310  26.949   0.934
50193W        W21864  31.538  15.211  12.876
50194W        W21865  36.547  37.005   2.807
50195W        W21866  28.355  41.508  13.442
50196W        W21867  17.060  24.598  14.053
50197W        W21868   5.538  39.009   3.337
50198W        W21869  23.724  19.042  13.275
50199W        W21870  12.126   4.843   0.854
50200W        W21871   6.422  30.119  10.723
50201W        W21872  30.043  27.071   2.868
50202W        W21873   7.736  44.793  11.432
50203W        W21874  18.984  21.718  13.007
50204W        W21875  17.073  25.426   1.754
50205W        W21876  38.606  22.937  10.442
50206W        W21877  17.298   5.934  12.143
50207W        W21878  31.965  13.441  13.538
50208W        W21879  11.200  35.507  11.258
50209W        W21880  25.265  33.536   1.413
50210W        W21881  22.718  42.354   3.694
50211W        W21882  40.446  43.928   2.652
50212W        W21883  17.241  24.471   3.216
50213W        W21884   0.698  13.599  13.957
50214W        W21885   5.737  14.171   3.445
50215W        W21886   8.171  42.149  13.426
50216W        W21887  16.565   1.886  14.744
50217W        W21888   8.487  35.111   3.151
50218W        W21889  10.860  19.585   5.203
50219W        W21890  43.192   6.241  13.451
50220W        W21891  17.706  31.693   0.177
50221W        W21892  34.745  29.547   4.425
50222W        W21893  14.630  28.476  13.299
50223W        W21894  28.939   3.704   3.376
50224W        W21895  20.097  18.858  12.796
50225W        W21896  15.617   9.474  14.535
50226W        W21897  37.005  30.067   2.692
50227W        W21898   8.772  16.557  13.372
50228W        W21899  40.047  41.765   4.955
50229W        W21900  21.581   1.967   3.020
50230W        W21901   7.332  25.968   1.864
50231W        W21902  38.734  17.694   0.226
50232W        W21903   4.247  17.203   4.378
50233W        W21904  41.228  37.470   0.171
50234W        W21905  15.621  29.901   2.756
50235W        W21906  24.217   7.208   3.108
50236W        W21907  37.908  19.036   2.206
50237W        W21908   2.220  41.864   3.890
50238W        W21909  32.162  43.492   0.710
50239W        W21910   3.258  15.330   1.320
50240W        W21911  23.630  36.500  10.752
50241W        W21912  29.179   1.873  14.793
50242W        W21913   6.456  28.642  12.563
50243W        W21914   9.684  31.247  11.121
50244W        W21915  40.796  44.770  14.435
50245W        W21916  38.476   9.770  10.968
50246W        W21917  34.059   4.468   2.855
50247W        W21918  39.073  13.651  14.879
50248W        W21919  29.451  21.581   0.984
50249W        W21920  29.676  19.766  14.563
50250W        W21921   1.417  35.420  12.319
50251W        W21922  38.558  26.520  14.032
50252W        W21923  18.054  31.861   3.662
50253W        W21924  39.409  36.114   3.677
50254W        W21925   9.380  41.531  13.380
50255W        W21926  43.366  25.954  11.030
50256W        W21927  24.628   5.789   1.986
50257W        W21928  21.790  44.519  13.666
50258W        W21929   4.979  23.563  12.604
50259W        W21930   0.008  30.250  13.005
50260W        W21931   0.185   4.291  14.669
50261W        W21932  15.589   3.957   4.098
50262W        W21933  21.047  13.745   1.866
50263W        W21934  29.100  28.705  14.342
50264W        W21935  42.438   7.701  13.381
50265W        W21936  37.822  44.790   4.038
50266W        W21937   7.980  25.058   3.371
50267W        W21938   9.299  42.344  12.158
50268W        W21939  10.150  22.732  13.993
50269W        W21940  41.916   8.434   4.756
50270W        W21941  24.844  43.402  12.449
50271W        W21942  25.905  17.494  14.007
50272W        W21943  39.035  37.991   2.195
50273W        W21944  17.723  10.322   4.138
50274W        W21945  29.649  19.072   0.319
50275W        W21946  29.857  42.425  14.827
50276W        W21947   5.900  42.327  13.880
50277W        W21948  32.188   6.362  14.831
50278W        W21949  41.966  36.432  10.986
50279W        W21950  21.299  34.926   0.478
50280W        W21951  39.450  13.387   2.205
50281W        W21952   7.254   2.938   4.721
50282W        W21953   2.978   9.267  10.436
50283W        W21954  30.421  12.384  13.955
50284W        W21955   1.029  13.372   3.401
50285W        W21956   2.695   1.942  14.476
50286W        W21957  12.501  25.980  11.530
50287W        W21958   9.100  15.503  10.919
50288W        W21959  40.281  34.345   2.292
50289W        W21960  40.102  31.864  14.929
50290W        W21961  42.402  37.073  13.384
50291W        W21962  16.332  16.108   3.345
50292W        W21963   2.694   9.810   3.291
50293W        W21964   4.339  25.194   3.211
50294W        W21965  29.069  44.397   3.219
50295W        W21966   4.427  35.861   1.870
50296W        W21967   3.399  29.889  13.412
50297W        W21968  26.106   1.511   4.116
50298W        W21969  23.482   2.867  14.945
50299W        W21970  20.817  21.484  11.120
50300W        W21971   0.482  26.564   1.101
50301W        W21972  27.069  27.477   2.087
50302W        W21973  36.858   6.220  14.499
50303W        W21974  13.667   5.898   9.800
50304W        W21975  12.507  35.127   2.969
50305W        W21976  19.315  40.266  13.401
50306W        W21977  29.503  12.780  12.202
50307W        W21978  11.265  14.369  14.901
50308W        W21979  29.903  28.590   3.552
50309W        W21980   3.693   5.720  12.025
50310W        W21981  20.172   4.758  11.419
50311W        W21982  21.416  26.658   1.706
50312W        W21983  43.756  44.452  14.865
50313W        W21984  16.072  40.877  10.679
50314W        W21985  19.987  22.611  12.131
50315W        W21986  35.516  32.960  12.979
50316W        W21987  38.478  28.074   1.752
50317W        W21988  39.145  28.384  11.085
50318W        W21989  21.183  13.670  11.872
50319W        W21990   2.035  18.175  12.028
50320W        W21991  42.415  32.430   0.871
50321W        W21992  29.651  41.375  10.529
50322W        W21993  32.556   8.762   3.673
50323W        W21994  37.384  22.584   1.451
50324W        W21995  24.281  40.741   1.534
50325W        W21996  17.048  11.951   0.932
50326W        W21997  34.384  15.702  11.202
50327W        W21998  32.621   0.489  14.991
50328W        W21999  32.247  37.337  10.977
50329W        W22000  14.104  21.673  11.934
50330W        W22001  23.158  11.235   3.190
50331W        W22002   4.988   3.203  14.227
50332W        W22003  37.581  21.753  11.492
50333W        W22004  41.061  22.269   2.773
50334W        W22005  15.188  40.822  12.872
50335W        W22006  37.530  40.458   0.436
50336W        W22007  32.697  18.485   0.272
50337W        W22008  35.891  26.499   3.412
50338W        W22009  35.634  44.596  12.059
50339W        W22010  36.403  16.999   4.078
50340W        W22011  30.102   9.641   4.592
50341W        W22012   3.690  10.040  11.632
50342W        W22013  37.850   0.457  12.425
50343W        W22014   4.280   8.847  11.544
50344W        W22015   2.839   7.583   3.286
50345W        W22016  43.094  12.714   3.070
50346W        W22017  17.199  26.649   5.062
50347W        W22018  13.572  10.640   1.708
50348W        W22019  19.140  43.304  13.049
50349W        W22020   6.077  27.649   0.826
50350W        W22021  19.808  17.500   4.742
50351W        W22022  18.814  23.998  12.949
50352W        W22023  39.945  14.781  13.940
50353W        W22024  40.965   1.949   0.036
50354W        W22025  26.876   1.150   4.476
50355W        W22026  23.670  29.394   3.504
50356W        W22027  14.217  19.581  11.666
50357W        W22028  20.461  27.058   4.181
50358W        W22029  14.839  13.768   3.865
50359W        W22030   8.385  18.509  11.410
50360W        W22031   3.951  33.867  10.534
50361W        W22032  14.323  42.487   3.751
50362W        W22033  44.526  24.940  11.458
50363W        W22034  29.565   7.629  12.905
50364W        W22035  21.098   6.134  10.572
50365W        W22036  33.621   0.065  11.062
50366W        W22037  29.164  43.780   1.767
50367W        W22038  42.381  39.562  14.521
50368W        W22039   4.934  32.244  12.626
50369W        W22040  24.799   7.338  13.090
50370W        W22041  17.868  37.985  13.026
50371W        W22042  30.163  34.953  10.362
50372W        W22043  18.011  32.465  13.036
50373W        W22044   7.250  14.352   0.876
50374W        W22045  28.005  19.528   1.691
50375W        W22046  15.206  23.613   4.788
50376W        W22047  14.815   3.887   2.695
50377W        W22048  25.491  10.026   4.582
50378W        W22049  23.150   1.274   4.680
50379W        W22050  15.605   1.322  10.673
50380W        W22051  31.977  30.381  13.483
50381W        W22052  22.797  12.723  14.410
50382W        W22053  18.486  22.081  13.022
50383W        W22054  19.997  24.208   3.737
50384W        W22055  30.175  44.977   2.245
50385W        W22056  42.736  14.417  11.170
50386W        W22057  21.019  25.842  13.116
50387W        W22058  40.774  20.011   1.263
50388W        W22059  22.051  16.704   0.299
50389W        W22060  40.047  29.993   1.782
50390W        W22061  20.728   4.840   3.791
50391W        W22062  17.086  39.384   3.261
50392W        W22063  43.084  30.461  13.044
50393W        W22064   8.176  35.989   4.265
50394W        W22065  24.476  30.532  13.535
50395W        W22066  37.800  17.596  12.147
50396W        W22067  22.952   6.415  11.485
50397W        W22068  11.541  16.715   1.158
50398W        W22069   6.232  38.877  11.540
50399W        W22070  30.482  15.783  12.877
50400W        W22071   8.124  40.553  14.115
50401W        W22072   6.856  11.357  13.999
50402W        W22073  41.420  10.769  11.248
50403W        W22074  30.923   9.943  12.924
50404W        W22075  18.256  29.207  11.005
50405W        W22076  41.348  36.286  10.990
50406W        W22077  34.177  30.968   0.414
50407W        W22078   5.816  37.486  14.705
50408W        W22079  13.060  11.167   1.238
50409W        W22080  15.876   9.027  12.432
50410W        W22081  24.769  32.483  12.007
50411W        W22082   5.275   2.217   4.296
50412W        W22083  36.619  34.321   2.257
50413W        W22084  40.016  20.313  13.032
50414W        W22085  12.711  40.487   3.724
50415W        W22086   8.745   8.541   4.510
50416W        W22087   0.471   6.429  10.550
50417W        W22088  34.498  44.319  10.631
50418W        W22089  22.330  29.980   0.547
50419W        W22090   8.336  35.520  14.483
50420W        W22091  12.023  30.664   4.508
50421W        W22092  29.200  38.263   0.344
50422W        W22093   9.418  10.227  11.039
50423W        W22094  41.946  22.728  11.676
50424W        W22095  35.001  43.987  13.237
50425W        W22096  42.203  16.835   0.488
50426W        W22097  20.084  16.089  12.442
50427W        W22098   7.231  43.361  14.405
50428W        W22099  22.150   7.361  12.265
50429W        W22100   9.728  22.503  11.534
50430W        W22101  37.321  13.026  12.904
50431W        W22102  18.834  15.195  13.460
50432W        W22103  38.433  20.573  14.802
50433W        W22104  33.591   2.811   3.353
50434W        W22105  41.219  27.687   0.288
50435W        W22106   9.716   2.449  10.971
50436W        W22107  15.757  42.263  10.669
50437W        W22108  36.275  36.352  13.778
50438W        W22109  20.706  15.959  13.036
50439W        W22110  10.187   4.444  13.451
50440W        W22111  25.769  36.472  11.039
50441W        W22112  18.773  29.608  14.882
50442W        W22113   8.131  25.698  12.661
50443W        W22114  27.719  18.479  12.053
50444W        W22115  12.462  36.920   1.696
50445W        W22116  30.323  44.968  14.363
50446W        W22117  37.455   0.187   4.689
50447W        W22118  16.986   0.914   1.971
50448W        W22119  35.975   2.728  13.301
50449W        W22120   4.783  28.658   0.685
50450W        W22121  33.503  22.486  13.755
50451W        W22122  36.899   1.296  12.463
50452W        W22123  34.914  27.771  14.829
50453W        W22124  20.980  42.286   3.323
50454W        W22125  16.535  21.160  10.966
50455W        W22126  39.306  28.014  11.889
50456W        W22127  27.221   9.184  11.549
50457W        W22128  14.587   7.458   0.986
50458W        W22129  15.079  30.967  12.562
50459W        W22130  31.396  43.825   1.784
50460W        W22131  36.452   8.719  13.856
50461W        W22132  19.640  21.012   0.722
50462W        W22133  26.985  36.171  12.676
50463W        W22134  23.693  10.829  10.995
50464W        W22135  31.003   3.920  10.903
50465W        W22136  37.983  34.138   2.375
50466W        W22137  36.355   3.378  12.108
50467W        W22138  44.727  40.452  11.521
50468W        W22139  40.571  28.288  14.247
50469W        W22140  29.120  27.658  14.384
50470W        W22141  39.264   8.225  12.055
50471W        W22142  13.730  30.022  12.502
50472W        W22143  13.573  32.807  12.451
50473W        W22144   6.757   2.145   0.904
50474W        W22145  17.130  20.031  13.488
50475W        W22146  27.516   6.526   1.784
50476W        W22147   0.056  41.444   4.957
50477W        W22148  30.166  42.516   1.191
50478W        W22149  42.583  32.475   2.762
50479W        W22150  13.411   7.431   4.693
50480W        W22151  35.539  29.155   0.004
50481W        W22152  32.396  20.475   2.725
50482W        W22153  13.358   8.294   4.051
50483W        W22154  41.883  39.164  13.459
50484W        W22155  27.656  32.084   0.278
50485W        W22156  11.718  15.789  12.350
50486W        W22157  41.051  26.887  12.915
50487W        W22158  22.999  24.744  11.852
50488W        W22159  30.370  22.876  11.036
50489W        W22160  23.512  34.376  13.108
50490W        W22161   2.769  15.571   4.686
50491W        W22162  38.015  11.181  14.944
50492W        W22163  29.996  31.371  14.513
50493W        W22164   5.111  30.551  10.557
50494W        W22165  38.012   3.767  10.719
50495W        W22166  33.902  16.454  14.627
50496W        W22167  13.934   3.640  13.678
50497W        W22168  33.161  42.408  12.099
50498W        W22169   3.275   4.984   0.849
50499W        W22170  11.211  12.182  14.024
50500W        W22171  27.704  38.821   4.171
50501W        W22172   5.413  12.372   3.258
50502W        W22173  38.828  11.635   1.607
50503W        W22174   7.225   9.143  10.647
50504W        W22175  44.751  27.145  10.771
50505W        W22176  24.735  18.286   1.498
50506W        W22177  31.887  22.294   4.296
50507W        W22178  25.221  27.512   3.308
50508W        W22179   8.776   9.848  10.526
50509W        W22180  24.073   5.452   0.429
50510W        W22181  31.883  14.763   3.577
50511W        W22182  34.590   5.326  10.669
50512W        W22183  39.576   6.790  13.064
50513W        W22184  35.143  39.323  11.070
50514W        W22185  18.209  29.345  11.496
50515W        W22186   3.830  35.377   3.206
50516W        W22187   0.541  17.630   4.423
50517W        W22188  23.432   1.391   2.376
50518W        W22189   9.401  15.884   3.326
50519W        W22190  29.937  33.612  11.133
50520W        W22191  23.095  21.569   1.306
50521W        W22192  39.866  42.272   0.768
50522W        W22193  19.144   6.639   4.391
50523W        W22194  34.918  18.074  11.990
50524W        W22195  11.855  29.988  14.655
50525W        W22196  44.502  36.472  14.527
50526W        W22197   9.589  13.399  13.506
50527W        W22198  43.122  13.677   4.580
50528W        W22199   4.019  38.248  13.302
50529W        W22200   1.768  11.250  11.216
50530W        W22201  36.347  34.828   3.141
50531W        W22202   6.233  32.379   1.334
50532W        W22203   8.683  12.730   0.990
50533W        W22204  44.505   8.715   0.241
50534W        W22205  15.577  15.353  12.041
50535W        W22206  23.142  43.208   4.964
50536W        W22207  23.416  38.512   3.694
50537W        W22208   3.444  28.623   3.163
50538W        W22209  44.531  23.518  10.685
50539W        W22210   2.769  37.805  12.099
50540W        W22211  16.915  16.308  10.762
50541W        W22212   1.432   5.909   0.571
50542W        W22213   4.154  44.217  12.250
50543W        W22214   0.652  22.137   2.351
50544W        W22215  36.505  25.919  12.955
50545W        W22216  36.378   7.769   4.581
50546W        W22217  40.949  18.087   4.912
50547W        W22218  32.625  35.414   3.705
50548W        W22219  42.386  20.750   3.309
50549W        W22220  31.517  13.598   1.007
50550W        W22221  10.350  19.640  14.114
50551W        W22222  24.421   0.872   1.681
50552W        W22223  35.808  11.178  14.985
50553W        W22224  31.579  37.941   4.778
50554W        W22225  17.655   9.801  12.693
50555W        W22226  23.725  13.875  11.478
50556W        W22227  39.075  22.300   1.775
50557W        W22228  33.138  18.665   0.513
50558W        W22229   3.344  33.368   3.634
50559W        W22230  19.245  41.730  13.456
50560W        W22231  14.185  27.587   4.657
50561W        W22232   9.932  14.092   1.889
50562W        W22233  17.176  33.376  14.455
50563W        W22234  32.804  22.737   3.660
50564W        W22235  31.225   9.964  14.857
50565W        W22236  40.527  18.489  12.902
50566W        W22237  31.012  25.318   0.754
50567W        W22238  44.129   3.348   1.491
50568W        W22239  36.132   0.450  12.484
50569W        W22240  34.437  31.107   3.680
50570W        W22241  12.746   1.119  12.291
50571W        W22242  37.986  21.155  10.085
50572W        W22243   8.760   2.976  13.117
50573W        W22244  30.616  16.174   4.074
50574W        W22245   9.353  43.341  12.014
50575W        W22246  21.541  28.155  13.371
50576W        W22247   8.467  18.808  10.335
50577W        W22248  32.713  39.705  14.503
50578W        W22249   5.311  13.898  11.261
50579W        W22250  34.184  18.354  11.480
50580W        W22251  40.173  12.438  12.159
50581W        W22252  15.780  14.866  13.731
50582W        W22253   3.478  13.443  14.195
50583W        W22254  23.502  15.898  12.436
50584W        W22255  34.606   9.891  12.556
50585W        W22256  11.581  36.328   0.287
50586W        W22257  14.092  40.574  12.667
50587W        W22258  29.144  27.025   2.355
50588W        W22259  18.911  40.582  10.981
50589W        W22260  13.857  44.526   2.188
50590W        W22261  36.629  34.907  14.416
50591W        W22262  25.343  16.823   4.631
50592W        W22263   5.219   7.216   2.497
50593W        W22264  27.060  28.401   2.193
50594W        W22265  41.511  16.114   3.866
50595W        W22266  39.769  23.661   0.616
50596W        W22267  20.153  15.828  12.915
50597W        W22268  32.955  11.821  12.010
50598W        W22269  38.496   1.393  10.781
50599W        W22270  43.712  29.754   0.222
50600W        W22271  34.130  27.985  10.579
50601W        W22272  37.561  44.194   5.072
50602W        W22273  36.583  30.639   1.346
50603W        W22274  20.530   2.869   3.709
50604W        W22275  25.661   3.732  12.747
50605W        W22276  39.720  15.463  11.092
50606W        W22277   2.404  34.008  14.185
50607W        W22278  19.944  10.658   1.007
50608W        W22279  29.456  13.195  13.499
50609W        W22280   8.893  29.886   1.339
50610W        W22281  12.966  42.812   4.106
50611W        W22282  39.762  21.276  13.082
50612W        W22283  27.528   6.196   3.179
50613W        W22284  44.143  13.116  12.518
50614W        W22285  21.882  42.804   2.968
50615W        W22286   6.231  29.554   3.812
50616W        W22287   5.539   3.643  13.394
50617W        W22288  25.613   5.801   0.474
50618W        W22289  26.595  38.561  11.052
50619W        W22290  14.676  41.503   1.445
50620W        W22291  33.794  11.938  12.007
50621W        W22292  20.055   5.252   3.202
50622W        W22293  25.589  10.637   3.543
50623W        W22294  21.203  12.849  14.527
50624W        W22295  35.047  35.205  13.447
50625W        W22296  28.079  29.870   4.581
50626W        W22297  21.453  17.021  14.870
50627W        W22298   9.316  18.098   3.853
50628W        W22299  13.878  10.237   1.636
50629W        W22300  41.543   7.114   3.649
50630W        W22301  44.724   8.406  12.099
50631W        W22302  10.354  21.253  12.857
50632W        W22303   6.715   0.804   0.516
50633W        W22304   2.034  25.272  14.451
50634W        W22305  16.985   5.843   0.893
50635W        W22306  37.811  38.935  12.965
50636W        W22307  41.417  22.009   0.366
50637W        W22308   5.896  18.539   4.171
50638W        W22309  33.277  40.282   1.002
50639W        W22310  26.981  25.518  12.659
50640W        W22311  40.435  13.222   4.652
50641W        W22312   7.291  41.589   2.091
50642W        W22313   8.145   8.899   2.230
50643W        W22314   8.239   6.121   0.298
50644W        W22315  11.732  36.148  13.579
50645W        W22316  17.231  21.844  14.345
50646W        W22317   6.248  18.948   0.885
50647W        W22318   2.269   3.234   3.692
50648W        W22319   8.691  37.372   3.250
50649W        W22320  27.174  25.535   0.846
50650W        W22321  31.940  32.850   1.259
50651W        W22322   9.209  22.029  13.229
50652W        W22323  18.616   5.382  11.060
50653W        W22324  29.145   7.770   4.090
50654W        W22325  32.859  29.592   0.268
50655W        W22326  33.852  43.912  14.339
50656W        W22327  18.488  26.504  14.434
50657W        W22328  34.545  36.566   1.853
50658W        W22329  29.608   1.976  10.606
50659W        W22330  12.126  37.003   2.077
50660W        W22331  13.822  35.830   3.125
50661W        W22332  37.842   9.838  11.541
50662W        W22333  42.933  27.564  14.286
50663W        W22334  42.914  15.600   0.551
50664W        W22335  16.622  35.583  10.369
50665W        W22336  18.529  27.040   3.131
50666W        W22337  42.399  24.025   3.176
50667W        W22338   2.649  30.799  13.924
50668W        W22339  19.156  34.077  13.463
50669W        W22340  43.222  23.638  11.176
50670W        W22341  32.409  29.200  13.039
50671W        W22342  30.676  41.802  13.395
50672W        W22343  34.696  29.055  11.633
50673W        W22344  18.857  24.800  12.437
50674W        W22345   3.116  33.512  13.631
50675W        W22346  41.966  11.910  11.669
50676W        W22347  28.111  36.013   0.239
50677W        W22348  44.011   4.439   2.815
50678W        W22349   8.573  32.903  12.405
50679W        W22350  19.588   1.045   4.863
50680W        W22351  37.638  42.367  11.530
50681W        W22352  17.426  11.522   2.702
50682W        W22353  10.112  27.139   3.421
50683W        W22354  42.084  39.374  10.616
50684W        W22355  21.253  10.333   5.012
50685W        W22356   8.815  43.079   1.070
50686W        W22357   4.951   1.556   5.092
50687W        W22358  16.235  42.749   1.724
50688W        W22359  42.871  10.179   1.326
50689W        W22360   7.838  24.604   1.982
50690W        W22361  11.294   0.958   0.357
50691W        W22362   5.193  33.571   1.492
50692W        W22363  25.268  21.117   4.592
50693W        W22364  19.337  35.801  14.279
50694W        W22365  38.563  29.465   0.005
50695W        W22366  25.544  42.312  14.273
50696W        W22367  43.398   6.660   4.602
50697W        W22368  44.914   1.000   2.410
50698W        W22369  29.106  15.820  11.353
50699W        W22370  39.559  16.248   1.868
50700W        W22371  36.368  33.649   0.623
50701W        W22372  44.337  37.314   2.898
50702W        W22373  24.544  43.529  12.023
50703W        W22374   4.298  17.704   1.185
50704W        W22375  21.133  34.080   0.759
50705W        W22376  21.709   5.365   3.984
50706W        W22377  37.379  26.418  11.952
50707W        W22378  11.113  33.561   2.285
50708W        W22379  40.295  38.512  12.520
50709W        W22380   4.382  13.113   3.864
50710W        W22381  24.314  13.782   2.325
50711W        W22382  14.584   7.011   2.284
50712W        W22383   9.053  33.949   1.494
50713W        W22384  38.081   7.167  11.036
50714W        W22385   5.720  40.744   4.126
50715W        W22386  20.765  24.373  10.213
50716W        W22387  13.247  33.583  13.520
50717W        W22388  23.987  30.410   0.915
50718W        W22389  27.509  19.605  14.349
50719W        W22390  25.713  20.195   1.145
50720W        W22391   2.640  44.939   4.050
50721W        W22392  18.125  44.974  14.396
50722W        W22393  19.068  38.808   3.639
50723W        W22394  36.386  36.811   2.306
50724W        W22395  30.250   8.480   2.743
50725W        W22396  33.627  20.274   0.998
50726W        W22397  19.027  41.843   3.706
50727W        W22398   8.770  24.106   0.871
50728W        W22399  19.074  24.595   2.486
50729W        W22400  42.985  28.485  12.484
50730W        W22401  37.296  44.469   1.402
50731W        W22402  25.691  16.214   3.614
50732W        W22403  25.206  29.626  13.572
50733W        W22404  37.318  20.057  11.503
50734W        W22405  17.539  24.584   2.666
50735W        W22406  37.348  21.110   1.042
50736W        W22407  39.384  22.747   1.765
50737W        W22408  15.319  11.094   0.967
50738W        W22409  25.509   8.358   1.250
50739W        W22410   3.690  32.033  10.735
50740W        W22411  25.433  13.075  10.982
50741W        W22412  15.698  18.766   2.892
50742W        W22413   0.830  35.400   4.135
50743W        W22414  22.017  17.791  10.848
50744W        W22415  37.957  15.187   4.036
50745W        W22416  36.378  42.321  10.705
50746W        W22417  39.138  13.683   1.881
50747W        W22418  42.532  13.385   3.470
50748W        W22419  13.534   7.262  11.692
50749W        W22420   0.441  33.941  10.603
50750W        W22421  31.195  42.921  13.936
50751W        W22422  28.125  33.170   4.543
50752W        W22423   6.061  37.101   4.327
50753W        W22424  27.408   6.803   3.665
50754W        W22425  23.683  14.381   3.039
50755W        W22426  13.492  27.507   3.141
50756W        W22427  18.123  16.515   3.056
50757W        W22428  19.730   5.231   2.815
50758W        W22429  19.035   6.822   2.351
50759W        W22430  17.236  30.380  11.189
50760W        W22431   7.975   1.799   2.688
50761W        W22432  41.951   0.640   1.217
50762W        W22433   5.142  33.948  11.764
50763W        W22434  32.691  37.449   0.193
50764W        W22435  42.059  17.595  10.809
50765W        W22436  17.090  33.030  10.554
50766W        W22437  36.260   2.399  13.764
50767W        W22438  38.377  13.357  11.473
50768W        W22439  16.954  19.774   4.994
50769W        W22440  24.200  31.653  11.018
50770W        W22441  22.211  13.838  11.421
50771W        W22442  35.059   3.797  14.908
50772W        W22443  41.068  18.038  11.505
50773W        W22444  26.466  20.581   0.958
50774W        W22445  41.965  41.831  12.533
50775W        W22446  38.840  24.070  11.916
50776W        W22447  10.262  42.846   4.326
50777W        W22448   2.004  15.110  12.485
50778W        W22449   9.336  22.944  14.576
50779W        W22450   1.502   5.856  12.425
50780W        W22451  21.395   5.446  13.962
50781W        W22452  32.077  24.516   4.016
50782W        W22453  12.707  38.136   4.345
50783W        W22454  27.283  20.261   3.410
50784W        W22455   3.644  23.784   4.569
50785W        W22456   6.177  41.030  10.257
50786W        W22457  42.866  35.658  11.230
50787W        W22458   4.874   4.948   3.687
50788W        W22459   3.903  12.157  13.506
50789W        W22460   7.834  15.795  14.317
50790W        W22461  29.401   7.236   9.830
50791W        W22462   7.732  29.148  14.576
50792W        W22463  30.389  16.287   0.725
50793W        W22464   4.942  16.136  13.798
50794W        W22465  21.091  14.771   3.930
50795W        W22466  35.538   3.941   1.292
50796W        W22467   9.161  10.813   4.912
50797W        W22468   0.875   2.367   4.508
50798W        W22469  14.815  38.246   0.790
50799W        W22470   1.026  18.312  11.946
50800W        W22471   1.237  43.349  14.109
50801W        W22472  44.420  26.702  13.341
50802W        W22473  13.935  19.332   0.835
50803W        W22474  42.281  35.488   2.430
50804W        W22475  10.659   0.869   3.358
50805W        W22476  30.111  37.042  13.282
50806W        W22477  18.107  20.484  12.603
50807W        W22478  38.144  39.248   9.870
50808W        W22479  16.392  25.660  10.450
50809W        W22480   1.184  42.482  13.927
50810W        W22481  35.903  18.594   3.626
50811W        W22482  34.485  30.593   0.081
50812W        W22483  10.250   0.270   4.549
50813W        W22484   2.766  11.634   1.360
50814W        W22485  35.164  35.254   1.333
50815W        W22486  14.684   4.677   4.541
50816W        W22487  25.962   7.945  14.910
50817W        W22488  41.691  20.687   1.733
50818W        W22489  41.641  35.580   1.776
50819W        W22490  13.044  43.859   1.868
50820W        W22491  42.345   3.603   4.110
50821W        W22492   5.470  34.322  11.556
50822W        W22493   0.515  30.134   4.907
50823W        W22494   1.223  14.007   1.912
50824W        W22495  22.390  22.788   5.029
50825W        W22496  39.987  36.558  12.039
50826W        W22497  42.490  33.453  14.838
50827W        W22498   7.126  11.799  13.395
50828W        W22499  29.741  34.783   2.617
50829W        W22500   5.834  30.634   0.704
50830W        W22501  15.740  44.459  13.413
50831W        W22502  39.829   6.907  14.030
50832W        W22503  22.624   4.902   4.185
50833W        W22504  11.506  31.854  14.370
50834W        W22505   5.222  32.000   4.252
50835W        W22506  38.542  28.598   0.888
50836W        W22507  36.551  34.332   1.265
50837W        W22508  19.583   7.923  13.435
50838W        W22509  42.846  28.209   0.059
50839W        W22510  25.070  32.042   5.031
50840W        W22511  31.934  23.985  11.974
50841W        W22512  41.940  13.738  12.263
50842W        W22513   2.489  12.072   1.330
50843W        W22514  40.563  29.988   4.275
50844W        W22515  13.121  31.889  10.622
50845W        W22516  13.169  26.429   1.921
50846W        W22517  34.474   2.583  12.672
50847W        W22518  42.995  39.530  11.913
50848W        W22519  33.333  13.821   2.905
50849W        W22520  11.758  21.484  11.892
50850W        W22521   9.106  25.180  14.544
50851W        W22522  22.337  10.700   1.813
50852W        W22523  39.578  20.683  14.130
50853W        W22524   3.911  21.636  10.414
50854W        W22525  20.673  18.182   3.181
50855W        W22526   2.905  30.016  11.926
50856W        W22527   8.348  11.804  10.705
50857W        W22528  39.529  16.453  12.507
50858W        W22529  22.693   7.982  13.817
50859W        W22530  12.447   4.409  12.037
50860W        W22531  19.169  36.552  14.948
50861W        W22532  19.689   0.551  10.674
50862W        W22533  20.787  43.880   0.967
50863W        W22534   4.026   6.753   0.793
50864W        W22535  20.234  24.269  14.377
50865W        W22536   7.228   0.388   3.922
50866W        W22537  24.830  42.579   4.945
50867W        W22538   9.810  12.063   1.775
50868W        W22539   0.713  39.767  11.044
50869W        W22540  39.824  29.742  10.814
50870W        W22541  30.790  38.013   1.051
50871W        W22542  15.395   4.455   4.201
50872W        W22543  30.579  27.794  11.997
50873W        W22544  25.585   6.720   1.469
50874W        W22545   1.802  33.222  11.978
50875W        W22546  30.198   1.386   2.312
50876W        W22547  12.688   5.518   3.309
50877W        W22548   9.542  41.043  13.471
50878W        W22549  30.109   5.696  11.622
50879W        W22550   2.214  43.732  12.897
50880W        W22551  15.713   3.952  13.530
50881W        W22552   0.899  27.486  11.512
50882W        W22553  32.122  36.407  13.375
50883W        W22554  29.541  27.536  13.439
50884W        W22555  14.147   6.226  14.308
50885W        W22556  19.966  44.518   1.857
50886W        W22557  31.287  35.944   1.897
50887W        W22558   4.357  32.021  10.369
50888W        W22559  19.338  22.198   1.264
50889W        W22560  23.145   7.233   4.653
50890W        W22561  35.980  29.319   2.524
50891W        W22562   6.383  37.290   4.697
50892W        W22563  20.584  25.425  11.652
50893W        W22564  42.768  22.060   2.118
50894W        W22565  22.503  10.768  12.011
50895W        W22566   2.383   4.870   0.894
50896W        W22567  17.474   5.918  10.256
50897W        W22568  35.399  39.890   0.328
50898W        W22569  35.095  39.138   4.089
50899W        W22570  14.588  22.720  14.403
50900W        W22571   9.904  10.256   2.943
50901W        W22572  41.682  15.436  13.468
50902W        W22573  41.830  12.499  14.046
50903W        W22574  30.793  22.795  11.756
50904W        W22575  40.526   1.533   5.088
50905W        W22576  25.213   9.197   0.412
50906W        W22577   9.237  20.030   2.412
50907W        W22578  21.031   2.820   3.846
50908W        W22579   9.340  12.229   0.529
50909W        W22580  31.421  12.150   4.826
50910W        W22581  19.506   2.235   2.328
50911W        W22582  43.557  10.173   3.577
50912W        W22583   3.877  21.677   1.179
50913W        W22584  18.745  21.662   0.292
50914W        W22585  13.399  14.879  14.028
50915W        W22586  24.198  35.399   4.558
50916W        W22587  38.973   0.045   0.210
50917W        W22588  15.146  18.202  13.556
50918W        W22589   6.133  23.309  13.808
50919W        W22590  36.813  33.450   2.344
50920W        W22591   7.085   9.317   3.749
50921W        W22592   4.767  19.745   2.380
50922W        W22593  39.067  22.805   4.179
50923W        W22594   8.276   8.141   3.273
50924W        W22595  35.045   8.660  12.450
50925W        W22596  15.220  19.123  13.497
50926W        W22597   1.393   7.313   2.900
50927W        W22598   2.239   6.220  13.643
50928W        W22599  13.278  32.058  14.883
50929W        W22600  34.919  19.649   3.644
50930W        W22601   2.544  27.867  12.887
50931W        W22602  16.411  37.195   1.360
50932W        W22603  21.922  13.839   0.746
50933W        W22604   8.157  11.827  11.512
50934W        W22605   4.133  43.413   4.617
50935W        W22606  27.607  42.446   2.311
50936W        W22607  22.041  28.174  11.079
50937W        W22608   9.146   9.040  12.452
50938W        W22609  30.724  19.446  11.544
50939W        W22610   5.657  20.256   2.259
50940W        W22611  35.408  13.630   1.806
50941W        W22612  38.985  34.862   0.434
50942W        W22613  42.769  42.904   3.329
50943W        W22614  25.075  25.961   0.527
50944W        W22615  44.337  40.804   2.257
50945W        W22616  20.677  32.992   4.875
50946W        W22617  16.217   7.717  11.030
50947W        W22618  25.107  36.940  13.307
50948W        W22619   2.900  28.064   5.372
50949W        W22620   4.108   2.970   3.748
50950W        W22621  34.141   2.375  11.524
50951W        W22622   0.892  18.978   4.908
50952W        W22623  42.291   8.947  14.810
50953W        W22624  34.956  42.715   2.961
50954W        W22625  31.400  33.972   4.245
50955W        W22626  21.176  39.878   1.431
50956W        W22627  22.234  13.713  14.236
50957W        W22628  20.748  13.851   5.207
50958W        W22629   1.695   4.903  14.251
50959W        W22630   8.185  15.939   3.752
50960W        W22631  31.456  26.897   3.348
50961W        W22632   4.691   1.755   4.321
50962W        W22633  35.612  23.223   1.394
50963W        W22634  40.517  39.350   1.853
50964W        W22635   4.710   9.520  14.268
50965W        W22636  24.445  38.067   4.393
50966W        W22637   1.256  13.703   0.759
50967W        W22638  37.831  31.946   0.355
50968W        W22639   9.121  39.893   2.832
50969W        W22640  30.671   3.128  13.466
50970W        W22641  40.834  22.530  12.435
50971W        W22642  32.783  35.389   0.563
50972W        W22643  42.385  44.366   1.834
50973W        W22644  22.109   6.771  14.478
50974W        W22645  14.615  40.814  13.369
50975W        W22646   2.384  44.351  14.419
50976W        W22647  27.012  27.535   0.214
50977W        W22648   8.840  38.726  10.683
50978W        W22649  18.339  41.257   2.465
50979W        W22650  15.509  24.583  13.100
50980W        W22651  18.260   1.392   4.526
50981W        W22652  24.725  38.854   1.710
50982W        W22653  20.173  44.576   2.352
50983W        W22654   2.358   3.883   2.946
50984W        W22655  18.005  31.823   1.317
50985W        W22656   2.680  28.569  12.506
50986W        W22657  15.650   8.204   0.250
50987W        W22658  19.761  26.671  10.114
50988W        W22659   9.305  14.675   4.398
50989W        W22660  13.741  42.779   1.106
50990W        W22661  34.171  20.985   2.719
50991W        W22662  32.999  20.285   4.448
50992W        W22663  19.512  19.782  14.373
50993W        W22664   2.684   4.113  13.070
50994W        W22665   7.704  40.984   0.892
50995W        W22666  36.453  23.985  11.939
50996W        W22667  32.889   1.246  11.691
50997W        W22668  15.619  12.318  14.844
50998W        W22669  26.831  20.415   3.610
50999W        W22670   7.262  29.116  14.300
51000W        W22671   6.446  16.834   1.295
51001W        W22672  33.865  28.653   0.212
51002W        W22673   4.216  38.591  14.973
51003W        W22674  42.871  20.547  12.535
51004W        W22675  23.652  38.524   4.617
51005W        W22676  38.118  42.363   1.786
51006W        W22677  43.949  16.753   0.977
51007W        W22678  44.951  12.666   5.479
51008W        W22679  33.092  43.297  14.989
51009W        W22680  23.745  21.016   3.336
51010W        W22681  39.945   8.880  11.138
51011W        W22682  30.517  20.996   5.101
51012W        W22683  28.946  18.708   1.411
51013W        W22684  23.248   5.442   3.670
51014W        W22685   2.685  14.094   0.452
51015W        W22686  16.895   1.275   4.644
51016W        W22687   7.961   2.228  13.389
51017W        W22688   0.954  44.788   0.962
51018W        W22689  29.241  44.896  12.818
51019W        W22690   1.022   7.194  14.022
51020W        W22691  21.256  29.524  12.591
51021W        W22692  38.113  36.394   3.923
51022W        W22693  18.614  35.094   3.740
51023W        W22694  39.354  12.371  12.975
51024W        W22695  44.792  40.055   3.846
51025W        W22696  31.929  28.130  14.225
51026W        W22697  10.297  15.748  10.247
51027W        W22698  24.067  27.665  10.900
51028W        W22699   9.783  14.318  10.684
51029W        W22700  40.837  21.157   2.308
51030W        W22701  17.377   5.478   4.699
51031W        W22702   0.713  43.750   0.398
51032W        W22703  36.992   1.576  14.407
51033W        W22704  12.119  39.834   2.276
51034W        W22705  34.449  13.623   0.297
51035W        W22706   4.362  44.475  10.371
51036W        W22707  42.727  43.489  11.592
51037W        W22708   2.492   4.289   4.553
51038W        W22709   9.001  23.504  12.018
51039W        W22710   7.897  43.367   3.338
51040W        W22711   2.934  38.373   3.585
51041W        W22712   2.261  16.041   2.150
51042W        W22713  26.950  11.160   3.312
51043W        W22714   9.603  37.609   4.948
51044W        W22715   2.900  17.089   3.788
51045W        W22716  36.841  29.003   3.036
51046W        W22717   9.700  25.011  10.931
51047W        W22718  30.402  43.361  12.620
51048W        W22719  27.501   7.462  14.694
51049W        W22720  25.602  14.208  12.261
51050W        W22721  15.515   8.315   3.648
51051W        W22722  20.573  33.873   2.583
51052W        W22723  35.086  12.924   4.690
51053W        W22724  44.363  39.975   4.118
51054W        W22725  42.579  41.817   2.731
51055W        W22726  19.222  12.257  14.897
51056W        W22727  24.282  15.416  11.519
51057W        W22728  12.170  43.535  12.609
51058W        W22729  42.438  29.113   1.502
51059W        W22730  42.495  19.723   3.820
51060W        W22731  22.987   7.813   2.497
51061W        W22732   8.950  18.578  11.471
51062W        W22733  40.231  25.872   2.767
51063W        W22734  20.366  12.162  12.218
51064W        W22735   0.372  18.299   2.427
51065W        W22736  31.740   0.221   2.842
51066W        W22737  10.902  41.813  14.757
51067W        W22738  36.029  44.338   3.521
51068W        W22739  32.359  27.727   4.246
51069W        W22740   9.846   6.407  12.923
51070W        W22741   6.274  11.613  11.520
51071W        W22742  44.432  16.303   9.924
51072W        W22743  25.538  36.629   4.251
51073W        W22744  35.785  14.915  11.151
51074W        W22745  29.411  11.829  13.378
51075W        W22746  15.713  13.898  14.830
51076W        W22747  41.697  43.621  12.380
51077W        W22748  41.198   2.272   4.427
51078W        W22749   3.341  34.190   0.215
51079W        W22750   0.474   2.051   3.223
51080W        W22751  43.080  11.183   4.504
51081W        W22752  24.959   4.412   0.240
51082W        W22753   6.245  36.636   3.330
51083W        W22754  35.619  22.987  10.664
51084W        W22755  39.468  20.614   3.875
51085W        W22756  41.341   0.088   2.622
51086W        W22757  28.033  41.522   0.995
51087W        W22758  29.532  11.641   4.360
51088W        W22759   7.897  36.053   3.857
51089W        W22760  26.407  26.762  13.337
51090W        W22761  35.929  26.086   2.681
51091W        W22762  36.451  12.904  10.825
51092W        W22763  41.907  21.993  13.431
51093W        W22764   5.810  37.016  12.861
51094W        W22765   1.421  12.157   0.364
51095W        W22766  40.333   2.892   3.420
51096W        W22767  25.643  21.051   1.751
51097W        W22768  41.063  36.888  14.023
51098W        W22769  17.114  19.619  12.544
51099W        W22770  27.000  35.228  12.846
51100W        W22771  43.627   3.336   1.484
51101W        W22772   6.303  32.615   0.265
51102W        W22773  32.146  38.410  14.338
51103W        W22774  18.362   2.757   0.758
51104W        W22775  28.004  33.848  13.530
51105W        W22776  39.420  38.401   3.711
51106W        W22777  42.513  25.882   1.806
51107W        W22778  23.752  33.651  10.483
51108W        W22779  24.517  38.879   5.040
51109W        W22780  17.668  13.264   1.840
51110W        W22781  30.664   5.178  11.073
51111W        W22782  38.952  18.028  11.548
51112W        W22783  11.200   8.643   4.722
51113W        W22784   0.521   7.728   0.806
51114W        W22785   2.651  10.103  12.022
51115W        W22786  25.155  33.497   3.504
51116W        W22787  28.205   6.175   0.393
51117W        W22788  12.381   1.781   1.895
51118W        W22789   2.273  35.353   4.608
51119W        W22790  25.966   5.750  14.232
51120W        W22791  42.854   8.839  13.022
51121W        W22792  28.312  37.063  12.069
51122W        W22793   3.502  40.873   3.289
51123W        W22794  33.408  44.718  10.750
51124W        W22795  34.042  30.318   1.046
51125W        W22796  42.850  42.253  11.405
51126W        W22797  38.947  14.361   0.405
51127W        W22798  43.231  40.821   0.398
51128W        W22799  32.929  15.091  11.434
51129W        W22800  24.036  24.489   4.138
51130W        W22801  23.096  22.612  14.418
51131W        W22802  24.188  11.674  12.836
51132W        W22803  36.325   0.329  10.766
51133W        W22804  40.911  40.812   0.916
51134W        W22805  25.705   1.003   0.829
51135W        W22806   2.660  21.281  11.992
51136W        W22807  10.684  25.434  13.348
51137W        W22808  17.597  22.759  12.138
51138W        W22809  26.684  32.638   2.432
51139W        W22810   7.407  28.970   4.160
51140W        W22811  41.811  10.042   2.131
51141W        W22812  16.295  19.565   2.704
51142W        W22813   4.136  21.810   9.482
51143W        W22814  12.633  38.503  13.123
51144W        W22815  39.966  24.581   4.716
51145W        W22816  44.406   4.684   5.062
51146W        W22817   3.400  24.718  12.511
51147W        W22818   9.744  14.099  14.489
51148W        W22819  21.302  15.739  13.241
51149W        W22820  39.478  32.494   1.279
51150W        W22821  10.822   6.428   4.678
51151W        W22822  12.092   9.176   3.237
51152W        W22823  26.507  33.834  12.202
51153W        W22824  18.371  30.408  12.159
51154W        W22825  38.609  16.076   2.317
51155W        W22826  21.090  35.464  11.544
51156W        W22827  17.729  32.482   4.841
51157W        W22828   0.798   3.938  10.496
51158W        W22829  15.194  25.573   3.257
51159W        W22830   0.283  13.666  14.264
51160W        W22831  37.403  19.868  12.090
51161W        W22832  44.266  24.250   5.079
51162W        W22833  26.999   8.945   0.524
51163W        W22834  28.406   8.105  13.754
51164W        W22835  28.030  28.433  12.407
51165W        W22836   1.494  24.681  12.047
51166W        W22837  31.464  24.746  10.355
51167W        W22838  13.382   4.426  14.091
51168W        W22839  39.526  22.362   2.089
51169W        W22840  44.952   8.652  11.169
51170W        W22841  40.916   9.707  13.526
51171W        W22842   7.872  32.967  14.892
51172W        W22843  34.542  36.321  12.617
51173W        W22844  20.119  28.873   1.444
51174W        W22845  36.597  41.954  12.210
51175W        W22846  41.899   5.178  14.238
51176W        W22847  42.535  41.449   4.397
51177W        W22848  37.077  25.599   3.288
51178W        W22849  20.746  42.688   2.229
51179W        W22850  23.125  43.836   2.188
51180W        W22851   3.807  37.635   0.846
51181W        W22852  25.244  10.859   4.219
51182W        W22853  42.416  36.466   2.236
51183W        W22854   4.241   4.798  11.288
51184W        W22855  44.383  14.518   2.694
51185W        W22856  19.178  12.882   2.207
51186W        W22857  21.067  44.095   4.420
51187W        W22858  13.124  32.468   1.380
51188W        W22859  28.176  19.116  13.876
51189W        W22860  27.705  21.254  12.014
51190W        W22861  33.086   8.156  11.589
51191W        W22862  31.032  29.982   1.494
51192W        W22863  31.479  30.342  13.341
51193W        W22864   7.593  30.017   3.075
51194W        W22865  17.285  35.654  13.359
51195W        W22866  31.230   6.408  10.546
51196W        W22867  37.068  35.075  14.240
51197W        W22868  26.706   7.281  11.979
51198W        W22869  21.804  15.382   3.167
51199W        W22870  27.937  18.152   3.062
51200W        W22871  43.699  17.359  12.861
51201W        W22872  19.117  43.822   0.818
51202W        W22873  15.699  18.811   1.991
51203W        W22874  13.172  11.590   3.743
51204W        W22875  33.068  40.634   4.218
51205W        W22876  10.037   0.308   0.933
51206W        W22877  10.686  21.177   1.420
51207W        W22878  33.267  28.393   2.242
51208W        W22879  23.581  13.807  14.758
51209W        W22880  24.090  38.959   0.662
51210W        W22881  12.315  32.244  14.518
51211W        W22882   2.773   5.724   4.604
51212W        W22883  16.540  12.218   3.920
51213W        W22884  29.683  12.209  10.963
51214W        W22885  22.544  35.475   3.243
51215W        W22886   2.569  19.252   3.439
51216W        W22887  43.444   1.252  13.456
51217W        W22888  29.124  13.027  12.614
51218W        W22889  19.099  16.844  14.836
51219W        W22890  17.998  21.257   0.484
51220W        W22891  20.801  33.427  13.223
51221W        W22892   8.775  22.427  13.970
51222W        W22893  22.920  44.504   1.790
51223W        W22894  34.431  30.862  13.250
51224W        W22895  21.420  18.692   3.325
51225W        W22896  10.808   0.468   2.669
51226W        W22897   7.357  26.121   4.285
51227W        W22898  44.778   5.842   2.876
51228W        W22899   6.130  27.268  13.310
51229W        W22900  30.053  30.378  13.529
51230W        W22901   7.202  19.924   1.386
51231W        W22902  33.403  40.997  14.268
51232W        W22903  18.342  23.907   4.107
51233W        W22904  43.268  12.104  11.710
51234W        W22905  12.680  32.775   1.335
51235W        W22906  11.891  43.244  12.992
51236W        W22907  12.520  38.188  11.904
51237W        W22908  40.453  44.197  13.065
51238W        W22909  33.864  43.512  12.878
51239W        W22910  33.824  35.679  12.067
51240W        W22911   6.684  12.810   2.372
51241W        W22912  18.935   8.837   3.990
51242W        W22913  42.371  40.890   3.076
51243W        W22914  36.891  16.729   0.824
51244W        W22915  31.678  19.899  10.666
51245W        W22916  33.391  43.457  11.705
51246W        W22917  23.010  33.351  13.373
51247W        W22918   5.694  36.913  10.488
51248W        W22919  43.193  39.795   3.157
51249W        W22920  39.324  37.119   2.250
51250W        W22921  35.926  20.837   0.929
51251W        W22922  17.630  25.035   3.864
51252W        W22923   1.422  25.127   0.769
51253W        W22924  23.184   5.809   4.633
51254W        W22925   2.301  16.630  10.342
51255W        W22926  34.487  35.915  14.423
51256W        W22927  35.876  31.131  10.903
51257W        W22928  41.017  32.850  13.327
51258W        W22929  30.525  18.358  14.937
51259W        W22930  39.737  27.678  11.925
51260W        W22931  21.092   0.773   2.771
51261W        W22932  42.887  11.857  12.380
51262W        W22933  42.011  21.199  10.700
51263W        W22934  11.384  24.780   3.263
51264W        W22935  11.349  37.022   2.205
51265W        W22936  27.682  42.893   4.192
51266W        W22937  28.399  24.943   4.664
51267W        W22938   1.510  30.518   3.387
51268W        W22939  22.667   1.824   0.758
51269W        W22940   6.937  13.556  14.303
51270W        W22941  29.878  18.401  10.474
51271W        W22942   2.467   0.951   1.473
51272W        W22943  17.711  38.101  11.604
51273W        W22944  33.112  20.500   3.990
51274W        W22945  43.960  21.216   1.708
51275W        W22946  30.431  29.341  14.541
51276W        W22947  15.093  44.815   0.407
51277W        W22948  21.574  38.987   0.841
51278W        W22949  24.239   6.836  11.059
51279W        W22950   7.202  23.237   3.628
51280W        W22951  33.951  32.090  14.521
51281W        W22952  17.621  25.230  13.032
51282W        W22953  14.334   2.446   2.320
51283W        W22954  23.037  15.694  11.131
51284W        W22955  43.582  33.673   1.297
51285W        W22956   5.467  32.477   3.293
51286W        W22957  37.110  29.493  13.038
51287W        W22958  33.111  11.349  13.858
51288W        W22959  36.690   3.926   3.760
51289W        W22960  24.409  43.698  14.765
51290W        W22961   3.920  40.776   4.373
51291W        W22962  27.182  24.565   4.411
51292W        W22963  26.078   6.737   1.676
51293W        W22964   1.860  31.834  13.372
51294W        W22965   1.673  41.861   2.459
51295W        W22966  29.472   0.275  11.206
51296W        W22967  33.578  22.621   4.993
51297W        W22968   6.755  12.693  14.379
51298W        W22969  42.915  39.469   0.518
51299W        W22970  39.535  27.842  11.478
51300W        W22971   3.982   7.680  11.098
51301W        W22972  44.408  30.398   4.643
51302W        W22973  12.111  34.369  14.448
51303W        W22974  32.306   7.797   2.216
51304W        W22975  11.274  44.584  12.029
51305W        W22976  30.155  19.063   2.862
51306W        W22977  14.314  25.946  11.508
51307W        W22978  37.419  10.665  12.958
51308W        W22979  20.199  30.134   0.810
51309W        W22980  25.480   6.800  11.645
51310W        W22981  35.139  20.253  14.490
51311W        W22982  42.824  37.361   1.411
51312W        W22983   1.448  17.821  14.730
51313W        W22984  44.271  20.770   9.629
51314W        W22985  42.860  12.373  10.624
51315W        W22986   7.686   7.358  14.525
51316W        W22987  20.978  25.976  12.344
51317W        W22988   5.508  41.520   1.981
51318W        W22989   0.767  33.456   2.177
51319W        W22990  35.674  27.027   2.724
51320W        W22991  13.532  38.146  13.846
51321W        W22992   6.338  27.028  12.898
51322W        W22993  11.870  39.274  14.314
51323W        W22994  25.976   2.819  12.826
51324W        W22995  29.830  23.004   2.643
51325W        W22996   4.124  40.346  14.880
51326W        W22997  17.846  25.697  10.992
51327W        W22998  29.947  44.234  10.490
51328W        W22999  26.690  34.655  14.258
51329W        W23000  42.212  14.297  14.483
51330W        W23001  40.019   7.793   2.111
51331W        W23002   3.442   9.625   0.938
51332W        W23003  36.439   3.986  11.635
51333W        W23004  44.019   9.136   4.646
51334W        W23005  39.574  34.160   1.637
51335W        W23006  37.859  24.545  12.551
51336W        W23007  21.971  13.305  13.949
51337W        W23008  39.918   6.248   1.894
51338W        W23009  35.189   9.369  12.039
51339W        W23010   9.285  33.313  10.784
51340W        W23011   9.812  17.326   1.103
51341W        W23012  30.996  42.504   2.433
51342W        W23013  16.745  24.960  11.452
51343W        W23014   4.755  40.811  14.714
51344W        W23015  28.456   9.767  14.304
51345W        W23016  39.908  39.602  13.694
51346W        W23017  11.238  13.492   2.785
51347W        W23018  20.913  28.577   4.984
51348W        W23019  43.996  13.144  11.437
51349W        W23020  13.234  20.000   0.665
51350W        W23021  21.117  44.104  14.062
51351W        W23022  33.363  19.810  14.914
51352W        W23023   8.079   2.317  10.819
51353W        W23024  39.769   3.375   1.283
51354W        W23025  24.463  17.108   4.454
51355W        W23026   7.864  13.669  14.033
51356W        W23027  35.497   5.524   4.319
51357W        W23028  27.242  31.564   3.850
51358W        W23029   6.079  39.998  12.236
51359W        W23030  21.963  36.861   3.327
51360W        W23031  14.303  12.835  11.925
51361W        W23032   8.447  44.061  12.542
51362W        W23033  28.001   8.852  11.032
51363W        W23034  44.454  25.014   3.207
51364W        W23035   1.301  10.911  12.048
51365W        W23036  25.990  39.301  14.387
51366W        W23037  38.751  12.721   4.853
51367W        W23038  35.045   6.235  11.487
51368W        W23039  39.802  42.431  12.466
51369W        W23040  40.449  15.009  14.988
51370W        W23041   7.552  40.101  12.575
51371W        W23042  10.900   7.909   1.854
51372W        W23043   8.316  41.033  10.786
51373W        W23044   1.788   6.444  13.809
51374W        W23045  16.856  36.275  11.890
51375W        W23046  37.043  34.440  14.968
51376W        W23047  43.315  10.270  11.193
51377W        W23048   4.789  15.756   1.755
51378W        W23049  17.144  16.270  14.025
51379W        W23050  20.582  20.196  11.323
51380W        W23051  28.958  26.442   3.443
51381W        W23052   8.225  30.762  12.539
51382W        W23053  37.049  29.228  14.338
51383W        W23054  13.163  15.067   4.092
51384W        W23055  15.835   2.583   0.751
51385W        W23056   0.043   5.397  12.884
51386W        W23057  39.138  17.652   2.444
51387W        W23058  43.389  34.876   0.324
51388W        W23059  35.152  17.783  10.799
51389W        W23060   0.867  15.253   4.300
51390W        W23061  33.646  11.859   2.190
51391W        W23062  10.224  22.520   4.193
51392W        W23063   3.459  26.697  12.060
51393W        W23064  37.400  25.420   1.305
51394W        W23065   9.272  42.746   3.291
51395W        W23066  18.057  19.257  14.776
51396W        W23067   2.840  13.985  13.962
51397W        W23068  19.312  12.314  10.848
51398W        W23069  42.916  18.005   4.443
51399W        W23070  27.208  18.657   3.245
51400W        W23071  25.770  30.414   4.166
51401W        W23072  40.438  32.009   4.592
51402W        W23073  14.747  25.823   3.137
51403W        W23074  14.713  20.773   4.877
51404W        W23075  29.562   4.447  11.769
51405W        W23076  18.587  18.729  11.932
51406W        W23077  22.571  28.939  14.924
51407W        W23078  20.514  10.114  14.037
51408W        W23079   7.625  34.609   2.297
51409W        W23080  37.973  37.134   1.788
51410W        W23081  19.258   1.518   3.735
51411W        W23082  17.791  14.820   4.643
51412W        W23083  38.831   3.062  11.975
51413W        W23084  10.334  37.946   2.250
51414W        W23085  11.260  43.732   4.983
51415W        W23086  40.206  22.723   1.196
51416W        W23087  31.393  17.600   0.838
51417W        W23088  32.393   8.983  11.858
51418W        W23089  44.620   7.977   2.301
51419W        W23090  15.555   2.245  11.096
51420W        W23091   3.557   3.672  14.385
51421W        W23092  18.823  43.918   0.400
51422W        W23093   0.500  21.791   0.613
51423W        W23094  22.080  44.945  13.573
51424W        W23095  38.389  17.899   2.860
51425W        W23096  41.968  24.795   1.261
51426W        W23097  17.345  19.158   0.247
51427W        W23098  23.007  24.126   3.884
51428W        W23099  27.851   1.179  14.348
51429W        W23100  16.128  18.806  11.245
51430W        W23101  41.540   1.663  14.965
51431W        W23102  28.430  24.301   4.155
51432W        W23103  26.625   1.118  10.753
51433W        W23104  44.510  39.987  11.502
51434W        W23105  29.024  24.192   1.172
51435W        W23106  25.536   7.403  13.441
51436W        W23107  16.597   9.330   4.768
51437W        W23108   2.593  27.210  13.470
51438W        W23109  27.724   7.271   2.863
51439W        W23110  26.724  14.425  14.898
51440W        W23111   7.729  13.093  12.746
51441W        W23112  29.599  14.177  14.343
51442W        W23113  13.708   8.212  13.355
51443W        W23114  10.723  40.815   0.346
51444W        W23115  17.003  25.567  14.004
51445W        W23116  34.896  16.056  14.010
51446W        W23117  28.156  22.202   0.819
51447W        W23118  27.170  10.699   2.129
51448W        W23119   1.780  16.138   2.298
51449W        W23120  23.148  40.708  11.608
51450W        W23121   3.771  27.207  14.992
51451W        W23122  28.091  27.463   1.775
51452W        W23123  16.375   1.263   4.573
51453W        W23124  26.001  37.550   0.788
51454W        W23125  36.033   5.251  12.448
51455W        W23126  11.250   5.870  14.470
51456W        W23127  31.073  11.487  12.986
51457W        W23128  43.576   8.283   2.334
51458W        W23129  15.660   8.145   2.211
51459W        W23130  28.355   7.635  13.969
51460W        W23131   8.378  28.638  13.348
51461W        W23132  33.567  13.696  12.704
51462W        W23133  25.468  40.965   3.509
51463W        W23134  25.987  29.067  11.579
51464W        W23135  18.570  40.400   1.461
51465W        W23136   2.637   0.255   4.510
51466W        W23137  43.236  21.421   2.281
51467W        W23138  24.104  12.827   2.082
51468W        W23139  28.038  11.680   3.620
51469W        W23140   4.119  26.154   4.338
51470W        W23141  41.438   1.549  12.424
51471W        W23142  44.892  24.025   1.741
51472W        W23143   0.764  21.008   1.869
51473W        W23144  18.650  19.627  13.942
51474W        W23145  17.633  32.136   3.411
51475W        W23146  36.374  37.524   3.725
51476W        W23147  16.022  10.628  13.803
51477W        W23148   1.213   7.934  14.317
51478W        W23149  41.350  20.588  13.077
51479W        W23150   7.708  14.726   1.712
51480W        W23151   4.672  42.833   4.183
51481W        W23152   7.268  36.066   1.875
51482W        W23153  17.872  10.469   0.780
51483W        W23154   8.659  29.633   3.125
51484W        W23155  25.026  43.600   0.420
51485W        W23156  10.150  38.327   2.581
51486W        W23157  23.997  13.007  14.872
51487W        W23158  41.837  15.636  14.804
51488W        W23159   4.464   2.792  12.113
51489W        W23160  41.933  42.766  14.546
51490W        W23161  11.842  13.163  11.506
51491W        W23162  42.075  11.887   3.592
51492W        W23163  29.433   8.686   1.670
51493W        W23164   5.462  20.951   0.328
51494W        W23165  42.215   8.957   1.615
51495W        W23166  19.228  15.041  14.514
51496W        W23167   9.185   3.173   3.810
51497W        W23168  18.090  43.317  14.043
51498W        W23169  41.526  22.239  11.141
51499W        W23170  38.386  22.575  11.127
51500W        W23171  34.451   2.326  13.896
51501W        W23172  20.077   1.638  11.422
51502W        W23173  25.494  20.293   3.776
51503W        W23174  19.942   4.282   4.369
51504W        W23175  40.694  30.508  10.826
51505W        W23176  18.136  23.065   4.697
51506W        W23177   7.878   2.156  11.257
51507W        W23178  29.498  16.292   1.846
51508W        W23179  22.036   6.468  12.495
51509W        W23180  17.320  19.532   3.768
51510W        W23181   5.289  28.138   3.105
51511W        W23182  23.184  42.987  12.812
51512W        W23183  17.227  18.539  14.388
51513W        W23184  18.989  36.535   0.887
51514W        W23185  18.162   5.396   2.028
51515W        W23186   5.971  38.018   4.365
51516W        W23187  13.262  13.577  14.306
51517W        W23188  32.918  16.938  13.831
51518W        W23189   1.230  30.509  12.135
51519W        W23190  37.871  30.174  10.684
51520W        W23191  20.055  27.445   0.350
51521W        W23192   8.906  12.559   2.083
51522W        W23193  10.306  34.054  13.559
51523W        W23194  19.874   5.603  14.451
51524W        W23195  41.081  25.931  13.920
51525W        W23196  14.616  27.703   4.911
51526W        W23197  30.441   6.995  12.489
51527W        W23198  27.558  30.193  12.907
51528W        W23199  13.757   9.106   3.093
51529W        W23200  23.110  24.507  11.044
51530W        W23201  17.097  17.719  10.887
51531W        W23202  29.668  26.973   2.334
51532W        W23203   5.422  12.055   4.084
51533W        W23204   6.137  41.364  14.473
51534W        W23205  31.658  28.684  11.185
51535W        W23206  22.955  25.696   2.530
51536W        W23207   4.653  44.389  12.094
51537W        W23208  21.948  12.272   4.441
51538W        W23209  25.630  35.669  13.821
51539W        W23210   9.420  14.076  12.496
51540W        W23211  33.223  13.109  13.221
51541W        W23212  15.881   8.095   3.358
51542W        W23213  32.038  43.092  12.974
51543W        W23214  38.078   0.652   1.348
51544W        W23215  15.630  20.606  12.915
51545W        W23216  28.176  22.164  11.881
51546W        W23217   7.889  22.191   0.029
51547W        W23218   2.191  16.558  14.950
51548W        W23219   1.542  30.135  11.961
51549W        W23220  18.402  19.003  12.619
51550W        W23221  39.942  28.031   0.044
51551W        W23222  14.671   4.153   4.545
51552W        W23223  32.058  44.390   0.732
51553W        W23224   5.702  35.027   4.193
51554W        W23225  19.535  37.348   4.331
51555W        W23226  34.793   2.154  13.575
51556W        W23227  13.275  27.812   1.276
51557W        W23228  25.123   9.629  13.822
51558W        W23229  12.610   4.179  12.547
51559W        W23230  33.312   7.880   2.133
51560W        W23231  25.068   5.186  14.444
51561W        W23232   0.209  20.700  14.525
51562W        W23233  16.282  11.754  14.519
51563W        W23234  32.052  20.133  12.038
51564W        W23235  14.651   9.227  11.118
51565W        W23236  25.414  36.476  12.738
51566W        W23237  16.620  28.683   4.216
51567W        W23238   3.800  41.400   3.118
51568W        W23239  13.125  16.664  14.277
51569W        W23240  38.235  43.877   4.401
51570W        W23241  38.070  41.993  10.593
51571W        W23242   3.241   4.833  11.103
51572W        W23243  38.564  22.645  12.739
51573W        W23244  15.132  30.237  13.143
51574W        W23245  41.346  41.330   3.427
51575W        W23246  43.555  22.707   4.684
51576W        W23247  19.287   9.547  12.006
51577W        W23248   1.914  25.515  14.002
51578W        W23249   6.742  28.537   2.030
51579W        W23250  31.689  28.943   3.022
51580W        W23251  32.140  23.304   1.893
51581W        W23252  17.515  30.339  10.382
51582W        W23253  27.492  19.586   3.915
51583W        W23254  36.115  43.326   0.336
51584W        W23255  19.182  30.988   3.335
51585W        W23256  10.817   6.163   2.179
51586W        W23257   0.516   7.710   1.734
51587W        W23258  30.569  31.968  13.875
51588W        W23259  23.186  21.858   4.314
51589W        W23260   0.268  41.388  11.200
51590W        W23261  35.667  38.847   1.816
51591W        W23262  11.086  28.016  11.081
51592W        W23263  39.491  34.650  13.011
51593W        W23264  11.263   5.244  11.325
51594W        W23265  34.024   4.428   1.331
51595W        W23266  28.933  11.149   0.965
51596W        W23267   9.713  43.752   2.303
51597W        W23268  28.743   9.855   4.219
51598W        W23269  26.610  36.306   1.867
51599W        W23270  26.119  22.490  11.609
51600W        W23271  35.488   2.351   4.291
51601W        W23272  32.387  20.529   1.217
51602W        W23273  33.882  11.275  10.682
51603W        W23274  43.763   1.679  11.620
51604W        W23275  44.780   2.265  13.434
51605W        W23276  21.286  12.801   4.928
51606W        W23277  30.070  33.533   4.022
51607W        W23278  30.721   5.235   3.265
51608W        W23279   7.657  21.025  14.351
51609W        W23280   7.374   6.214  10.714
51610W        W23281   7.771   9.312  11.203
51611W        W23282  44.070  38.349  10.728
51612W        W23283   1.979  36.994  14.490
51613W        W23284   1.347  11.038  13.433
51614W        W23285  14.867   9.550   0.006
51615W        W23286  22.738  31.599   1.163
51616W        W23287  36.069  37.418   1.232
51617W        W23288  31.094  26.837   0.849
51618W        W23289  16.519  38.564  11.624
51619W        W23290  36.370  33.105   2.814
51620W        W23291  32.633   9.274  12.905
51621W        W23292   3.219  34.388   1.207
51622W        W23293  42.013   0.850  13.910
51623W        W23294  16.588  31.216  14.530
51624W        W23295  26.076  28.031  13.009
51625W        W23296  15.793  30.470   4.390
51626W        W23297  27.580  23.547   1.947
51627W        W23298  43.924  19.256  12.348
51628W        W23299  44.883  11.969   2.229
51629W        W23300  35.415   2.549  10.803
51630W        W23301  13.044  36.520   1.214
51631W        W23302  26.639  37.861   1.710
51632W        W23303  42.357   7.079   1.999
51633W        W23304   2.157  19.374   5.129
51634W        W23305  42.514  38.597  14.246
51635W        W23306   1.468  12.469  12.069
51636W        W23307  11.944  31.767  11.140
51637W        W23308  15.220  33.649   2.510
51638W        W23309  13.935  16.108  10.777
51639W        W23310  17.232  41.978   4.506
51640W        W23311   3.394  36.108  12.854
51641W        W23312  39.906  35.425   2.718
51642W        W23313   8.785  24.681   1.579
51643W        W23314  34.108  41.971   3.375
51644W        W23315   2.413  29.709  11.141
51645W        W23316  36.818  39.040  14.687
51646W        W23317  10.339  34.618  10.211
51647W        W23318  13.930  44.977   2.400
51648W        W23319  36.199   3.100  12.989
51649W        W23320  34.217   4.858   1.627
51650W        W23321  30.516  30.466   4.595
51651W        W23322   3.863   7.569   5.078
51652W        W23323   1.769  28.636   1.332
51653W        W23324  10.408  38.350   4.055
51654W        W23325  17.295   5.555  14.531
51655W        W23326  11.667  36.567   4.697
51656W        W23327  44.950   6.172   4.829
51657W        W23328  37.493   2.668   4.457
51658W        W23329  34.883  44.496  10.247
51659W        W23330  30.692  38.530  12.923
51660W        W23331  27.211   4.504  12.960
51661W        W23332  30.653  23.624  12.810
51662W        W23333  26.726  19.327   1.366
51663W        W23334  24.225  38.357   0.862
51664W        W23335   6.326   0.411  12.071
51665W        W23336  23.293  20.358  14.820
51666W        W23337  29.892  10.908   2.714
51667W        W23338  40.949  29.975   2.875
51668W        W23339   0.342   1.377   0.285
51669W        W23340  25.652  38.762  12.443
51670W        W23341  31.549  39.476  10.645
51671W        W23342  14.183  34.819   0.720
51672W        W23343  38.334   1.434   0.463
51673W        W23344  22.534  25.195   3.726
51674W        W23345  28.208   1.318  11.487
51675W        W23346  18.527  24.574  14.807
51676W        W23347  31.423  30.841   3.605
51677W        W23348   9.622   8.630  14.417
51678W        W23349  35.206  20.819   4.104
51679W        W23350  38.518  12.759   2.239
51680W        W23351  35.758   8.715   1.882
51681W        W23352  31.474  18.798  12.478
51682W        W23353  18.981  35.560   2.373
51683W        W23354  35.065  12.650   2.283
51684W        W23355   5.795  33.365  13.899
51685W        W23356  33.976   0.167  11.978
51686W        W23357  39.870  24.660   1.391
51687W        W23358   4.371  40.158  11.956
51688W        W23359  24.170  22.899   4.703
51689W        W23360   5.146  29.670  13.878
51690W        W23361  25.855  18.540  12.438
51691W        W23362   6.724  32.908   3.645
51692W        W23363   0.912  20.132  11.267
51693W        W23364  15.131   2.791   4.093
51694W        W23365  28.587   6.045   0.055
51695W        W23366  28.937  42.358   4.254
51696W        W23367   6.316  41.211  12.649
51697W        W23368  32.590  19.513   4.178
51698W        W23369  22.826   3.922   0.750
51699W        W23370  34.382  30.014   2.776
51700W        W23371  44.771  42.808  14.445
51701W        W23372  16.591  26.630   1.379
51702W        W23373  11.733   0.802   2.219
51703W        W23374  43.843  20.528  12.056
51704W        W23375  12.863  41.278  14.394
51705W        W23376  15.037  26.877  12.055
51706W        W23377  39.400  29.472  10.578
51707W        W23378  17.119  37.587  13.047
51708W        W23379   6.323   7.865  14.980
51709W        W23380   8.802   8.306  13.372
51710W        W23381  19.205  35.585  10.695
51711W        W23382   1.390  19.124   1.358
51712W        W23383   3.720   7.255  13.534
51713W        W23384  39.428  44.281  10.621
51714W        W23385  20.687   3.640  13.015
51715W        W23386  18.048  30.890  14.332
51716W        W23387  38.783  33.605  10.713
51717W        W23388  41.842  17.237   4.144
51718W        W23389  41.830  33.151  13.841
51719W        W23390  35.931  35.522  10.661
51720W        W23391  31.085  41.418   2.847
51721W        W23392  44.388  25.419  11.370
51722W        W23393  41.098  29.042   0.961
51723W        W23394  32.068  14.742  14.813
51724W        W23395  24.236   4.686  12.965
51725W        W23396   3.283  21.688   2.430
51726W        W23397   1.478  13.603  14.739
51727W        W23398  42.310  26.340   1.765
51728W        W23399   7.616  39.379  10.634
51729W        W23400  24.450   7.775   1.977
51730W        W23401  28.468  25.567   3.684
51731W        W23402  27.917  10.182   1.716
51732W        W23403  19.978  11.096   3.286
51733W        W23404  21.787  19.695  11.129
51734W        W23405   2.683  13.278   1.446
51735W        W23406  19.238  18.897   2.375
51736W        W23407  13.277  15.739  12.949
51737W        W23408  37.102  36.144   2.294
51738W        W23409  35.465  36.003   4.588
51739W        W23410  17.986  27.475   3.667
51740W        W23411  37.736  14.436   4.985
51741W        W23412  30.951  42.873  11.959
51742W        W23413  40.016  20.158  13.889
51743W        W23414  13.744  24.012   3.390
51744W        W23415  44.762  33.847   2.305
51745W        W23416  34.520  24.221   2.721
51746W        W23417  27.927  31.380  11.561
51747W        W23418  26.015  11.211   2.317
51748W        W23419   7.136  35.504   0.915
51749W        W23420  13.966  39.850  12.897
51750W        W23421  20.617  41.839  11.011
51751W        W23422  22.194  17.995   0.855
51752W        W23423  33.656  32.178   0.411
51753W        W23424  15.766  42.488  11.547
51754W        W23425  20.184  36.614   3.422
51755W        W23426  34.527  16.375   4.080
51756W        W23427  32.507  27.180  14.515
51757W        W23428  30.512  24.932  14.861
51758W        W23429  42.521  16.014  13.161
51759W        W23430  24.451  41.075   3.323
51760W        W23431  19.802   4.731   2.705
51761W        W23432  25.495  39.368   2.867
51762W        W23433  11.566  37.216  10.684
51763W        W23434  27.072  41.923  13.759
51764W        W23435  42.428  15.010  10.622
51765W        W23436  23.234  31.031   1.926
51766W        W23437  42.284  30.754  14.368
51767W        W23438  44.378  28.403  13.101
51768W        W23439   5.244  27.708   3.376
51769W        W23440  41.005  15.580  11.556
51770W        W23441  43.053   4.852   5.202
51771W        W23442  22.689  24.736   0.011
51772W        W23443  39.302  15.029  14.520
51773W        W23444  15.332  11.072   3.975
51774W        W23445  10.117  33.863  12.109
51775W        W23446  19.188  15.622  13.416
51776W        W23447  16.265  18.554   0.708
51777W        W23448  39.266  29.210   0.660
51778W        W23449  40.950   8.189  10.590
51779W        W23450   5.149  35.776   2.282
51780W        W23451  15.845  18.920   5.062
51781W        W23452  40.136   5.719  14.879
51782W        W23453  15.427  28.469  13.854
51783W        W23454   6.877  23.297  10.372
51784W        W23455   6.434   0.375   2.277
51785W        W23456   5.986  41.576  11.247
51786W        W23457   5.416  27.500  10.715
51787W        W23458   5.957  41.490  13.511
51788W        W23459  16.089  36.987  12.313
51789W        W23460  12.693  23.963   2.515
51790W        W23461   4.524  32.143  14.785
51791W        W23462  28.000  29.009  14.781
51792W        W23463  29.167  11.124  12.373
51793W        W23464   9.438  39.406  11.053
51794W        W23465  14.631  14.138  10.523
51795W        W23466  34.298  42.948   4.593
51796W        W23467  23.804  37.308   4.132
51797W        W23468  31.959  26.473   2.003
51798W        W23469  38.628  27.513  12.677
51799W        W23470  28.465  23.194  11.072
51800W        W23471  42.798  39.982   0.486
51801W        W23472  43.008  26.524  13.653
51802W        W23473  13.377  42.786  11.179
51803W        W23474  11.649  44.440  10.327
51804W        W23475  12.767   0.719  12.602
51805W        W23476   3.840   1.306   0.006
51806W        W23477  23.427  43.567  12.406
51807W        W23478  32.372   1.469   2.169
51808W        W23479  34.807  25.057  11.080
51809W        W23480  23.545  30.679   3.211
51810W        W23481  19.680  15.702   4.694
51811W        W23482   9.619  41.780   2.401
51812W        W23483  23.311  15.620   0.948
51813W        W23484   6.107  15.627   1.423
51814W        W23485  44.387  27.950  11.577
51815W        W23486  29.284  21.667  11.496
51816W        W23487  43.381  28.686   4.163
51817W        W23488  30.716  16.261  11.520
51818W        W23489  25.411  28.925   0.095
51819W        W23490  35.124  12.341   4.087
51820W        W23491  37.671  27.045  10.420
51821W        W23492  22.100  30.888   3.256
51822W        W23493  35.911  10.271  12.369
51823W        W23494   6.121   7.613   2.429
51824W        W23495  18.264  10.183  13.387
51825W        W23496  33.905  39.413  10.834
51826W        W23497   9.434   0.815  12.467
51827W        W23498  31.815   8.899  11.150
51828W        W23499  27.661  41.164   1.204
51829W        W23500  21.144  31.824   4.787
51830W        W23501  33.808  15.642   4.173
51831W        W23502  44.989  30.468  10.679
51832W        W23503  30.159  18.656  11.123
51833W        W23504   1.079   0.809  12.047
51834W        W23505  22.638  27.601   4.094
51835W        W23506  35.516  29.462   2.030
51836W        W23507  34.011  27.386   2.960
51837W        W23508  14.299  14.650   2.270
51838W        W23509  32.369  35.874   3.654
51839W        W23510   1.415  44.834   0.701
51840W        W23511  13.774   1.872   1.625
51841W        W23512  29.321  23.884  12.612
51842W        W23513  32.918  30.609   2.729
51843W        W23514  26.305  33.382  13.531
51844W        W23515  21.481  11.362  13.298
51845W        W23516   7.421   9.733   4.917
51846W        W23517  44.801   4.951   3.070
51847W        W23518  34.648   3.177  11.528
51848W        W23519  34.407  26.872  10.937
51849W        W23520  15.641   7.371  14.947
51850W        W23521  13.731   9.382  12.479
51851W        W23522  18.379  38.000  12.936
51852W        W23523   4.635  11.224   3.744
51853W        W23524  18.693  39.149   0.243
51854W        W23525  33.756   3.730   3.115
51855W        W23526  22.922  40.856  12.935
51856W        W23527   4.014  10.916  12.971
51857W        W23528  43.958  35.653  12.011
51858W        W23529  13.122  24.555   1.314
51859W        W23530   2.142  26.246   0.115
51860W        W23531   5.938  12.536   1.224
51861W        W23532  30.726   8.729   0.259
51862W        W23533   5.863  16.961   2.665
51863W        W23534  30.703  40.290  14.439
51864W        W23535  23.940  13.649   4.131
51865W        W23536  15.818  32.001   0.362
51866W        W23537  34.449  28.747   3.171
51867W        W23538  33.814   7.195  13.425
51868W        W23539   2.737  38.750   3.229
51869W        W23540  12.112  17.185  13.500
51870W        W23541  44.842   4.722  13.471
51871W        W23542  33.328  14.554  14.267
51872W        W23543  42.431  32.346  13.932
51873W        W23544  42.923  26.067   0.789
51874W        W23545  41.228  35.668   0.407
51875W        W23546  23.146   5.452  10.721
51876W        W23547  43.639  21.723   5.485
51877W        W23548  12.045  12.711  13.856
51878W        W23549  33.039  10.149  14.211
51879W        W23550   2.864  22.959  11.555
51880W        W23551  34.512  23.794   1.762
51881W        W23552  39.476  17.673   1.418
51882W        W23553   2.429  43.961   3.614
51883W        W23554  15.553  15.308  12.904
51884W        W23555   9.923  35.905  11.155
51885W        W23556  12.597   8.321  13.478
51886W        W23557  37.336  43.829   4.752
51887W        W23558   4.195  33.632  11.991
51888W        W23559  17.235  30.470   1.070
51889W        W23560  19.219  13.782   4.644
51890W        W23561  15.135   3.920  11.381
51891W        W23562   3.089   5.566  11.524
51892W        W23563  38.472  31.984  13.927
51893W        W23564  26.456   2.913   3.143
51894W        W23565  30.561  41.067   4.402
51895W        W23566   6.799  35.165  12.516
51896W        W23567   8.695  28.051   3.325
51897W        W23568  20.572  22.472  14.477
51898W        W23569  32.464   7.187   3.279
51899W        W23570  11.254   6.301   2.416
51900W        W23571  43.360  15.072   4.503
51901W        W23572   6.320  44.495   2.647
51902W        W23573   9.106  30.904  14.251
51903W        W23574  27.489  26.752   0.483
51904W        W23575  29.966  34.164   1.880
51905W        W23576  22.252  40.555   0.802
51906W        W23577  11.424   5.136  13.965
51907W        W23578  43.751  44.471   2.162
51908W        W23579  34.957  15.245   2.631
51909W        W23580  25.001  24.194  11.416
51910W        W23581  13.378  26.587   0.927
51911W        W23582   0.299  11.963  10.443
51912W        W23583  43.935  22.282  12.931
51913W        W23584  39.848  19.040   4.479
51914W        W23585  24.701  14.414  14.033
51915W        W23586  19.543   9.779   4.314
51916W        W23587  39.933   2.783   4.577
51917W        W23588  28.533   6.863   4.200
51918W        W23589  30.485  19.458  12.658
51919W        W23590  37.499  22.178  14.738
51920W        W23591  33.824   9.136   4.456
51921W        W23592  21.343  11.461   4.878
51922W        W23593  17.792  42.369   3.775
51923W        W23594  29.749  10.152  11.605
51924W        W23595   0.870  38.603  12.153
51925W        W23596  38.612  15.827  11.611
51926W        W23597   9.359  31.180   4.261
51927W        W23598  14.179  34.119  14.715
51928W        W23599  33.532   7.861  11.258
51929W        W23600  39.901   2.355   2.774
51930W        W23601  11.926  28.391   4.828
51931W        W23602  17.129  27.972  14.508
51932W        W23603  36.156  25.194   1.733
51933W        W23604  19.745  27.240  13.025
51934W        W23605   0.944   1.341   4.660
51935W        W23606   7.457  35.845  14.864
51936W        W23607  24.013  37.054   3.340
51937W        W23608  26.782  36.313   2.846
51938W        W23609  15.535  42.322  13.549
51939W        W23610   9.293  16.642  13.495
51940W        W23611  12.891  19.107   2.198
51941W        W23612  31.441  28.322   0.371
51942W        W23613  14.617   1.096   3.268
51943W        W23614  40.577  33.002   0.203
51944W        W23615  14.762  44.298  12.828
51945W        W23616  29.928  15.745  12.779
51946W        W23617  42.307  40.397   3.167
51947W        W23618  36.789  28.041  12.400
51948W        W23619   6.522  42.296  13.105
51949W        W23620   8.418  15.176   1.788
51950W        W23621  10.661   9.197   3.141
51951W        W23622  33.866  21.176   0.980
51952W        W23623  43.950   1.783  11.159
51953W        W23624  43.678  11.204   1.649
51954W        W23625  11.902  23.630  12.486
51955W        W23626  10.546  40.848   3.310
51956W        W23627  10.875  34.010   2.894
51957W        W23628  24.400   8.978  10.736
51958W        W23629   4.427  18.824   2.663
51959W        W23630  19.825  13.163  13.824
51960W        W23631  30.947   8.435   2.122
51961W        W23632   4.792  24.959   3.338
51962W        W23633  44.348   5.734   2.442
51963W        W23634   1.060  11.333  13.731
51964W        W23635   1.007   2.014   2.649
51965W        W23636   9.739   6.700  10.489
51966W        W23637  14.532  37.909  13.783
51967W        W23638   4.104   4.075   0.342
51968W        W23639  36.082   5.638  11.154
51969W        W23640  37.283  12.607  11.299
51970W        W23641  11.131   8.662  12.952
51971W        W23642  40.686  22.636   1.378
51972W        W23643   5.856  16.582  14.798
51973W        W23644  12.426  22.887  11.910
51974W        W23645  29.981  34.134  12.036
51975W        W23646  13.269  15.322   0.545
51976W        W23647  24.434  34.853   3.709
51977W        W23648  12.319  13.753   1.919
51978W        W23649  31.740  34.410   4.111
51979W        W23650  22.754  39.796   3.772
51980W        W23651   3.616  35.660  14.528
51981W        W23652  38.188  30.848  14.280
51982W        W23653  31.036  24.582  12.145
51983W        W23654  41.961  31.139   4.929
51984W        W23655  30.561  32.928  14.764
51985W        W23656   7.736  17.271  14.772
51986W        W23657   1.510  44.496   2.915
51987W        W23658  18.833  14.797   4.532
51988W        W23659  17.285  23.193   0.342
51989W        W23660  13.690   6.356   3.850
51990W        W23661  44.653  25.318  12.989
51991W        W23662  31.709  14.675  12.127
51992W        W23663  16.561  42.117  11.482
51993W        W23664  14.527   6.487   2.164
51994W        W23665  37.385  13.885  10.631
51995W        W23666  27.866  41.021   2.196
51996W        W23667   8.410   4.117   0.171
51997W        W23668  18.130  32.309   2.157
51998W        W23669  27.105  13.739  13.437
51999W        W23670   0.183  14.101   2.224
52000W        W23671  14.535  28.659  11.290
52001W        W23672  19.071  33.616  11.681
52002W        W23673   8.276   6.889  12.107
52003W        W23674  19.538  43.038  10.139
52004W        W23675  17.204   8.664   3.912
52005W        W23676  23.681  40.855   3.637
52006W        W23677  24.491  10.271   2.156
52007W        W23678   3.784  39.839  14.063
52008W        W23679   7.565   8.032   2.308
52009W        W23680  30.537  42.375   2.151
52010W        W23681  42.117  13.281   4.747
52011W        W23682  44.223  43.391  14.386
52012W        W23683  31.008  19.731   2.509
52013W        W23684  11.430  40.846  12.995
52014W        W23685  44.740  17.551   3.804
52015W        W23686  22.083  33.933  11.445
52016W        W23687  33.837   2.586   2.448
52017W        W23688  25.195   3.300  11.579
52018W        W23689  23.026   9.322   0.412
52019W        W23690  19.854  11.653   4.199
52020W        W23691   0.349  36.624  14.382
52021W        W23692   7.171  26.516  13.906
52022W        W23693  24.126   6.729  12.948
52023W        W23694   8.057  16.742   2.264
52024W        W23695  35.845   4.007  11.986
52025W        W23696  43.075   8.118   0.878
52026W        W23697  18.640  39.255   3.140
52027W        W23698  30.003  29.603  11.113
52028W        W23699  30.883  33.634  11.177
52029W        W23700  29.648  35.321   3.721
52030W        W23701  18.205   2.108   2.450
52031W        W23702  33.397   4.841  13.905
52032W        W23703  17.337  13.308   2.221
52033W        W23704  24.730  34.119   4.188
52034W        W23705  42.178  15.126  12.059
52035W        W23706   9.241  18.220  12.006
52036W        W23707  34.525  16.539  14.316
52037W        W23708  12.928  18.135  11.093
52038W        W23709  21.477  42.086   4.802
52039W        W23710  40.067   2.622  10.925
52040W        W23711  29.536  31.976   2.656
52041W        W23712  27.822  38.562  13.729
52042W        W23713  33.515  25.144   0.687
52043W        W23714  39.958  22.586   0.738
52044W        W23715  18.742  40.329   2.279
52045W        W23716  31.362  21.986   4.787
52046W        W23717  31.029  41.561  10.802
52047W        W23718  29.413  17.293  12.122
52048W        W23719  21.158   4.194   2.783
52049W        W23720  24.017  25.006   4.124
52050W        W23721  25.213  34.460   0.359
52051W        W23722  10.739  13.202   4.538
52052W        W23723  10.364  34.601  10.743
52053W        W23724  10.164  42.229  12.051
52054W        W23725   9.385  30.896  13.414
52055W        W23726  30.419  33.901   4.141
52056W        W23727  21.704  31.859  11.106
52057W        W23728  20.506  37.472  13.010
52058W        W23729  17.237  12.123   5.240
52059W        W23730  34.497   3.297   0.192
52060W        W23731  32.195   3.398  10.358
52061W        W23732  10.808   6.411  12.120
52062W        W23733   8.408  28.376  11.168
52063W        W23734  29.152  27.865   3.142
52064W        W23735   7.626  10.949   4.115
52065W        W23736  14.322  24.759   2.258
52066W        W23737  15.166  30.639  12.140
52067W        W23738  16.057  38.976  11.123
52068W        W23739  43.827  40.455   3.213
52069W        W23740   6.467  24.590   4.150
52070W        W23741  39.955  20.224   2.860
52071W        W23742   5.663  44.050   0.777
52072W        W23743   2.786  40.812  14.891
52073W        W23744   1.719   7.821  12.500
52074W        W23745  38.203  44.909   1.267
52075W        W23746  44.870  39.321   3.332
52076W        W23747  32.033  39.043   0.494
52077W        W23748  34.045  21.653   3.194
52078W        W23749  27.140   4.394  12.458
52079W        W23750  43.269   6.842  12.758
52080W        W23751  12.418  33.337   1.843
52081W        W23752  36.472  32.828  11.883
52082W        W23753  29.887  41.027  11.631
52083W        W23754  20.855  21.160   3.297
52084W        W23755   0.927  18.695  13.251
52085W        W23756  24.344   7.761   2.504
52086W        W23757   3.949  25.127   0.939
52087W        W23758  11.546  40.992  11.666
52088W        W23759  34.858  12.226  11.498
52089W        W23760   1.452  13.646   3.350
52090W        W23761  41.795  18.138  11.988
52091W        W23762  10.685  36.258   3.881
52092W        W23763   1.024  37.259  12.941
52093W        W23764  13.231  13.987   3.652
52094W        W23765   0.494  30.443  11.577
52095W        W23766   9.215  19.537  10.189
52096W        W23767  35.517  17.105   2.586
52097W        W23768  14.302  30.988   4.137
52098W        W23769  44.638  27.585   2.238
52099W        W23770  15.322  39.925   0.731
52100W        W23771   7.203   6.249  11.598
52101W        W23772  29.688  43.235  13.329
52102W        W23773  21.615   2.727   1.596
52103W        W23774  17.675  20.718  13.377
52104W        W23775   6.364  38.776   4.438
52105W        W23776   0.552  14.298   3.674
52106W        W23777   3.377  37.129  12.047
52107W        W23778  22.773  15.239  11.011
52108W        W23779  14.994  19.058   4.433
52109W        W23780  31.247  16.737   1.493
52110W        W23781  41.039  13.633   2.653
52111W        W23782  18.837   6.914   1.878
52112W        W23783  28.988  20.591  13.492
52113W        W23784  17.235  10.457  12.249
52114W        W23785  18.648  28.957   1.369
52115W        W23786  26.771  18.696  12.069
52116W        W23787  25.028  31.446   1.624
52117W        W23788  18.654  26.123   4.647
52118W        W23789  37.990  23.891  10.630
52119W        W23790  16.066  14.057   0.782
52120W        W23791  29.923  12.641  12.515
52121W        W23792  43.001   0.765   1.920
52122W        W23793  30.076   8.710   1.416
52123W        W23794  32.389  28.118  12.982
52124W        W23795  42.561   4.372  12.869
52125W        W23796   0.503   5.714  12.895
52126W        W23797  14.266  20.220   1.673
52127W        W23798   3.032  34.607   0.292
52128W        W23799  30.956  24.099  10.464
52129W        W23800  43.060  14.299   1.329
52130W        W23801  27.948   4.977  12.421
52131W        W23802  33.816  22.201   4.035
52132W        W23803  11.230  14.302   3.181
52133W        W23804  24.423  17.662   2.833
52134W        W23805   5.830   2.018   1.887
52135W        W23806  33.546  34.543   4.581
52136W        W23807   5.263  24.047  10.955
52137W        W23808  37.027  17.619   0.026
52138W        W23809   2.186   0.809   1.901
52139W        W23810   1.662   1.776  13.021
52140W        W23811  22.281  35.538   4.573
52141W        W23812  41.506  36.111   3.341
52142W        W23813  32.459   7.657  11.114
52143W        W23814  33.709  41.445  14.101
52144W        W23815  28.671   9.207  13.402
52145W        W23816  43.373  26.196   4.916
52146W        W23817  36.026  43.878   3.792
52147W        W23818  11.181  20.761   4.738
52148W        W23819  28.898  38.448   1.837
52149W        W23820  27.744  11.909  12.767
52150W        W23821  20.146  43.385   0.010
52151W        W23822  39.595   8.837  14.949
52152W        W23823   4.960  36.296  12.198
52153W        W23824   7.830  22.058   4.594
52154W        W23825  16.511  19.642  13.303
52155W        W23826  42.758  44.560  12.445
52156W        W23827   7.603   6.213  14.450
52157W        W23828  19.535  11.011  12.515
52158W        W23829  14.467  22.661   0.330
52159W        W23830  28.149  32.427  14.925
52160W        W23831   8.205  43.446   3.747
52161W        W23832   9.390  18.641   0.336
52162W        W23833  22.852  20.266  10.362
52163W        W23834  24.699  41.553  11.796
52164W        W23835   6.805   8.822  13.789
52165W        W23836  27.234   5.283   1.980
52166W        W23837  38.844   0.729  14.664
52167W        W23838  18.186  21.098   0.929
52168W        W23839  12.626   1.348   0.895
52169W        W23840  21.155  15.955   2.423
52170W        W23841  17.518  31.063   4.699
52171W        W23842  38.233   7.963   0.853
52172W        W23843  33.889  28.542   4.201
52173W        W23844  43.354  35.480   3.150
52174W        W23845  33.933  41.008   3.777
52175W        W23846  29.935  30.964  12.884
52176W        W23847  11.275   1.434  12.747
52177W        W23848  17.885  29.554   0.864
52178W        W23849  38.627   8.788  14.155
52179W        W23850  31.945  28.498   2.849
52180W        W23851  24.478  16.722   1.708
52181W        W23852  43.828   3.735   3.304
52182W        W23853   2.046  13.785  12.494
52183W        W23854  18.616  15.716   0.992
52184W        W23855  24.233  28.777  13.113
52185W        W23856  27.384  26.510   2.790
52186W        W23857  23.434  28.552  12.908
52187W        W23858  42.893  19.358  11.443
52188W        W23859   9.645  44.026  12.353
52189W        W23860  35.433  36.458  11.223
52190W        W23861  39.341   2.239  12.079
52191W        W23862  36.411  38.776   1.891
52192W        W23863  38.597  41.490   1.953
52193W        W23864  33.128  44.850   2.941
52194W        W23865  37.276  33.761   1.729
52195W        W23866  15.573  11.320   2.763
52196W        W23867  42.941  11.709   3.099
52197W        W23868  32.139  12.628  14.757
52198W        W23869  11.226  24.778   2.399
52199W        W23870  15.231  23.936   4.391
52200W        W23871  43.147   6.246   0.236
52201W        W23872  33.089   8.542  10.271
52202W        W23873  43.100  32.823   3.275
52203W        W23874  38.080   6.240  11.666
52204W        W23875   1.941  12.371  13.533
52205W        W23876  35.408  10.328   2.665
52206W        W23877  33.620  28.589  12.940
52207W        W23878  44.023  32.071  14.479
52208W        W23879  29.619  39.416  10.661
52209W        W23880  14.266  42.808  12.106
52210W        W23881  33.724  38.476  12.648
52211W        W23882  40.356  10.013  11.963
52212W        W23883  29.167  25.507  11.340
52213W        W23884  17.964  29.387  14.852
52214W        W23885  26.159   2.371  13.515
52215W        W23886  13.584  11.092   1.310
52216W        W23887  43.490  10.969  12.221
52217W        W23888  41.220   2.542  14.466
52218W        W23889  38.341  35.045   4.257
52219W        W23890  35.474  13.531  12.013
52220W        W23891  39.800  21.994  10.640
52221W        W23892  18.323  31.019  12.592
52222W        W23893  12.239  26.913  14.876
52223W        W23894  14.108   9.182   0.999
52224W        W23895  39.907  11.396   3.359
52225W        W23896  15.764  23.300  11.511
52226W        W23897  42.221  29.581  12.937
52227W        W23898  16.662  16.500  13.866
52228W        W23899  18.803  34.513  13.067
52229W        W23900   1.202  17.185  14.296
52230W        W23901  18.058  30.945   1.299
52231W        W23902  24.660  30.624   2.803
52232W        W23903  10.166   7.843   0.699
52233W        W23904  33.380  40.816  10.563
52234W        W23905  28.184  33.126  12.330
52235W        W23906  28.095   3.356   3.257
52236W        W23907  44.302  44.799  12.887
52237W        W23908  44.374  15.724  12.062
52238W        W23909  26.955  16.231  14.136
52239W        W23910  36.112  25.654   1.955
52240W        W23911  36.090  32.990   3.237
52241W        W23912  32.592  16.918   3.568
52242W        W23913   3.171  43.368   0.940
52243W        W23914  23.189  42.896   2.582
52244W        W23915  12.912   6.575  14.708
52245W        W23916  43.871  34.131   0.482
52246W        W23917   2.295  28.164  11.984
52247W        W23918   8.651  21.211   0.261
52248W        W23919  18.134  15.390  13.818
52249W        W23920  42.515  17.737   0.591
52250W        W23921  38.555  39.204   2.652
52251W        W23922  35.287  42.929   4.876
52252W        W23923   1.948  23.473   2.351
52253W        W23924   4.957  31.555  12.475
52254W        W23925  40.929  38.809   1.733
52255W        W23926  17.810  28.478   3.575
52256W        W23927  13.759   5.414  11.054
52257W        W23928  38.832  20.281  11.910
52258W        W23929   7.899  44.955   0.347
52259W        W23930  43.969   7.370   3.551
52260W        W23931  36.326  23.339   1.850
52261W        W23932  41.673  18.160   0.922
52262W        W23933  10.830  38.563   1.818
52263W        W23934  43.998  24.728   0.872
52264W        W23935  13.748  24.713  13.101
52265W        W23936  16.190  11.464   4.282
52266W        W23937   4.356  13.518   4.889
52267W        W23938  44.186   3.496  12.910
52268W        W23939  19.194  32.666   3.304
52269W        W23940  42.102   1.742   3.668
52270W        W23941   8.631  36.442   4.975
52271W        W23942  32.374  32.009   4.158
52272W        W23943  12.141  27.539  12.337
52273W        W23944   7.654  36.633  13.067
52274W        W23945  33.124  26.132  12.455
52275W        W23946  43.374  27.875  12.440
52276W        W23947  34.063  40.291  14.359
52277W        W23948   7.925  10.343   3.127
52278W        W23949  38.355  23.991  11.015
52279W        W23950  13.848  22.313  13.314
52280W        W23951   3.942  31.677  10.429
52281W        W23952  26.846   8.538   2.304
52282W        W23953  29.976  44.799  13.444
52283W        W23954  19.586  43.804  13.887
52284W        W23955  11.686  23.278  10.352
52285W        W23956  10.369  33.348   2.737
52286W        W23957  41.670  32.966  11.650
52287W        W23958  19.114  26.206  10.466
52288W        W23959   5.263  35.006  14.909
52289W        W23960   0.185  27.578   2.437
52290W        W23961  41.755   9.718  14.668
52291W        W23962  17.841  37.980  12.096
52292W        W23963   0.338  29.100  14.877
52293W        W23964  44.967  41.318  14.684
52294W        W23965  30.656   7.296  12.139
52295W        W23966  25.614  26.692   2.215
52296W        W23967  39.921  37.820  14.745
52297W        W23968  10.348   6.228   3.550
52298W        W23969  33.096  30.782  11.043
52299W        W23970  30.499  43.311  10.867
52300W        W23971  24.478  40.295   0.061
52301W        W23972  39.071   1.238   4.988
52302W        W23973  36.880  30.984   3.214
52303W        W23974  10.660   0.231  13.531
52304W        W23975  34.961   5.426  14.102
52305W        W23976  43.414   5.992  12.340
52306W        W23977  27.884  15.947   5.011
52307W        W23978  35.258   6.963  14.760
52308W        W23979  34.665   2.279   3.817
52309W        W23980   5.827  34.022   0.800
52310W        W23981  42.983  27.985  12.097
52311W        W23982   1.772  23.039  14.406
52312W        W23983  17.341  29.486  12.161
52313W        W23984  34.522  43.945  12.369
52314W        W23985  30.992  30.957   2.230
52315W        W23986   9.253  23.952  12.685
52316W        W23987  12.198  44.685  13.247
52317W        W23988  37.818  13.707   1.755
52318W        W23989  30.057  38.444  11.669
52319W        W23990  33.151  40.786  11.035
52320W        W23991  30.649  30.872  12.469
52321W        W23992  21.268   1.852  13.303
52322W        W23993  18.346   6.237  12.860
52323W        W23994  42.569   7.696  12.883
52324W        W23995  13.137   3.277   4.877
52325W        W23996   2.898  26.684  14.892
52326W        W23997  41.049  31.140  11.217
52327W        W23998  24.725  10.681   3.607
52328W        W23999  41.418  41.431   2.405
52329W        W24000  35.746   5.967   3.705
52330W        W24001  16.553  44.119   1.893
52331W        W24002   6.693   3.497   1.413
52332W        W24003  31.925   5.694   3.774
52333W        W24004  29.619  11.458  10.638
52334W        W24005  11.494  14.854   4.322
52335W        W24006  20.077  34.211  11.125
52336W        W24007   5.814  41.850  10.627
52337W        W24008  42.075  36.940  12.591
52338W        W24009  25.013   3.262   1.308
52339W        W24010  39.472  30.578   4.739
52340W        W24011  32.831  35.005  12.887
52341W        W24012  42.609  34.779  13.337
52342W        W24013  29.920   6.729  12.523
52343W        W24014  24.224  18.160   1.419
52344W        W24015   9.280  41.462  10.663
52345W        W24016  14.708  10.237  11.175
52346W        W24017  35.361   8.915  14.694
52347W        W24018  13.073  33.416   4.939
52348W        W24019  40.306   9.858   4.089
52349W        W24020  21.453  10.178   3.706
52350W        W24021  18.130  15.211   1.434
52351W        W24022  21.052  42.027  13.431
52352W        W24023  20.306  23.128   1.856
52353W        W24024  27.113  27.690  11.988
52354W        W24025  18.995  41.859  10.677
52355W        W24026   3.336  15.907   0.453
52356W        W24027  18.220  19.574   3.872
52357W        W24028  39.551  40.346   3.251
52358W        W24029  31.549  19.396  11.192
52359W        W24030  37.938  30.176  12.902
52360W        W24031   7.231  42.518   4.736
52361W        W24032  17.772  37.880   0.894
52362W        W24033  41.891   7.225   2.389
52363W        W24034  18.422  36.525  14.017
52364W        W24035   9.898  29.196  11.607
52365W        W24036  38.431  25.560  13.046
52366W        W24037  38.251  30.109  12.493
52367W        W24038  37.485  18.932   3.940
52368W        W24039   6.152  20.001   4.706
52369W        W24040  27.062  10.365  14.074
52370W        W24041  36.877  10.789  11.632
52371W        W24042   0.505   5.153  12.895
52372W        W24043  24.164  29.160   3.716
52373W        W24044   6.680  11.245   1.019
52374W        W24045  36.110   4.396   2.654
52375W        W24046  35.692  22.111   2.712
52376W        W24047  38.975  25.175  12.642
52377W        W24048  26.201  35.049  14.836
52378W        W24049   6.846  25.190  11.554
52379W        W24050  12.145   0.322  11.177
52380W        W24051   0.528   7.718   2.742
52381W        W24052  11.889   4.977  14.137
52382W        W24053  21.795  24.946  11.971
52383W        W24054  17.117   5.172   3.250
52384W        W24055  36.932  36.938   4.521
52385W        W24056   6.246  37.382   0.488
52386W        W24057  42.338   1.979   2.358
52387W        W24058  25.119  32.600  10.679
52388W        W24059  28.040  23.175   1.209
52389W        W24060   8.143  36.103   3.290
52390W        W24061  39.418  25.879  13.063
52391W        W24062  20.334   5.898   4.552
52392W        W24063  28.969   6.653  10.357
52393W        W24064  19.157  41.739  12.091
52394W        W24065  35.960  18.029  13.964
52395W        W24066  18.967  44.424  11.439
52396W        W24067  16.976  26.439   1.776
52397W        W24068   1.945  42.245   3.667
52398W        W24069   1.859  14.189   3.599
52399W        W24070  26.688  27.579  11.044
52400W        W24071  14.202  44.041   1.359
52401W        W24072  30.677   8.894  12.865
52402W        W24073  14.710   1.706   4.164
52403W        W24074  35.790  22.721   1.180
52404W        W24075  27.029   9.167   4.108
52405W        W24076  19.821  40.272  11.234
52406W        W24077  32.099  23.214  13.842
52407W        W24078  14.753   9.729  11.147
52408W        W24079  14.691  43.260   3.990
52409W        W24080  13.687  36.448   2.098
52410W        W24081  15.155  13.177   3.569
52411W        W24082   2.918  43.026  10.629
52412W        W24083   3.463  10.746   4.152
52413W        W24084  39.376   3.093  11.992
52414W        W24085   6.908  13.117  12.882
52415W        W24086  26.615  19.788  13.422
52416W        W24087  40.690  38.750  14.577
52417W        W24088   3.166   3.401   2.315
52418W        W24089  29.038  31.541  10.706
52419W        W24090  17.709  12.725   5.382
52420W        W24091   7.580  37.604  10.553
52421W        W24092  16.848  15.136  12.447
52422W        W24093   9.255  18.419  14.871
52423W        W24094  30.617  23.770  11.995
52424W        W24095  31.908   9.195   4.192
52425W        W24096  30.484   5.739   3.521
52426W        W24097  42.120  34.152   4.731
52427W        W24098  23.781  17.542  14.911
52428W        W24099  37.358   4.327  13.946
52429W        W24100   9.913   1.149   1.713
52430W        W24101  19.069   0.383  12.374
52431W        W24102   2.535  25.475  10.947
52432W        W24103  18.677  12.070  12.577
52433W        W24104  38.497  22.497   0.616
52434W        W24105   3.276  17.642   1.215
52435W        W24106   1.891  37.094   2.413
52436W        W24107  37.142  25.986  14.055
52437W        W24108  42.488  12.147   3.746
52438W        W24109  17.493  21.353   0.481
52439W        W24110  14.505   8.178  11.714
52440W        W24111  33.013  28.978   3.356
52441W        W24112  25.117  27.946   2.557
52442W        W24113  40.274  44.264  14.404
52443W        W24114   9.444  36.089  11.170
52444W        W24115  13.156  34.469   3.983
52445W        W24116  39.297   0.318  12.246
52446W        W24117  32.852  12.294  14.259
52447W        W24118   6.960  34.991   0.949
52448W        W24119  43.404  32.543   4.493
52449W        W24120  19.666  27.302  14.362
52450W        W24121  21.488  15.720   1.192
52451W        W24122  22.971  42.559  13.404
52452W        W24123  35.605   0.250   0.556
52453W        W24124  42.423  40.329  13.874
52454W        W24125  35.905  10.482  11.579
52455W        W24126  43.508  34.850  11.937
52456W        W24127  14.604   9.255   0.955
52457W        W24128  10.713   5.624   0.374
52458W        W24129  39.050  31.860   4.616
52459W        W24130  11.109   1.350   1.636
52460W        W24131  13.385  26.004  12.384
52461W        W24132  37.449  14.141   4.135
52462W        W24133  38.346  22.061  10.910
52463W        W24134  25.213  13.431   3.185
52464W        W24135  26.645  40.977  11.631
52465W        W24136  25.284  32.902   4.372
52466W        W24137  42.689   4.687  13.340
52467W        W24138   3.247  36.154   2.985
52468W        W24139  41.738  41.936   1.211
52469W        W24140   3.842  16.813   0.328
52470W        W24141  16.139  41.736   3.251
52471W        W24142  16.730   7.879   3.852
52472W        W24143  30.027  18.568  13.576
52473W        W24144  40.046  20.689   2.095
52474W        W24145  39.000  44.467   1.408
52475W        W24146  11.608   2.353   2.364
52476W        W24147  33.380  10.248  13.256
52477W        W24148   9.762   8.213  14.114
52478W        W24149  23.994  37.497   0.766
52479W        W24150  41.946   1.534  10.628
52480W        W24151  29.987  32.053   4.275
52481W        W24152  18.341  28.933  10.548
52482W        W24153  30.082  13.721   2.116
52483W        W24154  21.128  38.299  13.407
52484W        W24155  17.719  29.121  12.193
52485W        W24156  15.372   8.275  13.332
52486W        W24157  25.678  22.292  13.020
52487W        W24158  29.960  32.047  12.872
52488W        W24159  30.574   1.546  12.460
52489W        W24160   3.915  37.103  10.694
52490W        W24161  41.979  22.740  14.453
52491W        W24162  27.216  22.728   3.780
52492W        W24163   7.713   2.864  11.633
52493W        W24164  21.615   6.443   1.016
52494W        W24165  33.381  39.027  10.610
52495W        W24166   9.278  11.176   1.757
52496W        W24167   1.996  44.978  13.353
52497W        W24168   3.085  14.303   2.176
52498W        W24169  12.376   6.897   4.614
52499W        W24170  42.200   9.469  14.513
52500W        W24171   7.650  42.511  12.081
52501W        W24172  23.621   2.606  12.417
52502W        W24173  26.607  14.738   1.268
52503W        W24174  16.348  11.256   4.762
52504W        W24175  17.859  15.597  14.185
52505W        W24176  41.504  23.568   2.362
52506W        W24177   5.699  16.514   2.865
52507W        W24178  25.532  15.117  12.458
52508W        W24179  42.420  33.525  11.663
52509W        W24180  11.325  24.481  14.358
52510W        W24181  35.634  19.223   2.211
52511W        W24182  25.054  27.450  10.470
52512W        W24183  13.691  10.001  11.633
52513W        W24184  20.191   6.314  12.579
52514W        W24185  34.483  32.748   2.217
52515W        W24186  14.147  32.905   0.583
52516W        W24187   8.409  14.583  14.438
52517W        W24188  29.238  27.632   4.369
52518W        W24189   6.612  20.522  11.562
52519W        W24190   8.771   5.194  10.667
52520W        W24191  30.043  28.240  12.834
52521W        W24192  36.938   2.267   4.428
52522W        W24193  15.664  22.793  14.889
52523W        W24194  41.494   4.913  10.588
52524W        W24195   0.884   2.203   0.388
52525W        W24196  36.353  31.807  11.720
52526W        W24197  34.496  23.271  14.787
52527W        W24198  27.787  22.547  12.041
52528W        W24199  41.899   3.868  14.906
52529W        W24200  42.313   4.831  13.005
52530W        W24201   6.828   6.222  10.733
52531W        W24202  19.118   5.213   0.889
52532W        W24203   2.344  30.574  11.203
52533W        W24204   4.739   2.231  13.378
52534W        W24205  28.962  44.246   0.985
52535W        W24206  44.930  24.156   3.660
52536W        W24207  40.544  37.415  14.220
52537W        W24208  12.288  25.471  12.966
52538W        W24209  28.903  31.480   0.353
52539W        W24210  35.609  29.162   4.446
52540W        W24211  10.221  31.401  12.526
52541W        W24212  27.959  21.963   4.661
52542W        W24213  29.601  23.307  11.447
52543W        W24214   7.373   0.245  13.006
52544W        W24215  17.112  14.856   1.090
52545W        W24216  21.632   9.558   1.101
52546W        W24217  36.350   4.301  13.863
52547W        W24218  19.189  22.721   2.207
52548W        W24219  10.124  29.377  12.516
52549W        W24220   6.743   9.304  10.719
52550W        W24221  16.561  33.329   4.108
52551W        W24222  27.594  33.836  11.629
52552W        W24223  27.981  14.350   1.703
52553W        W24224  19.744  13.899   4.880
52554W        W24225  14.060  32.035  13.997
52555W        W24226   0.288  20.604  13.152
52556W        W24227  22.258  18.262   3.820
52557W        W24228   7.307  10.139  14.942
52558W        W24229   3.244  17.777   4.133
52559W        W24230  15.038  16.312   3.054
52560W        W24231   2.042  40.214  12.046
52561W        W24232   2.928  25.184   4.676
52562W        W24233   7.734   7.130  13.663
52563W        W24234  43.308  41.089   5.450
52564W        W24235  29.590   3.722  11.238
52565W        W24236  18.131  39.095   0.875
52566W        W24237  42.533  38.522  11.505
52567W        W24238  43.185  15.057  12.190
52568W        W24239  40.658  21.807  11.113
52569W        W24240   4.656   9.763   0.733
52570W        W24241  43.212  31.199   4.786
52571W        W24242  11.318  24.504  13.116
52572W        W24243  28.823  23.253   2.731
52573W        W24244   7.104  30.051   0.271
52574W        W24245   9.805   8.313   2.698
52575W        W24246  37.332  42.750   2.868
52576W        W24247  44.944  40.077  12.456
52577W        W24248  10.891  36.755   2.215
52578W        W24249  34.419  40.317   1.289
52579W        W24250  13.096  37.497   4.735
52580W        W24251  18.461  33.533  12.096
52581W        W24252  27.641  25.707   1.023
52582W        W24253  40.517   9.909  14.341
52583W        W24254  19.002  40.493  13.968
52584W        W24255  23.076  27.658  13.640
52585W        W24256  17.296  17.729   0.453
52586W        W24257  43.290  43.948   0.456
52587W        W24258   5.497  41.572  14.914
52588W        W24259  44.095   9.920   0.953
52589W        W24260  16.531  37.497   3.124
52590W        W24261  30.051   1.297   3.170
52591W        W24262  39.963  40.042  10.389
52592W        W24263   7.900  11.132   3.259
52593W        W24264  34.193  19.687   2.684
52594W        W24265  14.377  28.499  11.773
52595W        W24266  29.631  24.085  14.320
52596W        W24267  33.946   1.769   1.789
52597W        W24268  30.904  19.068  11.079
52598W        W24269  27.173   3.474   4.559
52599W        W24270  39.103   7.903  13.779
52600W        W24271   1.418  16.715  11.541
52601W        W24272  36.805  28.073   3.249
52602W        W24273  40.592  26.151  13.856
52603W        W24274   4.905   8.244  13.952
52604W        W24275  10.208  28.139  13.175
52605W        W24276   4.954  15.158  11.911
52606W        W24277  22.285  40.020   0.830
52607W        W24278  32.005  30.995  13.131
52608W        W24279  22.133  29.709   0.973
52609W        W24280   9.919   7.338  12.983
52610W        W24281   3.461  41.177   4.604
52611W        W24282  14.698   7.752  12.952
52612W        W24283  37.808  37.570  14.073
52613W        W24284  22.723   4.775  12.830
52614W        W24285  32.352  21.398   3.285
52615W        W24286  26.410  25.521   1.808
52616W        W24287  44.888  34.076  11.628
52617W        W24288  42.457   6.154   0.953
52618W        W24289  16.235  16.234  12.270
52619W        W24290   4.320   6.381  14.594
52620W        W24291  38.276  26.057   1.686
52621W        W24292   1.979  17.379  14.653
52622W        W24293  24.207  17.069  12.847
52623W        W24294  34.997   3.153  13.374
52624W        W24295   0.222  44.115   3.729
52625W        W24296   1.154  41.337   1.339
52626W        W24297  32.468  41.225  12.841
52627W        W24298   2.520  14.635   0.054
52628W        W24299   3.412  24.219  11.118
52629W        W24300  29.744  41.360   3.258
52630W        W24301  17.479  44.375  11.430
52631W        W24302  15.737  42.039   4.036
52632W        W24303  37.947  34.699  14.347
52633W        W24304  15.340  11.807  12.392
52634W        W24305  30.484  23.600  11.527
52635W        W24306  38.942   3.281   0.035
52636W        W24307  38.406  21.709  11.661
52637W        W24308  16.802  10.744   2.859
52638W        W24309  29.208  28.959  13.343
52639W        W24310  41.203  18.304   2.603
52640W        W24311  36.098  23.557  13.596
52641W        W24312   7.024  22.263   2.364
52642W        W24313  38.457   9.809   4.608
52643W        W24314  41.097  25.824   4.059
52644W        W24315  10.261  20.913  11.110
52645W        W24316   3.832  20.619   1.793
52646W        W24317  32.330  25.700   4.444
52647W        W24318   5.735  19.121   4.378
52648W        W24319  30.859  23.931   4.150
52649W        W24320  16.275  24.103   1.266
52650W        W24321  40.509  10.247   0.179
52651W        W24322   6.855   0.797  11.033
52652W        W24323  17.215   9.727  10.978
52653W        W24324  26.036  30.716   2.809
52654W        W24325   1.317  34.028   1.612
52655W        W24326  24.695  16.823  10.414
52656W        W24327  14.770  16.886   9.838
52657W        W24328   4.242   7.523  12.303
52658W        W24329  18.292  22.969   2.350
52659W        W24330  35.833  17.364  13.124
52660W        W24331  19.688  37.911  13.329
52661W        W24332   8.348  37.025  12.470
52662W        W24333  18.032  28.435   2.722
52663W        W24334  26.487  43.970  10.518
52664W        W24335  41.758  18.202  12.849
52665W        W24336  18.774   7.182  12.887
52666W        W24337  19.636   1.436  13.947
52667W        W24338  43.493  36.794  11.869
52668W        W24339  42.589   5.784   1.297
52669W        W24340  33.636  32.131   4.844
52670W        W24341  15.941   6.085  13.468
52671W        W24342  24.879   2.314   2.771
52672W        W24343  36.410  22.727   2.566
52673W        W24344  30.944  32.024   2.157
52674W        W24345  30.204  14.555  12.519
52675W        W24346  44.531  17.954  10.278
52676W        W24347  36.448  27.873  12.932
52677W        W24348  20.858  31.205  11.085
52678W        W24349  24.120  29.535   3.300
52679W        W24350  25.040  29.161   4.250
52680W        W24351  41.990  33.641   0.391
52681W        W24352  39.353  40.856   3.205
52682W        W24353  26.546  14.565   3.492
52683W        W24354   0.208  26.447   0.267
52684W        W24355   4.840  44.439  10.627
52685W        W24356  25.720  10.517   1.353
52686W        W24357  24.109  42.540   0.976
52687W        W24358  13.405   2.578  13.855
52688W        W24359   2.702  33.413   0.342
52689W        W24360  32.939  15.831   3.127
52690W        W24361  24.757  20.550   3.820
52691W        W24362   6.813   3.932  13.057
52692W        W24363   8.683   3.822  10.471
52693W        W24364   4.757  36.823   2.987
52694W        W24365  13.918  24.679   1.928
52695W        W24366  44.072   7.451  14.030
52696W        W24367  22.660  23.736   3.783
52697W        W24368  44.506   7.339   3.510
52698W        W24369   5.925  31.990   3.786
52699W        W24370   2.727  35.987   0.281
52700W        W24371  39.376  26.728   2.739
52701W        W24372   3.858  27.592   3.389
52702W        W24373  10.294  20.415  11.839
52703W        W24374  40.024   7.368  12.545
52704W        W24375  40.361  39.928  11.176
52705W        W24376  32.027  35.914   3.270
52706W        W24377   9.874  18.602  11.388
52707W        W24378  21.401   4.908   3.314
52708W        W24379  16.901  20.987  12.807
52709W        W24380  11.763  37.322  12.759
52710W        W24381  37.841  19.032   0.651
52711W        W24382  10.159  34.049   2.320
52712W        W24383  11.528  37.619  13.329
52713W        W24384   7.571  26.567  14.564
52714W        W24385  32.933  37.138  12.566
52715W        W24386  41.568  30.386  12.061
52716W        W24387   9.075   6.258   1.179
52717W        W24388   6.408   3.254   1.758
52718W        W24389  22.997  32.329  13.413
52719W        W24390   2.379  33.627  12.617
52720W        W24391  27.456  41.582   4.642
52721W        W24392  27.057  36.568   1.928
52722W        W24393  41.705  17.879  11.560
52723W        W24394  15.157  42.790   2.483
52724W        W24395   8.948  24.413   2.473
52725W        W24396   3.236  40.190   0.184
52726W        W24397  24.260  14.093  13.444
52727W        W24398   5.876  42.863  11.549
52728W        W24399  26.718   0.328  13.935
52729W        W24400  28.132   9.288   2.769
52730W        W24401  10.722  38.785   0.615
52731W        W24402  17.089  15.208   2.757
52732W        W24403  27.667  43.757   1.859
52733W        W24404  40.910  20.296  13.067
52734W        W24405  29.320  42.082  12.939
52735W        W24406  15.157   0.982   1.230
52736W        W24407  39.285  11.165  13.265
52737W        W24408  17.709  31.053  14.694
52738W        W24409  23.133  40.641  13.354
52739W        W24410  23.817  22.692  13.888
52740W        W24411  17.980  14.185   9.907
52741W        W24412  38.075   8.731  11.899
52742W        W24413  21.942  16.153  11.513
52743W        W24414  44.359  23.025   5.627
52744W        W24415  15.576  31.108   1.905
52745W        W24416  28.552  36.455  12.654
52746W        W24417  39.086  43.007   1.492
52747W        W24418  21.075  33.220  11.001
52748W        W24419  27.739  37.810   4.153
52749W        W24420  42.072   1.428  13.002
52750W        W24421  17.600  37.338  12.834
52751W        W24422  31.899  21.704  14.703
52752W        W24423   3.669  29.607  14.908
52753W        W24424  38.947   1.100  12.341
52754W        W24425   3.680  33.023  11.014
52755W        W24426   8.266  22.933   4.243
52756W        W24427  29.220  32.462   0.079
52757W        W24428  39.535  41.539   2.414
52758W        W24429   4.305  36.108   4.212
52759W        W24430  34.094  19.428   4.606
52760W        W24431  39.530  32.060   4.751
52761W        W24432  30.340  21.116  10.680
52762W        W24433  44.459  22.290  12.028
52763W        W24434  32.665  43.552  13.874
52764W        W24435  17.119  26.507  14.153
52765W        W24436  38.622  39.267  11.733
52766W        W24437   5.940  24.767   4.793
52767W        W24438  10.424  44.059   3.697
52768W        W24439   9.232  41.373   0.149
52769W        W24440  32.808  43.827  14.293
52770W        W24441   4.380  43.473  13.928
52771W        W24442  21.567  26.681  13.396
52772W        W24443  29.446  20.941  10.426
52773W        W24444  41.415  37.930   2.222
52774W        W24445  39.932  14.326   0.304
52775W        W24446  12.153  23.759  13.963
52776W        W24447  22.424  26.444  12.875
52777W        W24448  12.534  13.293   2.752
52778W        W24449  14.784   6.747  13.206
52779W        W24450  22.092   3.297  11.558
52780W        W24451  43.288  24.558  12.987
52781W        W24452  26.625  26.306   4.128
52782W        W24453  19.134  23.780  12.308
52783W        W24454  36.948  37.362   0.182
52784W        W24455  25.867  31.300  14.805
52785W        W24456  35.820  16.769   3.772
52786W        W24457   4.392  33.290   0.453
52787W        W24458  41.325  43.581  14.696
52788W        W24459  30.822  23.058  14.726
52789W        W24460  11.353  42.774  11.602
52790W        W24461  28.722  31.981  11.560
52791W        W24462  31.394  26.302   0.447
52792W        W24463  18.121  34.770   2.735
52793W        W24464  34.196  23.278  11.110
52794W        W24465  33.447  33.537   1.224
52795W        W24466  40.854  41.326   5.345
52796W        W24467  42.879   0.460   1.254
52797W        W24468  31.939  40.771   4.535
52798W        W24469  20.119  15.164   0.719
52799W        W24470  33.852  31.683  11.161
52800W        W24471   3.451  21.872   5.223
52801W        W24472  27.435  33.370   1.275
52802W        W24473  14.363  24.440   1.868
52803W        W24474  23.822  24.590   3.318
52804W        W24475  19.863  15.064  11.620
52805W        W24476  33.375  31.219  13.616
52806W        W24477   2.320   2.118   0.577
52807W        W24478  18.389  29.007   3.833
52808W        W24479  29.983  20.279   4.211
52809W        W24480  26.737  28.005  10.730
52810W        W24481   3.495  31.494   1.344
52811W        W24482  25.623  27.229   2.211
52812W        W24483   9.799   2.408  12.965
52813W        W24484   7.822  36.839   1.954
52814W        W24485   0.973  31.639   3.808
52815W        W24486  28.689  29.556  14.279
52816W        W24487  29.255   8.315   4.931
52817W        W24488  20.969  28.355  14.959
52818W        W24489  26.245  25.652   0.042
52819W        W24490   8.754  42.490   0.399
52820W        W24491  35.568  30.536  14.974
52821W        W24492  11.165  25.429  11.184
52822W        W24493   5.248   2.507   1.255
52823W        W24494   8.486  18.347   4.260
52824W        W24495  10.225  31.857   4.183
52825W        W24496  38.480  17.183  12.114
52826W        W24497   9.527  41.587   2.861
52827W        W24498  26.037  12.998  11.625
52828W        W24499  26.497   1.654  14.385
52829W        W24500   3.611  27.488  11.016
52830W        W24501  44.408  23.053   1.713
52831W        W24502  23.168   2.418  14.000
52832W        W24503  26.578  30.396   1.321
52833W        W24504  43.459  17.060  10.744
52834W        W24505  12.726  23.123   1.932
52835W        W24506  35.897  36.071   1.970
52836W        W24507  35.696  33.896   1.592
52837W        W24508  35.019   3.830  13.022
52838W        W24509  21.114  25.511  11.689
52839W        W24510  34.582  28.615  14.269
52840W        W24511   1.958   6.071  12.223
52841W        W24512  11.588  12.480  12.937
52842W        W24513  15.115  43.781   1.153
52843W        W24514   0.442   8.368  11.661
52844W        W24515  43.946  39.867  13.352
52845W        W24516   9.302  20.553  14.566
52846W        W24517  31.729  31.468   2.328
52847W        W24518  43.878  19.424  13.789
52848W        W24519   5.002  28.953  13.424
52849W        W24520  26.394  12.883  13.338
52850W        W24521   0.626   2.402  11.585
52851W        W24522  18.536  43.583  13.845
52852W        W24523  39.348  42.591   4.379
52853W        W24524  43.636  27.359   4.071
52854W        W24525  13.154   0.361   0.124
52855W        W24526  12.733  32.064   0.932
52856W        W24527   4.417  34.905   5.040
52857W        W24528  26.562  26.218   2.355
52858W        W24529   8.698  43.764  10.706
52859W        W24530  39.362  26.599  11.049
52860W        W24531  20.312  32.669  11.651
52861W        W24532  24.626  27.665  14.719
52862W        W24533  23.462  20.708  14.398
52863W        W24534  19.684  43.958  10.608
52864W        W24535   1.146  19.245  11.998
52865W        W24536  18.686   4.876  13.531
52866W        W24537  25.220  16.577   0.372
52867W        W24538  31.353  20.722   0.322
52868W        W24539  21.466  44.056   1.871
52869W        W24540  34.054  13.239  11.592
52870W        W24541  32.666  11.664   0.210
52871W        W24542   7.882   5.241  10.989
52872W        W24543  30.144  27.496  10.778
52873W        W24544  15.570  11.189  11.151
52874W        W24545  43.246  32.100   2.289
52875W        W24546  17.340   1.466   2.735
52876W        W24547  44.736   1.754   4.739
52877W        W24548  29.091  27.213  12.137
52878W        W24549  18.314  18.138   0.814
52879W        W24550  23.479  26.478  10.752
52880W        W24551   9.745  28.164  12.925
52881W        W24552  11.162  21.029   2.275
52882W        W24553  15.338  34.040  14.381
52883W        W24554  11.825  20.461  11.134
52884W        W24555  18.573  37.558  13.963
52885W        W24556  30.385  12.212  13.099
52886W        W24557  12.262  18.969   0.361
52887W        W24558  34.654  20.701  14.846
52888W        W24559  20.118   0.056   4.083
52889W        W24560  24.521   1.988   4.864
52890W        W24561   7.694  40.568  12.379
52891W        W24562  26.273  42.612  12.067
52892W        W24563  12.415  31.027   0.066
52893W        W24564  37.043  11.328   2.623
52894W        W24565  35.109  27.944   0.316
52895W        W24566  24.592  17.734   3.735
52896W        W24567   1.823   3.771  12.644
52897W        W24568  42.826  17.321  12.907
52898W        W24569  27.460  30.197   3.338
52899W        W24570   9.841   3.111   0.808
52900W        W24571   8.974   5.112  13.649
52901W        W24572  38.081  41.527  13.428
52902W        W24573   6.612   6.678   1.164
52903W        W24574  33.560  10.785  12.516
52904W        W24575  33.140  23.549   4.164
52905W        W24576   6.229   9.360  10.636
52906W        W24577  44.498  27.935  12.934
52907W        W24578   5.344  28.239  14.067
52908W        W24579  35.552  35.481   4.511
52909W        W24580  28.851  38.395  10.784
52910W        W24581  22.159  23.568  14.422
52911W        W24582   8.950  11.355   1.355
52912W        W24583  39.014  28.667  10.692
52913W        W24584   6.872  28.453  12.822
52914W        W24585  28.753  44.955  12.510
52915W        W24586  20.816  31.684   1.842
52916W        W24587  29.972  44.292   4.154
52917W        W24588  25.974   7.690   4.116
52918W        W24589   3.831   5.040   4.059
52919W        W24590  33.403  33.539   0.282
52920W        W24591  26.560  29.270   0.547
52921W        W24592  17.262  12.875   3.643
52922W        W24593  27.868  42.390   1.859
52923W        W24594   3.580   4.827   3.282
52924W        W24595  36.405  44.109  14.718
52925W        W24596  29.086  39.303   4.911
52926W        W24597   6.933  29.634  14.427
52927W        W24598   2.414  26.562  10.869
52928W        W24599   2.523  18.829  12.065
52929W        W24600   6.454  16.105   4.566
52930W        W24601  44.285  39.549  14.834
52931W        W24602  14.267   5.940   4.447
52932W        W24603  12.203  26.600   4.908
52933W        W24604  29.025  44.444  14.010
52934W        W24605  33.595  18.246   1.506
52935W        W24606  36.777  25.542  14.107
52936W        W24607  30.085  23.953  13.048
52937W        W24608   7.454  33.687   4.565
52938W        W24609  39.020  36.538   3.319
52939W        W24610  24.785  15.886   2.798
52940W        W24611   3.715  22.555  10.097
52941W        W24612   0.671  17.486  11.428
52942W        W24613  19.602   2.540   0.504
52943W        W24614  36.970   1.829  13.062
52944W        W24615  21.067  44.038  11.193
52945W        W24616  30.929  15.696  13.131
52946W        W24617  23.745  11.639   0.452
52947W        W24618   0.668  31.470  13.860
52948W        W24619  27.079   8.191  14.400
52949W        W24620  35.099  42.297   4.304
52950W        W24621  44.440   3.621   0.373
52951W        W24622  38.431  44.331  13.114
52952W        W24623  44.155  16.309   0.770
52953W        W24624  10.736  31.193   2.264
52954W        W24625  38.626  35.055  12.858
52955W        W24626  29.899  22.516  12.479
52956W        W24627  41.823  20.578  13.761
52957W        W24628  26.704   6.723  11.332
52958W        W24629  21.814  23.367  12.188
52959W        W24630  30.888  30.290   3.404
52960W        W24631  17.689  18.753  11.668
52961W        W24632  18.730  41.384  11.069
52962W        W24633  17.330  12.077   1.825
52963W        W24634  27.144  26.790  14.074
52964W        W24635  17.828  34.883   4.525
52965W        W24636   1.503  43.990  12.378
52966W        W24637  44.533  17.085   3.679
52967W        W24638  20.534  26.510  10.717
52968W        W24639  31.651  28.163   2.570
52969W        W24640  30.008  44.034  13.887
52970W        W24641   8.518  20.071  10.684
52971W        W24642   9.280  37.409  13.679
52972W        W24643  38.514  36.656   3.174
52973W        W24644  13.569   3.516   3.739
52974W        W24645   6.738   0.699  11.943
52975W        W24646  36.796  20.574  14.231
52976W        W24647  10.792  42.835   1.309
52977W        W24648  32.231   9.475   0.279
52978W        W24649  21.144  25.358  12.972
52979W        W24650  24.026  19.260  13.636
52980W        W24651  40.627  18.386  13.471
52981W        W24652   3.447  41.034  13.055
52982W        W24653   5.803  22.115  13.346
52983W        W24654  26.042  38.356   2.776
52984W        W24655  32.407  33.040   0.984
52985W        W24656  30.653  42.997   5.104
52986W        W24657   4.450   5.637   3.280
52987W        W24658   8.144  14.837   0.755
52988W        W24659  27.962  27.480  14.878
52989W        W24660  22.608   5.029  11.450
52990W        W24661   1.528  30.540   2.472
52991W        W24662  20.407  18.507   3.730
52992W        W24663  20.796  42.491  12.082
52993W        W24664   8.760  41.534  12.812
52994W        W24665  35.448   6.195   0.139
52995W        W24666  43.918   2.030  10.701
52996W        W24667   1.944  40.888  11.084
52997W        W24668  14.215   9.620   2.363
52998W        W24669   3.212  44.575  12.131
52999W        W24670   2.507  15.350   0.689
53000W        W24671  11.086  35.056  14.933
53001W        W24672  27.673  10.881  14.602
53002W        W24673  29.572  24.669  12.175
53003W        W24674  24.477  36.455   1.713
53004W        W24675  38.477   0.192  13.031
53005W        W24676  26.885   9.459  13.029
53006W        W24677  11.739  27.903  11.510
53007W        W24678  29.352  32.797  11.714
53008W        W24679  37.792  34.108  11.101
53009W        W24680   6.886  16.992  13.892
53010W        W24681  21.137  15.091   0.869
53011W        W24682   1.580   4.886   1.856
53012W        W24683  18.660  35.856  13.911
53013W        W24684  34.871  35.471   3.349
53014W        W24685  32.788  35.101  10.670
53015W        W24686  16.539  13.497   0.950
53016W        W24687  36.767  17.340  13.188
53017W        W24688  16.129   8.278   2.481
53018W        W24689  18.468   8.620   1.711
53019W        W24690  25.730  30.093   2.778
53020W        W24691  28.369  28.555   4.259
53021W        W24692   5.259  22.831   2.368
53022W        W24693   1.923  22.688  10.141
53023W        W24694  28.575  31.134   1.278
53024W        W24695   8.496  13.426   1.592
53025W        W24696  38.117  12.246  13.481
53026W        W24697  10.348  39.546  11.074
53027W        W24698  27.042   0.543  10.493
53028W        W24699  19.269  40.275   2.115
53029W        W24700  13.256  33.477   0.515
53030W        W24701  22.811  29.683  12.417
53031W        W24702  22.952  33.388   0.013
53032W        W24703  22.235  40.018  13.967
53033W        W24704  41.203   0.780  11.941
53034W        W24705  11.699   6.448   0.250
53035W        W24706  11.899  18.184  12.789
53036W        W24707  26.672  37.948  12.179
53037W        W24708  42.367  38.901   2.343
53038W        W24709  28.383  39.726  11.209
53039W        W24710   4.745  26.249  10.658
53040W        W24711  36.037  28.327   2.593
53041W        W24712  27.542   4.196   3.200
53042W        W24713  43.758  11.317   2.661
53043W        W24714  30.393   9.563  11.735
53044W        W24715  21.193  12.258   1.713
53045W        W24716   2.205  22.516  11.943
53046W        W24717  38.056  40.232  14.699
53047W        W24718  28.454  17.210   3.247
53048W        W24719  10.752  28.988  11.096
53049W        W24720   6.671  37.325   3.637
53050W        W24721  28.462  27.773   1.234
53051W        W24722  39.317  18.712  13.032
53052W        W24723  35.941   6.239  10.574
53053W        W24724  44.681  29.783   4.031
53054W        W24725  12.313   5.703   0.434
53055W        W24726  24.299  26.612  11.138
53056W        W24727  10.259  38.700  14.427
53057W        W24728  18.614  20.154  14.008
53058W        W24729   9.796  27.757   0.690
53059W        W24730  25.568   7.191   0.509
53060W        W24731  30.586   8.193  14.431
53061W        W24732   8.601  20.644  11.993
53062W        W24733   0.288  15.849  10.370
53063W        W24734  33.566   3.327   4.067
53064W        W24735  39.057  30.178  14.107
53065W        W24736  40.692   2.137   4.328
53066W        W24737  33.093  32.197   0.132
53067W        W24738  24.728  12.852   4.188
53068W        W24739  30.238  33.435   3.124
53069W        W24740  41.087   6.707   3.744
53070W        W24741   0.985   5.226   2.378
53071W        W24742   8.809  43.446   4.684
53072W        W24743  22.037  44.073  13.651
53073W        W24744  29.052  12.321  10.548
53074W        W24745  13.738   6.600   1.878
53075W        W24746  36.022   3.830   4.571
53076W        W24747  13.976  16.287  13.550
53077W        W24748  21.551  26.057  10.605
53078W        W24749  21.621  37.983   9.838
53079W        W24750  36.194  24.407   3.636
53080W        W24751   4.896  44.771  12.361
53081W        W24752  21.313   5.771   3.112
53082W        W24753  19.605  35.093  14.982
53083W        W24754  17.622  31.889  11.909
53084W        W24755   1.878  39.830  14.815
53085W        W24756  33.009  35.451  13.306
53086W        W24757   9.167  41.803  12.952
53087W        W24758  10.039  29.370  13.368
53088W        W24759  43.583   8.864   4.737
53089W        W24760  30.627  26.730  11.021
53090W        W24761  40.652  27.218  11.205
53091W        W24762   7.927   8.174   0.519
53092W        W24763  30.973  19.300   4.158
53093W        W24764  28.437  39.344   1.244
53094W        W24765  18.662  38.587  13.913
53095W        W24766  43.774  21.789  13.026
53096W        W24767   2.852   8.768   4.708
53097W        W24768  36.596  29.492  11.600
53098W        W24769  28.464  22.194  14.526
53099W        W24770  38.122  24.913  10.691
53100W        W24771  44.424  14.567  11.113
53101W        W24772  11.902  20.977  10.293
53102W        W24773  31.159  16.191  13.000
53103W        W24774  24.382  31.153  10.702
53104W        W24775  23.191  39.127   4.085
53105W        W24776   6.277   5.895  11.535
53106W        W24777  32.228   2.398  13.621
53107W        W24778  40.056  35.156  14.648
53108W        W24779  30.450   7.145   0.382
53109W        W24780  34.442   9.650   3.223
53110W        W24781  24.836  16.736   4.501
53111W        W24782  41.111  30.556   4.531
53112W        W24783   7.800   8.605  13.104
53113W        W24784   0.630  20.766   4.537
53114W        W24785   6.767  16.023  14.759
53115W        W24786  20.765  35.400   4.289
53116W        W24787   6.926  12.544   1.343
53117W        W24788   0.463  10.409   0.229
53118W        W24789  12.772  34.136  14.090
53119W        W24790  40.590  11.332   4.108
53120W        W24791  42.290  41.026  11.168
53121W        W24792  22.095  19.121  11.535
53122W        W24793   1.246  34.528   3.044
53123W        W24794  23.000  31.495   4.315
53124W        W24795  37.602  15.143   0.311
53125W        W24796  19.706   0.070   0.743
53126W        W24797  37.508  10.703   4.749
53127W        W24798  24.716  28.068  11.086
53128W        W24799  36.414   2.687  12.761
53129W        W24800   6.703  21.016  11.490
53130W        W24801  16.514  34.182  14.949
53131W        W24802  19.589  13.705  13.541
53132W        W24803  36.429  40.405   0.169
53133W        W24804  24.337   9.127  13.025
53134W        W24805  23.694   8.347   0.896
53135W        W24806  16.333  42.493   0.788
53136W        W24807   4.144  22.210   0.571
53137W        W24808  12.874  10.202   1.371
53138W        W24809  42.300  20.846  14.484
53139W        W24810  31.618  31.324   3.734
53140W        W24811  42.365  36.510  12.622
53141W        W24812   3.513  38.081  13.336
53142W        W24813  27.001  22.298   1.389
53143W        W24814  17.813  19.696  14.632
53144W        W24815  26.115  13.503  11.688
53145W        W24816  26.527  30.917   1.334
53146W        W24817  42.361  33.101  14.477
53147W        W24818   8.885   2.177  11.205
53148W        W24819  32.779  11.737   3.199
53149W        W24820  27.551  35.477   0.778
53150W        W24821  40.749  21.485   3.148
53151W        W24822  16.077  42.919   3.896
53152W        W24823  31.878   9.812   0.495
53153W        W24824   7.642  21.815  14.775
53154W        W24825  14.158  12.811  14.754
53155W        W24826   8.049  37.627  11.826
53156W        W24827  22.821  33.774   5.034
53157W        W24828  31.066  17.853   2.878
53158W        W24829   4.683  34.085  11.149
53159W        W24830  15.171   2.606   4.553
53160W        W24831  25.949  33.679  11.029
53161W        W24832  30.214  34.332  14.886
53162W        W24833  36.914  30.509   4.680
53163W        W24834  22.462  39.080   4.783
53164W        W24835  23.674  42.494   3.214
53165W        W24836  44.985  20.383  10.161
53166W        W24837  34.920  23.002  13.464
53167W        W24838  40.545   5.008   2.191
53168W        W24839   3.776  44.982   2.714
53169W        W24840   3.383  39.517  13.514
53170W        W24841   5.467   5.874  14.993
53171W        W24842   8.736   2.675  11.140
53172W        W24843  22.693  31.864  10.262
53173W        W24844   0.320   3.711   0.278
53174W        W24845  32.606  27.418  13.835
53175W        W24846   0.998  19.597  13.517
53176W        W24847  42.939  42.068  12.917
53177W        W24848  14.098  13.317  12.068
53178W        W24849  39.576  36.122  11.666
53179W        W24850  42.377  29.908   2.817
53180W        W24851  18.484  41.397  14.800
53181W        W24852  34.930  14.895   4.649
53182W        W24853  33.036  29.238  10.922
53183W        W24854  14.435   5.927   2.176
53184W        W24855  22.597  44.429   0.838
53185W        W24856  22.579   1.383   3.432
53186W        W24857  20.815   3.865  14.962
53187W        W24858  26.023  18.542   4.246
53188W        W24859  40.470  12.335  13.363
53189W        W24860   9.154   0.796   2.327
53190W        W24861   5.670   0.303  13.921
53191W        W24862  20.274  39.823  13.556
53192W        W24863  41.482  16.754  12.061
53193W        W24864  13.079  25.083  12.050
53194W        W24865  28.001  30.990  14.027
53195W        W24866  19.514  40.448   1.247
53196W        W24867  43.054  41.589  13.938
53197W        W24868   5.381  22.763   2.867
53198W        W24869  25.335  39.118   0.869
53199W        W24870  10.378  29.420   1.267
53200W        W24871   4.697  31.972   2.382
53201W        W24872  41.919  28.253  14.994
53202W        W24873  37.914   0.723  14.910
53203W        W24874  27.552  38.466  11.035
53204W        W24875  27.434  21.906  11.298
53205W        W24876  25.478  32.651   3.121
53206W        W24877  42.710  39.964  12.014
53207W        W24878   9.655  38.728  11.138
53208W        W24879  30.587  22.449  10.813
53209W        W24880  30.118  11.252   3.602
53210W        W24881  30.363  34.236  11.634
53211W        W24882   1.749  36.580   3.951
53212W        W24883  34.621   0.321  12.500
53213W        W24884  31.149  44.291   3.333
53214W        W24885   3.294  37.542   4.530
53215W        W24886  33.874  37.354  13.952
53216W        W24887  27.786  11.365   4.180
53217W        W24888  22.644  15.139   0.384
53218W        W24889   0.026  25.849   0.826
53219W        W24890   7.985   5.515   1.027
53220W        W24891  19.556   1.735  13.532
53221W        W24892   3.491  36.354   0.903
53222W        W24893  20.227  29.938  11.976
53223W        W24894  13.259  18.184  10.697
53224W        W24895  28.463  18.132  13.075
53225W        W24896   6.724  22.953  13.199
53226W        W24897   2.987  30.487  14.296
53227W        W24898   5.188  41.530  12.234
53228W        W24899  37.464  13.872   0.854
53229W        W24900  15.614  10.715  12.501
53230W        W24901  17.060   8.606   1.955
53231W        W24902  42.910  32.145  11.184
53232W        W24903  17.070   0.284  10.505
53233W        W24904  26.393  15.664   4.079
53234W        W24905  44.457  16.144   4.911
53235W        W24906  26.776  13.671  13.878
53236W        W24907  31.442  13.085   1.605
53237W        W24908  36.929  29.727  14.352
53238W        W24909  16.485  41.410   4.730
53239W        W24910  37.835   9.409   4.202
53240W        W24911  22.807  40.648   0.930
53241W        W24912   7.314  16.940   0.761
53242W        W24913  37.172  21.369   1.581
53243W        W24914  32.198   8.268  11.310
53244W        W24915   2.073  23.863   2.671
53245W        W24916   3.904  23.910   3.266
53246W        W24917  31.650  44.948  11.104
53247W        W24918  23.320  15.343   0.057
53248W        W24919   6.364  23.091  11.123
53249W        W24920   8.771  38.622   0.344
53250W        W24921   0.572  42.715   4.333
53251W        W24922  44.783  27.440  14.379
53252W        W24923  24.668   7.709  12.145
53253W        W24924  24.324  29.066   2.589
53254W        W24925  28.136  14.525   2.183
53255W        W24926  12.141   1.261   3.558
53256W        W24927  26.204  24.969  13.542
53257W        W24928  15.469  24.659   4.647
53258W        W24929   0.380  11.340  14.276
53259W        W24930   5.434  17.995  11.662
53260W        W24931  42.459  23.159  13.936
53261W        W24932   1.983  12.692  11.831
53262W        W24933   2.814  23.001  13.142
53263W        W24934   1.268  30.996   0.668
53264W        W24935  22.596  26.092   3.242
53265W        W24936  44.712  19.629  13.899
53266W        W24937  34.642  32.084  13.621
53267W        W24938  22.778  14.542  10.342
53268W        W24939  26.971   2.941  11.568
53269W        W24940  40.553  29.682   2.714
53270W        W24941  41.261  36.872  12.935
53271W        W24942  35.930  37.476   1.754
53272W        W24943  15.096   3.246   0.967
53273W        W24944  20.765  31.149   3.263
53274W        W24945  11.967  18.497   0.545
53275W        W24946  29.892  17.285  13.948
53276W        W24947  34.023  19.155  13.909
53277W        W24948  36.781  17.481  13.683
53278W        W24949  19.184  38.464  13.253
53279W        W24950  27.779  34.897   2.868
53280W        W24951   9.078   2.464   3.238
53281W        W24952  29.426  10.837   3.529
53282W        W24953  22.087  27.605   0.024
53283W        W24954  43.804   4.822   0.188
53284W        W24955   9.946   8.433  14.932
53285W        W24956  28.192   5.854   0.833
53286W        W24957  19.393  24.856  10.955
53287W        W24958  27.863   9.688  11.898
53288W        W24959   7.627   1.714  11.632
53289W        W24960  41.286  30.351   4.081
53290W        W24961   3.806  42.225   2.180
53291W        W24962  25.414   3.586   1.391
53292W        W24963  44.789  28.077  11.993
53293W        W24964  40.826  35.459   3.686
53294W        W24965  24.539   3.683  12.600
53295W        W24966   9.228  17.103  14.467
53296W        W24967  37.598  30.462   0.849
53297W        W24968  39.543  31.502   1.788
53298W        W24969  27.738   3.423  11.584
53299W        W24970  38.752   9.096   1.466
53300W        W24971  16.168  22.144   4.603
53301W        W24972  13.315  31.422   1.443
53302W        W24973  34.618   6.474   5.008
53303W        W24974  30.205   3.942   2.402
53304W        W24975   4.609  42.752   1.149
53305W        W24976  14.271  20.848   4.225
53306W        W24977  20.853   3.849   0.528
53307W        W24978  19.975  23.187  14.687
53308W        W24979  25.608   1.903   0.411
53309W        W24980  22.724  25.166  14.300
53310W        W24981  35.098  19.173   0.847
53311W        W24982  30.641  15.620   4.157
53312W        W24983   0.909  44.280  14.216
53313W        W24984  11.380   5.511   3.660
53314W        W24985  42.891  44.775   4.983
53315W        W24986  41.079   3.845   0.950
53316W        W24987  26.002  31.689  13.536
53317W        W24988  29.622  13.771  12.049
53318W        W24989  38.750  20.604  12.358
53319W        W24990   9.275  22.731   4.374
53320W        W24991  39.533  43.561   2.725
53321W        W24992   3.083  14.686  11.748
53322W        W24993  28.995   8.810  11.496
53323W        W24994  19.126   5.927  10.416
53324W        W24995  32.555  42.005   0.202
53325W        W24996  40.458  27.362   2.921
53326W        W24997  13.208  22.804   0.005
53327W        W24998  28.688  24.565   1.408
53328W        W24999   9.263  27.192  12.522
53329W        W25000  28.899  11.768  11.239
53330W        W25001  35.667   1.389   1.165
53331W        W25002  29.501  36.945  11.592
53332W        W25003  27.419   1.801   0.274
53333W        W25004  10.408  30.669  10.153
53334W        W25005  33.772  26.009   3.962
53335W        W25006  38.168  19.827   5.036
53336W        W25007  42.921  26.993  11.839
53337W        W25008  12.986  34.476  12.991
53338W        W25009  33.376   5.163   3.866
53339W        W25010  27.476  19.014   1.985
53340W        W25011  28.165   4.285   3.738
53341W        W25012  17.105  14.684  14.103
53342W        W25013   1.190  42.441  11.589
53343W        W25014   0.171  40.898  14.454
53344W        W25015  38.944  41.417  13.060
53345W        W25016  24.391  32.375   1.346
53346W        W25017   7.281  37.516   4.163
53347W        W25018  36.081  27.446  11.231
53348W        W25019  15.102  29.687  13.506
53349W        W25020  34.158   6.163  11.566
53350W        W25021  24.890  37.390   3.747
53351W        W25022  26.447  18.089   1.078
53352W        W25023  33.512  21.024  14.476
53353W        W25024  27.749  20.526   0.370
53354W        W25025  12.458  20.263   0.743
53355W        W25026  43.961  31.993   0.893
53356W        W25027   8.860  39.155   3.867
53357W        W25028  37.846  28.360   0.391
53358W        W25029  37.024  33.571  13.526
53359W        W25030   8.271   6.836   0.870
53360W        W25031  27.485  17.982   2.743
53361W        W25032  29.635  24.399  13.897
53362W        W25033  24.218  18.598   2.081
53363W        W25034  15.999  14.257   3.606
53364W        W25035  20.702  42.045  14.556
53365W        W25036  17.623  15.557  12.778
53366W        W25037  44.774  15.194   0.833
53367W        W25038  19.164  19.080  14.389
53368W        W25039  33.106  41.662  11.408
53369W        W25040  12.385  31.494  12.929
53370W        W25041   6.870   4.362  14.305
53371W        W25042  10.224  13.010  14.012
53372W        W25043  21.027  33.013  12.141
53373W        W25044  31.999  19.952   1.915
53374W        W25045  33.524  32.848   3.169
53375W        W25046  19.155  21.526   3.017
53376W        W25047  22.084   1.760  12.873
53377W        W25048  37.601  10.300  11.615
53378W        W25049  22.559  19.969   2.909
53379W        W25050  14.793  27.046   1.701
53380W        W25051  29.567   5.263   1.382
53381W        W25052  38.578  35.156   2.230
53382W        W25053   1.410  20.649  14.693
53383W        W25054  27.184   6.362   3.545
53384W        W25055  29.499  10.679   1.638
53385W        W25056  29.735   7.381   1.424
53386W        W25057   7.638  20.158  14.540
53387W        W25058   3.244   8.237  12.006
53388W        W25059  43.931  20.315  12.539
53389W        W25060  16.187  18.779   4.693
53390W        W25061  12.175  41.828   1.563
53391W        W25062  23.104  42.787   0.437
53392W        W25063  19.331  27.431   1.348
53393W        W25064  31.425  23.207   0.845
53394W        W25065  43.244  14.855  14.010
53395W        W25066  32.108  17.112   0.832
53396W        W25067   1.828  10.282  11.683
53397W        W25068   0.478  11.483  11.922
53398W        W25069  30.152  34.581   1.654
53399W        W25070   4.587  17.820   5.005
53400W        W25071   2.152   2.502   3.693
53401W        W25072   5.925   9.409  12.447
53402W        W25073  13.779  29.220   0.804
53403W        W25074  30.009  28.229   1.075
53404W        W25075  34.210  43.774  13.136
53405W        W25076   6.346   3.375  14.027
53406W        W25077  22.568  32.617  11.625
53407W        W25078  41.958  34.056   4.233
53408W        W25079  28.448  10.292   1.631
53409W        W25080  30.467  20.813   3.803
53410W        W25081  26.314   9.436  10.758
53411W        W25082  35.699  20.105   2.232
53412W        W25083   1.554  10.848  12.516
53413W        W25084  32.574  39.506   2.192
53414W        W25085  18.361   6.683   1.820
53415W        W25086   2.579  23.079  10.325
53416W        W25087   5.688   5.783   1.321
53417W        W25088  23.202  33.783   3.156
53418W        W25089  37.731  29.127   2.269
53419W        W25090  22.656  38.309   5.116
53420W        W25091  11.361  44.661  14.899
53421W        W25092   9.757  12.588  13.313
53422W        W25093  10.954  42.405   1.571
53423W        W25094  31.466  38.008   0.502
53424W        W25095  11.411  43.928  13.519
53425W        W25096   6.463  40.842   3.715
53426W        W25097  41.595  38.957  11.597
53427W        W25098  11.196  19.114   4.185
53428W        W25099  35.808   4.677   4.118
53429W        W25100  10.075  13.453  11.456
53430W        W25101  28.359  22.500  10.638
53431W        W25102  44.393  11.085   2.126
53432W        W25103  18.795  18.020   9.913
53433W        W25104  43.792  17.501   1.195
53434W        W25105  15.817   1.033  12.224
53435W        W25106  13.292  15.252   4.711
53436W        W25107  44.392  11.577   2.250
53437W        W25108  30.504  35.078  14.256
53438W        W25109   8.267   9.607  13.973
53439W        W25110  26.214  35.276   0.297
53440W        W25111   5.955  36.040   0.849
53441W        W25112  38.504  12.416  12.255
53442W        W25113  35.146  14.840   0.874
53443W        W25114  27.153   4.365   0.280
53444W        W25115  36.545   2.813  13.917
53445W        W25116  44.467  10.170   5.156
53446W        W25117   9.805   3.821  11.122
53447W        W25118   6.857   8.177   2.851
53448W        W25119  11.388   5.106   4.560
53449W        W25120   6.890   9.377   0.974
53450W        W25121   5.332  22.288   2.659
53451W        W25122  22.858   4.181  13.537
53452W        W25123   2.219  34.597   2.120
53453W        W25124  23.210  43.895  13.895
53454W        W25125   7.304  13.744   4.500
53455W        W25126  43.973  15.386   1.367
53456W        W25127   0.203  12.358  13.083
53457W        W25128   2.034  28.664   4.172
53458W        W25129   6.336   9.317  14.792
53459W        W25130   7.183  37.296   3.721
53460W        W25131  17.610  32.410  12.737
53461W        W25132  18.335   3.752  14.898
53462W        W25133  11.418  27.581  11.270
53463W        W25134  10.533  41.644  12.813
53464W        W25135   9.807  14.563   4.348
53465W        W25136  34.324  37.898   2.278
53466W        W25137  30.174  13.028   3.332
53467W        W25138  30.080   0.075  13.851
53468W        W25139  15.132  37.405  14.323
53469W        W25140  27.718  20.042   0.731
53470W        W25141  30.549  34.627   4.649
53471W        W25142  32.766  23.384   2.796
53472W        W25143   3.957   0.732  11.924
53473W        W25144  40.337  13.401   1.277
53474W        W25145   1.381  38.514  11.423
53475W        W25146  14.260  19.810  11.158
53476W        W25147   7.868   3.707  11.097
53477W        W25148  40.257  43.941   4.331
53478W        W25149  36.073  22.472  11.256
53479W        W25150  24.328  34.441   4.196
53480W        W25151  14.539  18.827   3.839
53481W        W25152  18.766   6.800  13.518
53482W        W25153  39.889   4.516   3.252
53483W        W25154  26.893  36.137  14.082
53484W        W25155  24.511  26.996   1.510
53485W        W25156  13.620   5.713  11.516
53486W        W25157  36.355  36.486   2.714
53487W        W25158  27.441  15.251  11.240
53488W        W25159   1.049  28.464  12.888
53489W        W25160  13.357   6.661  14.446
53490W        W25161  19.525  25.875   0.591
53491W        W25162  14.474  23.185   1.789
53492W        W25163  28.061  44.119   0.079
53493W        W25164  35.394  18.015   1.805
53494W        W25165   0.528  42.260  11.008
53495W        W25166  39.074  23.687   2.132
53496W        W25167  11.894   2.065   0.999
53497W        W25168   7.845  28.129  14.459
53498W        W25169  39.851   5.165  11.096
53499W        W25170   0.230  27.113   1.128
53500W        W25171   0.933  34.238  11.211
53501W        W25172  12.661  27.848   2.905
53502W        W25173  34.041  12.403  12.578
53503W        W25174  22.629  35.642  10.744
53504W        W25175   0.245  22.967   5.416
53505W        W25176  29.491  12.505   4.278
53506W        W25177  31.968  24.297  13.840
53507W        W25178   8.807  34.673  12.126
53508W        W25179  16.267  25.166  12.884
53509W        W25180  40.450  19.686   0.226
53510W        W25181  28.144  16.586  13.070
53511W        W25182  18.703  31.567   4.390
53512W        W25183   6.088  15.279  11.207
53513W        W25184  16.608  24.176   1.651
53514W        W25185  15.753  39.002   4.969
53515W        W25186  40.445  22.576   4.308
53516W        W25187   1.556  43.914   0.750
53517W        W25188  37.010  38.529  11.852
53518W        W25189  32.283  33.639  14.077
53519W        W25190  33.858  12.854  11.838
53520W        W25191  43.876   1.013  13.600
53521W        W25192   3.119  31.595  11.015
53522W        W25193  43.359  18.631   1.095
53523W        W25194  14.802  44.229  14.253
53524W        W25195  44.116  35.134  14.784
53525W        W25196  44.223  23.146   3.775
53526W        W25197  41.349  17.097   3.138
53527W        W25198  28.786  35.422  12.529
53528W        W25199  21.685  41.637   4.661
53529W        W25200   0.369   3.461   1.945
53530W        W25201  39.579  11.782   3.269
53531W        W25202  41.329  17.797   2.628
53532W        W25203   8.923  38.092   2.705
53533W        W25204  41.430  35.310  12.892
53534W        W25205  41.306  23.621   2.861
53535W        W25206  34.581  20.493   0.764
53536W        W25207  23.228  33.004  11.697
53537W        W25208  36.536  35.731  10.692
53538W        W25209   7.382  32.659   4.646
53539W        W25210  29.047  10.773  14.005
53540W        W25211  27.475  15.255   4.596
53541W        W25212  13.410   7.116  10.241
53542W        W25213  26.113  37.809  11.175
53543W        W25214   4.809  39.892  11.991
53544W        W25215  35.538   8.972   3.676
53545W        W25216  24.228  28.474   0.522
53546W        W25217  12.171   7.357   4.431
53547W        W25218  19.348  14.123   4.121
53548W        W25219  37.558   1.830   2.437
53549W        W25220  33.460   4.764   4.709
53550W        W25221   5.482  32.751  14.787
53551W        W25222  41.326  43.488  13.634
53552W        W25223  22.654  15.228   4.759
53553W        W25224  12.707  28.372   2.843
53554W        W25225  24.075  23.204  10.555
53555W        W25226  20.305   9.312  12.413
53556W        W25227  44.802  33.665   3.929
53557W        W25228  15.431   3.693   4.580
53558W        W25229  44.084  24.057  13.869
53559W        W25230  19.665   7.316   1.981
53560W        W25231  12.425  26.106   1.293
53561W        W25232  43.063  21.245  10.228
53562W        W25233  28.000  42.091  12.976
53563W        W25234  33.466   3.246   2.212
53564W        W25235  16.725  12.627   1.866
53565W        W25236  20.705  32.676   1.737
53566W        W25237   5.424  16.271  13.871
53567W        W25238  42.768  34.105  14.259
53568W        W25239  10.661  20.142   1.268
53569W        W25240  25.192   3.594   0.918
53570W        W25241   9.134  28.520   4.929
53571W        W25242   5.776  32.659   4.624
53572W        W25243  17.743  38.045  13.547
53573W        W25244   5.811  16.975   3.557
53574W        W25245  43.468  36.899   4.139
53575W        W25246  20.027  14.864   3.220
53576W        W25247  26.702  37.840  14.859
53577W        W25248  24.542   9.427  14.348
53578W        W25249  32.513  34.082   3.238
53579W        W25250  32.184  39.897   3.193
53580W        W25251  31.533  16.541  12.393
53581W        W25252  34.096  14.328  14.547
53582W        W25253  12.638  25.297   3.936
53583W        W25254  17.637  20.177  13.929
53584W        W25255  10.395  21.251  14.916
53585W        W25256  37.006  28.462   0.665
53586W        W25257  24.154  22.595  10.699
53587W        W25258  12.811  44.941   0.035
53588W        W25259  22.525   8.173  14.276
53589W        W25260  43.593  31.881  12.739
53590W        W25261  32.284  23.029  13.352
53591W        W25262  16.648   6.759   1.312
53592W        W25263  15.855  34.083   4.223
53593W        W25264  38.771   6.441   1.699
53594W        W25265  44.902   8.457  13.865
53595W        W25266  14.371  21.143  11.643
53596W        W25267  38.898   1.991  11.254
53597W        W25268   3.444  29.673   1.959
53598W        W25269  41.971  26.661  12.680
53599W        W25270  34.046  18.561   4.099
53600W        W25271  29.685   8.769   2.373
53601W        W25272  36.823  32.854   1.832
53602W        W25273   7.234  30.428   4.578
53603W        W25274  31.934  16.257  12.568
53604W        W25275  25.832  22.657   5.009
53605W        W25276   1.907  20.273   5.375
53606W        W25277  35.373   2.043  13.966
53607W        W25278   6.930  28.094   2.282
53608W        W25279   2.787  21.560   4.670
53609W        W25280  33.848  30.989  10.707
53610W        W25281  39.576  17.442   2.259
53611W        W25282  18.102  32.359   1.263
53612W        W25283  31.739  32.552   0.851
53613W        W25284  31.431  26.955  14.488
53614W        W25285   7.802  30.412   3.715
53615W        W25286  21.938  41.884   4.136
53616W        W25287   4.848  34.507  14.185
53617W        W25288  30.376   5.812   1.661
53618W        W25289  25.527  20.831   2.777
53619W        W25290   7.123   7.874  12.956
53620W        W25291   2.544  12.155   5.028
53621W        W25292  35.487  41.896  10.655
53622W        W25293  13.625  34.659  11.078
53623W        W25294  15.395  36.342   1.762
53624W        W25295  43.271   9.459   3.400
53625W        W25296  32.549   8.384   2.908
53626W        W25297   4.764  27.503   3.351
53627W        W25298  10.671  14.092  13.847
53628W        W25299  44.963  29.566  11.446
53629W        W25300  33.685  35.001   2.312
53630W        W25301  18.418   4.206  12.371
53631W        W25302  28.034  11.735   5.152
53632W        W25303  24.879   3.680  11.753
53633W        W25304  37.586  35.329   1.702
53634W        W25305   4.995   4.252   1.756
53635W        W25306  21.175  40.144   4.348
53636W        W25307  32.048  41.470  10.321
53637W        W25308   4.856  25.992   2.320
53638W        W25309   7.916  39.337   0.350
53639W        W25310  21.254  26.620  11.194
53640W        W25311  23.469  20.118   4.558
53641W        W25312  38.931  21.943  13.875
53642W        W25313  32.370  24.500  10.779
53643W        W25314  22.205  21.944  14.858
53644W        W25315  16.961  41.115   0.719
53645W        W25316  20.199  34.519   3.856
53646W        W25317  23.999  35.120   3.622
53647W        W25318  38.837  12.031   3.680
53648W        W25319  10.787  34.466  10.478
53649W        W25320  38.324  10.547  13.888
53650W        W25321  17.244  23.028  12.464
53651W        W25322   7.049  31.676  11.205
53652W        W25323  26.565  25.633  14.294
53653W        W25324  37.364  17.830   0.371
53654W        W25325  19.937  24.115  13.908
53655W        W25326  18.658  38.446   3.674
53656W        W25327  36.336  35.251  10.763
53657W        W25328  42.806  19.943   4.207
53658W        W25329  33.603  26.493   3.858
53659W        W25330  30.158  42.024  11.689
53660W        W25331  44.759  41.736   0.306
53661W        W25332  42.961  27.586   1.911
53662W        W25333  29.389  27.121  11.086
53663W        W25334  26.706  32.262   4.260
53664W        W25335  43.982  16.195   0.199
53665W        W25336  21.162   3.646   3.380
53666W        W25337  33.450  40.886  12.810
53667W        W25338  42.020   3.442  12.767
53668W        W25339  31.419   8.409   1.907
53669W        W25340  23.738  10.958  11.482
53670W        W25341  32.946  17.222   0.974
53671W        W25342  23.586  41.243  10.894
53672W        W25343  31.749  20.742  10.828
53673W        W25344  28.416   5.613  13.138
53674W        W25345  43.184  35.916  12.449
53675W        W25346  31.714  43.667  11.095
53676W        W25347  16.682   2.540  10.658
53677W        W25348   1.673  25.543  11.723
53678W        W25349  28.623  30.240  10.341
53679W        W25350  22.622  29.081   2.697
53680W        W25351  21.989  25.172   3.707
53681W        W25352  17.103  11.007   4.426
53682W        W25353   9.140   9.133  13.836
53683W        W25354  17.889  44.657   4.535
53684W        W25355  41.649  38.135  14.822
53685W        W25356  13.958   5.215   1.769
53686W        W25357  41.762   2.681  12.712
53687W        W25358  42.889  19.858  11.307
53688W        W25359  43.422  33.174  14.843
53689W        W25360  16.113   3.472  14.587
53690W        W25361  41.570  24.948  12.544
53691W        W25362   5.984  42.747   4.769
53692W        W25363   4.411  44.844  14.280
53693W        W25364  16.581  42.764  14.938
53694W        W25365   9.182  44.928  10.585
53695W        W25366  42.210  22.109  10.582
53696W        W25367  31.588   1.480   4.360
53697W        W25368   1.279  38.209   3.272
53698W        W25369  21.047   5.554   2.241
53699W        W25370  16.695  22.196   4.579
53700W        W25371  12.992  43.499  11.145
53701W        W25372  42.948   8.426  13.336
53702W        W25373   7.940   8.560   3.269
53703W        W25374  25.544  22.204  13.993
53704W        W25375  11.381  26.742   4.355
53705W        W25376  37.048   2.652   4.774
53706W        W25377  11.600  44.469   1.215
53707W        W25378  34.657   6.771   0.753
53708W        W25379   0.393  23.733   0.392
53709W        W25380  41.373  19.737  11.942
53710W        W25381  38.817  16.167   3.349
53711W        W25382  18.525  12.195  14.243
53712W        W25383   5.007  14.583   2.326
53713W        W25384  30.631  32.410  11.627
53714W        W25385  23.084  26.068   1.006
53715W        W25386   3.309  16.523  12.527
53716W        W25387   5.720   6.187  13.886
53717W        W25388  37.521  37.309   0.943
53718W        W25389  22.022  34.026   4.814
53719W        W25390  35.778  32.607  10.645
53720W        W25391  29.083   1.533   4.136
53721W        W25392   4.183  38.809  11.620
53722W        W25393  42.368  44.377   4.164
53723W        W25394  34.574  39.078   5.159
53724W        W25395  28.093  31.853   4.275
53725W        W25396  33.440  36.126   4.693
53726W        W25397   2.281  24.485  13.528
53727W        W25398  37.519  35.425   3.428
53728W        W25399   6.203   0.335   1.268
53729W        W25400   7.213  43.323  10.714
53730W        W25401   9.626  44.783   2.273
53731W        W25402  39.853   0.503   2.340
53732W        W25403  24.473  37.329   3.394
53733W        W25404  36.512  31.164  14.959
53734W        W25405  34.959  19.382   4.962
53735W        W25406   8.663  28.150   0.787
53736W        W25407  29.823  29.656   4.617
53737W        W25408  42.086  25.438  13.089
53738W        W25409  38.827   7.667   1.597
53739W        W25410  17.761   0.719   1.302
53740W        W25411  42.977   2.023  12.001
53741W        W25412  25.561  12.420   4.153
53742W        W25413  21.695   1.342   3.451
53743W        W25414  19.299  33.161   3.421
53744W        W25415  28.497  25.719  14.303
53745W        W25416  26.259   4.145   0.292
53746W        W25417  13.316  37.526   1.694
53747W        W25418  35.277  11.223   0.028
53748W        W25419  36.891  11.121   3.658
53749W        W25420  23.414  42.767  14.092
53750W        W25421  26.581  43.718   1.000
53751W        W25422  38.912  35.645  13.497
53752W        W25423  18.717   4.880  12.091
53753W        W25424  37.589  16.753  10.998
53754W        W25425  40.521  26.107   0.761
53755W        W25426  26.376   7.815   0.187
53756W        W25427  21.189  15.658  13.730
53757W        W25428  44.751  39.420   9.919
53758W        W25429  36.242  10.216  13.913
53759W        W25430   1.796  13.039  13.869
53760W        W25431  37.277   0.434  11.595
53761W        W25432  25.244  33.101   3.866
53762W        W25433  16.472  32.054   0.472
53763W        W25434   4.552  43.430  14.420
53764W        W25435  41.437  35.825  12.900
53765W        W25436   5.458  34.144  12.616
53766W        W25437  25.859   4.206   0.622
53767W        W25438  33.998   6.655  10.722
53768W        W25439  14.615  23.974   4.855
53769W        W25440  20.949   1.247   3.658
53770W        W25441   0.484   7.824   3.278
53771W        W25442  15.112  13.093  11.081
53772W        W25443  23.182  12.202   3.066
53773W        W25444  40.342  17.782  12.679
53774W        W25445  17.114  23.647   1.417
53775W        W25446  36.102  15.424  12.988
53776W        W25447  25.143  12.325  14.462
53777W        W25448  19.314   0.530   0.377
53778W        W25449  35.657  20.978  14.339
53779W        W25450  27.174  11.729   4.170
53780W        W25451  20.888   1.798  12.083
53781W        W25452   7.136   6.710  14.785
53782W        W25453  25.492  36.250  10.675
53783W        W25454   2.555  25.291  12.522
53784W        W25455  25.022  24.014  14.341
53785W        W25456   7.267  13.444  13.144
53786W        W25457  32.376  14.491   0.116
53787W        W25458  42.262   8.578   0.721
53788W        W25459  33.418   2.635   0.918
53789W        W25460  32.604  40.014  14.912
53790W        W25461   6.721  20.651  12.438
53791W        W25462  39.896  10.743  12.333
53792W        W25463  23.504   5.818  10.790
53793W        W25464  16.686  22.506  13.871
53794W        W25465  30.177  42.359   3.945
53795W        W25466   8.364  41.778   0.807
53796W        W25467  16.338  35.615  13.998
53797W        W25468  31.032  22.627   4.405
53798W        W25469  26.992  23.993  13.616
53799W        W25470  38.409   4.834  12.084
53800W        W25471  16.655  24.038  10.581
53801W        W25472  10.725  44.308  10.662
53802W        W25473  15.176  30.033  11.744
53803W        W25474   3.928  15.537   0.435
53804W        W25475  27.603  18.631   0.773
53805W        W25476   9.170   9.445  13.392
53806W        W25477   5.420  27.720  13.978
53807W        W25478   1.384  41.298   1.790
53808W        W25479   3.513  24.617   1.738
53809W        W25480  39.746   5.353   2.266
53810W        W25481  10.708   4.666   4.221
53811W        W25482  39.245  43.685   3.157
53812W        W25483   1.278  23.222   9.835
53813W        W25484  44.975   1.156  12.016
53814W        W25485  26.418  15.535   1.751
53815W        W25486  20.345  15.137  13.371
53816W        W25487  36.545   3.190   3.260
53817W        W25488  41.930   2.046  10.677
53818W        W25489  27.670  13.746   4.408
53819W        W25490  35.785  42.646  11.092
53820W        W25491  17.275   1.004  13.878
53821W        W25492   9.763  18.600  14.377
53822W        W25493  19.954  28.166  14.886
53823W        W25494  11.352  41.228   3.185
53824W        W25495  42.582  29.641   3.722
53825W        W25496  26.453   5.602  14.390
53826W        W25497  28.019  42.361   9.987
53827W        W25498  41.426   9.503   4.146
53828W        W25499  13.811  27.653  10.703
53829W        W25500  12.450  44.408   2.169
53830W        W25501  20.369  33.559  12.070
53831W        W25502   4.246  23.401   0.963
53832W        W25503  21.223  11.302  11.641
53833W        W25504  41.810  12.758  12.682
53834W        W25505  20.704  15.951  12.057
53835W        W25506  36.792   7.809   0.633
53836W        W25507  34.975  23.986  12.095
53837W        W25508   4.807  19.134  13.611
53838W        W25509  26.897   7.166  10.475
53839W        W25510  29.104  19.538  12.603
53840W        W25511  20.518  13.850   1.405
53841W        W25512  15.557  39.741  10.678
53842W        W25513  22.531  37.219   3.807
53843W        W25514   0.754   8.715   0.804
53844W        W25515   0.400  38.468   3.595
53845W        W25516  25.092  22.130   2.892
53846W        W25517   0.955   1.015   3.818
53847W        W25518   7.277  12.084   3.292
53848W        W25519   6.405  39.032  14.928
53849W        W25520  15.085  36.088  12.361
53850W        W25521   0.724   7.133  13.393
53851W        W25522   4.489  29.166   2.755
53852W        W25523  36.430  10.411  10.768
53853W        W25524  44.023  20.282   2.968
53854W        W25525  14.184  33.376   0.384
53855W        W25526   1.974  18.791   4.547
53856W        W25527   6.907   9.090   0.517
53857W        W25528  39.660  34.492  11.988
53858W        W25529  18.578  21.667  13.817
53859W        W25530   3.676   6.993  11.624
53860W        W25531  17.692  25.090  13.965
53861W        W25532   7.763  29.328  11.642
53862W        W25533  26.444  15.149   0.427
53863W        W25534  36.590  38.083  13.573
53864W        W25535   1.356  13.054   1.573
53865W        W25536  35.034  26.058  12.455
53866W        W25537  15.630   0.492   3.941
53867W        W25538  42.109  13.286  11.514
53868W        W25539  30.536  23.093   3.186
53869W        W25540  41.003  44.471  14.925
53870W        W25541   7.464  25.436   1.279
53871W        W25542  37.754  41.284   0.572
53872W        W25543  44.725  15.751  11.026
53873W        W25544   8.592  43.969  11.173
53874W        W25545  28.222  21.206  14.703
53875W        W25546  20.042   3.614   0.720
53876W        W25547  31.713  39.997  10.707
53877W        W25548  29.138   2.038   4.261
53878W        W25549  24.516  15.210  12.516
53879W        W25550  31.841  20.618  11.912
53880W        W25551  38.580   4.818  14.762
53881W        W25552  41.039  12.763   3.623
53882W        W25553  38.931  23.328   3.348
53883W        W25554  35.961  14.893   0.262
53884W        W25555  12.213   6.922   4.104
53885W        W25556  37.311  33.111   4.541
53886W        W25557   0.326  23.654  14.225
53887W        W25558   5.788   9.618   1.625
53888W        W25559  22.714  40.459   1.911
53889W        W25560  33.801  17.131   5.160
53890W        W25561  14.284  35.596  13.287
53891W        W25562  21.285  30.438   2.417
53892W        W25563   2.500  29.034  12.347
53893W        W25564  15.349  10.400   4.532
53894W        W25565  28.106  38.094   3.244
53895W        W25566  17.991  33.485  11.368
53896W        W25567  35.042  43.971  13.755
53897W        W25568  10.769   3.863   3.703
53898W        W25569  28.079  17.335  13.525
53899W        W25570   9.106  14.223   3.148
53900W        W25571   4.120  30.329   0.928
53901W        W25572  22.243   0.311  13.225
53902W        W25573  43.261  31.335   0.074
53903W        W25574  35.573   0.952   4.137
53904W        W25575   6.982  13.106  13.412
53905W        W25576  35.096  25.213  12.275
53906W        W25577   3.434  15.523  12.385
53907W        W25578   1.803  31.439   1.132
53908W        W25579  26.550  33.830  14.538
53909W        W25580  19.527   7.436   0.366
53910W        W25581  13.185  33.368  13.998
53911W        W25582  33.188   2.760   3.018
53912W        W25583  36.129  36.120   1.514
53913W        W25584   1.975  13.066  11.429
53914W        W25585  36.085  12.351  11.162
53915W        W25586  19.060  20.848  13.627
53916W        W25587  23.730  17.204  11.111
53917W        W25588  14.557  26.762   4.907
53918W        W25589  29.114   3.242   2.713
53919W        W25590  28.735   7.395  12.033
53920W        W25591  43.837   2.484   2.767
53921W        W25592  23.269  20.313   2.247
53922W        W25593  21.065  30.930   4.591
53923W        W25594  33.956  13.176   2.148
53924W        W25595  27.210  31.981  14.300
53925W        W25596  23.071  13.194  14.367
53926W        W25597  39.138  30.010  11.206
53927W        W25598   2.820   0.906  13.275
53928W        W25599  35.641  19.083  11.047
53929W        W25600  32.604  11.572   2.387
53930W        W25601   9.804   3.991   2.137
53931W        W25602  12.318   1.788  13.282
53932W        W25603  26.558  30.905  13.319
53933W        W25604  42.033  14.824   1.318
53934W        W25605  44.500  12.526   3.116
53935W        W25606  29.185  43.222  13.321
53936W        W25607  44.013  12.315  14.610
53937W        W25608  26.816  28.118  13.459
53938W        W25609  28.664  24.065  14.014
53939W        W25610   5.756  32.405  13.041
53940W        W25611  12.661   0.849  13.538
53941W        W25612  35.367  18.769   2.179
53942W        W25613  26.534  20.036  11.156
53943W        W25614   5.796  22.425  12.904
53944W        W25615  31.586   7.246  14.691
53945W        W25616  34.812  43.484   4.141
53946W        W25617   7.936  23.099  14.751
53947W        W25618   4.434  33.567  14.439
53948W        W25619  25.017  39.786  11.955
53949W        W25620  36.449  44.251   2.231
53950W        W25621  39.577  11.831  13.847
53951W        W25622  12.563  11.239   1.432
53952W        W25623  11.816  44.741   3.242
53953W        W25624  18.832  37.118  12.948
53954W        W25625   6.771  36.364   1.062
53955W        W25626  26.094  34.878   2.771
53956W        W25627   5.874  13.842  14.762
53957W        W25628  31.253  25.922  14.099
53958W        W25629  20.150   0.211  14.488
53959W        W25630  43.374  11.337   2.292
53960W        W25631  31.144  33.190  11.229
53961W        W25632  31.080  29.639   5.147
53962W        W25633   7.798  22.169   0.865
53963W        W25634  36.434   6.518  14.387
53964W        W25635  37.771   8.473   4.655
53965W        W25636  19.198  37.402   0.630
53966W        W25637  36.585   8.643  12.531
53967W        W25638  38.445   4.948   0.238
53968W        W25639  22.106  22.544   4.209
53969W        W25640  33.936  18.092   4.312
53970W        W25641   4.165   0.874   4.259
53971W        W25642  18.087   0.755   0.226
53972W        W25643   0.255  32.865  11.186
53973W        W25644  17.332  38.029  12.195
53974W        W25645  14.079   2.272   0.486
53975W        W25646   3.239  38.844  13.919
53976W        W25647  40.657   3.323  12.983
53977W        W25648   7.449   4.941  14.029
53978W        W25649  33.934   9.877  11.889
53979W        W25650  29.528  37.398   4.037
53980W        W25651   1.298  15.691   0.978
53981W        W25652  12.592   2.745   3.240
53982W        W25653   2.893  24.659   2.407
53983W        W25654  33.861  21.955   2.652
53984W        W25655  13.222  12.437  13.401
53985W        W25656  10.775  35.549  13.372
53986W        W25657  44.544   6.187  13.840
53987W        W25658  11.701  14.650  14.831
53988W        W25659  29.240   8.773   0.769
53989W        W25660  22.681  18.246   3.155
53990W        W25661  35.514  13.340   3.876
53991W        W25662   9.859  42.358   2.578
53992W        W25663  31.507  16.788   0.222
53993W        W25664  39.061  19.478  11.469
53994W        W25665  27.153  29.698   2.718
53995W        W25666  19.868  22.109  13.660
53996W        W25667   1.154  19.610   1.415
53997W        W25668  37.551   4.050  11.555
53998W        W25669  21.139  18.236   2.939
53999W        W25670   7.960   6.438   4.010
54000W        W25671  12.196  15.106  14.335
54001W        W25672  32.124   8.400   1.279
54002W        W25673  35.859   7.046  12.076
54003W        W25674  29.213  13.023  14.686
54004W        W25675  33.367  23.173   3.408
54005W        W25676  28.978  15.958   5.066
54006W        W25677  28.967   5.971   4.261
54007W        W25678  16.936   6.264  12.894
54008W        W25679   6.794   5.915  11.441
54009W        W25680  41.261  43.334   3.236
54010W        W25681  34.669  33.868   0.261
54011W        W25682   1.930   1.683   0.394
54012W        W25683  14.673  34.043   4.978
54013W        W25684  28.706  27.704   4.687
54014W        W25685  11.783  27.914   2.650
54015W        W25686  20.189  16.083   1.303
54016W        W25687   3.449  34.900   4.839
54017W        W25688  42.535  20.844  13.594
54018W        W25689  38.039   5.763  11.942
54019W        W25690   0.016   9.470   4.589
54020W        W25691  30.410   8.532  14.801
54021W        W25692  20.621   4.345   0.773
54022W        W25693  14.550  34.826  12.771
54023W        W25694  13.727  27.805   4.531
54024W        W25695  10.069   3.869  11.576
54025W        W25696  38.878  36.221   5.217
54026W        W25697  11.866  40.313   0.515
54027W        W25698  32.548   3.502  11.833
54028W        W25699  34.441  15.244   3.569
54029W        W25700  14.825  22.786  13.378
54030W        W25701  23.357   9.229   0.027
54031W        W25702  30.209  17.062   0.296
54032W        W25703  44.871  23.458  13.964
54033W        W25704  24.845  17.010  11.653
54034W        W25705  36.259  38.313   0.803
54035W        W25706   1.450  15.089   1.636
54036W        W25707  21.417  29.643   2.717
54037W        W25708  38.400  31.107   4.109
54038W        W25709  32.401  26.670   3.228
54039W        W25710   1.097  12.836   3.398
54040W        W25711  30.481  16.537  12.411
54041W        W25712  35.533  21.507  10.671
54042W        W25713  19.553  11.311  10.186
54043W        W25714  38.090  35.783   2.226
54044W        W25715  26.500  35.873   3.708
54045W        W25716  33.974  22.771   1.426
54046W        W25717  26.051  25.304   3.183
54047W        W25718   2.947  15.008  13.916
54048W        W25719   7.314   1.334  11.554
54049W        W25720   1.885  11.751   4.566
54050W        W25721  34.945  18.983  14.396
54051W        W25722  10.799  29.465   1.979
54052W        W25723   0.876  22.729  10.145
54053W        W25724  18.302  25.963  12.914
54054W        W25725  36.917  33.871   4.386
54055W        W25726  33.952  41.192  12.079
54056W        W25727  22.495  29.249  10.362
54057W        W25728  31.142  42.388  12.096
54058W        W25729  23.202  42.492   0.853
54059W        W25730   6.644  26.773   1.799
54060W        W25731  34.169  39.000  11.087
54061W        W25732  23.956   1.286   0.896
54062W        W25733  21.519  11.292   3.854
54063W        W25734   7.280  39.548  14.369
54064W        W25735  43.004  25.107   0.775
54065W        W25736  24.073  10.571  11.243
54066W        W25737  42.573  32.614  14.388
54067W        W25738  44.147  19.612   1.513
54068W        W25739  16.821  36.316  11.133
54069W        W25740   4.424   1.225   0.866
54070W        W25741  15.590  30.439   4.852
54071W        W25742   2.769  18.047   0.939
54072W        W25743  37.818  30.421  12.458
54073W        W25744   7.813  25.989  11.185
54074W        W25745   9.594  23.600   4.909
54075W        W25746   4.141  31.112   2.082
54076W        W25747   9.614  34.075  11.039
54077W        W25748  24.652  44.492   3.854
54078W        W25749  39.434  37.810  11.990
54079W        W25750  34.595  39.001   3.230
54080W        W25751  17.117  22.697  11.883
54081W        W25752  32.424  32.003  12.262
54082W        W25753  14.201  40.899  10.465
54083W        W25754   9.745  41.555  11.630
54084W        W25755  19.396  20.620  11.711
54085W        W25756  18.626  18.652  14.727
54086W        W25757  39.643   3.901   2.018
54087W        W25758  22.219   5.234   4.252
54088W        W25759  18.374  43.874  12.983
54089W        W25760  27.177  10.785  12.865
54090W        W25761  17.575  15.650   1.075
54091W        W25762  42.965   6.004   2.458
54092W        W25763   4.074  28.633   4.557
54093W        W25764  38.755  44.418  14.460
54094W        W25765  21.712  24.484  11.048
54095W        W25766  14.832  10.894  13.897
54096W        W25767  34.381  23.589  12.866
54097W        W25768  18.600  33.699  14.430
54098W        W25769  30.814  43.241  14.437
54099W        W25770  21.756  11.809  11.940
54100W        W25771  42.017  23.524   3.299
54101W        W25772   7.282  27.575  11.425
54102W        W25773  29.929   5.148  14.415
54103W        W25774  43.556  27.530  12.073
54104W        W25775  15.272  29.505  12.994
54105W        W25776  31.594  37.274   3.116
54106W        W25777   7.516  39.956  14.124
54107W        W25778  14.657  28.435  12.619
54108W        W25779  37.974  36.109   4.356
54109W        W25780  10.285   6.775  14.656
54110W        W25781   9.158   6.479   3.364
54111W        W25782   2.233  23.506  13.283
54112W        W25783  19.321  31.684  11.484
54113W        W25784  44.885  28.021   1.261
54114W        W25785  38.572  43.291   1.863
54115W        W25786  34.942  29.187  13.477
54116W        W25787  32.322  30.161   0.729
54117W        W25788  40.094  13.333  12.157
54118W        W25789  38.131  23.989  14.763
54119W        W25790  29.124  37.097  12.549
54120W        W25791   8.897  20.991  14.840
54121W        W25792   6.604  16.201  14.285
54122W        W25793  42.882  32.109   3.687
54123W        W25794  31.757  36.819   1.401
54124W        W25795  11.906  21.654   4.326
54125W        W25796   6.199  31.828   4.473
54126W        W25797  36.515  35.461  12.121
54127W        W25798  41.356  43.944  12.176
54128W        W25799  11.559  30.110   1.825
54129W        W25800  37.439  29.140  10.350
54130W        W25801   2.655  16.808   4.158
54131W        W25802   8.316  30.500  11.989
54132W        W25803  33.781  19.651  11.151
54133W        W25804  16.729  11.798   1.330
54134W        W25805  43.801  43.754  13.483
54135W        W25806  39.100   6.128  12.806
54136W        W25807  34.225  37.094  10.989
54137W        W25808  26.593  15.026  13.083
54138W        W25809  17.181  20.785  10.624
54139W        W25810  32.071  34.682   2.762
54140W        W25811  20.461  11.190  13.883
54141W        W25812  44.901  11.376  13.006
54142W        W25813  33.312  23.557  12.113
54143W        W25814   9.761   0.452   4.609
54144W        W25815  36.611  44.295   2.722
54145W        W25816  22.708  18.151   1.009
54146W        W25817   3.922  33.391   0.704
54147W        W25818  12.790  17.601   3.471
54148W        W25819  38.763  43.856   4.606
54149W        W25820  18.284  19.151   3.582
54150W        W25821  38.028   0.210  13.360
54151W        W25822   7.441  33.775  13.784
54152W        W25823   9.212  24.061   9.919
54153W        W25824   7.686   7.990   1.359
54154W        W25825  13.852  13.347  14.294
54155W        W25826  25.734  37.876  10.822
54156W        W25827  28.028  19.165  11.596
54157W        W25828   6.221  42.880   1.201
54158W        W25829   3.859  42.735   3.637
54159W        W25830  26.920   9.348   2.188
54160W        W25831   9.115  22.233   3.173
54161W        W25832  11.862   7.866  11.600
54162W        W25833  19.771  43.955  11.831
54163W        W25834   9.860  16.376  10.497
54164W        W25835  28.178  21.489  11.486
54165W        W25836  10.805  29.331  12.102
54166W        W25837  31.162   7.812   0.298
54167W        W25838  38.737  14.279   3.310
54168W        W25839  26.219   5.491  12.439
54169W        W25840  29.629  11.294  13.394
54170W        W25841  39.115  35.201   5.217
54171W        W25842  21.242   1.534   1.068
54172W        W25843  31.410  20.330  13.952
54173W        W25844   0.796  27.330   4.656
54174W        W25845   8.091  33.122   0.723
54175W        W25846  26.517  39.809   1.734
54176W        W25847  15.635  17.108   2.037
54177W        W25848  15.685  28.634  14.737
54178W        W25849   3.292  27.524   4.670
54179W        W25850  12.952  12.829  12.862
54180W        W25851  21.783  37.895   0.395
54181W        W25852  35.332  23.192   1.831
54182W        W25853  40.890   3.264  12.029
54183W        W25854   1.886  19.657  11.015
54184W        W25855  39.923  44.689   0.430
54185W        W25856  26.277  43.593   4.587
54186W        W25857  40.037  18.354  12.994
54187W        W25858  37.355  26.484  12.837
54188W        W25859  27.736  31.208  14.867
54189W        W25860  24.056  32.961   4.011
54190W        W25861  25.409  32.663   0.576
54191W        W25862  31.156  13.087   0.865
54192W        W25863  44.843  17.973  10.704
54193W        W25864  15.133  32.500   2.209
54194W        W25865  31.488  25.422  14.464
54195W        W25866   1.102   9.223   1.824
54196W        W25867   8.311  36.114  14.526
54197W        W25868  13.256   9.903   4.508
54198W        W25869  33.114  43.861  12.278
54199W        W25870  42.268  23.613  14.122
54200W        W25871   7.804  25.465  11.116
54201W        W25872   9.637  10.861  11.572
54202W        W25873  26.704  42.276  11.129
54203W        W25874  30.093  15.603   4.245
54204W        W25875  42.556  21.171  11.973
54205W        W25876  19.130  25.417   2.434
54206W        W25877  39.090  17.129   4.992
54207W        W25878  37.431  44.218  12.085
54208W        W25879  22.914  32.466   4.413
54209W        W25880  13.454   6.807  12.597
54210W        W25881   0.785  35.456   0.916
54211W        W25882  27.738  34.563   1.741
54212W        W25883  11.772  22.720   0.093
54213W        W25884   0.796  34.282  13.021
54214W        W25885   7.830   1.230  12.516
54215W        W25886  39.766  32.816  11.615
54216W        W25887  11.849  20.452  14.480
54217W        W25888  11.933   0.391  10.688
54218W        W25889  33.271  39.410   0.720
54219W        W25890  41.940   7.090  10.664
54220W        W25891  29.712  32.151   2.189
54221W        W25892  27.908  39.979  10.969
54222W        W25893  25.259  36.154   1.900
54223W        W25894  12.707  38.967  12.877
54224W        W25895  42.527   6.165  14.050
54225W        W25896   8.283  25.687  13.152
54226W        W25897  28.470  10.020   0.215
54227W        W25898  39.428  25.598   0.018
54228W        W25899  26.505  18.776  11.621
54229W        W25900  12.203  34.434  13.027
54230W        W25901  31.545  13.687  13.928
54231W        W25902  27.097  11.269  13.581
54232W        W25903  19.842   2.211   3.694
54233W        W25904  31.176  28.105  11.922
54234W        W25905  21.627  20.172   3.334
54235W        W25906  44.920  14.385   2.791
54236W        W25907  33.011  12.061   0.046
54237W        W25908  17.873  14.598   2.127
54238W        W25909  33.530  44.405  14.955
54239W        W25910  39.376  35.431   1.348
54240W        W25911  38.952   4.524   0.781
54241W        W25912  41.987  16.352   3.750
54242W        W25913  37.433  37.855  11.571
54243W        W25914  27.560   8.162   0.963
54244W        W25915   2.358  21.657   1.930
54245W        W25916   7.665   8.676   2.826
54246W        W25917  13.111  34.218  14.622
54247W        W25918   7.393  14.046   0.473
54248W        W25919  35.982  30.235  12.873
54249W        W25920  39.361  31.441  11.858
54250W        W25921  25.514  25.240  14.005
54251W        W25922  13.236  26.706  10.045
54252W        W25923  15.719  26.646   1.835
54253W        W25924  12.477  40.122   1.768
54254W        W25925  34.377  43.430  12.794
54255W        W25926  23.572   3.138  12.389
54256W        W25927   8.396  16.295  12.432
54257W        W25928  42.829  22.057  11.569
54258W        W25929  39.730  38.242   4.089
54259W        W25930  29.762  21.953   2.004
54260W        W25931  24.142  25.399   1.377
54261W        W25932  17.139  15.666  11.008
54262W        W25933  21.276  34.453   4.404
54263W        W25934  26.219  39.933  13.481
54264W        W25935  33.216  20.543  13.421
54265W        W25936  39.562   0.753   3.733
54266W        W25937  17.572  22.966  14.959
54267W        W25938  14.688  20.459   1.873
54268W        W25939   0.801  18.424   2.142
54269W        W25940  34.967  43.111  11.178
54270W        W25941  33.594  33.009  11.664
54271W        W25942  24.004  21.059   0.423
54272W        W25943  26.234  35.432   3.712
54273W        W25944   6.493  38.400  12.559
54274W        W25945  15.590  21.218  12.461
54275W        W25946  26.191  26.994   4.090
54276W        W25947  26.186  24.808   3.247
54277W        W25948   2.542  33.405  10.340
54278W        W25949   5.269  35.309   2.434
54279W        W25950   0.709  24.228   4.645
54280W        W25951  18.074   6.360   1.549
54281W        W25952  33.601  40.567   1.935
54282W        W25953   9.543  44.019  14.511
54283W        W25954  34.979  23.564   1.775
54284W        W25955   0.030  13.872  11.434
54285W        W25956  35.987  21.234  10.698
54286W        W25957   6.419  29.335  10.920
54287W        W25958  10.436  14.440  12.948
54288W        W25959  22.060  40.860  10.065
54289W        W25960  33.425  40.363  11.142
54290W        W25961  17.089  12.981  14.499
54291W        W25962  36.072   0.489  11.176
54292W        W25963  11.755   3.448   4.484
54293W        W25964  38.141  30.960  11.621
54294W        W25965  40.817   0.563   2.338
54295W        W25966  13.162  11.084   3.067
54296W        W25967  29.732   8.459   2.789
54297W        W25968  42.297  20.689   1.903
54298W        W25969   0.411  17.733   2.664
54299W        W25970  15.730  42.474  14.986
54300W        W25971  33.297   7.300   1.776
54301W        W25972  12.902  26.065  12.594
54302W        W25973  31.172  17.223   4.607
54303W        W25974   4.938  25.612   1.288
54304W        W25975  34.664  28.621  13.737
54305W        W25976   8.532  42.863   3.685
54306W        W25977  14.307  37.389   1.754
54307W        W25978  22.353  35.529  11.732
54308W        W25979  41.466  26.181   1.710
54309W        W25980   4.429  16.282   2.932
54310W        W25981  21.082  11.815   2.250
54311W        W25982  33.363  12.753  13.986
54312W        W25983  37.889  41.082  13.633
54313W        W25984  12.129   6.924   0.129
54314W        W25985  24.423  38.504  10.545
54315W        W25986  36.572  35.784  11.652
54316W        W25987  26.729  12.063   2.720
54317W        W25988  31.602  11.695   2.246
54318W        W25989   4.186  13.591   1.131
54319W        W25990   3.289  26.286   2.539
54320W        W25991  28.524  35.307   4.270
54321W        W25992  28.039  33.469  13.896
54322W        W25993  32.973  16.381   0.665
54323W        W25994  28.185  12.151  10.954
54324W        W25995   6.930  26.997  13.904
54325W        W25996  33.617  18.719   3.135
54326W        W25997   6.431  38.472   0.361
54327W        W25998  43.841  39.302   0.914
54328W        W25999  33.424   5.730  13.295
54329W        W26000   5.466   1.246  13.374
54330W        W26001  24.454  35.179   2.119
54331W        W26002   1.832  44.330   3.348
54332W        W26003  30.436   5.589   3.025
54333W        W26004  34.151  25.536  13.839
54334W        W26005  11.680  14.671  12.598
54335W        W26006  42.849  44.380   2.774
54336W        W26007   9.201   9.005   2.606
54337W        W26008  37.063  31.114  12.101
54338W        W26009  32.482  12.461  11.221
54339W        W26010   2.785   3.289  11.071
54340W        W26011  19.991  30.616  13.710
54341W        W26012  29.688  37.333  10.645
54342W        W26013  33.399  33.979   0.929
54343W        W26014  32.960  27.256   1.326
54344W        W26015   8.886  44.412   4.047
54345W        W26016  29.164  33.584   0.393
54346W        W26017   3.962   2.128  11.198
54347W        W26018  19.786  30.862   0.658
54348W        W26019  38.401  17.944   3.734
54349W        W26020  40.770   2.908   0.837
54350W        W26021  37.876  43.710   3.364
54351W        W26022  16.527  13.109  11.168
54352W        W26023  21.420  43.053  14.159
54353W        W26024  38.504  36.947  13.729
54354W        W26025  38.774  40.487   3.668
54355W        W26026  30.994  39.797  14.397
54356W        W26027   7.616  13.798   4.067
54357W        W26028  16.189  24.143  13.264
54358W        W26029  29.563  19.485   1.806
54359W        W26030  19.736  31.421   3.876
54360W        W26031   4.540  32.204   4.852
54361W        W26032   9.906   4.972   3.615
54362W        W26033   5.148  14.191   4.682
54363W        W26034  24.820  15.230   3.340
54364W        W26035   3.253  31.895  12.504
54365W        W26036   2.504  31.264  13.771
54366W        W26037  15.294   0.067   2.203
54367W        W26038   9.244  14.753   3.894
54368W        W26039  37.147  44.992   3.809
54369W        W26040  15.674  37.565   4.112
54370W        W26041  28.957   0.388   0.096
54371W        W26042  33.480  35.015   4.433
54372W        W26043  37.665  24.525  11.200
54373W        W26044  29.032  41.443  13.446
54374W        W26045  17.147  35.272  13.704
54375W        W26046  10.305  33.049   3.181
54376W        W26047  35.210  30.764   4.055
54377W        W26048  18.106   9.934   3.687
54378W        W26049  32.864  27.717  10.714
54379W        W26050   8.332  28.744   0.060
54380W        W26051  29.666  22.731   0.286
54381W        W26052  33.719  29.407  12.589
54382W        W26053  22.280  26.584  12.008
54383W        W26054  17.142  17.104  12.073
54384W        W26055  35.340  40.388   2.819
54385W        W26056  18.151   6.284   2.119
54386W        W26057   8.904  31.174  11.134
54387W        W26058  29.141  33.061  12.097
54388W        W26059  33.680  15.365  13.334
54389W        W26060  32.306  16.188   4.622
54390W        W26061  27.525   6.548  11.095
54391W        W26062  40.343   1.459   2.381
54392W        W26063  23.102   0.449  13.375
54393W        W26064  31.959   5.162  13.840
54394W        W26065  41.551  20.694  11.013
54395W        W26066   0.434   9.779  12.635
54396W        W26067   3.145  36.483  12.575
54397W        W26068   5.955  26.376  13.615
54398W        W26069  16.622  31.602  13.383
54399W        W26070  33.590  20.209   2.393
54400W        W26071  39.951  22.892  12.212
54401W        W26072  35.451  35.180  13.792
54402W        W26073  33.128   2.972   1.779
54403W        W26074  20.528  23.740   3.040
54404W        W26075  34.614   5.587   2.240
54405W        W26076  35.348   4.752   0.213
54406W        W26077   4.668  31.210  10.210
54407W        W26078  18.037  33.787   3.776
54408W        W26079  32.594   0.774  11.664
54409W        W26080   5.310  41.097  11.885
54410W        W26081  10.824  35.394   4.845
54411W        W26082  28.849   3.330  10.570
54412W        W26083  39.304  27.255  13.311
54413W        W26084  15.105  12.080   0.879
54414W        W26085  24.180  33.961  10.574
54415W        W26086  31.577  22.694   2.238
54416W        W26087   9.578   5.735  11.691
54417W        W26088  38.029  37.576  14.537
54418W        W26089  36.891  25.063  14.327
54419W        W26090  30.196   0.743  12.491
54420W        W26091  24.204  28.472  10.680
54421W        W26092   9.909  40.236   2.369
54422W        W26093  13.873  34.700  11.879
54423W        W26094  22.567  10.866  11.086
54424W        W26095  31.398  35.334   4.614
54425W        W26096  19.028  16.512   3.186
54426W        W26097  27.174  39.916   0.600
54427W        W26098  11.903  32.699  12.108
54428W        W26099  34.817   7.524   0.413
54429W        W26100   7.936   8.857  11.053
54430W        W26101   3.681  13.872   2.776
54431W        W26102  11.750  35.557  14.570
54432W        W26103  18.531   4.402  11.081
54433W        W26104  44.068  37.391   5.063
54434W        W26105  11.722  17.241  12.781
54435W        W26106  29.972  15.222   2.992
54436W        W26107   5.308  22.247  11.415
54437W        W26108   7.540  32.005   1.914
54438W        W26109  23.657   3.311  12.845
54439W        W26110  24.807  30.850  12.862
54440W        W26111  42.463  42.826   3.737
54441W        W26112   1.377   2.234   4.674
54442W        W26113  40.259  12.966   0.703
54443W        W26114  31.925   9.035  11.671
54444W        W26115  35.610  16.095   1.754
54445W        W26116  11.097  34.152  11.097
54446W        W26117  33.938  17.040  13.309
54447W        W26118  33.783  25.949  14.834
54448W        W26119   0.962  40.877  12.049
54449W        W26120  34.411  41.087  14.846
54450W        W26121  28.664  22.099   3.027
54451W        W26122   7.273   4.875  12.622
54452W        W26123  37.842  16.540  14.814
54453W        W26124  18.941  31.174   2.680
54454W        W26125  41.396  31.116  11.608
54455W        W26126  12.649  31.598  11.643
54456W        W26127   2.386  15.751   9.876
54457W        W26128  25.014  26.200   2.790
54458W        W26129   1.869  24.084  12.693
54459W        W26130  14.573   3.350  12.897
54460W        W26131  33.288   3.698   3.323
54461W        W26132  28.759  14.656   4.777
54462W        W26133  19.795  31.106  14.059
54463W        W26134  33.875   0.196  14.910
54464W        W26135   0.386   5.383  13.324
54465W        W26136  12.374  22.444  11.129
54466W        W26137   8.955  36.395   4.098
54467W        W26138   9.472  29.495   2.660
54468W        W26139  33.500  10.926   0.895
54469W        W26140   1.918  30.638   1.707
54470W        W26141  19.094  19.587   1.957
54471W        W26142  37.569  37.718   2.277
54472W        W26143  29.082   1.767   0.691
54473W        W26144  16.300  26.263   1.140
54474W        W26145  27.407  13.101   2.787
54475W        W26146  15.545  29.372   2.655
54476W        W26147  14.688  21.042  11.238
54477W        W26148  40.327  20.104   1.586
54478W        W26149  30.682   1.497   2.401
54479W        W26150  16.020  11.409   1.385
54480W        W26151  11.705  39.343   1.181
54481W        W26152  15.293  39.079  10.921
54482W        W26153   2.961  31.393   2.765
54483W        W26154  11.403  20.291   4.810
54484W        W26155  42.699  21.662   4.789
54485W        W26156  39.956  22.227   3.108
54486W        W26157  23.283   3.438   1.575
54487W        W26158  33.925  25.736  13.404
54488W        W26159  19.854  28.465   2.251
54489W        W26160  10.700   0.230   0.455
54490W        W26161  19.637   8.399   4.616
54491W        W26162  29.160  19.645  13.111
54492W        W26163  28.473  22.074   0.026
54493W        W26164  36.576  25.239  12.469
54494W        W26165  19.732  32.993   2.728
54495W        W26166   5.713  39.149   0.718
54496W        W26167  28.949   8.726   3.625
54497W        W26168  20.757  29.382   4.496
54498W        W26169  25.894   8.791   3.810
54499W        W26170   7.297  13.632   1.413
54500W        W26171  34.979  27.188   1.849
54501W        W26172  20.675  15.569  10.528
54502W        W26173  14.018  26.140  10.697
54503W        W26174  34.890  43.436   3.208
54504W        W26175  37.359  24.820  13.322
54505W        W26176  28.222  34.761  11.974
54506W        W26177  42.809  24.397   1.152
54507W        W26178   4.893  31.494   2.191
54508W        W26179  29.414  12.612  12.663
54509W        W26180  25.039  15.079  14.993
54510W        W26181  21.334   3.700   0.712
54511W        W26182  19.649  23.629   2.398
54512W        W26183   6.210  25.957   0.408
54513W        W26184   8.721  42.994   0.559
54514W        W26185  36.349  43.270  13.450
54515W        W26186  33.068  20.308  14.231
54516W        W26187  18.016   9.059  10.871
54517W        W26188   5.975  36.621   2.541
54518W        W26189  28.990   6.764   1.464
54519W        W26190  16.711   4.626  14.847
54520W        W26191  23.000   5.238  12.889
54521W        W26192  23.044  31.910  10.637
54522W        W26193  16.708  17.177   1.311
54523W        W26194  39.028   7.266   3.385
54524W        W26195  14.255  33.651   3.699
54525W        W26196  35.562  10.171  10.625
54526W        W26197   4.312  24.603  12.006
54527W        W26198  29.080  33.923   4.774
54528W        W26199  44.779  19.330   0.849
54529W        W26200  43.842  17.744   2.851
54530W        W26201  16.904   1.310  12.583
54531W        W26202  44.691   6.758  14.735
54532W        W26203   5.427   9.699   2.930
54533W        W26204  38.281   7.306   2.671
54534W        W26205  27.933   8.788  14.301
54535W        W26206  34.315  41.035   0.852
54536W        W26207  41.910  25.866  14.444
54537W        W26208  37.360   2.187  12.280
54538W        W26209   4.884  19.573  10.663
54539W        W26210  12.333   9.835   4.540
54540W        W26211  19.572  22.043  14.847
54541W        W26212  18.825  33.942   2.640
54542W        W26213  26.404  34.069   3.451
54543W        W26214   4.833  15.175  11.393
54544W        W26215   9.056  30.019   3.116
54545W        W26216  19.630  30.702  14.989
54546W        W26217  19.511  11.008   2.288
54547W        W26218  33.616  35.405   1.841
54548W        W26219   7.103  18.553  14.302
54549W        W26220  23.498   4.203  13.575
54550W        W26221   3.433  25.387  14.965
54551W        W26222  43.546  42.320  14.137
54552W        W26223  44.451  29.981   2.906
54553W        W26224  40.322  36.509   0.830
54554W        W26225   2.575  19.668   2.620
54555W        W26226   6.411  13.711   1.987
54556W        W26227  22.598  21.092  13.471
54557W        W26228  17.700  40.385   1.411
54558W        W26229  40.287  41.500   3.709
54559W        W26230  18.691   7.442  14.316
54560W        W26231  17.031  24.451  12.873
54561W        W26232  35.497  15.306  13.847
54562W        W26233   5.785   7.676  13.012
54563W        W26234  21.147  14.568   4.929
54564W        W26235  11.352  36.127   2.771
54565W        W26236  12.899  12.364  10.540
54566W        W26237  41.678  19.671   1.923
54567W        W26238  23.627  40.035   1.239
54568W        W26239  10.902  36.116  12.015
54569W        W26240   7.942   4.014  14.956
54570W        W26241   9.901   7.348  11.973
54571W        W26242  35.442  16.626   1.755
54572W        W26243   9.091  26.655   4.880
54573W        W26244   0.878   0.382   3.573
54574W        W26245  33.980   7.993   2.903
54575W        W26246  11.624   1.408   1.599
54576W        W26247   3.825  21.683   3.229
54577W        W26248   8.270   9.264   1.418
54578W        W26249  33.973  10.806  14.821
54579W        W26250  44.652   8.126   5.163
54580W        W26251   5.833  14.508  10.973
54581W        W26252  31.469  28.656   2.670
54582W        W26253   3.387  18.334   0.421
54583W        W26254  11.395  17.428   2.396
54584W        W26255  20.595  15.842  14.962
54585W        W26256  29.988  11.343  14.460
54586W        W26257  12.285  11.789  11.563
54587W        W26258  27.678  17.798  11.720
54588W        W26259  18.837  26.533  12.476
54589W        W26260  37.753  35.108   5.122
54590W        W26261  36.847  24.088  11.420
54591W        W26262  20.163  21.827  10.727
54592W        W26263  21.503  12.430   4.170
54593W        W26264  20.995  23.187  12.804
54594W        W26265  10.216  26.095   1.257
54595W        W26266  25.100   7.791   1.173
54596W        W26267  20.651  17.465  12.027
54597W        W26268  27.171   9.175   3.600
54598W        W26269   8.775   7.803   1.715
54599W        W26270   6.798  19.962  14.908
54600W        W26271   2.997   4.868   4.154
54601W        W26272  38.014  16.567  12.378
54602W        W26273  31.358  19.080  11.964
54603W        W26274  38.461  29.667   3.777
54604W        W26275  10.433  19.696  12.580
54605W        W26276  18.379   1.241   1.836
54606W        W26277   8.633  42.437  13.355
54607W        W26278   7.216  11.758   0.970
54608W        W26279  16.443   2.862   1.797
54609W        W26280   5.912  43.729  14.128
54610W        W26281  34.365   3.426   1.638
54611W        W26282  39.858  41.362   4.664
54612W        W26283  10.257  35.605  12.209
54613W        W26284  18.673   1.788  10.233
54614W        W26285  20.205  41.244  14.445
54615W        W26286  15.290  35.484   4.589
54616W        W26287   0.827  26.169  10.734
54617W        W26288   5.499  35.444  12.127
54618W        W26289   6.793   6.710   4.629
54619W        W26290  21.126   4.899  11.574
54620W        W26291   8.404   6.406   3.050
54621W        W26292  20.087  16.639  13.434
54622W        W26293   7.400  13.741  14.238
54623W        W26294  27.491  37.159   0.784
54624W        W26295  34.799   5.010   1.343
54625W        W26296  32.481  17.454   0.991
54626W        W26297  23.136   1.180   0.284
54627W        W26298  18.979  29.483  13.462
54628W        W26299  17.550  42.594  11.105
54629W        W26300  10.497  24.549  12.705
54630W        W26301  34.130  36.537  12.392
54631W        W26302  31.426   7.336   1.869
54632W        W26303  18.735  42.735   4.617
54633W        W26304  12.235  35.111   2.497
54634W        W26305  13.341  32.839   3.241
54635W        W26306  18.006   9.736  13.408
54636W        W26307  18.153  19.465   4.385
54637W        W26308  44.466  14.414   4.564
54638W        W26309  25.500  16.207  11.671
54639W        W26310   3.501  16.104   1.737
54640W        W26311  26.201  38.206   4.935
54641W        W26312   3.174  12.735   3.032
54642W        W26313  16.831  32.325   4.146
54643W        W26314   2.750   1.119   1.048
54644W        W26315  20.109  20.399   4.111
54645W        W26316   4.607  20.360   4.982
54646W        W26317   3.343   4.428  13.925
54647W        W26318  24.509  32.099   3.733
54648W        W26319   1.918  15.187  10.793
54649W        W26320   3.743  34.505  11.022
54650W        W26321  13.500  19.954   2.682
54651W        W26322   2.820  35.779  14.769
54652W        W26323  39.757  34.093   3.231
54653W        W26324  23.113  12.850  12.165
54654W        W26325  27.560   5.695   2.247
54655W        W26326  26.853  23.625   1.281
54656W        W26327  14.941   5.255   0.195
54657W        W26328  20.164  26.111   1.807
54658W        W26329  26.231  23.539  11.596
54659W        W26330  21.193  12.397   5.272
54660W        W26331  21.039  43.227  11.504
54661W        W26332  30.931   1.408  11.202
54662W        W26333  26.316  42.430   3.072
54663W        W26334   2.493  10.928  14.375
54664W        W26335  23.003  43.090   1.719
54665W        W26336  28.184  16.808   3.393
54666W        W26337  22.891  39.770  10.394
54667W        W26338  28.474  22.518   0.494
54668W        W26339  26.530  25.724  11.093
54669W        W26340  30.494  15.352   2.305
54670W        W26341  18.499   6.271   2.822
54671W        W26342   1.783   2.710  12.586
54672W        W26343  14.366  41.147  14.837
54673W        W26344   6.692   3.513   2.727
54674W        W26345  17.398  31.163  13.736
54675W        W26346   5.855  15.693   0.411
54676W        W26347  42.899  23.317  14.964
54677W        W26348  22.645  37.529  14.596
54678W        W26349  15.962   7.211  12.988
54679W        W26350  44.337  30.345   0.368
54680W        W26351  38.402   3.178   1.654
54681W        W26352  23.522   1.462   0.519
54682W        W26353   1.369  18.513   3.817
54683W        W26354  16.778  33.055  12.287
54684W        W26355  12.460  34.137   1.441
54685W        W26356   3.957  19.259   1.333
54686W        W26357  29.571  36.408  10.703
54687W        W26358  29.913   0.495   4.511
54688W        W26359  15.079  12.142  12.110
54689W        W26360  21.587  39.735   4.314
54690W        W26361  37.675  16.811  12.666
54691W        W26362  27.771   8.383  12.211
54692W        W26363  37.960  10.280   3.117
54693W        W26364  18.694  27.248   0.782
54694W        W26365   7.465   0.787   1.516
54695W        W26366  30.988  26.468   2.913
54696W        W26367  24.932   1.729   2.200
54697W        W26368  39.427  18.772  10.770
54698W        W26369  20.719  30.659   2.801
54699W        W26370  33.018  26.484   1.822
54700W        W26371  21.711  34.580   0.543
54701W        W26372  25.917  15.935   1.265
54702W        W26373  27.045   6.859  12.594
54703W        W26374  12.911  14.410  11.300
54704W        W26375  32.432  38.120  13.325
54705W        W26376   7.272  30.593   0.737
54706W        W26377  44.437  37.135   0.417
54707W        W26378  10.405  21.094   3.616
54708W        W26379  35.008  32.549   0.309
54709W        W26380  39.427  22.530  10.587
54710W        W26381  40.938  34.832   2.213
54711W        W26382   3.943  28.089  14.929
54712W        W26383  43.907  14.623   0.900
54713W        W26384  24.222  40.568  12.924
54714W        W26385  36.905  33.004  10.618
54715W        W26386  32.221  42.841   2.394
54716W        W26387  21.615  43.374  12.198
54717W        W26388  18.045  27.385  12.025
54718W        W26389  41.559  37.160  11.408
54719W        W26390  18.726  22.546   1.010
54720W        W26391  20.241  35.785   1.889
54721W        W26392   9.391   0.906  14.353
54722W        W26393   7.155  42.973   3.187
54723W        W26394  23.114  18.160  12.503
54724W        W26395  28.975   9.355  13.951
54725W        W26396  34.779  43.541  14.489
54726W        W26397   5.909  10.934   0.380
54727W        W26398  43.415  23.450   0.242
54728W        W26399   9.368  40.047  11.639
54729W        W26400  36.351   2.724   3.307
54730W        W26401  17.033  11.219   1.437
54731W        W26402  32.333  39.248  12.836
54732W        W26403  41.963  19.628   3.782
54733W        W26404   1.693  43.801   3.797
54734W        W26405  20.271  41.409   3.798
54735W        W26406  21.098  43.267   2.751
54736W        W26407  15.589  30.695   0.185
54737W        W26408   1.924  43.732   0.426
54738W        W26409  34.341  12.281   4.616
54739W        W26410  14.177  35.174  12.883
54740W        W26411  13.627  35.715  14.044
54741W        W26412  35.412  42.167  13.471
54742W        W26413  11.808   8.996  12.635
54743W        W26414  33.011  30.209   4.441
54744W        W26415  11.694  25.326   0.338
54745W        W26416  44.905  13.271  14.224
54746W        W26417  26.683  22.128  10.730
54747W        W26418  38.243   9.418   2.200
54748W        W26419  21.615  26.472  13.883
54749W        W26420  22.721  30.945   3.635
54750W        W26421  19.309  11.469  10.604
54751W        W26422  40.505  29.023   0.915
54752W        W26423   3.130  34.034  11.937
54753W        W26424   4.938  16.137  14.784
54754W        W26425  15.542  21.304   1.825
54755W        W26426  26.853  15.648   2.013
54756W        W26427  34.528  44.925   2.747
54757W        W26428  17.285  26.718   0.475
54758W        W26429  40.918  12.367  13.094
54759W        W26430   6.125  12.570   4.951
54760W        W26431  30.394  33.027  12.921
54761W        W26432  21.654  35.974   3.429
54762W        W26433   6.708  29.964   3.089
54763W        W26434  13.559  14.083  14.803
54764W        W26435  23.967   5.309   1.366
54765W        W26436  30.165  18.737  12.040
54766W        W26437  44.771  33.306   2.228
54767W        W26438  40.046  19.690  11.572
54768W        W26439  33.021   0.431   0.349
54769W        W26440   8.403   6.722   3.846
54770W        W26441  35.883   7.867   3.321
54771W        W26442  44.252   7.734  12.895
54772W        W26443  11.917  12.288  11.506
54773W        W26444  41.695  43.127  13.943
54774W        W26445   9.167  11.403  11.885
54775W        W26446   9.804  43.034   1.809
54776W        W26447   4.772   2.919   4.366
54777W        W26448   3.838  37.500  11.968
54778W        W26449   9.768  15.079   3.314
54779W        W26450  43.390  16.227   2.205
54780W        W26451  37.568  31.781  12.365
54781W        W26452  43.227  19.563  11.033
54782W        W26453  13.724   6.937   0.728
54783W        W26454  38.347   2.455   1.565
54784W        W26455  31.061  41.185  13.130
54785W        W26456  32.887  18.256   3.280
54786W        W26457  23.309  33.535  12.992
54787W        W26458   1.192   4.749   2.322
54788W        W26459  27.505  44.919   2.292
54789W        W26460  35.892  28.965   0.717
54790W        W26461   1.663   9.647  13.335
54791W        W26462   3.329  15.606   0.870
54792W        W26463  21.102  17.500  11.222
54793W        W26464  24.606   7.331   3.407
54794W        W26465  24.396  39.746   0.736
54795W        W26466  43.575  21.487   4.525
54796W        W26467  43.860  42.252   1.947
54797W        W26468  44.273  14.526  13.322
54798W        W26469  19.440  20.811  12.945
54799W        W26470  26.926  35.440   0.745
54800W        W26471   1.395  36.095  14.968
54801W        W26472  22.251  24.723   1.298
54802W        W26473  15.348   1.226   0.807
54803W        W26474  15.500   6.731   2.338
54804W        W26475  16.762  35.768   0.745
54805W        W26476   4.775  30.152   1.847
54806W        W26477  26.620   6.682  13.892
54807W        W26478  24.022  36.616  12.005
54808W        W26479  28.628  15.712  13.146
54809W        W26480  13.552  15.771  12.504
54810W        W26481  15.259  20.161  12.116
54811W        W26482  24.082  23.009  12.082
54812W        W26483  39.571  36.559  14.519
54813W        W26484  25.254  32.068  13.034
54814W        W26485  30.671  40.933  12.831
54815W        W26486  21.457  27.549  11.667
54816W        W26487  42.595  19.358   2.023
54817W        W26488   7.665  33.299  13.177
54818W        W26489   4.840  44.491  11.147
54819W        W26490   9.441  39.703   1.935
54820W        W26491  31.114  14.914  11.182
54821W        W26492  18.741   6.270  14.363
54822W        W26493  35.440  41.912   4.185
54823W        W26494  32.250  19.690   4.564
54824W        W26495  14.888  21.518  13.763
54825W        W26496  44.211   5.822  10.322
54826W        W26497  26.701  37.871  12.705
54827W        W26498   1.345  33.347   4.350
54828W        W26499  35.443   8.762   1.068
54829W        W26500  41.298  42.861  11.699
54830W        W26501  15.176  37.079  12.454
54831W        W26502   4.049  28.612   1.637
54832W        W26503  20.530   3.498   3.327
54833W        W26504  27.622  35.477   4.636
54834W        W26505  36.437  36.347  12.327
54835W        W26506  17.742  10.572  11.981
54836W        W26507  34.861  30.983   2.673
54837W        W26508  33.293  42.965   5.026
54838W        W26509  11.701  16.925   5.121
54839W        W26510  15.001   3.668   2.273
54840W        W26511  15.859  16.452  10.361
54841W        W26512  34.408  40.659   4.293
54842W        W26513  33.810   2.542   0.601
54843W        W26514  21.678  14.632  11.985
54844W        W26515  16.030  25.639  12.865
54845W        W26516  39.510  25.959  12.575
54846W        W26517  18.890  31.370   1.483
54847W        W26518  29.194  26.700   0.991
54848W        W26519  14.586  44.710   1.212
54849W        W26520  20.128  44.363  11.427
54850W        W26521  43.235  24.387   5.308
54851W        W26522   6.270  42.061   3.888
54852W        W26523  43.786   7.811   0.090
54853W        W26524  11.354  33.328   2.683
54854W        W26525  13.740  37.986   3.803
54855W        W26526  13.575  22.252  11.591
54856W        W26527   3.568   7.275   4.205
54857W        W26528  11.721  41.320  12.619
54858W        W26529  30.913  34.660   5.027
54859W        W26530   3.485  20.720   9.641
54860W        W26531  24.174  29.285  13.003
54861W        W26532  19.533  42.562  14.301
54862W        W26533  16.825  36.626   2.774
54863W        W26534  34.330  36.337  13.125
54864W        W26535  29.858  18.332   4.193
54865W        W26536  23.590  42.898   2.227
54866W        W26537  17.744  40.639   3.995
54867W        W26538  28.442  18.102  10.608
54868W        W26539  29.604  16.103  10.721
54869W        W26540  12.361  31.931  14.954
54870W        W26541  37.864  40.133   3.676
54871W        W26542  33.664  43.277  13.868
54872W        W26543  36.631  18.617   5.339
54873W        W26544  41.350  12.904  13.357
54874W        W26545  44.851  36.621  12.388
54875W        W26546  44.805   3.866   1.518
54876W        W26547   4.637  18.295   3.344
54877W        W26548  20.162  44.588   1.373
54878W        W26549  22.988   1.952   4.075
54879W        W26550  26.645  32.621  13.872
54880W        W26551   3.647  13.010  13.998
54881W        W26552  26.623  34.782  11.221
54882W        W26553  28.753  33.047  13.778
54883W        W26554  10.990  21.186  12.061
54884W        W26555  16.485  29.640   1.246
54885W        W26556  11.116   4.008  13.422
54886W        W26557  11.085  21.482  13.481
54887W        W26558  41.182  21.727   3.219
54888W        W26559   2.402  10.679  13.920
54889W        W26560  22.491   4.288  13.033
54890W        W26561  20.141   1.653   9.908
54891W        W26562  34.349  44.359  12.834
54892W        W26563   4.778  19.179  11.677
54893W        W26564   5.294  37.319   4.392
54894W        W26565  22.081   7.396   3.621
54895W        W26566  20.793   1.231  11.144
54896W        W26567  25.871  21.066  11.707
54897W        W26568  32.706  11.362   2.830
54898W        W26569   5.456  32.129  13.364
54899W        W26570  17.938  25.954  13.269
54900W        W26571  24.667  20.756   0.271
54901W        W26572   2.911   2.935   2.263
54902W        W26573  41.529  29.948  13.379
54903W        W26574  38.035  34.933   4.661
54904W        W26575  11.609  10.655   0.935
54905W        W26576   2.233  18.257  13.723
54906W        W26577   3.200  43.555   0.140
54907W        W26578  20.598  18.553   4.365
54908W        W26579  16.564   1.737  13.929
54909W        W26580  21.478  25.892  11.891
54910W        W26581  34.253  38.088   5.040
54911W        W26582  26.161   9.336   5.104
54912W        W26583  44.776  31.074   1.891
54913W        W26584  40.554  25.524  11.968
54914W        W26585  25.248  23.240  13.094
54915W        W26586   3.753   8.992  10.829
54916W        W26587  31.425  33.913   1.962
54917W        W26588  39.337  11.849   3.722
54918W        W26589  27.464  41.470   2.869
54919W        W26590  15.161   3.942  10.860
54920W        W26591  20.842   7.868  11.996
54921W        W26592  14.897  24.709  11.248
54922W        W26593  20.792  18.612   2.190
54923W        W26594   9.214  31.470   3.872
54924W        W26595  18.020   4.243   1.221
54925W        W26596  17.174  14.245  13.390
54926W        W26597   0.942  13.868  13.181
54927W        W26598  38.042  27.434  14.059
54928W        W26599  15.313  20.904   4.185
54929W        W26600  10.245  11.784   1.905
54930W        W26601  35.884  19.226  11.513
54931W        W26602   3.600   8.733   2.957
54932W        W26603   3.327   5.971  11.729
54933W        W26604   0.200  30.593   4.092
54934W        W26605  39.521  36.598   2.301
54935W        W26606  43.527  10.290  10.725
54936W        W26607  29.351   8.987   4.568
54937W        W26608  43.346   0.766  10.378
54938W        W26609  20.402  11.560   2.752
54939W        W26610  11.134  43.013   4.225
54940W        W26611  32.702  37.092  11.017
54941W        W26612  41.247  40.946   3.761
54942W        W26613   4.345  21.725  13.874
54943W        W26614  23.718  21.767  10.801
54944W        W26615   0.898   8.802  12.959
54945W        W26616  12.654  24.319   0.682
54946W        W26617  14.620   2.756  12.084
54947W        W26618  35.666  20.589  13.544
54948W        W26619  11.261   1.713   2.705
54949W        W26620  24.450  43.522  14.265
54950W        W26621  22.205  37.074  13.899
54951W        W26622  42.963  14.813  10.948
54952W        W26623   2.694  24.694   4.337
54953W        W26624  35.073  18.173   1.434
54954W        W26625  39.069  38.937  14.455
54955W        W26626  22.816  29.156  11.308
54956W        W26627  39.429  13.650   4.578
54957W        W26628  31.652  40.475  12.129
54958W        W26629  15.343  10.283  13.410
54959W        W26630  41.079  39.898   3.551
54960W        W26631  44.388  15.139   1.189
54961W        W26632  33.456  24.245  13.823
54962W        W26633  34.795  25.400   3.143
54963W        W26634  28.360  30.377   0.034
54964W        W26635  19.849  44.937  13.811
54965W        W26636  44.328   0.776  13.017
54966W        W26637  26.500  39.768   2.670
54967W        W26638  10.226  15.268   1.740
54968W        W26639  10.351  10.343  11.636
54969W        W26640  19.642   8.091  10.694
54970W        W26641  15.502  28.681  12.830
54971W        W26642  23.086  28.977  14.793
54972W        W26643  35.206  22.115   2.888
54973W        W26644  18.235   2.247   1.940
54974W        W26645  42.056  22.253   0.332
54975W        W26646   4.911  15.687  14.421
54976W        W26647  30.532   5.286   1.610
54977W        W26648  41.115  34.489  14.465
54978W        W26649  29.578  13.459   4.171
54979W        W26650  18.065   7.832   3.119
54980W        W26651   4.890   3.895  10.768
54981W        W26652  27.105  34.346  13.032
54982W        W26653  44.039   9.062   3.116
54983W        W26654  25.911   4.224   1.151
54984W        W26655  20.717   7.715   2.886
54985W        W26656   0.731  26.655   2.993
54986W        W26657  16.804  32.065  12.485
54987W        W26658  12.118  30.574  12.453
54988W        W26659   8.360  22.639  13.751
54989W        W26660   4.340  10.187   1.878
54990W        W26661  31.471  18.974  11.465
54991W        W26662   3.241  13.281  10.616
54992W        W26663  20.086  35.128  14.803
54993W        W26664   2.043  41.539  14.477
54994W        W26665  10.085   0.229  10.023
54995W        W26666  24.222  13.683  12.379
54996W        W26667  40.095  22.316   2.601
54997W        W26668  36.392  23.531   0.954
54998W        W26669  21.775   0.816  11.135
54999W        W26670  25.834   9.187   3.270
55000W        W26671  43.454  41.583  11.121
55001W        W26672  43.248  10.032  11.655
55002W        W26673   2.253  43.001   4.508
55003W        W26674  39.073  18.426  10.647
55004W        W26675  23.038  37.532  12.396
55005W        W26676  29.951   6.423  13.941
55006W        W26677   4.252  26.724  11.088
55007W        W26678  11.847  12.724   0.430
55008W        W26679  32.882  32.356   1.342
55009W        W26680  13.724  27.636  14.724
55010W        W26681  30.000  22.454   1.813
55011W        W26682  35.564  20.516  14.574
55012W        W26683  25.719  42.884   4.697
55013W        W26684  44.325  44.403  11.565
55014W        W26685  21.663   0.958  13.083
55015W        W26686   0.387  14.367  12.271
55016W        W26687  37.816   6.135   1.761
55017W        W26688  12.782  22.036   4.695
55018W        W26689   9.689  12.926   1.045
55019W        W26690  35.010  39.950   3.380
55020W        W26691  39.035  30.479  14.518
55021W        W26692  23.452  28.461   1.901
55022W        W26693  25.787  15.655   1.756
55023W        W26694  12.285  21.363   3.616
55024W        W26695  22.556  10.706   4.460
55025W        W26696   5.637  38.464  14.945
55026W        W26697  33.069  20.787   1.663
55027W        W26698  15.836  29.158  10.316
55028W        W26699   4.258  32.799  12.200
55029W        W26700  29.677  22.764  10.620
55030W        W26701  44.627  21.905  10.230
55031W        W26702  31.212   4.198  13.124
55032W        W26703  10.048  35.524   1.288
55033W        W26704  34.143  44.477   3.846
55034W        W26705  27.628  17.507   3.664
55035W        W26706  25.373  20.492   4.246
55036W        W26707  18.541  30.558  11.169
55037W        W26708   9.634  40.548   3.181
55038W        W26709  44.001  44.252   1.740
55039W        W26710  17.738  41.889  12.820
55040W        W26711  42.936   3.951  12.483
55041W        W26712  27.729  10.444   0.890
55042W        W26713   4.118   8.802   1.328
55043W        W26714  32.960  39.045   3.160
55044W        W26715  11.835  42.410  12.663
55045W        W26716  20.143   3.861  14.387
55046W        W26717   8.803  10.401   5.041
55047W        W26718  27.658  34.102   0.985
55048W        W26719  25.549  16.292  10.627
55049W        W26720  26.763  33.037   3.790
55050W        W26721  14.728  33.573   3.163
55051W        W26722  40.596  32.059   0.510
55052W        W26723  18.771  28.604  11.882
55053W        W26724   8.464  44.555  11.590
55054W        W26725  36.168  37.976   2.893
55055W        W26726   6.505  40.575   5.098
55056W        W26727  26.534  12.871   0.150
55057W        W26728  13.735  43.704   0.948
55058W        W26729  25.777  24.185   0.717
55059W        W26730   0.976  15.066  12.415
55060W        W26731  36.467   5.092  14.399
55061W        W26732   9.112  37.598  12.061
55062W        W26733  25.641  30.655  13.009
55063W        W26734   9.261  20.263   1.111
55064W        W26735   3.826  12.608  13.741
55065W        W26736  21.283  22.257   0.997
55066W        W26737  32.032  40.135   2.738
55067W        W26738   9.814  12.016  10.649
55068W        W26739  42.507   5.453   0.390
55069W        W26740  41.361  22.487   2.255
55070W        W26741   2.855   2.172  14.939
55071W        W26742  32.446  14.334  10.951
55072W        W26743   2.750   0.786   3.735
55073W        W26744  43.381  20.485  12.340
55074W        W26745  22.526  37.672   1.845
55075W        W26746  43.296  43.903  12.083
55076W        W26747   6.183   7.592   4.232
55077W        W26748   3.683   5.001  13.391
55078W        W26749  34.699  43.698  11.932
55079W        W26750  10.402  44.483  11.052
55080W        W26751  14.876  37.578  14.989
55081W        W26752  42.466   7.892   4.532
55082W        W26753  20.033   3.275  10.302
55083W        W26754  30.332   2.337  10.826
55084W        W26755   7.280   4.551   2.137
55085W        W26756   7.245  22.345   5.089
55086W        W26757  13.028  29.045   3.083
55087W        W26758  23.145  14.272   4.365
55088W        W26759   0.495  20.453  10.000
55089W        W26760  31.662  15.486   2.836
55090W        W26761  42.375  40.120   4.072
55091W        W26762  35.609  39.179  14.660
55092W        W26763   8.087  26.575  14.659
55093W        W26764  21.153  25.514  12.193
55094W        W26765  43.317  11.675   3.773
55095W        W26766   5.882   6.761  10.891
55096W        W26767   5.475   6.809   2.745
55097W        W26768  38.020  30.453   3.622
55098W        W26769   4.328  40.811   0.031
55099W        W26770  40.010  28.420  11.117
55100W        W26771  22.500   3.048   2.955
55101W        W26772   5.988  43.455   1.894
55102W        W26773   7.517  34.542  10.809
55103W        W26774  25.958  40.365  13.368
55104W        W26775  17.080  37.880   4.618
55105W        W26776  36.424  43.837   1.448
55106W        W26777  31.292  38.013   0.984
55107W        W26778  18.660  10.901  12.907
55108W        W26779  38.750  25.920  13.294
55109W        W26780  13.381  35.835   1.349
55110W        W26781  12.925  35.519  11.984
55111W        W26782  13.698  23.451  12.162
55112W        W26783  36.861  16.155   4.600
55113W        W26784  34.866  25.921   0.212
55114W        W26785  16.545  18.137   1.280
55115W        W26786  37.607   7.678   0.366
55116W        W26787   1.748   2.094   3.632
55117W        W26788  14.283   5.239   5.122
55118W        W26789  17.726  24.242  12.099
55119W        W26790   6.389  11.796   1.827
55120W        W26791  39.870  19.788   2.085
55121W        W26792  25.705  22.731   4.476
55122W        W26793  10.786  26.285   1.698
55123W        W26794  18.332  13.756  12.949
55124W        W26795  15.871  31.968  10.611
55125W        W26796  35.607  23.010   2.793
55126W        W26797  41.533  34.070  12.952
55127W        W26798  38.482  11.912  12.190
55128W        W26799  25.521   5.441   2.154
55129W        W26800  38.873  23.582   1.294
55130W        W26801  19.676  40.303  12.997
55131W        W26802  38.580  11.099   4.076
55132W        W26803  39.511   6.685  14.969
55133W        W26804  19.268  40.908   1.213
55134W        W26805   6.818  17.113  11.241
55135W        W26806  20.815  24.389   1.231
55136W        W26807  21.671   8.091   0.652
55137W        W26808  40.272   2.370   4.580
55138W        W26809  10.935  18.550  13.457
55139W        W26810   0.093   9.796  14.451
55140W        W26811  14.950   0.267  13.411
55141W        W26812  22.718  32.866  13.756
55142W        W26813  19.641  24.297   1.910
55143W        W26814  38.845  31.127  12.606
55144W        W26815   5.379  11.133  13.094
55145W        W26816  30.919  22.435  13.822
55146W        W26817   4.129  15.017  12.143
55147W        W26818  17.834   4.391   0.758
55148W        W26819  22.068   1.294   0.751
55149W        W26820  33.634  18.220   3.398
55150W        W26821   1.872   5.859  14.773
55151W        W26822  40.938  16.272   1.210
55152W        W26823  25.018  17.980  14.348
55153W        W26824  14.926  36.992   1.471
55154W        W26825  12.237  18.190   4.251
55155W        W26826  41.872   4.820   3.808
55156W        W26827  24.553  21.236  11.044
55157W        W26828  27.947   6.346   4.689
55158W        W26829  12.584  13.312   0.677
55159W        W26830  14.914   5.431   4.153
55160W        W26831  19.009   3.131   5.199
55161W        W26832   9.111  35.732   1.726
55162W        W26833  30.009  21.601  14.616
55163W        W26834   7.869  40.009  14.878
55164W        W26835  28.926  42.637  12.208
55165W        W26836  25.442  43.736  13.001
55166W        W26837  34.887  39.671   1.430
55167W        W26838  43.898   4.391  12.797
55168W        W26839  28.041  20.615  13.091
55169W        W26840  29.583  38.279   1.181
55170W        W26841   2.786  24.083  13.750
55171W        W26842   4.168  13.658   3.044
55172W        W26843  40.932   2.817  12.286
55173W        W26844  26.076  17.747   0.956
55174W        W26845  17.789  19.723  14.136
55175W        W26846   9.664  22.687  13.034
55176W        W26847  17.564  28.239  11.224
55177W        W26848  24.441   3.591  10.403
55178W        W26849   4.029  38.064  12.504
55179W        W26850  44.308  19.610  13.542
55180W        W26851  11.838   4.460   1.277
55181W        W26852  44.013  16.067  10.813
55182W        W26853  35.138  21.627  13.359
55183W        W26854   8.236   4.928  11.664
55184W        W26855  30.631  36.411   1.900
55185W        W26856  33.693  13.130   0.339
55186W        W26857  16.554  34.588   4.557
55187W        W26858  20.022   1.410   4.169
55188W        W26859  39.539  28.591  14.569
55189W        W26860  16.329   2.447  11.064
55190W        W26861   0.491   1.876   0.287
55191W        W26862  19.675  17.856  12.034
55192W        W26863  22.995  20.406  13.090
55193W        W26864  32.569  25.127  11.583
55194W        W26865  25.575  37.348   1.706
55195W        W26866  32.692  38.970   4.572
55196W        W26867  21.083   5.303   3.195
55197W        W26868  32.012  30.937  12.187
55198W        W26869   4.792  37.517   1.170
55199W        W26870  21.035  34.591   0.790
55200W        W26871   5.799   8.818  11.108
55201W        W26872  12.240  40.620   4.968
55202W        W26873  21.959   3.758   2.985
55203W        W26874   1.885   6.464  11.515
55204W        W26875  28.280  20.951   4.519
55205W        W26876  25.534  13.172  13.542
55206W        W26877  12.678  16.133   4.703
55207W        W26878   3.677   2.236   0.933
55208W        W26879  15.327  22.996   0.228
55209W        W26880  33.079  12.922   1.760
55210W        W26881  11.491  21.036  12.053
55211W        W26882  23.527   6.417   0.540
55212W        W26883  15.457  33.555  14.535
55213W        W26884  32.555  39.145  14.678
55214W        W26885   9.492   5.215  11.789
55215W        W26886  42.778  10.599  13.885
55216W        W26887  10.801  19.010   2.851
55217W        W26888  43.705  21.539   1.405
55218W        W26889  40.139   5.695  12.572
55219W        W26890  35.747  11.794   2.764
55220W        W26891  30.019  25.290  12.346
55221W        W26892  12.117  27.103   3.749
55222W        W26893  32.146  31.134   3.306
55223W        W26894  22.141  41.291  10.302
55224W        W26895  22.193  40.895  12.536
55225W        W26896  39.420   0.242  14.343
55226W        W26897  30.489  10.555   0.413
55227W        W26898  39.142   4.374  13.355
55228W        W26899  38.647  39.768   2.314
55229W        W26900  26.667  15.149  14.440
55230W        W26901  16.571  20.221  11.517
55231W        W26902  33.572  41.034   1.692
55232W        W26903   1.983   5.741   2.173
55233W        W26904   2.584  38.535   1.179
55234W        W26905  20.296  23.647  12.089
55235W        W26906  17.777   4.520  14.379
55236W        W26907  17.060  33.242   4.145
55237W        W26908  16.437   0.781  13.357
55238W        W26909  21.999  30.127   2.428
55239W        W26910  42.504  24.022   4.598
55240W        W26911  12.126  28.256  14.572
55241W        W26912  12.643  39.039  13.822
55242W        W26913  29.444   1.958   4.679
55243W        W26914  16.163  30.101   4.451
55244W        W26915  20.038  12.765  10.667
55245W        W26916  21.431  29.676  14.914
55246W        W26917  17.239   9.226  14.985
55247W        W26918  19.410  43.511  13.508
55248W        W26919  42.751  19.432   4.268
55249W        W26920  18.218  18.821   0.530
55250W        W26921   4.094   1.832   4.200
55251W        W26922  11.762  32.160   2.300
55252W        W26923   6.355   8.791   1.383
55253W        W26924  23.422  27.994  14.364
55254W        W26925   2.841  10.383  11.200
55255W        W26926  15.642   2.655  14.778
55256W        W26927  14.259   2.742  10.450
55257W        W26928  12.818  39.972   3.317
55258W        W26929  25.741  41.371   1.399
55259W        W26930  26.444   6.217   0.839
55260W        W26931  28.967  43.730   0.904
55261W        W26932  17.658  34.307   0.237
55262W        W26933  34.161  21.330  13.096
55263W        W26934   1.951  37.043   4.710
55264W        W26935   5.798  13.491   4.065
55265W        W26936  34.027  10.269  13.000
55266W        W26937  13.142  15.833   0.540
55267W        W26938  20.423  40.822  11.091
55268W        W26939  42.799   2.464   3.654
55269W        W26940  18.088  25.067  10.568
55270W        W26941  13.462  20.514  12.903
55271W        W26942   0.439  21.419  11.982
55272W        W26943   7.114  19.241  12.525
55273W        W26944  30.833  34.315  12.284
55274W        W26945  17.127  35.398  14.208
55275W        W26946  11.276  24.587   3.740
55276W        W26947  44.351  28.170  14.544
55277W        W26948  35.166  38.043  12.591
55278W        W26949  17.079  39.350   2.349
55279W        W26950  15.566   0.988  13.028
55280W        W26951  19.193  44.008  11.637
55281W        W26952  28.865  34.255  13.976
55282W        W26953   8.259   5.522  11.703
55283W        W26954   5.327   5.409   0.971
55284W        W26955  30.685  32.558  12.233
55285W        W26956  18.186   5.592   0.867
55286W        W26957  33.664   3.466   0.338
55287W        W26958  14.787  43.700   4.253
55288W        W26959  35.168  40.980   1.045
55289W        W26960  15.642  32.553   0.422
55290W        W26961   1.488   0.697   0.926
55291W        W26962  29.728   6.498  10.716
55292W        W26963  20.534  29.083  11.607
55293W        W26964  31.500  31.107   2.649
55294W        W26965  19.540   5.866  14.751
55295W        W26966  13.267  26.126   3.139
55296W        W26967   3.878  25.463   3.257
55297W        W26968  38.489  14.663  11.004
55298W        W26969  41.191  14.523  13.599
55299W        W26970  31.816  16.131  10.226
55300W        W26971   9.421  44.214   2.388
55301W        W26972  37.766   4.193   0.791
55302W        W26973   2.689  18.302   2.136
55303W        W26974   4.962  26.081   4.697
55304W        W26975  21.129  44.390  11.654
55305W        W26976  28.053  44.993  12.095
55306W        W26977   1.532  40.254  12.125
55307W        W26978  43.897  37.311   2.636
55308W        W26979  25.244  21.952  13.032
55309W        W26980  25.956   4.338   2.458
55310W        W26981   4.798  24.935  11.249
55311W        W26982  43.366  10.779  10.714
55312W        W26983  26.244  44.231   0.932
55313W        W26984  41.883  37.904  10.868
55314W        W26985  21.470  24.298   1.778
55315W        W26986   6.937  18.705  12.045
55316W        W26987  22.692   9.355   2.661
55317W        W26988  28.457   2.080  11.315
55318W        W26989  18.140  27.992   2.480
55319W        W26990  28.034  31.859   3.766
55320W        W26991  44.992  25.563   4.541
55321W        W26992  21.674  41.387  12.060
55322W        W26993  33.503   2.513   4.655
55323W        W26994  39.648  43.398  14.331
55324W        W26995  32.341   5.803   4.607
55325W        W26996  33.023  24.838   4.390
55326W        W26997  33.437  38.420  12.049
55327W        W26998  12.331  20.334  14.289
55328W        W26999  37.287  22.711   4.127
55329W        W27000  12.999  11.694  13.913
55330W        W27001   9.980  34.343  13.313
55331W        W27002  13.320  16.147   1.199
55332W        W27003  33.145  34.752   1.267
55333W        W27004   8.844  27.193   2.138
55334W        W27005  25.137   6.465  12.845
55335W        W27006  32.732  14.122   0.072
55336W        W27007   1.809  19.257  12.516
55337W        W27008  10.708   7.731   1.362
55338W        W27009  14.823   8.548   0.066
55339W        W27010   4.816  24.741   9.885
55340W        W27011   2.529   7.380  14.012
55341W        W27012  37.016  32.939  12.879
55342W        W27013  38.244  34.225   1.920
55343W        W27014  28.443  13.999   2.820
55344W        W27015  18.075  24.643  10.890
55345W        W27016  36.268  17.103   1.309
55346W        W27017   1.997  34.345   0.376
55347W        W27018  27.500  29.629  14.295
55348W        W27019  13.374  28.886   2.212
55349W        W27020  11.208  18.087   2.712
55350W        W27021  12.295  25.612  14.741
55351W        W27022   0.016  42.068  13.950
55352W        W27023   5.718  43.833   1.662
55353W        W27024  32.466  28.053  10.881
55354W        W27025  32.414  24.171  12.984
55355W        W27026  22.469  38.834  14.374
55356W        W27027  21.127  38.813  13.476
55357W        W27028  13.936  15.658  14.790
55358W        W27029  13.934   5.771  14.473
55359W        W27030  13.860  36.580   3.821
55360W        W27031  44.929  17.393  11.992
55361W        W27032  19.151   1.003  12.166
55362W        W27033  16.128  41.351   1.374
55363W        W27034  26.118   6.482  12.835
55364W        W27035  17.196  17.690   0.954
55365W        W27036  22.389   0.115  10.176
55366W        W27037  27.846  32.469   9.861
55367W        W27038   3.942  20.248   3.385
55368W        W27039  43.498  16.828   4.195
55369W        W27040  22.002   4.360   0.422
55370W        W27041  41.908  44.335   2.715
55371W        W27042   1.405  10.956   3.160
55372W        W27043  25.124  19.616  10.718
55373W        W27044  27.017  23.293   2.687
55374W        W27045  44.816  32.873   1.934
55375W        W27046  40.579  11.521  12.903
55376W        W27047  44.713  29.149   1.877
55377W        W27048  25.258   8.727  13.296
55378W        W27049   7.090  32.026  12.024
55379W        W27050  32.341  15.660   1.227
55380W        W27051  42.208  38.541  11.907
55381W        W27052  31.905   8.069   3.672
55382W        W27053   7.735   6.227  11.611
55383W        W27054  23.936  32.261  11.005
55384W        W27055   0.463   4.807   3.242
55385W        W27056  17.265  27.452   0.815
55386W        W27057  34.005   7.641  14.450
55387W        W27058  11.597  15.112   1.895
55388W        W27059  22.812  36.089   0.609
55389W        W27060   2.494  23.374  11.176
55390W        W27061  15.257  38.270   1.515
55391W        W27062  11.177   1.696   4.609
55392W        W27063  24.723  20.122   1.436
55393W        W27064   8.782  29.634  14.807
55394W        W27065  24.943   9.837   3.799
55395W        W27066  13.612   7.863   0.263
55396W        W27067  40.779  30.098  12.096
55397W        W27068   8.758  34.502  13.843
55398W        W27069  31.517   1.208  12.536
55399W        W27070   5.145  40.357  12.972
55400W        W27071  27.926  42.966   0.894
55401W        W27072  19.322   5.470   1.294
55402W        W27073   9.648   1.037  13.915
55403W        W27074   2.987  41.455  10.734
55404W        W27075  40.137   1.799  11.159
55405W        W27076   9.606  13.691   4.566
55406W        W27077  36.810  41.240   3.214
55407W        W27078  17.617  29.519   4.560
55408W        W27079  22.727  14.371  14.860
55409W        W27080  26.115  25.932  13.594
55410W        W27081   8.607  28.482  14.461
55411W        W27082  26.948  11.173  14.066
55412W        W27083   1.213  12.333   4.338
55413W        W27084  30.455  30.694   1.650
55414W        W27085  27.453  40.283  12.989
55415W        W27086  38.317  11.884   4.568
55416W        W27087  22.165  10.407   3.247
55417W        W27088  37.325   4.266  14.904
55418W        W27089   5.676  30.979   2.205
55419W        W27090  29.913  16.090   0.564
55420W        W27091   5.490  16.099  10.643
55421W        W27092  37.847   5.247   4.709
55422W        W27093  19.966  15.628   1.433
55423W        W27094   8.254   2.292   0.728
55424W        W27095   9.195   5.739   1.047
55425W        W27096  10.084  39.610  11.532
55426W        W27097  34.235  13.223  14.025
55427W        W27098  25.778  20.732   3.842
55428W        W27099  29.094  24.577  12.018
55429W        W27100   1.556  27.724   1.742
55430W        W27101  11.105  40.486   2.786
55431W        W27102  22.989  14.669   4.065
55432W        W27103  32.757  23.005  12.419
55433W        W27104   4.875  22.755  14.840
55434W        W27105  42.311   4.954  12.058
55435W        W27106  43.759   5.692   3.732
55436W        W27107  12.315   1.378   0.339
55437W        W27108  11.803  26.502   4.229
55438W        W27109  37.764  36.972   1.301
55439W        W27110   8.608  27.223   0.741
55440W        W27111  30.640  18.580   3.718
55441W        W27112  22.683   4.437   0.951
55442W        W27113   1.729  13.124  14.779
55443W        W27114  14.050  11.173   2.655
55444W        W27115  11.279  24.423  12.593
55445W        W27116   7.606  10.705   3.305
55446W        W27117   6.944  18.177  10.406
55447W        W27118  41.722  19.213   2.676
55448W        W27119   0.806  29.670   2.654
55449W        W27120  11.276  39.942   0.709
55450W        W27121  13.841   8.572   1.805
55451W        W27122  13.336  38.432   2.880
55452W        W27123  42.825  19.428   5.058
55453W        W27124  25.688  40.346  13.861
55454W        W27125  20.080   6.758  14.324
55455W        W27126  41.922  28.928  11.098
55456W        W27127  24.070  37.616  12.869
55457W        W27128  29.639  12.631   2.778
55458W        W27129  28.286  30.597   3.659
55459W        W27130   6.030  29.505   3.248
55460W        W27131  37.456  23.544  13.130
55461W        W27132  29.975   0.544   3.632
55462W        W27133  14.693  11.817   2.165
55463W        W27134   6.724  37.036  13.806
55464W        W27135  30.376  36.310   2.891
55465W        W27136  15.156  15.227   2.254
55466W        W27137   5.178   9.411   1.328
55467W        W27138  20.986   1.945   4.444
55468W        W27139  11.371  36.886  12.637
55469W        W27140  19.005  24.008   3.630
55470W        W27141  11.625   1.923   1.422
55471W        W27142  23.063   0.867   3.798
55472W        W27143  22.171  28.761  12.902
55473W        W27144  26.985  18.161   3.465
55474W        W27145  41.472  39.966  11.478
55475W        W27146   4.300   9.273  13.951
55476W        W27147  44.941  23.786  12.942
55477W        W27148  19.086   2.547   2.457
55478W        W27149   2.273   9.684  11.465
55479W        W27150   7.216  18.865   3.864
55480W        W27151  16.035   6.751  12.324
55481W        W27152   2.325   0.022   4.869
55482W        W27153  41.943   7.991   4.495
55483W        W27154  28.625   2.935  14.247
55484W        W27155  22.047   8.487   2.746
55485W        W27156  28.482  31.775  13.342
55486W        W27157   7.416  25.452  11.971
55487W        W27158  20.158  41.921   1.184
55488W        W27159  21.375  37.077   1.905
55489W        W27160  33.081  33.752   4.395
55490W        W27161  34.435   6.356   2.811
55491W        W27162   5.215  44.427  11.975
55492W        W27163  41.899  23.239   2.186
55493W        W27164  13.226   3.306  12.102
55494W        W27165  24.487  24.574   2.124
55495W        W27166  10.236  12.191  12.873
55496W        W27167  18.669  39.972  12.193
55497W        W27168  28.664  33.947   1.258
55498W        W27169  43.830  23.129   3.342
55499W        W27170  38.337  40.937   0.238
55500W        W27171   4.435  30.121   4.866
55501W        W27172  41.306  16.773  13.423
55502W        W27173  16.310  36.351   2.839
55503W        W27174  25.079  38.185  12.120
55504W        W27175  30.980   3.447  10.108
55505W        W27176  12.750   0.276  12.898
55506W        W27177  31.123  26.017   2.194
55507W        W27178  18.082  11.322  12.373
55508W        W27179  20.480  31.618  12.300
55509W        W27180  39.582   4.372   4.112
55510W        W27181  44.770  32.309  10.694
55511W        W27182  12.642   4.862  13.342
55512W        W27183  10.697   4.668   0.372
55513W        W27184  28.894   0.325   2.304
55514W        W27185  17.795  26.523   0.374
55515W        W27186  26.991  18.318   2.458
55516W        W27187   4.415   2.899  11.131
55517W        W27188   7.649  41.865   1.779
55518W        W27189  13.914  26.113   2.338
55519W        W27190  42.307  36.137  13.380
55520W        W27191  20.343  11.192  11.159
55521W        W27192   1.817   1.491  13.653
55522W        W27193  29.791  34.365  12.497
55523W        W27194  35.761   4.161   0.884
55524W        W27195  35.166  21.740   1.051
55525W        W27196   0.437   3.874  12.395
55526W        W27197  21.570  17.197   2.160
55527W        W27198  42.842  13.679   2.203
55528W        W27199  43.796  16.639  14.338
55529W        W27200  41.452  44.584   2.651
55530W        W27201  35.953  20.103   0.475
55531W        W27202   5.726  13.560   1.224
55532W        W27203  41.602  36.217   2.830
55533W        W27204  22.158  30.455  13.466
55534W        W27205   0.088  31.485   0.800
55535W        W27206   0.728  25.230   0.400
55536W        W27207  16.739  26.124   0.196
55537W        W27208  12.266  44.898   4.176
55538W        W27209   7.253   4.956   2.450
55539W        W27210   2.782  20.768   1.233
55540W        W27211  18.076  28.434  10.547
55541W        W27212  10.100   4.371  14.814
55542W        W27213   5.657  20.948  10.626
55543W        W27214  15.633  39.322  13.461
55544W        W27215   8.969  39.372  14.791
55545W        W27216  26.909  30.337  12.849
55546W        W27217  16.551  41.570  12.585
55547W        W27218   9.973   6.691  10.970
55548W        W27219  20.661  37.338   2.263
55549W        W27220   3.178  36.959   0.359
55550W        W27221  39.031  40.464   3.224
55551W        W27222  16.631  23.182   3.200
55552W        W27223  36.085  20.087   4.427
55553W        W27224   2.764  36.162  11.650
55554W        W27225  25.296   5.284   1.731
55555W        W27226  28.929  17.038   0.857
55556W        W27227  14.700   1.395   2.647
55557W        W27228  44.539  17.766   4.220
55558W        W27229  18.270  42.266  13.009
55559W        W27230  15.594  12.849  11.095
55560W        W27231  11.652  29.601   1.836
55561W        W27232  20.070   5.945  11.693
55562W        W27233  37.391  44.409   3.594
55563W        W27234  32.192  27.551   3.695
55564W        W27235  14.032  18.207  10.785
55565W        W27236   9.574  36.599  14.294
55566W        W27237   6.412  33.512   1.303
55567W        W27238   0.493  11.667  14.758
55568W        W27239  10.650   8.456  14.398
55569W        W27240  31.452  42.237   3.175
55570W        W27241  14.771  36.030  11.613
55571W        W27242  27.659  16.989   3.609
55572W        W27243  23.773   2.405   1.319
55573W        W27244  15.771  32.309  14.357
55574W        W27245   4.205  33.883   3.311
55575W        W27246   0.907  37.093  13.524
55576W        W27247  40.116  10.154  14.057
55577W        W27248  35.736  42.120   1.623
55578W        W27249   1.229  27.679   2.738
55579W        W27250  36.901  39.987   2.084
55580W        W27251   2.863  38.178   0.739
55581W        W27252  22.482  43.021  11.690
55582W        W27253  25.963  29.548  11.199
55583W        W27254  13.559  30.683  11.719
55584W        W27255   6.245   4.646   0.287
55585W        W27256  13.273  17.752  11.044
55586W        W27257  15.060  15.122  12.057
55587W        W27258  20.554  24.761   0.937
55588W        W27259  42.201  43.896   1.962
55589W        W27260  13.401  31.921  12.303
55590W        W27261   7.506  27.024  14.811
55591W        W27262  39.959   7.671   3.093
55592W        W27263  16.059  19.123  11.654
55593W        W27264  33.814  21.708  14.333
55594W        W27265  23.891  35.123  11.040
55595W        W27266  37.002  44.467   1.879
55596W        W27267  19.437  14.646   5.087
55597W        W27268   7.820  28.791   4.430
55598W        W27269  21.260  35.932   3.752
55599W        W27270  40.385  36.390  13.321
55600W        W27271  31.641  17.099  14.522
55601W        W27272  34.413  24.517   3.685
55602W        W27273  10.234  32.820   0.062
55603W        W27274  14.558  11.204   2.781
55604W        W27275  27.098  20.951  13.380
55605W        W27276  38.481  25.451  11.618
55606W        W27277  36.440  11.939  10.411
55607W        W27278  20.781  25.654  13.528
55608W        W27279   9.648  25.278  11.916
55609W        W27280  11.664  18.544  13.053
55610W        W27281  27.016   6.569   5.047
55611W        W27282   0.926   9.251  10.745
55612W        W27283  16.236  41.450   0.419
55613W        W27284  13.828   4.491  14.870
55614W        W27285   5.678  31.621  14.907
55615W        W27286  14.687   3.841  11.107
55616W        W27287  34.038   9.954   1.645
55617W        W27288  39.556  43.742  13.118
55618W        W27289  24.939  36.198  12.109
55619W        W27290  28.184  30.662   0.465
55620W        W27291  12.784  30.278   3.807
55621W        W27292  27.513  18.111  10.828
55622W        W27293   5.444  25.476  11.525
55623W        W27294  21.675  44.588   3.779
55624W        W27295  19.120  10.752  13.300
55625W        W27296  11.128   3.715  12.972
55626W        W27297  23.652  23.977   1.676
55627W        W27298  28.216   6.287  14.451
55628W        W27299  18.787  24.355   0.269
55629W        W27300  18.698  41.848   4.184
55630W        W27301   0.991  24.248  11.383
55631W        W27302   4.624   9.140   4.582
55632W        W27303  42.584  13.772  12.866
55633W        W27304   9.185  40.291  12.583
55634W        W27305   5.383  35.518   1.455
55635W        W27306  30.671  22.298  11.650
55636W        W27307  11.803  40.080   4.162
55637W        W27308  24.585  42.515   1.417
55638W        W27309   6.878  43.543  13.721
55639W        W27310   9.339  41.848   4.042
55640W        W27311  32.684  22.055   1.400
55641W        W27312  37.989  19.058   3.160
55642W        W27313   9.331  33.104   1.294
55643W        W27314  37.078  35.388   1.870
55644W        W27315   2.561  27.943   4.601
55645W        W27316  13.230  31.016   3.582
55646W        W27317   9.247   8.386  11.952
55647W        W27318  18.289   3.337  10.375
55648W        W27319  11.124   7.234   1.345
55649W        W27320   2.294  26.847   5.062
55650W        W27321  21.148  42.261   1.405
55651W        W27322  27.786  20.178   2.159
55652W        W27323  12.873  38.186   2.897
55653W        W27324  20.028  21.143   3.827
55654W        W27325  10.068  11.723  13.565
55655W        W27326  11.281  33.360  11.648
55656W        W27327  42.549   5.792   2.238
55657W        W27328  20.794  10.164   1.198
55658W        W27329  28.446  41.355   2.689
55659W        W27330  12.096  43.434   4.264
55660W        W27331   8.960  38.909   0.772
55661W        W27332  17.668   2.917  10.800
55662W        W27333  13.163  20.134  13.582
55663W        W27334  24.757   5.656  12.490
55664W        W27335  35.107  16.601  14.337
55665W        W27336  25.134   3.798  10.824
55666W        W27337   2.722  29.945  12.970
55667W        W27338  22.492  25.730   3.650
55668W        W27339  26.934  12.878   2.714
55669W        W27340  25.607  13.881  11.344
55670W        W27341  17.047  19.116   0.663
55671W        W27342   0.239  37.957   4.554
55672W        W27343   8.680  34.421   0.334
55673W        W27344  30.559  20.235  10.904
55674W        W27345  40.325  28.305  12.866
55675W        W27346  19.814  40.273   0.717
55676W        W27347  13.468  29.584  12.669
55677W        W27348  28.470  42.746  12.007
55678W        W27349  35.213  34.017  12.099
55679W        W27350  23.606  14.535   2.201
55680W        W27351   3.657  21.534  14.423
55681W        W27352   6.287   1.504  11.608
55682W        W27353  40.470   3.176  13.460
55683W        W27354   9.267  11.708   2.968
55684W        W27355  38.369  40.590  10.536
55685W        W27356  14.534  13.573   1.854
55686W        W27357   1.451  41.965  13.998
55687W        W27358   8.147  17.820  13.130
55688W        W27359  40.870   3.852   0.013
55689W        W27360  31.476  26.387  14.057
55690W        W27361  13.032   8.945  11.902
55691W        W27362   1.261  15.828   4.356
55692W        W27363   2.323   3.895   4.861
55693W        W27364   4.417  17.458  11.648
55694W        W27365  35.927  34.407  12.584
55695W        W27366  14.661   5.392   3.698
55696W        W27367   4.493   2.199   1.910
55697W        W27368  10.816  21.632   3.184
55698W        W27369  31.871  36.753   3.549
55699W        W27370  36.587  44.898  11.956
55700W        W27371  33.683  38.525   4.099
55701W        W27372  44.871  24.038   0.825
55702W        W27373   3.182   0.319   4.587
55703W        W27374  44.361   6.269  12.078
55704W        W27375  16.687   0.880  12.371
55705W        W27376  15.619   0.864   5.088
55706W        W27377  44.611   3.006   0.991
55707W        W27378  37.055   8.797  11.101
55708W        W27379   1.002  25.357   9.781
55709W        W27380  19.249  16.867   0.617
55710W        W27381   9.625  34.020  13.884
55711W        W27382  33.633  12.433  13.511
55712W        W27383  35.722  22.687  13.046
55713W        W27384  17.023  21.269   2.291
55714W        W27385  40.012  19.435  12.020
55715W        W27386  18.764   7.226   1.464
55716W        W27387  37.270  17.171   4.039
55717W        W27388  17.285  32.060   2.670
55718W        W27389   3.889  10.413   3.950
55719W        W27390   0.220  39.117  14.772
55720W        W27391  35.900   8.165   3.738
55721W        W27392  26.816   3.864  14.188
55722W        W27393   0.410  13.933   4.575
55723W        W27394  34.130  10.345  14.046
55724W        W27395   7.185   5.816  12.462
55725W        W27396   8.444  15.573   0.475
55726W        W27397  12.705   0.136  14.542
55727W        W27398  28.439  42.442  13.404
55728W        W27399   8.849  11.918  14.854
55729W        W27400   1.318  40.790   1.806
55730W        W27401  32.611  16.047  14.927
55731W        W27402   8.900  20.212  13.373
55732W        W27403  42.078   4.017  13.586
55733W        W27404   5.876   1.234   2.374
55734W        W27405  39.914  36.147  14.340
55735W        W27406  14.213  27.438  12.862
55736W        W27407  13.883  37.763  12.513
55737W        W27408  19.228   9.216   4.196
55738W        W27409   7.888  39.441   3.243
55739W        W27410  12.240  44.407   3.919
55740W        W27411   2.828  12.825  12.191
55741W        W27412  26.831  27.371   1.202
55742W        W27413  30.746  34.068   2.345
55743W        W27414  19.499   8.763   0.829
55744W        W27415  10.454   1.619   4.277
55745W        W27416  29.937  36.404  11.075
55746W        W27417  15.078  32.175   4.109
55747W        W27418  34.389   4.649  13.880
55748W        W27419  42.356  39.366  13.379
55749W        W27420  31.701   3.430  11.542
55750W        W27421   9.702  35.787   3.315
55751W        W27422   1.285   0.395  11.142
55752W        W27423  44.515  43.401   4.200
55753W        W27424  10.439  30.439  12.896
55754W        W27425  34.808  24.447  10.783
55755W        W27426  30.838  16.411   1.468
55756W        W27427  33.070  27.511  12.002
55757W        W27428   4.118  27.626   1.269
55758W        W27429  35.053  33.919   3.706
55759W        W27430  24.137   7.338  14.357
55760W        W27431  35.919  24.115  11.160
55761W        W27432   5.812  25.070   3.863
55762W        W27433   1.760  36.608   2.248
55763W        W27434   6.009  37.743  10.806
55764W        W27435  35.828  25.975   1.674
55765W        W27436   3.220  16.443   4.558
55766W        W27437  28.666  20.898   1.855
55767W        W27438  13.835  43.480   2.234
55768W        W27439  34.512  27.399  14.710
55769W        W27440  21.248  27.123   1.879
55770W        W27441   0.355   4.758   1.745
55771W        W27442   2.998  37.657  11.668
55772W        W27443  39.227   2.487   4.174
55773W        W27444  22.816  28.608   2.730
55774W        W27445   2.243  37.808   3.300
55775W        W27446  20.070  36.504   4.336
55776W        W27447  38.021  16.033  13.798
55777W        W27448  23.521  19.366  11.501
55778W        W27449  14.057  44.245   4.556
55779W        W27450  33.454  37.498  11.998
55780W        W27451  32.066  16.479  13.022
55781W        W27452  26.580   6.144  11.164
55782W        W27453  20.518  31.058   3.732
55783W        W27454  10.951  44.509   2.228
55784W        W27455  12.193  23.234   4.235
55785W        W27456   0.143  12.867  12.859
55786W        W27457  29.995  21.154  11.062
55787W        W27458  21.790  43.625   4.089
55788W        W27459  32.887   0.041  13.023
55789W        W27460   5.356  10.189  11.022
55790W        W27461  34.899  36.394   3.273
55791W        W27462  17.668  35.816   0.465
55792W        W27463   6.354  10.242   1.865
55793W        W27464  19.148  26.398   3.283
55794W        W27465  27.988   3.269  11.138
55795W        W27466   2.269  31.480   1.374
55796W        W27467  10.160  11.273  12.108
55797W        W27468   7.914  35.190   0.910
55798W        W27469  13.017  28.124   4.135
55799W        W27470   2.715  25.138  11.479
55800W        W27471   1.974   0.777  10.807
55801W        W27472  40.945  26.438  10.755
55802W        W27473  28.546  22.026   3.963
55803W        W27474  17.521  32.022   4.721
55804W        W27475   7.796  43.845  10.455
55805W        W27476  40.637  35.304  11.680
55806W        W27477  21.747   7.844  13.886
55807W        W27478  37.594  15.065   2.111
55808W        W27479  13.602  31.658   4.218
55809W        W27480  33.723  29.136   2.680
55810W        W27481   0.576  35.559  12.536
55811W        W27482  37.528  10.815  13.429
55812W        W27483  43.775  28.984   3.773
55813W        W27484  10.751  43.876  10.355
55814W        W27485  34.165  25.754   4.212
55815W        W27486  11.645  31.255   3.357
55816W        W27487  25.638  31.375  10.822
55817W        W27488  31.905  11.853  13.526
55818W        W27489  43.773   4.544  10.883
55819W        W27490  11.772  28.577   3.296
55820W        W27491   5.018  22.238   3.400
55821W        W27492  21.765  31.348  11.133
55822W        W27493  20.723  20.866  14.950
55823W        W27494  29.625  39.209   3.585
55824W        W27495   0.625  21.611  11.119
55825W        W27496  39.288  14.711  13.356
55826W        W27497  25.709  38.386   1.761
55827W        W27498   7.812   3.408   4.666
55828W        W27499  23.532  36.967   3.533
55829W        W27500  23.185  36.561  11.499
55830W        W27501  34.550  37.859  13.362
55831W        W27502  30.194  31.618  14.020
55832W        W27503  41.902  23.050   0.815
55833W        W27504  25.509  22.313   1.663
55834W        W27505  24.733  13.486   2.490
55835W        W27506  22.003  15.867   1.856
55836W        W27507  25.324  11.720   2.706
55837W        W27508  23.276  25.072   3.611
55838W        W27509  13.411  35.460  12.197
55839W        W27510  32.912   6.976   1.708
55840W        W27511   7.174  44.685   5.169
55841W        W27512  38.640  16.048   0.880
55842W        W27513  35.190  37.405   4.528
55843W        W27514  25.491  21.761  11.987
55844W        W27515  18.354  13.762   3.459
55845W        W27516  39.736  30.366   4.265
55846W        W27517  18.695  22.689   0.496
55847W        W27518  32.576  33.858   4.229
55848W        W27519  20.757  44.794  14.922
55849W        W27520   3.893  10.854  11.500
55850W        W27521  29.996  12.818  12.023
55851W        W27522  14.596  34.466   4.657
55852W        W27523  13.147   9.612  14.368
55853W        W27524  34.381  16.251  14.728
55854W        W27525  18.623  38.920   1.322
55855W        W27526  14.773  11.664   0.776
55856W        W27527  29.484  31.021   3.771
55857W        W27528  41.238  44.467  14.454
55858W        W27529  43.866  30.337   2.398
55859W        W27530  19.229   7.819   4.536
55860W        W27531   6.907   1.241   0.209
55861W        W27532  17.304  33.933   0.316
55862W        W27533   5.573   8.284  14.376
55863W        W27534  20.721  42.790  11.663
55864W        W27535  30.540  33.134   1.434
55865W        W27536  37.801  10.166  11.135
55866W        W27537  40.676  42.918  10.853
55867W        W27538   1.541  37.139  12.017
55868W        W27539  18.546  39.370  14.381
55869W        W27540  38.824  20.806  11.080
55870W        W27541  31.215  17.560  13.813
55871W        W27542  39.063  38.508  12.034
55872W        W27543   4.266  40.934  12.505
55873W        W27544  20.767  36.742  11.851
55874W        W27545  10.592   3.365   3.648
55875W        W27546   3.156  22.066   0.804
55876W        W27547  39.107  32.930  14.190
55877W        W27548  19.660  12.392   3.095
55878W        W27549   9.183  36.602   0.935
55879W        W27550  40.306  18.273  11.169
55880W        W27551  33.357  38.788   2.320
55881W        W27552  13.244  14.083   1.210
55882W        W27553  22.148  38.948   2.455
55883W        W27554  43.000  18.169  11.139
55884W        W27555  13.101  14.116  13.161
55885W        W27556  22.978  31.945   1.462
55886W        W27557   3.010  24.596   1.888
55887W        W27558  44.822   2.347   2.447
55888W        W27559  17.676  17.067  11.142
55889W        W27560  40.427  16.828  12.405
55890W        W27561   7.425  33.921  14.693
55891W        W27562  24.408   8.754   4.827
55892W        W27563  21.707  25.723   5.600
55893W        W27564   3.384  41.976  11.538
55894W        W27565  15.161   4.665   3.773
55895W        W27566  20.470  31.969   3.303
55896W        W27567  11.971  28.054   0.349
55897W        W27568  42.728  11.651  14.901
55898W        W27569   8.810   7.132   2.798
55899W        W27570  37.060  15.091   2.055
55900W        W27571  20.837  12.523  10.357
55901W        W27572  30.010   4.938   0.354
55902W        W27573  43.875  19.843   0.986
55903W        W27574  42.843   1.937  10.584
55904W        W27575  15.099  20.790  14.216
55905W        W27576  24.573  28.126   1.769
55906W        W27577  14.204  36.931  12.534
55907W        W27578  41.370  28.069   3.976
55908W        W27579  20.505  19.356   4.711
55909W        W27580  10.396  26.962  10.759
55910W        W27581  18.209  25.906   3.731
55911W        W27582  10.738  27.775   0.651
55912W        W27583  22.294  35.619  13.738
55913W        W27584  44.152  41.468   3.261
55914W        W27585  10.156  12.390   2.324
55915W        W27586  33.649   9.056  13.017
55916W        W27587  22.480  28.232   2.825
55917W        W27588  16.214  21.843  10.382
55918W        W27589   3.644  33.451   4.522
55919W        W27590  38.908   2.162   0.897
55920W        W27591  22.653  10.178   3.135
55921W        W27592   3.694   6.990   3.759
55922W        W27593  10.185  15.790   2.243
55923W        W27594   5.619  13.650   3.595
55924W        W27595  44.211   5.797  13.834
55925W        W27596   4.908  29.033  10.732
55926W        W27597   2.792  36.100  14.343
55927W        W27598  35.800  12.789   2.905
55928W        W27599  21.736  17.047   3.657
55929W        W27600   6.838  13.511   1.221
55930W        W27601   5.185  13.148  13.017
55931W        W27602  28.169   5.094   3.342
55932W        W27603  18.577  27.209   0.274
55933W        W27604  10.533  23.474   4.565
55934W        W27605   2.972  35.548   1.179
55935W        W27606  21.766  21.510   1.171
55936W        W27607  42.576  36.960   2.281
55937W        W27608   4.930  21.971   2.400
55938W        W27609   0.801  18.078  11.077
55939W        W27610   5.018  30.628  11.395
55940W        W27611  41.646  15.507  12.318
55941W        W27612  17.251  44.331   0.735
55942W        W27613  15.315   6.208  14.398
55943W        W27614  43.309   2.297   0.889
55944W        W27615  21.735  15.249   4.165
55945W        W27616  30.926  17.255   1.816
55946W        W27617  24.421  22.711   3.868
55947W        W27618   4.904  41.057   2.481
55948W        W27619   4.422  33.419  14.940
55949W        W27620  16.512  14.847  12.823
55950W        W27621  11.839  32.336  11.069
55951W        W27622   7.935  18.563  14.688
55952W        W27623   9.138   7.809   4.065
55953W        W27624  13.789  20.714  14.713
55954W        W27625   2.684  10.616   4.712
55955W        W27626  10.191  27.644   1.444
55956W        W27627  23.487  39.769   4.150
55957W        W27628  29.566  27.953   4.090
55958W        W27629  12.835  28.137  11.959
55959W        W27630  17.216  33.993  11.417
55960W        W27631  15.348  40.801  11.571
55961W        W27632  32.291   2.339   1.315
55962W        W27633   3.929  16.794   3.664
55963W        W27634  12.902  39.300  11.175
55964W        W27635  13.719  26.659  12.546
55965W        W27636  36.976  41.724   3.209
55966W        W27637  33.942  20.282   1.868
55967W        W27638  35.885  30.604  11.022
55968W        W27639  37.636   8.951   2.065
55969W        W27640  40.769   5.428   1.303
55970W        W27641  23.645  34.569   3.393
55971W        W27642  12.363  39.376   2.284
55972W        W27643  43.270  20.643   1.793
55973W        W27644   9.855  29.464  10.624
55974W        W27645  40.438  44.800   4.165
55975W        W27646  33.090  16.624  13.382
55976W        W27647  16.980  38.057   1.211
55977W        W27648  29.120  33.006  13.365
55978W        W27649  23.658   2.331   4.362
55979W        W27650  23.529  18.709   4.681
55980W        W27651  21.193  26.350   0.144
55981W        W27652  40.859  33.593  14.917
55982W        W27653  18.608   5.981   0.872
55983W        W27654  32.157  28.866  11.181
55984W        W27655  37.971  14.695  11.929
55985W        W27656  22.774  44.605  14.136
55986W        W27657  30.173  16.866   3.303
55987W        W27658   5.126  38.166  10.977
55988W        W27659  40.087  32.044   0.439
55989W        W27660  39.441  16.274  11.683
55990W        W27661   1.823  44.315  12.105
55991W        W27662  25.482  14.437  13.852
55992W        W27663   4.974   8.383   3.935
55993W        W27664  18.560  10.888  11.640
55994W        W27665  11.121  30.923  12.517
55995W        W27666  17.365  15.131  13.332
55996W        W27667  32.032  40.914  14.483
55997W        W27668   0.273   2.271   3.813
55998W        W27669  32.558   7.398  10.253
55999W        W27670  27.071   1.175   4.004
56000W        W27671  16.094  14.312  12.605
56001W        W27672  15.722   0.460   4.455
56002W        W27673  40.303  31.091  14.458
56003W        W27674   5.760  24.741  10.438
56004W        W27675  27.528   3.244   4.853
56005W        W27676  27.504  29.608  11.056
56006W        W27677  23.515   1.264  11.945
56007W        W27678  29.977   6.435  11.163
56008W        W27679  29.406   8.277   3.632
56009W        W27680  31.973  35.216   4.122
56010W        W27681   3.395  18.051   3.722
56011W        W27682  23.933  38.876   3.439
56012W        W27683   6.715  11.944   3.229
56013W        W27684  16.059  11.336  11.116
56014W        W27685   9.454  16.264   4.230
56015W        W27686   0.921  31.100  13.102
56016W        W27687  31.670  29.030   2.360
56017W        W27688  40.505  22.986  12.527
56018W        W27689  38.923  16.485  13.427
56019W        W27690  44.819   3.697   4.619
56020W        W27691   5.664   3.180  10.922
56021W        W27692   1.984  21.710  10.215
56022W        W27693   5.643  33.599   1.722
56023W        W27694  21.229  31.630  13.961
56024W        W27695  30.521   8.263   0.259
56025W        W27696  27.927  17.195   3.178
56026W        W27697  10.212   7.646   0.222
56027W        W27698   3.908  17.496   0.914
56028W        W27699  16.100   0.435  11.077
56029W        W27700  11.062  44.538  14.029
56030W        W27701  19.707  23.014  11.974
56031W        W27702   0.719   6.474   0.533
56032W        W27703  44.803  30.397  14.714
56033W        W27704  41.631  34.964  12.034
56034W        W27705  44.562  28.472   1.924
56035W        W27706  39.764  37.122   1.919
56036W        W27707  14.505   4.935   0.353
56037W        W27708  26.699  33.414  10.566
56038W        W27709  10.652  26.794   1.655
56039W        W27710  39.772  22.618   5.018
56040W        W27711   0.390  43.518   1.796
56041W        W27712  19.111  20.202   2.470
56042W        W27713  30.084   1.388  12.388
56043W        W27714  22.605  21.911  14.527
56044W        W27715  10.490  37.001   4.335
56045W        W27716  44.031  30.032   4.848
56046W        W27717  34.282   1.494   2.784
56047W        W27718  21.535   8.207  10.754
56048W        W27719  42.834  39.372   4.992
56049W        W27720  23.219  20.592   0.302
56050W        W27721   1.007  26.678  10.767
56051W        W27722  42.514  40.344   2.306
56052W        W27723  10.428  36.990  12.018
56053W        W27724   6.744  36.332   3.152
56054W        W27725  19.387  32.900  11.103
56055W        W27726   2.371  44.470   4.159
56056W        W27727   5.000   1.215  11.112
56057W        W27728  33.327  11.610   1.848
56058W        W27729   0.336  25.159  10.864
56059W        W27730  32.531   5.355  12.629
56060W        W27731  31.100  28.855  11.167
56061W        W27732   6.057  41.611   4.091
56062W        W27733   8.004  43.582   0.730
56063W        W27734  29.108  39.478   2.385
56064W        W27735  42.115  41.952   5.012
56065W        W27736  25.593   6.417   3.737
56066W        W27737   9.668  19.657   0.264
56067W        W27738  22.584  37.705   3.625
56068W        W27739   0.424   0.483  12.436
56069W        W27740   8.642   7.490  11.735
56070W        W27741  43.426  40.457   0.043
56071W        W27742   3.603  17.255   1.285
56072W        W27743  16.291   0.177  14.891
56073W        W27744  26.095  41.489   4.321
56074W        W27745  21.204   2.314   3.108
56075W        W27746  40.302  43.799   1.333
56076W        W27747  21.095  10.135  13.589
56077W        W27748  38.526  28.909   4.517
56078W        W27749  31.506  21.656   4.347
56079W        W27750  11.327  27.035  11.002
56080W        W27751  38.898  20.520  12.871
56081W        W27752  41.685  44.679   1.357
56082W        W27753  14.697   5.188   4.542
56083W        W27754  10.164  42.832  10.213
56084W        W27755  10.291  44.249   1.813
56085W        W27756  20.610  18.114   4.675
56086W        W27757  11.257   5.033   3.625
56087W        W27758   0.400  29.541   0.474
56088W        W27759  19.585  31.612  12.329
56089W        W27760  16.845  23.076  12.082
56090W        W27761  24.189  37.015  14.238
56091W        W27762  39.883  25.698  13.824
56092W        W27763  12.538  26.220   2.143
56093W        W27764  20.482  29.012  12.658
56094W        W27765   0.400  25.546  13.776
56095W        W27766  41.847  40.275  12.400
56096W        W27767  34.121  37.122   3.181
56097W        W27768  12.144  12.839   2.438
56098W        W27769  12.413  15.612   2.600
56099W        W27770   9.210  17.206  10.252
56100W        W27771   1.590  22.549  11.426
56101W        W27772  17.830  25.028  14.488
56102W        W27773  35.908  32.148   2.891
56103W        W27774  42.263   3.670  10.688
56104W        W27775  43.531  29.178   4.197
56105W        W27776  41.793  41.503   0.755
56106W        W27777  31.904  11.336   1.159
56107W        W27778  42.750  27.060  14.312
56108W        W27779   8.265   7.139   0.404
56109W        W27780   5.797  11.005  13.372
56110W        W27781  11.607   7.127   2.354
56111W        W27782   1.082  33.538  13.910
56112W        W27783  29.302  34.882   4.613
56113W        W27784   7.049  11.329  12.429
56114W        W27785  20.449  28.357  14.868
56115W        W27786  20.373   9.733   0.766
56116W        W27787  26.042  11.037  14.596
56117W        W27788  24.785   2.748  12.494
56118W        W27789  37.939  43.439  13.149
56119W        W27790  34.610  42.329   2.825
56120W        W27791  34.089  27.093  10.610
56121W        W27792  18.099   0.247   0.347
56122W        W27793   4.401  14.578   1.391
56123W        W27794   5.683  25.468  14.847
56124W        W27795  11.772   2.522  11.463
56125W        W27796   4.961  27.164  13.017
56126W        W27797  27.687  30.952   4.772
56127W        W27798   5.452  42.424   0.968
56128W        W27799  13.447  41.368  13.026
56129W        W27800   0.892  11.697  11.142
56130W        W27801  20.540  35.203   1.422
56131W        W27802  34.113   1.899   2.294
56132W        W27803   5.832   4.476   2.156
56133W        W27804   3.978   3.925   0.919
56134W        W27805  13.137  22.298  14.739
56135W        W27806  26.496   0.436   3.230
56136W        W27807  39.272  10.741  13.852
56137W        W27808   4.858  32.339  14.091
56138W        W27809  39.691  38.500   0.784
56139W        W27810  30.633  36.471  13.431
56140W        W27811  31.014   4.414  13.934
56141W        W27812   9.057  39.382   2.780
56142W        W27813  33.767  30.889  11.627
56143W        W27814  40.805   3.213  13.852
56144W        W27815  26.226  37.078   4.784
56145W        W27816  12.091  24.232  11.519
56146W        W27817  10.264  30.653  14.298
56147W        W27818  11.387   2.799   2.269
56148W        W27819  28.622   0.922   3.777
56149W        W27820  42.719   1.014  11.881
56150W        W27821   1.925  39.539   0.299
56151W        W27822   4.366  11.069   0.061
56152W        W27823   1.828  30.102  10.595
56153W        W27824  26.958  44.266   0.216
56154W        W27825   7.839   9.361  13.786
56155W        W27826  43.131   6.888  10.928
56156W        W27827  29.758  25.371   4.677
56157W        W27828   4.375  26.422  14.932
56158W        W27829   3.558  34.949   3.069
56159W        W27830  10.102  14.080   1.391
56160W        W27831   5.193  33.622   4.830
56161W        W27832  22.546  23.796   1.794
56162W        W27833   9.630  36.395   1.128
56163W        W27834  24.676   4.176  11.702
56164W        W27835  42.456  17.022  11.533
56165W        W27836  30.623  41.456  12.889
56166W        W27837  39.892  29.348   4.403
56167W        W27838  22.253  25.456   4.062
56168W        W27839  18.974  34.340  12.062
56169W        W27840  20.759  12.821   2.301
56170W        W27841  10.877  37.927   0.249
56171W        W27842  27.605  29.573   0.727
56172W        W27843  15.577  10.583   3.205
56173W        W27844  28.685  35.176  14.924
56174W        W27845  28.084   6.896   2.839
56175W        W27846  13.392  13.133   4.175
56176W        W27847   6.475  30.949   4.599
56177W        W27848   3.876   8.680   4.917
56178W        W27849  17.641  29.681  14.492
56179W        W27850  24.476  14.800   1.824
56180W        W27851  12.175  26.497   1.931
56181W        W27852  43.539  30.360  14.743
56182W        W27853  36.424  22.731  12.857
56183W        W27854  27.051  16.368  14.666
56184W        W27855  30.478  12.255   0.739
56185W        W27856  30.858  12.663   0.822
56186W        W27857  35.468   0.966   1.362
56187W        W27858  11.313   8.008  13.732
56188W        W27859  34.691   1.278   4.329
56189W        W27860  41.921   6.411  13.867
56190W        W27861  19.553  18.057  12.606
56191W        W27862  33.181  21.443  13.514
56192W        W27863  28.767  20.983  13.991
56193W        W27864  33.645   8.743  10.740
56194W        W27865  18.580  10.969   1.371
56195W        W27866   5.302   3.066  10.569
56196W        W27867  10.495   0.561  11.391
56197W        W27868   5.284   8.876   1.371
56198W        W27869  26.242  40.124   0.951
56199W        W27870  10.169  11.308  13.851
56200W        W27871  33.073  42.907  13.984
56201W        W27872  27.452   4.232  13.356
56202W        W27873   7.378  11.580   3.810
56203W        W27874  10.226  34.504   3.748
56204W        W27875  39.350  30.982   2.557
56205W        W27876  40.391  14.798   4.526
56206W        W27877  42.853  35.405  14.654
56207W        W27878  25.053  37.088   0.793
56208W        W27879  36.926   5.349  10.620
56209W        W27880  26.959  30.993   4.135
56210W        W27881   7.838   2.751  10.648
56211W        W27882  23.412   8.052  14.515
56212W        W27883  14.589  27.142   1.216
56213W        W27884   5.152  41.788   2.842
56214W        W27885  19.652   7.095  14.589
56215W        W27886  27.581  40.691   0.903
56216W        W27887   7.955  30.933   0.948
56217W        W27888   3.813  21.074   0.100
56218W        W27889  15.146  17.789  12.632
56219W        W27890  18.122   9.860  11.921
56220W        W27891  15.299  29.210  11.638
56221W        W27892  22.126   9.337   0.972
56222W        W27893  36.403  26.895   0.544
56223W        W27894  13.198  20.618   0.403
56224W        W27895   9.235  22.711   4.878
56225W        W27896   5.619  16.999  10.645
56226W        W27897  38.601  39.810  14.769
56227W        W27898  30.422   1.692  11.585
56228W        W27899  25.987  26.098   4.599
56229W        W27900  10.113  41.873  13.034
56230W        W27901  11.821  22.279  11.445
56231W        W27902  13.701  39.102  12.859
56232W        W27903   3.865  31.335  12.887
56233W        W27904   6.763  33.892  11.797
56234W        W27905  33.589  14.636  11.723
56235W        W27906  42.894  23.049  10.625
56236W        W27907  12.164  14.273   3.578
56237W        W27908  34.889  43.646  10.996
56238W        W27909  13.675  37.635  14.430
56239W        W27910  22.278  17.542  11.722
56240W        W27911  19.869  26.118   9.796
56241W        W27912  11.185  16.674   4.300
56242W        W27913  34.441  39.307   2.537
56243W        W27914  22.266  32.431   2.316
56244W        W27915   5.729  29.456  12.373
56245W        W27916  17.593   0.222   1.369
56246W        W27917   9.862  39.522   3.755
56247W        W27918  12.898  23.611   1.785
56248W        W27919  20.626  10.456   0.311
56249W        W27920  37.953   4.019   2.724
56250W        W27921  44.627  43.271  13.465
56251W        W27922   1.384  16.325   4.288
56252W        W27923  25.507  32.550   1.439
56253W        W27924  11.681  43.912   2.379
56254W        W27925  19.317   0.580  14.352
56255W        W27926  31.478  25.933  14.580
56256W        W27927  37.515  29.514   1.326
56257W        W27928  19.319  36.653  13.264
56258W        W27929  14.410  24.663  11.048
56259W        W27930  14.151  31.263  13.497
56260W        W27931  41.116  11.791  10.649
56261W        W27932   9.960  26.172   2.529
56262W        W27933  11.053  33.528   0.026
56263W        W27934  26.471  13.108   3.400
56264W        W27935  20.580  21.949  11.217
56265W        W27936  21.661  22.108  13.009
56266W        W27937  32.716  14.113  12.550
56267W        W27938   2.476  41.211   2.429
56268W        W27939   0.767  36.687   0.454
56269W        W27940  20.194  12.677   3.159
56270W        W27941  19.717  20.625   4.753
56271W        W27942   2.976  14.510  14.882
56272W        W27943  39.628  16.971  11.527
56273W        W27944  41.503  44.021  13.504
56274W        W27945   6.786   0.312  12.320
56275W        W27946  29.490  44.592   1.618
56276W        W27947  27.906   6.399   9.774
56277W        W27948  36.178  13.862  14.439
56278W        W27949   5.388  17.375   4.579
56279W        W27950  36.953  22.609  11.092
56280W        W27951  10.864   5.947  10.434
56281W        W27952   1.736  42.814   1.811
56282W        W27953  24.706   4.843   0.339
56283W        W27954   9.932  25.922   4.523
56284W        W27955  18.066  41.979   0.834
56285W        W27956  28.901  24.499  14.870
56286W        W27957  20.835  22.094  14.133
56287W        W27958   7.921   2.941  12.097
56288W        W27959  33.404  18.660   4.674
56289W        W27960  44.482  33.489  14.953
56290W        W27961  21.701  41.436   4.197
56291W        W27962  24.224  31.298   0.980
56292W        W27963  23.554  37.452   2.277
56293W        W27964   1.415  34.595   4.048
56294W        W27965  35.403   8.136   2.565
56295W        W27966  22.031  28.935  13.521
56296W        W27967   2.564  37.049  13.654
56297W        W27968  32.966  42.660   4.148
56298W        W27969  35.632  38.574  14.561
56299W        W27970   9.142  29.640  10.789
56300W        W27971  36.112  22.005   4.254
56301W        W27972  23.640  16.670   2.856
56302W        W27973  27.181   5.041   1.517
56303W        W27974   0.980  22.773   5.286
56304W        W27975   9.893  42.725  10.640
56305W        W27976  10.364  32.019   3.565
56306W        W27977  11.762  13.073   1.980
56307W        W27978   0.106  29.689  11.911
56308W        W27979  44.342  38.412   4.551
56309W        W27980  16.745  11.739   3.201
56310W        W27981  16.620  41.462  14.996
56311W        W27982  21.996  44.170  10.222
56312W        W27983  41.782  23.595  12.427
56313W        W27984  20.597  18.038   2.148
56314W        W27985   8.251  19.661   1.958
56315W        W27986  31.735   3.261   4.141
56316W        W27987  18.418  26.844   2.263
56317W        W27988   1.903  15.183   4.693
56318W        W27989  24.034   9.952   4.781
56319W        W27990  10.193  30.392  12.441
56320W        W27991   1.127  41.014  10.774
56321W        W27992  36.554  14.278  12.794
56322W        W27993  44.332  18.014  13.362
56323W        W27994  28.071  24.247  11.953
56324W        W27995  30.395  16.087   3.615
56325W        W27996  14.023  15.443   4.547
56326W        W27997  42.535  29.957  11.423
56327W        W27998  39.115  34.347  12.876
56328W        W27999   2.829  22.531  12.427
56329W        W28000  39.496  41.394   1.911
56330W        W28001  26.159  38.065   0.777
56331W        W28002  29.859  15.610  11.749
56332W        W28003  43.407  42.944   1.659
56333W        W28004  31.797  15.615  10.058
56334W        W28005  17.307  40.440   1.788
56335W        W28006  14.260  10.264   2.981
56336W        W28007  10.619  25.533   0.434
56337W        W28008  41.465  43.864   4.121
56338W        W28009  39.305  30.099  12.927
56339W        W28010  18.301  20.091  11.973
56340W        W28011  31.062  12.293  11.252
56341W        W28012  35.446   6.615   3.494
56342W        W28013  41.454  23.632   4.844
56343W        W28014  26.652   3.331   3.334
56344W        W28015   9.781   3.454  11.611
56345W        W28016  22.062  12.284   2.241
56346W        W28017  33.411  20.078  10.288
56347W        W28018  25.210  10.790  11.063
56348W        W28019  36.352  44.839   4.147
56349W        W28020   0.389  14.226  12.787
56350W        W28021  44.412  23.965  11.581
56351W        W28022  13.545  43.908  12.608
56352W        W28023  10.264   2.546  12.857
56353W        W28024  21.686  39.446   3.109
56354W        W28025  11.983  32.298  14.942
56355W        W28026  22.428  43.515  14.858
56356W        W28027  13.588  27.518   2.278
56357W        W28028  20.794  17.236  12.469
56358W        W28029  40.629   0.480  14.951
56359W        W28030  24.195  38.925   0.156
56360W        W28031  21.068  14.192  14.798
56361W        W28032  30.143  33.948   3.694
56362W        W28033  14.653  18.536   0.327
56363W        W28034  34.621  42.242  13.989
56364W        W28035  44.073  33.360  10.725
56365W        W28036  12.401   9.778  13.915
56366W        W28037  17.789  42.856   1.326
56367W        W28038  27.418  20.711   1.278
56368W        W28039  29.083  32.662   1.587
56369W        W28040  31.402  27.951  14.641
56370W        W28041  26.444   0.440  13.327
56371W        W28042  22.468  34.962   2.566
56372W        W28043  15.278   8.897  12.065
56373W        W28044  25.684  20.814  13.300
56374W        W28045  27.272  38.495  11.524
56375W        W28046   8.695   2.739   0.457
56376W        W28047  27.782   6.845   4.577
56377W        W28048  13.821  31.769   2.311
56378W        W28049  44.393   8.681   4.176
56379W        W28050  24.208  34.486  12.008
56380W        W28051  28.158  28.758  11.063
56381W        W28052  30.036   8.948   2.741
56382W        W28053  34.565   1.027  13.708
56383W        W28054  31.519  15.686  11.890
56384W        W28055  12.111  14.380  11.111
56385W        W28056  10.237  24.713  13.479
56386W        W28057  28.189  26.499  13.837
56387W        W28058  16.234  43.782  12.268
56388W        W28059  19.637   6.683   1.513
56389W        W28060   8.852  42.257  14.935
56390W        W28061   2.448  17.890   3.569
56391W        W28062  39.296   5.718  14.460
56392W        W28063  34.079   2.005   1.344
56393W        W28064  20.465  39.542   2.836
56394W        W28065  40.408   3.739  12.812
56395W        W28066  44.777   8.958  13.846
56396W        W28067  15.554  42.950   4.183
56397W        W28068  31.644  13.722  11.209
56398W        W28069  43.990  13.812   4.226
56399W        W28070  13.994  28.525  13.848
56400W        W28071   0.102  15.230  14.385
56401W        W28072  21.049  43.670   3.582
56402W        W28073  19.731  20.189  14.609
56403W        W28074  37.320   0.726  13.880
56404W        W28075  26.731   2.412   4.973
56405W        W28076  18.858   2.888   4.726
56406W        W28077  28.660  37.850   3.318
56407W        W28078  36.154  20.572  13.731
56408W        W28079  44.757  37.612  12.376
56409W        W28080  41.514  13.714   3.684
56410W        W28081  14.677  17.776  13.324
56411W        W28082  34.616   3.875   1.694
56412W        W28083  42.748   0.225  12.106
56413W        W28084   2.753   5.479   1.829
56414W        W28085  35.331  19.521  11.109
56415W        W28086  24.554   2.396  12.149
56416W        W28087   5.705  34.352   2.436
56417W        W28088   4.913  43.950  12.042
56418W        W28089   1.011  31.079  11.126
56419W        W28090  15.145  43.773  13.419
56420W        W28091  37.768  39.940   1.953
56421W        W28092   6.375  14.238   4.592
56422W        W28093  32.167  44.948  11.047
56423W        W28094  17.071  28.213  10.782
56424W        W28095  14.625  16.018  12.846
56425W        W28096   1.984  23.128   0.786
56426W        W28097  13.236  12.315   4.772
56427W        W28098  22.177  22.513   1.198
56428W        W28099  35.557  13.196  14.437
56429W        W28100  23.564   7.445  13.917
56430W        W28101  38.598  15.723  13.355
56431W        W28102  44.265  11.093  13.448
56432W        W28103  38.796  22.168  14.328
56433W        W28104   9.613  10.153  13.045
56434W        W28105  35.467  15.502  14.313
56435W        W28106   8.327  24.925   2.133
56436W        W28107  22.161  10.798   3.600
56437W        W28108  15.477  37.115   4.703
56438W        W28109  22.096  14.216  10.473
56439W        W28110  33.134   7.249  12.688
56440W        W28111   2.876  19.919   2.944
56441W        W28112   1.900  29.358   3.064
56442W        W28113  33.990  32.710  13.245
56443W        W28114  30.876  12.334  13.051
56444W        W28115  20.282  27.116   1.750
56445W        W28116  35.486  33.063   4.785
56446W        W28117  44.523  10.238  13.567
56447W        W28118  26.641  30.963  10.738
56448W        W28119  12.388  20.636  12.008
56449W        W28120  37.952   5.339  11.009
56450W        W28121  19.691  30.745   1.206
56451W        W28122  23.531  33.528  11.544
56452W        W28123  15.296  23.003  11.579
56453W        W28124   9.213   4.192   0.675
56454W        W28125  13.239  40.967   3.867
56455W        W28126   1.761  33.867   3.282
56456W        W28127   2.159   6.018   2.876
56457W        W28128  26.483  32.723   0.542
56458W        W28129   2.751  36.085  13.395
56459W        W28130  22.893  14.655   1.682
56460W        W28131   9.219  16.550  12.981
56461W        W28132  31.070   4.932  13.910
56462W        W28133   8.851  44.775  14.545
56463W        W28134   8.617   1.452  12.979
56464W        W28135  35.039  17.292   4.036
56465W        W28136  29.509  17.681   2.138
56466W        W28137   1.442  25.147  14.848
56467W        W28138   9.340   1.746   2.793
56468W        W28139   6.113  17.566   0.728
56469W        W28140  29.190  24.443  12.509
56470W        W28141  18.240  15.515   1.895
56471W        W28142  19.263  26.320   2.364
56472W        W28143   3.918  25.021  10.908
56473W        W28144  34.553  40.518  14.279
56474W        W28145  33.497  31.196   3.851
56475W        W28146  17.662  36.070  12.414
56476W        W28147  25.201  17.014   2.807
56477W        W28148  37.609   5.862  12.885
56478W        W28149   3.884  24.054   3.753
56479W        W28150  13.686  15.609  10.697
56480W        W28151  28.724  14.734  12.665
56481W        W28152  44.430  17.041   2.238
56482W        W28153  18.122  22.057  14.474
56483W        W28154   1.839  40.729  12.904
56484W        W28155   5.688  23.540   1.864
56485W        W28156  40.215   7.762   4.819
56486W        W28157  11.225  33.183  11.163
56487W        W28158  33.088  43.119   0.916
56488W        W28159  20.595  21.102  13.838
56489W        W28160   2.929   5.299   2.846
56490W        W28161  10.296  44.725  13.551
56491W        W28162   9.892   0.776  14.465
56492W        W28163  27.470  43.878   0.008
56493W        W28164  44.066  29.612  11.501
56494W        W28165   6.581  39.979  12.156
56495W        W28166   8.679  39.849  13.579
56496W        W28167  40.771  27.949   1.827
56497W        W28168  29.860  40.907  10.683
56498W        W28169  35.387   0.524  14.930
56499W        W28170  44.009  20.261  14.327
56500W        W28171   1.450  30.042   1.688
56501W        W28172  32.363  10.323   1.262
56502W        W28173  15.702  36.886   3.407
56503W        W28174  12.320   8.915   4.957
56504W        W28175   2.952  24.004   2.269
56505W        W28176  24.635   1.474  11.305
56506W        W28177  39.869   7.813  11.221
56507W        W28178  42.356  36.802  13.949
56508W        W28179  32.282   2.674  11.532
56509W        W28180  40.677  36.539   4.585
56510W        W28181   7.749   1.999  12.960
56511W        W28182  25.966  27.374  13.906
56512W        W28183  14.849   0.215  10.333
56513W        W28184  24.456  30.547   4.593
56514W        W28185  31.481   3.229   2.796
56515W        W28186  13.687  43.820   1.471
56516W        W28187  21.644  12.091  13.799
56517W        W28188   1.799  21.337  14.755
56518W        W28189  42.370   2.859   0.756
56519W        W28190  10.956  28.483   1.873
56520W        W28191  17.185  32.906  13.492
56521W        W28192  43.394   0.850   4.288
56522W        W28193  33.668  30.244  13.526
56523W        W28194  12.755  16.743  13.875
56524W        W28195  17.690  40.534   3.415
56525W        W28196   0.254  18.221  11.676
56526W        W28197   1.460  16.056  14.453
56527W        W28198  38.251  13.041  11.093
56528W        W28199  36.399  43.305  12.074
56529W        W28200  15.615  10.034   1.885
56530W        W28201  25.635   0.197  11.923
56531W        W28202   8.277  42.726   1.742
56532W        W28203  34.804   0.999   0.584
56533W        W28204   6.784   0.481  14.788
56534W        W28205  32.856   2.274   3.314
56535W        W28206   7.686  24.752  10.680
56536W        W28207  18.573   7.228   4.844
56537W        W28208   3.900  34.905  10.728
56538W        W28209  25.119   8.080  11.441
56539W        W28210   8.718  18.810   4.096
56540W        W28211  38.636  24.100  14.712
56541W        W28212   0.499  16.610   1.299
56542W        W28213   0.915  44.091   4.908
56543W        W28214  26.301  20.645   3.773
56544W        W28215  22.346  17.390  14.758
56545W        W28216   6.804  36.865   0.886
56546W        W28217   8.892  42.896   2.354
56547W        W28218  19.651  44.291   4.112
56548W        W28219  37.962  28.588  12.186
56549W        W28220  29.591   2.955  12.868
56550W        W28221  34.397  39.867  11.453
56551W        W28222  44.744  32.668  14.885
56552W        W28223   1.365  36.881  12.786
56553W        W28224  17.187  31.060   2.708
56554W        W28225  11.776  44.994   4.588
56555W        W28226   1.743  28.684   2.086
56556W        W28227   1.349   0.683  11.619
56557W        W28228  34.837  35.089  12.392
56558W        W28229  29.041  36.615  10.963
56559W        W28230  36.377  16.193  11.981
56560W        W28231  29.614  44.823   4.337
56561W        W28232  11.621   6.222   1.617
56562W        W28233   1.214  17.887  12.851
56563W        W28234   1.822  30.411  11.355
56564W        W28235   1.978   3.663  14.935
56565W        W28236  14.730   3.925   0.498
56566W        W28237  17.383  14.156  12.916
56567W        W28238   5.723  25.477  13.057
56568W        W28239   3.433  31.123  14.000
56569W        W28240  33.041  43.005   2.959
56570W        W28241  42.328  37.421  12.926
56571W        W28242  27.061  34.475  12.246
56572W        W28243  12.920  10.226   0.472
56573W        W28244  39.468  17.351  13.461
56574W        W28245   5.456  28.429  10.404
56575W        W28246   3.013  35.842   4.138
56576W        W28247   7.338  42.001   4.620
56577W        W28248   0.375  37.652   3.318
56578W        W28249   0.193  40.144   4.714
56579W        W28250  15.297  12.604  12.276
56580W        W28251  33.618   4.301  10.701
56581W        W28252  37.539  17.367  11.686
56582W        W28253  37.176  29.567  13.918
56583W        W28254  20.653  40.065   5.087
56584W        W28255  44.338  23.536  13.905
56585W        W28256  11.779  26.810   1.865
56586W        W28257  28.132   5.749  11.139
56587W        W28258  28.546  36.906   3.388
56588W        W28259  34.102  44.543   1.835
56589W        W28260  15.334   5.515   2.833
56590W        W28261  12.595  31.013   1.877
56591W        W28262   2.039  14.676   3.600
56592W        W28263   5.757  30.211   0.442
56593W        W28264  17.162  25.319  12.594
56594W        W28265  40.480  29.062   3.259
56595W        W28266   3.804   7.287   0.413
56596W        W28267   3.385   3.898  14.863
56597W        W28268   3.279  30.605  14.760
56598W        W28269  33.468   1.649   1.674
56599W        W28270  26.375  38.389   2.387
56600W        W28271   9.821  10.687   3.230
56601W        W28272  10.383  34.107   4.675
56602W        W28273  44.270   9.678  11.877
56603W        W28274   5.975  29.913  11.328
56604W        W28275   0.449  31.991  12.931
56605W        W28276  13.911  34.350   3.114
56606W        W28277  15.690  43.087   3.127
56607W        W28278  31.202  13.356  14.156
56608W        W28279   6.376  24.545   1.264
56609W        W28280  19.177  12.324  10.285
56610W        W28281  37.811  10.341   1.235
56611W        W28282  28.439  13.473  14.379
56612W        W28283  26.907  10.418  11.583
56613W        W28284  38.645  34.991  11.929
56614W        W28285  27.471  43.487   4.659
56615W        W28286  38.282   2.727  12.548
56616W        W28287  19.822  38.882   1.809
56617W        W28288  23.309  31.600  13.741
56618W        W28289  37.594  19.474   3.190
56619W        W28290   8.436   9.772   1.406
56620W        W28291  31.818  36.505   2.141
56621W        W28292  38.022  43.020  12.259
56622W        W28293  24.047  10.573  13.018
56623W        W28294  29.436  15.093   3.697
56624W        W28295  30.099  17.550   2.775
56625W        W28296  32.471  27.977   3.801
56626W        W28297  26.241  29.068  14.439
56627W        W28298  40.694  27.584   4.216
56628W        W28299   5.928  26.238  12.622
56629W        W28300   3.678  28.647  14.127
56630W        W28301  12.113  36.534   1.710
56631W        W28302   5.459  26.496  11.489
56632W        W28303  11.290  44.147   2.640
56633W        W28304  26.526  26.957   4.934
56634W        W28305   0.750  15.957  10.111
56635W        W28306  13.812  16.261   2.564
56636W        W28307  44.875  21.957  14.572
56637W        W28308   5.945  14.564   4.659
56638W        W28309  35.470  17.750   3.502
56639W        W28310   7.760  43.302  14.764
56640W        W28311  31.692  18.983   0.727
56641W        W28312  44.336  12.592  12.559
56642W        W28313  15.609   7.189   0.437
56643W        W28314  39.998  29.835  11.308
56644W        W28315  21.193  42.982  11.073
56645W        W28316  12.534  17.125  10.252
56646W        W28317  32.575   9.847  12.047
56647W        W28318  25.204  29.090  12.045
56648W        W28319  22.655  38.757   3.879
56649W        W28320  19.716  14.158  10.562
56650W        W28321  19.551  27.428  12.178
56651W        W28322  27.939  42.401  10.631
56652W        W28323  15.449  28.195  14.971
56653W        W28324   0.502  42.985  10.707
56654W        W28325   7.985  32.299  14.574
56655W        W28326  20.762   1.336   1.164
56656W        W28327  10.737  11.116  12.822
56657W        W28328  44.516  44.600  12.003
56658W        W28329  27.540  31.256   0.386
56659W        W28330  15.309   6.091   1.057
56660W        W28331  18.614  15.624  11.613
56661W        W28332  23.792   5.018   3.230
56662W        W28333  39.749  43.306   4.059
56663W        W28334  40.867  28.256   4.738
56664W        W28335   9.883   2.690  13.373
56665W        W28336  16.769  20.034   2.776
56666W        W28337  35.072  22.592  14.824
56667W        W28338  25.726  16.300  11.206
56668W        W28339  12.190  32.907  11.417
56669W        W28340  24.686  21.826   0.873
56670W        W28341   7.804  33.563  14.086
56671W        W28342  29.493   2.157   2.280
56672W        W28343  42.279  39.107   2.800
56673W        W28344  27.502   6.032   1.872
56674W        W28345  23.938   6.852   2.265
56675W        W28346   8.886  11.921   2.718
56676W        W28347  12.857   8.097   1.907
56677W        W28348  40.511  16.558   1.177
56678W        W28349  30.614  26.652   4.248
56679W        W28350  41.977  23.771   2.179
56680W        W28351  41.575  39.884  13.514
56681W        W28352  34.244  15.033   3.085
56682W        W28353  14.113  19.718   1.577
56683W        W28354   2.846  35.066  11.010
56684W        W28355  14.788  13.049   4.957
56685W        W28356  12.086  21.657   3.101
56686W        W28357  40.876  40.241   0.925
56687W        W28358  30.522  25.246   0.864
56688W        W28359  26.695  13.799   0.241
56689W        W28360  11.871  20.635   1.431
56690W        W28361   1.240  17.265  12.029
56691W        W28362  43.058  43.906   0.926
56692W        W28363  11.076  32.142   0.125
56693W        W28364  12.151  24.971   1.791
56694W        W28365  28.934  26.985   4.829
56695W        W28366  25.246  33.671   4.955
56696W        W28367  29.611  14.512  11.662
56697W        W28368  17.827  42.650  14.857
56698W        W28369   7.591  36.125   4.260
56699W        W28370  37.952   8.455  12.493
56700W        W28371  18.620   7.379   4.337
56701W        W28372  27.743  36.058   2.244
56702W        W28373  30.100  39.396  10.914
56703W        W28374   7.886   2.489   3.259
56704W        W28375   5.824  42.515   1.729
56705W        W28376  42.446  18.232  13.383
56706W        W28377  13.954  30.773  13.355
56707W        W28378  23.237  29.912   0.347
56708W        W28379  30.127  22.020  12.460
56709W        W28380  24.707  11.749   2.199
56710W        W28381  16.445   7.274  10.267
56711W        W28382  43.776  36.462   2.995
56712W        W28383  37.962  33.671   3.237
56713W        W28384  39.326  31.662   0.392
56714W        W28385  25.069  44.098   4.693
56715W        W28386  42.314  44.071  13.019
56716W        W28387   7.084  12.245  13.691
56717W        W28388   5.984  35.568  13.321
56718W        W28389  39.547  26.217   1.148
56719W        W28390  41.121  24.673   0.827
56720W        W28391  30.019  38.219  14.500
56721W        W28392  29.840  41.268  12.530
56722W        W28393  33.333  28.928  14.338
56723W        W28394  42.772  39.584   0.028
56724W        W28395  27.254  20.997   0.810
56725W        W28396  24.170  35.101  13.963
56726W        W28397  25.192  20.115   1.065
56727W        W28398  41.981   1.647  10.096
56728W        W28399  10.956  18.563   0.252
56729W        W28400  38.893  13.916  10.500
56730W        W28401  40.556  14.771   3.590
56731W        W28402   0.073  31.014   4.537
56732W        W28403  13.717  31.470   0.515
56733W        W28404  35.647  14.314   4.860
56734W        W28405  36.833  24.110   0.893
56735W        W28406  32.585  27.941  13.871
56736W        W28407   5.829  42.256   3.366
56737W        W28408  30.661  32.020   1.675
56738W        W28409  26.487  11.113  12.499
56739W        W28410   3.178  18.817   0.480
56740W        W28411  33.502  13.352   2.414
56741W        W28412  43.259  44.853   2.751
56742W        W28413  33.024  11.285   0.154
56743W        W28414   1.360  33.836   4.508
56744W        W28415   8.108  36.253   0.364
56745W        W28416  34.079  36.292   3.535
56746W        W28417  27.072   5.389  12.674
56747W        W28418  25.803   6.881  12.574
56748W        W28419  23.049   4.961   2.642
56749W        W28420  16.578  18.200  13.904
56750W        W28421  18.221  33.136   0.835
56751W        W28422  11.088  10.623  10.604
56752W        W28423   5.770  44.665   1.452
56753W        W28424  22.647  41.579   3.257
56754W        W28425  17.865  10.214   3.332
56755W        W28426  42.422  20.203   4.546
56756W        W28427  25.683   8.797  12.855
56757W        W28428   0.443   0.521   1.487
56758W        W28429   2.344   1.679  11.553
56759W        W28430  30.055  42.445   2.933
56760W        W28431  26.658  24.553   2.808
56761W        W28432  16.061  20.587   3.694
56762W        W28433  31.892  22.262   1.932
56763W        W28434  10.656  30.132  12.484
56764W        W28435  35.831  37.397  11.909
56765W        W28436  25.658  19.382  12.419
56766W        W28437  24.006  30.444  12.246
56767W        W28438   2.011  21.125  10.211
56768W        W28439   0.059   5.769   1.870
56769W        W28440  23.561  29.388  11.039
56770W        W28441  42.315   3.340  12.179
56771W        W28442  24.549  40.343  13.594
56772W        W28443  44.999  42.851  11.142
56773W        W28444   1.785  11.812   2.162
56774W        W28445  19.894  16.767   1.868
56775W        W28446  34.658   9.416   1.423
56776W        W28447  18.627  38.517  12.994
56777W        W28448  17.576  13.365  11.230
56778W        W28449   5.366   1.001  12.917
56779W        W28450  12.519  34.409   4.011
56780W        W28451  28.141  28.620   3.761
56781W        W28452  31.266  34.477   3.150
56782W        W28453  44.760  23.326  12.099
56783W        W28454  19.649  12.334  10.090
56784W        W28455  22.682   4.400   4.319
56785W        W28456  43.736   3.925  13.008
56786W        W28457  13.370  43.773  13.611
56787W        W28458  37.838  25.968   2.719
56788W        W28459  11.182  18.811   2.561
56789W        W28460   8.289   4.253   0.659
56790W        W28461  19.942   7.344   4.633
56791W        W28462   1.025  35.184  11.508
56792W        W28463  34.544  28.198  11.363
56793W        W28464  22.749  16.787  10.628
56794W        W28465  32.342  23.279  12.314
56795W        W28466  28.733  13.098  14.874
56796W        W28467  23.365   2.614  11.597
56797W        W28468  13.784  14.670  11.707
56798W        W28469  42.621   3.525   2.355
56799W        W28470  16.738  38.809  12.016
56800W        W28471  29.638   7.879   2.337
56801W        W28472  19.049  12.817  13.881
56802W        W28473  43.948  25.025   3.352
56803W        W28474  21.212   7.904  12.996
56804W        W28475  29.039  24.926   3.100
56805W        W28476  29.966   2.757   0.989
56806W        W28477  20.025  15.746   0.919
56807W        W28478  36.097  26.903  14.788
56808W        W28479  28.143  21.200  10.294
56809W        W28480  36.466  40.657   1.802
56810W        W28481  43.368  33.580   3.144
56811W        W28482  38.865  28.146   4.956
56812W        W28483  35.167  18.128   3.705
56813W        W28484  34.382  22.698  12.925
56814W        W28485  24.234  41.396  11.950
56815W        W28486  36.202  27.110  11.625
56816W        W28487  32.902   2.272  11.650
56817W        W28488  42.341   7.973   1.831
56818W        W28489   9.858  33.089  14.294
56819W        W28490   6.347  32.339  13.708
56820W        W28491  18.488   4.722   1.392
56821W        W28492   9.386  16.033  12.915
56822W        W28493  15.629  10.646   0.807
56823W        W28494  21.449  41.001   4.197
56824W        W28495   8.220  20.503  10.712
56825W        W28496  16.311  41.374  10.638
56826W        W28497   3.983  39.853   4.350
56827W        W28498  43.997  22.061  12.091
56828W        W28499  28.832   3.429   4.038
56829W        W28500  38.542  38.893   4.669
56830W        W28501  38.179  25.337   2.245
56831W        W28502   7.638  34.060  14.243
56832W        W28503   0.342  11.608   3.407
56833W        W28504  34.789   8.344  11.280
56834W        W28505  38.927   9.706  10.649
56835W        W28506  39.479  15.900   1.123
56836W        W28507  27.526  44.413   1.370
56837W        W28508  30.998  19.757  12.036
56838W        W28509  37.365  37.399  13.555
56839W        W28510  29.559  30.516   3.614
56840W        W28511   3.498  16.043  12.447
56841W        W28512  41.517  42.417  11.898
56842W        W28513  30.957  30.131   1.977
56843W        W28514  27.876  26.098  13.777
56844W        W28515  39.854   7.670  14.982
56845W        W28516   2.132  19.635  13.868
56846W        W28517   3.844  17.917  10.956
56847W        W28518  25.532   5.510  14.456
56848W        W28519  18.148  17.340  11.229
56849W        W28520   0.056  44.005   0.928
56850W        W28521  33.275  11.287   1.278
56851W        W28522   5.004  42.995   4.556
56852W        W28523  32.138  38.014  12.382
56853W        W28524   3.263   1.783   3.193
56854W        W28525   6.302  33.368   2.210
56855W        W28526  20.544   3.923  11.815
56856W        W28527  31.374   4.773   1.230
56857W        W28528   4.421  11.993   4.582
56858W        W28529   7.294   8.336   4.005
56859W        W28530  41.812  40.487   3.256
56860W        W28531  27.728  42.983  13.384
56861W        W28532  16.972  31.837   1.248
56862W        W28533   2.223  18.488   0.463
56863W        W28534  11.768  16.659   4.141
56864W        W28535  25.739  16.489  14.051
56865W        W28536  19.738  26.942  11.967
56866W        W28537  22.205   4.751   3.937
56867W        W28538   2.916  17.133   1.922
56868W        W28539  33.136  30.570  12.351
56869W        W28540   3.942  42.878  10.605
56870W        W28541  31.956  23.274   3.558
56871W        W28542  40.693   7.053  13.394
56872W        W28543  19.794   2.503  12.929
56873W        W28544  37.165  32.651   0.511
56874W        W28545   8.067   9.045   3.268
56875W        W28546  32.710  43.926  11.920
56876W        W28547  30.386  11.265  14.789
56877W        W28548  24.906  26.555  12.988
56878W        W28549  36.269  33.066  11.433
56879W        W28550   7.161  27.375  14.926
56880W        W28551  15.770  27.607  13.463
56881W        W28552  35.937  40.667  13.855
56882W        W28553  33.395  14.391  13.555
56883W        W28554   4.180  20.128   4.823
56884W        W28555   7.743  13.232  13.252
56885W        W28556   9.178  24.754   4.153
56886W        W28557  35.789  28.438   4.622
56887W        W28558   8.539   3.233  14.543
56888W        W28559   1.962  36.961   0.030
56889W        W28560  33.913  29.733   2.803
56890W        W28561  12.611  23.196   0.729
56891W        W28562  37.145  24.051   4.485
56892W        W28563  22.667  27.384  11.188
56893W        W28564  31.672  42.250  11.607
56894W        W28565   1.331   3.835   0.700
56895W        W28566  18.167  13.841   2.541
56896W        W28567  39.435  32.964   3.643
56897W        W28568  41.976   8.349   3.702
56898W        W28569  20.664   8.122   4.339
56899W        W28570   5.670  17.378  14.476
56900W        W28571  30.606  38.935  14.370
56901W        W28572  18.551   7.777  10.735
56902W        W28573   7.964  28.912  10.400
56903W        W28574   5.916  13.691   1.762
56904W        W28575  39.896  13.181  11.007
56905W        W28576  33.879  21.523  11.291
56906W        W28577  19.530   0.885  12.494
56907W        W28578  29.710  12.755   1.154
56908W        W28579   4.985   9.785  13.820
56909W        W28580  28.632  42.841  14.871
56910W        W28581  10.994  30.184   0.835
56911W        W28582  31.940  18.152   4.276
56912W        W28583  31.781   5.650  14.633
56913W        W28584   5.386  26.991  10.727
56914W        W28585  10.155  23.641  11.431
56915W        W28586  44.966  27.969   2.156
56916W        W28587  39.325  44.335  12.521
56917W        W28588  38.919  37.624  11.902
56918W        W28589  38.363  19.250  12.482
56919W        W28590  32.553  22.067   0.515
56920W        W28591  16.670  37.634   1.164
56921W        W28592  22.123  24.937   1.830
56922W        W28593  43.457  25.420  11.937
56923W        W28594   3.860  17.830   4.543
56924W        W28595  44.616  12.328   9.885
56925W        W28596  29.418  31.999  10.203
56926W        W28597  25.854  13.153   1.821
56927W        W28598   9.830  20.044   2.665
56928W        W28599   6.747  13.551  14.782
56929W        W28600  30.441  22.615  13.990
56930W        W28601  34.288   7.280   1.456
56931W        W28602   5.888  36.364  12.149
56932W        W28603  25.485  26.300  10.656
56933W        W28604   6.797  41.911  12.116
56934W        W28605  41.437   9.329   0.298
56935W        W28606  22.085  31.438  10.697
56936W        W28607  43.973  19.278   4.637
56937W        W28608  30.663   3.761   4.555
56938W        W28609  33.080  10.286   1.858
56939W        W28610  27.230  34.429   0.840
56940W        W28611  26.745  32.093   3.359
56941W        W28612  38.632   4.959  13.911
56942W        W28613  14.170  43.481   3.652
56943W        W28614  40.557  39.804   2.137
56944W        W28615  25.755  19.365   3.837
56945W        W28616  30.497  15.843  13.391
56946W        W28617  34.572   9.371   4.727
56947W        W28618  19.668  44.680  13.403
56948W        W28619   4.736  32.675  12.386
56949W        W28620  35.067  38.999  12.363
56950W        W28621  22.966   4.787   4.550
56951W        W28622  36.592  38.500   1.495
56952W        W28623  43.216  39.937  10.236
56953W        W28624  39.958  33.886   2.789
56954W        W28625  27.016  33.549  14.702
56955W        W28626  31.686  27.105  13.591
56956W        W28627  10.366  32.033  10.563
56957W        W28628  28.989  32.423  12.912
56958W        W28629  43.251   1.523   3.673
56959W        W28630  34.164  14.044   1.844
56960W        W28631  26.562  43.487  11.209
56961W        W28632  28.642  21.198   2.287
56962W        W28633   1.589  19.264  12.996
56963W        W28634  33.410   3.908  10.383
56964W        W28635  12.772  11.787  14.548
56965W        W28636   6.709  42.033   1.871
56966W        W28637   4.461  28.832   1.889
56967W        W28638  25.139  12.713   1.947
56968W        W28639  28.458  39.628  13.531
56969W        W28640  32.029  23.365  11.064
56970W        W28641   4.020  39.651   0.746
56971W        W28642   3.691  27.508   5.010
56972W        W28643  40.440   7.356  10.733
56973W        W28644  31.865   4.426  11.165
56974W        W28645   7.468  14.444  12.303
56975W        W28646  23.648  23.767   0.384
56976W        W28647  22.265  30.194  11.237
56977W        W28648  27.650  18.633  12.854
56978W        W28649   1.387  32.057  11.478
56979W        W28650  32.309  22.524  12.967
56980W        W28651   3.382  27.174  14.522
56981W        W28652  41.306  26.465   2.494
56982W        W28653   5.936  43.655   0.586
56983W        W28654  11.674  22.488   3.214
56984W        W28655  40.315  40.818   4.122
56985W        W28656  33.010  32.018  13.481
56986W        W28657  16.321   1.749  11.712
56987W        W28658  35.849  35.519   3.683
56988W        W28659  32.692  28.917  12.528
56989W        W28660   6.060   5.427  11.545
56990W        W28661  23.648  38.425  14.983
56991W        W28662  30.907  42.472  11.634
56992W        W28663   8.252  13.863   1.693
56993W        W28664  31.898  22.486  11.891
56994W        W28665  40.119  27.647  14.742
56995W        W28666  34.676  38.302  12.633
56996W        W28667  19.262  18.068   2.284
56997W        W28668  13.035  38.779   3.125
56998W        W28669  11.100  44.226  14.798
56999W        W28670  35.905   6.067  11.919
57000W        W28671  40.091  17.706  14.572
57001W        W28672  13.307   8.113   2.553
57002W        W28673  39.376  40.314   2.760
57003W        W28674  25.437  26.931   1.688
57004W        W28675  24.694  37.165   0.419
57005W        W28676  36.390   4.543  10.858
57006W        W28677  21.761  37.492   4.162
57007W        W28678  33.190   3.762  12.027
57008W        W28679  33.413  10.639   2.736
57009W        W28680  19.733   8.852  14.242
57010W        W28681  34.005  13.293  10.604
57011W        W28682  11.043  31.989   4.823
57012W        W28683  24.231   1.158  11.151
57013W        W28684  10.173  20.496  13.595
57014W        W28685  41.890  22.517   0.838
57015W        W28686   4.561  33.230  11.997
57016W        W28687  11.265  26.231  10.702
57017W        W28688  20.984  19.780   0.358
57018W        W28689   9.796  14.596  14.275
57019W        W28690  41.387  24.505  10.668
57020W        W28691  35.441  37.378   0.955
57021W        W28692  38.002  14.233  12.782
57022W        W28693  23.906  41.547  11.179
57023W        W28694  39.019   9.056   2.004
57024W        W28695  41.568  41.490  11.947
57025W        W28696  38.797  26.123   4.055
57026W        W28697   5.886   8.883  12.540
57027W        W28698   8.038  21.671   3.752
57028W        W28699  17.115   0.427   0.236
57029W        W28700  32.679  43.870   1.451
57030W        W28701   3.891  35.926   2.860
57031W        W28702  17.745  27.589   4.107
57032W        W28703  17.193   0.909   0.491
57033W        W28704  12.276   9.859   1.856
57034W        W28705  31.121   5.737  12.451
57035W        W28706  40.524  11.730  11.700
57036W        W28707   3.004  27.262   1.383
57037W        W28708  19.205  43.084   4.147
57038W        W28709  39.641  20.470  12.167
57039W        W28710  20.207   8.947  10.694
57040W        W28711  33.473  40.745  11.483
57041W        W28712  17.140  30.167   2.657
57042W        W28713  13.917  30.664   4.309
57043W        W28714  43.594  39.380  10.710
57044W        W28715   9.691  29.127  13.955
57045W        W28716   6.058  44.890   3.699
57046W        W28717  33.079  36.382  10.893
57047W        W28718   6.880   6.818   2.170
57048W        W28719  11.266  11.545  13.495
57049W        W28720  16.641  24.174  13.058
57050W        W28721   1.495  12.244  13.800
57051W        W28722  15.547  13.892  11.081
57052W        W28723  22.528  40.087   3.364
57053W        W28724  37.976  16.633   0.644
57054W        W28725  34.828  10.669  12.969
57055W        W28726  18.340  12.294   0.810
57056W        W28727  37.576  18.683   1.277
57057W        W28728  35.525  13.319   1.020
57058W        W28729  36.501  37.589  13.528
57059W        W28730  41.072  22.720  14.406
57060W        W28731  24.845  39.326   4.817
57061W        W28732  19.234  40.059   5.052
57062W        W28733  42.292  13.778   0.212
57063W        W28734  21.587  44.180   9.902
57064W        W28735   3.527   9.883  11.046
57065W        W28736  20.832   9.420  14.431
57066W        W28737  40.582   6.935  12.064
57067W        W28738  24.453  19.721   0.362
57068W        W28739  36.864  32.473   4.294
57069W        W28740  20.949  34.407  12.168
57070W        W28741  12.731  20.869  13.236
57071W        W28742  42.710  23.738  11.139
57072W        W28743  26.060  12.265   3.426
57073W        W28744   2.137  25.043  10.346
57074W        W28745  39.330  17.309   4.074
57075W        W28746  24.234  24.559  11.208
57076W        W28747   0.118  36.106   1.637
57077W        W28748   4.720  25.125  10.412
57078W        W28749  37.513  41.383   1.032
57079W        W28750  27.031   0.952  14.493
57080W        W28751  20.236   7.338  12.933
57081W        W28752  24.248   2.488   2.393
57082W        W28753  35.095   1.360  11.313
57083W        W28754  26.747  32.538   2.966
57084W        W28755  14.126   5.582  14.948
57085W        W28756  39.087  44.068  11.576
57086W        W28757  31.613  28.615  13.856
57087W        W28758   3.724  36.093   0.479
57088W        W28759  39.025  38.147  13.197
57089W        W28760  25.111  29.904  12.936
57090W        W28761  16.652  29.459   0.789
57091W        W28762  37.933  40.941   3.186
57092W        W28763  33.710  30.592   4.711
57093W        W28764  19.091   0.233   4.742
57094W        W28765  13.802  41.796   4.734
57095W        W28766  35.513  29.350   3.357
57096W        W28767  34.537  40.813  13.476
57097W        W28768  24.012  32.136  13.481
57098W        W28769  12.303  25.495   3.590
57099W        W28770  23.684  38.099  14.173
57100W        W28771  44.313  28.021   2.829
57101W        W28772  26.034  43.045  14.735
57102W        W28773   1.729  23.920   1.855
57103W        W28774  30.734   8.211   1.153
57104W        W28775  44.534   2.148   1.448
57105W        W28776  33.362  23.950  11.058
57106W        W28777  24.616  39.798   0.277
57107W        W28778  21.146  30.670   1.390
57108W        W28779  39.198  36.980  14.493
57109W        W28780   0.880   1.993   3.574
57110W        W28781  42.289  37.312   9.938
57111W        W28782  26.016   7.776  10.619
57112W        W28783  23.705  20.040  14.742
57113W        W28784   4.779   8.200  12.941
57114W        W28785  21.705   1.799   1.488
57115W        W28786  14.580   1.294  14.013
57116W        W28787   1.169  39.608  13.078
57117W        W28788  34.561  16.812   1.313
57118W        W28789  42.854  20.939   0.378
57119W        W28790  42.246  43.671  11.643
57120W        W28791  13.878   7.688   4.674
57121W        W28792  42.867  26.968   4.652
57122W        W28793  28.526   9.387  11.605
57123W        W28794  41.911  34.595   4.555
57124W        W28795   2.332   6.452   0.915
57125W        W28796  24.929  15.276  11.154
57126W        W28797  41.848   9.658   0.170
57127W        W28798  13.083   9.338   1.076
57128W        W28799  38.462   2.761   1.959
57129W        W28800   7.219  33.015  11.807
57130W        W28801  22.168  15.470   4.898
57131W        W28802  27.152  38.507   0.323
57132W        W28803  27.871  43.397  13.647
57133W        W28804   4.490  36.999  11.399
57134W        W28805  26.532  24.265  13.404
57135W        W28806  39.269  25.513   1.461
57136W        W28807  17.357  27.837   4.367
57137W        W28808   6.163  34.941  14.979
57138W        W28809  16.322  43.760   0.469
57139W        W28810  19.933  14.087  11.484
57140W        W28811  31.329   4.733  10.457
57141W        W28812  43.726  10.412   2.636
57142W        W28813  15.743  23.663   4.632
57143W        W28814  24.479  15.359   1.704
57144W        W28815   3.018   2.292  12.997
57145W        W28816   6.541  43.328   2.762
57146W        W28817  37.605  20.277  11.142
57147W        W28818  36.843  44.722  14.883
57148W        W28819  24.450  26.074  14.938
57149W        W28820   8.378  21.582  14.465
57150W        W28821  32.914  28.851   1.391
57151W        W28822  30.751  24.306   2.424
57152W        W28823   3.402   6.659   4.021
57153W        W28824   3.840  29.585   4.416
57154W        W28825  12.308   5.351  14.058
57155W        W28826  14.672  16.601   3.642
57156W        W28827  42.504   7.245  14.832
57157W        W28828  33.228   3.010  12.883
57158W        W28829  43.094  12.447   3.688
57159W        W28830  13.416   5.109   1.360
57160W        W28831   4.905  29.997  13.436
57161W        W28832   2.199  43.805   1.754
57162W        W28833   7.823  23.338  11.255
57163W        W28834  27.702  40.431   1.357
57164W        W28835  24.056  29.024  12.525
57165W        W28836  42.449  20.957   5.094
57166W        W28837   7.349  43.887  14.349
57167W        W28838  27.991  10.854   0.673
57168W        W28839  14.611  18.675   4.350
57169W        W28840  23.706  36.069   2.723
57170W        W28841   7.780  21.562  12.644
57171W        W28842  30.941  20.221   2.111
57172W        W28843  33.134  26.091   4.392
57173W        W28844   3.334  38.288   0.493
57174W        W28845  32.659  40.579  13.404
57175W        W28846  13.465   8.135  10.412
57176W        W28847  14.820  26.040  11.394
57177W        W28848  38.337  34.338  13.528
57178W        W28849  31.177  38.282  12.458
57179W        W28850  31.327  40.841   3.701
57180W        W28851   2.822  26.896   3.131
57181W        W28852  12.075  24.041   1.815
57182W        W28853  18.153  20.496  10.710
57183W        W28854  42.891  11.131   2.201
57184W        W28855  13.674  31.415  11.252
57185W        W28856  41.799  30.455   3.206
57186W        W28857   6.226  13.872   4.201
57187W        W28858  17.858  10.789   1.623
57188W        W28859   9.430  19.676  12.605
57189W        W28860   8.086  15.296  11.031
57190W        W28861   3.153  23.282  14.304
57191W        W28862   9.319  21.632   2.299
57192W        W28863  11.882  39.421  13.814
57193W        W28864   2.838  13.865   3.642
57194W        W28865  43.868  22.992  13.531
57195W        W28866  43.953  41.332   4.133
57196W        W28867  39.435  11.947  10.860
57197W        W28868   0.205  41.172  12.198
57198W        W28869  37.216  37.117  14.531
57199W        W28870   7.495  43.257   1.743
57200W        W28871  21.470  14.670   2.784
57201W        W28872  20.800  26.434   3.295
57202W        W28873  15.912  17.289   2.870
57203W        W28874  42.770   1.657   2.380
57204W        W28875   6.411  41.946   4.366
57205W        W28876  20.001   7.305  12.102
57206W        W28877  29.054  17.859   3.820
57207W        W28878  20.994  36.351  14.458
57208W        W28879   6.860  35.153  11.196
57209W        W28880   3.649  14.290   3.157
57210W        W28881  16.139  34.706  12.832
57211W        W28882  38.492  31.452  11.996
57212W        W28883  17.739  40.598   0.702
57213W        W28884   0.987   5.971   0.816
57214W        W28885   7.747  33.127   0.362
57215W        W28886  23.679  16.919  13.451
57216W        W28887  36.143  34.626   1.442
57217W        W28888   2.731  21.047   4.563
57218W        W28889   2.264  38.082   4.839
57219W        W28890  32.473  29.031   1.625
57220W        W28891  40.567  16.346   4.631
57221W        W28892  32.165  10.476   1.724
57222W        W28893  19.733  32.775  13.271
57223W        W28894  30.016   0.378  14.262
57224W        W28895  23.675   4.124  14.045
57225W        W28896  40.956  25.901  10.801
57226W        W28897  37.761  26.665   4.241
57227W        W28898   6.032  37.802   3.915
57228W        W28899  18.608  21.343   4.600
57229W        W28900  32.009  37.517   2.113
57230W        W28901  15.693  15.583   1.442
57231W        W28902  34.719  32.002  10.900
57232W        W28903  17.722   0.199  12.982
57233W        W28904  16.260   1.584  11.043
57234W        W28905  10.668  31.612  12.627
57235W        W28906  22.174  41.289   4.433
57236W        W28907  39.403  44.516   3.705
57237W        W28908   3.303  22.756  11.406
57238W        W28909  26.175   9.908  13.767
57239W        W28910  13.388  21.110   4.263
57240W        W28911   7.733  31.056  11.486
57241W        W28912  12.872   9.201  14.263
57242W        W28913   5.002   7.338   4.712
57243W        W28914  34.683  20.563  13.987
57244W        W28915   5.668  41.387   3.162
57245W        W28916  40.342  39.315  14.825
57246W        W28917  30.480  24.158   0.257
57247W        W28918  42.881  17.699  12.545
57248W        W28919  30.375  21.606  14.993
57249W        W28920  37.629  28.663   3.251
57250W        W28921  35.825  38.082   0.948
57251W        W28922  38.964  16.652   3.382
57252W        W28923  15.647  35.076   1.841
57253W        W28924  16.321  27.152  14.856
57254W        W28925  38.536  35.078   1.245
57255W        W28926   6.794   4.770   2.335
57256W        W28927  36.343   0.474   3.098
57257W        W28928  42.838  24.150   4.965
57258W        W28929  41.613   4.505   3.504
57259W        W28930  44.322  29.036  11.674
57260W        W28931  16.209  19.695   3.184
57261W        W28932   9.078   5.335   2.338
57262W        W28933  26.465  20.169   1.636
57263W        W28934  17.360  43.408  11.568
57264W        W28935  29.108  38.356  13.025
57265W        W28936  36.448  25.876   3.859
57266W        W28937  12.599  28.211   2.364
57267W        W28938  10.617  28.087   1.989
57268W        W28939  44.379  42.262   1.997
57269W        W28940  41.849  12.857   2.639
57270W        W28941  20.208   4.646   0.932
57271W        W28942  43.281  12.821  12.635
57272W        W28943  30.225  17.160  12.565
57273W        W28944   2.036   7.915  10.491
57274W        W28945   3.532   7.273  14.033
57275W        W28946  31.696  34.999   2.941
57276W        W28947  21.964  43.319  14.824
57277W        W28948  32.641  14.810   0.417
57278W        W28949  24.581   4.427  12.181
57279W        W28950  21.540   9.685   3.831
57280W        W28951  30.172  18.271   0.783
57281W        W28952  21.465   9.079   1.152
57282W        W28953  42.448  22.469   2.212
57283W        W28954   3.666   4.664   2.760
57284W        W28955  37.499   4.200  12.983
57285W        W28956  42.287  32.841   1.766
57286W        W28957   2.323  16.550   3.380
57287W        W28958  28.683  19.239   3.785
57288W        W28959  23.240  20.067   0.256
57289W        W28960  39.770  32.298  10.717
57290W        W28961   9.417  42.776   0.895
57291W        W28962  31.439   9.326  12.783
57292W        W28963  11.869  24.246  10.216
57293W        W28964   6.029  29.382  11.988
57294W        W28965  30.494  34.149   2.791
57295W        W28966   9.816  24.731  14.356
57296W        W28967  17.217   7.241   9.871
57297W        W28968  19.980  30.726  12.367
57298W        W28969  44.074  36.284  11.168
57299W        W28970  29.884  28.586   2.676
57300W        W28971   5.212  23.102  10.599
57301W        W28972  21.766  29.045   1.635
57302W        W28973  42.508  26.889  11.562
57303W        W28974  14.845  13.782  13.117
57304W        W28975  13.564  25.183   4.211
57305W        W28976  22.055  11.868  14.024
57306W        W28977  32.886   3.313  13.912
57307W        W28978  18.899  16.775  13.895
57308W        W28979  35.427  20.202  11.321
57309W        W28980  12.882   0.610   4.226
57310W        W28981  21.028  29.746   1.213
57311W        W28982   4.296  17.294   2.890
57312W        W28983  25.066  25.962   1.887
57313W        W28984  33.427   9.340   0.729
57314W        W28985  14.286  18.083  12.571
57315W        W28986  19.300  29.458  13.073
57316W        W28987   7.608  26.922   4.775
57317W        W28988  33.295  34.136   2.600
57318W        W28989  32.531   0.286   2.323
57319W        W28990  16.604  41.832  13.333
57320W        W28991  29.468  10.564   1.127
57321W        W28992  19.136  14.399   5.426
57322W        W28993  23.887   0.641   3.684
57323W        W28994  11.826   5.415  12.794
57324W        W28995  29.965  24.244   2.517
57325W        W28996  18.766   5.966   2.171
57326W        W28997  42.574  42.997   1.336
57327W        W28998  44.073   1.964   2.688
57328W        W28999  28.578  28.884   3.806
57329W        W29000  30.194  20.065  12.188
57330W        W29001   8.370  26.685  11.587
57331W        W29002  19.394   3.970  12.434
57332W        W29003  41.869   8.595   2.862
57333W        W29004  14.126  35.309   4.196
57334W        W29005  14.788  16.550  11.630
57335W        W29006   8.800  12.265   0.750
57336W        W29007  31.776  19.301   2.537
57337W        W29008  14.909  42.315  12.948
57338W        W29009  31.483  31.117  13.014
57339W        W29010  39.465  13.513   0.219
57340W        W29011   1.034  26.232  14.416
57341W        W29012   0.917  44.484  11.281
57342W        W29013  18.848   5.746  12.919
57343W        W29014  15.749   8.180  12.135
57344W        W29015  14.642  11.880  12.049
57345W        W29016  38.320  13.025   4.851
57346W        W29017  33.878  39.554   4.964
57347W        W29018  10.025  16.145  14.793
57348W        W29019   6.901  24.196  14.893
57349W        W29020  39.523  12.678   2.594
57350W        W29021   6.556  18.739   4.599
57351W        W29022  20.107  44.150   0.889
57352W        W29023  26.050  10.683   0.184
57353W        W29024  32.291  21.363  10.703
57354W        W29025  33.597   7.705  14.812
57355W        W29026   8.487  14.156   4.806
57356W        W29027  29.099  38.055   1.550
57357W        W29028  38.017  13.398  10.821
57358W        W29029  25.666  11.115   3.700
57359W        W29030  44.809   9.523   1.133
57360W        W29031  17.531  28.988   4.278
57361W        W29032   2.535  17.008   1.563
57362W        W29033  18.344   8.736   4.572
57363W        W29034  42.369  22.406  14.239
57364W        W29035   6.361  14.110  13.985
57365W        W29036   4.816  17.152   2.767
57366W        W29037  33.828  41.310   0.447
57367W        W29038  44.952  25.258   2.805
57368W        W29039  33.932  44.698  14.787
57369W        W29040  41.650  17.242  13.827
57370W        W29041  27.219  23.951  12.757
57371W        W29042  42.783  21.700  10.250
57372W        W29043  21.319  24.761   4.303
57373W        W29044  35.876  39.934   0.526
57374W        W29045  20.657  37.720  11.646
57375W        W29046  12.805  22.767   1.017
57376W        W29047  43.426  17.484   4.898
57377W        W29048  34.199  24.940  12.991
57378W        W29049  40.282  39.736  13.346
57379W        W29050  12.019  43.126  12.328
57380W        W29051  10.071   3.706  10.701
57381W        W29052  35.793  21.963  11.222
57382W        W29053  28.082  36.645  13.938
57383W        W29054  31.773  33.989  12.529
57384W        W29055  10.230  22.429  11.199
57385W        W29056  14.672  31.378  13.416
57386W        W29057   5.620  21.583   3.127
57387W        W29058   4.962   7.245  14.779
57388W        W29059  43.816  22.500  10.262
57389W        W29060  32.545  30.172  11.359
57390W        W29061  24.099  21.074  12.716
57391W        W29062  30.515  13.086   0.217
57392W        W29063   6.174  21.571  13.399
57393W        W29064  39.214  13.238   3.678
57394W        W29065   2.011  23.301   5.051
57395W        W29066  10.452  20.006   0.349
57396W        W29067   0.799   2.458  14.881
57397W        W29068  22.127  42.207  14.876
57398W        W29069  12.854  26.546   0.879
57399W        W29070  15.655  41.592   1.509
57400W        W29071   8.403  40.548   0.503
57401W        W29072  17.907  14.191  10.418
57402W        W29073  16.172  23.622   1.070
57403W        W29074  26.411   4.170  11.128
57404W        W29075  42.997  39.867   4.972
57405W        W29076  24.123  19.118  11.577
57406W        W29077  14.367  28.271  14.135
57407W        W29078  34.377   1.220   0.389
57408W        W29079  30.467  28.450  10.684
57409W        W29080  11.481  31.973  11.131
57410W        W29081  28.178  21.483   4.544
57411W        W29082   0.307  12.101   4.207
57412W        W29083  16.043  13.142  12.104
57413W        W29084  12.152  40.562  12.351
57414W        W29085  24.737  31.602  13.082
57415W        W29086  36.668  12.376   3.231
57416W        W29087  13.147  25.124   5.127
57417W        W29088  29.212   4.973  14.930
57418W        W29089  20.503  26.194  12.075
57419W        W29090  17.042   8.429   1.408
57420W        W29091  34.611   9.747  11.086
57421W        W29092  23.914  11.888  10.012
57422W        W29093  26.573   9.878  11.521
57423W        W29094  24.174  30.194   0.492
57424W        W29095  20.124  36.302  14.090
57425W        W29096  36.446  28.447  14.537
57426W        W29097  35.500  25.501  12.119
57427W        W29098  15.688  27.663   1.587
57428W        W29099  33.846  36.495   2.239
57429W        W29100  41.282  18.536   0.324
57430W        W29101  42.137  35.158  11.972
57431W        W29102  22.538  24.098   2.967
57432W        W29103  32.449  12.558   2.229
57433W        W29104   8.881  34.006   0.918
57434W        W29105  21.012   4.419  14.473
57435W        W29106  39.013   6.519  12.478
57436W        W29107  36.069   1.332   4.605
57437W        W29108  40.703  44.388   3.303
57438W        W29109  29.902   0.032   3.553
57439W        W29110  19.623  38.578  14.049
57440W        W29111  19.146  44.714  14.857
57441W        W29112  23.449  18.192  13.504
57442W        W29113  14.394  23.951  13.345
57443W        W29114   1.768  31.477   3.062
57444W        W29115  32.130  13.201   1.750
57445W        W29116  25.894  43.916   2.676
57446W        W29117   9.840  10.822   1.171
57447W        W29118  14.557  12.874  13.970
57448W        W29119  34.950  39.920   1.954
57449W        W29120  43.876  24.720   4.519
57450W        W29121   2.043  17.505  11.557
57451W        W29122  43.705  37.207  10.896
57452W        W29123   7.341  13.522   0.492
57453W        W29124   2.802  13.071  10.405
57454W        W29125  22.181  29.120   2.401
57455W        W29126  39.885   4.509   0.288
57456W        W29127  10.323  35.542  10.213
57457W        W29128  22.459  24.998  12.937
57458W        W29129  37.950  22.036   2.389
57459W        W29130   6.384  43.978  10.083
57460W        W29131   7.506   5.688   4.561
57461W        W29132  11.672   3.969   1.263
57462W        W29133  30.208  19.807   3.592
57463W        W29134   6.230  42.337   0.431
57464W        W29135  29.992   9.708  12.313
57465W        W29136  17.177  36.002   4.368
57466W        W29137  44.453  44.304  12.449
57467W        W29138  42.728  13.144  13.768
57468W        W29139  28.958  29.696  11.016
57469W        W29140  16.948   5.149   9.770
57470W        W29141  26.528   7.870  10.609
57471W        W29142  13.063   2.038   1.347
57472W        W29143  23.740   5.631   0.995
57473W        W29144  27.377  20.655  11.168
57474W        W29145  10.185  42.214  14.794
57475W        W29146   7.193  42.395  11.522
57476W        W29147  26.555  13.335   2.415
57477W        W29148  17.874  13.137  12.702
57478W        W29149   8.666  16.505   4.529
57479W        W29150  28.715  21.202  11.158
57480W        W29151  31.145  23.757  12.660
57481W        W29152  28.867  41.837   0.444
57482W        W29153   6.707  28.785   3.895
57483W        W29154  22.377  28.156  12.307
57484W        W29155   9.814  12.453   4.459
57485W        W29156  14.778  23.454  12.553
57486W        W29157  22.946  41.792   1.922
57487W        W29158  40.507  14.364   2.135
57488W        W29159  30.078   7.389  10.200
57489W        W29160  36.962  37.077  10.563
57490W        W29161   3.154  40.054  10.697
57491W        W29162  41.474  16.390   1.772
57492W        W29163  42.560  40.597   4.039
57493W        W29164  36.986  11.721  13.500
57494W        W29165   4.889  42.485  12.127
57495W        W29166  38.902  22.327   0.871
57496W        W29167  43.081  14.297   4.713
57497W        W29168  14.243   1.749   2.906
57498W        W29169  10.726  31.361  14.902
57499W        W29170  23.933  36.465  13.838
57500W        W29171  19.717  37.874   5.270
57501W        W29172   8.047  20.758  11.125
57502W        W29173  23.250  18.854   0.769
57503W        W29174  18.311  17.995  14.223
57504W        W29175  13.275  18.729   0.730
57505W        W29176  32.993  34.550   2.744
57506W        W29177   9.897  10.289   2.440
57507W        W29178  39.231  42.592  14.800
57508W        W29179  25.669  20.611   1.453
57509W        W29180  14.687  29.005   1.492
57510W        W29181  35.816  11.180  12.106
57511W        W29182  14.140   6.105   9.792
57512W        W29183   5.324  32.179   3.744
57513W        W29184  16.192  42.533  12.828
57514W        W29185  32.407  12.714  13.787
57515W        W29186  13.804   2.791   1.963
57516W        W29187  36.918   2.177   4.958
57517W        W29188  10.195  28.021   4.635
57518W        W29189  26.464  10.828   3.328
57519W        W29190  37.374  20.328  13.798
57520W        W29191  23.921  15.053   4.272
57521W        W29192  25.125   5.369   3.883
57522W        W29193  44.673  33.624  11.468
57523W        W29194   5.264  15.053   1.372
57524W        W29195  43.723  35.372   2.821
57525W        W29196  26.178  44.077  14.782
57526W        W29197  29.739  16.759   4.587
57527W        W29198  23.959  36.900  10.849
57528W        W29199  42.034  21.735   3.005
57529W        W29200  29.142  13.622   1.391
57530W        W29201  35.896  23.438   2.438
57531W        W29202  21.790  27.946  11.478
57532W        W29203  17.681  43.911   4.236
57533W        W29204  17.288  22.513  12.497
57534W        W29205  13.369  13.878  13.898
57535W        W29206  42.932  11.180   3.090
57536W        W29207  20.294  44.679  10.126
57537W        W29208  38.770  13.108  12.139
57538W        W29209  16.151   4.347  14.021
57539W        W29210   6.511  30.417  14.476
57540W        W29211  16.352  36.328   4.316
57541W        W29212  22.684  14.600  14.404
57542W        W29213  16.835  38.828   1.656
57543W        W29214   8.476  34.889  13.354
57544W        W29215  40.000  13.639  11.744
57545W        W29216  34.591  11.668   1.512
57546W        W29217  19.256   9.085  11.606
57547W        W29218  44.248  44.719  13.413
57548W        W29219  43.186   3.264  12.102
57549W        W29220  20.306  38.244  10.980
57550W        W29221  12.496  43.046  12.528
57551W        W29222  25.011  20.830   2.902
57552W        W29223  24.770  24.098  12.857
57553W        W29224  10.269  37.281  12.397
57554W        W29225  15.193  28.731   2.237
57555W        W29226  25.814   6.230  10.482
57556W        W29227  36.520   2.692   2.824
57557W        W29228   6.932  17.721   0.733
57558W        W29229  37.070  21.092  12.806
57559W        W29230   9.754   8.635   0.860
57560W        W29231  36.135  18.709  14.296
57561W        W29232  28.205   8.806   0.035
57562W        W29233  11.545  40.395   3.776
57563W        W29234  18.794  16.432  14.851
57564W        W29235  11.860  39.291   0.624
57565W        W29236  41.526  11.296  12.556
57566W        W29237  11.181  20.625   2.560
57567W        W29238  26.663   8.101   0.973
57568W        W29239  36.986  10.819  13.532
57569W        W29240  43.495   9.807   4.349
57570W        W29241  26.058  18.657   2.223
57571W        W29242  15.014  11.627  10.433
57572W        W29243  17.382  39.478   3.669
57573W        W29244  40.290   8.542  13.596
57574W        W29245  44.816  29.207   4.796
57575W        W29246  23.047  34.048  11.512
57576W        W29247  40.850  21.367   4.094
57577W        W29248  21.597  44.276   2.354
57578W        W29249  39.882  43.312   0.759
57579W        W29250  34.009  32.617   3.243
57580W        W29251  11.002  12.542   3.301
57581W        W29252  37.520  20.915  12.992
57582W        W29253   6.152   6.735   1.414
57583W        W29254   8.447  30.523   2.433
57584W        W29255   0.988   3.006   0.935
57585W        W29256  34.626  42.282   2.305
57586W        W29257  13.817  30.646   1.031
57587W        W29258  31.652  32.589   1.788
57588W        W29259  33.879   7.088   2.974
57589W        W29260  13.173  42.183   2.474
57590W        W29261  42.526  38.439  13.239
57591W        W29262  19.744  22.047  12.673
57592W        W29263   2.056  13.388  11.014
57593W        W29264  38.581  20.861   3.268
57594W        W29265  13.142   7.249   3.363
57595W        W29266  34.292  40.032  12.440
57596W        W29267  30.782  37.870  12.194
57597W        W29268   9.818  15.718   0.425
57598W        W29269  43.834  18.759  12.407
57599W        W29270  36.093   4.836   3.683
57600W        W29271  36.824  26.650  12.484
57601W        W29272   0.300   4.718   0.313
57602W        W29273   7.745   5.331  10.515
57603W        W29274  15.403  32.076   2.380
57604W        W29275  38.631  16.206   0.010
57605W        W29276  38.421  37.434   2.474
57606W        W29277   3.433  28.373  13.769
57607W        W29278  24.883  16.103  12.970
57608W        W29279  19.941  34.039   3.741
57609W        W29280  11.673  43.904   2.898
57610W        W29281  28.191  43.769  13.773
57611W        W29282  27.934  24.709   2.202
57612W        W29283  13.370  21.895   1.759
57613W        W29284  37.785  26.618   0.331
57614W        W29285   6.188   3.188   3.121
57615W        W29286  25.125  18.364   3.162
57616W        W29287  15.373  37.513  10.269
57617W        W29288  19.992  26.546   3.776
57618W        W29289  13.108  24.377  14.833
57619W        W29290  12.170   7.399   3.443
57620W        W29291  10.627  31.152  11.618
57621W        W29292  28.350  42.077   2.834
57622W        W29293  20.944   5.247   1.846
57623W        W29294   0.367  25.644  14.776
57624W        W29295   5.238  43.228   2.704
57625W        W29296  27.369  21.492  11.021
57626W        W29297  19.546  13.670   2.850
57627W        W29298  37.448   9.790  11.202
57628W        W29299  43.271   5.901   2.857
57629W        W29300  10.963  44.918   0.798
57630W        W29301  26.725   8.333   4.767
57631W        W29302  17.721  11.621  14.199
57632W        W29303  36.600  40.371   0.800
57633W        W29304  13.518  17.322  13.854
57634W        W29305  33.663  40.915   2.824
57635W        W29306  44.730  12.097  12.563
57636W        W29307  27.884  34.888  13.258
57637W        W29308  38.909  12.735  14.842
57638W        W29309  23.504  10.076  11.710
57639W        W29310   2.960  18.368   4.636
57640W        W29311  30.563  43.303   2.772
57641W        W29312  31.944  42.366  12.562
57642W        W29313  43.306  23.084   1.050
57643W        W29314  28.676  25.666  13.400
57644W        W29315  42.984  33.089  12.233
57645W        W29316  27.051  34.330  14.108
57646W        W29317  12.259  10.766   4.579
57647W        W29318  39.518   0.836  12.076
57648W        W29319  22.147   8.585  11.084
57649W        W29320  12.315   6.865  11.522
57650W        W29321  23.455  31.163   1.486
57651W        W29322  13.656  20.800  13.286
57652W        W29323   5.754   6.956   0.293
57653W        W29324  17.485  27.616   3.636
57654W        W29325  29.590   7.942   4.634
57655W        W29326  17.815  22.677   0.887
57656W        W29327  31.803  23.473   2.723
57657W        W29328   5.966  20.173  10.631
57658W        W29329   2.985  16.265   0.302
57659W        W29330  15.047   0.876   2.221
57660W        W29331  10.942  24.138  11.152
57661W        W29332  28.638  38.970   3.863
57662W        W29333  44.400  41.678  12.079
57663W        W29334   0.313  27.109   2.232
57664W        W29335   0.674  32.694  13.868
57665W        W29336  38.344  23.793  13.841
57666W        W29337  12.141   0.804   4.637
57667W        W29338   0.871  18.422  11.463
57668W        W29339  41.786  33.938  14.295
57669W        W29340  10.207  30.853   1.866
57670W        W29341  18.737   4.175  14.099
57671W        W29342  20.473  25.244   3.738
57672W        W29343  13.773   0.195   3.235
57673W        W29344  12.160  41.854   4.972
57674W        W29345   2.935  14.245   2.671
57675W        W29346  28.154   1.233   1.647
57676W        W29347  42.923   4.983  14.752
57677W        W29348  14.364  11.148  12.002
57678W        W29349  37.475  42.356   0.682
57679W        W29350   0.877   3.430  11.928
57680W        W29351  23.027  28.762   1.859
57681W        W29352   5.189  11.844   3.222
57682W        W29353  12.319   3.406  14.718
57683W        W29354  41.359  18.877   1.745
57684W        W29355  11.292  26.572  12.822
57685W        W29356  30.017  32.544   0.494
57686W        W29357  28.546  14.886  14.672
57687W        W29358   5.821  38.871   4.148
57688W        W29359  42.213  37.977  10.474
57689W        W29360   1.332  39.022   1.165
57690W        W29361  13.646   8.273  13.893
57691W        W29362  28.083   5.023   2.511
57692W        W29363  40.875   7.807  13.746
57693W        W29364  24.659   6.288   3.330
57694W        W29365  31.140   3.449  11.081
57695W        W29366  38.863  32.343  13.887
57696W        W29367   1.777  11.330  12.602
57697W        W29368  23.795  44.073   1.136
57698W        W29369  26.590  36.624  10.686
57699W        W29370  26.989  14.724   1.613
57700W        W29371   1.544  20.173  14.875
57701W        W29372  25.137  35.890   0.584
57702W        W29373  30.623  22.600   0.555
57703W        W29374  13.566   1.664   0.287
57704W        W29375  29.073  17.593  13.872
57705W        W29376  34.124   6.888   1.782
57706W        W29377  44.901   4.566   2.709
57707W        W29378  37.178   9.158  12.917
57708W        W29379  18.065  27.964   0.896
57709W        W29380  30.492  35.083   0.678
57710W        W29381   0.357  18.648  12.507
57711W        W29382  21.974  20.502  12.961
57712W        W29383   6.879   6.837   0.232
57713W        W29384  39.914  13.306   4.625
57714W        W29385  18.268  34.938  11.637
57715W        W29386  44.184  42.575  10.624
57716W        W29387  18.514   7.098  12.425
57717W        W29388  27.018  38.331   3.795
57718W        W29389  17.621  21.039   0.884
57719W        W29390   9.751  17.161   0.338
57720W        W29391  19.453  15.639   2.908
57721W        W29392   9.244   3.472  12.564
57722W        W29393  19.219  11.649  13.144
57723W        W29394  21.735  35.046   3.399
57724W        W29395  32.432  15.631  10.772
57725W        W29396   9.341  29.915  13.470
57726W        W29397  44.785  20.628   0.953
57727W        W29398  12.897  10.765   3.398
57728W        W29399  42.850  16.618   4.969
57729W        W29400  12.649   8.424   3.654
57730W        W29401  20.664   1.700   3.795
57731W        W29402  19.568  42.287  11.669
57732W        W29403   7.982  35.011   2.413
57733W        W29404   0.766  41.399   0.975
57734W        W29405  41.788  25.362  10.518
57735W        W29406  34.095  29.339   3.620
57736W        W29407  19.094  35.373   1.623
57737W        W29408  17.196   5.337   1.344
57738W        W29409  19.245  13.338  10.274
57739W        W29410  36.441  10.164   0.254
57740W        W29411  18.657  30.827  12.138
57741W        W29412  30.927   0.238  12.918
57742W        W29413   0.952  39.796   1.256
57743W        W29414   7.121  29.125   1.248
57744W        W29415  22.394  25.478   0.842
57745W        W29416  28.997   7.268  14.393
57746W        W29417  20.289  41.163  12.608
57747W        W29418  17.472   7.349  11.806
57748W        W29419  24.473  16.849  13.917
57749W        W29420  33.981  31.488  13.653
57750W        W29421  28.943  12.751   2.173
57751W        W29422  40.042  18.977  14.572
57752W        W29423  11.770  44.331  13.504
57753W        W29424  16.820   9.334   1.293
57754W        W29425   3.586   6.170   0.365
57755W        W29426   9.734  38.111   2.785
57756W        W29427  25.531   3.436  14.246
57757W        W29428  14.912  17.534   0.000
57758W        W29429  19.617  37.308   1.010
57759W        W29430  23.982  30.024   3.426
57760W        W29431   4.384  12.747  14.401
57761W        W29432   0.710  19.698   2.379
57762W        W29433  26.383  39.061  12.130
57763W        W29434   9.076  19.630  12.237
57764W        W29435   8.762  22.587  12.124
57765W        W29436  25.198  21.814  14.027
57766W        W29437  36.284  33.993  10.568
57767W        W29438  30.560  41.411   3.639
57768W        W29439  10.947  35.859   4.092
57769W        W29440   8.039  32.537   4.084
57770W        W29441  40.641   6.763   0.776
57771W        W29442  29.049  40.578   1.515
57772W        W29443  29.397  29.114  10.241
57773W        W29444   0.675  42.873   1.654
57774W        W29445  15.760  20.687   2.270
57775W        W29446  44.709   8.206  11.238
57776W        W29447  20.737  12.809  12.833
57777W        W29448  32.397  38.333  11.148
57778W        W29449  40.735  29.636   1.485
57779W        W29450  26.714  28.555  11.363
57780W        W29451  28.904   5.593  14.829
57781W        W29452  44.200  25.167   1.305
57782W        W29453   5.999  17.161  11.893
57783W        W29454  37.700   7.831  13.268
57784W        W29455   0.044  41.307   0.207
57785W        W29456  11.302  16.194   4.499
57786W        W29457  32.880  17.819  12.060
57787W        W29458  39.253  33.932   3.244
57788W        W29459   7.570  11.504  13.248
57789W        W29460  21.296  11.321  13.762
57790W        W29461   3.237  44.846  10.950
57791W        W29462  29.615  16.741   2.596
57792W        W29463  27.284  38.381   2.241
57793W        W29464  22.247  24.641  13.727
57794W        W29465  38.050  35.864  12.600
57795W        W29466   9.187   5.920   4.139
57796W        W29467  19.684   4.665  14.224
57797W        W29468   6.846   9.839   2.653
57798W        W29469   9.864  37.980  14.135
57799W        W29470  26.242  32.267   5.045
57800W        W29471  26.176  18.676   1.179
57801W        W29472  40.449  33.531  11.518
57802W        W29473  43.460  30.072  11.165
57803W        W29474  15.142   2.500  11.272
57804W        W29475  41.028   9.360   3.292
57805W        W29476   7.301  21.287   4.513
57806W        W29477   6.200  16.614   2.868
57807W        W29478  14.695   7.361  12.521
57808W        W29479  20.478  34.589   1.457
57809W        W29480  31.908   8.422  14.047
57810W        W29481  13.119  27.307   2.406
57811W        W29482  12.249  31.614   2.237
57812W        W29483  16.727   7.453  12.476
57813W        W29484   0.469   7.047   0.379
57814W        W29485   0.224  15.728  12.397
57815W        W29486  15.830  16.145   3.220
57816W        W29487  28.521   2.173  13.830
57817W        W29488  30.015   6.890  10.923
57818W        W29489  33.512  30.094   1.665
57819W        W29490  26.937  17.843   2.195
57820W        W29491  40.586  23.534  11.647
57821W        W29492   2.368  31.697   3.663
57822W        W29493  38.493   6.343   0.406
57823W        W29494  23.784  43.947   4.737
57824W        W29495  32.837   2.247  12.554
57825W        W29496   6.575  11.555  12.386
57826W        W29497  37.078  10.828  11.142
57827W        W29498   7.975   5.014  14.015
57828W        W29499  44.055  39.278   0.444
57829W        W29500  41.525   1.047  12.300
57830W        W29501   6.792  21.080  13.649
57831W        W29502   6.690  43.800  12.459
57832W        W29503   8.884  44.924   4.717
57833W        W29504  25.623  32.204  14.124
57834W        W29505  22.946  14.132  14.436
57835W        W29506  33.086   8.141  12.454
57836W        W29507  22.129  22.000  12.838
57837W        W29508  11.695   1.865  12.013
57838W        W29509  30.482   2.462  12.779
57839W        W29510  42.475  17.765   0.036
57840W        W29511  28.679   7.689  13.512
57841W        W29512  12.965  30.603   4.174
57842W        W29513  13.614  18.529  12.899
57843W        W29514  39.405   9.816   0.747
57844W        W29515   1.533  20.746   1.872
57845W        W29516  32.495  39.846   4.286
57846W        W29517   1.028  27.196   2.744
57847W        W29518  16.508  20.159  10.718
57848W        W29519  30.222  32.146  10.728
57849W        W29520  16.594  33.173   0.385
57850W        W29521  34.451  23.089   2.253
57851W        W29522   6.459   0.378   2.988
57852W        W29523  10.877   5.410   3.758
57853W        W29524  39.178  30.426   2.114
57854W        W29525  10.761  39.982  11.324
57855W        W29526  39.007  34.985   2.601
57856W        W29527  10.603  29.075  12.887
57857W        W29528  22.603  12.702   3.174
57858W        W29529  30.698   6.798  12.896
57859W        W29530  28.046  20.257  14.905
57860W        W29531  26.110   1.218   1.194
57861W        W29532   4.840  40.915   1.978
57862W        W29533   2.189  31.179   0.378
57863W        W29534  26.100  16.491  12.498
57864W        W29535  35.996  43.704  13.870
57865W        W29536  14.189  42.920  12.943
57866W        W29537   0.583  23.453  14.999
57867W        W29538   2.261  19.305  11.142
57868W        W29539  11.315  36.515   1.996
57869W        W29540  38.841  18.488  13.033
57870W        W29541  43.816  37.151  13.167
57871W        W29542  41.624  21.528   3.822
57872W        W29543  13.331   0.451   3.314
57873W        W29544   2.542   3.641   3.960
57874W        W29545   3.391  31.142  12.826
57875W        W29546  22.231  33.876   1.733
57876W        W29547  23.063   0.319  12.377
57877W        W29548  15.054  21.763  12.029
57878W        W29549  40.014   3.345  13.584
57879W        W29550  15.069  23.739   3.420
57880W        W29551  17.622  43.814   3.326
57881W        W29552   4.957  12.927  10.517
57882W        W29553  11.329  11.620  10.697
57883W        W29554  11.858   9.911  13.049
57884W        W29555  39.536  34.207   4.583
57885W        W29556  13.152   9.797   4.022
57886W        W29557   6.949   8.235   0.981
57887W        W29558   8.458  30.036   4.089
57888W        W29559  28.222   9.903  11.079
57889W        W29560  21.548  21.337  13.956
57890W        W29561  37.931  26.312  11.151
57891W        W29562  15.851  11.729   4.826
57892W        W29563  31.196  36.425  10.795
57893W        W29564   5.749  24.000   3.201
57894W        W29565   3.762   1.491   2.461
57895W        W29566  22.962  40.595   4.687
57896W        W29567  12.164  13.585  11.599
57897W        W29568   0.839   1.418  12.367
57898W        W29569   0.603  14.816   3.638
57899W        W29570  22.108  44.498  14.912
57900W        W29571  26.472  20.631   1.910
57901W        W29572   1.716  35.804  11.595
57902W        W29573  17.057  41.989   0.580
57903W        W29574  17.219  25.152  13.355
57904W        W29575  26.498  35.275   1.906
57905W        W29576   0.393  20.004   0.407
57906W        W29577   4.183  17.714   1.688
57907W        W29578  32.143  36.601   3.986
57908W        W29579  36.118  41.346   1.267
57909W        W29580   3.367  11.580   2.729
57910W        W29581  40.845  30.569   1.233
57911W        W29582  39.049  35.371  12.645
57912W        W29583  36.346  16.023   0.382
57913W        W29584  27.713  23.284   3.755
57914W        W29585  35.096  34.668   2.112
57915W        W29586  11.073  16.363   2.337
57916W        W29587  34.455  30.669   4.923
57917W        W29588  44.947  19.733   0.478
57918W        W29589  23.877   9.493   4.641
57919W        W29590   2.522  28.902   0.745
57920W        W29591  43.806  13.275  12.910
57921W        W29592  37.049   1.260   4.824
57922W        W29593   8.907  28.971   1.849
57923W        W29594  21.652  35.567   0.935
57924W        W29595  36.755   2.582   0.285
57925W        W29596  44.234  42.457   0.731
57926W        W29597  29.956  21.061   0.340
57927W        W29598  21.705  15.876   3.303
57928W        W29599  14.886   4.341  11.251
57929W        W29600  21.799  38.940   4.060
57930W        W29601  27.512  28.183   1.407
57931W        W29602   7.707  26.145   1.026
57932W        W29603   2.378   3.129  13.037
57933W        W29604   6.702   7.261   1.871
57934W        W29605  28.518  29.503   0.708
57935W        W29606   3.541   6.772   2.736
57936W        W29607   7.339  41.919   0.740
57937W        W29608  14.585  41.728  14.381
57938W        W29609  15.085   7.091  11.454
57939W        W29610   9.203  16.811  11.181
57940W        W29611  19.646  38.641  14.554
57941W        W29612  24.959   9.459   2.359
57942W        W29613  36.294  32.599  10.656
57943W        W29614  33.429  42.431  14.424
57944W        W29615  42.845  25.591   0.035
57945W        W29616  19.586  10.837  14.263
57946W        W29617   7.701  35.138   3.657
57947W        W29618  11.564  35.108  11.983
57948W        W29619  33.924  39.499  13.026
57949W        W29620   0.942  26.114  12.646
57950W        W29621  28.518  43.381  13.730
57951W        W29622  12.313  38.474  14.043
57952W        W29623  11.776  26.681  12.704
57953W        W29624  13.393  11.671   2.398
57954W        W29625   2.886  39.464   1.182
57955W        W29626  13.423  17.543   1.764
57956W        W29627  28.082   3.786   1.312
57957W        W29628  16.685  11.046  14.830
57958W        W29629  42.872  22.820  12.027
57959W        W29630  32.968  25.070   1.373
57960W        W29631  30.550  29.919   1.268
57961W        W29632  12.875  42.966   0.934
57962W        W29633  37.333   7.233   0.487
57963W        W29634   8.014   0.886   0.682
57964W        W29635  14.159  34.944  12.410
57965W        W29636   9.368  30.658  14.700
57966W        W29637  24.158   1.778   0.934
57967W        W29638  39.424  43.023   4.624
57968W        W29639   0.923  23.354   3.101
57969W        W29640  21.213  29.616  11.612
57970W        W29641  40.517  27.716  11.271
57971W        W29642  27.160  24.111   0.066
57972W        W29643  13.853  38.092  14.282
57973W        W29644  12.095  12.739  10.718
57974W        W29645  10.797   6.814  10.628
57975W        W29646   4.239   6.320   4.584
57976W        W29647   5.473  23.145   3.221
57977W        W29648  18.822  13.241   2.343
57978W        W29649   3.163   2.866  13.934
57979W        W29650  23.409   2.659   2.681
57980W        W29651  30.509   9.174  13.273
57981W        W29652  22.672  30.431   2.194
57982W        W29653  12.238  38.711  11.797
57983W        W29654  42.774  23.042   1.852
57984W        W29655  13.660  41.377   0.500
57985W        W29656   6.974  41.000  13.047
57986W        W29657  37.267  30.852   0.976
57987W        W29658  17.866  21.754   4.603
57988W        W29659  10.703   2.065  14.886
57989W        W29660  24.525  17.737  12.678
57990W        W29661   2.841  43.894   0.742
57991W        W29662   6.133  16.133   2.660
57992W        W29663  35.827  41.106   4.516
57993W        W29664  40.794   8.200   1.396
57994W        W29665  24.550   6.023   3.870
57995W        W29666  21.064  44.985   2.351
57996W        W29667  35.915  40.544  14.904
57997W        W29668  39.830  29.660  12.736
57998W        W29669  44.363  26.396   4.711
57999W        W29670   9.312  12.316  12.001
58000W        W29671   8.162  18.286  10.989
58001W        W29672  19.669  10.291   1.806
58002W        W29673  30.907   5.914   3.778
58003W        W29674   9.886  26.053  10.474
58004W        W29675  44.822  20.358  13.230
58005W        W29676  40.539   7.553  13.426
58006W        W29677   4.189   3.163  12.897
58007W        W29678   2.485  28.639  12.021
58008W        W29679  11.811  34.923   3.307
58009W        W29680  36.628  41.815  10.816
58010W        W29681  14.268   6.450   4.524
58011W        W29682  21.447  21.085  11.340
58012W        W29683  38.671  30.192  11.140
58013W        W29684  17.195  32.053   1.679
58014W        W29685   3.519  26.694   1.819
58015W        W29686  28.743  10.616  14.412
58016W        W29687   5.788  33.171   2.762
58017W        W29688  41.117   1.897  11.995
58018W        W29689  25.249  11.821   0.666
58019W        W29690  12.312  10.357  12.530
58020W        W29691  42.256   1.297  14.005
58021W        W29692  10.229  18.364  11.662
58022W        W29693  25.563  32.169   4.256
58023W        W29694  34.897   8.738  14.797
58024W        W29695   3.199  34.349  11.131
58025W        W29696  41.948  17.572   3.171
58026W        W29697  22.055  26.777   2.880
58027W        W29698  10.228   5.377   2.139
58028W        W29699   4.147  21.048   3.474
58029W        W29700  32.058  14.853   0.367
58030W        W29701  18.582   9.207   4.659
58031W        W29702  42.110   2.052   5.109
58032W        W29703  38.865  17.436  10.752
58033W        W29704  25.733  41.334  11.006
58034W        W29705  16.853  10.183   0.749
58035W        W29706  19.197  36.112  10.698
58036W        W29707   3.336  44.396  11.634
58037W        W29708  28.364  42.246  11.971
58038W        W29709  35.910  27.417  14.923
58039W        W29710  16.908  24.973   4.571
58040W        W29711  38.671  37.292   3.864
58041W        W29712  33.486  20.014  10.810
58042W        W29713  13.250  15.916  14.782
58043W        W29714  41.527  18.565  13.755
58044W        W29715   0.947  31.509  13.423
58045W        W29716  16.565   0.291  13.544
58046W        W29717  17.360  42.147  13.090
58047W        W29718  35.683   4.372  13.366
58048W        W29719  30.164   9.980  11.858
58049W        W29720  19.203  38.317   3.613
58050W        W29721   7.761  24.992  14.884
58051W        W29722  13.541  40.084   3.735
58052W        W29723  33.644  35.166  12.590
58053W        W29724   5.195  12.758   2.363
58054W        W29725  14.009  43.392   4.575
58055W        W29726  31.280  14.569  12.409
58056W        W29727  22.503  40.741  12.006
58057W        W29728  14.596  31.915  11.682
58058W        W29729  41.298   3.872  12.981
58059W        W29730  17.579  22.088   0.864
58060W        W29731  17.512  30.904   1.269
58061W        W29732  20.144  37.954   1.680
58062W        W29733  32.494  27.638   2.925
58063W        W29734  20.317  32.311   4.550
58064W        W29735  25.678   5.142  13.112
58065W        W29736  41.245  13.528  11.197
58066W        W29737  34.977   4.652  11.129
58067W        W29738   5.646  39.966   3.164
58068W        W29739  35.670  25.466   1.727
58069W        W29740   5.987  23.722  12.802
58070W        W29741  37.906   7.747  14.265
58071W        W29742  43.019  41.444  12.115
58072W        W29743  24.657  15.860  13.840
58073W        W29744  41.647  22.429   1.313
58074W        W29745  24.228   2.810  14.503
58075W        W29746  29.714  17.241   4.770
58076W        W29747  22.607  43.696  12.414
58077W        W29748   6.472   4.673   1.620
58078W        W29749  28.594   5.409   4.510
58079W        W29750  35.265  21.953   2.397
58080W        W29751  14.286   0.343  13.933
58081W        W29752  20.081   4.654   2.285
58082W        W29753  23.441   4.825   4.340
58083W        W29754  16.317  23.158   0.375
58084W        W29755  32.892  27.001   1.804
58085W        W29756  14.324  38.490  10.628
58086W        W29757   5.417  37.484   4.915
58087W        W29758  11.494  16.530   0.249
58088W        W29759  26.748  43.549   3.649
58089W        W29760  39.030  36.651  13.333
58090W        W29761  12.589  25.402   0.127
58091W        W29762   0.649  44.657   1.377
58092W        W29763  24.418  33.380   1.007
58093W        W29764  32.245  33.840   2.600
58094W        W29765  36.189  39.775  13.544
58095W        W29766  12.260  19.456   2.733
58096W        W29767  11.572  22.194  10.634
58097W        W29768  42.366  16.784   2.128
58098W        W29769  43.681  22.275  12.453
58099W        W29770  27.567  18.164  14.411
58100W        W29771   3.823  42.981  14.369
58101W        W29772  10.684  25.951  11.638
58102W        W29773  33.714  16.197   2.808
58103W        W29774  19.002   6.415   0.353
58104W        W29775  44.614  27.725   3.123
58105W        W29776  25.242  41.853   4.619
58106W        W29777  23.113  42.156  11.983
58107W        W29778  26.946   4.876  12.573
58108W        W29779  34.482  39.948  12.933
58109W        W29780  11.655  29.764   3.564
58110W        W29781  24.033  20.113   2.707
58111W        W29782  31.680  42.788  12.432
58112W        W29783  26.520   6.388   4.972
58113W        W29784   1.735   8.667   0.227
58114W        W29785  35.280  28.494   0.002
58115W        W29786  15.191  22.644   2.775
58116W        W29787   1.774  28.890   2.865
58117W        W29788   9.938  21.972  12.541
58118W        W29789  18.202  35.417   1.957
58119W        W29790  35.105  28.683  13.495
58120W        W29791  26.901  21.578  11.951
58121W        W29792  41.748  14.147   4.939
58122W        W29793  27.017  23.684   2.318
58123W        W29794  23.745   5.300  10.673
58124W        W29795   1.988  11.542   3.714
58125W        W29796  35.576   9.831  11.086
58126W        W29797   5.229  19.146   4.537
58127W        W29798  26.640  44.282  14.818
58128W        W29799  19.197  34.817  12.886
58129W        W29800  44.681  19.755   2.415
58130W        W29801  44.242  41.666   0.385
58131W        W29802  27.772   0.567  11.629
58132W        W29803  16.082   4.598   2.456
58133W        W29804  29.962  24.180   0.446
58134W        W29805  39.517  21.522  10.617
58135W        W29806   6.445  39.293  12.632
58136W        W29807  14.827   1.795   0.276
58137W        W29808  41.400  19.447   3.373
58138W        W29809  16.595  22.266   1.596
58139W        W29810  42.677  22.566   4.265
58140W        W29811  44.545  21.635   9.749
58141W        W29812  13.195  10.684   3.919
58142W        W29813  30.452  13.414  14.809
58143W        W29814  31.854  19.820   2.411
58144W        W29815   6.816  17.239   1.963
58145W        W29816  35.657  18.416  11.786
58146W        W29817  23.665  10.795   0.028
58147W        W29818  11.560  23.498  11.126
58148W        W29819  12.121  31.488  10.746
58149W        W29820  20.014  34.402  13.767
58150W        W29821  25.670  25.049  12.180
58151W        W29822  17.658  44.413  14.503
58152W        W29823  39.321  37.541   0.735
58153W        W29824  29.402  42.771  13.360
58154W        W29825  22.783  17.091   4.451
58155W        W29826  39.911  24.660  12.322
58156W        W29827   8.301  25.755  14.851
58157W        W29828  27.623  28.739   3.580
58158W        W29829  30.166   6.967  12.064
58159W        W29830  37.435  33.460   3.182
58160W        W29831  17.602   5.504  12.084
58161W        W29832  22.655  20.483   2.816
58162W        W29833  41.911  19.350   4.199
58163W        W29834  29.096  26.471  13.382
58164W        W29835   2.227  36.498   4.105
58165W        W29836  19.053  44.268   1.691
58166W        W29837  29.645  17.695  13.756
58167W        W29838  31.992   7.257  11.882
58168W        W29839   8.624   9.440   4.591
58169W        W29840  44.363   0.205  14.559
58170W        W29841  43.413  33.045  13.522
58171W        W29842  29.586   1.746   3.728
58172W        W29843  15.069  22.264   0.765
58173W        W29844  22.422  41.719   4.158
58174W        W29845  37.821  34.481  13.800
58175W        W29846  26.154   1.480  13.318
58176W        W29847   0.367  22.170   1.878
58177W        W29848  36.884  18.053   0.306
58178W        W29849  23.629   8.864   1.918
58179W        W29850  31.531  22.587   4.592
58180W        W29851  11.605  17.899   2.312
58181W        W29852   9.481  39.749  13.001
58182W        W29853  35.307  18.533   1.725
58183W        W29854  37.633  21.088   4.652
58184W        W29855  13.277  24.037   4.974
58185W        W29856  32.339  21.965   1.792
58186W        W29857   0.285  11.539   1.282
58187W        W29858  16.779  41.377  14.515
58188W        W29859   0.451   5.696   2.188
58189W        W29860   6.127  13.073  12.540
58190W        W29861  37.102  26.635  13.367
58191W        W29862  28.623  38.348   2.257
58192W        W29863  40.434  29.530   3.580
58193W        W29864  27.942  18.365   0.003
58194W        W29865  20.428  34.509  12.215
58195W        W29866  25.472  42.741   1.677
58196W        W29867   9.085   8.013   2.744
58197W        W29868   2.829  10.208   1.655
58198W        W29869  37.473   4.130  10.354
58199W        W29870  22.686  34.993  13.123
58200W        W29871  14.226  18.027   0.997
58201W        W29872   7.266   6.917  12.867
58202W        W29873  36.336  30.585  13.808
58203W        W29874  25.435   2.940  12.057
58204W        W29875  32.058  36.368  10.989
58205W        W29876  10.240  25.640  14.924
58206W        W29877  34.150   8.277   4.748
58207W        W29878  22.712  40.593   0.342
58208W        W29879  15.848   4.423   0.776
58209W        W29880   6.018  44.936  11.691
58210W        W29881   2.789  16.586   1.721
58211W        W29882   6.232  32.578   1.814
58212W        W29883  20.031  26.676   2.678
58213W        W29884  43.573  20.990  14.784
58214W        W29885   4.188  30.579  10.720
58215W        W29886  19.134   9.670   0.314
58216W        W29887  10.761  20.141   3.650
58217W        W29888   2.338   8.813   3.283
58218W        W29889  28.825  12.517   4.199
58219W        W29890  29.466  16.049   4.883
58220W        W29891  27.980  22.715   2.385
58221W        W29892  15.624  37.398   5.144
58222W        W29893  25.672   3.859   1.757
58223W        W29894  10.214  39.874   2.164
58224W        W29895  22.717  29.727   1.292
58225W        W29896  35.488  24.425  13.291
58226W        W29897  41.860  10.995  11.403
58227W        W29898  30.568  43.776  11.727
58228W        W29899  18.138  18.508   4.862
58229W        W29900   6.505  19.129  11.202
58230W        W29901   2.220   5.232  12.506
58231W        W29902  16.021  43.723   2.724
58232W        W29903  41.825  38.908  12.405
58233W        W29904  37.347  16.701  12.246
58234W        W29905  40.088  10.781  11.478
58235W        W29906   1.462   7.692   1.804
58236W        W29907  14.185  29.680   1.370
58237W        W29908  31.044  27.222   3.328
58238W        W29909   6.603  37.628   1.153
58239W        W29910   1.763  27.582   4.255
58240W        W29911   0.015  30.155  11.668
58241W        W29912  27.570  10.833   3.906
58242W        W29913  13.716  29.349   3.659
58243W        W29914  36.001  21.745   2.490
58244W        W29915  43.413  10.399  10.239
58245W        W29916  31.420   2.735  11.270
58246W        W29917  10.567  12.266  10.613
58247W        W29918  21.798   4.316  13.588
58248W        W29919   7.174  42.575   2.432
58249W        W29920  16.615  23.930   3.685
58250W        W29921  40.734  28.661   2.834
58251W        W29922   8.385  40.971   1.309
58252W        W29923   2.735  26.529   1.846
58253W        W29924  17.216  37.857  13.915
58254W        W29925  37.276   4.197  12.468
58255W        W29926   8.329  28.510  10.683
58256W        W29927   8.274  22.559   0.643
58257W        W29928  25.457   9.858   0.634
58258W        W29929   8.826   5.237   1.888
58259W        W29930   1.905   4.342   3.232
58260W        W29931  23.991   6.408   0.289
58261W        W29932  15.235  23.027   2.426
58262W        W29933   1.895   2.946   3.881
58263W        W29934  43.792  37.070  12.159
58264W        W29935  13.090  41.470   2.607
58265W        W29936  36.485   4.413  14.499
58266W        W29937  27.518  29.720  10.561
58267W        W29938   7.594  10.248   3.543
58268W        W29939  20.849  18.623   1.241
58269W        W29940  33.682  14.690  13.920
58270W        W29941  14.084  26.693  11.635
58271W        W29942  39.342   1.056   1.831
58272W        W29943  34.712   6.843  13.013
58273W        W29944  40.000  32.381   1.394
58274W        W29945   2.351  15.597   1.162
58275W        W29946  12.892  31.458   1.120
58276W        W29947  32.141  40.305  10.718
58277W        W29948  15.897  14.029  13.106
58278W        W29949  21.056  13.808  13.920
58279W        W29950  41.307  12.678   4.876
58280W        W29951  31.559  15.060  13.857
58281W        W29952  18.436  25.579  14.294
58282W        W29953  30.641  40.859  11.134
58283W        W29954  28.223  42.923  12.434
58284W        W29955  33.920  32.593  13.757
58285W        W29956  34.192  28.770  13.920
58286W        W29957  25.550   1.016   9.841
58287W        W29958   8.421  32.050  14.884
58288W        W29959   3.495  40.670   4.675
58289W        W29960   5.298  41.376   4.432
58290W        W29961   3.509  17.693   2.731
58291W        W29962  39.321  32.910  13.425
58292W        W29963  39.608  27.052  11.961
58293W        W29964   1.167  21.947   2.759
58294W        W29965  37.782  12.117   0.421
58295W        W29966  28.797  37.300   2.652
58296W        W29967  27.027  39.591  14.343
58297W        W29968  36.516  38.361  14.043
58298W        W29969  19.976  32.110  14.036
58299W        W29970  38.552  25.052  14.279
58300W        W29971  33.371  35.542  14.329
58301W        W29972  27.134   1.959   2.864
58302W        W29973  15.101  43.807   1.683
58303W        W29974  40.634  18.694   3.908
58304W        W29975  10.698  13.071  13.845
58305W        W29976  30.705   9.938  14.971
58306W        W29977   8.843  13.247  11.242
58307W        W29978  38.199  44.241  11.493
58308W        W29979  41.859  11.210  10.540
58309W        W29980  25.220  43.241  10.486
58310W        W29981  14.208  15.241  12.190
58311W        W29982  44.180  35.037   1.346
58312W        W29983  23.903   4.438  10.522
58313W        W29984  22.110  36.594   2.687
58314W        W29985  26.210   0.195   0.892
58315W        W29986   0.356  43.024  14.935
58316W        W29987   0.780   3.980  13.931
58317W        W29988  17.330  11.758  10.698
58318W        W29989  43.419  41.837  12.911
58319W        W29990  21.216  14.681   1.944
58320W        W29991  20.941  16.053  11.613
58321W        W29992  15.212  19.037  14.801
58322W        W29993  19.926  15.211   2.308
58323W        W29994  28.240  30.707  12.602
58324W        W29995  20.749  34.860  13.434
58325W        W29996  18.435  24.328  13.932
58326W        W29997  14.675   9.861  14.360
58327W        W29998  32.518  23.461   5.037
58328W        W29999  37.935  37.972   1.408
58329W        W30000  26.198  29.104  14.989
58330W        W30001  37.329   2.296   1.754
58331W        W30002  36.977  31.493   3.110
58332W        W30003  39.538  22.468   2.842
58333W        W30004   7.511  13.119   2.296
58334W        W30005   0.836  24.425   0.798
58335W        W30006  17.351  24.019   0.463
58336W        W30007   0.349   5.887   2.824
58337W        W30008  14.785  32.123  11.078
58338W        W30009  26.339  43.911  11.017
58339W        W30010  34.850  15.363   4.404
58340W        W30011  10.650  33.840   0.125
58341W        W30012   5.990  27.087  14.298
58342W        W30013   3.638  41.117   4.098
58343W        W30014  18.097  43.537   4.205
58344W        W30015  21.219  33.773  10.785
58345W        W30016   7.371  15.810   2.775
58346W        W30017   0.389  26.967  14.372
58347W        W30018  17.133  27.213  11.784
58348W        W30019  35.935  24.030   2.356
58349W        W30020   5.630  28.046   4.532
58350W        W30021  43.394  41.784   1.276
58351W        W30022  29.028  36.813   1.091
58352W        W30023  35.144  27.436   3.182
58353W        W30024   2.935  37.353   1.332
58354W        W30025  28.359  23.584  12.403
58355W        W30026  36.029  41.587  13.021
58356W        W30027  32.594  33.046  12.019
58357W        W30028  15.092  13.327   1.234
58358W        W30029  40.039  20.762  12.014
58359W        W30030  25.481  16.231   1.183
58360W        W30031  19.252  30.522   1.361
58361W        W30032   2.235  37.342  13.344
58362W        W30033  40.749   7.175   2.412
58363W        W30034   6.723  28.991  12.903
58364W        W30035   1.468  30.547   1.432
58365W        W30036   7.250  13.192   4.560
58366W        W30037  42.532  34.850  11.091
58367W        W30038  40.594  36.059   1.529
58368W        W30039  11.501  11.404   2.116
58369W        W30040  18.555  42.693  11.236
58370W        W30041   4.856   6.406  13.456
58371W        W30042  21.356  38.223   2.681
58372W        W30043  41.158  25.751  13.447
58373W        W30044  33.808  20.889  10.644
58374W        W30045   4.300   0.351  10.881
58375W        W30046   0.415  13.177  14.067
58376W        W30047  29.968  23.149  10.774
58377W        W30048   0.766  23.641  11.866
58378W        W30049  36.774   6.055   4.836
58379W        W30050   9.969  40.538   4.525
58380W        W30051  22.139  32.213  12.967
58381W        W30052   6.771  35.815  10.412
58382W        W30053  14.146  35.426  11.628
58383W        W30054  43.384  27.070  10.702
58384W        W30055   8.679   2.977  14.995
58385W        W30056  39.498  25.613   3.612
58386W        W30057  15.099  21.380   4.092
58387W        W30058   4.903   2.936  13.002
58388W        W30059  43.314   8.380   4.227
58389W        W30060  37.623  38.003  14.283
58390W        W30061  19.735   5.044  11.438
58391W        W30062  29.533  16.303   4.398
58392W        W30063  23.204  19.761  13.690
58393W        W30064  25.035  11.026  13.344
58394W        W30065  13.765  25.721   1.904
58395W        W30066  35.322  29.540  12.146
58396W        W30067  40.797  36.112   1.053
58397W        W30068  22.608  27.413  14.784
58398W        W30069  33.544   3.423   4.555
58399W        W30070  40.803  43.385  13.461
58400W        W30071  33.847  31.169   2.758
58401W        W30072  15.269  30.987  11.513
58402W        W30073  11.412  35.046  11.438
58403W        W30074  42.060   8.675  13.399
58404W        W30075   9.444  43.648  12.664
58405W        W30076  17.001  31.994   4.518
58406W        W30077   3.753  27.666   0.249
58407W        W30078  22.214   7.202  11.349
58408W        W30079  18.059  38.800   4.662
58409W        W30080   9.090  11.179  14.854
58410W        W30081  17.188   0.416   4.577
58411W        W30082  22.952  42.088  12.491
58412W        W30083  12.780  10.156  14.796
58413W        W30084  33.014   2.011   0.286
58414W        W30085  16.559  31.999   4.823
58415W        W30086   6.404  34.870  14.037
58416W        W30087  26.678  16.159   2.720
58417W        W30088  18.184  21.227   1.866
58418W        W30089  15.308  32.128   1.849
58419W        W30090  23.311  24.002  10.759
58420W        W30091  40.359  43.577   0.843
58421W        W30092  44.263  14.598  14.245
58422W        W30093  20.327   8.037   3.450
58423W        W30094  21.478  38.352   1.436
58424W        W30095  35.445  40.885  13.856
58425W        W30096  40.684  11.336  11.977
58426W        W30097  24.765  43.345   0.900
58427W        W30098   5.634  30.597   4.717
58428W        W30099  23.631  25.046  13.633
58429W        W30100   4.745  26.740  14.772
58430W        W30101  14.632  36.938   3.657
58431W        W30102   5.913   6.152   3.308
58432W        W30103  31.113  26.932  11.178
58433W        W30104  32.792   5.979   1.729
58434W        W30105  20.235   2.740  13.214
58435W        W30106   9.754  31.200  12.448
58436W        W30107  30.371   7.267  14.595
58437W        W30108  10.639  38.462   2.616
58438W        W30109  44.851  23.002   3.124
58439W        W30110  37.160   3.709  10.439
58440W        W30111  21.030  24.520  11.994
58441W        W30112  21.716  44.948   1.702
58442W        W30113   6.824  44.892  11.382
58443W        W30114  22.489  16.244  11.543
58444W        W30115  35.969  44.857  14.714
58445W        W30116  39.310  19.015  11.581
58446W        W30117  41.393  27.671  14.422
58447W        W30118  21.706  20.707  13.348
58448W        W30119  33.485  39.934  11.875
58449W        W30120  27.417  21.048  10.767
58450W        W30121  14.645  37.959   3.715
58451W        W30122  23.527  30.083   0.795
58452W        W30123  13.913   9.645  14.833
58453W        W30124  32.557  16.336  13.058
58454W        W30125  15.739  35.309  12.291
58455W        W30126  33.583   0.246   1.768
58456W        W30127  26.393  29.577   3.071
58457W        W30128  43.312   2.042  11.464
58458W        W30129  29.915   9.186   1.433
58459W        W30130  34.222  34.877   0.274
58460W        W30131  41.490  39.509   5.081
58461W        W30132  14.558  16.612  10.825
58462W        W30133  40.022  25.158   2.257
58463W        W30134  35.157  37.760  11.031
58464W        W30135   9.692   4.631  13.436
58465W        W30136  42.058  33.880   2.231
58466W        W30137  41.240  15.354  11.161
58467W        W30138   0.849   6.059   2.212
58468W        W30139  13.223  28.981  13.276
58469W        W30140  35.385  43.201  13.434
58470W        W30141  23.314   0.498   0.797
58471W        W30142  24.208  10.838  12.496
58472W        W30143  10.971  27.545   4.784
58473W        W30144  40.598  26.636   0.778
58474W        W30145  18.123  12.281   4.773
58475W        W30146  12.824   4.400   2.371
58476W        W30147  30.451  42.789  12.009
58477W        W30148  20.535   5.482  12.364
58478W        W30149  16.315  18.026   0.763
58479W        W30150  16.723  39.223  14.467
58480W        W30151  34.404  33.892   1.168
58481W        W30152  43.518   7.445  14.844
58482W        W30153   8.743  44.310  14.220
58483W        W30154  30.655   5.446   2.351
58484W        W30155  11.125  26.119  11.973
58485W        W30156  15.007   7.606   0.718
58486W        W30157  22.484  43.807  14.431
58487W        W30158  22.205  34.480   2.530
58488W        W30159  32.676  41.661  14.808
58489W        W30160  11.299   1.946  12.543
58490W        W30161  41.811  21.551   5.057
58491W        W30162   1.760  25.766   0.915
58492W        W30163  38.165  37.509  12.431
58493W        W30164  39.696  14.327  13.915
58494W        W30165  42.278  14.184  12.948
58495W        W30166   7.228  34.488   1.993
58496W        W30167  44.713  40.504  13.793
58497W        W30168  20.595  13.161  13.186
58498W        W30169  26.485  42.521  10.720
58499W        W30170  26.037  25.073  11.293
58500W        W30171  11.687   6.691   1.822
58501W        W30172  38.933  27.569  10.950
58502W        W30173  24.513   7.932  14.793
58503W        W30174  27.658  31.045   1.774
58504W        W30175  19.818  33.419   0.873
58505W        W30176   5.417  43.477   3.118
58506W        W30177  36.500  32.594   0.679
58507W        W30178  26.538  22.270   0.268
58508W        W30179  16.149  44.948   0.363
58509W        W30180  11.582  38.954  10.119
58510W        W30181  44.726  37.108  13.985
58511W        W30182   0.344  12.814   0.877
58512W        W30183   1.450  40.836  14.965
58513W        W30184  15.287  37.057  10.730
58514W        W30185  40.791  26.141   3.566
58515W        W30186  26.058  41.477  12.800
58516W        W30187  11.133  12.267  13.067
58517W        W30188   6.154  19.021   1.786
58518W        W30189  29.913   4.043  14.317
58519W        W30190  12.104  42.651   0.190
58520W        W30191  17.549  22.722  11.608
58521W        W30192   7.629   2.498  12.041
58522W        W30193  29.696   1.299   2.412
58523W        W30194   0.413  28.870   4.211
58524W        W30195  23.992  13.800   1.915
58525W        W30196  26.511  18.237   2.265
58526W        W30197  12.606   3.678   4.178
58527W        W30198  40.235  32.434  13.684
58528W        W30199  29.919  11.723  13.451
58529W        W30200  33.114  16.540   1.583
58530W        W30201  43.971  36.104  14.712
58531W        W30202  30.949  31.569   1.697
58532W        W30203   4.809   4.552   3.133
58533W        W30204  41.003   4.333   1.165
58534W        W30205   6.282  28.731   3.149
58535W        W30206  20.795   9.006   3.587
58536W        W30207  41.993   5.735  10.966
58537W        W30208   4.443  20.951  11.069
58538W        W30209  15.846  12.297  12.991
58539W        W30210   2.970  29.596   2.307
58540W        W30211  19.647  30.604   1.715
58541W        W30212  40.722  40.471  10.496
58542W        W30213   9.197  15.688   4.131
58543W        W30214  12.447  38.379   2.309
58544W        W30215  19.195  23.338  11.523
58545W        W30216  41.910   3.787   4.382
58546W        W30217   2.238  25.205   1.376
58547W        W30218  24.029  40.481   0.276
58548W        W30219  33.438  28.928   5.084
58549W        W30220  12.242  26.716   4.378
58550W        W30221  10.849  11.210   2.902
58551W        W30222   5.962  29.479  14.256
58552W        W30223  18.780  42.255  10.975
58553W        W30224  41.359   0.175   1.234
58554W        W30225   7.722  42.316  10.726
58555W        W30226   6.951  15.548  14.573
58556W        W30227  19.460   6.245   1.744
58557W        W30228  42.930  15.767  13.856
58558W        W30229  17.752  28.992   2.826
58559W        W30230   7.083  30.980   2.908
58560W        W30231  38.312  40.747   3.923
58561W        W30232   2.634  36.550  12.430
58562W        W30233  39.262  30.200   3.515
58563W        W30234   9.774   6.912   0.367
58564W        W30235  38.074  18.482  12.399
58565W        W30236  25.018   1.701   1.636
58566W        W30237  20.136  15.486  11.600
58567W        W30238  16.199   5.198   0.525
58568W        W30239  23.027  26.841   3.682
58569W        W30240   0.748  37.656   3.693
58570W        W30241  35.028  36.824   1.852
58571W        W30242   0.867   8.165   0.790
58572W        W30243  21.174  29.121  10.369
58573W        W30244  42.246  16.542  12.472
58574W        W30245  37.284  38.634  11.101
58575W        W30246  29.334  19.862   3.818
58576W        W30247  17.363  31.965   0.487
58577W        W30248  35.340  22.266  11.205
58578W        W30249  35.914  13.158   2.048
58579W        W30250  15.576   6.388   0.729
58580W        W30251  11.606  41.752  12.900
58581W        W30252  10.801  10.851  13.280
58582W        W30253  14.545  22.099  10.671
58583W        W30254  12.789  17.186  11.479
58584W        W30255   2.640   7.369  10.983
58585W        W30256  19.496  24.154   3.608
58586W        W30257  44.036   4.964  12.058
58587W        W30258  31.410  10.818   3.777
58588W        W30259   6.920  15.764  11.163
58589W        W30260   1.631  31.584  11.537
58590W        W30261  18.838  31.673  11.606
58591W        W30262  20.947  13.856   2.899
58592W        W30263  36.637  16.061  13.621
58593W        W30264  15.633   9.471   1.847
58594W        W30265  44.596  18.233  11.976
58595W        W30266  17.014  10.061   3.670
58596W        W30267  36.012  35.471  12.163
58597W        W30268   8.041  18.446  13.945
58598W        W30269  35.068  38.934  13.173
58599W        W30270   4.930   5.506   3.440
58600W        W30271  19.143  12.829  10.208
58601W        W30272  31.038   5.162  11.623
58602W        W30273  12.652  14.079  14.906
58603W        W30274   2.533  11.175   2.271
58604W        W30275  38.054  21.857  13.926
58605W        W30276  12.094   3.782   1.020
58606W        W30277   2.317   8.316   0.890
58607W        W30278  23.572  19.267  12.422
58608W        W30279  27.483  42.953   1.226
58609W        W30280  17.988  35.400   0.457
58610W        W30281  24.697  34.204   2.903
58611W        W30282   4.287  27.478   2.087
58612W        W30283  23.228  43.896  12.985
58613W        W30284   5.217  40.003  13.421
58614W        W30285   1.276  41.557  12.032
58615W        W30286   2.717  29.584   0.244
58616W        W30287  20.686   0.186  13.978
58617W        W30288  21.071  35.520  14.292
58618W        W30289  21.508  36.466   0.814
58619W        W30290  39.496   4.792   4.399
58620W        W30291  17.237  30.920  11.295
58621W        W30292   1.510   6.798   0.367
58622W        W30293  33.512  20.081   4.684
58623W        W30294  16.017  31.424   1.832
58624W        W30295  33.671  33.389  14.303
58625W        W30296   9.368  20.130  11.961
58626W        W30297  33.170  12.988   0.303
58627W        W30298  35.874  34.995  10.602
58628W        W30299  40.913  13.887  12.030
58629W        W30300  14.688  33.617   1.693
58630W        W30301  39.323  24.613   2.362
58631W        W30302  37.524  18.503  13.399
58632W        W30303   4.855   9.323  11.780
58633W        W30304   9.701  19.993  11.008
58634W        W30305   2.753  44.505   2.278
58635W        W30306  20.841  11.776   3.903
58636W        W30307   7.656  41.906   2.307
58637W        W30308  14.948   3.760  10.139
58638W        W30309  41.771  19.149   3.684
58639W        W30310  28.896  23.187   0.276
58640W        W30311  14.149  42.533   4.235
58641W        W30312  44.321  17.632   0.259
58642W        W30313  33.770   2.928   0.245
58643W        W30314  23.284  33.032   3.207
58644W        W30315  20.591  42.903   4.583
58645W        W30316  33.249   1.535   3.787
58646W        W30317  33.400   2.294   4.191
58647W        W30318   4.267  41.856  11.004
58648W        W30319   0.239  30.656  12.008
58649W        W30320   5.781  30.986  11.083
58650W        W30321  38.301  41.743  12.418
58651W        W30322   9.921  44.297   2.231
58652W        W30323  12.211  30.168   0.475
58653W        W30324  43.219  10.320  14.619
58654W        W30325  22.011   4.295  14.480
58655W        W30326   4.421  30.107   0.551
58656W        W30327  28.385  36.675  10.385
58657W        W30328   4.410   9.376  11.554
58658W        W30329   6.297   8.945  12.856
58659W        W30330  11.678  41.275  11.290
58660W        W30331  30.394   4.687   1.289
58661W        W30332  17.510  33.536   3.245
58662W        W30333  18.403  40.514  10.933
58663W        W30334  21.466  13.764   2.868
58664W        W30335   5.085   4.711  10.542
58665W        W30336  27.245  40.483  14.371
58666W        W30337  28.263  35.439  12.442
58667W        W30338  14.359   0.846  10.731
58668W        W30339  28.592   0.748  14.997
58669W        W30340  37.662  38.466  13.116
58670W        W30341  39.892  40.459  11.635
58671W        W30342  25.796  14.276  13.016
58672W        W30343  12.736  15.589  12.885
58673W        W30344  10.842  23.811  12.085
58674W        W30345  38.041  40.216  13.342
58675W        W30346  24.947  14.628  13.589
58676W        W30347  25.240  30.149  12.063
58677W        W30348  28.396  27.102  13.413
58678W        W30349   6.913  12.769  11.621
58679W        W30350  43.866  11.857   5.264
58680W        W30351  34.496  22.269  10.882
58681W        W30352   7.822  21.912  10.863
58682W        W30353  39.449  19.705   4.509
58683W        W30354  29.567  26.893  14.524
58684W        W30355  29.716  40.978   4.827
58685W        W30356  22.449  41.949  12.506
58686W        W30357  23.671   1.511   4.485
58687W        W30358  14.898  20.647  11.521
58688W        W30359  18.055  13.902   3.847
58689W        W30360   9.327  23.652  14.008
58690W        W30361  35.018   9.644  13.470
58691W        W30362   4.430  32.439   1.914
58692W        W30363  29.713   9.267   3.749
58693W        W30364  26.652  26.463   3.632
58694W        W30365  27.014  43.380  10.614
58695W        W30366  21.120  35.587   1.830
58696W        W30367  40.338  42.527  10.693
58697W        W30368  22.968  19.495   3.626
58698W        W30369   6.760  33.069   0.233
58699W        W30370  31.475  27.207   1.431
58700W        W30371  34.966  29.212   3.772
58701W        W30372   1.946  41.542   0.196
58702W        W30373  23.263   2.210   2.358
58703W        W30374   6.608  13.842   3.868
58704W        W30375  18.752   9.734   1.103
58705W        W30376   2.213  31.915   4.114
58706W        W30377  18.128  36.559  10.779
58707W        W30378  27.840  44.817  11.217
58708W        W30379  16.119  17.846  13.457
58709W        W30380  12.625  27.073  11.514
58710W        W30381  39.494  17.727   3.845
58711W        W30382  25.666  17.781   4.476
58712W        W30383  13.039  25.632  12.122
58713W        W30384  19.928   4.917  10.614
58714W        W30385  43.427  34.871  13.488
58715W        W30386   6.872  21.152  14.130
58716W        W30387   3.299  25.911   1.692
58717W        W30388  40.413  44.590   1.866
58718W        W30389   3.612  18.252   3.279
58719W        W30390  41.559   3.837  14.522
58720W        W30391   4.891   6.402   0.402
58721W        W30392  38.292  13.743  12.720
58722W        W30393  12.830  41.715  11.601
58723W        W30394  28.234  24.054  12.841
58724W        W30395  43.783  37.587   2.220
58725W        W30396  12.545   6.821   0.886
58726W        W30397  15.956  35.976  13.486
58727W        W30398   8.414  15.616   4.784
58728W        W30399  11.779  41.582   0.828
58729W        W30400  39.063  13.087   0.911
58730W        W30401  22.664  38.372   4.229
58731W        W30402   6.441  41.895   0.256
58732W        W30403   7.566  29.280   0.345
58733W        W30404  12.702  38.916   0.351
58734W        W30405  41.371  15.844  14.955
58735W        W30406   4.139  19.534  11.296
58736W        W30407  22.480  13.734   4.230
58737W        W30408   9.747  27.580  10.741
58738W        W30409  23.659  31.106  11.528
58739W        W30410  15.830  15.841  13.401
58740W        W30411  15.750  28.737   4.417
58741W        W30412  27.214  21.244   3.784
58742W        W30413  37.527   6.982   1.447
58743W        W30414  32.129   3.696  11.623
58744W        W30415  16.147   4.137  12.027
58745W        W30416  39.297  22.118  14.579
58746W        W30417  42.787  10.682  13.036
58747W        W30418  28.917  17.222  11.978
58748W        W30419  21.191  30.410   4.621
58749W        W30420  20.005  12.819   3.632
58750W        W30421  29.541  14.058  10.749
58751W        W30422  40.069  36.411   3.240
58752W        W30423  40.096   8.654   0.026
58753W        W30424  10.187   3.751   2.351
58754W        W30425  38.452  33.466  14.394
58755W        W30426   7.221  44.467  11.250
58756W        W30427   4.749  41.018  10.733
58757W        W30428   2.338  12.952  11.068
58758W        W30429   2.257   8.334  14.828
58759W        W30430  42.015  16.027  12.194
58760W        W30431  12.186   1.852  14.309
58761W        W30432  32.999  44.317  12.019
58762W        W30433  33.985  30.090   2.431
58763W        W30434  36.252   9.256  11.193
58764W        W30435   8.280  27.636  11.873
58765W        W30436  36.186  25.764  11.622
58766W        W30437   9.687   5.458   0.310
58767W        W30438  27.354  24.262   2.694
58768W        W30439   1.273  34.661  14.843
58769W        W30440  42.764  16.147   4.199
58770W        W30441  28.132  21.178   1.256
58771W        W30442  20.961  23.671   3.372
58772W        W30443  24.591  42.936  10.915
58773W        W30444   7.842  30.218  14.936
58774W        W30445  35.310  22.014   3.766
58775W        W30446  39.195  14.262  14.102
58776W        W30447  33.760  24.512   3.653
58777W        W30448  17.664  37.357  10.124
58778W        W30449  37.820  37.771   2.843
58779W        W30450  40.485  11.683   1.388
58780W        W30451   7.301  12.702  13.488
58781W        W30452  31.543  37.379  12.721
58782W        W30453  18.822  19.187   1.759
58783W        W30454  16.085   8.076  14.960
58784W        W30455   8.147   9.466  12.925
58785W        W30456  20.717  19.163   0.538
58786W        W30457  42.015  18.282  11.475
58787W        W30458   4.438  14.048  10.273
58788W        W30459  28.983  28.908   2.313
58789W        W30460  22.687  27.913  13.893
58790W        W30461  24.541  40.659   1.101
58791W        W30462   3.392   4.315  11.072
58792W        W30463  14.141  31.788   2.745
58793W        W30464  38.047  21.610  10.853
58794W        W30465  12.777  18.859   0.550
58795W        W30466  22.135  29.088  10.738
58796W        W30467  41.532  26.910  11.544
58797W        W30468  25.000  40.620   2.623
58798W        W30469   8.455   2.282  11.781
58799W        W30470  26.199  25.922  13.095
58800W        W30471  39.311  39.353  14.637
58801W        W30472  11.218  11.116   3.867
58802W        W30473  38.671   7.409  14.365
58803W        W30474   2.692  44.010  10.870
58804W        W30475  39.041  16.363   2.390
58805W        W30476   8.528   7.924  12.067
58806W        W30477  31.856  29.613   0.292
58807W        W30478  31.469   7.435   3.259
58808W        W30479  11.658  28.002   0.768
58809W        W30480  44.417  25.184   2.708
58810W        W30481  27.326  44.801  11.093
58811W        W30482  20.515  22.748   3.281
58812W        W30483  43.040  28.120  14.129
58813W        W30484  20.530  21.083   3.724
58814W        W30485   7.659  11.861   1.222
58815W        W30486  30.990  30.735   4.521
58816W        W30487  13.092  21.317   5.178
58817W        W30488  11.715  15.257  11.204
58818W        W30489  38.314  18.028  12.379
58819W        W30490  42.879  31.220   4.362
58820W        W30491  37.813   9.268  14.834
58821W        W30492  43.197   2.863   3.401
58822W        W30493  43.211   8.722  14.050
58823W        W30494  43.934  39.280  14.475
58824W        W30495   8.286  44.460  12.916
58825W        W30496  38.896   0.068  10.632
58826W        W30497  30.872  35.437   0.594
58827W        W30498  22.618  16.815  12.917
58828W        W30499   6.434   6.528  12.073
58829W        W30500  11.794  13.116   0.067
58830W        W30501   1.875  43.638  11.133
58831W        W30502  23.542   6.755   3.921
58832W        W30503  11.311  40.982  14.727
58833W        W30504  39.327   4.261  10.643
58834W        W30505  32.101   1.390   4.249
58835W        W30506  32.361  15.390  12.985
58836W        W30507  19.554   4.465  14.946
58837W        W30508  25.494  16.857  13.684
58838W        W30509  34.598   1.751   2.118
58839W        W30510   8.126   3.236   1.693
58840W        W30511   6.007  22.957   3.149
58841W        W30512  28.576  41.896   0.914
58842W        W30513  21.023  22.571  14.250
58843W        W30514  37.489  19.184  10.138
58844W        W30515  31.720  44.748   0.422
58845W        W30516   9.860  27.475   3.118
58846W        W30517   0.980   9.379  11.607
58847W        W30518  40.798   3.338   1.477
58848W        W30519  33.086   3.917  12.988
58849W        W30520  42.237  10.254  11.741
58850W        W30521  37.804   2.534  13.836
58851W        W30522  16.103   7.790   2.745
58852W        W30523  33.856   2.638  14.453
58853W        W30524   8.491   7.421   0.022
58854W        W30525   8.919   8.430  11.457
58855W        W30526   0.796  22.685   2.397
58856W        W30527  17.340  40.894   2.752
58857W        W30528  44.955  44.972   3.372
58858W        W30529  18.896  22.572   4.520
58859W        W30530  25.674  38.915   1.837
58860W        W30531  44.895  35.711  14.374
58861W        W30532   8.140  36.560  12.967
58862W        W30533   2.201   3.806   0.391
58863W        W30534  41.219  28.893   1.814
58864W        W30535  25.282  24.010  12.854
58865W        W30536  14.555   7.078  13.588
58866W        W30537  35.939   2.321  14.943
58867W        W30538   9.115  17.126  12.965
58868W        W30539  19.261  32.919  14.638
58869W        W30540  42.095   2.751   4.111
58870W        W30541   0.952  13.584   2.111
58871W        W30542  13.787   7.769  10.618
58872W        W30543  23.232  27.372  13.249
58873W        W30544  22.657  12.447   9.992
58874W        W30545  31.778  33.906  13.434
58875W        W30546  42.492  30.691   1.243
58876W        W30547  27.968  19.679   5.155
58877W        W30548  38.407  35.526  12.833
58878W        W30549  28.369  16.468   3.712
58879W        W30550  12.501  14.753  11.168
58880W        W30551  15.041  24.551   3.031
58881W        W30552   3.857  26.036   0.780
58882W        W30553  22.417  31.064  13.434
58883W        W30554  24.318  24.022  12.606
58884W        W30555  36.434  20.799  12.928
58885W        W30556   7.682  12.842  12.062
58886W        W30557  11.782   5.843  13.559
58887W        W30558  44.910   1.211  13.364
58888W        W30559  26.852  26.070  12.094
58889W        W30560  20.989  15.663   2.854
58890W        W30561  19.895  35.871  14.372
58891W        W30562  35.112  39.161   1.412
58892W        W30563  16.162  30.196  11.008
58893W        W30564   7.752   7.737   1.852
58894W        W30565   0.555  19.267   2.866
58895W        W30566  27.409  11.721  11.910
58896W        W30567  35.243  31.529   3.626
58897W        W30568   1.277  30.188   2.151
58898W        W30569  16.828  39.442   2.803
58899W        W30570   5.925  21.113   2.373
58900W        W30571  38.951  14.859  14.959
58901W        W30572  17.984   8.695   0.340
58902W        W30573  24.027  38.759  11.107
58903W        W30574  20.675  28.586   0.321
58904W        W30575  14.303  30.152  11.778
58905W        W30576  14.161   4.215   0.230
58906W        W30577  24.431  18.661   4.251
58907W        W30578  41.395  33.552   4.631
58908W        W30579   4.848   6.955   0.297
58909W        W30580  11.357  18.168  12.119
58910W        W30581  17.784  33.468  14.894
58911W        W30582  36.547  37.064  13.470
58912W        W30583   3.662  22.135   3.397
58913W        W30584   3.756  20.301   0.925
58914W        W30585   3.520  36.081  11.051
58915W        W30586  41.161  17.701  11.121
58916W        W30587   3.204   5.742   2.816
58917W        W30588  25.433  30.952  14.828
58918W        W30589  26.081  25.600   4.491
58919W        W30590   4.285   5.224  11.001
58920W        W30591  25.801   9.477   1.410
58921W        W30592  19.759  27.616  14.787
58922W        W30593  21.367   5.761   4.915
58923W        W30594   1.650  35.520  14.885
58924W        W30595   9.421  42.765   4.146
58925W        W30596   7.493   1.231  12.037
58926W        W30597  24.495  32.343   2.404
58927W        W30598  41.391   0.803  13.273
58928W        W30599   3.629  21.219   3.167
58929W        W30600  25.536  28.470   1.823
58930W        W30601  34.901  17.216   1.875
58931W        W30602  31.913   2.061  11.509
58932W        W30603  16.224  11.235   1.835
58933W        W30604  12.852   2.188  12.518
58934W        W30605  40.773  40.227   1.843
58935W        W30606  33.421  10.744   4.687
58936W        W30607  22.159  16.333  11.933
58937W        W30608  37.772   6.606  14.995
58938W        W30609  32.836  21.322  14.460
58939W        W30610  12.892   5.737  14.523
58940W        W30611  23.233   5.294   1.832
58941W        W30612  44.861  32.062   2.894
58942W        W30613  43.887  23.044  14.925
58943W        W30614  12.726  11.358  14.264
58944W        W30615  32.990  28.531   0.474
58945W        W30616   1.421   8.831  13.886
58946W        W30617  15.711  28.122   2.788
58947W        W30618  43.196  30.929  11.086
58948W        W30619  12.828  21.657  13.883
58949W        W30620  30.242  13.318   1.068
58950W        W30621  27.890   8.673  13.285
58951W        W30622  31.668  16.600   4.583
58952W        W30623  24.962  31.041  13.823
58953W        W30624  30.952  41.558   1.096
58954W        W30625  32.341   5.263  12.140
58955W        W30626   2.009  30.341   3.720
58956W        W30627   8.272  44.398  11.126
58957W        W30628  17.874  38.012   1.771
58958W        W30629   8.278  21.434   3.189
58959W        W30630  34.365  28.575  10.641
58960W        W30631  26.001  13.615   0.721
58961W        W30632   2.834  24.199   3.700
58962W        W30633  13.539  15.777   4.684
58963W        W30634  15.229  42.943  12.054
58964W        W30635  35.570  21.512   2.282
58965W        W30636  39.960  28.037   4.361
58966W        W30637   4.826  42.742   1.651
58967W        W30638  10.367   0.934   1.887
58968W        W30639  28.701   8.650  14.991
58969W        W30640  43.526  39.906   5.004
58970W        W30641   0.414  40.173  13.126
58971W        W30642  41.939  33.365   0.841
58972W        W30643  44.233   4.141   3.334
58973W        W30644  28.404  23.035  13.269
58974W        W30645  32.710   7.871  12.098
58975W        W30646   0.479  22.659   0.451
58976W        W30647   9.324  20.576  12.582
58977W        W30648  39.978   1.452  14.561
58978W        W30649   1.629  27.613  13.023
58979W        W30650  39.809  30.170  12.917
58980W        W30651   6.854  13.395   3.250
58981W        W30652  34.034  35.745   4.749
58982W        W30653  18.397  10.422  12.923
58983W        W30654   6.253  44.531   3.185
58984W        W30655  39.337  37.331  11.944
58985W        W30656  20.209   8.469   3.138
58986W        W30657  17.971  33.933   0.005
58987W        W30658  39.335  16.135  10.687
58988W        W30659   6.789  42.791  13.116
58989W        W30660   8.738   5.683   3.157
58990W        W30661  13.122   7.719   3.147
58991W        W30662  33.182  30.672  12.861
58992W        W30663  33.391   1.184  13.495
58993W        W30664  36.908  43.340   0.967
58994W        W30665  19.515   7.336  12.347
58995W        W30666  31.117  26.088  11.561
58996W        W30667   3.414  25.153  14.455
58997W        W30668  25.863   8.397   5.112
58998W        W30669  15.869  44.558  10.776
58999W        W30670   5.280  15.259   0.892
59000W        W30671  22.192  17.226   3.345
59001W        W30672  41.047   7.213   2.832
59002W        W30673  26.553  37.002  12.097
59003W        W30674   5.025  17.964   1.828
59004W        W30675  31.094  29.896  12.086
59005W        W30676  31.441  26.438   2.192
59006W        W30677   2.767  42.917   1.783
59007W        W30678  33.604  31.042   2.306
59008W        W30679  37.817   2.472   4.052
59009W        W30680   2.816   6.863  13.843
59010W        W30681  17.722  39.050  13.821
59011W        W30682  36.598  36.796   1.814
59012W        W30683  27.054  34.751   2.393
59013W        W30684   7.129   1.823  11.518
59014W        W30685  27.384   8.733   1.897
59015W        W30686   4.301  17.151   3.858
59016W        W30687  25.748  30.097  12.072
59017W        W30688  36.796  31.081  14.415
59018W        W30689  16.932  29.676   0.410
59019W        W30690  35.128  38.432  14.479
59020W        W30691  30.210  42.875  12.510
59021W        W30692  33.021  36.969  13.042
59022W        W30693  36.609  17.153  12.583
59023W        W30694  34.630   1.469  12.919
59024W        W30695   0.273   1.973  14.321
59025W        W30696  22.721  34.808  10.683
59026W        W30697   9.663  43.538  14.674
59027W        W30698  27.596  26.171  12.488
59028W        W30699  17.845  14.628  10.143
59029W        W30700   6.387   3.928   2.820
59030W        W30701  20.266  10.111  14.488
59031W        W30702  23.175  23.666  10.400
59032W        W30703  20.913  20.229   4.628
59033W        W30704  25.385   1.823   1.972
59034W        W30705  26.811  19.825   4.663
59035W        W30706  25.796   6.714   2.399
59036W        W30707  23.225  17.161  12.883
59037W        W30708   3.229   5.393  14.999
59038W        W30709  24.610   8.397   0.032
59039W        W30710  42.341  28.955  10.608
59040W        W30711  38.403  36.821  14.959
59041W        W30712  34.472   2.272   2.226
59042W        W30713  39.875   9.392   4.627
59043W        W30714  23.709  20.313   0.195
59044W        W30715  43.642  37.925  14.798
59045W        W30716  33.951  16.997   0.437
59046W        W30717  35.025  42.500   2.062
59047W        W30718  32.967   1.758  12.433
59048W        W30719  13.415   3.067   2.166
59049W        W30720  33.429  34.016   3.706
59050W        W30721   2.138  37.406  13.859
59051W        W30722  31.381   1.351   3.293
59052W        W30723  11.139   8.324   3.559
59053W        W30724  20.588  23.742  10.727
59054W        W30725  16.499  28.076  12.032
59055W        W30726  43.720   9.268  14.750
59056W        W30727  11.118  17.708   4.625
59057W        W30728  16.579  25.920   2.573
59058W        W30729   6.877   2.465   2.980
59059W        W30730   9.024  38.253  13.468
59060W        W30731  18.601  40.863   4.142
59061W        W30732  44.003  40.924  11.177
59062W        W30733  25.028  19.959  14.449
59063W        W30734  14.811  34.906   0.399
59064W        W30735   8.284   7.787   1.908
59065W        W30736  40.939   8.073   2.879
59066W        W30737  25.508   9.381   3.935
59067W        W30738   4.817  18.087  14.705
59068W        W30739  35.984  16.816   2.455
59069W        W30740  10.633   7.272   1.145
59070W        W30741  17.357  18.718  10.725
59071W        W30742   8.334  33.898  10.812
59072W        W30743  28.522  13.285  10.909
59073W        W30744  17.200  10.887  12.524
59074W        W30745   2.209  25.685   1.149
59075W        W30746  38.003  40.329   3.189
59076W        W30747  38.318  23.014  11.409
59077W        W30748   4.682  23.019   3.953
59078W        W30749  12.306   7.766   2.172
59079W        W30750   7.393  28.008  12.103
59080W        W30751  28.231  28.742  14.421
59081W        W30752  14.371   3.795  13.899
59082W        W30753  25.104  28.007   1.243
59083W        W30754   5.249  22.001  10.615
59084W        W30755  28.415  11.025  13.504
59085W        W30756   4.452  23.687  12.531
59086W        W30757  40.373  20.799   3.410
59087W        W30758  39.851   6.334   3.664
59088W        W30759  27.246  30.099  11.035
59089W        W30760  40.122   9.249  14.315
59090W        W30761  38.311  27.038  12.535
59091W        W30762  23.968  41.043  11.673
59092W        W30763  42.347  19.774   0.855
59093W        W30764  43.081  29.236  12.630
59094W        W30765  13.161  17.194  12.844
59095W        W30766  35.448  20.482  10.876
59096W        W30767  35.992  21.071  12.434
59097W        W30768   4.534  43.569   1.157
59098W        W30769  22.256  16.754   3.568
59099W        W30770  31.553  20.234  12.958
59100W        W30771  14.141  21.108  14.029
59101W        W30772   7.197  22.960  10.592
59102W        W30773  32.539  37.947   0.169
59103W        W30774  29.066  30.004   0.004
59104W        W30775  41.002  31.484   1.730
59105W        W30776  18.539  37.297  13.494
59106W        W30777  36.904  26.426   2.678
59107W        W30778  22.488  40.018  12.483
59108W        W30779  31.720   0.244   4.136
59109W        W30780  21.040   1.789  12.849
59110W        W30781  41.374  19.481   0.444
59111W        W30782  16.591  25.812  13.762
59112W        W30783  26.023   7.237  13.401
59113W        W30784  21.016   5.034   2.356
59114W        W30785   1.836  31.976   1.918
59115W        W30786  20.129  27.971   4.541
59116W        W30787  10.964   0.438   4.113
59117W        W30788  27.031  29.945  10.600
59118W        W30789  42.233  37.088  12.031
59119W        W30790  41.920  25.918   0.453
59120W        W30791  34.156  43.750  12.037
59121W        W30792  33.888  25.130   3.058
59122W        W30793  36.016  18.063  12.568
59123W        W30794  34.777  32.481  10.668
59124W        W30795   6.482  11.864  11.950
59125W        W30796  28.328  29.355   3.789
59126W        W30797  19.162  37.826   1.387
59127W        W30798   2.313  36.526  13.751
59128W        W30799  28.539  28.192  11.620
59129W        W30800  36.440  11.256   3.861
59130W        W30801  14.751   6.216   4.335
59131W        W30802  27.591   3.987   0.287
59132W        W30803  29.210   4.320  10.662
59133W        W30804  31.897  33.414   1.334
59134W        W30805  32.432   1.267   2.628
59135W        W30806  16.817  33.832   0.781
59136W        W30807  39.626  18.991   2.616
59137W        W30808   6.144  32.894   2.407
59138W        W30809   5.696  37.351   4.060
59139W        W30810  34.540  11.827   1.994
59140W        W30811  31.612  16.301   0.089
59141W        W30812  20.820  31.184  12.557
59142W        W30813  17.846  37.023   0.680
59143W        W30814  15.238  34.382  12.367
59144W        W30815  41.042  40.921   4.642
59145W        W30816  37.926  42.817   1.606
59146W        W30817   8.410  44.193  13.342
59147W        W30818  38.334   0.693   3.216
59148W        W30819   1.757  27.600   2.745
59149W        W30820  25.243  39.806  13.741
59150W        W30821  14.429   8.293   2.636
59151W        W30822  34.563  31.646   4.635
59152W        W30823   1.284  40.446  12.513
59153W        W30824  36.985  36.057   4.639
59154W        W30825   1.692   1.030   1.856
59155W        W30826  36.031  44.407  14.467
59156W        W30827   6.545  19.118  14.900
59157W        W30828  33.917  31.398   0.328
59158W        W30829  43.337  44.889   4.296
59159W        W30830  17.123  10.768   1.161
59160W        W30831   0.946  30.884  14.686
59161W        W30832  25.325  31.881   1.700
59162W        W30833  28.063   3.425  12.495
59163W        W30834   8.802  44.392   2.225
59164W        W30835   7.601  44.830   4.869
59165W        W30836  16.529  25.432   2.369
59166W        W30837  20.087  17.928   2.720
59167W        W30838  32.847  24.477  14.017
59168W        W30839  34.679   5.690  13.775
59169W        W30840  41.496   2.385   0.801
59170W        W30841  18.603   1.884   4.529
59171W        W30842  10.034   7.692   3.705
59172W        W30843  35.258  41.983  12.313
59173W        W30844  21.740  22.504   0.276
59174W        W30845  12.248  34.967  13.088
59175W        W30846  41.326  37.384  12.911
59176W        W30847  43.600  29.022   2.294
59177W        W30848   1.839   3.592   0.801
59178W        W30849  17.059  28.955   3.360
59179W        W30850  25.638  28.168  10.663
59180W        W30851  42.763  11.386  13.509
59181W        W30852   3.208  15.633   1.789
59182W        W30853  35.486  31.883  11.964
59183W        W30854  11.740  15.397   0.530
59184W        W30855  39.098  16.231   1.035
59185W        W30856  31.600  14.192  14.690
59186W        W30857  24.793   6.856   0.530
59187W        W30858  23.168  31.093  12.378
59188W        W30859  13.071  33.391  14.997
59189W        W30860  12.740   6.749  13.830
59190W        W30861  12.432  24.043   3.324
59191W        W30862  32.918  18.510   2.858
59192W        W30863   6.314  44.884  14.434
59193W        W30864  19.521  32.935   4.631
59194W        W30865  35.848  22.736   3.241
59195W        W30866  13.323  17.071  13.338
59196W        W30867  40.355  34.632  12.895
59197W        W30868  31.948  30.468   1.627
59198W        W30869   1.989  28.298  13.158
59199W        W30870  17.337  23.156  11.951
59200W        W30871   8.657  14.860  14.005
59201W        W30872  15.158  15.721   2.269
59202W        W30873  15.486  27.267   2.200
59203W        W30874  23.576   7.828   0.833
59204W        W30875  26.503  14.279  11.594
59205W        W30876   9.767  38.306  11.944
59206W        W30877  18.336  36.085  12.468
59207W        W30878  11.886  21.228  11.479
59208W        W30879   3.200  11.266   3.111
59209W        W30880   3.788  30.446   3.824
59210W        W30881   0.503  27.290   4.180
59211W        W30882   8.044  25.955  12.014
59212W        W30883  42.966  24.710   4.098
59213W        W30884  32.127  39.188   2.905
59214W        W30885  30.589  39.451  10.708
59215W        W30886  28.872  29.387  14.864
59216W        W30887  43.040   9.742  12.597
59217W        W30888  23.403  40.441  12.017
59218W        W30889  13.650  41.999   2.292
59219W        W30890  14.504  11.255  13.113
59220W        W30891  14.657  30.135   3.853
59221W        W30892  34.795  41.747  12.196
59222W        W30893  36.434   0.925   0.202
59223W        W30894  17.995   3.915   4.603
59224W        W30895  20.974   2.507  14.303
59225W        W30896  18.116   9.978  12.931
59226W        W30897  28.144  44.332  14.600
59227W        W30898  20.317  23.323  10.828
59228W        W30899  29.372  11.429   0.060
59229W        W30900  27.708  10.662   1.365
59230W        W30901  37.851   1.407   2.374
59231W        W30902   2.249  16.227  13.097
59232W        W30903   4.001  44.485   1.782
59233W        W30904  43.248   3.480   2.779
59234W        W30905  27.156   5.889   2.856
59235W        W30906   5.401  44.238   4.672
59236W        W30907  44.522  18.510  11.118
59237W        W30908  28.199  44.867  10.811
59238W        W30909  39.658  33.809  10.872
59239W        W30910  44.524  29.567   0.541
59240W        W30911  12.906  42.076   2.036
59241W        W30912  38.543   7.380   4.209
59242W        W30913   6.444   9.339  12.365
59243W        W30914   3.981  31.666   1.379
59244W        W30915  24.911  35.045   3.701
59245W        W30916  15.034  30.032   0.820
59246W        W30917  36.373   0.098  14.975
59247W        W30918  18.606  30.547  13.561
59248W        W30919  37.447  17.581   2.761
59249W        W30920  39.061  11.199  14.025
59250W        W30921  44.307  18.029  12.408
59251W        W30922  37.351  37.667   0.065
59252W        W30923  20.307  15.541   0.305
59253W        W30924  12.296  27.055   2.732
59254W        W30925  40.620  27.867  12.919
59255W        W30926  11.820  17.153   1.196
59256W        W30927  13.996   9.223   2.655
59257W        W30928  14.401  41.262  12.113
59258W        W30929   4.883  27.674   5.093
59259W        W30930  11.016   7.664  14.116
59260W        W30931  10.664   6.792   0.910
59261W        W30932  42.931  21.048   4.857
59262W        W30933  25.326  37.171   2.875
59263W        W30934  23.428  31.972  13.391
59264W        W30935  44.211  13.410   4.411
59265W        W30936   6.952  38.589   1.451
59266W        W30937  34.089  30.064   0.514
59267W        W30938  21.707  42.352   4.283
59268W        W30939   6.140   1.206  14.716
59269W        W30940   8.062   9.675   1.779
59270W        W30941   3.842  39.133   1.212
59271W        W30942   8.585  25.159   1.754
59272W        W30943   2.963  36.566   2.796
59273W        W30944  34.538   1.736   1.341
59274W        W30945   6.843  25.518  12.528
59275W        W30946  26.133  13.112   0.857
59276W        W30947  18.398  21.231  14.453
59277W        W30948  19.756  39.542   0.167
59278W        W30949  35.870  20.139  11.540
59279W        W30950  31.849   3.253  12.561
59280W        W30951  19.278  37.019  14.313
59281W        W30952  37.005  20.163   2.091
59282W        W30953   0.248  33.616   2.257
59283W        W30954  35.431  39.913  13.968
59284W        W30955  35.132  29.158   4.700
59285W        W30956  25.319  33.867   1.845
59286W        W30957   2.500   9.704  13.766
59287W        W30958  19.606   5.233   4.820
59288W        W30959  11.895  21.039   3.636
59289W        W30960  26.289  44.303  13.874
59290W        W30961  29.395   9.761  11.513
59291W        W30962   1.420   0.556  12.442
59292W        W30963   7.173  36.678  10.665
59293W        W30964  44.270  21.062  13.764
59294W        W30965   5.623  14.241   4.932
59295W        W30966  24.534  19.012  14.862
59296W        W30967  17.968   8.838  13.491
59297W        W30968  30.629   2.436   2.231
59298W        W30969  13.765  27.544   4.098
59299W        W30970  16.619  16.168  11.153
59300W        W30971   5.080  33.775   2.379
59301W        W30972  17.221   4.530   1.726
59302W        W30973  24.418  39.366  10.599
59303W        W30974  11.111  39.554   0.378
59304W        W30975   6.793  19.589  10.853
59305W        W30976  35.369   7.206   2.330
59306W        W30977  28.253  34.946  14.011
59307W        W30978  18.085  16.386  10.754
59308W        W30979   2.671  39.360  14.939
59309W        W30980  24.727   5.342   3.321
59310W        W30981   0.769  22.209  11.605
59311W        W30982  12.900  31.721  14.169
59312W        W30983  38.894  41.904   0.232
59313W        W30984  29.901   4.289   4.598
59314W        W30985  36.068  38.484   2.870
59315W        W30986   0.011  36.529   3.582
59316W        W30987  18.353  19.610   0.890
59317W        W30988  37.019   5.712  11.978
59318W        W30989  10.794  35.932  10.702
59319W        W30990  11.212  12.168   1.796
59320W        W30991  24.546   9.739   2.202
59321W        W30992   8.391  28.955   3.125
59322W        W30993  18.559  29.720   4.536
59323W        W30994  32.092  16.852   3.194
59324W        W30995  22.733  41.001  11.592
59325W        W30996  12.048  23.020  13.574
59326W        W30997  25.461  36.407   2.354
59327W        W30998   1.682  11.407  14.354
59328W        W30999  38.865   3.408   1.802
59329W        W31000  18.003  42.889  10.811
59330W        W31001  14.844  40.284   4.068
59331W        W31002   8.570   4.296  13.553
59332W        W31003  19.805  31.896   1.879
59333W        W31004  24.462  42.908   0.126
59334W        W31005   0.499   3.905  10.941
59335W        W31006   9.194  38.497   5.022
59336W        W31007  44.967  42.206   0.424
59337W        W31008  11.410  26.963   2.205
59338W        W31009  16.099  41.824  10.756
59339W        W31010  27.072  43.943   0.985
59340W        W31011  25.138  29.895   0.466
59341W        W31012  15.214  32.005   4.588
59342W        W31013  34.058  40.487  13.829
59343W        W31014   3.554   0.868   3.594
59344W        W31015   7.965  20.095  11.602
59345W        W31016  32.380  27.179   3.375
59346W        W31017  13.607  39.763  11.379
59347W        W31018  28.427  37.956   2.860
59348W        W31019   9.503  34.920  13.434
59349W        W31020  32.449  43.695   2.534
59350W        W31021  14.143  37.381  14.464
59351W        W31022  17.658  27.685  13.435
59352W        W31023  25.061   3.540   2.231
59353W        W31024  33.994  26.461  14.893
59354W        W31025  41.779  37.553   3.260
59355W        W31026   3.749  12.199  14.573
59356W        W31027   8.304   4.987   4.176
59357W        W31028  34.034  23.743   1.513
59358W        W31029   3.739  33.418   4.002
59359W        W31030   8.759  33.977  13.485
59360W        W31031  36.069   6.797   0.688
59361W        W31032  19.664  43.416  13.064
59362W        W31033  28.520  18.737   3.664
59363W        W31034   6.702  22.008  12.625
59364W        W31035  44.081  24.980   0.005
59365W        W31036  12.202  39.861   1.357
59366W        W31037  37.467  22.884   1.872
59367W        W31038  23.510  24.584  13.856
59368W        W31039  40.860  13.164  11.057
59369W        W31040   5.172  39.069   4.715
59370W        W31041   2.629  15.134   2.617
59371W        W31042  40.045  12.295   3.460
59372W        W31043   2.402  23.738   1.355
59373W        W31044  23.934  27.901  11.502
59374W        W31045  17.254  11.699   1.365
59375W        W31046  23.076   3.343  13.061
59376W        W31047  27.590  39.582  13.467
59377W        W31048  44.760  28.701   4.615
59378W        W31049  21.521  16.691   0.376
59379W        W31050  39.013  16.688   3.882
59380W        W31051  43.618   3.802   0.800
59381W        W31052  39.890  37.881   0.272
59382W        W31053  30.665   3.944   2.161
59383W        W31054  26.535  36.535   1.399
59384W        W31055  31.703   7.600  14.201
59385W        W31056  32.928  12.877   0.777
59386W        W31057  23.580  23.681  12.594
59387W        W31058  25.352  14.352   0.431
59388W        W31059  35.543  40.370  10.139
59389W        W31060  19.535  12.653  10.523
59390W        W31061   0.256  13.873   0.867
59391W        W31062   2.453   9.900   3.761
59392W        W31063  18.324   9.478   1.427
59393W        W31064  36.614  43.480   4.495
59394W        W31065  21.634  18.242   3.483
59395W        W31066   4.275  12.631  12.601
59396W        W31067  36.372  24.058   2.661
59397W        W31068  19.758  36.119  12.509
59398W        W31069   5.360  24.099   0.349
59399W        W31070  16.367  29.507  14.826
59400W        W31071  20.713  19.067   4.345
59401W        W31072  17.680   6.919  10.652
59402W        W31073   9.313  25.691  11.602
59403W        W31074  34.924  17.199  14.567
59404W        W31075  35.897  11.063   1.900
59405W        W31076  31.161  31.093   1.683
59406W        W31077  18.709  36.991   3.825
59407W        W31078  28.032  13.702  12.957
59408W        W31079  30.638   7.666  14.391
59409W        W31080   8.923  44.890  12.383
59410W        W31081  12.832  33.962  12.653
59411W        W31082  37.582   3.966   3.207
59412W        W31083   4.383  26.173  12.353
59413W        W31084  12.249   1.872  13.784
59414W        W31085  13.661  39.372   3.292
59415W        W31086  37.003  38.270   1.251
59416W        W31087  11.109  13.295  11.272
59417W        W31088  18.554  36.650  12.029
59418W        W31089   2.204  22.501   2.333
59419W        W31090  17.816  15.372  13.375
59420W        W31091  15.045  12.252  14.518
59421W        W31092  32.652  12.574  14.682
59422W        W31093  41.232  35.073  12.485
59423W        W31094  39.049   3.206  14.205
59424W        W31095  26.919  36.015   0.506
59425W        W31096  34.188  38.814  12.973
59426W        W31097  24.134  40.570  11.417
59427W        W31098   9.155  20.518   3.790
59428W        W31099  10.203  20.964   3.174
59429W        W31100   1.984  23.595  14.944
59430W        W31101   0.296  27.054   3.378
59431W        W31102  25.082  35.941   2.342
59432W        W31103  26.160  31.204   2.187
59433W        W31104   1.465  43.233  10.414
59434W        W31105   3.635  42.715  11.056
59435W        W31106  20.933  40.236   3.839
59436W        W31107   2.850  26.641  13.897
59437W        W31108  31.380   4.385  13.582
59438W        W31109  32.303  19.276   3.345
59439W        W31110  37.135   3.762   3.437
59440W        W31111  38.848  19.295  13.424
59441W        W31112  18.713  35.106   2.100
59442W        W31113   8.658  40.327  13.356
59443W        W31114  43.847  18.203   3.714
59444W        W31115  43.479  38.874   3.351
59445W        W31116   4.864   3.641  11.281
59446W        W31117  32.523  36.902   4.153
59447W        W31118   8.691  43.472   2.978
59448W        W31119  12.636  13.235  12.318
59449W        W31120  17.085   4.079   2.468
59450W        W31121  18.106  42.405   0.265
59451W        W31122  34.248  38.596  10.271
59452W        W31123  21.108  38.342  12.544
59453W        W31124  14.833  14.227   0.002
59454W        W31125  21.368   0.965   3.248
59455W        W31126  14.162   7.707   0.777
59456W        W31127  39.278  34.001  11.186
59457W        W31128  30.923  33.442  12.125
59458W        W31129  27.981  25.226  10.718
59459W        W31130  31.354   9.206  13.278
59460W        W31131  22.613  27.865  10.997
59461W        W31132  26.139  11.895   0.031
59462W        W31133  31.042  21.673  10.566
59463W        W31134  26.099   9.691  11.512
59464W        W31135  26.547   8.056  12.810
59465W        W31136  34.031  10.132   3.731
59466W        W31137   2.353   7.809  13.332
59467W        W31138  18.184  40.529  10.479
59468W        W31139  24.956  40.589  13.396
59469W        W31140  28.590  14.103   1.041
59470W        W31141  16.796   8.761  11.469
59471W        W31142  13.684  16.241   3.558
59472W        W31143  25.545  37.958   2.893
59473W        W31144  26.845  39.455  13.866
59474W        W31145  28.248  33.476   0.307
59475W        W31146  33.990  43.864   0.771
59476W        W31147  13.855  12.107   1.823
59477W        W31148  36.956  29.502   4.663
59478W        W31149  22.449  32.710   4.398
59479W        W31150   0.906  35.711  11.611
59480W        W31151  37.526   1.262   4.421
59481W        W31152  35.976  34.902  11.513
59482W        W31153   3.676  20.621   0.334
59483W        W31154   0.216  20.014   4.177
59484W        W31155  26.554   6.932   0.399
59485W        W31156  14.039  16.028   3.869
59486W        W31157  22.575  30.417  13.758
59487W        W31158  30.650  39.041  14.907
59488W        W31159  41.905  10.208  10.186
59489W        W31160  31.010  37.083  13.784
59490W        W31161  20.835  13.208   0.628
59491W        W31162  15.118  38.237   3.517
59492W        W31163  24.778  10.067   4.238
59493W        W31164  37.114  41.191   4.512
59494W        W31165  26.194  32.009  12.714
59495W        W31166  12.095  38.447   0.432
59496W        W31167  21.718  38.441  10.087
59497W        W31168  23.633  42.808  10.705
59498W        W31169  36.359   4.284  12.437
59499W        W31170  26.222  12.692  10.686
59500W        W31171  34.412   2.289   3.369
59501W        W31172  31.414   4.656  12.026
59502W        W31173   4.361  13.758  10.690
59503W        W31174  38.762  13.744  12.933
59504W        W31175  14.411   5.454   1.948
59505W        W31176   5.363  40.828   2.632
59506W        W31177  21.250  17.519   3.329
59507W        W31178  31.167  17.203   3.688
59508W        W31179   5.128  28.571  10.777
59509W        W31180   2.144  27.186  12.222
59510W        W31181  34.811  24.257   4.129
59511W        W31182   6.668  35.558   0.710
59512W        W31183  44.866  38.420  14.817
59513W        W31184  17.223   1.916  11.114
59514W        W31185  29.236  20.817   4.243
59515W        W31186   7.271  37.101   0.800
59516W        W31187  23.493  10.402   0.820
59517W        W31188  42.864   3.969   2.169
59518W        W31189  11.939  27.874   5.033
59519W        W31190   1.930  30.157  13.835
59520W        W31191  33.990   1.938   3.678
59521W        W31192  15.239  14.171   4.559
59522W        W31193  21.326  14.649   0.689
59523W        W31194   4.303  21.310   3.921
59524W        W31195  12.651  19.098  12.994
59525W        W31196  24.232  23.181   1.319
59526W        W31197  33.642  37.515  10.583
59527W        W31198  41.983  27.668  14.947
59528W        W31199  25.679  39.098   4.299
59529W        W31200  40.526  15.791  12.041
59530W        W31201  32.677  10.176  13.839
59531W        W31202  38.606  26.643  10.149
59532W        W31203  37.358  29.855  10.681
59533W        W31204   8.090   1.294   3.880
59534W        W31205  35.516  30.855   3.214
59535W        W31206  35.423  32.654  14.722
59536W        W31207   6.738  12.430   0.307
59537W        W31208  16.300  29.228  12.528
59538W        W31209  21.202   3.384  11.503
59539W        W31210  32.097  25.438   5.240
59540W        W31211   9.269  42.420  12.682
59541W        W31212  41.622   2.236  13.040
59542W        W31213  42.338  27.274   2.700
59543W        W31214  25.750  31.091   0.273
59544W        W31215  30.690  30.026   3.820
59545W        W31216  36.150  27.380  12.107
59546W        W31217   3.445   8.420  10.698
59547W        W31218  28.645   9.919   3.312
59548W        W31219  21.974  32.413   3.396
59549W        W31220   5.825  24.985  13.138
59550W        W31221  43.431  21.939   2.095
59551W        W31222  18.544   2.666   1.850
59552W        W31223   8.026  42.962   3.628
59553W        W31224  43.475  21.205   2.701
59554W        W31225  40.793  38.292   4.167
59555W        W31226  13.685  43.886   4.762
59556W        W31227  18.721  44.114  13.742
59557W        W31228  33.214   6.219   5.056
59558W        W31229  15.754  37.093  13.032
59559W        W31230  12.017  25.195   3.237
59560W        W31231   8.063  25.168   4.982
59561W        W31232  33.454   0.946   2.966
59562W        W31233  19.408   4.106  11.514
59563W        W31234  14.850  36.465   1.519
59564W        W31235  37.678  34.042   0.487
59565W        W31236  34.711   3.818   3.280
59566W        W31237  24.104  16.533   1.413
59567W        W31238   5.457   2.929  13.068
59568W        W31239  29.611  12.097   3.571
59569W        W31240   2.276   8.230   4.780
59570W        W31241  20.935  13.652   3.631
59571W        W31242  19.950  14.712   9.421
59572W        W31243  35.496  22.155   4.540
59573W        W31244   8.274  13.063   0.256
59574W        W31245  36.372   9.808  12.856
59575W        W31246  32.920  20.521   2.545
59576W        W31247  12.626  21.561  12.511
59577W        W31248   2.226  22.195  10.219
59578W        W31249   3.763   9.892  14.434
59579W        W31250  42.470  39.000  11.743
59580W        W31251  25.243   0.515   2.724
59581W        W31252  18.866  42.773   2.393
59582W        W31253  44.669  33.125   0.271
59583W        W31254  18.082  24.264  14.933
59584W        W31255  30.377  24.255  13.359
59585W        W31256  10.000  36.110  12.972
59586W        W31257  31.202  11.229  12.559
59587W        W31258   4.726  43.846  14.071
59588W        W31259  26.773   0.104  10.733
59589W        W31260  31.873  18.816   0.280
59590W        W31261  41.240  25.489  12.505
59591W        W31262  14.715  37.085   1.931
59592W        W31263  31.332  25.655  11.400
59593W        W31264  26.752  30.037  11.068
59594W        W31265  34.853  19.180  13.388
59595W        W31266  42.383  35.038  10.647
59596W        W31267  11.752  42.133   0.775
59597W        W31268  24.896  25.587  13.814
59598W        W31269   7.144  39.043  14.455
59599W        W31270  39.804  25.660  11.146
59600W        W31271  15.545  42.972  13.319
59601W        W31272  13.746  43.661  13.961
59602W        W31273   9.171  33.383  12.880
59603W        W31274   4.457  15.234   1.021
59604W        W31275  38.519  36.402   3.615
59605W        W31276  24.095  38.692  10.203
59606W        W31277  40.408  17.238   1.773
59607W        W31278  29.641  29.683   0.778
59608W        W31279  12.684  32.668  11.425
59609W        W31280  13.245  10.276  12.556
59610W        W31281  17.330  27.609   2.191
59611W        W31282  13.372  10.731   2.169
59612W        W31283  16.793  26.850  10.640
59613W        W31284   4.295  16.657  11.243
59614W        W31285  14.781  41.395  12.491
59615W        W31286  19.579   6.742  14.977
59616W        W31287  11.674  35.058   1.321
59617W        W31288  20.905  21.952  13.651
59618W        W31289  32.960  27.438  14.512
59619W        W31290  28.549   6.366  10.182
59620W        W31291  31.681  20.382  14.412
59621W        W31292  24.503  31.909  13.469
59622W        W31293  11.305  10.258   3.815
59623W        W31294  11.035  44.815  12.409
59624W        W31295  11.550  41.990   2.288
59625W        W31296  21.061  23.577   9.785
59626W        W31297  21.764  14.669  10.510
59627W        W31298  26.733   9.831   2.275
59628W        W31299  35.396  26.064   1.400
59629W        W31300  26.475  26.976   0.088
59630W        W31301  44.346  18.228  11.534
59631W        W31302  25.753  30.067  11.131
59632W        W31303  14.624  15.155  12.962
59633W        W31304  33.130  40.336  10.701
59634W        W31305   6.519  37.514  10.773
59635W        W31306   1.771  43.221   4.628
59636W        W31307   5.773  23.984  14.421
59637W        W31308  25.374  15.518   4.235
59638W        W31309  35.764  18.330  14.352
59639W        W31310  32.938  18.685   2.378
59640W        W31311   6.864  23.215   3.244
59641W        W31312  25.623  22.629  11.669
59642W        W31313   9.397   4.819  14.464
59643W        W31314  28.105   8.938   0.852
59644W        W31315  16.809  24.043  12.010
59645W        W31316  11.155   4.794  14.234
59646W        W31317   1.186   3.171  10.781
59647W        W31318  37.111  28.084   4.666
59648W        W31319  44.058  23.027  14.027
59649W        W31320   5.904  24.975   3.347
59650W        W31321  41.970  16.570   2.401
59651W        W31322  15.163   9.367  11.171
59652W        W31323  15.161  16.283   0.235
59653W        W31324  19.489  13.740   0.481
59654W        W31325   8.363  23.620   1.440
59655W        W31326  39.072  42.295   3.874
59656W        W31327   5.331  25.891  14.910
59657W        W31328  13.722  26.618   3.718
59658W        W31329  26.692   9.966  13.817
59659W        W31330  13.750   3.807  12.239
59660W        W31331  36.575  36.098  13.430
59661W        W31332  37.605   6.410  14.036
59662W        W31333   6.775   2.756  12.507
59663W        W31334  41.052  21.708  10.538
59664W        W31335  25.147  35.414  10.578
59665W        W31336   4.020   3.236   2.851
59666W        W31337   8.950  39.425  12.915
59667W        W31338  37.069  29.396  10.697
59668W        W31339  31.501  22.584  10.683
59669W        W31340   2.669  39.432  11.120
59670W        W31341  28.614  33.122  13.281
59671W        W31342  23.717  35.322   0.815
59672W        W31343   0.690  39.121  12.702
59673W        W31344   8.830  11.119   3.707
59674W        W31345  44.485   4.637   4.184
59675W        W31346   1.544  20.582  11.395
59676W        W31347   6.225   8.538  11.364
59677W        W31348  31.875  16.647   1.789
59678W        W31349  40.848   9.787   2.916
59679W        W31350   6.602  29.144   1.479
59680W        W31351  16.158   5.485   3.064
59681W        W31352  33.625  43.726  10.865
59682W        W31353  34.085  17.352  14.210
59683W        W31354  18.592  39.480   0.635
59684W        W31355  43.431  14.116   3.077
59685W        W31356  14.997  38.980   3.772
59686W        W31357  19.115  26.481   5.057
59687W        W31358  23.765  29.099   1.837
59688W        W31359  15.577  37.360  11.114
59689W        W31360  40.875  39.945  11.192
59690W        W31361   6.222   5.937   0.831
59691W        W31362  19.218  44.035  12.649
59692W        W31363  14.118  34.523   3.900
59693W        W31364   9.771   0.669  13.427
59694W        W31365  36.893  14.816  14.908
59695W        W31366  32.455  37.852  14.307
59696W        W31367  36.496  32.866  12.396
59697W        W31368   8.832  23.516   3.798
59698W        W31369  44.348  13.323  12.960
59699W        W31370  11.299  13.285   3.253
59700W        W31371  40.441  21.051  14.598
59701W        W31372  13.769  27.962   1.390
59702W        W31373  28.607  19.802  14.468
59703W        W31374  15.590   5.653   4.679
59704W        W31375  23.031  26.970  12.993
59705W        W31376   0.511   5.290   4.652
59706W        W31377  40.927  41.505   3.124
59707W        W31378  10.641  37.344  11.548
59708W        W31379  16.099  26.450  14.399
59709W        W31380  39.659  44.447   3.214
59710W        W31381  35.616  31.517   2.765
59711W        W31382   2.256  19.405   0.366
59712W        W31383  17.808  20.456  14.348
59713W        W31384  25.903   4.906   4.756
59714W        W31385   0.167   2.096   4.607
59715W        W31386  34.497  31.869   3.208
59716W        W31387   1.611  24.916  14.400
59717W        W31388  22.220  24.344  11.470
59718W        W31389  33.593   4.233   2.985
59719W        W31390  44.820  12.168   3.331
59720W        W31391  29.633  11.618  11.550
59721W        W31392   6.475   3.993   1.468
59722W        W31393  17.983  36.008  11.569
59723W        W31394  17.877  42.859   0.357
59724W        W31395   3.278  37.390   4.041
59725W        W31396  38.408  41.049  11.942
59726W        W31397  22.499   6.632   4.779
59727W        W31398  33.977  37.715   5.302
59728W        W31399  23.572  31.506  13.112
59729W        W31400  11.398  27.390  14.004
59730W        W31401  13.654  13.592  12.494
59731W        W31402  16.239  22.025  11.662
59732W        W31403  42.789  44.847   2.464
59733W        W31404   8.695   3.150   3.630
59734W        W31405  16.583  32.468   4.578
59735W        W31406  23.054  34.664   0.801
59736W        W31407  22.073  11.307   3.282
59737W        W31408   5.523  40.950   4.606
59738W        W31409  44.427  30.930   2.860
59739W        W31410  41.114  10.500   4.012
59740W        W31411  34.023   5.716   3.308
59741W        W31412  28.651  20.726   2.975
59742W        W31413  24.964  41.866   3.351
59743W        W31414  26.417  30.429  10.917
59744W        W31415  34.230   3.751   2.896
59745W        W31416  28.985  18.406   2.744
59746W        W31417  16.362  13.827  11.529
59747W        W31418  19.619  23.771   0.168
59748W        W31419   7.147  34.107   3.686
59749W        W31420  20.837  13.801  12.640
59750W        W31421  38.821  26.596   4.299
59751W        W31422   2.395  35.933   1.858
59752W        W31423   1.272   1.407   3.244
59753W        W31424   1.895  10.309  11.184
59754W        W31425  19.545   4.803  11.856
59755W        W31426   7.663  12.123   1.673
59756W        W31427  30.331   9.252  10.619
59757W        W31428   8.656  35.506   4.395
59758W        W31429  17.795  18.078   1.692
59759W        W31430  15.565  40.761  10.711
59760W        W31431  27.648   6.655   5.024
59761W        W31432  32.083   3.257   3.713
59762W        W31433   3.810  24.060  12.969
59763W        W31434  40.396   3.429  11.906
59764W        W31435   8.308  35.807   0.497
59765W        W31436  25.956   9.437  11.098
59766W        W31437  33.488  33.728   2.346
59767W        W31438  21.727  34.345   4.155
59768W        W31439  37.019  35.141   1.316
59769W        W31440   4.820  32.146   1.718
59770W        W31441  12.913   6.431   3.272
59771W        W31442  43.284   4.210   2.402
59772W        W31443  27.923  27.918  12.344
59773W        W31444  43.113   0.467   0.759
59774W        W31445  39.232  19.713   4.063
59775W        W31446  34.398  40.895  12.048
59776W        W31447  27.701  13.624  13.880
59777W        W31448  10.143   2.008  13.019
59778W        W31449  28.043  10.986  12.383
59779W        W31450  11.490  17.308  11.073
59780W        W31451  43.313  36.984   4.631
59781W        W31452  24.484   9.521   2.666
59782W        W31453   1.706  15.543  11.653
59783W        W31454  19.600  34.532   4.914
59784W        W31455  19.808  42.807   2.670
59785W        W31456   1.822  16.280   4.595
59786W        W31457  30.202  14.227   1.669
59787W        W31458  28.462  19.629  13.844
59788W        W31459  34.480  42.876  12.143
59789W        W31460   0.750  34.077  11.696
59790W        W31461  34.004  19.765   3.657
59791W        W31462  20.968  40.395  12.476
59792W        W31463  39.720   7.794   4.634
59793W        W31464  10.978   0.339   2.204
59794W        W31465   3.962  38.167   3.610
59795W        W31466  23.645  35.931  14.804
59796W        W31467  13.659  14.625  12.251
59797W        W31468  24.149  14.247   2.729
59798W        W31469   2.485  13.312   0.969
59799W        W31470   7.729  22.320   4.149
59800W        W31471  24.964  32.411  13.926
59801W        W31472  25.325   4.422  12.750
59802W        W31473  34.784  14.783  12.380
59803W        W31474  31.888  12.655  10.626
59804W        W31475  20.512  43.448  13.404
59805W        W31476  21.758  40.488  13.247
59806W        W31477   9.408  30.241   2.229
59807W        W31478  34.558   3.309   4.104
59808W        W31479  24.534   5.353   2.280
59809W        W31480  12.169   7.160  11.053
59810W        W31481  12.740  44.626  14.585
59811W        W31482  10.152  31.861   3.038
59812W        W31483  38.063  36.606   3.426
59813W        W31484  38.407  18.009  14.452
59814W        W31485  35.873  35.040   3.993
59815W        W31486  25.724   8.951  13.330
59816W        W31487  12.401  43.244  13.000
59817W        W31488  30.149  28.736   2.264
59818W        W31489  40.617  12.490  11.954
59819W        W31490  26.457   9.091   5.441
59820W        W31491  42.361  35.864  12.395
59821W        W31492  22.279  30.486   1.262
59822W        W31493   5.319  29.057  12.992
59823W        W31494  10.873  17.066   4.102
59824W        W31495  10.934   0.251   1.440
59825W        W31496  16.321  10.338   3.230
59826W        W31497   2.725   2.895   4.505
59827W        W31498  44.170  11.437   4.541
59828W        W31499   2.414  24.404   2.429
59829W        W31500  29.657  36.576   1.072
59830W        W31501  40.776   6.317   2.304
59831W        W31502  24.773  13.680  14.480
59832W        W31503  17.143  21.791  12.959
59833W        W31504  35.842   1.950  11.213
59834W        W31505  39.651  31.633   4.153
59835W        W31506  15.865  21.272   2.600
59836W        W31507  34.395  24.031   1.284
59837W        W31508  33.666  39.639  12.605
59838W        W31509  22.613   2.914  14.292
59839W        W31510   2.166   7.438   0.792
59840W        W31511  13.542  42.267   0.333
59841W        W31512  42.088  19.148  11.144
59842W        W31513   4.651  21.041  10.475
59843W        W31514  36.985  22.881   0.790
59844W        W31515  24.111  16.740   0.906
59845W        W31516  11.153  16.611  11.105
59846W        W31517  39.194  39.730   2.111
59847W        W31518  19.679   3.942   2.264
59848W        W31519  25.795  17.989   0.435
59849W        W31520  37.611  23.048   2.735
59850W        W31521  42.259  38.940  13.838
59851W        W31522  19.635  19.625  12.049
59852W        W31523  18.331  42.458  10.789
59853W        W31524  17.260  18.161   0.731
59854W        W31525  28.456  10.847   4.412
59855W        W31526   3.647  16.181   3.330
59856W        W31527   4.126   4.197   1.374
59857W        W31528  10.858  17.671   3.372
59858W        W31529  31.617   0.482  14.290
59859W        W31530   2.573   4.968  14.790
59860W        W31531   8.081  38.875  14.371
59861W        W31532  19.080  39.799  14.263
59862W        W31533   5.821   0.456   1.874
59863W        W31534  39.403  22.569  13.828
59864W        W31535  40.306  22.256   1.358
59865W        W31536  30.437  44.198  13.081
59866W        W31537  33.638  42.509   2.776
59867W        W31538  26.481  30.375  11.425
59868W        W31539   2.877   1.715  12.249
59869W        W31540   9.221  18.691   2.663
59870W        W31541  20.932   1.410  11.652
59871W        W31542   9.576   6.939  11.804
59872W        W31543  20.645  37.281   1.454
59873W        W31544  25.992  20.459  12.262
59874W        W31545   7.721  24.869  13.134
59875W        W31546  30.547  34.531  13.379
59876W        W31547  35.599  39.997   3.098
59877W        W31548  42.117  21.324   2.670
59878W        W31549  36.974  28.290   1.459
59879W        W31550  26.702  35.557   2.337
59880W        W31551  17.873  21.062   1.342
59881W        W31552  29.525  39.428   1.249
59882W        W31553  38.653  15.737   3.122
59883W        W31554   3.730  28.954   1.436
59884W        W31555  41.884   3.114  12.413
59885W        W31556  40.862  11.859   3.875
59886W        W31557  37.395  15.264   1.662
59887W        W31558   9.865  15.092  14.449
59888W        W31559   9.792  12.259  11.550
59889W        W31560  13.643  44.377  14.745
59890W        W31561  19.961  21.156  13.327
59891W        W31562  43.029  17.786   0.762
59892W        W31563  16.784  38.133  11.600
59893W        W31564   5.443  42.078  11.570
59894W        W31565  20.225  23.491   4.729
59895W        W31566   7.714  25.872   1.487
59896W        W31567  23.690  33.580   2.661
59897W        W31568  13.624  15.404   1.351
59898W        W31569  27.488  27.508   0.045
59899W        W31570  44.809  22.488   2.268
59900W        W31571  29.238  13.816   4.330
59901W        W31572  29.597  24.780   3.638
59902W        W31573  16.324  18.262   4.605
59903W        W31574  42.474  33.875  12.053
59904W        W31575  21.828  10.366  14.900
59905W        W31576  32.520  31.058  14.294
59906W        W31577   9.893  23.540  12.347
59907W        W31578  23.180  21.121   0.271
59908W        W31579   2.239  17.591   0.418
59909W        W31580  29.683  44.951   2.462
59910W        W31581  38.725  29.940  12.454
59911W        W31582  25.079   6.450   3.102
59912W        W31583  14.289  37.985  13.333
59913W        W31584  21.460  32.547  12.437
59914W        W31585  38.913   0.257   3.872
59915W        W31586  19.291  36.953   4.555
59916W        W31587  40.017  13.731   4.304
59917W        W31588  39.756   7.866  14.529
59918W        W31589  28.235  37.506  14.640
59919W        W31590  43.349  18.937   0.204
59920W        W31591  37.017  33.414   0.058
59921W        W31592  44.056  13.780   5.247
59922W        W31593  32.638  22.328   3.322
59923W        W31594  23.466  11.872   0.908
59924W        W31595  25.743  23.476  11.735
59925W        W31596  41.217  18.369   5.268
59926W        W31597  18.000  29.660  11.118
59927W        W31598  44.489  15.711   1.515
59928W        W31599  35.028  19.102   4.527
59929W        W31600  29.095   9.207   1.031
59930W        W31601  17.908  43.836   3.764
59931W        W31602   2.711   3.455  12.544
59932W        W31603  12.206  23.100   1.714
59933W        W31604   5.871  40.518  12.874
59934W        W31605  38.199   6.670   4.371
59935W        W31606  14.071  17.325   4.517
59936W        W31607   4.753   1.166  12.556
59937W        W31608  41.566  28.466   4.262
59938W        W31609  31.579  16.042  11.169
59939W        W31610   4.062  41.568   0.738
59940W        W31611  34.939  44.978  13.358
59941W        W31612   1.990  33.649  14.007
59942W        W31613  26.996   7.575   5.055
59943W        W31614  23.679  27.628  13.136
59944W        W31615  18.659  28.672  13.505
59945W        W31616   8.682   6.307  14.379
59946W        W31617  28.777  29.138   4.207
59947W        W31618  21.741  22.270   2.973
59948W        W31619  43.914   7.228  11.896
59949W        W31620  26.630   7.925  14.267
59950W        W31621  12.089  35.899   0.868
59951W        W31622  37.822  29.973  14.745
59952W        W31623   7.169  12.296  12.300
59953W        W31624  27.387   7.337   5.324
59954W        W31625  33.848  14.879  13.023
59955W        W31626  35.931   0.465  12.973
59956W        W31627  44.655   8.470   3.240
59957W        W31628  27.465  34.456   2.697
59958W        W31629  38.020  39.175  10.801
59959W        W31630   8.887  13.246  12.231
59960W        W31631  43.782  23.522  13.427
59961W        W31632  28.949  29.898   2.270
59962W        W31633   5.847  10.961   4.123
59963W        W31634  39.457  33.316  14.292
59964W        W31635  29.607  11.149  13.917
59965W        W31636  27.816  32.507  10.406
59966W        W31637  23.023  32.389  11.918
59967W        W31638  41.405  12.430   3.407
59968W        W31639  16.021  18.167   0.275
59969W        W31640  37.791  28.855  12.570
59970W        W31641  27.699  27.644  11.573
59971W        W31642  29.939  33.329  13.330
59972W        W31643   1.322   3.180  11.906
59973W        W31644  38.550  28.894  11.956
59974W        W31645  14.266   3.065   4.075
59975W        W31646  36.084  29.020  10.960
59976W        W31647   3.827  24.796  12.019
59977W        W31648  39.185  18.045   0.809
59978W        W31649   0.229  22.185  11.645
59979W        W31650  11.386  40.426   1.361
59980W        W31651  38.015  40.374  12.356
59981W        W31652  14.158  25.060  12.953
59982W        W31653  29.029  10.740   1.854
59983W        W31654  41.639   4.218  13.775
59984W        W31655  37.909  33.601   2.149
59985W        W31656   0.980   2.350  11.946
59986W        W31657  12.203  28.379  13.260
59987W        W31658  42.300  14.143   5.380
59988W        W31659  25.462   4.989   3.817
59989W        W31660  23.088  28.160   3.623
59990W        W31661  10.255  32.233  10.102
59991W        W31662  38.823   0.922  13.206
59992W        W31663  16.086   8.398   0.950
59993W        W31664  27.540  26.671   1.386
59994W        W31665  41.227  27.643   4.252
59995W        W31666   6.282  14.803  14.527
59996W        W31667   6.295  14.310   2.172
59997W        W31668   3.060  29.736   1.200
59998W        W31669  20.176  29.862   2.245
59999W        W31670  27.865  37.985  14.465
60000W        W31671  17.436  17.154   4.724
60001W        W31672  35.335  22.853   3.367
60002W        W31673  43.367  40.719  13.805
60003W        W31674  20.449  14.091  12.455
60004W        W31675  37.527   5.834  11.974
60005W        W31676   8.798  14.752   1.332
60006W        W31677   1.666  37.640  13.857
60007W        W31678  41.612  34.086   4.632
60008W        W31679  22.283  23.236  11.132
60009W        W31680   0.300  10.025  10.429
60010W        W31681   3.196  20.323   2.924
60011W        W31682  12.753  29.078   1.396
60012W        W31683   9.859  32.831   4.576
60013W        W31684  37.361  19.833  12.961
60014W        W31685  39.068   0.888   0.500
60015W        W31686  15.119  34.433   4.448
60016W        W31687   0.300  11.940  13.421
60017W        W31688   8.202  15.647   1.874
60018W        W31689  17.029  25.507   2.253
60019W        W31690   3.415  41.739   3.063
60020W        W31691  14.567  12.131  14.385
60021W        W31692  26.799  17.125   4.430
60022W        W31693   3.979  30.001  14.797
60023W        W31694  18.218   8.951   1.380
60024W        W31695   4.365  37.255   3.791
60025W        W31696  42.260  35.476   4.300
60026W        W31697  26.364   5.398  11.477
60027W        W31698   6.692  37.834   4.522
60028W        W31699  23.454  15.335  14.067
60029W        W31700  42.943  41.497  11.123
60030W        W31701  29.926   0.478  12.097
60031W        W31702  10.490  26.020   2.082
60032W        W31703  19.084  16.576  12.938
60033W        W31704  41.097   2.761   4.123
60034W        W31705  18.704  41.818   1.429
60035W        W31706  41.582  29.130   3.236
60036W        W31707   0.842  14.774  10.945
60037W        W31708  21.616  40.735   2.963
60038W        W31709  16.859  30.548  12.942
60039W        W31710  40.810  41.695  11.192
60040W        W31711   7.056  35.476  11.553
60041W        W31712  34.907  36.408   2.172
60042W        W31713  36.194   1.665  10.406
60043W        W31714  29.899  35.005  11.314
60044W        W31715  16.208  43.446  13.083
60045W        W31716  16.287  41.964   4.621
60046W        W31717  13.725  44.700   0.500
60047W        W31718  13.418  35.569  12.950
60048W        W31719  33.877  19.195   3.124
60049W        W31720  26.174  36.032   1.814
60050W        W31721  18.124  26.625   4.103
60051W        W31722  32.086   0.636   4.166
60052W        W31723  43.487  39.972   2.715
60053W        W31724  19.160  10.671  11.109
60054W        W31725  32.492  43.503  13.350
60055W        W31726  33.425  24.251  12.852
60056W        W31727  34.410  42.296  10.897
60057W        W31728   6.240  22.314  14.777
60058W        W31729  34.485  34.949   2.691
60059W        W31730  33.517  44.218   1.710
60060W        W31731  14.334   1.782   3.781
60061W        W31732  23.966  23.148   2.246
60062W        W31733  31.100   5.404  11.177
60063W        W31734   2.417   6.657   0.375
60064W        W31735  31.013   4.171   4.533
60065W        W31736  23.331  15.582   1.852
60066W        W31737  13.641   6.855   2.748
60067W        W31738   9.797  25.129  13.800
60068W        W31739  40.937   9.833   0.571
60069W        W31740  38.792   1.466  13.620
60070W        W31741   9.172  34.383   5.238
60071W        W31742  18.221   0.179   3.754
60072W        W31743  20.538   6.668   0.243
60073W        W31744  33.379   0.467  11.264
60074W        W31745  12.362   4.837  13.987
60075W        W31746  21.273  26.291   3.553
60076W        W31747   0.213  23.564  11.376
60077W        W31748  40.572  25.083   1.185
60078W        W31749  22.614   7.676   0.453
60079W        W31750  18.332  14.060   0.348
60080W        W31751  44.407  26.639   1.283
60081W        W31752   0.998  42.444  11.109
60082W        W31753  35.894  20.742  10.688
60083W        W31754  36.290  24.779  11.563
60084W        W31755   4.474  25.960   3.593
60085W        W31756  39.607  27.681  14.862
60086W        W31757   0.085  20.970  14.097
60087W        W31758  33.061   1.613  14.340
60088W        W31759  40.289  38.664   1.258
60089W        W31760  12.416  34.537  14.002
60090W        W31761  34.598  32.334   4.084
60091W        W31762  32.406  35.654   2.315
60092W        W31763  14.744  24.705   0.168
60093W        W31764  26.604  37.574   1.252
60094W        W31765  37.383  29.123   3.215
60095W        W31766   3.225  13.093   4.246
60096W        W31767  16.078  13.952  14.397
60097W        W31768  41.255  40.071   1.675
60098W        W31769  20.077  22.644  14.407
60099W        W31770  33.709   7.565  12.090
60100W        W31771  15.933   4.416  13.371
60101W        W31772  23.690   9.003  14.090
60102W        W31773  33.530  13.636  14.058
60103W        W31774  37.924  35.415   2.546
60104W        W31775  21.165  37.551   2.337
60105W        W31776   8.151  28.056   0.705
60106W        W31777   7.396  34.955   1.189
60107W        W31778  33.503  11.735  13.897
60108W        W31779  29.008  28.464  13.883
60109W        W31780  17.637  36.034  13.760
60110W        W31781  13.124  17.040   1.700
60111W        W31782   9.085   5.707   1.955
60112W        W31783   0.825  28.642   0.879
60113W        W31784  34.848  26.623  10.691
60114W        W31785  10.894   8.483  10.674
60115W        W31786  40.384  29.515   0.031
60116W        W31787  19.243  23.227   4.847
60117W        W31788  14.182   9.910   4.458
60118W        W31789  18.887  20.485  11.044
60119W        W31790  43.218  39.932   1.373
60120W        W31791   2.746   4.725   3.005
60121W        W31792  10.240  27.610   2.821
60122W        W31793  12.006  20.652  14.014
60123W        W31794  23.526   4.429  14.414
60124W        W31795  15.584   8.463   4.921
60125W        W31796  29.365  19.597   3.318
60126W        W31797  41.847  23.177  12.996
60127W        W31798  21.545  18.695  14.276
60128W        W31799  39.627   2.174  14.970
60129W        W31800  43.373   0.374   2.088
60130W        W31801   6.184   6.830   0.016
60131W        W31802  16.292  23.648   4.561
60132W        W31803  41.689   5.686   3.522
60133W        W31804  18.159  36.872   1.343
60134W        W31805   4.691  28.453  13.382
60135W        W31806  21.279  14.684  14.740
60136W        W31807  10.772   8.589  12.042
60137W        W31808  25.999  18.992   3.223
60138W        W31809  29.068  38.858  14.119
60139W        W31810  41.342  39.491   3.738
60140W        W31811  31.840   0.557   3.720
60141W        W31812  39.605  24.253   1.196
60142W        W31813   0.569  36.045   2.906
60143W        W31814   9.387   1.659   3.656
60144W        W31815   3.330   5.170  10.678
60145W        W31816   4.131  31.530  13.557
60146W        W31817  36.911  23.593   0.964
60147W        W31818  43.968  22.556   5.002
60148W        W31819   5.858  32.359  13.888
60149W        W31820   7.767   9.405  13.260
60150W        W31821  23.528  17.637  12.941
60151W        W31822  23.981  26.616  10.229
60152W        W31823  28.170  33.179   4.002
60153W        W31824  16.894  26.609   0.909
60154W        W31825   1.911  41.850   2.924
60155W        W31826  28.453  31.820  11.149
60156W        W31827  12.648   9.315   0.199
60157W        W31828   7.688   1.225   3.493
60158W        W31829  28.037  19.773   1.233
60159W        W31830  10.888   1.287  10.657
60160W        W31831  11.314   7.301  14.943
60161W        W31832   1.787  34.147  11.028
60162W        W31833  20.244   9.896   2.216
60163W        W31834  14.263  11.847   4.689
60164W        W31835  22.910  21.374   2.327
60165W        W31836  35.936  32.123   4.186
60166W        W31837   9.883  37.266   2.143
60167W        W31838  18.527  21.137  14.963
60168W        W31839  17.628   8.438   0.032
60169W        W31840  39.448   5.732   1.620
60170W        W31841  18.153  16.269   4.088
60171W        W31842  30.196  30.895   4.659
60172W        W31843   5.534  26.637  13.492
60173W        W31844  43.310   7.343   4.741
60174W        W31845  22.506  43.017   4.428
60175W        W31846  43.423  28.481  12.203
60176W        W31847  43.341   8.141  13.491
60177W        W31848  19.678  26.681   1.757
60178W        W31849  37.069   2.819  14.019
60179W        W31850  27.223  13.139  12.460
60180W        W31851  43.125  38.258   3.701
60181W        W31852  34.020   6.845   2.383
60182W        W31853  42.538  10.268  14.755
60183W        W31854   9.160  17.236   3.781
60184W        W31855  34.308  36.513   4.473
60185W        W31856   0.035  29.182   3.364
60186W        W31857  39.524  10.687  14.326
60187W        W31858  18.691  34.997   0.205
60188W        W31859  41.675  11.449   3.340
60189W        W31860   4.761  40.521   2.728
60190W        W31861  41.920   2.836   0.227
60191W        W31862  44.332  43.762  13.313
60192W        W31863  15.572  30.022  14.876
60193W        W31864  41.231   8.712  13.783
60194W        W31865  23.716   3.251   1.840
60195W        W31866  36.447  41.783   4.646
60196W        W31867   0.846  30.609  11.205
60197W        W31868  33.398  29.681  11.633
60198W        W31869  42.146  27.493   4.121
60199W        W31870   9.919  44.934  12.439
60200W        W31871  36.790  39.513  11.865
60201W        W31872  41.944  35.588  14.108
60202W        W31873  28.745   1.540   2.474
60203W        W31874  22.656  29.735  14.376
60204W        W31875  19.483  23.992   4.541
60205W        W31876  24.657  32.201   4.223
60206W        W31877   7.847  11.152  11.838
60207W        W31878  43.557   2.033   2.719
60208W        W31879  33.372  32.921  12.704
60209W        W31880  22.539  21.009  12.075
60210W        W31881  38.630   6.981  11.569
60211W        W31882  31.621  37.766   1.342
60212W        W31883   4.604   1.154   2.914
60213W        W31884  20.279   3.383  10.742
60214W        W31885  16.066  42.829  14.854
60215W        W31886   6.138   2.348  11.319
60216W        W31887  39.031  40.936  13.911
60217W        W31888  17.671  16.700  10.755
60218W        W31889  19.286  13.149   0.426
60219W        W31890  19.711  27.005   2.943
60220W        W31891  14.787   6.293  10.377
60221W        W31892   0.160  12.810   5.022
60222W        W31893  21.789   7.657   4.602
60223W        W31894  29.921  31.852   3.807
60224W        W31895  44.391  43.807   1.369
60225W        W31896  43.194  32.322  11.922
60226W        W31897  24.569  22.270   3.212
60227W        W31898   5.257   1.927  14.529
60228W        W31899   2.241  24.134   1.693
60229W        W31900  40.194  13.859   1.737
60230W        W31901   1.738  14.846  11.131
60231W        W31902  37.511  13.044  12.003
60232W        W31903   6.773  22.860   0.312
60233W        W31904  42.431  29.398  11.973
60234W        W31905  36.737  18.141  12.489
60235W        W31906  34.035  29.906  13.400
60236W        W31907   8.362  19.737  10.313
60237W        W31908  33.215  29.230  12.499
60238W        W31909  31.056  33.383   4.215
60239W        W31910   8.728  25.723   2.383
60240W        W31911   3.867  32.639   1.429
60241W        W31912  28.717  11.620   1.157
60242W        W31913  16.142  40.949   1.843
60243W        W31914  32.400   6.574   3.842
60244W        W31915  16.543   8.603  11.059
60245W        W31916   2.318  16.815  13.853
60246W        W31917  14.778  22.913  11.596
60247W        W31918  18.499  35.388   0.506
60248W        W31919  44.890  40.454   2.423
60249W        W31920  29.631  44.005  11.702
60250W        W31921  22.000   3.121  10.634
60251W        W31922  21.168  24.078   2.754
60252W        W31923  22.329   4.781  10.128
60253W        W31924  23.235   7.267   0.695
60254W        W31925  34.906  10.993  13.890
60255W        W31926  42.125  13.711  10.935
60256W        W31927  36.853  15.142  11.512
60257W        W31928   1.776  10.381  10.677
60258W        W31929  18.983  10.369   4.642
60259W        W31930  21.271  23.480   4.649
60260W        W31931  36.794  38.063  11.943
60261W        W31932  41.838   9.792   3.274
60262W        W31933  39.850  31.483  13.446
60263W        W31934  37.826  36.442  13.957
60264W        W31935  12.416  25.724   2.191
60265W        W31936  11.593   9.842   0.300
60266W        W31937  34.082  17.083  11.217
60267W        W31938  38.021  43.397   4.221
60268W        W31939  22.526  39.498  11.888
60269W        W31940   4.861  33.351  13.760
60270W        W31941  35.561  22.577   0.724
60271W        W31942   2.181  38.741  11.492
60272W        W31943  10.636  41.288  11.233
60273W        W31944  14.620  37.903   2.229
60274W        W31945  44.856  16.796  13.457
60275W        W31946  35.453  29.054  13.354
60276W        W31947  26.347  33.442   2.673
60277W        W31948  26.849  17.099  14.100
60278W        W31949  43.510  12.265   2.219
60279W        W31950  14.348  32.186   1.831
60280W        W31951  33.124  24.608  14.432
60281W        W31952   4.754  27.928  12.537
60282W        W31953  19.299  29.898   2.342
60283W        W31954  23.960   4.149   0.272
60284W        W31955   4.717   0.373  11.152
60285W        W31956   0.335  40.044   0.824
60286W        W31957  20.010   2.862   0.475
60287W        W31958  15.129   6.266   3.147
60288W        W31959  13.817  12.757   3.801
60289W        W31960  19.305  20.527  10.705
60290W        W31961  40.541  35.892  12.473
60291W        W31962  23.660  12.220  12.593
60292W        W31963  29.661  32.520  13.766
60293W        W31964  31.035  19.684  14.225
60294W        W31965  11.224  22.121   4.361
60295W        W31966  11.870  27.025  11.030
60296W        W31967  44.434  20.007  14.487
60297W        W31968  36.580  33.842  14.586
60298W        W31969  38.280  31.581   2.200
60299W        W31970  22.796  24.175  14.425
60300W        W31971  20.040  40.346   2.636
60301W        W31972  16.177   3.320   1.868
60302W        W31973  16.662   3.015   3.142
60303W        W31974  30.696   7.961  12.865
60304W        W31975  11.532   1.776   0.756
60305W        W31976  20.103  32.298   4.087
60306W        W31977  39.599  35.876   1.271
60307W        W31978  18.864   9.704  10.943
60308W        W31979   5.773  22.047   2.764
60309W        W31980  27.731  36.495  12.414
60310W        W31981  26.070  31.497  12.046
60311W        W31982  21.162  16.001  11.149
60312W        W31983  43.372  44.398   2.941
60313W        W31984  44.839  19.084  14.034
60314W        W31985  28.475  18.779  11.281
60315W        W31986  33.498  14.566   1.742
60316W        W31987  16.872  37.833   3.591
60317W        W31988  22.057  11.233   3.859
60318W        W31989   5.574  41.297  13.051
60319W        W31990  23.605  28.984   2.841
60320W        W31991  15.555  22.474   3.491
60321W        W31992  43.776  41.477   2.217
60322W        W31993  26.850  16.489  11.789
60323W        W31994   6.315   0.978  12.039
60324W        W31995  19.702  18.203   1.727
60325W        W31996   0.372  36.851   0.795
60326W        W31997   3.532  44.844  11.850
60327W        W31998  10.023  11.163  14.714
60328W        W31999  35.447   8.209  14.254
60329W        W32000  15.759   9.902  12.861
60330W        W32001   0.807  16.659  14.843
60331W        W32002  40.568  37.463   2.657
60332W        W32003  25.528  27.611  14.042
60333W        W32004  42.250   2.504  14.432
60334W        W32005  40.914  19.027   1.519
60335W        W32006  26.596   1.901   0.774
60336W        W32007   9.385  20.350  11.168
60337W        W32008  15.834  34.034  12.089
60338W        W32009  12.186   9.116   4.094
60339W        W32010  39.541  18.134   4.735
60340W        W32011  15.567  32.134   4.231
60341W        W32012  39.305  32.016  10.576
60342W        W32013  30.050  42.861   3.223
60343W        W32014   9.300  24.152   2.735
60344W        W32015  21.184  40.496   0.150
60345W        W32016  43.350  18.695   4.394
60346W        W32017   0.502  18.767  14.011
60347W        W32018  10.233  27.703  13.473
60348W        W32019   6.147  37.904   2.249
60349W        W32020  30.391   9.079   3.125
60350W        W32021   7.733   1.549   3.083
60351W        W32022  17.748  25.659   4.628
60352W        W32023  41.598  21.712  11.112
60353W        W32024  10.706  37.449   0.025
60354W        W32025   6.849   0.693   3.209
60355W        W32026  43.825  17.284  11.025
60356W        W32027  18.012  34.525  11.413
60357W        W32028  18.692  37.553   1.881
60358W        W32029  11.583  29.045   2.155
60359W        W32030  18.187  18.995   1.344
60360W        W32031   5.788  31.820  11.499
60361W        W32032  12.886   9.595  14.809
60362W        W32033   6.734  42.794  12.605
60363W        W32034  30.535   6.873   5.010
60364W        W32035  38.990  11.359   4.261
60365W        W32036  20.695  37.970  11.139
60366W        W32037  13.163  25.502   1.452
60367W        W32038  43.386  40.611   2.244
60368W        W32039   0.385  34.868   2.439
60369W        W32040   4.789  14.863   1.707
60370W        W32041  30.128  26.814   2.126
60371W        W32042  11.063  33.759   3.303
60372W        W32043  26.653  33.123   0.809
60373W        W32044  32.875   0.559   3.757
60374W        W32045  26.196  10.680  14.229
60375W        W32046  23.024  34.159   0.933
60376W        W32047  29.645   6.077  11.999
60377W        W32048  31.290   3.341   3.290
60378W        W32049  25.373  20.604   1.898
60379W        W32050  35.830  23.194   1.973
60380W        W32051  41.980  32.037   1.201
60381W        W32052  40.370  16.982   0.243
60382W        W32053  26.836   4.770   4.669
60383W        W32054  27.374  15.725   3.252
60384W        W32055   9.181  18.253   4.794
60385W        W32056  22.310   7.753   4.507
60386W        W32057  40.538  29.974   3.325
60387W        W32058   8.906   7.431   3.236
60388W        W32059  37.118  21.151   2.931
60389W        W32060  23.206   7.029   0.229
60390W        W32061   0.356  41.699  12.075
60391W        W32062  15.901  11.426  11.943
60392W        W32063  29.128  20.899  11.159
60393W        W32064  10.609  35.053  10.738
60394W        W32065   3.766  34.376   4.684
60395W        W32066   2.663  15.618  11.580
60396W        W32067   1.772  37.185   2.921
60397W        W32068   9.269  14.837   3.367
60398W        W32069  17.260  22.768   2.347
60399W        W32070  27.023  38.846   0.702
60400W        W32071  22.190   6.135   4.062
60401W        W32072  43.580  35.529  12.463
60402W        W32073  34.753  37.975   4.935
60403W        W32074   7.616  17.125   1.921
60404W        W32075  24.741  37.994   1.163
60405W        W32076  44.819  22.069  13.587
60406W        W32077   9.212   7.472   2.805
60407W        W32078   8.581   5.186   2.360
60408W        W32079  34.907  32.320  12.978
60409W        W32080  24.197  39.248  11.043
60410W        W32081  41.462   9.798  13.339
60411W        W32082  18.936  19.222  13.047
60412W        W32083  39.069  15.111   2.455
60413W        W32084  41.431  35.250  10.703
60414W        W32085   6.854  21.604  12.346
60415W        W32086   1.265  31.721  14.536
60416W        W32087  22.861  34.362  14.018
60417W        W32088  37.309  30.577   4.361
60418W        W32089  37.252  14.661   3.388
60419W        W32090   9.765   8.885  11.680
60420W        W32091  32.429   4.024   3.265
60421W        W32092   5.357  36.616  14.427
60422W        W32093   5.868   3.900   0.167
60423W        W32094  19.538  44.397   3.150
60424W        W32095  30.736  16.921   4.451
60425W        W32096  32.882  11.808  12.874
60426W        W32097  21.969  25.684   3.623
60427W        W32098  19.189  30.072  10.734
60428W        W32099   4.590  12.738   2.469
60429W        W32100   1.310  19.306   4.974
60430W        W32101  21.096  39.756   5.148
60431W        W32102   4.670  25.618   0.835
60432W        W32103  10.160  15.200  13.557
60433W        W32104  38.736   1.459   2.703
60434W        W32105  18.150  41.184  11.282
60435W        W32106  43.322  11.217  14.349
60436W        W32107  39.094  20.817   9.818
60437W        W32108  35.111  41.404   2.785
60438W        W32109  19.294  28.409   0.326
60439W        W32110  27.054  34.424   3.575
60440W        W32111  38.845  25.006   2.760
60441W        W32112   7.310  15.296   2.911
60442W        W32113  19.523  37.387   2.001
60443W        W32114   3.969  20.176  12.081
60444W        W32115  31.646   4.858  12.466
60445W        W32116  24.942  37.262   2.490
60446W        W32117  36.913  22.272  10.613
60447W        W32118  28.706  36.230   2.517
60448W        W32119  20.475  11.862   0.641
60449W        W32120  43.290  33.052   4.342
60450W        W32121   9.219   4.920   4.258
60451W        W32122  12.872  23.946  13.352
60452W        W32123  24.974  22.549   0.293
60453W        W32124  39.642   1.694   0.326
60454W        W32125  10.161   0.825   5.004
60455W        W32126  12.401  29.617   3.178
60456W        W32127  11.264  14.083  14.399
60457W        W32128   5.441  36.789   0.481
60458W        W32129  33.819  17.615   4.130
60459W        W32130  43.887  14.379   3.196
60460W        W32131   9.864  41.888   3.856
60461W        W32132  35.354  21.720  12.013
60462W        W32133  21.191  10.868  12.568
60463W        W32134   0.254   1.299   1.641
60464W        W32135  44.744   7.617  12.895
60465W        W32136  17.753  13.681   5.484
60466W        W32137  12.208  36.766  12.166
60467W        W32138  13.181  43.779  14.568
60468W        W32139  28.264  10.927  11.219
60469W        W32140  10.826  37.296  14.515
60470W        W32141  17.084  28.941  10.999
60471W        W32142  37.122   4.413   0.375
60472W        W32143  30.099  36.023  12.735
60473W        W32144  16.841  32.979   3.720
60474W        W32145  12.839  32.382  14.790
60475W        W32146  18.545  40.016  13.587
60476W        W32147   7.273  38.681  14.940
60477W        W32148  29.947  29.539  13.216
60478W        W32149  32.666  38.584   3.705
60479W        W32150   6.731   5.609  12.237
60480W        W32151   3.315  41.954   1.226
60481W        W32152  44.481  25.958  11.173
60482W        W32153  18.190  21.174  11.460
60483W        W32154  28.703  15.799   2.326
60484W        W32155   9.251  27.504  14.058
60485W        W32156   1.793  21.423   3.164
60486W        W32157   7.323  38.327   1.696
60487W        W32158   1.186  19.647  11.618
60488W        W32159   0.736  25.203   1.433
60489W        W32160   0.422   0.940   2.242
60490W        W32161  19.453  39.368  13.871
60491W        W32162  24.278  12.411   1.776
60492W        W32163  15.036  34.415   4.961
60493W        W32164  42.437  21.217   4.114
60494W        W32165  27.499   8.708  10.963
60495W        W32166  41.854   5.368   1.018
60496W        W32167  32.215  16.128  10.623
60497W        W32168  38.559   6.383  10.706
60498W        W32169  28.757  21.154   1.403
60499W        W32170  31.458  12.665   4.919
60500W        W32171  40.886  31.422  14.244
60501W        W32172  17.687   4.383  10.616
60502W        W32173  40.494   3.582  11.392
60503W        W32174  27.940   3.619   0.406
60504W        W32175  44.899  44.082  12.588
60505W        W32176  37.473   9.254  14.457
60506W        W32177  25.458  43.860   2.326
60507W        W32178  19.633  28.228  13.348
60508W        W32179   2.050  12.932  14.407
60509W        W32180   9.921  21.015   1.909
60510W        W32181  44.311   9.956  10.417
60511W        W32182  12.408  18.125   3.723
60512W        W32183  17.266  38.856   0.037
60513W        W32184   0.474  12.765  13.256
60514W        W32185  38.597  10.704   1.422
60515W        W32186  28.507  11.616   3.403
60516W        W32187  43.846  11.252   0.228
60517W        W32188  42.216  33.924  13.998
60518W        W32189  24.955  24.425  14.008
60519W        W32190  21.661  41.901  13.832
60520W        W32191  15.782  17.929   1.712
60521W        W32192  21.640  13.863  11.683
60522W        W32193  36.108  16.231  14.464
60523W        W32194  29.496  36.971   1.814
60524W        W32195  19.101  24.612   1.055
60525W        W32196  24.444   6.252   2.201
60526W        W32197  27.049   1.230  13.286
60527W        W32198   0.046   2.120  13.849
60528W        W32199  16.083  36.876   4.691
60529W        W32200  43.469   7.735  12.837
60530W        W32201  44.947   7.684  14.930
60531W        W32202  34.959  33.913   1.878
60532W        W32203  35.643  21.722  13.321
60533W        W32204   2.249  20.478   2.711
60534W        W32205  28.728  21.555   3.845
60535W        W32206  41.354   4.455   3.979
60536W        W32207  23.184  16.105   3.499
60537W        W32208  29.197  41.003   4.758
60538W        W32209  38.611  31.724  13.505
60539W        W32210  35.458  13.103  14.936
60540W        W32211  43.886  18.726   3.781
60541W        W32212   7.402  18.950   1.199
60542W        W32213  22.160  16.567  12.847
60543W        W32214   2.358  28.217   4.219
60544W        W32215  23.987  19.583   1.305
60545W        W32216  17.404  35.822  10.599
60546W        W32217  36.137  36.063  11.559
60547W        W32218  28.238   4.939  14.871
60548W        W32219  26.188  42.158   2.236
60549W        W32220   8.387   8.365   0.948
60550W        W32221  34.530  19.240  13.809
60551W        W32222  27.139   9.508  11.184
60552W        W32223  42.514  12.001   3.225
60553W        W32224  32.114  18.023  10.505
60554W        W32225  21.964  24.646  10.612
60555W        W32226  32.341  10.814  11.942
60556W        W32227  29.665  15.122  14.838
60557W        W32228  15.780  42.899  11.156
60558W        W32229  37.747   4.416  12.555
60559W        W32230  42.467  21.704  13.727
60560W        W32231  36.975   6.751  12.145
60561W        W32232   4.001  35.457  12.103
60562W        W32233  22.716  34.114   1.827
60563W        W32234  19.658  10.720  10.880
60564W        W32235  43.872  13.147   3.136
60565W        W32236   6.791  28.040   4.520
60566W        W32237  34.571  28.249   3.138
60567W        W32238  20.076  43.379   3.735
60568W        W32239   8.018  21.972  14.427
60569W        W32240  29.548   4.150   0.354
60570W        W32241  30.877  30.291   0.583
60571W        W32242  28.900  14.056  12.901
60572W        W32243  28.319  10.246   3.022
60573W        W32244   7.945   2.375  14.840
60574W        W32245  39.865   5.829   4.019
60575W        W32246  14.237  42.806   0.541
60576W        W32247  42.712  28.419  11.462
60577W        W32248   6.824  11.153   1.508
60578W        W32249  35.015  30.156  14.419
60579W        W32250  26.646   2.366   1.717
60580W        W32251  35.076  31.390   2.113
60581W        W32252  20.223   9.270   2.863
60582W        W32253  11.268  17.284  14.560
60583W        W32254   9.632  15.663   1.421
60584W        W32255  30.445  16.711   2.905
60585W        W32256  38.067  25.951  10.817
60586W        W32257  37.988   9.250   1.751
60587W        W32258  13.107  27.221   3.334
60588W        W32259  26.087   5.893  12.111
60589W        W32260   0.424  37.887  14.753
60590W        W32261  31.169  40.870   0.480
60591W        W32262  18.981   1.222  11.459
60592W        W32263  10.133  24.347   3.610
60593W        W32264  13.568  26.110   3.701
60594W        W32265  38.056  39.482   0.413
60595W        W32266  28.315   0.771  12.426
60596W        W32267   2.744   6.192  13.471
60597W        W32268  37.000  35.473  11.760
60598W        W32269  31.914  39.955  11.535
60599W        W32270  35.006  24.688   4.386
60600W        W32271  30.227  11.474   0.246
60601W        W32272  41.410  20.573   1.326
60602W        W32273  25.959   6.739  13.355
60603W        W32274  11.271  36.491  14.907
60604W        W32275  38.115   3.392  13.345
60605W        W32276  24.300  23.657   4.476
60606W        W32277  40.282   7.805  12.572
60607W        W32278  33.397  26.757   0.452
60608W        W32279  30.982  42.476   1.908
60609W        W32280  38.112  38.992  12.530
60610W        W32281   0.714  21.924  12.844
60611W        W32282  36.366   2.661  11.448
60612W        W32283  43.354  21.086   3.227
60613W        W32284  32.480  22.825   3.247
60614W        W32285   3.483   8.375  11.567
60615W        W32286  41.868  15.801  12.681
60616W        W32287  41.882  35.732   0.889
60617W        W32288  21.194   6.914  11.611
60618W        W32289   6.735  29.301   3.751
60619W        W32290  36.804   8.861  12.089
60620W        W32291  29.135  12.626   4.653
60621W        W32292  33.553  13.650  10.865
60622W        W32293  30.938  16.633  14.557
60623W        W32294  38.028  21.523  11.353
60624W        W32295  30.637  18.150   2.906
60625W        W32296  17.581  36.297  12.897
60626W        W32297  28.757  32.586   5.025
60627W        W32298  32.347   5.250  13.508
60628W        W32299  25.660  26.417  12.552
60629W        W32300   2.364  43.270   0.348
60630W        W32301  28.765  34.882   2.968
60631W        W32302  30.708  42.723  13.875
60632W        W32303   4.859  28.427  12.505
60633W        W32304   3.681  43.970  10.787
60634W        W32305  44.565  44.790  14.855
60635W        W32306  42.207  32.079   4.202
60636W        W32307   5.028   7.662   2.699
60637W        W32308  16.134  10.775  10.538
60638W        W32309   8.376   4.573  12.569
60639W        W32310  29.681  38.988  14.778
60640W        W32311   2.429  11.092   1.365
60641W        W32312  16.184  16.256   4.874
60642W        W32313   1.247   3.730   3.232
60643W        W32314  14.221  18.056  13.090
60644W        W32315  37.949   8.445   3.777
60645W        W32316  11.231  25.961  14.388
60646W        W32317  37.604  24.940   1.206
60647W        W32318  17.886   0.799  11.003
60648W        W32319  20.549  44.887   4.314
60649W        W32320  14.107   7.146  14.277
60650W        W32321  41.032   1.022   3.805
60651W        W32322  42.378  24.331  14.832
60652W        W32323  36.433  13.427  14.486
60653W        W32324  21.438  16.005  10.660
60654W        W32325  16.328  13.224   5.537
60655W        W32326  26.699  39.159   0.433
60656W        W32327  29.431  14.182   0.770
60657W        W32328  38.460  10.934   3.135
60658W        W32329  31.971  11.423   1.714
60659W        W32330  17.148  18.679   4.326
60660W        W32331   1.577   6.270   0.236
60661W        W32332   4.101  21.255   0.964
60662W        W32333  32.156   7.538   5.128
60663W        W32334  11.860   2.082   3.655
60664W        W32335  42.935  25.099  11.348
60665W        W32336  36.361   7.851   1.552
60666W        W32337  18.134  16.938  10.900
60667W        W32338   8.850   8.686   2.858
60668W        W32339  39.749   4.911  13.084
60669W        W32340   6.413  17.002   3.272
60670W        W32341  21.165  33.463  14.109
60671W        W32342  23.070   2.696   2.292
60672W        W32343  20.389  31.736   5.162
60673W        W32344   1.831  37.622   1.696
60674W        W32345  38.458  15.535  10.756
60675W        W32346  43.257  20.728   4.098
60676W        W32347   4.543  29.564  14.685
60677W        W32348   9.028  32.332   0.507
60678W        W32349   4.833  27.349  11.399
60679W        W32350   9.324   1.303  11.605
60680W        W32351  33.990  31.731  14.920
60681W        W32352  32.362  10.235  10.545
60682W        W32353  30.867  22.209  11.187
60683W        W32354  22.478  13.311  10.813
60684W        W32355   8.737   6.273   1.562
60685W        W32356  16.956  27.259   2.257
60686W        W32357  36.077   5.447  14.315
60687W        W32358   1.840   8.204   2.312
60688W        W32359  24.933  36.884   3.709
60689W        W32360  24.610  43.680  12.837
60690W        W32361  20.752  38.040  14.284
60691W        W32362   6.582  41.268  10.499
60692W        W32363  37.949  40.927  10.646
60693W        W32364   0.430  36.307   2.134
60694W        W32365  33.986  13.660  14.808
60695W        W32366  25.478  28.832   3.287
60696W        W32367  26.687  36.869   3.600
60697W        W32368  35.118  19.226   2.222
60698W        W32369  42.424  38.496   5.001
60699W        W32370  14.711   1.907   2.722
60700W        W32371   2.308   5.945   0.878
60701W        W32372  32.646  20.588  11.214
60702W        W32373   2.714  11.400  14.292
60703W        W32374   2.327  42.930  11.632
60704W        W32375  34.446   2.806   4.599
60705W        W32376  32.118  44.105  13.470
60706W        W32377   4.283  35.260   2.990
60707W        W32378   3.722   9.128   1.244
60708W        W32379  27.988  44.410   1.102
60709W        W32380  25.812  40.872  10.734
60710W        W32381  41.390  29.421   1.179
60711W        W32382   7.271  11.636  13.877
60712W        W32383  38.831  35.789   2.931
60713W        W32384  22.112   5.617  13.035
60714W        W32385  28.999  34.643   1.749
60715W        W32386   4.050  32.191   3.419
60716W        W32387  40.122   5.620  11.004
60717W        W32388  15.195  21.256  11.018
60718W        W32389  29.507  19.533  11.913
60719W        W32390  20.625  32.977   3.447
60720W        W32391  11.568  16.677   3.670
60721W        W32392  38.708  31.891   2.375
60722W        W32393  43.276  29.408   2.522
60723W        W32394  15.731  16.014   4.830
60724W        W32395  10.174  32.642  12.534
60725W        W32396  36.380  44.149   0.255
60726W        W32397  25.754  40.769   3.151
60727W        W32398   4.629  27.106  10.543
60728W        W32399   7.919  19.939   4.312
60729W        W32400   8.060  11.812  12.432
60730W        W32401  11.807  25.517  13.862
60731W        W32402  29.185  15.073  13.887
60732W        W32403  40.952  23.788   4.108
60733W        W32404  14.111  18.559  12.519
60734W        W32405   4.688   2.408  14.792
60735W        W32406  10.626   8.938   2.688
60736W        W32407  28.052  33.061   1.015
60737W        W32408   1.784  43.293  14.118
60738W        W32409  11.302  21.554   0.850
60739W        W32410  21.693  21.409   3.337
60740W        W32411  15.639   1.969  12.332
60741W        W32412  40.284  41.805  13.894
60742W        W32413  24.205  28.155   0.945
60743W        W32414   3.675  19.116  14.955
60744W        W32415  21.973   0.849   1.715
60745W        W32416  10.423  39.024   0.978
60746W        W32417  42.395   8.327  10.915
60747W        W32418  11.724   8.496  12.573
60748W        W32419  41.795  38.014  12.870
60749W        W32420   2.028  24.608   0.281
60750W        W32421  14.701  28.964   0.459
60751W        W32422  34.844   3.648   4.527
60752W        W32423  37.198  25.609  14.856
60753W        W32424  21.823   1.938  13.291
60754W        W32425  24.183   7.657  11.442
60755W        W32426   5.708   0.241  11.979
60756W        W32427   5.212  40.071   2.234
60757W        W32428  21.841  37.233  12.056
60758W        W32429   5.985  28.692   3.563
60759W        W32430  18.844  21.300   1.374
60760W        W32431  29.199   5.836  11.965
60761W        W32432  36.328   9.184  14.068
60762W        W32433  20.752  38.791  14.828
60763W        W32434  32.635  26.644   3.687
60764W        W32435  12.906  42.998   2.416
60765W        W32436   3.780  26.385   3.314
60766W        W32437  16.584  44.343   3.706
60767W        W32438   5.700  11.356   4.478
60768W        W32439  26.790   9.117   9.907
60769W        W32440  13.129  35.659  11.138
60770W        W32441   9.672  17.551  11.673
60771W        W32442   5.334  11.141   4.773
60772W        W32443   8.604  31.396   2.381
60773W        W32444  18.558   1.749   2.649
60774W        W32445  33.984   2.559  11.063
60775W        W32446  30.558  41.376  10.990
60776W        W32447  15.175  12.608  14.863
60777W        W32448  30.992  23.641  11.661
60778W        W32449  39.841  39.408  12.084
60779W        W32450  41.926  24.220   4.970
60780W        W32451  14.135  20.345   4.250
60781W        W32452  26.948  18.526  11.609
60782W        W32453   2.820   1.493   2.362
60783W        W32454   0.285  41.666   3.156
60784W        W32455  34.403  22.086   0.807
60785W        W32456   9.840  43.512  14.135
60786W        W32457  31.173  31.122   4.857
60787W        W32458  25.709   3.952   2.694
60788W        W32459  12.642  27.411   2.602
60789W        W32460  10.238   5.939  13.458
60790W        W32461  10.692   3.391   2.299
60791W        W32462  24.071  41.033   4.103
60792W        W32463  41.099  19.908   3.238
60793W        W32464  28.042  12.887   4.568
60794W        W32465  19.656  26.044  10.769
60795W        W32466  38.362  26.322  14.531
60796W        W32467  41.651  19.701   0.068
60797W        W32468  32.205  43.269   2.706
60798W        W32469  40.357  28.960   0.228
60799W        W32470  30.123  43.123  10.093
60800W        W32471   6.212  11.311  13.434
60801W        W32472  30.707  35.004   2.614
60802W        W32473  31.960  28.435  12.930
60803W        W32474  44.329  41.350  11.603
60804W        W32475  43.427  30.412   0.276
60805W        W32476  33.902  34.290   3.825
60806W        W32477  39.882  35.439  12.964
60807W        W32478  12.801   8.654   5.000
60808W        W32479   6.583  28.044  11.146
60809W        W32480  17.783  15.169  11.380
60810W        W32481  36.327  37.593  10.213
60811W        W32482  10.201   4.763   0.163
60812W        W32483  36.930   3.760  13.190
60813W        W32484  16.712  42.534   1.702
60814W        W32485  12.232  15.678   4.037
60815W        W32486  27.765  30.146   1.862
60816W        W32487  29.654  42.867   0.035
60817W        W32488  34.398  29.637   0.502
60818W        W32489  38.879   6.480   2.670
60819W        W32490  17.102  44.687   4.534
60820W        W32491  10.934  22.092   2.969
60821W        W32492  27.494   8.108   0.453
60822W        W32493  32.859  13.648  11.726
60823W        W32494   3.963  39.837  12.003
60824W        W32495  23.189  21.625   3.288
60825W        W32496  25.602  43.689   4.009
60826W        W32497  40.091  39.830  12.877
60827W        W32498  21.272  17.252   2.859
60828W        W32499  12.802  31.133   4.497
60829W        W32500  22.441  27.576   0.790
60830W        W32501  34.290  42.404   3.670
60831W        W32502  21.829  34.082  14.813
60832W        W32503  24.007   9.276  13.390
60833W        W32504  23.928  28.950  13.521
60834W        W32505  32.091  29.040  12.114
60835W        W32506   7.668  39.287   2.755
60836W        W32507  29.503  24.173   0.196
60837W        W32508   1.008  31.838   1.704
60838W        W32509  35.551  33.159   0.483
60839W        W32510  39.924  38.796  10.453
60840W        W32511  18.640  42.832   0.950
60841W        W32512   0.800   5.602  13.536
60842W        W32513  30.868   1.381  11.703
60843W        W32514   1.826  36.498  13.548
60844W        W32515  11.757  16.561  12.956
60845W        W32516   7.874  33.342  11.984
60846W        W32517  31.889  21.257   2.371
60847W        W32518   7.293   3.862  13.965
60848W        W32519  15.892  40.467  11.056
60849W        W32520  22.016  39.786  10.635
60850W        W32521   2.282  31.112   1.784
60851W        W32522  44.755  20.871  12.321
60852W        W32523  42.865  20.732  13.040
60853W        W32524  16.351  40.923  12.959
60854W        W32525   6.684  44.730   2.953
60855W        W32526  34.280   9.792  12.949
60856W        W32527  37.094  26.029   0.490
60857W        W32528  23.394  21.303   3.660
60858W        W32529  34.088  21.636   2.270
60859W        W32530  19.363   6.232   3.119
60860W        W32531  34.967  28.493  12.781
60861W        W32532   0.162  31.611   2.245
60862W        W32533  12.585  20.397  11.575
60863W        W32534   5.774   2.910   0.462
60864W        W32535   1.424  18.756   4.692
60865W        W32536  17.011  20.598   1.441
60866W        W32537  36.958  44.544  12.001
60867W        W32538  15.190  13.757  14.395
60868W        W32539   7.904   7.220  10.625
60869W        W32540  38.069   4.510  11.116
60870W        W32541  15.236  43.277  14.343
60871W        W32542   1.863  26.661  12.949
60872W        W32543  38.138   5.812   3.387
60873W        W32544  13.840  35.257   2.411
60874W        W32545  31.564  27.436  14.594
60875W        W32546  10.206  15.256   2.252
60876W        W32547   7.072  32.072   3.362
60877W        W32548   6.380  20.064   1.458
60878W        W32549  14.003  40.871   1.652
60879W        W32550  36.028  13.764  12.551
60880W        W32551  18.885  38.284   3.217
60881W        W32552   2.766  22.243   4.203
60882W        W32553  17.511  39.597  10.735
60883W        W32554  13.860  34.212   1.330
60884W        W32555  33.607  18.700   5.139
60885W        W32556   7.816  12.790  13.545
60886W        W32557   8.920  17.143   0.908
60887W        W32558   7.666  20.652  13.364
60888W        W32559   2.006  44.486  14.067
60889W        W32560  21.719  17.653   1.884
60890W        W32561   6.064  15.194  14.254
60891W        W32562  27.149  23.995  11.699
60892W        W32563  30.242  10.851  14.479
60893W        W32564  31.017  13.085   1.940
60894W        W32565   0.244   7.315   2.578
60895W        W32566  17.236  25.796  12.414
60896W        W32567  40.034  44.515  13.008
60897W        W32568   2.929  25.368  14.457
60898W        W32569  44.672  17.471  13.944
60899W        W32570  36.280  39.385  11.153
60900W        W32571  31.864  23.569   4.929
60901W        W32572  11.654  38.733   4.635
60902W        W32573  41.717   8.859   5.039
60903W        W32574  14.269  13.543   0.429
60904W        W32575  21.040   2.371   4.146
60905W        W32576   5.979  12.644   3.750
60906W        W32577  41.445   2.651   0.374
60907W        W32578  26.439   3.663  11.997
60908W        W32579  20.274  26.574  10.174
60909W        W32580   8.457   3.916   1.456
60910W        W32581  36.372  12.894  14.429
60911W        W32582   9.106   1.886   0.747
60912W        W32583  34.579  19.996  12.749
60913W        W32584  21.741   8.145   2.145
60914W        W32585   1.814  22.289  11.028
60915W        W32586  32.928  40.416  14.887
60916W        W32587   9.808  33.074   2.213
60917W        W32588  21.074  40.160  14.745
60918W        W32589  25.472  29.339   3.436
60919W        W32590  33.349  30.398   2.927
60920W        W32591  17.465  40.074  11.660
60921W        W32592   4.299  27.624  13.358
60922W        W32593   3.573   4.762   1.869
60923W        W32594   0.395  15.775   4.158
60924W        W32595  31.144  32.557   1.736
60925W        W32596  43.284  10.647  13.730
60926W        W32597  35.989  10.301   0.509
60927W        W32598  39.736  37.893   4.572
60928W        W32599  20.616  39.562  14.313
60929W        W32600   6.847   9.550  14.501
60930W        W32601  29.178  29.240  12.905
60931W        W32602  42.501   1.378   1.383
60932W        W32603  36.006  27.003  13.795
60933W        W32604  26.367  43.325  13.828
60934W        W32605  12.247  29.235  10.444
60935W        W32606  10.572  42.985   5.088
60936W        W32607  43.395  10.378   2.226
60937W        W32608   2.260  13.015  12.120
60938W        W32609  31.099  16.689  13.644
60939W        W32610  42.174   8.150  13.609
60940W        W32611  37.588  41.286  12.762
60941W        W32612  22.913  28.692  11.112
60942W        W32613  38.523  29.571   2.390
60943W        W32614  14.868  41.902   3.975
60944W        W32615   2.928  12.069   1.036
60945W        W32616  25.524  24.557   4.097
60946W        W32617   4.885   2.703   4.840
60947W        W32618  26.059  35.624  12.082
60948W        W32619  38.278   9.226   1.271
60949W        W32620  42.849  36.098   4.564
60950W        W32621  14.669  12.690   0.535
60951W        W32622  22.782  17.252   0.063
60952W        W32623  14.708  35.123  14.949
60953W        W32624  29.611  11.308   3.580
60954W        W32625  39.698  33.861  11.422
60955W        W32626  22.794  20.798  11.616
60956W        W32627  43.950   0.342  11.564
60957W        W32628  20.253   4.645  10.921
60958W        W32629  26.226  17.256   0.877
60959W        W32630  43.138  34.313   1.292
60960W        W32631  24.596   6.555   4.783
60961W        W32632   3.923  39.456  12.550
60962W        W32633  32.049  42.515   1.971
60963W        W32634  33.345  26.595  13.419
60964W        W32635  16.476   4.005   3.134
60965W        W32636  15.153  44.428  11.963
60966W        W32637  32.971  23.581  11.043
60967W        W32638   5.934  44.042  11.474
60968W        W32639  29.910  22.400  13.996
60969W        W32640   1.990  40.925   3.276
60970W        W32641  42.508   3.960  11.033
60971W        W32642  18.191   8.622  12.603
60972W        W32643  24.280  31.067   0.360
60973W        W32644   6.889   1.682   3.687
60974W        W32645  32.128  11.393  12.072
60975W        W32646   6.684  36.583  10.799
60976W        W32647  41.583  34.475   1.198
60977W        W32648   0.015   7.713   0.955
60978W        W32649  22.492   0.524  14.102
60979W        W32650  40.324  30.488  10.472
60980W        W32651  31.958   6.766   2.621
60981W        W32652  27.993  21.653  14.018
60982W        W32653  20.062  13.874   3.636
60983W        W32654  13.543  29.635   1.698
60984W        W32655  36.967  10.161  14.451
60985W        W32656  11.149   9.244  10.468
60986W        W32657  22.366   4.636   4.624
60987W        W32658   4.870   7.445  13.435
60988W        W32659  26.074  18.626  13.923
60989W        W32660   8.181  30.630  14.829
60990W        W32661  20.688  31.551   3.583
60991W        W32662  16.503  19.120   3.093
60992W        W32663  23.511  32.380  14.188
60993W        W32664  42.128   8.639   2.408
60994W        W32665  24.020  27.490   3.246
60995W        W32666  14.547  14.225  11.519
60996W        W32667  43.747  24.934   1.289
60997W        W32668  14.575  40.359   2.890
60998W        W32669  14.171  33.842   0.634
60999W        W32670  22.617  31.920  11.978
61000W        W32671  32.841   0.831   4.230
61001W        W32672  23.123   8.272  14.964
61002W        W32673   5.068   5.804   2.040
61003W        W32674  17.420  30.593  11.626
61004W        W32675   4.884  42.840   2.803
61005W        W32676  12.302   9.200  12.664
61006W        W32677  40.073  32.089   3.794
61007W        W32678  44.331  25.285  13.393
61008W        W32679   2.192  28.691  13.433
61009W        W32680  22.752  38.877   1.371
61010W        W32681  27.730  22.097   3.086
61011W        W32682   1.888  14.236  12.312
61012W        W32683  16.620  41.907  14.695
61013W        W32684   8.269  29.050  13.051
61014W        W32685  19.255  12.124   9.793
61015W        W32686   4.869  24.636   3.754
61016W        W32687   1.392   3.231  10.301
61017W        W32688  40.586  11.263   0.840
61018W        W32689  17.136  25.848  11.885
61019W        W32690  12.751  24.390   2.215
61020W        W32691  36.760  23.212   0.398
61021W        W32692  41.730  42.332  14.346
61022W        W32693  37.019  17.929   1.553
61023W        W32694  37.969  25.338  12.876
61024W        W32695  42.965  17.701   1.751
61025W        W32696  16.567  17.253   0.367
61026W        W32697  38.986  35.555   3.413
61027W        W32698  31.224  19.696   3.819
61028W        W32699  37.429  21.338   5.073
61029W        W32700  11.312   6.492   3.718
61030W        W32701   5.171   0.398  14.826
61031W        W32702  35.882   4.629  12.878
61032W        W32703  24.147  26.775  14.067
61033W        W32704  42.439  10.511   4.520
61034W        W32705   4.931  26.650  12.936
61035W        W32706  10.487  34.470   5.048
61036W        W32707  21.132  40.593  10.634
61037W        W32708  44.464  14.837  10.580
61038W        W32709   2.003   7.740   3.647
61039W        W32710  13.125  26.451  13.270
61040W        W32711  43.415  14.672   2.180
61041W        W32712  33.844  30.296   3.767
61042W        W32713  11.691  17.087  14.791
61043W        W32714  10.836  25.630   3.837
61044W        W32715  38.572   3.588   3.795
61045W        W32716  35.445  15.066   0.270
61046W        W32717   8.134  39.565  14.906
61047W        W32718  12.294  44.405   4.407
61048W        W32719   4.728   4.964  14.256
61049W        W32720  26.744  23.648   4.639
61050W        W32721  19.318  22.164   2.763
61051W        W32722   5.234  32.046   3.092
61052W        W32723   0.352  35.576   4.183
61053W        W32724   2.840   3.930  10.897
61054W        W32725  40.412  16.216   2.111
61055W        W32726  44.367   7.072  10.633
61056W        W32727  12.408   6.222  13.997
61057W        W32728  28.920  16.637   4.463
61058W        W32729  12.521  38.489  10.934
61059W        W32730  35.559  31.600   1.858
61060W        W32731  36.524  41.086   1.492
61061W        W32732  23.655  28.019   4.222
61062W        W32733  27.001  28.911  11.617
61063W        W32734  34.488  27.281   4.240
61064W        W32735  20.592  41.971  10.511
61065W        W32736  27.391   3.225   1.439
61066W        W32737  16.859   3.877  14.140
61067W        W32738  12.771  10.137  12.411
61068W        W32739  17.583  26.663  12.845
61069W        W32740   5.294   7.451  13.083
61070W        W32741  19.759  13.646   2.370
61071W        W32742   5.277  18.816   3.540
61072W        W32743  30.886  35.108   3.094
61073W        W32744  35.802  27.417  14.068
61074W        W32745  20.069   4.481   0.432
61075W        W32746  32.636  14.990  13.938
61076W        W32747   5.236  20.539   2.128
61077W        W32748  39.463  13.170   3.223
61078W        W32749  19.197  20.372   3.732
61079W        W32750  18.768  35.845  10.593
61080W        W32751  34.597  34.577   4.689
61081W        W32752  18.086  37.082   4.097
61082W        W32753   3.085   6.477   1.978
61083W        W32754  15.373  17.648  12.199
61084W        W32755  43.616  18.603  13.233
61085W        W32756  11.297  15.570   3.605
61086W        W32757   6.234  30.323  12.042
61087W        W32758   3.346   9.721   3.913
61088W        W32759   6.737   8.651   0.299
61089W        W32760  31.662   1.299   0.329
61090W        W32761  33.040  31.895  12.115
61091W        W32762  12.174  42.435   0.669
61092W        W32763  39.575  44.495   4.190
61093W        W32764  30.022  41.713   4.193
61094W        W32765  33.037  10.409   3.797
61095W        W32766  14.322  25.672   4.517
61096W        W32767  31.624  14.583  14.014
61097W        W32768  29.853  11.819   0.220
61098W        W32769  28.188  39.780  12.461
61099W        W32770  17.398  17.631   3.373
61100W        W32771  34.324  24.529  13.935
61101W        W32772  27.003   9.693   1.809
61102W        W32773  35.121  39.404  14.489
61103W        W32774  32.735  30.231   1.043
61104W        W32775  20.854  10.691   4.146
61105W        W32776  31.759  23.163  14.554
61106W        W32777  39.763  41.854  12.964
61107W        W32778   0.369   8.895  11.253
61108W        W32779   0.140  40.647  14.905
61109W        W32780  21.452  10.483  11.427
61110W        W32781   6.371  42.068  11.831
61111W        W32782  24.989   9.706   1.384
61112W        W32783  15.156   7.815  14.172
61113W        W32784  29.720  20.754  13.133
61114W        W32785  35.054   8.096   4.867
61115W        W32786  35.183  25.015  14.780
61116W        W32787  31.009   4.639  11.709
61117W        W32788  33.890  11.829  14.240
61118W        W32789  14.178  33.001  13.532
61119W        W32790  16.985  20.530   1.951
61120W        W32791  13.784   7.422   0.505
61121W        W32792  33.549  38.078   1.547
61122W        W32793  43.791   1.788   3.106
61123W        W32794  41.027  34.968   3.686
61124W        W32795  19.074  16.511  11.580
61125W        W32796  19.957  24.692  11.474
61126W        W32797  35.635  18.643  10.712
61127W        W32798  42.015  41.905  14.351
61128W        W32799  41.385  40.983   4.261
61129W        W32800  36.385  35.952   1.953
61130W        W32801   8.236  17.807   3.642
61131W        W32802   8.551  34.459  11.709
61132W        W32803  14.127  19.221  13.075
61133W        W32804  22.788  40.972  10.719
61134W        W32805  11.292  23.262  10.736
61135W        W32806   7.830  12.840   3.759
61136W        W32807  36.609  27.486  11.313
61137W        W32808   9.868  29.892  12.025
61138W        W32809  32.549  19.609  11.106
61139W        W32810  41.766   4.832  11.012
61140W        W32811  25.544  39.254  10.709
61141W        W32812  41.513   0.922   2.907
61142W        W32813  14.611  19.319  11.503
61143W        W32814  32.603  43.951  13.540
61144W        W32815   2.705  17.960  12.763
61145W        W32816  29.340  27.570  12.515
61146W        W32817  24.899  25.241   4.264
61147W        W32818   2.828  27.762   1.385
61148W        W32819   1.303   3.553   0.257
61149W        W32820  13.273   9.320   0.605
61150W        W32821   4.389   5.892   4.877
61151W        W32822  28.708   9.782  13.829
61152W        W32823  14.319  33.495  13.470
61153W        W32824  34.359  31.108  10.695
61154W        W32825  21.606  25.238   0.262
61155W        W32826  41.329   1.246  14.041
61156W        W32827  18.957  44.771   1.700
61157W        W32828  40.254  18.700  13.312
61158W        W32829  11.799  34.414  10.827
61159W        W32830  29.573   3.812  10.733
61160W        W32831  24.719  29.506  12.514
61161W        W32832  20.716  43.235  11.930
61162W        W32833   6.709  42.870   2.342
61163W        W32834  10.336  25.632   3.654
61164W        W32835  16.775   9.834  11.979
61165W        W32836  10.132   4.006  12.634
61166W        W32837  27.987  31.983  12.133
61167W        W32838  15.882  26.548  12.872
61168W        W32839  13.678  10.230  11.131
61169W        W32840  16.061  36.893   3.760
61170W        W32841  28.480  15.555  11.612
61171W        W32842  42.367  25.221   4.269
61172W        W32843  29.081  28.182  14.352
61173W        W32844   7.209  32.607   0.274
61174W        W32845   6.184  28.186  11.467
61175W        W32846  36.806  30.161   1.222
61176W        W32847  42.365  25.960  11.264
61177W        W32848  24.034  17.116   3.258
61178W        W32849  40.781  30.916   1.793
61179W        W32850  13.432  31.005   3.109
61180W        W32851  18.089  22.566   4.081
61181W        W32852  14.540  15.117   3.469
61182W        W32853  29.557  29.591  12.900
61183W        W32854  15.602   0.457  11.218
61184W        W32855  44.898  20.101  13.740
61185W        W32856  14.252  21.813   0.378
61186W        W32857   3.250   5.045  11.574
61187W        W32858   7.621  44.506  14.012
61188W        W32859  22.294  19.641  11.233
61189W        W32860  20.174   0.316  13.968
61190W        W32861   6.176  29.452  12.587
61191W        W32862  24.422  34.157  13.857
61192W        W32863  35.035  18.855   4.080
61193W        W32864   6.250  12.825  14.484
61194W        W32865  19.320  37.561  12.373
61195W        W32866  19.798   8.328   1.708
61196W        W32867  12.668   4.024   5.029
61197W        W32868  25.045  24.704   2.257
61198W        W32869  14.289  38.654  11.107
61199W        W32870  35.846  30.040  14.802
61200W        W32871  35.594  32.685  12.388
61201W        W32872  27.045  42.541   0.334
61202W        W32873  44.039  11.736   1.919
61203W        W32874  27.987  42.814   2.410
61204W        W32875   7.235  20.176   3.744
61205W        W32876  35.135  29.589   1.690
61206W        W32877  32.818  27.507  12.924
61207W        W32878   2.820  27.588  13.853
61208W        W32879  27.286  24.472   0.415
61209W        W32880  14.724   0.793  14.065
61210W        W32881  19.550  38.564   0.419
61211W        W32882  33.918  19.754  14.932
61212W        W32883  40.021  19.096  14.077
61213W        W32884   6.467   4.338  13.857
61214W        W32885  13.452  28.387   0.748
61215W        W32886  44.987  41.743  13.313
61216W        W32887   7.372  44.943   2.182
61217W        W32888  41.921  16.144   4.855
61218W        W32889  20.126  34.438   5.219
61219W        W32890  26.159  22.332   2.358
61220W        W32891   1.820  40.429  11.254
61221W        W32892  29.090  36.678   1.969
61222W        W32893   6.701  34.632  12.502
61223W        W32894  22.805  32.657  12.920
61224W        W32895  16.141   0.565  13.710
61225W        W32896   8.945   5.456   1.429
61226W        W32897   9.240  39.796  10.793
61227W        W32898  37.525  15.803  12.598
61228W        W32899   6.787  26.732  10.716
61229W        W32900  27.566  11.105  12.497
61230W        W32901   2.017  30.216  11.792
61231W        W32902  34.615  27.040   2.183
61232W        W32903  43.672  14.778   3.924
61233W        W32904  38.030  28.670   1.408
61234W        W32905  38.876  34.022  14.936
61235W        W32906   8.342  12.191   1.966
61236W        W32907  31.430  37.516  13.447
61237W        W32908  25.550  37.263  13.421
61238W        W32909  26.691  40.435  12.850
61239W        W32910  41.768  15.759   4.189
61240W        W32911  31.994  12.810   0.221
61241W        W32912  31.747  23.650   1.879
61242W        W32913  13.665  17.827   1.320
61243W        W32914  33.198  41.182  11.530
61244W        W32915  25.233  35.008  11.194
61245W        W32916  43.675  30.512  13.904
61246W        W32917  13.020   3.282   2.403
61247W        W32918   6.469  10.806  13.581
61248W        W32919  18.860  23.519  13.112
61249W        W32920  31.643  32.519   4.260
61250W        W32921  22.458  42.680  11.184
61251W        W32922   8.317   0.900   3.598
61252W        W32923  40.937  26.742   2.234
61253W        W32924  23.130  15.152   3.964
61254W        W32925  36.135  13.746  11.987
61255W        W32926   5.702  14.250   0.036
61256W        W32927  26.689  15.186  10.594
61257W        W32928  17.287  32.654  13.051
61258W        W32929  29.485  21.752  11.954
61259W        W32930  33.268  22.634   2.719
61260W        W32931  28.023  29.681  11.370
61261W        W32932  16.626  33.939   2.722
61262W        W32933   7.723   3.817   2.080
61263W        W32934  30.136   6.741  11.568
61264W        W32935  34.561  33.497  12.451
61265W        W32936  30.003  12.736   4.376
61266W        W32937  25.955  29.160   1.837
61267W        W32938  24.014  12.199   3.834
61268W        W32939   1.718   1.964   0.768
61269W        W32940  15.857  22.135  14.414
61270W        W32941   2.846  26.171  13.508
61271W        W32942  42.543  39.992  13.088
61272W        W32943   8.211  32.096   4.565
61273W        W32944   8.799   9.897   4.096
61274W        W32945   2.158  39.435  11.169
61275W        W32946  23.219   9.247   3.414
61276W        W32947  20.271  35.542   3.383
61277W        W32948   9.140  18.447   1.206
61278W        W32949  15.417  44.826  14.951
61279W        W32950  33.872  12.127   1.309
61280W        W32951  33.591  22.759   4.136
61281W        W32952  36.081  44.700   4.572
61282W        W32953  23.708  19.925  12.874
61283W        W32954  29.618  16.027   1.411
61284W        W32955  25.935  25.494  13.829
61285W        W32956   6.682  39.463  12.047
61286W        W32957  43.542  12.854   0.396
61287W        W32958  43.184  16.534   4.505
61288W        W32959  10.315  38.908  13.944
61289W        W32960  26.112  28.915  12.932
61290W        W32961  32.117  13.118  11.612
61291W        W32962   5.201  20.202   3.107
61292W        W32963   1.221   9.719  13.054
61293W        W32964  14.695   9.367  13.468
61294W        W32965  41.066   5.618   2.156
61295W        W32966  11.343  10.303   0.406
61296W        W32967  40.985  14.169   1.959
61297W        W32968   7.799  12.473  11.094
61298W        W32969  40.438  24.581  12.371
61299W        W32970  35.587  29.080  12.345
61300W        W32971  42.988  41.354  13.475
61301W        W32972  34.143   1.222  13.977
61302W        W32973   5.201  23.602  14.975
61303W        W32974  33.930  39.605   3.311
61304W        W32975  40.434  31.463   4.560
61305W        W32976  17.973  16.752   2.056
61306W        W32977  40.562  32.474  14.467
61307W        W32978  31.423  35.990  11.973
61308W        W32979  14.685  44.572  14.879
61309W        W32980  33.327   9.158   1.843
61310W        W32981  19.653  11.353   1.907
61311W        W32982   5.338  16.729  14.144
61312W        W32983  27.684  38.507   1.277
61313W        W32984  19.668   4.681  12.770
61314W        W32985  37.569  43.245   3.699
61315W        W32986  31.514  13.093  12.007
61316W        W32987  13.620  17.312   4.260
61317W        W32988   4.803  38.030   2.757
61318W        W32989  30.173  20.694   3.401
61319W        W32990  37.350  30.681  11.244
61320W        W32991  16.137  40.446  13.006
61321W        W32992  17.751  24.342   3.090
61322W        W32993  26.733   7.174  13.019
61323W        W32994   4.075  37.369   2.629
61324W        W32995   8.823  29.431   4.585
61325W        W32996  32.986  16.188   1.197
61326W        W32997   9.316  28.664  13.650
61327W        W32998  41.778  32.791   3.565
61328W        W32999  18.840   1.750  14.981
61329W        W33000   0.952  31.871   4.501
61330W        W33001   7.766  25.961  13.807
61331W        W33002  19.685  20.995  12.402
61332W        W33003   2.905  39.248  12.010
61333W        W33004  44.201  30.816   3.300
61334W        W33005  28.717  38.336   1.324
61335W        W33006  12.643  21.962   2.208
61336W        W33007   5.386   9.752   3.448
61337W        W33008  15.494  26.522  10.539
61338W        W33009  15.096  39.414   1.549
61339W        W33010  33.398  31.954   2.395
61340W        W33011  11.707  20.706   4.712
61341W        W33012  31.509   4.862   2.226
61342W        W33013   0.183  32.313   4.246
61343W        W33014  34.069   0.424  13.410
61344W        W33015  35.109  35.405  12.771
61345W        W33016  25.532  44.720  14.029
61346W        W33017  33.575  36.627   4.683
61347W        W33018  40.269  20.306  11.983
61348W        W33019   2.531   6.474  13.997
61349W        W33020  11.081  26.749  11.473
61350W        W33021   0.621  33.399   0.345
61351W        W33022  25.326   2.831   2.720
61352W        W33023   1.773   1.330   0.040
61353W        W33024  11.721  25.141  10.806
61354W        W33025  26.881  44.379   4.991
61355W        W33026  18.450   4.237   1.933
61356W        W33027  41.327   9.139   3.720
61357W        W33028  27.131  24.990  13.455
61358W        W33029  44.329  43.565   2.836
61359W        W33030  14.609   4.920   4.086
61360W        W33031  16.806  31.410  14.983
61361W        W33032   1.157  24.529  14.297
61362W        W33033  43.725  41.361  14.885
61363W        W33034  10.602  25.062  12.551
61364W        W33035   8.594   0.133   2.885
61365W        W33036   6.222  13.398  11.380
61366W        W33037   0.893  36.637   3.720
61367W        W33038  31.195   8.458  11.526
61368W        W33039  44.599  20.152   5.549
61369W        W33040  33.142  37.260  10.773
61370W        W33041  17.312   5.568   1.791
61371W        W33042  12.163  30.852   4.041
61372W        W33043  35.980  27.938   1.260
61373W        W33044  23.791   6.899  12.463
61374W        W33045   6.988  27.904   0.830
61375W        W33046   7.326  11.162  10.698
61376W        W33047  10.616  31.474   4.276
61377W        W33048  37.988  29.191   2.691
61378W        W33049  29.179  34.290   0.855
61379W        W33050  11.387  34.251   4.556
61380W        W33051  36.422  39.340  12.784
61381W        W33052  19.267  15.859   3.769
61382W        W33053  33.773  25.485  11.584
61383W        W33054   1.801  44.837  11.893
61384W        W33055  36.829  12.863   4.157
61385W        W33056   3.512  33.496  11.177
61386W        W33057  23.108  30.673   2.314
61387W        W33058  11.356   1.970   3.710
61388W        W33059  22.623  42.261  12.105
61389W        W33060  21.146  12.307   4.760
61390W        W33061  21.375  35.129  14.364
61391W        W33062  27.873  25.228   0.247
61392W        W33063  25.093   2.504  14.411
61393W        W33064  30.587  23.105  12.814
61394W        W33065  27.205  28.493   4.363
61395W        W33066   4.640  36.053   3.229
61396W        W33067  33.021  42.954  12.100
61397W        W33068  20.507   4.289  11.217
61398W        W33069  21.448  34.677  13.502
61399W        W33070  19.562  17.040   3.981
61400W        W33071  20.976  10.369   3.754
61401W        W33072  34.942  38.016  10.462
61402W        W33073  15.035  25.080   1.816
61403W        W33074   1.317   5.335  12.758
61404W        W33075   2.312  32.941  11.995
61405W        W33076  16.097  19.529   1.266
61406W        W33077  29.930   1.481  11.903
61407W        W33078  43.370  42.300  12.639
61408W        W33079  13.879  16.565   0.002
61409W        W33080  40.943  33.976   4.013
61410W        W33081  28.789   3.935  11.918
61411W        W33082  28.416  18.546   4.144
61412W        W33083  17.199  19.177   2.209
61413W        W33084   5.676  29.919   3.225
61414W        W33085  19.027  10.260  14.126
61415W        W33086  33.326  31.201  11.560
61416W        W33087  30.824   0.032  14.407
61417W        W33088  12.837   3.189  11.560
61418W        W33089  27.728   5.110   9.967
61419W        W33090  11.340  34.316  12.038
61420W        W33091  37.623  31.865  11.422
61421W        W33092  43.585  41.910  10.736
61422W        W33093  22.543  10.204  10.427
61423W        W33094  16.924  42.474  11.429
61424W        W33095   5.118  21.632   3.270
61425W        W33096  41.873  19.602   0.780
61426W        W33097  19.674  30.206   1.374
61427W        W33098  41.919  38.294   1.548
61428W        W33099  44.908  29.241   0.966
61429W        W33100  27.929  38.612   0.834
61430W        W33101  28.000   7.080   4.185
61431W        W33102  10.699  41.351  14.600
61432W        W33103   6.258  35.835   4.609
61433W        W33104  13.012  44.443   4.642
61434W        W33105  21.943  29.627  14.911
61435W        W33106  23.170  34.647  11.206
61436W        W33107  22.099  24.718   2.302
61437W        W33108  29.624   7.729   2.839
61438W        W33109   1.123  24.152   4.334
61439W        W33110  35.167  36.802   2.371
61440W        W33111  26.371  12.158   4.663
61441W        W33112  21.886   4.762   3.181
61442W        W33113  10.637  16.113  13.380
61443W        W33114  30.974  29.932   0.969
61444W        W33115  17.310   1.463  12.916
61445W        W33116  44.894   2.455   4.171
61446W        W33117   2.341  33.318   2.692
61447W        W33118  28.295  43.837   0.474
61448W        W33119   3.875  39.142   0.678
61449W        W33120  23.025  26.125  13.910
61450W        W33121  12.666  37.051  12.121
61451W        W33122  23.300  44.929  13.158
61452W        W33123  18.281  24.981   2.826
61453W        W33124  21.782  36.327  12.445
61454W        W33125  34.370  10.913   0.227
61455W        W33126  10.375  16.602  10.698
61456W        W33127   9.853   4.943   2.615
61457W        W33128   1.040   2.253   1.860
61458W        W33129  21.723  37.795  14.899
61459W        W33130  17.149  15.507  13.003
61460W        W33131   0.825   0.371   1.185
61461W        W33132  11.817  43.303   1.566
61462W        W33133  41.054  18.499  12.559
61463W        W33134   9.586  21.218   0.973
61464W        W33135  18.879   5.879   0.422
61465W        W33136  45.000  29.407   2.250
61466W        W33137  20.298  41.518  13.050
61467W        W33138   3.179  14.679  14.429
61468W        W33139   4.934  44.950   3.664
61469W        W33140   9.047  40.867   2.661
61470W        W33141  26.063   1.494  11.906
61471W        W33142  27.155  21.500  11.508
61472W        W33143   8.805  37.100   1.884
61473W        W33144  42.147  37.964  14.853
61474W        W33145  11.036  14.419  14.023
61475W        W33146  17.491   1.031   1.991
61476W        W33147  41.934   5.283  11.192
61477W        W33148  30.189  41.105  12.938
61478W        W33149   7.791  30.459   0.808
61479W        W33150  43.717  26.711   0.225
61480W        W33151  24.594  41.088  12.119
61481W        W33152  32.902  30.091   2.427
61482W        W33153  29.549  39.771   2.489
61483W        W33154  18.636  25.516  11.986
61484W        W33155  24.093  14.728   0.678
61485W        W33156  43.757  33.121   0.314
61486W        W33157   7.937   6.549   5.054
61487W        W33158   0.873   9.318   2.719
61488W        W33159  15.676  33.300  10.351
61489W        W33160  12.041  19.724  10.594
61490W        W33161  37.510  22.122   0.763
61491W        W33162  12.934  36.092   2.227
61492W        W33163  10.654  12.227   4.391
61493W        W33164  29.934  30.545  10.604
61494W        W33165  14.884   5.761   0.260
61495W        W33166  24.477  23.996   2.791
61496W        W33167  24.781  41.440   3.135
61497W        W33168   9.234  22.174   2.655
61498W        W33169   9.575  39.178   1.930
61499W        W33170   6.671  40.880   2.223
61500W        W33171  21.963  20.264  14.713
61501W        W33172  27.454  12.819   0.095
61502W        W33173  37.930  31.172   4.332
61503W        W33174  34.158  36.946   1.332
61504W        W33175   7.122   2.004   4.074
61505W        W33176  31.119  11.224  13.447
61506W        W33177  31.395  22.219  11.148
61507W        W33178  31.642   4.212   3.523
61508W        W33179  22.484   8.512   1.467
61509W        W33180  14.601  31.058   2.369
61510W        W33181  26.042   6.496  10.858
61511W        W33182   9.455  20.899  10.921
61512W        W33183  24.121  27.408   4.100
61513W        W33184  36.418  39.538   3.136
61514W        W33185  35.133  27.951   4.128
61515W        W33186  24.958  11.851  11.728
61516W        W33187  19.301  11.655   5.049
61517W        W33188   9.104  10.790  14.541
61518W        W33189  38.237  22.811  13.105
61519W        W33190  29.224  15.397  11.078
61520W        W33191   9.508  34.518  11.499
61521W        W33192  43.384  22.068   3.703
61522W        W33193  25.089  44.217  10.892
61523W        W33194  18.619  25.260   1.019
61524W        W33195  36.903  26.876  14.773
61525W        W33196  21.572  38.443   0.490
61526W        W33197  27.740   1.535  11.244
61527W        W33198   3.202  34.996  12.061
61528W        W33199  27.710  24.577  11.229
61529W        W33200  20.555  18.266  13.469
61530W        W33201   7.765  20.600   4.946
61531W        W33202  18.019  36.616  14.946
61532W        W33203  39.113  21.822   0.912
61533W        W33204  17.379  13.351  13.441
61534W        W33205   0.977   3.170   0.437
61535W        W33206  10.963   3.569  12.480
61536W        W33207  29.479  19.505  13.789
61537W        W33208   5.284   1.499  14.157
61538W        W33209   1.797  11.601  13.078
61539W        W33210  44.879  34.575   4.847
61540W        W33211  13.773   1.930   0.721
61541W        W33212  32.928  32.533   4.848
61542W        W33213  22.832  12.561  12.485
61543W        W33214  32.202  33.467   1.778
61544W        W33215  28.423  40.632   0.656
61545W        W33216  22.542  22.069  14.027
61546W        W33217  37.600  12.025  12.003
61547W        W33218  34.927  42.145  12.665
61548W        W33219   7.418   1.389   0.298
61549W        W33220  38.016  42.122   2.363
61550W        W33221  43.051   8.302   2.280
61551W        W33222  25.575  17.132  12.869
61552W        W33223   0.012  23.496  10.887
61553W        W33224   0.237  43.527   0.820
61554W        W33225  13.417  34.717   3.003
61555W        W33226  32.527  32.432   3.890
61556W        W33227  12.657   8.803  12.201
61557W        W33228  44.569  41.854   1.702
61558W        W33229  43.340   0.721   3.372
61559W        W33230  13.015   7.166   2.389
61560W        W33231   5.829   6.896  14.361
61561W        W33232  44.184   2.408   4.685
61562W        W33233  21.202  18.645   2.600
61563W        W33234  10.061  18.303  12.496
61564W        W33235  10.247  34.555  11.241
61565W        W33236   6.435  23.730   4.096
61566W        W33237   5.620  12.804   4.576
61567W        W33238  35.972  35.302  11.146
61568W        W33239  17.337  13.945   0.822
61569W        W33240  30.992   5.147  13.457
61570W        W33241   2.494  20.785  13.105
61571W        W33242  27.201   2.897   3.695
61572W        W33243  24.060  32.356   0.917
61573W        W33244  15.536  24.485   2.847
61574W        W33245  29.461  14.130   2.729
61575W        W33246  18.333   5.246   3.286
61576W        W33247  28.645   5.406   1.199
61577W        W33248  26.527  13.174  11.636
61578W        W33249  27.777  26.311   0.272
61579W        W33250  31.169  10.845  14.970
61580W        W33251  37.878  15.609   1.636
61581W        W33252  31.074   3.274  14.286
61582W        W33253  23.247   6.120  11.164
61583W        W33254  36.452  41.316   3.917
61584W        W33255  37.919  23.288  12.987
61585W        W33256  32.620  33.966  12.990
61586W        W33257  19.347  35.038  11.600
61587W        W33258  19.125   5.662   0.003
61588W        W33259  26.992  21.027   1.297
61589W        W33260  36.335  26.398  13.053
61590W        W33261  16.295   5.097   2.764
61591W        W33262  12.229  18.586   3.905
61592W        W33263  32.904   9.430  14.733
61593W        W33264  36.116  20.517  13.215
61594W        W33265   4.732  31.939   0.242
61595W        W33266   2.124  21.852  14.470
61596W        W33267  18.765  38.310   4.171
61597W        W33268  35.486   1.686  10.784
61598W        W33269  32.652  40.970   1.845
61599W        W33270  10.579  10.468   4.388
61600W        W33271  13.251   6.196  10.726
61601W        W33272   8.184  39.322  13.563
61602W        W33273   8.824  38.502   4.659
61603W        W33274  14.917  31.979   2.205
61604W        W33275  40.494  26.707  10.664
61605W        W33276  42.556   9.185  13.833
61606W        W33277  11.100   4.262   2.397
61607W        W33278  22.703   9.807  10.797
61608W        W33279  41.762  21.942  13.981
61609W        W33280  15.341  36.692   1.386
61610W        W33281  19.646  28.871   0.881
61611W        W33282   2.958   8.033  14.520
61612W        W33283   2.739  22.152  14.857
61613W        W33284  36.951  33.633  11.138
61614W        W33285   1.184  27.742  14.339
61615W        W33286  22.728  37.906   5.425
61616W        W33287   5.315  41.076   2.164
61617W        W33288  23.765   6.343  11.911
61618W        W33289  24.227   9.631  11.315
61619W        W33290  39.388  22.105  14.063
61620W        W33291  42.561  12.205  10.234
61621W        W33292  31.622  17.444  10.737
61622W        W33293  42.801  33.895  12.453
61623W        W33294  20.137  12.838   0.945
61624W        W33295  39.055   0.531  13.453
61625W        W33296  24.750  42.944  10.435
61626W        W33297  16.873  36.445   3.694
61627W        W33298   9.741  33.584  10.751
61628W        W33299   3.141   6.613  10.975
61629W        W33300  36.965  32.561   2.354
61630W        W33301  43.957  14.857   1.357
61631W        W33302  24.592  37.971   2.127
61632W        W33303  42.935   2.483   0.029
61633W        W33304  17.543  39.284  11.129
61634W        W33305  20.337  13.670  10.641
61635W        W33306  25.717  38.974   0.503
61636W        W33307  42.334  13.835   2.155
61637W        W33308  36.915  31.722  13.587
61638W        W33309  31.638  39.396  12.473
61639W        W33310   4.708  16.138  14.265
61640W        W33311  11.463  28.472   4.606
61641W        W33312  34.214   6.955   4.696
61642W        W33313  29.014  31.372   1.386
61643W        W33314   5.240   2.185  13.543
61644W        W33315  10.163  34.304   2.837
61645W        W33316  18.578   1.370  13.436
61646W        W33317  13.143  39.679   1.323
61647W        W33318   3.784   5.026  11.185
61648W        W33319   4.076  22.808  14.429
61649W        W33320  10.979  37.152   4.465
61650W        W33321  30.096  22.556   3.956
61651W        W33322  27.559   4.360  14.397
61652W        W33323  38.005  42.444   0.727
61653W        W33324  31.966  18.184  13.391
61654W        W33325  27.072   8.724   1.490
61655W        W33326  32.844  40.153   1.327
61656W        W33327   3.176  12.368   3.805
61657W        W33328  44.461  34.569   2.727
61658W        W33329   3.807   6.461   2.389
61659W        W33330  24.305  24.611   1.631
61660W        W33331   1.324  10.782  10.622
61661W        W33332  10.754  14.879   2.909
61662W        W33333  25.239  22.682  14.878
61663W        W33334  25.578  27.244  10.499
61664W        W33335  37.847  19.489   0.413
61665W        W33336   7.669  35.351   0.067
61666W        W33337  21.762   5.504  10.646
61667W        W33338  38.462  24.062   0.252
61668W        W33339  20.297  10.025   4.110
61669W        W33340   5.316  14.370  13.689
61670W        W33341  37.973  15.994  10.933
61671W        W33342  29.925  17.776  14.846
61672W        W33343  30.610  35.409   3.407
61673W        W33344  17.754  42.053  12.338
61674W        W33345   1.654  10.600  12.949
61675W        W33346  36.839  42.464  11.001
61676W        W33347  38.334   8.886  11.476
61677W        W33348  42.253  10.829   2.589
61678W        W33349  27.689  25.184   2.365
61679W        W33350   3.340  42.473   1.283
61680W        W33351  42.886   4.563  11.476
61681W        W33352  42.560  33.641  13.743
61682W        W33353  23.637   7.995   1.773
61683W        W33354  18.703   0.192  12.085
61684W        W33355   7.135  40.355   3.552
61685W        W33356  18.779   1.263   0.791
61686W        W33357   3.299  37.396  10.756
61687W        W33358  14.676  43.517   0.820
61688W        W33359  20.286  42.914   2.790
61689W        W33360   1.747  34.067  12.601
61690W        W33361  30.615   5.870  10.713
61691W        W33362  37.740  14.530   3.256
61692W        W33363  30.039  25.268   2.305
61693W        W33364  25.547  15.841   0.855
61694W        W33365  35.479  25.575  11.179
61695W        W33366   7.988  37.958   4.082
61696W        W33367  40.294  20.121  11.467
61697W        W33368  33.590   4.704   2.755
61698W        W33369  10.661  31.872  14.965
61699W        W33370  17.888   6.353  14.476
61700W        W33371   0.511  38.338  12.465
61701W        W33372   6.663  27.668  12.462
61702W        W33373  27.079  28.461   1.382
61703W        W33374  12.600  15.135  13.090
61704W        W33375  34.411  28.986   0.842
61705W        W33376  11.832  30.149   1.392
61706W        W33377  32.150   2.006   9.785
61707W        W33378  30.597  25.129   0.359
61708W        W33379  37.702  34.651  11.925
61709W        W33380  16.572  32.099   1.470
61710W        W33381  10.795   9.956  11.554
61711W        W33382  41.097  23.479  11.651
61712W        W33383  31.993  36.550  13.936
61713W        W33384  12.606  43.111  11.180
61714W        W33385  36.295  17.621  14.330
61715W        W33386  13.383  43.304  13.906
61716W        W33387  20.309  11.505   3.254
61717W        W33388  23.577  31.856   3.526
61718W        W33389  36.145  40.905  12.359
61719W        W33390  33.452  36.941   3.690
61720W        W33391  13.246  26.957  13.402
61721W        W33392  34.656  41.325   3.201
61722W        W33393   7.463  44.734  12.966
61723W        W33394  37.078  38.087   4.613
61724W        W33395  28.046  28.718  11.877
61725W        W33396  15.312  34.885  12.432
61726W        W33397  24.289   3.981  14.342
61727W        W33398  32.568  40.057  10.339
61728W        W33399   5.984  43.832  14.644
61729W        W33400   8.894  18.079   1.468
61730W        W33401  19.523  41.922  10.550
61731W        W33402  25.902   4.097  11.145
61732W        W33403  24.111  36.713  14.714
61733W        W33404   0.291  25.173  10.353
61734W        W33405   5.262  32.701   3.807
61735W        W33406  39.341  36.817   1.824
61736W        W33407   4.774  35.157   2.269
61737W        W33408  20.817   0.335   4.460
61738W        W33409  16.755  12.358   0.369
61739W        W33410   1.645  20.930   3.206
61740W        W33411   3.268  12.856  10.293
61741W        W33412  27.046   6.832   0.497
61742W        W33413  13.219  30.140  14.920
61743W        W33414  12.802  22.581  10.599
61744W        W33415   7.681  15.526  12.887
61745W        W33416  32.158  40.069  13.633
61746W        W33417  27.897  44.342  11.047
61747W        W33418  10.850  41.376  13.111
61748W        W33419  26.081  20.981  12.174
61749W        W33420  32.668   2.336   1.718
61750W        W33421   2.292  25.100   1.902
61751W        W33422  41.088  10.180  13.653
61752W        W33423  27.988  37.629  11.053
61753W        W33424   1.500  29.647   1.325
61754W        W33425   4.534  22.560   0.686
61755W        W33426   4.845  30.452   1.433
61756W        W33427  43.791  30.366   4.106
61757W        W33428  20.294  42.025  12.908
61758W        W33429  33.127  22.063   0.472
61759W        W33430  38.022  20.795  13.086
61760W        W33431  10.857  30.932  12.050
61761W        W33432   7.856  27.642  14.321
61762W        W33433   1.889  22.929  11.620
61763W        W33434  17.641  12.082   4.594
61764W        W33435  36.822  12.790   0.942
61765W        W33436  36.105  11.100  12.944
61766W        W33437  20.895  17.913  13.421
61767W        W33438  39.532  12.756   3.652
61768W        W33439   1.171  13.066  13.468
61769W        W33440  30.589   9.867   4.532
61770W        W33441  32.042   0.479   0.420
61771W        W33442   1.412  15.738  12.897
61772W        W33443  37.379  10.204  14.801
61773W        W33444  39.543  11.240   0.676
61774W        W33445  17.904  16.594  11.203
61775W        W33446   0.098  27.216  14.723
61776W        W33447  24.185  24.455  14.347
61777W        W33448   5.726  29.644   3.673
61778W        W33449  15.477  26.733  13.437
61779W        W33450   0.209   6.903   1.362
61780W        W33451   8.849  40.643   1.446
61781W        W33452  27.954  17.699  12.591
61782W        W33453  15.332  27.430  11.059
61783W        W33454   5.990  36.943  14.825
61784W        W33455   6.975   1.597   2.713
61785W        W33456  30.724  20.910  12.923
61786W        W33457  35.833  29.046   2.113
61787W        W33458  44.441  28.904  12.947
61788W        W33459  21.567  10.589   3.386
61789W        W33460  30.452   1.182  11.462
61790W        W33461   5.722   0.919  10.690
61791W        W33462  21.494  38.892   9.912
61792W        W33463  23.177  34.653   2.205
61793W        W33464  37.588   1.484   3.419
61794W        W33465  30.505  42.821  11.023
61795W        W33466  16.355   4.408  14.495
61796W        W33467  38.832  21.343   4.162
61797W        W33468  14.611  13.320  11.939
61798W        W33469  15.351  21.054  12.899
61799W        W33470  42.248   0.572   2.700
61800W        W33471  11.805  10.273  12.640
61801W        W33472  10.418  23.658   2.818
61802W        W33473  22.619  10.580  12.490
61803W        W33474  23.477  21.124   2.692
61804W        W33475  19.575   8.861   0.336
61805W        W33476  40.875   1.989   0.563
61806W        W33477   1.000  36.979  14.515
61807W        W33478   4.175   0.169  13.928
61808W        W33479  44.870  12.662   1.198
61809W        W33480  33.578  28.266   1.818
61810W        W33481  28.122   3.218   3.764
61811W        W33482  17.760   0.696   2.292
61812W        W33483  35.508  43.848   2.426
61813W        W33484   6.945  44.838  14.213
61814W        W33485   8.987  42.860  10.422
61815W        W33486   9.659  42.718  12.867
61816W        W33487   7.961  27.630   1.304
61817W        W33488  38.529  29.964  10.691
61818W        W33489   3.575   3.147  14.104
61819W        W33490  39.151  26.099   2.336
61820W        W33491  26.491  19.731   1.178
61821W        W33492  10.754  44.534   2.797
61822W        W33493   3.022  22.149  10.703
61823W        W33494  21.223   2.996  14.181
61824W        W33495  23.507  37.005   0.020
61825W        W33496  33.499  26.401  14.723
61826W        W33497  16.718  14.473   1.234
61827W        W33498  13.263  40.412  12.866
61828W        W33499  12.171  30.019  11.566
61829W        W33500  16.471  28.603   3.736
61830W        W33501  23.751  27.563  14.644
61831W        W33502  42.059  12.430  10.338
61832W        W33503   2.627   0.982  11.303
61833W        W33504  28.892  23.564   1.369
61834W        W33505  15.246  44.297  13.440
61835W        W33506  30.992   5.164  14.900
61836W        W33507  42.171  32.235   5.029
61837W        W33508   0.466  11.768  11.460
61838W        W33509  17.200  27.323   1.777
61839W        W33510  11.267  12.585  13.455
61840W        W33511  31.700  13.314  14.269
61841W        W33512  19.295  14.713   1.797
61842W        W33513  21.779   3.889  10.985
61843W        W33514  17.287   8.762  10.597
61844W        W33515  35.305  41.939   1.204
61845W        W33516  29.142  13.636  13.713
61846W        W33517   7.633   8.941   2.355
61847W        W33518  26.540  43.529  11.717
61848W        W33519   4.209  22.076   0.060
61849W        W33520  23.746   9.414  13.792
61850W        W33521  25.695  35.657  12.470
61851W        W33522   3.317  10.486   2.254
61852W        W33523  12.788  10.124  13.817
61853W        W33524  36.417  10.369   4.198
61854W        W33525  22.322  34.389  12.567
61855W        W33526  31.143  14.778   2.200
61856W        W33527  11.854   3.954   4.552
61857W        W33528  12.745  11.076  14.980
61858W        W33529  14.678  29.109  11.006
61859W        W33530   7.623  43.147  13.919
61860W        W33531  29.971  44.216   0.830
61861W        W33532  14.127  28.781  13.390
61862W        W33533  16.233  14.775  14.060
61863W        W33534  11.202  44.359   4.546
61864W        W33535  39.547  41.373  11.271
61865W        W33536  44.508  29.186   3.239
61866W        W33537  20.502  31.081  12.970
61867W        W33538  43.923  36.168  12.085
61868W        W33539  18.734  10.782  14.244
61869W        W33540  42.900  16.041   2.047
61870W        W33541  13.649  34.904   4.724
61871W        W33542   3.864   5.402   0.242
61872W        W33543  29.881  33.098  13.817
61873W        W33544  14.360  44.853  10.414
61874W        W33545  33.691  38.130  13.099
61875W        W33546  38.948  42.305   3.360
61876W        W33547  43.256   6.119   3.780
61877W        W33548  18.473  33.494   1.451
61878W        W33549  36.879  42.971   2.791
61879W        W33550  20.678  12.583  12.385
61880W        W33551   6.225  31.853  13.001
61881W        W33552   9.640  30.543   0.478
61882W        W33553  43.624  43.890   1.778
61883W        W33554   2.363  14.385   1.794
61884W        W33555  16.324  36.039  13.145
61885W        W33556   1.445  15.376  13.285
61886W        W33557  41.947  17.113  14.670
61887W        W33558  19.637  23.056  12.490
61888W        W33559   9.216  37.388   2.721
61889W        W33560  30.931  37.492   4.542
61890W        W33561  18.589  19.014  11.493
61891W        W33562  26.283  30.102  12.099
61892W        W33563  41.522  15.302   4.194
61893W        W33564  33.063  17.089  11.551
61894W        W33565   7.040  11.313  11.110
61895W        W33566  16.058  28.801   5.026
61896W        W33567   5.211  29.583  12.948
61897W        W33568  42.064  32.147  10.200
61898W        W33569  32.850  11.184  10.699
61899W        W33570  27.878   0.983  13.834
61900W        W33571  10.261  27.900   3.751
61901W        W33572  34.181   3.711   0.255
61902W        W33573  40.603  14.386   1.100
61903W        W33574  35.064   4.878   4.547
61904W        W33575  36.518  16.359   3.334
61905W        W33576  41.067  29.934  14.230
61906W        W33577   0.388  27.025   4.842
61907W        W33578  29.605  41.877   0.847
61908W        W33579  24.261  24.013   4.080
61909W        W33580   5.419  30.545  12.956
61910W        W33581  41.509  41.019  10.630
61911W        W33582  40.117  15.793   0.560
61912W        W33583   6.182  16.688  12.601
61913W        W33584  34.350  27.538   3.804
61914W        W33585  23.614  26.652  11.627
61915W        W33586  14.344   0.450  12.411
61916W        W33587  21.411  32.871   0.172
61917W        W33588   8.799  20.834   0.786
61918W        W33589  18.151  33.326   2.262
61919W        W33590  28.508  44.778  11.200
61920W        W33591  37.426  44.245  10.993
61921W        W33592   0.457  10.820  14.326
61922W        W33593  22.000   0.855  11.597
61923W        W33594   6.637   1.615  14.055
61924W        W33595  44.499   7.801  13.331
61925W        W33596  19.319   5.892  13.616
61926W        W33597  33.996  29.197  14.895
61927W        W33598  17.164  12.046   0.436
61928W        W33599  28.147  17.685   4.251
61929W        W33600  16.200  34.983   2.098
61930W        W33601  10.448  14.824  11.059
61931W        W33602  31.437   6.828  10.317
61932W        W33603  20.074  14.189  14.942
61933W        W33604  20.233  28.376  13.837
61934W        W33605   6.624   4.890  10.649
61935W        W33606  25.533  23.656  13.167
61936W        W33607  26.845  14.225   0.886
61937W        W33608  31.133  13.143   4.256
61938W        W33609   4.415  32.943  11.206
61939W        W33610  15.642   9.225  11.927
61940W        W33611  37.366   6.460  11.025
61941W        W33612  39.512  41.925   0.494
61942W        W33613  30.547  44.859   4.606
61943W        W33614  24.247  20.604  12.454
61944W        W33615  15.541   6.447   4.975
61945W        W33616  42.311  24.374   2.363
61946W        W33617   3.885   5.527  11.136
61947W        W33618   0.571  29.591  12.763
61948W        W33619  11.602  12.507   0.831
61949W        W33620  12.353  20.186  13.258
61950W        W33621   6.814   1.210   4.016
61951W        W33622   0.384  17.121   4.379
61952W        W33623  20.149   2.740   4.810
61953W        W33624  22.024  19.236  11.037
61954W        W33625  31.453   9.117  13.800
61955W        W33626  18.488   3.739   1.719
61956W        W33627  43.996   3.369  11.079
61957W        W33628  43.898   3.265   0.990
61958W        W33629  15.584  33.002   0.695
61959W        W33630  33.359  24.504  11.744
61960W        W33631  10.063  31.851   2.511
61961W        W33632   0.961  29.960  14.017
61962W        W33633  42.125  39.754  14.935
61963W        W33634  32.164   9.584  12.533
61964W        W33635  28.113  18.008   0.784
61965W        W33636  28.149   4.871   1.996
61966W        W33637  32.875   8.300  10.722
61967W        W33638  14.411  11.530   1.329
61968W        W33639  14.064  38.224   1.551
61969W        W33640  29.394   5.641   1.713
61970W        W33641   8.207  10.410   2.699
61971W        W33642  40.293   4.968   0.812
61972W        W33643  28.940  27.100   0.376
61973W        W33644   5.149   0.328   1.398
61974W        W33645  31.627   3.633  11.993
61975W        W33646  29.989  31.152  14.069
61976W        W33647  25.581  37.711  12.598
61977W        W33648  18.213   4.752  12.121
61978W        W33649   5.803  44.944   0.549
61979W        W33650  23.996  41.343  10.635
61980W        W33651  22.259  21.595  10.857
61981W        W33652  18.536  34.527   0.389
61982W        W33653  34.866   1.525  12.162
61983W        W33654  42.822  31.539  14.848
61984W        W33655   8.526   2.426   4.228
61985W        W33656   8.190  25.999   1.244
61986W        W33657  42.906   3.397   4.162
61987W        W33658   6.352  15.903  10.606
61988W        W33659  30.960   5.091  10.329
61989W        W33660  42.095   6.732   2.314
61990W        W33661  43.832  13.075   1.769
61991W        W33662  25.541  13.710  12.341
61992W        W33663  16.560  12.841  13.602
61993W        W33664  21.487   9.046  13.814
61994W        W33665  29.025   6.041  11.029
61995W        W33666  41.646  44.061   3.547
61996W        W33667   2.636  18.021  10.729
61997W        W33668  24.829  37.355   2.988
61998W        W33669   1.332  14.107  14.992
61999W        W33670   7.201   6.163   3.675
62000W        W33671  37.975  27.716   2.351
62001W        W33672  12.102  40.531   0.934
62002W        W33673  15.725  10.199  12.464
62003W        W33674  40.937  34.891  13.613
62004W        W33675  16.180  30.000  11.811
62005W        W33676   8.744  36.353   3.607
62006W        W33677   1.278  12.714   1.186
62007W        W33678  39.825  17.550   1.765
62008W        W33679  26.944  39.069  14.323
62009W        W33680   7.895  34.522   2.751
62010W        W33681  25.792  28.671  10.639
62011W        W33682   9.212   2.317   1.413
62012W        W33683   2.320   7.367  11.382
62013W        W33684  27.070  40.981  11.352
62014W        W33685   4.803   6.796   3.246
62015W        W33686   5.314  14.674  14.560
62016W        W33687  25.519  38.851  11.928
62017W        W33688  15.710  32.415   4.726
62018W        W33689   5.791  43.365  14.508
62019W        W33690  19.964  35.332  14.357
62020W        W33691  40.371   5.465  11.991
62021W        W33692  43.517  15.307  14.489
62022W        W33693  28.335  34.430  14.000
62023W        W33694  43.386   2.867  14.789
62024W        W33695  14.455  35.862  14.489
62025W        W33696  19.164  44.731   4.908
62026W        W33697   3.147  38.381  13.054
62027W        W33698  34.806   4.278   0.631
62028W        W33699  32.116   3.817  13.413
62029W        W33700  13.158  40.669   2.083
62030W        W33701  19.126  40.560   3.043
62031W        W33702   6.436  43.687  12.933
62032W        W33703  23.499  24.059  14.975
62033W        W33704  23.776  21.089  13.089
62034W        W33705  44.498  35.571  12.809
62035W        W33706  37.990  29.545  14.477
62036W        W33707  43.336   5.451  11.201
62037W        W33708  40.551  12.694   2.856
62038W        W33709  24.510  41.222  14.280
62039W        W33710  38.819  40.987  13.416
62040W        W33711  14.148  15.496   0.799
62041W        W33712  17.525   9.704   1.345
62042W        W33713  39.527  24.293  11.055
62043W        W33714  16.006  23.164  11.084
62044W        W33715  10.855   2.005  11.213
62045W        W33716  17.810  27.584  10.737
62046W        W33717  17.957   6.559   0.674
62047W        W33718  22.570  28.515   1.842
62048W        W33719  28.527  24.455  12.922
62049W        W33720  10.662   6.593  13.455
62050W        W33721  43.912   0.271  11.059
62051W        W33722  35.810   3.488  12.097
62052W        W33723  17.827  36.145  10.582
62053W        W33724  25.947  21.754  11.180
62054W        W33725   8.079   1.944  11.681
62055W        W33726  37.415  21.781  14.045
62056W        W33727   8.670   9.746   3.101
62057W        W33728  26.009  19.960  13.490
62058W        W33729   6.337  24.793   2.769
62059W        W33730   4.858  23.707  14.601
62060W        W33731  31.211  32.266  12.754
62061W        W33732  11.305   6.907   4.011
62062W        W33733  25.654  25.114   3.799
62063W        W33734  16.867  41.921  11.843
62064W        W33735  19.026  19.959   3.301
62065W        W33736   1.557  35.956   3.126
62066W        W33737  39.449  12.221   2.871
62067W        W33738  38.469  42.296  14.843
62068W        W33739   2.987   9.490  11.819
62069W        W33740  30.317  37.878   4.153
62070W        W33741  11.995  24.931   5.021
62071W        W33742  35.128  12.854  11.450
62072W        W33743  18.258  23.088  14.574
62073W        W33744  27.980  12.290   2.318
62074W        W33745  44.737  39.016   1.583
62075W        W33746  34.722  16.603  11.167
62076W        W33747  19.807   4.721   4.115
62077W        W33748   3.590  14.016  12.833
62078W        W33749  40.275   5.942   0.642
62079W        W33750  10.261  22.053   2.240
62080W        W33751   0.272   0.255  14.505
62081W        W33752  35.009  42.785  12.211
62082W        W33753  13.043   3.803   0.754
62083W        W33754  34.139   3.595   2.421
62084W        W33755  30.557   3.807   0.308
62085W        W33756  29.554  32.715   0.402
62086W        W33757   2.083  33.715   4.826
62087W        W33758  38.492  34.951   2.708
62088W        W33759  14.830  31.593   3.711
62089W        W33760  27.216  20.304  12.104
62090W        W33761  40.328  33.959   3.171
62091W        W33762  33.051  29.259  14.906
62092W        W33763  15.383  32.154   3.326
62093W        W33764  41.575  36.712  11.155
62094W        W33765  41.798   6.638  12.431
62095W        W33766  29.889  42.186   4.351
62096W        W33767  38.021  18.707  13.323
62097W        W33768  37.548   2.696   2.001
62098W        W33769   1.355  25.512   3.536
62099W        W33770  21.748  25.740  10.944
62100W        W33771  16.587   8.067  13.235
62101W        W33772   3.315  13.588   3.505
62102W        W33773  41.011  20.040   0.733
62103W        W33774  34.456  17.700   4.041
62104W        W33775  32.092   5.823  14.231
62105W        W33776  31.530  42.910   1.211
62106W        W33777  38.784   5.626  14.494
62107W        W33778   0.021  33.601  14.034
62108W        W33779   9.213   4.456  10.973
62109W        W33780   6.607   0.805   2.755
62110W        W33781  29.486   1.517  13.044
62111W        W33782  26.213  39.488  13.010
62112W        W33783   5.539  40.299  11.497
62113W        W33784  39.390   4.407   3.111
62114W        W33785  32.717  13.567  12.246
62115W        W33786  20.810  19.198   1.944
62116W        W33787  28.169  25.397  12.481
62117W        W33788   0.151  37.252   1.052
62118W        W33789  14.594  21.292   2.142
62119W        W33790   0.454  16.469  13.409
62120W        W33791  13.401  41.261  14.481
62121W        W33792  13.766   1.811   2.685
62122W        W33793  31.063  36.089   4.691
62123W        W33794  18.560  11.062  10.259
62124W        W33795  33.123  10.591   0.073
62125W        W33796   4.375  28.462   4.147
62126W        W33797  41.802  16.546  13.459
62127W        W33798   7.500  31.592  11.419
62128W        W33799  43.872   4.291   0.859
62129W        W33800   6.938   2.265  14.470
62130W        W33801  30.659  25.998  12.436
62131W        W33802   3.672  32.549  10.708
62132W        W33803  34.369   0.498   4.588
62133W        W33804  41.271  28.042  13.408
62134W        W33805  21.081   6.171   0.860
62135W        W33806  42.337  33.349   1.709
62136W        W33807  32.681   7.808  11.565
62137W        W33808  44.701   7.626  12.011
62138W        W33809  32.914  28.015  13.100
62139W        W33810   8.221  20.561   1.690
62140W        W33811  40.011  34.053  10.556
62141W        W33812   1.198  40.590   3.260
62142W        W33813  16.494  43.952   2.776
62143W        W33814  23.189  30.684   3.751
62144W        W33815  41.652  37.818   0.714
62145W        W33816  34.563  25.011  11.536
62146W        W33817  43.532  14.120  13.457
62147W        W33818  22.728  37.437   5.191
62148W        W33819   6.772  12.593   4.255
62149W        W33820  35.026  13.135  11.033
62150W        W33821  27.591  11.298   3.697
62151W        W33822  19.865  20.282   3.162
62152W        W33823  37.596  41.887   0.901
62153W        W33824  32.006  33.876   2.080
62154W        W33825  27.732  43.416  14.917
62155W        W33826  31.954  36.863  13.530
62156W        W33827  32.457  10.234   0.753
62157W        W33828  26.090  35.320   4.190
62158W        W33829   2.187   2.026  14.445
62159W        W33830  42.101  19.838  11.710
62160W        W33831  30.065  18.727  13.064
62161W        W33832  31.559  21.560  11.770
62162W        W33833   1.395  43.711  10.642
62163W        W33834  30.512   5.713  11.966
62164W        W33835  42.036  17.711   0.401
62165W        W33836  43.791   0.927   3.216
62166W        W33837  28.558  12.143   3.362
62167W        W33838  41.124  19.961   1.684
62168W        W33839  33.109   3.946   3.752
62169W        W33840   4.137   4.943   4.440
62170W        W33841  37.315  39.650   2.157
62171W        W33842   3.449   9.241  11.738
62172W        W33843   8.518   5.044  13.995
62173W        W33844  31.374  32.457   3.774
62174W        W33845  43.345  21.293  12.567
62175W        W33846   2.603  36.819   3.138
62176W        W33847  34.156  28.496   0.872
62177W        W33848  40.005   1.288   3.336
62178W        W33849   0.498  44.758   0.135
62179W        W33850  22.612  15.330  11.500
62180W        W33851  20.259  17.760  14.395
62181W        W33852  10.350  39.616  12.981
62182W        W33853  31.555  24.306   2.913
62183W        W33854  22.208  29.447  14.441
62184W        W33855  11.576  24.340  11.949
62185W        W33856  26.294  22.093   2.807
62186W        W33857  14.320  12.413   1.742
62187W        W33858  14.794  44.943   4.543
62188W        W33859  21.773   5.232  13.071
62189W        W33860  42.870  31.011  14.956
62190W        W33861  29.519  21.799   2.438
62191W        W33862  44.730  35.287  11.197
62192W        W33863  14.333   1.257  12.830
62193W        W33864  35.872  29.106  14.302
62194W        W33865  40.561  43.015   1.707
62195W        W33866  40.373  10.280  12.385
62196W        W33867  32.726  39.117  11.957
62197W        W33868  18.800  17.990   4.273
62198W        W33869  12.225   9.674   2.397
62199W        W33870  11.617  20.564  10.159
62200W        W33871   8.872   6.417  13.416
62201W        W33872   5.974   2.655   0.064
62202W        W33873  39.246  41.862  12.944
62203W        W33874  38.619  26.268   0.757
62204W        W33875   1.382  38.070   3.764
62205W        W33876   9.881  17.024  11.794
62206W        W33877   9.551   2.186   5.068
62207W        W33878  13.122  19.667  13.372
62208W        W33879  36.034  10.346  14.394
62209W        W33880  31.807  44.026   3.706
62210W        W33881  30.621  26.462  14.981
62211W        W33882   0.062  33.177  14.334
62212W        W33883  21.589  29.652   0.904
62213W        W33884  36.690   9.754   1.912
62214W        W33885  15.354  15.166   1.269
62215W        W33886  15.933  31.254   3.299
62216W        W33887  18.739   6.171   5.197
62217W        W33888  14.195  26.336  14.376
62218W        W33889  39.097  18.260  11.999
62219W        W33890   0.248   7.099   4.655
62220W        W33891  43.308  12.098   4.245
62221W        W33892  37.404  34.941   3.235
62222W        W33893   9.305  11.137  12.358
62223W        W33894  17.291   2.010   4.036
62224W        W33895   5.417  23.579   0.448
62225W        W33896   6.673  21.790  14.446
62226W        W33897  35.382  11.737  13.802
62227W        W33898  16.644  33.391  11.332
62228W        W33899  28.157  17.480  13.035
62229W        W33900  26.781   0.305  12.931
62230W        W33901  19.922  43.464   5.006
62231W        W33902  33.614  36.047   3.393
62232W        W33903  20.616  42.816   9.990
62233W        W33904  38.754  10.329  13.628
62234W        W33905   5.858  40.789  10.609
62235W        W33906  43.738   6.289   1.923
62236W        W33907  16.679  16.063   2.189
62237W        W33908  37.397  27.977   1.619
62238W        W33909  26.464   5.975   0.362
62239W        W33910  20.042  25.998  14.829
62240W        W33911  34.334  40.707  11.143
62241W        W33912  27.282  42.921   4.510
62242W        W33913  16.220  17.168  14.515
62243W        W33914   6.230  13.082   4.579
62244W        W33915  37.469  29.574  14.342
62245W        W33916  40.832  24.011  14.894
62246W        W33917  22.453  13.806   3.709
62247W        W33918  27.147   4.643   2.785
62248W        W33919   2.377  44.214   3.175
62249W        W33920  10.728  19.160   3.361
62250W        W33921  20.225   7.359  11.668
62251W        W33922   6.404  35.463   2.491
62252W        W33923  42.798   0.139  13.822
62253W        W33924  36.635  21.801  12.477
62254W        W33925  36.493  10.863  14.521
62255W        W33926  17.348  34.383  14.017
62256W        W33927  42.533  39.115  14.320
62257W        W33928  24.653  33.533   3.429
62258W        W33929  33.026  20.300   3.074
62259W        W33930  31.123   8.279  10.657
62260W        W33931  14.540  21.699  12.826
62261W        W33932   5.792  24.719  10.945
62262W        W33933  36.939  11.668  10.437
62263W        W33934  15.377  13.502  14.797
62264W        W33935  37.471   1.349  12.559
62265W        W33936  10.357  17.459  12.982
62266W        W33937  15.661  10.240  11.029
62267W        W33938   3.974  40.574  11.608
62268W        W33939   9.795   1.999   2.264
62269W        W33940  23.136   0.355   2.086
62270W        W33941  12.904   0.246  10.765
62271W        W33942   6.912  40.770  13.889
62272W        W33943  44.379  43.083  14.760
62273W        W33944  37.431  29.051   0.906
62274W        W33945  27.110  44.852  12.078
62275W        W33946  32.401  24.137   2.836
62276W        W33947  37.809  13.111   2.915
62277W        W33948  13.039  21.647   2.675
62278W        W33949   3.219  44.817  14.987
62279W        W33950   8.680  18.119   0.465
62280W        W33951  20.462  40.284   2.332
62281W        W33952   2.937   0.744  12.323
62282W        W33953  28.091   3.727   3.632
62283W        W33954   7.308  39.683  12.813
62284W        W33955  39.004  35.272  13.137
62285W        W33956  19.713  25.096  14.030
62286W        W33957  36.100  11.350  12.489
62287W        W33958   0.319  36.432  10.691
62288W        W33959  21.730  33.059   1.198
62289W        W33960   7.404  25.203   2.296
62290W        W33961  42.785  28.652   0.319
62291W        W33962  33.782  40.145  12.470
62292W        W33963  19.648   0.837  11.116
62293W        W33964  42.288  15.052  12.906
62294W        W33965  32.169  13.002   0.784
62295W        W33966  25.577  38.855   2.860
62296W        W33967  12.394   8.226  12.999
62297W        W33968  32.438  11.327   1.946
62298W        W33969  32.596  34.593   4.170
62299W        W33970   2.822   6.958  10.709
62300W        W33971  19.031   9.777  11.462
62301W        W33972  32.425  35.701  11.155
62302W        W33973  12.896   0.127   0.530
62303W        W33974  25.425  23.259   3.239
62304W        W33975  43.925  17.147   3.547
62305W        W33976  43.974  26.142  10.255
62306W        W33977  37.552   9.389  11.508
62307W        W33978  12.644   3.815   1.454
62308W        W33979  12.159  32.619   2.318
62309W        W33980  39.457  26.848   1.819
62310W        W33981  26.479  38.627  13.565
62311W        W33982  13.593  43.410  14.386
62312W        W33983  32.433  42.014  13.333
62313W        W33984   6.639  29.827   0.212
62314W        W33985  44.310  22.004   1.894
62315W        W33986   8.115  44.715  13.327
62316W        W33987  40.342  37.792  13.460
62317W        W33988  43.305  34.839   4.296
62318W        W33989  40.235  39.391  14.013
62319W        W33990   5.776  21.396  12.599
62320W        W33991   0.773  42.431   0.828
62321W        W33992  27.874  14.671  12.921
62322W        W33993  41.928  23.650  13.341
62323W        W33994  21.808  23.082   0.938
62324W        W33995  19.705  39.777  11.233
62325W        W33996  40.477  25.222  10.338
62326W        W33997  42.331  39.071   1.850
62327W        W33998  24.354  37.424   2.777
62328W        W33999  39.052   8.002   4.057
62329W        W34000  31.401   0.321  13.778
62330W        W34001  12.836   8.009   3.917
62331W        W34002  32.937   5.854   2.271
62332W        W34003  29.207  13.147  13.974
62333W        W34004  34.071  33.130  11.900
62334W        W34005  13.070  10.289   4.210
62335W        W34006  24.636  21.559   1.330
62336W        W34007  19.075  34.446  13.989
62337W        W34008  34.631  42.507   4.507
62338W        W34009  20.842  19.121  13.862
62339W        W34010  43.108  29.588   1.948
62340W        W34011  29.950   2.680  14.932
62341W        W34012   0.385  31.463   1.217
62342W        W34013  26.043  24.269  14.471
62343W        W34014  35.408  20.815  13.170
62344W        W34015  23.277  34.033  12.818
62345W        W34016  42.068  19.832   0.349
62346W        W34017  28.975   2.296  13.067
62347W        W34018  10.662  37.115  13.419
62348W        W34019  40.063  23.469   1.975
62349W        W34020  24.689   3.740   0.856
62350W        W34021  21.731  21.248   1.899
62351W        W34022  29.400  24.179   3.212
62352W        W34023  12.446  43.947   3.155
62353W        W34024  43.587  24.339   0.163
62354W        W34025  20.638  44.747  13.517
62355W        W34026  31.637  44.676   1.987
62356W        W34027  42.988   6.931   4.759
62357W        W34028   6.473   3.156  14.543
62358W        W34029  25.498   3.141   3.792
62359W        W34030   9.874  12.720   2.920
62360W        W34031  12.287  33.810   2.733
62361W        W34032  23.556  38.558   5.465
62362W        W34033   0.960   6.348  10.348
62363W        W34034  17.191  23.725   2.366
62364W        W34035  16.538  27.535   0.887
62365W        W34036  10.386   9.803  10.769
62366W        W34037   4.325  18.858  12.809
62367W        W34038  14.339  32.906   4.206
62368W        W34039  42.025  39.635  13.655
62369W        W34040  21.780  28.949  12.132
62370W        W34041  26.590  21.737   4.508
62371W        W34042  37.645  27.452  14.401
62372W        W34043  21.046   1.990  14.284
62373W        W34044  17.548  34.218  11.738
62374W        W34045  26.352   6.488   0.114
62375W        W34046   0.768  30.537  13.828
62376W        W34047  17.743  43.580  11.199
62377W        W34048   1.473  43.341  14.558
62378W        W34049  39.366   9.631  11.190
62379W        W34050  34.898  13.361  11.474
62380W        W34051  43.083  20.780   3.579
62381W        W34052  33.038   4.420   3.588
62382W        W34053  16.600  15.584  12.443
62383W        W34054   8.615  32.661  12.847
62384W        W34055  34.855  38.624   1.407
62385W        W34056  31.331  40.550   0.893
62386W        W34057   8.325  29.975  12.014
62387W        W34058   3.466  31.663  12.903
62388W        W34059  10.448   2.429   0.835
62389W        W34060  29.620  44.795   4.848
62390W        W34061  43.421  15.648   0.410
62391W        W34062  21.722   2.831  12.537
62392W        W34063  38.859  34.943  10.580
62393W        W34064  13.081  13.187  12.007
62394W        W34065   5.741   6.177   0.873
62395W        W34066  22.597   4.256  10.987
62396W        W34067  17.229  14.220  13.902
62397W        W34068  22.299  37.331   1.402
62398W        W34069  37.307  25.116  14.629
62399W        W34070  12.232  26.067  14.463
62400W        W34071  33.306  13.841  10.429
62401W        W34072  34.983  18.590   4.564
62402W        W34073  43.751  25.668   0.510
62403W        W34074  11.785  26.737   3.347
62404W        W34075   9.213  33.445  14.325
62405W        W34076  31.537  16.600  11.776
62406W        W34077   0.050   4.909  11.049
62407W        W34078  43.363   4.621  12.715
62408W        W34079  37.967  11.637  14.688
62409W        W34080  40.790   4.237   0.705
62410W        W34081   3.782  43.280  11.640
62411W        W34082   8.013  18.809  11.182
62412W        W34083   8.179  44.950   2.161
62413W        W34084  42.270  14.073  11.978
62414W        W34085  19.830  24.131   2.354
62415W        W34086  36.524  11.530   0.533
62416W        W34087   4.374  30.919   1.679
62417W        W34088  23.509   9.889  13.766
62418W        W34089  36.329  43.314  10.719
62419W        W34090  43.561  24.692  11.538
62420W        W34091  19.813  28.634  14.005
62421W        W34092  28.722   0.495  12.548
62422W        W34093  16.322  23.522  10.807
62423W        W34094   6.811   7.095   3.898
62424W        W34095   3.927   2.840   3.268
62425W        W34096  39.930  13.138  12.614
62426W        W34097  43.485  26.551  10.729
62427W        W34098  17.334  30.699  14.735
62428W        W34099  34.094  20.672  12.458
62429W        W34100  37.480  25.623  13.357
62430W        W34101   3.304  34.520  11.893
62431W        W34102   8.346  21.535   1.506
62432W        W34103  31.901  28.238   0.610
62433W        W34104  41.642   9.298  13.353
62434W        W34105   9.968  21.436   0.176
62435W        W34106   3.695  23.181   1.780
62436W        W34107  40.825   2.735   2.703
62437W        W34108  17.759  20.450   2.345
62438W        W34109   8.866  21.774   3.237
62439W        W34110  14.050  13.914  12.615
62440W        W34111  39.740  12.044   2.205
62441W        W34112  29.710  43.232   2.279
62442W        W34113  32.080  33.401  12.636
62443W        W34114  19.013  24.509  11.189
62444W        W34115  32.874  42.846   0.509
62445W        W34116  42.604  13.296  11.569
62446W        W34117  37.026   2.735   2.112
62447W        W34118  42.180   5.800   3.613
62448W        W34119  11.188   9.391  11.985
62449W        W34120   1.000   4.142  14.360
62450W        W34121   9.609  15.226  14.905
62451W        W34122  31.199  26.656   3.741
62452W        W34123  16.069  23.773  14.096
62453W        W34124  33.977  36.748   2.707
62454W        W34125  43.841   6.492  14.876
62455W        W34126  30.878  32.904  10.478
62456W        W34127   4.042   6.261  10.630
62457W        W34128  29.497  31.826  13.104
62458W        W34129   2.355  27.136  12.696
62459W        W34130   0.429  39.877   1.839
62460W        W34131  32.911  23.943   3.878
62461W        W34132  26.967   0.259   2.497
62462W        W34133  37.898  36.494  12.613
62463W        W34134  39.925  29.771   1.260
62464W        W34135  16.705  36.067   4.603
62465W        W34136  35.499  30.566  12.620
62466W        W34137  11.415   1.182   4.061
62467W        W34138   2.434  41.611   2.937
62468W        W34139   5.662  16.549  12.599
62469W        W34140  43.327  10.201   4.034
62470W        W34141  17.699  18.697  12.671
62471W        W34142   3.540  28.668   1.873
62472W        W34143  41.839  41.757   2.263
62473W        W34144   7.714  42.984  11.172
62474W        W34145  42.439  20.076  11.403
62475W        W34146   5.903  23.673   1.079
62476W        W34147  18.357  24.494   1.761
62477W        W34148  41.185  41.734   4.621
62478W        W34149   1.297  23.104   4.090
62479W        W34150   4.841   6.384  11.692
62480W        W34151  22.200   8.179   0.039
62481W        W34152  43.916   5.517   1.441
62482W        W34153  11.106  11.572   3.623
62483W        W34154  36.462   7.928   1.047
62484W        W34155  44.420  33.964  11.770
62485W        W34156  33.447  13.875  13.581
62486W        W34157  24.185  18.105  12.556
62487W        W34158  27.365  31.444  14.561
62488W        W34159   4.886  16.250   4.149
62489W        W34160  25.211   4.393  13.759
62490W        W34161  15.616  39.888  12.046
62491W        W34162  23.271  25.209   0.492
62492W        W34163  41.242  11.693   4.679
62493W        W34164  22.947   7.499  11.924
62494W        W34165  13.745   2.781  12.120
62495W        W34166  26.047  18.026  11.510
62496W        W34167  29.853  19.740   3.187
62497W        W34168  26.967  42.036   0.247
62498W        W34169  11.163  38.039  13.959
62499W        W34170   1.793  37.823  12.993
62500W        W34171  34.212  20.061  11.531
62501W        W34172  22.089   8.422  13.100
62502W        W34173   4.751  25.102  14.684
62503W        W34174   8.255   0.546   4.032
62504W        W34175   6.970   8.246   1.935
62505W        W34176  18.142  29.972   4.712
62506W        W34177   1.806  32.479  14.744
62507W        W34178  33.872   0.754  14.062
62508W        W34179   4.199  12.933  11.761
62509W        W34180  41.404   4.960  13.489
62510W        W34181  25.142  34.891  10.713
62511W        W34182   7.310   9.556  14.924
62512W        W34183  26.640  29.585   2.618
62513W        W34184  25.577   8.442   3.604
62514W        W34185  34.527  22.904  13.826
62515W        W34186  20.284   6.174  14.607
62516W        W34187  43.811  19.011  13.469
62517W        W34188  44.937  17.235   4.694
62518W        W34189  43.520  23.525  11.606
62519W        W34190   7.084   9.636  11.585
62520W        W34191  36.387  18.519  11.690
62521W        W34192  26.515  35.589  10.763
62522W        W34193   7.850  21.485  14.450
62523W        W34194  22.264  23.475  13.921
62524W        W34195  39.528   8.814   0.488
62525W        W34196  21.379  27.090   5.024
62526W        W34197  37.715  28.858  10.700
62527W        W34198  33.117   8.760  10.752
62528W        W34199  40.895  30.335  11.659
62529W        W34200  24.713   8.367   0.878
62530W        W34201  21.519  14.206  12.627
62531W        W34202  24.098  30.334  11.727
62532W        W34203  44.275  28.147   0.041
62533W        W34204  29.560  22.125   1.541
62534W        W34205  34.147  32.979   1.390
62535W        W34206  15.716   8.197   4.514
62536W        W34207  38.592  26.033  13.810
62537W        W34208  29.119  41.365   0.484
62538W        W34209   6.435   2.066   0.457
62539W        W34210  23.975  29.569  14.958
62540W        W34211   1.755  44.529   1.528
62541W        W34212   7.204  39.515  11.948
62542W        W34213  32.954  28.255  14.951
62543W        W34214   3.415  31.534   0.315
62544W        W34215  18.864  10.332   2.414
62545W        W34216  20.709  15.032  11.982
62546W        W34217  29.555  13.237  14.363
62547W        W34218   8.747   0.342  13.305
62548W        W34219  40.699   8.710  12.881
62549W        W34220   4.279  18.498   2.269
62550W        W34221  30.857   3.241   4.651
62551W        W34222  42.834  19.485   1.568
62552W        W34223  34.802  32.014  10.386
62553W        W34224   1.015  10.813  12.492
62554W        W34225  33.072  36.574   0.457
62555W        W34226  15.509  33.507   4.620
62556W        W34227  11.409  29.550  10.718
62557W        W34228  17.792  35.863   0.969
62558W        W34229  23.701  13.604  12.398
62559W        W34230  33.972  26.895   2.744
62560W        W34231  31.872   6.729  10.588
62561W        W34232   3.626  41.879   0.812
62562W        W34233   7.851  37.522  13.921
62563W        W34234  28.032  17.358   1.327
62564W        W34235   3.410  17.063  12.583
62565W        W34236  26.427  32.177  14.803
62566W        W34237  26.646  37.649  11.471
62567W        W34238   9.879   3.390   1.303
62568W        W34239  41.332   9.413  14.805
62569W        W34240   7.139  30.193   3.280
62570W        W34241  36.160   8.327  12.484
62571W        W34242  44.229  19.697  14.094
62572W        W34243   6.994  20.650   3.875
62573W        W34244  17.785  39.909  13.039
62574W        W34245  42.995  14.120  14.086
62575W        W34246  22.906  31.604  11.561
62576W        W34247  18.262   5.792  10.936
62577W        W34248  42.878   6.580  12.932
62578W        W34249  42.462  20.250   2.118
62579W        W34250  41.259  10.590  12.929
62580W        W34251  32.231  26.896  11.911
62581W        W34252   8.286  36.741   0.368
62582W        W34253  27.918  27.776   2.436
62583W        W34254  29.748  39.818   4.219
62584W        W34255  42.398  29.116  13.288
62585W        W34256  36.488  32.091  10.560
62586W        W34257  23.080   1.107  11.106
62587W        W34258  41.856  39.211   2.519
62588W        W34259  37.551  25.698  13.865
62589W        W34260  21.049  20.525   2.183
62590W        W34261  27.697   7.935  12.460
62591W        W34262   7.832  32.447   4.552
62592W        W34263   9.632   5.636   4.170
62593W        W34264  21.184  38.611   2.353
62594W        W34265  12.206  25.615   1.125
62595W        W34266  16.083  39.293   1.258
62596W        W34267  26.984  13.421   2.743
62597W        W34268  15.197   9.374  12.249
62598W        W34269   7.950  17.990  14.336
62599W        W34270  15.789  20.523   0.565
62600W        W34271  32.793  27.576  11.557
62601W        W34272  13.357  24.008   0.241
62602W        W34273  25.078  12.335   1.292
62603W        W34274  32.980  13.056   4.303
62604W        W34275   0.851  41.831  12.029
62605W        W34276  38.495  24.239   0.815
62606W        W34277  40.732  19.086   0.964
62607W        W34278  35.549  25.212  12.560
62608W        W34279  40.763  31.882  10.663
62609W        W34280  28.974   6.695   3.722
62610W        W34281  16.001  11.716   1.916
62611W        W34282  18.338  25.062   5.390
62612W        W34283  18.204   1.655  10.458
62613W        W34284  27.134  17.752  14.885
62614W        W34285  24.041  35.935   4.010
62615W        W34286   1.363  28.095  12.030
62616W        W34287  18.702  28.418  12.363
62617W        W34288   8.507  33.165  11.150
62618W        W34289  23.066  10.305  11.585
62619W        W34290  44.445   8.223  10.616
62620W        W34291  31.100   9.129   0.857
62621W        W34292  26.656   2.749   4.555
62622W        W34293  24.725  40.110   2.736
62623W        W34294   7.428  35.543   3.415
62624W        W34295   6.412  12.874   2.846
62625W        W34296  43.803  32.492   4.841
62626W        W34297  33.784  26.765  14.458
62627W        W34298  14.905  38.817  11.817
62628W        W34299  40.631   4.615   9.744
62629W        W34300  20.055  37.932   2.776
62630W        W34301  41.788  26.871  14.546
62631W        W34302   0.790  19.558  14.767
62632W        W34303  44.101  40.458  11.052
62633W        W34304   4.686  16.221   0.296
62634W        W34305  31.167  24.517   0.545
62635W        W34306  30.625  36.400  11.472
62636W        W34307  21.223  40.055  13.914
62637W        W34308  38.886  10.221  12.604
62638W        W34309   4.775  41.515  14.968
62639W        W34310  12.291  30.521  11.133
62640W        W34311  37.584  34.134  11.989
62641W        W34312  37.898  37.874   5.549
62642W        W34313  44.363  12.635   4.071
62643W        W34314  37.568  27.943  12.931
62644W        W34315   7.918   1.426  14.523
62645W        W34316   3.891  40.337  12.058
62646W        W34317  15.572  23.582  10.392
62647W        W34318  41.027  44.992  13.459
62648W        W34319   9.282   9.633   1.514
62649W        W34320  41.363  29.736   2.255
62650W        W34321  30.720  39.942  13.486
62651W        W34322  32.440  35.162  11.047
62652W        W34323   7.576  36.385  10.789
62653W        W34324  32.052  33.481  13.646
62654W        W34325  30.918  36.055  13.919
62655W        W34326  22.612  41.056   5.507
62656W        W34327   4.701  36.952  14.439
62657W        W34328  35.535  26.191  14.510
62658W        W34329   1.930  31.611   0.595
62659W        W34330  25.161   3.933   2.622
62660W        W34331   5.675  14.930  11.229
62661W        W34332  33.706  39.377  14.349
62662W        W34333  19.567  32.067  12.004
62663W        W34334  44.904  24.931  10.687
62664W        W34335  31.967  43.520  10.659
62665W        W34336  10.339  25.192   4.368
62666W        W34337  18.127  34.439   0.043
62667W        W34338  34.954   0.471  11.184
62668W        W34339  41.841  16.786  14.293
62669W        W34340  23.458  38.299  12.466
62670W        W34341  40.355  24.213   0.678
62671W        W34342   0.850  29.124   4.945
62672W        W34343  19.258  35.704   0.086
62673W        W34344  10.854  42.018  10.822
62674W        W34345  14.819  32.357  11.536
62675W        W34346  33.294  24.525   3.336
62676W        W34347  24.207  19.911   2.044
62677W        W34348  37.081  40.879  12.184
62678W        W34349  39.135  27.527  11.403
62679W        W34350  27.663   1.051   3.892
62680W        W34351  22.071  18.191   0.358
62681W        W34352   7.208   9.635  14.033
62682W        W34353   7.821   3.038   0.804
62683W        W34354  37.490  27.634  13.914
62684W        W34355  37.284   2.975  13.247
62685W        W34356   6.186  26.046   4.899
62686W        W34357  31.956  10.367   3.586
62687W        W34358   2.515  18.306  11.216
62688W        W34359  16.336  24.583  11.469
62689W        W34360  34.393  10.384   4.501
62690W        W34361  30.717  38.842   4.253
62691W        W34362  36.335  28.574  10.806
62692W        W34363  40.877  29.135  11.765
62693W        W34364  11.358  11.336  14.001
62694W        W34365  44.534   8.260  14.998
62695W        W34366   1.721  19.990   0.765
62696W        W34367   8.686  22.059   4.222
62697W        W34368   8.136  44.406  14.060
62698W        W34369  29.165  23.650  10.736
62699W        W34370   7.636  22.263  12.329
62700W        W34371  30.696  31.554   4.571
62701W        W34372  37.513  36.472   2.212
62702W        W34373   6.950  44.298  13.435
62703W        W34374  26.915  28.495  10.851
62704W        W34375  41.290  30.369   3.072
62705W        W34376  29.852  11.203   2.267
62706W        W34377  19.737  32.016  13.126
62707W        W34378   4.699  41.274   4.995
62708W        W34379  37.957  30.686  12.899
62709W        W34380  39.982  27.540   1.716
62710W        W34381   3.837   0.180  11.073
62711W        W34382   2.715  27.516  10.993
62712W        W34383   1.820  39.548  12.601
62713W        W34384  21.151  33.311  15.000
62714W        W34385   1.456  17.701   4.286
62715W        W34386   6.678   7.632  13.199
62716W        W34387  36.614  18.652  10.765
62717W        W34388   3.204  27.118  12.325
62718W        W34389  17.294   7.193  10.405
62719W        W34390  42.779  44.951   3.969
62720W        W34391  27.955  23.297  13.239
62721W        W34392  15.323   2.168   2.343
62722W        W34393  25.078  32.970  12.165
62723W        W34394   7.820  15.274  11.461
62724W        W34395  21.708  15.573   4.626
62725W        W34396  10.938  21.098  14.012
62726W        W34397  42.845  15.805   1.537
62727W        W34398  18.730  36.362  10.708
62728W        W34399  43.730  19.939   1.469
62729W        W34400   3.277  33.953  14.764
62730W        W34401   8.601  13.563  13.536
62731W        W34402   6.225  30.004   0.457
62732W        W34403   0.362  35.655   3.307
62733W        W34404   8.350   6.520  11.681
62734W        W34405  10.309   0.445  14.446
62735W        W34406   0.559  41.345   0.268
62736W        W34407  30.287   3.333   1.036
62737W        W34408  14.685  39.789  11.851
62738W        W34409  21.402  34.160   2.648
62739W        W34410  32.641   6.412  10.746
62740W        W34411  30.684  40.712  11.906
62741W        W34412  31.281  23.114  13.620
62742W        W34413   6.226  24.958  11.166
62743W        W34414  35.396  21.732  12.867
62744W        W34415   1.863  38.336  13.446
62745W        W34416  27.766  39.148   2.357
62746W        W34417  12.244  44.089  14.992
62747W        W34418   9.679  22.975   3.738
62748W        W34419  27.584  12.075   2.570
62749W        W34420  22.395  22.764  14.736
62750W        W34421   5.304  12.290  13.404
62751W        W34422  37.349  14.702  11.111
62752W        W34423  40.389   0.076  14.667
62753W        W34424  14.198  42.418  11.200
62754W        W34425  23.262  26.543   0.714
62755W        W34426   7.142  38.892   0.387
62756W        W34427  37.539  18.096  14.520
62757W        W34428  16.364  44.689  10.720
62758W        W34429  24.765  28.271  12.366
62759W        W34430  29.241  41.517   1.326
62760W        W34431  32.087  21.509  11.951
62761W        W34432  31.950  30.513   0.732
62762W        W34433  37.906  35.642  12.169
62763W        W34434  28.976  26.594   0.517
62764W        W34435  30.330  18.060   4.181
62765W        W34436  24.687  42.293   3.492
62766W        W34437  23.558   0.706  13.359
62767W        W34438  26.633  23.618   2.808
62768W        W34439  34.631   7.988  13.077
62769W        W34440  41.287  22.078   5.075
62770W        W34441  12.012  13.716  12.924
62771W        W34442  43.733  12.705  10.610
62772W        W34443  44.499  23.792  10.232
62773W        W34444  21.541  39.276  11.984
62774W        W34445  42.096  17.940  14.363
62775W        W34446  24.020  43.042   0.913
62776W        W34447  22.774  18.575   0.227
62777W        W34448  40.579  18.739  13.859
62778W        W34449  20.852  22.644   0.319
62779W        W34450   7.432  36.853   3.751
62780W        W34451   6.324   5.785  12.480
62781W        W34452  14.910  30.465   4.177
62782W        W34453  20.190  19.231  14.335
62783W        W34454  20.021  39.481   4.371
62784W        W34455   2.756  37.037   2.674
62785W        W34456   9.033  29.309  11.167
62786W        W34457  41.486  40.491   1.418
62787W        W34458   2.673   8.725   1.408
62788W        W34459  23.190  13.551   1.505
62789W        W34460  20.465   6.724  12.362
62790W        W34461  22.613  12.321   0.334
62791W        W34462  27.925  21.756   2.175
62792W        W34463  26.738   7.578   4.281
62793W        W34464  21.343   7.175   4.733
62794W        W34465  34.695   1.689  14.495
62795W        W34466  16.230  28.614  11.727
62796W        W34467  26.513  16.004   2.179
62797W        W34468  41.429  28.199  14.272
62798W        W34469  30.487  25.152   3.935
62799W        W34470  22.688  33.150   4.221
62800W        W34471   9.594  32.666  12.395
62801W        W34472  20.635  29.341   0.855
62802W        W34473  21.915   1.727  11.545
62803W        W34474  23.159   9.357  14.398
62804W        W34475  10.335   9.433  14.363
62805W        W34476  29.734  14.694   4.575
62806W        W34477  43.268   9.686   2.291
62807W        W34478   1.863   0.318  11.185
62808W        W34479  36.351  21.743  12.037
62809W        W34480  44.041  28.546   0.291
62810W        W34481  34.338   0.339   0.846
62811W        W34482  10.897  32.208   2.379
62812W        W34483  31.110  36.561   3.806
62813W        W34484   5.210   4.892   0.896
62814W        W34485  14.193   3.489   3.158
62815W        W34486  41.256  37.054   2.646
62816W        W34487   4.610   4.264   2.745
62817W        W34488  39.707  12.301  12.149
62818W        W34489   9.762  23.256  12.788
62819W        W34490  20.074  19.667  13.908
62820W        W34491  31.742  24.716  13.517
62821W        W34492  20.317  20.041  12.084
62822W        W34493  40.870   0.804   4.604
62823W        W34494  13.090  43.569   0.766
62824W        W34495   4.875  44.081   0.345
62825W        W34496  26.562  38.371   3.579
62826W        W34497  43.777  26.256  13.915
62827W        W34498  19.582  28.895  12.491
62828W        W34499  30.901   3.538  12.431
62829W        W34500   0.458  26.246  12.860
62830W        W34501  25.495   2.735  14.711
62831W        W34502  30.648  23.608  11.004
62832W        W34503   3.409   5.372  12.437
62833W        W34504  16.537   3.804  14.543
62834W        W34505  11.187  33.343   4.595
62835W        W34506  16.071  33.633  12.586
62836W        W34507  31.440   5.336  13.674
62837W        W34508  13.345  37.536  14.852
62838W        W34509   6.445  17.240   0.950
62839W        W34510  16.169  32.833   1.495
62840W        W34511  29.106  11.309   0.495
62841W        W34512   3.888  19.711   3.292
62842W        W34513  18.097   7.512  13.325
62843W        W34514   6.377   6.851   3.746
62844W        W34515  21.241  44.963  12.936
62845W        W34516  40.407  20.762   0.883
62846W        W34517  42.036  18.820  11.542
62847W        W34518  28.202  11.055  11.883
62848W        W34519  11.643  22.736  11.529
62849W        W34520  34.948  23.253   2.198
62850W        W34521  41.932  10.633  13.462
62851W        W34522  34.936   7.336  14.916
62852W        W34523  27.036  44.840   3.668
62853W        W34524  42.377  11.900   2.338
62854W        W34525  17.952  17.585   3.408
62855W        W34526  26.697  17.943   2.642
62856W        W34527  12.384  27.204  11.072
62857W        W34528  18.527  44.416   0.426
62858W        W34529  31.912  42.875   3.630
62859W        W34530  37.522  40.450  14.004
62860W        W34531   3.377  17.528  10.587
62861W        W34532  20.516   8.171  13.932
62862W        W34533  34.370  16.372   0.218
62863W        W34534  16.561  13.319  13.870
62864W        W34535  31.940   4.730   2.859
62865W        W34536  40.032  26.607   2.242
62866W        W34537  23.875   7.900   0.323
62867W        W34538   7.484   4.826   2.881
62868W        W34539  33.622  30.365  11.208
62869W        W34540  26.463  23.930   1.419
62870W        W34541  15.554   4.800  11.128
62871W        W34542  27.431  26.755   2.315
62872W        W34543  30.586  21.667   3.067
62873W        W34544  30.263   3.241   4.107
62874W        W34545  44.549   0.952   3.748
62875W        W34546   7.834  25.485   2.437
62876W        W34547  16.564  29.697  12.612
62877W        W34548  39.994  13.706   0.496
62878W        W34549   4.663  35.990   4.599
62879W        W34550  41.698  37.215   2.312
62880W        W34551  42.419  29.720  14.403
62881W        W34552  14.199   6.697   1.012
62882W        W34553  43.840   5.448   2.390
62883W        W34554  38.944  15.724   1.197
62884W        W34555  43.856   7.360  12.891
62885W        W34556  30.433  37.125  14.860
62886W        W34557  23.770  23.789   2.858
62887W        W34558   8.583  39.057   4.786
62888W        W34559   0.908   3.528   0.879
62889W        W34560  42.427   8.258  14.043
62890W        W34561  30.911   7.693  12.492
62891W        W34562  44.658  31.518   2.181
62892W        W34563   1.993  30.598   2.290
62893W        W34564  29.476  30.076  10.074
62894W        W34565  28.008  25.571   2.799
62895W        W34566   8.453  21.087   2.839
62896W        W34567  16.255  33.413  10.644
62897W        W34568  33.875  14.187  13.590
62898W        W34569  40.308  35.358  14.252
62899W        W34570  43.920  41.885  12.041
62900W        W34571  32.582  43.024  13.839
62901W        W34572   1.899  40.948  13.791
62902W        W34573   0.505  34.503  11.113
62903W        W34574  29.828  37.092  11.957
62904W        W34575  21.786  26.114  11.511
62905W        W34576   8.650   4.157   3.110
62906W        W34577  22.917  25.803  12.477
62907W        W34578  24.505  43.753  11.567
62908W        W34579  33.518   4.261   2.042
62909W        W34580  32.592  10.621  13.532
62910W        W34581   0.252  34.034  11.068
62911W        W34582  14.388  14.341  11.040
62912W        W34583  37.627  11.326  11.991
62913W        W34584  35.641  25.040   3.220
62914W        W34585   5.190  18.314   4.732
62915W        W34586  30.168  11.338  10.998
62916W        W34587   0.506  42.118  13.808
62917W        W34588  24.115  18.514  14.328
62918W        W34589  23.299  34.587   4.175
62919W        W34590   6.882  34.999   4.751
62920W        W34591   3.027  19.697   5.120
62921W        W34592  29.491  22.643   1.431
62922W        W34593  33.938   1.496   0.425
62923W        W34594   0.892   1.306  13.361
62924W        W34595  22.800   9.911   1.839
62925W        W34596  40.866   0.372   2.812
62926W        W34597  33.331  10.788   1.378
62927W        W34598   3.152  22.990   4.735
62928W        W34599   9.433  11.263   4.546
62929W        W34600  33.053  39.563   3.160
62930W        W34601  42.240  23.728   3.714
62931W        W34602  30.328  15.569  12.455
62932W        W34603  25.893  36.909  13.991
62933W        W34604   3.888   1.513  11.637
62934W        W34605  41.946  42.706   3.682
62935W        W34606  26.518  36.826   0.796
62936W        W34607  12.709  43.512  12.623
62937W        W34608  31.239   1.890  11.090
62938W        W34609  19.427  33.042  11.606
62939W        W34610  29.424  20.962   5.040
62940W        W34611  43.960  15.604   0.289
62941W        W34612  24.138  34.698  11.100
62942W        W34613   7.208  14.827  11.308
62943W        W34614  29.222  10.245  11.573
62944W        W34615  10.317  19.697   4.299
62945W        W34616  23.469   6.329  10.741
62946W        W34617  44.560   4.916  11.128
62947W        W34618  37.560  11.632   3.281
62948W        W34619  36.681  24.896  10.448
62949W        W34620  14.547  15.295  10.556
62950W        W34621  36.499   1.273   2.843
62951W        W34622  13.123  27.263  11.440
62952W        W34623  22.673   4.906   2.129
62953W        W34624  31.819  36.960  12.051
62954W        W34625  38.357  15.138   0.782
62955W        W34626  14.288  27.139   1.634
62956W        W34627  16.938  39.179   1.299
62957W        W34628   4.801  11.213   4.234
62958W        W34629  25.056   9.157   3.806
62959W        W34630  24.554  21.296  12.844
62960W        W34631  20.056  43.731   3.348
62961W        W34632  42.471  28.207   0.431
62962W        W34633   4.169   0.811   2.865
62963W        W34634   7.701  26.791   2.805
62964W        W34635   9.927  18.638  13.871
62965W        W34636  42.094  23.651   0.785
62966W        W34637  43.213  15.564  13.465
62967W        W34638  31.557  40.444   4.891
62968W        W34639   5.160  10.314   1.251
62969W        W34640  12.238  44.936  14.415
62970W        W34641   9.631  30.616   2.525
62971W        W34642  38.767  19.993   0.530
62972W        W34643   0.296  26.425  11.121
62973W        W34644  30.348  29.060   0.913
62974W        W34645  28.519  37.936   0.350
62975W        W34646   5.404  36.465  12.441
62976W        W34647  38.038  15.082  12.557
62977W        W34648  30.123  26.289   2.206
62978W        W34649  11.273  16.516  12.777
62979W        W34650  15.597  19.518   0.347
62980W        W34651  35.629   4.914   2.748
62981W        W34652  16.572  35.397  14.452
62982W        W34653  40.959   1.984   1.078
62983W        W34654  21.417   6.264   4.740
62984W        W34655  23.455  34.926   4.848
62985W        W34656   9.622  39.626  12.345
62986W        W34657   7.292  15.024   1.697
62987W        W34658   2.089  22.459  11.434
62988W        W34659   5.787  41.136   2.704
62989W        W34660   1.875  39.340  14.427
62990W        W34661  40.096  34.295   4.505
62991W        W34662  39.889  10.337  10.674
62992W        W34663  33.282  27.233  14.854
62993W        W34664  34.419  21.551   0.768
62994W        W34665   0.980  28.091  13.979
62995W        W34666   9.819  23.030  12.345
62996W        W34667  11.394   5.460   2.722
62997W        W34668  24.407  33.861   3.863
62998W        W34669  30.665  31.187  13.327
62999W        W34670   8.385  31.502  11.947
63000W        W34671  35.580   6.400   2.082
63001W        W34672  21.097   3.917  11.672
63002W        W34673   5.786   0.009  12.448
63003W        W34674  16.052  35.700   1.152
63004W        W34675  10.927  25.691   0.848
63005W        W34676  11.246  29.349  12.407
63006W        W34677  17.790   8.777   4.768
63007W        W34678  30.484  19.817   2.566
63008W        W34679  25.279  18.648   0.585
63009W        W34680  22.724  42.211  13.097
63010W        W34681  10.808  35.385   3.867
63011W        W34682  28.864  30.105  11.369
63012W        W34683  26.200   9.127  13.337
63013W        W34684  11.784  40.870   1.687
63014W        W34685  15.559  15.795   2.947
63015W        W34686  29.090  38.592   2.412
63016W        W34687  12.390  35.125   0.333
63017W        W34688  36.455  10.385   3.216
63018W        W34689  36.169   8.677  14.292
63019W        W34690   6.426  13.131  11.743
63020W        W34691  14.495  43.019  10.735
63021W        W34692  42.027  42.996   2.312
63022W        W34693  15.951  30.654   3.947
63023W        W34694  23.563  20.585   4.274
63024W        W34695  26.926  26.784  11.011
63025W        W34696  35.181  37.894  14.980
63026W        W34697  30.041  43.765   3.048
63027W        W34698  22.563  32.589   1.622
63028W        W34699  28.551  20.269  10.674
63029W        W34700  26.494  17.541   2.337
63030W        W34701  36.039  14.445   0.521
63031W        W34702  32.012  13.207  12.113
63032W        W34703  39.667  13.972  11.559
63033W        W34704  27.988  12.305   2.842
63034W        W34705  23.743  44.087  14.353
63035W        W34706  11.975  11.101  11.988
63036W        W34707   4.238  37.411  13.631
63037W        W34708  12.844  40.330  14.452
63038W        W34709  39.334  23.657  12.987
63039W        W34710   3.211  16.378  14.018
63040W        W34711  23.727   2.749  10.642
63041W        W34712  39.436  35.656  14.212
63042W        W34713  26.216  16.800  11.145
63043W        W34714   9.096  28.752   0.456
63044W        W34715   8.243  35.967   2.179
63045W        W34716  13.174  30.999  14.352
63046W        W34717  20.330   3.813  11.006
63047W        W34718  35.611  25.373  13.466
63048W        W34719   3.481  38.775   1.419
63049W        W34720   5.097  41.810   0.732
63050W        W34721   4.687  34.632  11.125
63051W        W34722   9.073  37.486  10.210
63052W        W34723  26.721  22.886   2.914
63053W        W34724  12.942  37.952   1.181
63054W        W34725  40.851   1.600  11.693
63055W        W34726  37.511   6.316   3.680
63056W        W34727  22.747  36.119  14.273
63057W        W34728  19.732  11.691  10.872
63058W        W34729  41.141  22.665   0.299
63059W        W34730  20.843  39.608   1.110
63060W        W34731   2.627  21.556   0.864
63061W        W34732  42.065  16.877   3.707
63062W        W34733  19.772   0.290   0.253
63063W        W34734  19.169  28.883  12.089
63064W        W34735  12.763   8.363   0.763
63065W        W34736  32.020  22.627  10.582
63066W        W34737   1.718  22.178  13.300
63067W        W34738  14.856  15.592  14.944
63068W        W34739  41.429  40.711   0.465
63069W        W34740  26.047  31.841  14.045
63070W        W34741  39.532  26.490  14.905
63071W        W34742  20.210  32.606   2.244
63072W        W34743  40.244  18.600  10.485
63073W        W34744  40.075  13.898   0.965
63074W        W34745  38.500  33.521   3.504
63075W        W34746  35.090  39.071  10.602
63076W        W34747  40.355  17.816   2.306
63077W        W34748   1.310   5.623   4.212
63078W        W34749  25.248  26.461   3.828
63079W        W34750   8.826  36.842   3.290
63080W        W34751  18.013  21.089  14.803
63081W        W34752  36.477   2.233   3.248
63082W        W34753  38.488  32.961   2.620
63083W        W34754  23.729  17.778   2.229
63084W        W34755   4.270   0.570  14.897
63085W        W34756  26.576  29.411  10.645
63086W        W34757   2.725  22.997   1.468
63087W        W34758   7.625  40.568  13.343
63088W        W34759  26.628  41.768  11.164
63089W        W34760  22.087  19.998   2.249
63090W        W34761  38.099  17.158  13.999
63091W        W34762  15.721  43.503   1.731
63092W        W34763   7.707  34.483   0.221
63093W        W34764  15.797  21.778   4.496
63094W        W34765  13.096  39.119   5.080
63095W        W34766  20.770  39.096   2.763
63096W        W34767   8.687   8.933  10.686
63097W        W34768   3.393  32.485   2.230
63098W        W34769  38.361  19.003   3.768
63099W        W34770  44.669   0.366  12.972
63100W        W34771  15.828   2.282   3.555
63101W        W34772  16.299  37.005  10.961
63102W        W34773  40.482  36.988  14.522
63103W        W34774  23.034  18.810  14.821
63104W        W34775  39.528  27.516   0.950
63105W        W34776  17.178   2.439  11.141
63106W        W34777  38.228  30.914   0.699
63107W        W34778   1.246  10.881   4.601
63108W        W34779  35.605  18.042  11.455
63109W        W34780  20.125  15.376   1.867
63110W        W34781  39.806   6.115  11.937
63111W        W34782  32.094  44.039   2.368
63112W        W34783  15.757  19.754   4.555
63113W        W34784  20.192  36.475   0.090
63114W        W34785  18.588   3.879  10.947
63115W        W34786  44.560   3.790   3.725
63116W        W34787  33.678   4.632  11.107
63117W        W34788  30.352  43.949  13.523
63118W        W34789   3.007  19.090   3.129
63119W        W34790  31.918  21.983  12.027
63120W        W34791  23.114  42.561  12.340
63121W        W34792  22.516  26.122  12.024
63122W        W34793  16.683  35.368  11.868
63123W        W34794  14.813  28.915  14.939
63124W        W34795  19.460  36.988  14.884
63125W        W34796   8.672   1.277   2.388
63126W        W34797  23.011  13.358  13.078
63127W        W34798  12.698  22.225  12.535
63128W        W34799  32.385  42.630   3.615
63129W        W34800  17.290   1.131   3.118
63130W        W34801  29.296  19.661  11.479
63131W        W34802  21.716  26.245   0.928
63132W        W34803  31.255  24.512  11.222
63133W        W34804  35.895  31.874   2.462
63134W        W34805   1.042  33.678   1.271
63135W        W34806  34.619  17.326   0.502
63136W        W34807  10.655  27.401   0.245
63137W        W34808  31.950   1.980   0.404
63138W        W34809  29.347   9.414  14.347
63139W        W34810  43.042  21.022  10.692
63140W        W34811   1.028  24.658  12.360
63141W        W34812   4.151  44.057  11.598
63142W        W34813  27.779  44.589   4.451
63143W        W34814   1.012   3.515  14.017
63144W        W34815  17.650  15.300  10.434
63145W        W34816  29.235  39.472   1.857
63146W        W34817  36.888  34.167  11.206
63147W        W34818  31.155  16.276  13.947
63148W        W34819   1.885  44.484  13.560
63149W        W34820  11.655  26.671  13.200
63150W        W34821  21.717  43.204   2.338
63151W        W34822  34.845  29.093  14.376
63152W        W34823  40.945  11.140  11.563
63153W        W34824  43.685  29.162  11.030
63154W        W34825  11.560  44.850  12.368
63155W        W34826   3.010  27.097  13.722
63156W        W34827   5.755   3.390   4.853
63157W        W34828   3.218  30.135  12.934
63158W        W34829  32.440  30.115  12.836
63159W        W34830  33.923  41.057   1.305
63160W        W34831  33.575  29.728  13.597
63161W        W34832  10.821  25.776  14.105
63162W        W34833  38.523  31.909   4.598
63163W        W34834  34.788  44.298   0.127
63164W        W34835  30.151  32.053   0.282
63165W        W34836  34.804  36.507   0.280
63166W        W34837  37.043  18.693  12.525
63167W        W34838   6.263   3.629   0.428
63168W        W34839   2.997  33.401  11.253
63169W        W34840  36.382  39.546  14.633
63170W        W34841  40.753  18.684   0.242
63171W        W34842   9.771  19.498   1.842
63172W        W34843   0.617  30.919  10.193
63173W        W34844  41.520  13.403   3.265
63174W        W34845  42.575   7.808  10.672
63175W        W34846  17.032  24.162  10.190
63176W        W34847  13.356  25.094  10.326
63177W        W34848  40.924  27.235  11.651
63178W        W34849  36.091  11.644   0.766
63179W        W34850  32.577  30.665  14.894
63180W        W34851  27.561  33.450  13.526
63181W        W34852  16.976  18.151   2.689
63182W        W34853  11.809  17.569   3.832
63183W        W34854  36.621   7.270   1.882
63184W        W34855   6.648  16.859   2.834
63185W        W34856   7.440  36.160  13.045
63186W        W34857   7.945  36.197  14.880
63187W        W34858  20.375  38.034  13.013
63188W        W34859  43.859  34.592  11.156
63189W        W34860  36.798  28.983  11.599
63190W        W34861  21.094  22.528   3.681
63191W        W34862  28.057  39.612   4.477
63192W        W34863  19.840  22.042   1.434
63193W        W34864   6.729   1.610  13.554
63194W        W34865  29.254   5.009   1.713
63195W        W34866  26.483  20.666   3.284
63196W        W34867  34.072  32.875  11.457
63197W        W34868  18.263  20.648   2.218
63198W        W34869  22.858  10.184   1.411
63199W        W34870  43.628  19.620  12.135
63200W        W34871  33.395   7.726  12.559
63201W        W34872  41.565  44.172   1.339
63202W        W34873  11.909   3.312   0.904
63203W        W34874  31.417  10.813  11.410
63204W        W34875  31.041  27.368  13.021
63205W        W34876  16.478   6.262  10.672
63206W        W34877  38.681  12.941   2.865
63207W        W34878  32.479  23.013  12.859
63208W        W34879  44.340  17.513   4.625
63209W        W34880  43.201   1.530  13.837
63210W        W34881   8.894   1.099   0.709
63211W        W34882  29.193  30.529   0.267
63212W        W34883  13.732   7.903   2.359
63213W        W34884  37.335  11.260  11.055
63214W        W34885  12.414  13.760   0.383
63215W        W34886  44.337  42.629   4.865
63216W        W34887  39.855   8.327  13.856
63217W        W34888  26.994  20.656   3.163
63218W        W34889   3.514   7.382  14.723
63219W        W34890  35.962  42.658   0.880
63220W        W34891  10.112  17.013   1.426
63221W        W34892  15.624  13.607   0.311
63222W        W34893  10.404  25.449  12.909
63223W        W34894  36.634  19.082   3.896
63224W        W34895   1.760  24.293   0.781
63225W        W34896  43.248  40.345  14.307
63226W        W34897  42.563  12.655   3.782
63227W        W34898  19.969  40.001   3.725
63228W        W34899  41.046   7.332   1.006
63229W        W34900  12.232  40.532  10.888
63230W        W34901   4.424   4.792  13.827
63231W        W34902   8.652  15.382  14.883
63232W        W34903   4.979  43.983  11.213
63233W        W34904  12.025   2.188  10.086
63234W        W34905   6.237   3.336  11.985
63235W        W34906  10.418   5.553  10.513
63236W        W34907  22.249  26.362  14.532
63237W        W34908  36.894  37.433   5.332
63238W        W34909  31.107   8.651   2.880
63239W        W34910  12.470  36.514   3.359
63240W        W34911  16.785  35.381   3.797
63241W        W34912   6.829  33.419  10.460
63242W        W34913   9.402   5.733   2.349
63243W        W34914  19.670  22.003   4.219
63244W        W34915  42.884  17.685   3.593
63245W        W34916  27.663  18.578  10.540
63246W        W34917  29.043  33.637   2.533
63247W        W34918  41.691  39.429  10.154
63248W        W34919   9.652  31.235  11.632
63249W        W34920  26.627  10.084  14.655
63250W        W34921  13.355  29.900  11.426
63251W        W34922   3.867  11.704   3.700
63252W        W34923  13.747  36.693  14.152
63253W        W34924  14.673  30.368   0.678
63254W        W34925  29.199  31.316   2.263
63255W        W34926  14.400  32.630  12.798
63256W        W34927   3.939  41.487   1.754
63257W        W34928  41.937  25.855  10.705
63258W        W34929  21.051  44.948  11.547
63259W        W34930  41.173  40.511   4.364
63260W        W34931  39.516   4.123   0.172
63261W        W34932   2.328  25.660   3.224
63262W        W34933   1.917  27.696   2.251
63263W        W34934  24.355   2.413  13.860
63264W        W34935   0.453  41.413   1.882
63265W        W34936   0.747  21.844  10.126
63266W        W34937   1.656  36.350  12.171
63267W        W34938   9.329  35.236   4.861
63268W        W34939  34.506  13.181   2.283
63269W        W34940  32.481  40.259  12.614
63270W        W34941   1.873  31.866   3.712
63271W        W34942  27.600  38.261  12.849
63272W        W34943  37.520  43.738   2.751
63273W        W34944   4.427   5.852   2.663
63274W        W34945  41.792  27.937   2.660
63275W        W34946  21.014   3.336   2.126
63276W        W34947   3.504  20.881  10.153
63277W        W34948  15.465   1.925  11.478
63278W        W34949   3.881  18.423  12.292
63279W        W34950  29.729  39.419  11.604
63280W        W34951  14.718   7.737  11.907
63281W        W34952  22.210  40.402   4.140
63282W        W34953  18.515  29.695   2.796
63283W        W34954   3.130   5.665   4.227
63284W        W34955  35.945   5.469   4.546
63285W        W34956  40.267  23.940   3.702
63286W        W34957   0.871  16.679  10.604
63287W        W34958  41.519   3.490  12.708
63288W        W34959   1.785  37.921   4.680
63289W        W34960  12.055  24.581   1.465
63290W        W34961   2.969  36.312  12.097
63291W        W34962   7.216  34.498   0.437
63292W        W34963  20.522  13.130  11.166
63293W        W34964  34.839  18.700  12.601
63294W        W34965  34.824  41.499   3.693
63295W        W34966  31.947  32.090   0.914
63296W        W34967   5.366  16.480  13.008
63297W        W34968  32.184  34.950   5.171
63298W        W34969  39.537   8.218  12.480
63299W        W34970  22.654   1.819  13.744
63300W        W34971   2.253  43.238   0.855
63301W        W34972  43.950  18.664   1.844
63302W        W34973  11.370  29.542   2.678
63303W        W34974  18.161   0.614   4.751
63304W        W34975   4.778  28.900   2.317
63305W        W34976  28.680  13.213  13.980
63306W        W34977  41.060  29.505   2.686
63307W        W34978  11.184  20.045   1.877
63308W        W34979  34.368  39.491  11.072
63309W        W34980  36.364  32.960   3.675
63310W        W34981  12.422   4.403  10.678
63311W        W34982  25.018  26.686   0.759
63312W        W34983  43.370  13.149   3.779
63313W        W34984  29.550  44.186  13.150
63314W        W34985  20.034   0.836   9.831
63315W        W34986  42.341  31.864   4.695
63316W        W34987   2.569  18.823   5.163
63317W        W34988  22.171  29.731  12.360
63318W        W34989  10.837  25.064   0.245
63319W        W34990  27.552  30.443  11.644
63320W        W34991   9.558  26.274  10.804
63321W        W34992  17.786  10.659   3.096
63322W        W34993   9.345   2.939  10.638
63323W        W34994   4.670   5.835   1.710
63324W        W34995  15.591  16.106  11.638
63325W        W34996   5.500  42.896   4.683
63326W        W34997  34.856   8.334  13.953
63327W        W34998  24.231  20.449  11.920
63328W        W34999  39.426   3.446  12.803
63329W        W35000  34.390   1.756   0.375
63330W        W35001  39.526   3.474  13.687
63331W        W35002  13.173   1.365  10.649
63332W        W35003   5.490  42.176   2.754
63333W        W35004  29.878  20.596   3.813
63334W        W35005   0.313   9.341   1.817
63335W        W35006  32.413  16.599  12.176
63336W        W35007  21.383   1.455   3.833
63337W        W35008  43.532  25.931  12.081
63338W        W35009  33.101  36.818   0.952
63339W        W35010   5.986  41.417   0.875
63340W        W35011   3.891  30.880  14.777
63341W        W35012  25.072   6.317  13.795
63342W        W35013  31.994  23.735  12.940
63343W        W35014  37.977  18.604   0.904
63344W        W35015  12.284  11.880  11.026
63345W        W35016  27.167  31.215  11.593
63346W        W35017  44.971  21.619   3.945
63347W        W35018  34.064  20.382  13.343
63348W        W35019   4.272  17.514  14.287
63349W        W35020   6.108  40.811   1.475
63350W        W35021  42.887  33.783   3.157
63351W        W35022  38.922  18.564   4.748
63352W        W35023  24.166  21.257  11.424
63353W        W35024  21.067  10.795   3.210
63354W        W35025  21.807  21.483  12.105
63355W        W35026  15.309  26.091   3.366
63356W        W35027  42.423  17.725   3.851
63357W        W35028  43.436   0.049  11.025
63358W        W35029  44.377  35.598  11.000
63359W        W35030  27.984  43.081  12.934
63360W        W35031   8.922  14.898   4.675
63361W        W35032  35.393  35.267   4.017
63362W        W35033  11.611  44.902  10.583
63363W        W35034  28.168   7.131  10.274
63364W        W35035  33.370  42.258   2.350
63365W        W35036  42.847   6.628   3.354
63366W        W35037   2.038  21.768   0.422
63367W        W35038  20.749  39.875  10.190
63368W        W35039  40.440   6.725   2.412
63369W        W35040  26.927  14.783   2.125
63370W        W35041  40.137  30.469  14.907
63371W        W35042  39.720  33.641  12.479
63372W        W35043  39.731  29.243   2.874
63373W        W35044  34.475  31.927   0.019
63374W        W35045   7.398  22.255  13.104
63375W        W35046  15.692  44.007   3.130
63376W        W35047  41.763   3.150   1.066
63377W        W35048  44.500  14.328  10.670
63378W        W35049   9.803  23.753  14.564
63379W        W35050  25.747  20.725  12.657
63380W        W35051   9.742  33.858   0.799
63381W        W35052  32.128   9.809  10.757
63382W        W35053  13.110  29.925  14.465
63383W        W35054   1.362   4.239   2.468
63384W        W35055  32.564  33.303  14.988
63385W        W35056  21.611   2.962  13.033
63386W        W35057   0.833  36.138  10.674
63387W        W35058  10.588  10.106  12.027
63388W        W35059  32.709  42.422   2.732
63389W        W35060   9.898   0.300   3.203
63390W        W35061   6.485  19.796   1.890
63391W        W35062  38.792  39.988  14.287
63392W        W35063  42.208  24.144  10.722
63393W        W35064  42.638   0.273   0.848
63394W        W35065  15.484  14.752  10.584
63395W        W35066  30.590  17.759  12.011
63396W        W35067  27.905  39.061  13.888
63397W        W35068  22.279  35.807  14.205
63398W        W35069  35.590  12.159  12.017
63399W        W35070  38.745   8.461  11.172
63400W        W35071  12.170  35.369   3.326
63401W        W35072  13.920  38.033  12.042
63402W        W35073  25.908  25.936   0.725
63403W        W35074  41.385   3.922  12.471
63404W        W35075  13.363  29.502  13.154
63405W        W35076  31.595   3.913  14.203
63406W        W35077  37.366  19.828  11.047
63407W        W35078  35.593  25.921  14.954
63408W        W35079  41.010  19.715   4.131
63409W        W35080  40.062  12.635  12.611
63410W        W35081  38.486   7.965  13.018
63411W        W35082  11.697   4.510  12.327
63412W        W35083   6.286  17.242   3.731
63413W        W35084   8.346   8.160  13.534
63414W        W35085  25.970  22.187  13.718
63415W        W35086   4.968   1.185   4.156
63416W        W35087   9.259   1.360   0.033
63417W        W35088  28.065  35.658   2.124
63418W        W35089  41.011  17.328   0.897
63419W        W35090   3.638  25.579   0.861
63420W        W35091  31.614   1.892  14.514
63421W        W35092  13.291  30.625   2.765
63422W        W35093  11.178  18.376   3.172
63423W        W35094  36.597  25.465   4.648
63424W        W35095  15.920   5.682  10.313
63425W        W35096   5.639  36.983   2.415
63426W        W35097  18.593  24.293   4.492
63427W        W35098  13.248  12.749   4.498
63428W        W35099  25.970  26.666   0.373
63429W        W35100   4.328  30.155   2.327
63430W        W35101  32.534   9.956   2.868
63431W        W35102  24.440  28.069  14.321
63432W        W35103  33.934   2.127  13.812
63433W        W35104   5.514  14.273   4.324
63434W        W35105  25.090  39.474   1.145
63435W        W35106   8.856  40.861   4.445
63436W        W35107  35.413  34.661   3.308
63437W        W35108  35.438  21.032  12.570
63438W        W35109  27.105  33.901  13.788
63439W        W35110  32.523  14.876  13.075
63440W        W35111  33.856   5.862  11.183
63441W        W35112  27.734   9.458  14.333
63442W        W35113  15.365  29.332  14.132
63443W        W35114  30.989  11.427  13.913
63444W        W35115  43.149   5.888  10.988
63445W        W35116  30.063  42.779   2.140
63446W        W35117  16.753  41.564   0.498
63447W        W35118   9.667  15.762  14.925
63448W        W35119   6.761   6.900  11.141
63449W        W35120  37.212  29.134   2.274
63450W        W35121   5.860  35.321  14.352
63451W        W35122  23.987   6.303   0.796
63452W        W35123  40.859  32.658   3.766
63453W        W35124  31.210  12.201  13.475
63454W        W35125  37.495  27.092   4.443
63455W        W35126  31.644  34.385  14.884
63456W        W35127  26.176   6.280  13.335
63457W        W35128  29.630   5.741  13.366
63458W        W35129  37.335  42.067  12.983
63459W        W35130  18.733   3.635   1.230
63460W        W35131  19.077  14.298   4.530
63461W        W35132  42.753  30.914  13.022
63462W        W35133  14.824  14.647   0.769
63463W        W35134  39.669  26.819  12.880
63464W        W35135  26.706   0.978   0.610
63465W        W35136  38.838  25.183  11.100
63466W        W35137  33.646  35.249  13.949
63467W        W35138  34.409  37.580   5.027
63468W        W35139   0.989  24.662  10.588
63469W        W35140  20.951  18.584   5.098
63470W        W35141  29.092  21.509  14.849
63471W        W35142  18.351  22.511  10.009
63472W        W35143  17.234  21.417  11.166
63473W        W35144  40.438  16.006   3.293
63474W        W35145  11.326  17.136   1.969
63475W        W35146  14.373  38.814   4.993
63476W        W35147  31.688  11.395   0.291
63477W        W35148  34.938  13.902  12.392
63478W        W35149  20.677   6.063  14.297
63479W        W35150   8.685   2.308   2.169
63480W        W35151   3.827   0.426   1.221
63481W        W35152  28.575   0.288  14.722
63482W        W35153  31.863  26.755  14.192
63483W        W35154  28.537  18.323   0.646
63484W        W35155  12.061   3.638   0.514
63485W        W35156  23.720  35.889  11.417
63486W        W35157  39.614  15.721   0.679
63487W        W35158  11.824  11.833  11.334
63488W        W35159   8.297   2.773  12.993
63489W        W35160  39.769   3.879   4.321
63490W        W35161  13.399  44.843   4.016
63491W        W35162   1.495  41.449  12.483
63492W        W35163   8.797  34.575   4.414
63493W        W35164  36.889   3.350  14.930
63494W        W35165  37.526  10.845  14.746
63495W        W35166  33.320  42.346  11.589
63496W        W35167   6.426  37.889  13.912
63497W        W35168  31.054   3.707   1.065
63498W        W35169  17.613  38.000   0.406
63499W        W35170  36.956  38.100  13.924
63500W        W35171  39.039  35.464   4.783
63501W        W35172  32.577  20.967  13.901
63502W        W35173  12.134  38.920   4.547
63503W        W35174  29.739  15.664   1.015
63504W        W35175  43.529  13.073   2.208
63505W        W35176  20.701  39.113   0.976
63506W        W35177   3.995  28.111   4.641
63507W        W35178   4.565  19.824   5.006
63508W        W35179  21.238  40.229  11.033
63509W        W35180  28.548   5.189  10.911
63510W        W35181   3.892  29.527   4.942
63511W        W35182   4.166  25.130  13.475
63512W        W35183  18.292  23.667   2.302
63513W        W35184   4.001  32.311  13.421
63514W        W35185  23.521  13.429  13.991
63515W        W35186  13.543  16.876   1.360
63516W        W35187  10.011   2.343   4.050
63517W        W35188  42.791  37.112   4.520
63518W        W35189  12.465  33.014   3.293
63519W        W35190  44.024  12.630   3.277
63520W        W35191  26.558  43.975   9.991
63521W        W35192  30.578   8.687   1.319
63522W        W35193  30.642  19.950   0.555
63523W        W35194  32.543  25.245   4.293
63524W        W35195   2.683  18.776  11.087
63525W        W35196  16.684  13.800   3.013
63526W        W35197   5.291   2.301  11.754
63527W        W35198  18.745   3.972   4.130
63528W        W35199  31.382  27.785   1.297
63529W        W35200  11.880  18.077   3.710
63530W        W35201  34.160  24.121  11.487
63531W        W35202  18.566   8.096  11.856
63532W        W35203  39.867  26.611   2.742
63533W        W35204  37.118   0.031  11.908
63534W        W35205  10.826  40.418   3.332
63535W        W35206  23.487  25.534  13.579
63536W        W35207   2.796  31.547   4.796
63537W        W35208  35.226  26.799   0.834
63538W        W35209   9.658  42.894   1.335
63539W        W35210   2.470  26.682   2.306
63540W        W35211  38.314  21.011  14.521
63541W        W35212   0.417  31.612  14.822
63542W        W35213  39.526  24.718  11.976
63543W        W35214  31.694  31.964   3.081
63544W        W35215  37.800  13.211   2.401
63545W        W35216   2.696  16.747  13.447
63546W        W35217  30.919   1.869  11.520
63547W        W35218  31.022  36.339   0.345
63548W        W35219  16.636  42.526   4.133
63549W        W35220  41.283  32.098  10.609
63550W        W35221  11.261   7.863  14.527
63551W        W35222  43.894  27.133  11.619
63552W        W35223  19.887  22.715   5.030
63553W        W35224  24.928  22.830  13.032
63554W        W35225  17.681  41.322   1.477
63555W        W35226   1.986   7.439  10.706
63556W        W35227  39.433  36.836  14.940
63557W        W35228  21.830  29.850   0.462
63558W        W35229  34.343  23.584  10.698
63559W        W35230   8.366  38.815   3.896
63560W        W35231   1.353  12.175   2.801
63561W        W35232  39.327   2.138   1.465
63562W        W35233   0.355   0.503   3.923
63563W        W35234  32.973  34.516  12.802
63564W        W35235  24.909   4.616  11.561
63565W        W35236  24.579  11.421   1.836
63566W        W35237  12.204  17.096   0.380
63567W        W35238  34.414  35.538   2.282
63568W        W35239   7.208   4.762   1.672
63569W        W35240  28.923  32.110  13.356
63570W        W35241   7.112   4.758  10.498
63571W        W35242  36.163  20.020   3.918
63572W        W35243  16.150   5.692   0.990
63573W        W35244  20.817  32.513  11.563
63574W        W35245  30.081   6.392   3.827
63575W        W35246  11.445  31.833   0.341
63576W        W35247  29.982  30.663  13.952
63577W        W35248  24.566   8.132   2.830
63578W        W35249  44.976  16.874  14.761
63579W        W35250  17.363  17.780  14.941
63580W        W35251  16.081   0.285   4.103
63581W        W35252  22.120  26.706  10.959
63582W        W35253  14.576  16.871   2.231
63583W        W35254  31.238   6.305  11.087
63584W        W35255  31.813  30.860   4.192
63585W        W35256  32.375  43.325  12.438
63586W        W35257   8.577  40.460   3.361
63587W        W35258  34.572  38.432  14.126
63588W        W35259  27.618  30.471   0.609
63589W        W35260  40.895  25.137  12.000
63590W        W35261  44.809   6.970   2.313
63591W        W35262  25.044   7.922  14.809
63592W        W35263   9.116   4.420   3.216
63593W        W35264   9.618  40.047   2.747
63594W        W35265  12.915   4.009   2.906
63595W        W35266  15.365   4.252   5.485
63596W        W35267  17.727  19.670  12.477
63597W        W35268  28.957  43.351  12.531
63598W        W35269  16.884  17.741   3.308
63599W        W35270  31.738  15.741  14.397
63600W        W35271   5.925  35.612  12.374
63601W        W35272  22.175  39.389   2.726
63602W        W35273  41.221  11.222  14.236
63603W        W35274  44.711  40.398  10.207
63604W        W35275  12.705   4.005   3.787
63605W        W35276  35.269  31.133  13.441
63606W        W35277  32.631   5.361   4.569
63607W        W35278   2.867  44.988  12.981
63608W        W35279  27.588  32.094  13.875
63609W        W35280  41.810   1.677   1.023
63610W        W35281  25.571  42.754   0.838
63611W        W35282  34.503   8.880   1.366
63612W        W35283  40.341  34.772  13.824
63613W        W35284   7.314   0.794  14.453
63614W        W35285  39.938  44.906   3.259
63615W        W35286  22.630  15.854  14.955
63616W        W35287  40.474   2.933  12.037
63617W        W35288   5.273  30.719   1.345
63618W        W35289  40.809   4.761  11.914
63619W        W35290  23.242  37.825  12.017
63620W        W35291   2.251  31.310   0.887
63621W        W35292  13.366   9.330   1.507
63622W        W35293  40.580   2.296   1.036
63623W        W35294  38.988   4.306   3.432
63624W        W35295  23.746  21.237  11.755
63625W        W35296   2.935  37.142   4.918
63626W        W35297  31.136  22.955   2.540
63627W        W35298  10.380  17.721  11.163
63628W        W35299   4.058  29.552  14.530
63629W        W35300  15.520  15.788   0.961
63630W        W35301  22.938  32.441   1.249
63631W        W35302  20.749  22.560  11.664
63632W        W35303   8.400   6.018  11.013
63633W        W35304   0.498  15.608  12.897
63634W        W35305  12.613  36.290   4.524
63635W        W35306   0.910  17.578   2.770
63636W        W35307  42.680  30.728   4.219
63637W        W35308  27.741  38.062  13.619
63638W        W35309   6.063  29.949   4.093
63639W        W35310  25.899  20.609   1.919
63640W        W35311   6.374  35.170  10.352
63641W        W35312  40.176  26.665   1.719
63642W        W35313   2.449  13.629  14.895
63643W        W35314   9.217  15.178   0.712
63644W        W35315  21.560  22.305  11.636
63645W        W35316  38.780   7.155  13.145
63646W        W35317  39.540   8.153   4.236
63647W        W35318  33.080  12.185   3.172
63648W        W35319   3.593  21.031  12.115
63649W        W35320  30.489   0.850  13.809
63650W        W35321  16.024  34.304  13.756
63651W        W35322   3.465  24.338  14.851
63652W        W35323  30.208  21.752   2.170
63653W        W35324  11.059  18.305  11.378
63654W        W35325  12.227   0.909   2.116
63655W        W35326  12.424  23.572  12.544
63656W        W35327  40.291  36.420   2.785
63657W        W35328   5.227  21.232  11.692
63658W        W35329  39.282   8.359   3.762
63659W        W35330  16.653  16.555  12.503
63660W        W35331  19.537  41.415  11.383
63661W        W35332  32.461  13.395  13.012
63662W        W35333  21.906  19.364   4.670
63663W        W35334   8.503  39.207  14.896
63664W        W35335   2.667  41.473  13.779
63665W        W35336  39.240  27.912   3.221
63666W        W35337  10.800   1.771  14.433
63667W        W35338  42.992  32.933   2.112
63668W        W35339   4.360   1.605  13.976
63669W        W35340   3.173  30.974  11.559
63670W        W35341  17.386  35.000   3.203
63671W        W35342   8.840   0.706  14.278
63672W        W35343   4.129  33.121   2.790
63673W        W35344  22.673  13.824  12.953
63674W        W35345  28.624  31.606   3.618
63675W        W35346  30.900  20.542  13.895
63676W        W35347  25.060  43.698   3.231
63677W        W35348  41.491  38.420  13.083
63678W        W35349  34.704  40.352   0.419
63679W        W35350  26.621  10.144   1.267
63680W        W35351  13.666  16.331   4.664
63681W        W35352   6.363   9.772  14.563
63682W        W35353   1.936  20.367   4.647
63683W        W35354  10.672  22.658  10.768
63684W        W35355  30.081  37.142  10.360
63685W        W35356  11.792   7.199  13.591
63686W        W35357  13.624  29.208  10.963
63687W        W35358  16.070   4.652  12.219
63688W        W35359  28.231   9.815   1.524
63689W        W35360  42.994  27.253  14.738
63690W        W35361  35.190  39.411   0.415
63691W        W35362  26.207  34.776  14.378
63692W        W35363  42.740  35.102   1.056
63693W        W35364  20.620  26.751  12.764
63694W        W35365  30.127  32.429   0.988
63695W        W35366  23.478   1.722  10.697
63696W        W35367   1.961  34.605   3.894
63697W        W35368  18.531   0.223  13.061
63698W        W35369   2.156  20.833   4.640
63699W        W35370  26.949  20.755  12.061
63700W        W35371  16.594  40.009   3.653
63701W        W35372  33.781  31.567   2.379
63702W        W35373  40.176   8.869   3.141
63703W        W35374  37.848  41.912  13.675
63704W        W35375  20.653   2.100   1.795
63705W        W35376  26.620   5.969   1.689
63706W        W35377  23.772  44.758  11.123
63707W        W35378  17.259  20.644   0.989
63708W        W35379  12.319  31.930   3.113
63709W        W35380  28.640   5.637   0.371
63710W        W35381   2.002  41.121  13.171
63711W        W35382   5.294  35.910   1.105
63712W        W35383  38.061   7.819   2.200
63713W        W35384   0.784   2.342   3.966
63714W        W35385  32.431   9.468  11.655
63715W        W35386  28.886  20.135  14.188
63716W        W35387  35.397  16.227   3.633
63717W        W35388  23.599   7.127  14.881
63718W        W35389   7.872   3.163  10.961
63719W        W35390   1.531  17.958  11.106
63720W        W35391   3.036  17.198   1.425
63721W        W35392   5.339  40.597   0.812
63722W        W35393  12.676  44.391  10.609
63723W        W35394   6.497  35.402   2.999
63724W        W35395  10.843  15.622   3.339
63725W        W35396   1.291   2.164   0.956
63726W        W35397  34.006  19.153   0.732
63727W        W35398  29.410  39.890   1.509
63728W        W35399   7.854   4.275   3.471
63729W        W35400  42.958  18.580   1.446
63730W        W35401  30.039  13.215   1.959
63731W        W35402  10.511  39.818  12.470
63732W        W35403  44.007  33.480  14.004
63733W        W35404  27.924  43.844  12.799
63734W        W35405  18.628   9.224   1.117
63735W        W35406  44.741  15.110  12.863
63736W        W35407  33.494   4.178   3.473
63737W        W35408  39.104  12.843  13.002
63738W        W35409  15.163  11.135  12.112
63739W        W35410  19.941  12.241   5.386
63740W        W35411  35.026  25.668   4.622
63741W        W35412  16.673  44.539  14.295
63742W        W35413   2.975  28.911   2.716
63743W        W35414  27.094  33.064   1.055
63744W        W35415   7.706  28.719   2.600
63745W        W35416  11.178   1.856  11.576
63746W        W35417  34.911  11.487  13.712
63747W        W35418  38.074  24.476  14.486
63748W        W35419  11.311  11.718  12.549
63749W        W35420  40.120  32.402  14.193
63750W        W35421  19.218  10.153   2.072
63751W        W35422  27.034   7.131  13.510
63752W        W35423  19.752   8.672  11.952
63753W        W35424  33.264  44.107   4.034
63754W        W35425  24.988   5.829   4.101
63755W        W35426   1.939  12.051  13.951
63756W        W35427  39.189  33.403   3.283
63757W        W35428   1.646  20.150  13.017
63758W        W35429   4.381  43.952   2.370
63759W        W35430  34.161   6.111   0.155
63760W        W35431  44.551  39.084   4.964
63761W        W35432  33.001  29.588  10.530
63762W        W35433  36.025  26.089  11.238
63763W        W35434  13.722  20.220   0.950
63764W        W35435  27.080  43.269   2.439
63765W        W35436   6.213  33.918  12.909
63766W        W35437  14.164  43.283   0.275
63767W        W35438   5.694  38.090   3.676
63768W        W35439  32.919   9.144   4.890
63769W        W35440  13.610  16.629   0.489
63770W        W35441  10.075  15.777   3.815
63771W        W35442  30.437   7.764  13.251
63772W        W35443  12.669  24.793   3.842
63773W        W35444   7.682  22.671  14.950
63774W        W35445   1.967  24.145   1.244
63775W        W35446   4.702  32.056   4.341
63776W        W35447  32.258  41.980  12.367
63777W        W35448  22.943  38.886   1.843
63778W        W35449   5.526  29.430   3.174
63779W        W35450  32.946  14.243  14.540
63780W        W35451  34.336  17.998  13.266
63781W        W35452  41.243  13.840   3.163
63782W        W35453  33.930   9.311   0.819
63783W        W35454  43.792  36.506   4.094
63784W        W35455   3.260  33.848   3.439
63785W        W35456   8.995   6.819   2.401
63786W        W35457  17.099  36.999  12.288
63787W        W35458   4.309  28.170  11.144
63788W        W35459  37.481  23.585  11.438
63789W        W35460   2.033  22.591  14.491
63790W        W35461  37.414  36.829  10.662
63791W        W35462  40.783   0.964  12.942
63792W        W35463  12.653  10.156  13.324
63793W        W35464   2.794  13.859   4.858
63794W        W35465  13.324  40.189  10.347
63795W        W35466  35.010  44.021   1.666
63796W        W35467  20.320  14.496   2.943
63797W        W35468  14.770   0.170   4.081
63798W        W35469   9.343  40.568  13.528
63799W        W35470  39.485  25.054  12.484
63800W        W35471  38.375  22.726   4.097
63801W        W35472  24.121  26.479   0.321
63802W        W35473  36.339   7.318   1.406
63803W        W35474  13.083   5.848   0.825
63804W        W35475   2.369  16.901   3.743
63805W        W35476  41.902  15.290  14.443
63806W        W35477  38.809  14.911   4.258
63807W        W35478  16.892  43.277   0.007
63808W        W35479   4.395  24.583   0.342
63809W        W35480  23.237   2.608  13.535
63810W        W35481   7.291  31.069   3.373
63811W        W35482   6.870  35.552  12.873
63812W        W35483   8.840   0.578   0.813
63813W        W35484  11.704  41.945  13.451
63814W        W35485  30.487  44.540  12.714
63815W        W35486  21.316  20.217   1.872
63816W        W35487  18.377  42.041   2.982
63817W        W35488  34.341   5.393   2.801
63818W        W35489  16.739  44.037  11.078
63819W        W35490  40.856  11.108  14.822
63820W        W35491  18.042  41.297   2.884
63821W        W35492  31.511   9.396   0.699
63822W        W35493  25.764  26.206   2.341
63823W        W35494   7.152  32.204   4.601
63824W        W35495  42.196  23.151   3.601
63825W        W35496  16.524  21.588  11.748
63826W        W35497   4.730  14.344  12.006
63827W        W35498  13.190  23.601   1.332
63828W        W35499  16.773  16.100   3.643
63829W        W35500   0.988  13.591  12.385
63830W        W35501   7.417  37.756   2.831
63831W        W35502  19.508  25.926   0.069
63832W        W35503  11.204  33.322  12.299
63833W        W35504   5.385  44.245   4.135
63834W        W35505  19.709  44.892  14.913
63835W        W35506  41.386  26.983   2.415
63836W        W35507  36.501   1.139   2.343
63837W        W35508  33.934  16.142   0.030
63838W        W35509  21.766  27.199   2.702
63839W        W35510   5.000  29.124   2.729
63840W        W35511  41.349  40.944   2.197
63841W        W35512  42.663  22.075  12.421
63842W        W35513   4.696  13.716   1.301
63843W        W35514  16.071  12.275   0.694
63844W        W35515   2.159   4.170  12.996
63845W        W35516  42.487   4.949   0.370
63846W        W35517  10.336   6.353   1.842
63847W        W35518   2.019  32.335  10.938
63848W        W35519  18.369  24.654   0.301
63849W        W35520  15.142   1.539  10.753
63850W        W35521  36.630  35.925  14.454
63851W        W35522  33.591  13.150  10.906
63852W        W35523   4.277  41.295   3.666
63853W        W35524  36.687   5.133   3.325
63854W        W35525  12.237   5.156   3.280
63855W        W35526   6.177  28.893   1.281
63856W        W35527   4.865   3.222   3.190
63857W        W35528  38.893  16.698  14.337
63858W        W35529   1.744  30.862  10.474
63859W        W35530  35.309   9.491   0.296
63860W        W35531  40.937  28.685   2.304
63861W        W35532   0.571  33.417   3.663
63862W        W35533   4.342   1.957  13.579
63863W        W35534  36.908  42.459   4.622
63864W        W35535  18.697   0.339  11.074
63865W        W35536  43.968  33.489  12.062
63866W        W35537  29.185  42.281   1.811
63867W        W35538  43.446  24.915  13.802
63868W        W35539  21.716  35.147   1.316
63869W        W35540  10.454  19.545  11.616
63870W        W35541   4.912  10.831  12.869
63871W        W35542  32.607   3.845   4.764
63872W        W35543  23.988  36.617  12.942
63873W        W35544  11.546  26.669   0.526
63874W        W35545  35.962  13.451  14.707
63875W        W35546  16.795  34.121  12.479
63876W        W35547  40.999  43.382  10.632
63877W        W35548  42.346  41.711   9.693
63878W        W35549  30.692  24.572  12.555
63879W        W35550  28.064   3.204  12.009
63880W        W35551  34.065  35.269   3.596
63881W        W35552   8.367  34.103   3.194
63882W        W35553  28.945   9.967  10.210
63883W        W35554   2.824   6.544   0.673
63884W        W35555  42.901   0.858  11.315
63885W        W35556   7.273  24.923   0.787
63886W        W35557  15.313  31.384   3.723
63887W        W35558  27.550  23.720  11.539
63888W        W35559  30.922  31.125  10.938
63889W        W35560  34.088  24.017  10.589
63890W        W35561  40.292  27.998   1.176
63891W        W35562   9.906   2.511   0.089
63892W        W35563  42.357  13.591   3.933
63893W        W35564  17.692   3.322  13.067
63894W        W35565   7.994  36.630   2.403
63895W        W35566  28.099   4.176   0.429
63896W        W35567  16.854  14.577   2.555
63897W        W35568  19.095  29.469   0.291
63898W        W35569  42.580   2.806  11.636
63899W        W35570  10.230  44.580  12.895
63900W        W35571  35.681  18.137   3.773
63901W        W35572  12.122  14.100   4.062
63902W        W35573   8.158  17.230   0.063
63903W        W35574  24.689   1.761  13.150
63904W        W35575  29.932  11.614   3.935
63905W        W35576  16.126  25.748  11.919
63906W        W35577  44.918  30.969  12.341
63907W        W35578  17.727  41.298   3.918
63908W        W35579   8.380  14.229  10.663
63909W        W35580  17.064  12.283  12.533
63910W        W35581   5.160  21.240  14.444
63911W        W35582   2.363   9.069   2.438
63912W        W35583  17.041  25.584  13.027
63913W        W35584  16.089  11.289   2.766
63914W        W35585  42.722  19.270  11.961
63915W        W35586  39.522  38.131   3.279
63916W        W35587   0.946  33.491  12.996
63917W        W35588  31.884  10.633  11.665
63918W        W35589   8.934  18.082  13.367
63919W        W35590  40.740  36.006   4.562
63920W        W35591  22.475  19.469   3.837
63921W        W35592  15.759  11.909   3.789
63922W        W35593  42.645  29.100   1.034
63923W        W35594  32.588  40.504   2.147
63924W        W35595   5.775  13.687   2.749
63925W        W35596  19.853  16.504   2.733
63926W        W35597  39.996  41.007   3.735
63927W        W35598  24.496  43.026  11.999
63928W        W35599  21.059  30.106  11.612
63929W        W35600  13.780   6.748  10.193
63930W        W35601   0.608  26.819  11.076
63931W        W35602  12.578   7.115   2.075
63932W        W35603  38.782  15.051  11.131
63933W        W35604  35.384  24.325  12.062
63934W        W35605   6.819  17.260   2.509
63935W        W35606  27.015   7.962  13.938
63936W        W35607  21.271  31.522  11.090
63937W        W35608  14.007   4.991  12.461
63938W        W35609  23.201  33.416   4.373
63939W        W35610  31.703   9.293   3.721
63940W        W35611  10.418  24.109  12.966
63941W        W35612  12.526  42.037   4.214
63942W        W35613  42.790   7.473  13.772
63943W        W35614  18.765  26.230   2.902
63944W        W35615  25.115  17.037   3.660
63945W        W35616  17.107  39.066   3.700
63946W        W35617  39.208  12.047  11.514
63947W        W35618  21.204  22.507  10.977
63948W        W35619  23.539   6.631   0.067
63949W        W35620  31.035  34.479   1.709
63950W        W35621  22.408  41.755   5.038
63951W        W35622  29.469  38.533   4.294
63952W        W35623  23.736  38.021  10.659
63953W        W35624  21.109  14.195   2.141
63954W        W35625  35.609  17.382   0.291
63955W        W35626  41.934  30.216   4.137
63956W        W35627  25.253  24.497   4.527
63957W        W35628  38.363  39.785   1.141
63958W        W35629  17.579  36.982  12.439
63959W        W35630  22.188  26.158   3.684
63960W        W35631  15.443   5.333  10.041
63961W        W35632   8.927  17.085   2.340
63962W        W35633  24.532  31.160   4.084
63963W        W35634  24.776  15.048   4.502
63964W        W35635  14.096  19.088   3.677
63965W        W35636  11.293   7.399  10.851
63966W        W35637   2.924  21.319  10.248
63967W        W35638  20.314  40.891  14.068
63968W        W35639  37.922  36.073  10.752
63969W        W35640  14.670  12.816   2.466
63970W        W35641   1.667  40.305  13.118
63971W        W35642  17.494  43.443   4.289
63972W        W35643  16.798  12.193   3.475
63973W        W35644   2.508  30.949  12.010
63974W        W35645  27.258  33.611   0.221
63975W        W35646  11.827  13.583   1.890
63976W        W35647  15.468  23.498   4.221
63977W        W35648  36.323  34.028   1.920
63978W        W35649  39.088  18.692  12.557
63979W        W35650  41.768  42.018  11.141
63980W        W35651  38.818   6.713  13.425
63981W        W35652  31.633  30.035   2.973
63982W        W35653  13.889  33.338   2.299
63983W        W35654  13.366  41.892  13.856
63984W        W35655  28.286  29.891  14.089
63985W        W35656  28.798   0.783  13.852
63986W        W35657  33.460  28.451  10.907
63987W        W35658  40.417   5.066  13.282
63988W        W35659  28.251  25.568  11.564
63989W        W35660  27.997   3.071   9.978
63990W        W35661  23.970   4.163   3.333
63991W        W35662  43.000  38.029   1.180
63992W        W35663   8.121   6.307   0.760
63993W        W35664  37.402  37.886  10.661
63994W        W35665   2.212   9.691   4.761
63995W        W35666   7.917  30.745  13.732
63996W        W35667  16.193  33.054  13.385
63997W        W35668  30.407  28.949  10.598
63998W        W35669  34.041  19.694   3.159
63999W        W35670  19.139  40.848   4.869
64000W        W35671  24.742  14.751  12.690
64001W        W35672   9.628  25.728  14.329
64002W        W35673  12.022  37.631   3.824
64003W        W35674  17.845  18.301  11.454
64004W        W35675  18.524  10.196  11.054
64005W        W35676  10.783  20.441   1.741
64006W        W35677  14.800  12.847  12.119
64007W        W35678   8.892   8.272   4.093
64008W        W35679  37.587  26.199   4.022
64009W        W35680  27.965  17.637   0.338
64010W        W35681  35.883  32.406   0.453
64011W        W35682   1.895  33.784  13.499
64012W        W35683   6.101  39.465   0.001
64013W        W35684  30.674  10.064   3.235
64014W        W35685  44.565  10.142  12.588
64015W        W35686  21.294  17.483  11.677
64016W        W35687  13.100  30.985   1.689
64017W        W35688  15.823  41.501  11.833
64018W        W35689  19.236   6.906   0.336
64019W        W35690  28.047  37.574   3.370
64020W        W35691  35.980  28.849  12.674
64021W        W35692   4.840  15.015   0.714
64022W        W35693  18.728  17.258  12.078
64023W        W35694   1.963  42.435  14.384
64024W        W35695  29.517  20.137   3.080
64025W        W35696  17.689  19.869  11.153
64026W        W35697  24.568  35.508  11.643
64027W        W35698  29.058  35.008   0.744
64028W        W35699  12.726  33.003   4.954
64029W        W35700   4.848   3.114  11.279
64030W        W35701   5.359   1.767   1.783
64031W        W35702  14.562  13.381   3.672
64032W        W35703   1.242  39.247   1.846
64033W        W35704  11.566  19.112   1.269
64034W        W35705  37.786   0.922  13.954
64035W        W35706   6.306  25.601  10.736
64036W        W35707   7.100  29.024  13.274
64037W        W35708   3.150  36.120   0.588
64038W        W35709  38.414  12.407   1.863
64039W        W35710   0.344  31.359  10.689
64040W        W35711  15.568  36.576  10.667
64041W        W35712   3.292  41.760   2.563
64042W        W35713  37.854  27.520  14.979
64043W        W35714  19.482   9.493   2.140
64044W        W35715  33.522  22.840   0.160
64045W        W35716  29.395  38.580  11.900
64046W        W35717  34.928  40.356  14.607
64047W        W35718  30.351  19.222  11.863
64048W        W35719  23.035  38.041  12.469
64049W        W35720   0.428  25.948   0.222
64050W        W35721  40.466  23.556  10.711
64051W        W35722  33.521   5.318  10.554
64052W        W35723   7.382  14.578   0.422
64053W        W35724  39.864  20.137   0.833
64054W        W35725  38.046  27.770  14.553
64055W        W35726   9.307  24.233  10.727
64056W        W35727  10.159   2.721   0.523
64057W        W35728  19.265  36.660  11.593
64058W        W35729   3.941  29.124   0.818
64059W        W35730  23.621   9.377   1.719
64060W        W35731  38.800   9.237  13.973
64061W        W35732  20.761  12.077   1.923
64062W        W35733   8.909  40.913   4.945
64063W        W35734  30.420  29.435   3.684
64064W        W35735   1.497  41.137  12.928
64065W        W35736  34.126  21.857  13.455
64066W        W35737  18.146  25.655   1.186
64067W        W35738   0.373  17.120   1.459
64068W        W35739   7.571  37.098  14.029
64069W        W35740   0.657  37.412  14.883
64070W        W35741  16.617   9.818   0.345
64071W        W35742  25.508   2.302   1.809
64072W        W35743  17.194  32.720   4.127
64073W        W35744  15.258  12.820   1.259
64074W        W35745  33.507  10.608   1.856
64075W        W35746  21.317  42.219   1.892
64076W        W35747   6.723  13.170  10.872
64077W        W35748   5.855  13.188  11.721
64078W        W35749  16.358  39.474  12.353
64079W        W35750  14.331  31.920   2.272
64080W        W35751  26.835  31.997   0.828
64081W        W35752  14.350  33.102  12.083
64082W        W35753  21.560  16.261   2.565
64083W        W35754  10.610   4.438   2.331
64084W        W35755  40.914  16.837   1.056
64085W        W35756  29.379   1.304   0.436
64086W        W35757  32.169  16.714   2.295
64087W        W35758  34.143   8.590   1.111
64088W        W35759  22.652  39.382  10.148
64089W        W35760  38.355   8.414   2.260
64090W        W35761   0.455  36.384  13.390
64091W        W35762   0.804  16.320   1.708
64092W        W35763   9.690  11.235  11.203
64093W        W35764  13.450   4.175  14.532
64094W        W35765  14.801  24.949   4.591
64095W        W35766   5.699   9.246  14.921
64096W        W35767   4.277  31.015  12.805
64097W        W35768   0.984   1.705   2.242
64098W        W35769   2.188   3.361  14.552
64099W        W35770  16.742  21.229   4.613
64100W        W35771   3.480   4.159  13.502
64101W        W35772  19.582   5.169  10.949
64102W        W35773  44.555  11.144  11.051
64103W        W35774  40.481  37.875   1.837
64104W        W35775  11.794  36.443  14.826
64105W        W35776  27.182   5.109  13.497
64106W        W35777  43.474   5.420   2.776
64107W        W35778  17.102  12.911  12.079
64108W        W35779  27.501  22.188  14.894
64109W        W35780  11.787  19.206  14.419
64110W        W35781  32.111  16.367   1.404
64111W        W35782  23.278  27.475  11.966
64112W        W35783  38.174  32.431   2.775
64113W        W35784  44.293  39.648   9.881
64114W        W35785  15.533  22.058   0.781
64115W        W35786  25.624  10.367   0.346
64116W        W35787   5.268  15.778  13.993
64117W        W35788  37.961  10.537  13.038
64118W        W35789   5.691  37.582  13.775
64119W        W35790  16.518  30.119   2.074
64120W        W35791  11.880  31.598  12.843
64121W        W35792   3.438  29.442  12.625
64122W        W35793  12.468  33.005  14.514
64123W        W35794  25.076  18.692   4.870
64124W        W35795  18.169  28.929  11.852
64125W        W35796  10.024  11.772   4.184
64126W        W35797   4.823  40.019   0.298
64127W        W35798  16.292  26.350   0.357
64128W        W35799  42.775  32.725  13.920
64129W        W35800  40.453  27.223  10.717
64130W        W35801  24.094   4.604   0.006
64131W        W35802  24.444  33.300   2.061
64132W        W35803  28.172  43.888   1.832
64133W        W35804  42.572   2.961   1.229
64134W        W35805   3.411  14.575   3.641
64135W        W35806  38.772   4.171  12.437
64136W        W35807   4.511   8.372  11.578
64137W        W35808  44.872   9.329   2.110
64138W        W35809  19.044  13.848   1.459
64139W        W35810  27.405  25.185  13.919
64140W        W35811  22.002   6.909  13.989
64141W        W35812  33.417  31.656  11.822
64142W        W35813   3.629   4.173   2.882
64143W        W35814  31.135  10.870   1.013
64144W        W35815   7.163  20.160   4.671
64145W        W35816  13.806  14.665   0.903
64146W        W35817  17.311  38.454  10.406
64147W        W35818  21.217  36.882   1.422
64148W        W35819   4.739   1.800  12.839
64149W        W35820  39.632  40.902   1.839
64150W        W35821  12.268  27.128   4.682
64151W        W35822  29.238  25.086  12.113
64152W        W35823   6.424  44.523  13.013
64153W        W35824  22.058   0.838   4.151
64154W        W35825  11.871  30.623  12.902
64155W        W35826  24.246   6.646  13.866
64156W        W35827  38.811  13.765   3.328
64157W        W35828  36.627   7.841  11.232
64158W        W35829   0.632  42.844  14.488
64159W        W35830  38.378  25.698   4.587
64160W        W35831  32.416  25.378   4.834
64161W        W35832  38.955  40.032   4.446
64162W        W35833  20.941  34.862   5.012
64163W        W35834  31.358  31.095  10.627
64164W        W35835  12.860  37.483   2.278
64165W        W35836  19.262  17.171   2.415
64166W        W35837  24.699  32.605   3.869
64167W        W35838   6.737  41.428  12.870
64168W        W35839  25.110  31.143   1.201
64169W        W35840  41.078  19.022   3.265
64170W        W35841  32.118  40.796  11.205
64171W        W35842  13.324  16.283   0.193
64172W        W35843  33.590  29.039   3.202
64173W        W35844   5.941  15.587  14.536
64174W        W35845  43.324  26.758  10.278
64175W        W35846   1.048  34.055  14.401
64176W        W35847   1.965   5.298  14.044
64177W        W35848  35.605  29.933  12.006
64178W        W35849  36.343  26.779  10.789
64179W        W35850   7.249  17.331  12.959
64180W        W35851  35.833  42.921  13.400
64181W        W35852   0.366  33.990  13.019
64182W        W35853  28.833  36.991  10.674
64183W        W35854  22.191  14.154   4.404
64184W        W35855  26.142  18.300  13.546
64185W        W35856  35.333  42.401  10.557
64186W        W35857  26.954  26.460  14.485
64187W        W35858   0.233  16.635   2.793
64188W        W35859  14.866  33.972  12.946
64189W        W35860   8.809  31.125  13.854
64190W        W35861   4.955  12.320   4.105
64191W        W35862  35.633  37.412   2.204
64192W        W35863   6.136  25.925   1.860
64193W        W35864  44.493  11.977   1.894
64194W        W35865  41.560   6.349  14.263
64195W        W35866   3.582   5.762  14.971
64196W        W35867  26.238   6.023  10.779
64197W        W35868  32.148  21.255  14.815
64198W        W35869  40.752  25.402  12.422
64199W        W35870  38.879  26.220  11.853
64200W        W35871   9.245   5.706   0.430
64201W        W35872  40.219   6.783   4.210
64202W        W35873  11.748  10.335   4.562
64203W        W35874   4.550  38.856   2.396
64204W        W35875  19.932  16.538   1.305
64205W        W35876  25.623  25.944   2.769
64206W        W35877  33.045   2.236   0.757
64207W        W35878  35.551  21.567   3.673
64208W        W35879  12.108  13.093  14.222
64209W        W35880  33.251  17.282  14.688
64210W        W35881  25.233  18.358  13.399
64211W        W35882  37.378  41.738  13.495
64212W        W35883   4.428   5.223  12.041
64213W        W35884  42.288   2.657   3.648
64214W        W35885  41.204  10.168   3.623
64215W        W35886  18.495   3.815  10.446
64216W        W35887  38.262  10.803   1.812
64217W        W35888  11.904  41.873  13.949
64218W        W35889  20.047  27.823   3.566
64219W        W35890  40.427  29.089  14.724
64220W        W35891  42.332  31.424  11.215
64221W        W35892  32.692   0.440   2.809
64222W        W35893  44.272  22.770  10.217
64223W        W35894  11.831  44.830   9.992
64224W        W35895  26.543   5.684  14.917
64225W        W35896  28.587   2.028  11.794
64226W        W35897  12.811  29.889  13.707
64227W        W35898  42.444  34.851   1.643
64228W        W35899  30.408   0.462   0.338
64229W        W35900  35.116  39.365   0.934
64230W        W35901   4.986  22.271  11.023
64231W        W35902   2.343  18.813   3.100
64232W        W35903  24.512  27.111  14.559
64233W        W35904  16.025  11.832  13.193
64234W        W35905  24.461  16.210  12.479
64235W        W35906  28.934  24.252   4.250
64236W        W35907  21.924  44.392   3.343
64237W        W35908  32.628  12.258   2.930
64238W        W35909   6.202  17.082   0.494
64239W        W35910  12.897  18.117   3.513
64240W        W35911  28.048   4.026  10.769
64241W        W35912   4.140  10.688  14.762
64242W        W35913   9.320   7.725  11.181
64243W        W35914  35.671  26.061   4.162
64244W        W35915  27.649  16.337   0.658
64245W        W35916  36.426  38.102  10.227
64246W        W35917  33.544  32.551  13.031
64247W        W35918  17.126   6.528   1.652
64248W        W35919  26.989   3.478   1.637
64249W        W35920  24.520   0.455   0.292
64250W        W35921  38.503  21.553  13.146
64251W        W35922  21.023  12.242   4.245
64252W        W35923  17.334  18.654   1.459
64253W        W35924  28.050  10.599   5.134
64254W        W35925  14.360  23.185   3.604
64255W        W35926  17.791   2.135   0.228
64256W        W35927  18.765  34.313   3.165
64257W        W35928   8.349  24.923  11.556
64258W        W35929   5.920  35.966   3.810
64259W        W35930  29.421  30.237   3.170
64260W        W35931   0.343   5.384   1.020
64261W        W35932  19.091  19.476   1.444
64262W        W35933  10.644  23.528   3.736
64263W        W35934   5.692  44.669  13.067
64264W        W35935   0.313   4.898   3.749
64265W        W35936  32.986  30.981   0.918
64266W        W35937  19.901   1.340  14.396
64267W        W35938  23.536   7.232   3.715
64268W        W35939   6.998  22.389  11.507
64269W        W35940  32.625   6.932   1.281
64270W        W35941  32.846  17.566  12.503
64271W        W35942  20.541  13.626   1.932
64272W        W35943  39.892  39.808   0.404
64273W        W35944   4.767  15.825   3.234
64274W        W35945  20.129   5.188  10.184
64275W        W35946  27.705  14.240   1.243
64276W        W35947  43.957  20.596  10.486
64277W        W35948  10.848   7.128   4.123
64278W        W35949  39.309   5.719   2.613
64279W        W35950  10.140  25.653   2.251
64280W        W35951  35.100  21.349   3.681
64281W        W35952  17.775  35.329   1.481
64282W        W35953   2.202  26.991  13.231
64283W        W35954   6.818  16.780   1.648
64284W        W35955   8.351  20.909   3.306
64285W        W35956  29.947   8.406   4.155
64286W        W35957  42.748   9.006   1.556
64287W        W35958   8.201  44.092  14.846
64288W        W35959  22.425  11.238  10.747
64289W        W35960  30.230  43.999  12.031
64290W        W35961  30.528   1.289   3.722
64291W        W35962  25.137  13.552   3.694
64292W        W35963  17.737  32.945  13.042
64293W        W35964  37.577   0.970  13.484
64294W        W35965  36.373  40.393  13.913
64295W        W35966  35.967   3.719   0.750
64296W        W35967   1.072  12.428  10.147
64297W        W35968  42.184  38.346   3.702
64298W        W35969  13.788  35.893  10.522
64299W        W35970  31.496  39.441   4.875
64300W        W35971  13.766   4.750   1.221
64301W        W35972   7.814  28.804  11.641
64302W        W35973   8.847  29.130   3.285
64303W        W35974  10.705  37.625  11.099
64304W        W35975  22.205  42.332  11.502
64305W        W35976  27.712   9.676   2.460
64306W        W35977  14.998  27.664   3.331
64307W        W35978  43.797  44.473   1.300
64308W        W35979   2.189  23.659   1.902
64309W        W35980  12.857  34.799   1.729
64310W        W35981  19.152  24.645  12.934
64311W        W35982  28.857  16.606   3.852
64312W        W35983  28.921  39.529  13.359
64313W        W35984  44.779  38.900   0.560
64314W        W35985  13.343  12.656   3.980
64315W        W35986  11.536  18.504   2.819
64316W        W35987   5.928   9.753   1.099
64317W        W35988  21.154  30.371  14.926
64318W        W35989   3.241   7.200   2.681
64319W        W35990   0.370  16.257   4.367
64320W        W35991  41.786  34.249   0.762
64321W        W35992  12.273   2.933  14.471
64322W        W35993  28.640  35.032   0.423
64323W        W35994   1.334  26.719   1.862
64324W        W35995   3.872  19.572   2.803
64325W        W35996  32.777  13.824   1.710
64326W        W35997  21.299   3.694   1.877
64327W        W35998  13.330  42.759  12.050
64328W        W35999   7.430   3.735  12.515
64329W        W36000  30.941  18.514   0.187
64330W        W36001  17.945  16.990  14.822
64331W        W36002  29.724  32.466  11.999
64332W        W36003   2.784   9.912  11.537
64333W        W36004  25.640  33.893  11.609
64334W        W36005  23.972  12.756   4.575
64335W        W36006  20.633  10.238  10.720
64336W        W36007  40.436  31.623   2.587
64337W        W36008  39.287  27.130  11.118
64338W        W36009   2.319   2.959   0.973
64339W        W36010  25.443   9.311   0.847
64340W        W36011  10.736  35.953  14.455
64341W        W36012  36.907  34.671  11.073
64342W        W36013  42.563  41.497  10.118
64343W        W36014  34.363  30.198   1.424
64344W        W36015  24.556  28.540  14.084
64345W        W36016  43.039  21.996   4.964
64346W        W36017   6.576   2.414   1.310
64347W        W36018  31.823  10.255  13.554
64348W        W36019  30.165   9.188  11.479
64349W        W36020  10.765   3.688   1.870
64350W        W36021  34.915   7.206  11.830
64351W        W36022  26.553  16.933  11.824
64352W        W36023  36.984  31.173   0.342
64353W        W36024  38.834  41.069   0.077
64354W        W36025  24.570   0.306  11.117
64355W        W36026  43.962  37.030  11.655
64356W        W36027  40.891   8.807   0.833
64357W        W36028  21.239   2.245  12.015
64358W        W36029  31.989   1.873  12.354
64359W        W36030  29.334   4.992  14.012
64360W        W36031  32.991  42.548   3.205
64361W        W36032  43.262   6.749  11.409
64362W        W36033  20.897  13.838   9.847
64363W        W36034  37.037  41.993   5.008
64364W        W36035  37.998  20.557  11.863
64365W        W36036   6.818  15.672   0.820
64366W        W36037  35.088   3.494   2.990
64367W        W36038  37.016  15.722  13.654
64368W        W36039   7.352  37.636  14.896
64369W        W36040  18.962  32.556  11.419
64370W        W36041  34.466  21.150  11.833
64371W        W36042  28.941   6.915   5.367
64372W        W36043  26.562  22.025   2.336
64373W        W36044  38.470   3.925   0.471
64374W        W36045  31.558  41.812   1.358
64375W        W36046  21.048  15.707   1.501
64376W        W36047  14.133  27.135   4.927
64377W        W36048   4.336  12.917   2.078
64378W        W36049  18.655  25.498  14.770
64379W        W36050  37.491  28.621   2.355
64380W        W36051   2.602  19.158   3.959
64381W        W36052   4.194  21.034  14.460
64382W        W36053  14.168  38.544   3.385
64383W        W36054  44.497   9.136   0.547
64384W        W36055   4.858   3.281  10.382
64385W        W36056   4.770  31.565  11.470
64386W        W36057  42.016  34.168   3.187
64387W        W36058  39.998  26.773  14.960
64388W        W36059  24.231  39.238  12.040
64389W        W36060   7.631  13.732  11.575
64390W        W36061   4.273  41.424  12.662
64391W        W36062  33.716   9.619   5.110
64392W        W36063  37.424  43.586   4.037
64393W        W36064   5.861   5.404   1.787
64394W        W36065   1.015   2.922  14.958
64395W        W36066  19.362  22.066   0.361
64396W        W36067  25.593   9.131   4.787
64397W        W36068  24.468   6.646   0.208
64398W        W36069  38.842  36.471  13.785
64399W        W36070   9.316  15.747   2.404
64400W        W36071   8.686  32.277   2.287
64401W        W36072  19.262   6.239  14.461
64402W        W36073  41.501  11.604   1.959
64403W        W36074  19.594  18.825  14.464
64404W        W36075  39.954  35.009   1.795
64405W        W36076  34.045   1.226   0.856
64406W        W36077  42.927  37.217  14.500
64407W        W36078  11.343  40.253  10.639
64408W        W36079  19.756  17.642   0.898
64409W        W36080   7.488  10.852   1.352
64410W        W36081   9.076  13.602  11.540
64411W        W36082  12.306   7.341   2.952
64412W        W36083   7.667   5.240  12.531
64413W        W36084  32.779  29.531   3.102
64414W        W36085   3.273   3.395   0.971
64415W        W36086  42.709  18.115   1.496
64416W        W36087   2.256   7.750   4.986
64417W        W36088  42.248  10.828  10.644
64418W        W36089  26.713  37.008  12.976
64419W        W36090  18.918  29.786   0.681
64420W        W36091  14.811  43.904   2.352
64421W        W36092  38.370  40.535  12.876
64422W        W36093  38.148  39.220  13.543
64423W        W36094   8.936   7.299   1.856
64424W        W36095  15.717  25.996  11.479
64425W        W36096  23.937  34.037   2.606
64426W        W36097  36.759  34.473   3.643
64427W        W36098  22.099  41.466   5.402
64428W        W36099  27.596  32.136   3.256
64429W        W36100  24.612  39.538   3.839
64430W        W36101  10.849  18.752  11.441
64431W        W36102  39.940  27.441  10.660
64432W        W36103  11.796  10.821   4.382
64433W        W36104  17.638   6.365  11.520
64434W        W36105  43.011   9.337  13.082
64435W        W36106  38.535  31.166   0.366
64436W        W36107   5.827  26.895  14.754
64437W        W36108  22.673  34.173   4.217
64438W        W36109  29.730   7.906   3.755
64439W        W36110  29.161  23.964   3.627
64440W        W36111  42.958  22.659   2.917
64441W        W36112  44.033   4.668   3.304
64442W        W36113  10.929   7.637   0.899
64443W        W36114   0.235  38.302  14.476
64444W        W36115  27.197  37.814  10.573
64445W        W36116  10.836  30.025   1.458
64446W        W36117  37.104  16.065  11.484
64447W        W36118   6.221  18.695   2.715
64448W        W36119  29.660  41.770  12.585
64449W        W36120  17.061   9.212   2.565
64450W        W36121   8.810  43.826  13.985
64451W        W36122   7.010  39.978  14.249
64452W        W36123   8.672   5.661  13.314
64453W        W36124  32.996   1.333   3.365
64454W        W36125  11.280  42.945  11.095
64455W        W36126   2.007  39.984  13.316
64456W        W36127  32.777  21.086   3.223
64457W        W36128  33.167  31.099  12.497
64458W        W36129  37.537  43.001  14.055
64459W        W36130  24.200  31.565  14.337
64460W        W36131  27.160  21.503  13.333
64461W        W36132  15.986   6.863   2.474
64462W        W36133  15.709   0.864  10.909
64463W        W36134  42.435  34.873   0.229
64464W        W36135  42.929  14.801   3.123
64465W        W36136  32.984  26.723  11.609
64466W        W36137  31.166   8.718   0.521
64467W        W36138  32.063   6.269   2.832
64468W        W36139  21.030  30.149   0.698
64469W        W36140  13.893   5.689  12.438
64470W        W36141  23.819  23.143   1.646
64471W        W36142  38.999   0.370   2.863
64472W        W36143  16.862  22.255  11.057
64473W        W36144  25.328  17.037  11.831
64474W        W36145  12.322   1.009  10.740
64475W        W36146  14.568  42.340   1.226
64476W        W36147   3.897   2.331   4.933
64477W        W36148  43.277  34.044   2.889
64478W        W36149  16.080  15.324  14.272
64479W        W36150  28.445   0.256   0.224
64480W        W36151  13.580  38.328   1.397
64481W        W36152   1.884  29.579   4.148
64482W        W36153   2.735  34.481   4.631
64483W        W36154   4.390  23.107   4.703
64484W        W36155  32.957  20.065   2.208
64485W        W36156  30.217   5.461   2.011
64486W        W36157  13.670   1.038  14.644
64487W        W36158   7.894  25.167  11.521
64488W        W36159  10.152  15.262  12.667
64489W        W36160  40.005  41.924   3.923
64490W        W36161   5.758  34.914  10.607
64491W        W36162  13.203  16.046   4.302
64492W        W36163  37.314  44.987   2.274
64493W        W36164  30.421  44.024   4.233
64494W        W36165  14.111  31.391   0.193
64495W        W36166  16.126   8.352   0.415
64496W        W36167   3.431  43.883   3.848
64497W        W36168   2.326  40.897  13.526
64498W        W36169  36.053  33.441   5.031
64499W        W36170  44.951   6.723  12.300
64500W        W36171   9.685   0.915  11.558
64501W        W36172  18.700  26.043  11.963
64502W        W36173   3.904  37.309   3.121
64503W        W36174  34.594  13.231  12.369
64504W        W36175  21.710  14.085   1.376
64505W        W36176  36.359  26.454  10.386
64506W        W36177  40.547  24.387  13.734
64507W        W36178   5.852  17.149   4.019
64508W        W36179  29.357  37.332   0.229
64509W        W36180  18.344  38.445   3.245
64510W        W36181   7.034  22.004  14.101
64511W        W36182  29.495  15.582  13.511
64512W        W36183   8.725  40.072  12.662
64513W        W36184  37.942  30.435  14.972
64514W        W36185  27.180   8.415  14.859
64515W        W36186  32.859  36.504   3.299
64516W        W36187  44.240  41.788  14.177
64517W        W36188  30.528   4.941  13.365
64518W        W36189  24.619   7.937  11.660
64519W        W36190  13.804   2.378  12.468
64520W        W36191   1.976  41.471  10.769
64521W        W36192  44.890   0.248   4.715
64522W        W36193  19.674  15.571  12.080
64523W        W36194  37.209  10.621   1.661
64524W        W36195  20.435  33.796  11.190
64525W        W36196   9.202   0.735  13.899
64526W        W36197  11.282  23.106   1.413
64527W        W36198  18.477   9.772   1.813
64528W        W36199  35.641  13.032  13.375
64529W        W36200  12.188  31.460  12.412
64530W        W36201   0.723  14.840   0.361
64531W        W36202  19.128  22.394  13.560
64532W        W36203  15.332   5.272   0.541
64533W        W36204  30.781  24.811   2.234
64534W        W36205   0.212  34.402  10.685
64535W        W36206  28.351  42.596   2.742
64536W        W36207   0.152  16.724  11.203
64537W        W36208  17.558   9.850  13.627
64538W        W36209  43.499  39.879  10.683
64539W        W36210   4.416  25.422   1.798
64540W        W36211   9.486  43.507   0.199
64541W        W36212  29.707   9.517  12.695
64542W        W36213  21.942   4.810  12.842
64543W        W36214  39.812  22.370   1.172
64544W        W36215  30.859   7.365  13.978
64545W        W36216  24.148  40.255   3.768
64546W        W36217  14.258  34.036   4.073
64547W        W36218  29.163  36.535   3.919
64548W        W36219  33.135  30.453   1.792
64549W        W36220  41.395  32.892  11.193
64550W        W36221   6.472  43.244   4.395
64551W        W36222   2.877  38.328  13.500
64552W        W36223  39.727  34.596  11.155
64553W        W36224  13.175   9.270   0.109
64554W        W36225  19.559  32.399   1.028
64555W        W36226  13.638   9.719  14.374
64556W        W36227  15.042  10.863   4.602
64557W        W36228   4.506  19.620  13.823
64558W        W36229  33.942  36.785   1.793
64559W        W36230  15.680   4.387  13.820
64560W        W36231   5.112  10.264   4.221
64561W        W36232  16.975  38.799  11.565
64562W        W36233  30.090  35.135   0.387
64563W        W36234  39.220  11.307   1.081
64564W        W36235   8.150  10.703   4.366
64565W        W36236  22.994  16.642  11.110
64566W        W36237   8.633  12.734  13.104
64567W        W36238  21.787   6.853  14.897
64568W        W36239  33.180  26.003   2.272
64569W        W36240  11.544  35.393   0.466
64570W        W36241  15.558   5.143   4.695
64571W        W36242  10.239  11.138  12.596
64572W        W36243  19.881   6.349  13.000
64573W        W36244  30.316  38.551   2.843
64574W        W36245   5.803  19.899  12.210
64575W        W36246  32.842   8.428   0.848
64576W        W36247  26.703  11.571  10.855
64577W        W36248  37.256  20.720   3.217
64578W        W36249  33.439  40.593   4.649
64579W        W36250   0.006   6.499  12.938
64580W        W36251  42.500   4.818   3.113
64581W        W36252  28.067  29.516   2.770
64582W        W36253  33.293   4.098   1.489
64583W        W36254  16.155  30.478  14.399
64584W        W36255  43.296  27.110   4.396
64585W        W36256  43.802   0.327  12.053
64586W        W36257  15.220  10.831  10.986
64587W        W36258   4.876  38.879  13.685
64588W        W36259   4.645  44.220  12.925
64589W        W36260  29.182  40.035   0.308
64590W        W36261   9.568  28.173  13.775
64591W        W36262  24.314  12.943  12.190
64592W        W36263  14.699  18.061  14.314
64593W        W36264  34.448   9.888   0.201
64594W        W36265  42.219  25.444  11.309
64595W        W36266   7.837   4.023  14.013
64596W        W36267   1.925  23.493  10.489
64597W        W36268  17.995  33.552  11.871
64598W        W36269  33.053  12.103  10.661
64599W        W36270  25.247  23.226  11.048
64600W        W36271  16.544  43.271  13.488
64601W        W36272  29.195  15.800   1.208
64602W        W36273  24.236  27.546  14.389
64603W        W36274  34.294  39.190  10.615
64604W        W36275  11.309   7.339  14.390
64605W        W36276  30.540  32.173   1.194
64606W        W36277  41.520   0.340  14.570
64607W        W36278  32.631  43.324   4.684
64608W        W36279  21.904  37.059   1.980
64609W        W36280   4.429  22.134   2.689
64610W        W36281  23.089  39.900  11.294
64611W        W36282   7.350  39.048   4.094
64612W        W36283  42.632  23.171   2.698
64613W        W36284  38.533  16.175  13.633
64614W        W36285  33.957  40.545   1.168
64615W        W36286   7.696  43.832  10.956
64616W        W36287   7.636   4.836   4.707
64617W        W36288  17.705  27.232  11.122
64618W        W36289  39.997   7.390  14.038
64619W        W36290   1.938  38.041  14.754
64620W        W36291   7.434  18.906  14.429
64621W        W36292   2.722  28.267   1.340
64622W        W36293  14.809  24.026   1.211
64623W        W36294  35.454  28.701   1.339
64624W        W36295  40.600  23.553   3.820
64625W        W36296  15.278  24.944   1.356
64626W        W36297  28.744  30.867  13.348
64627W        W36298  42.031  22.188   4.575
64628W        W36299  14.028  22.469   2.272
64629W        W36300  27.434  17.684   0.360
64630W        W36301  40.783  38.965  10.636
64631W        W36302   9.785  36.390  11.430
64632W        W36303   3.389   0.249   1.788
64633W        W36304   0.777  31.540   3.311
64634W        W36305  30.104  37.944  10.784
64635W        W36306  23.770   9.136   1.284
64636W        W36307  36.643  34.145  12.950
64637W        W36308  42.006   9.244  14.075
64638W        W36309  15.249   3.395  14.103
64639W        W36310  19.234   0.441   2.206
64640W        W36311  40.926   8.658  14.831
64641W        W36312  28.474   6.288  11.058
64642W        W36313  32.689  43.534  14.757
64643W        W36314  25.143  18.679   2.307
64644W        W36315  23.615  15.163   2.808
64645W        W36316   0.668  37.651  11.391
64646W        W36317  11.069   8.881   2.072
64647W        W36318  40.564  36.143  13.947
64648W        W36319  32.827  44.250  11.506
64649W        W36320  24.499  27.074  13.090
64650W        W36321  42.926  23.435   0.971
64651W        W36322  26.285  19.072   2.443
64652W        W36323  14.274  30.797   4.876
64653W        W36324  21.788   9.770  13.805
64654W        W36325  13.872  11.746   0.554
64655W        W36326  16.863  31.912  10.410
64656W        W36327  14.161  41.382   4.748
64657W        W36328  15.742  34.852  14.982
64658W        W36329   5.440   8.838  12.883
64659W        W36330   2.020  31.548  13.821
64660W        W36331   4.434  31.476   0.422
64661W        W36332  32.502  37.861   1.748
64662W        W36333   1.812  25.694   3.732
64663W        W36334  11.532  18.680   1.938
64664W        W36335  38.130  30.351  14.491
64665W        W36336  28.023  40.294  12.336
64666W        W36337  29.569  11.700   1.319
64667W        W36338  14.618  37.889  11.483
64668W        W36339   6.298  34.124  13.367
64669W        W36340  15.119  10.737  13.486
64670W        W36341   9.921   3.956   0.032
64671W        W36342   7.144  34.305  11.091
64672W        W36343  11.470  42.165   4.428
64673W        W36344  38.574  31.454   1.323
64674W        W36345  10.389   8.126   2.793
64675W        W36346  23.134  37.984  10.617
64676W        W36347  33.522   0.369  14.106
64677W        W36348  24.459  31.404   2.280
64678W        W36349  34.511  42.466  11.833
64679W        W36350  22.282   1.334  14.295
64680W        W36351  13.096  21.234  11.941
64681W        W36352  33.909   7.351   2.420
64682W        W36353  19.593  20.507  12.576
64683W        W36354  11.399   6.233  13.799
64684W        W36355   8.917  19.658  12.748
64685W        W36356  17.702  30.460  13.874
64686W        W36357  37.566  10.667   3.635
64687W        W36358  38.356   9.796  11.474
64688W        W36359  41.141  38.959   4.561
64689W        W36360  13.242  40.497   3.608
64690W        W36361   5.352  17.877   4.524
64691W        W36362  40.574  13.921  14.809
64692W        W36363  16.117  18.404  14.794
64693W        W36364  35.612  20.613  11.575
64694W        W36365  21.848  40.937  11.116
64695W        W36366  40.859  13.595   4.558
64696W        W36367  13.913  43.176  13.873
64697W        W36368  40.427  26.000   2.320
64698W        W36369   7.170  18.545  11.168
64699W        W36370  10.836  14.620   1.051
64700W        W36371  38.035  32.961   2.894
64701W        W36372  18.434   5.871   4.057
64702W        W36373   9.215  28.242  10.224
64703W        W36374   7.166  38.429   2.674
64704W        W36375   5.333  14.010  12.710
64705W        W36376  22.543  33.148  13.322
64706W        W36377  31.485   6.320  14.103
64707W        W36378  15.060   5.388  13.983
64708W        W36379  33.175  34.956   0.360
64709W        W36380  23.597   8.321  12.944
64710W        W36381  24.398  39.686  11.204
64711W        W36382  10.911   3.917   2.830
64712W        W36383   8.855  42.254  14.075
64713W        W36384  26.505  24.126   4.592
64714W        W36385  29.097  41.537   4.834
64715W        W36386  42.567   1.363  13.110
64716W        W36387  22.658  11.266  14.369
64717W        W36388   6.130  11.723  13.771
64718W        W36389   5.833  16.669  11.223
64719W        W36390  14.685  42.573  10.981
64720W        W36391  31.673  31.365  14.900
64721W        W36392   7.877  37.536  14.844
64722W        W36393  41.838  17.190   5.032
64723W        W36394   4.842  39.379   1.000
64724W        W36395   6.558  24.340   1.806
64725W        W36396  16.822  20.475  13.458
64726W        W36397   9.093  44.831   2.328
64727W        W36398  31.997   4.241  12.488
64728W        W36399  18.329  29.129   0.171
64729W        W36400  17.664   5.729   0.889
64730W        W36401   0.466  37.815  12.295
64731W        W36402  20.048  18.888  10.682
64732W        W36403   1.365  20.035  13.470
64733W        W36404   9.200   6.711   4.716
64734W        W36405  20.329  36.377   2.413
64735W        W36406  31.320  19.514  10.732
64736W        W36407   7.292  26.101  11.505
64737W        W36408  25.939   3.697   1.333
64738W        W36409  22.713   4.199  14.036
64739W        W36410   9.770   7.050   0.895
64740W        W36411  14.896  33.020   3.336
64741W        W36412   2.406   1.761   1.833
64742W        W36413  19.732  33.461  14.725
64743W        W36414  36.921   2.883   3.733
64744W        W36415   2.655  23.446   1.738
64745W        W36416  27.522  40.745  11.194
64746W        W36417  11.122  11.068  13.619
64747W        W36418  43.766  27.154   2.267
64748W        W36419  35.411  43.221  14.352
64749W        W36420   6.426   3.065   2.667
64750W        W36421  35.822  44.889   4.163
64751W        W36422  40.976  39.880   3.045
64752W        W36423   7.936   3.057   4.083
64753W        W36424  13.992  36.366   3.059
64754W        W36425  12.733  20.917   4.973
64755W        W36426  40.641   1.486  10.600
64756W        W36427  19.743  35.623  12.589
64757W        W36428  35.507  34.119  11.686
64758W        W36429  13.382  37.271  10.380
64759W        W36430   1.891  41.947  11.850
64760W        W36431  31.622  38.973   2.866
64761W        W36432  34.590  35.644  14.000
64762W        W36433  38.902  10.607   4.547
64763W        W36434  13.742  30.317   3.828
64764W        W36435  33.907  16.794   2.037
64765W        W36436  34.425  14.645   4.402
64766W        W36437  30.072   1.824   0.456
64767W        W36438  28.818  43.436  11.592
64768W        W36439  42.086  44.841  11.021
64769W        W36440  20.944  16.680  14.011
64770W        W36441  30.873  39.491  14.971
64771W        W36442  20.041  17.495   1.371
64772W        W36443   8.715  30.656  14.941
64773W        W36444  10.833  41.340   3.190
64774W        W36445  40.457   8.936   1.770
64775W        W36446  41.211  36.797   1.640
64776W        W36447  30.882  20.730  12.033
64777W        W36448  23.537  27.730   1.283
64778W        W36449  12.384  40.276   3.319
64779W        W36450  13.179  14.488   3.650
64780W        W36451  11.646  39.567   4.171
64781W        W36452  24.309  24.288  13.041
64782W        W36453  37.433  26.952   0.545
64783W        W36454  30.038  23.417   3.339
64784W        W36455   1.380  10.111  13.636
64785W        W36456  12.408  22.758  14.367
64786W        W36457  22.439  33.313   3.200
64787W        W36458   4.386  22.935  14.970
64788W        W36459  20.843   6.265   4.443
64789W        W36460   1.387  14.625   3.136
64790W        W36461  14.834   9.952   2.218
64791W        W36462   0.867  15.026  13.907
64792W        W36463  13.539  11.255  10.973
64793W        W36464  15.147  43.212   2.870
64794W        W36465  10.149  39.607  12.146
64795W        W36466   8.401  37.052   1.253
64796W        W36467  36.427   8.785  10.294
64797W        W36468  31.799   2.669  13.861
64798W        W36469  15.838   8.345   2.914
64799W        W36470  26.392  23.556  14.063
64800W        W36471   0.017  11.778   0.857
64801W        W36472   0.538  31.104  14.982
64802W        W36473  25.342  34.267   0.868
64803W        W36474   2.738   7.101  13.389
64804W        W36475  35.492  16.776  13.878
64805W        W36476  38.170  10.702   0.449
64806W        W36477  10.193  23.090   3.871
64807W        W36478  18.871   4.479   4.246
64808W        W36479  14.719  20.257  11.919
64809W        W36480  30.563  24.094  10.825
64810W        W36481  11.082  11.002  11.982
64811W        W36482   6.770  15.652   2.137
64812W        W36483  14.566  28.965  11.893
64813W        W36484  29.369  25.929  11.102
64814W        W36485  12.375  39.357  11.227
64815W        W36486  12.906  12.784  11.105
64816W        W36487  18.734  38.529  12.445
64817W        W36488  42.778   8.147   4.194
64818W        W36489  41.939   1.028   4.781
64819W        W36490  31.658  25.773   1.304
64820W        W36491  24.240  22.874  10.195
64821W        W36492   0.614   9.808  13.135
64822W        W36493  30.372  12.795   0.821
64823W        W36494   6.825  24.721  14.860
64824W        W36495  15.351  14.845  12.892
64825W        W36496  36.332  30.918   1.930
64826W        W36497  15.823   1.307  11.144
64827W        W36498  20.251   6.678  14.809
64828W        W36499  10.917  35.930  11.197
64829W        W36500  32.587   6.281   2.978
64830W        W36501  21.039  35.428  12.523
64831W        W36502   1.332   3.530  12.361
64832W        W36503   2.853  25.926  12.990
64833W        W36504  42.577   1.525   3.271
64834W        W36505  39.832  12.615   1.345
64835W        W36506  34.506  26.958  12.946
64836W        W36507  28.756  38.435   0.497
64837W        W36508  20.966  25.654   4.339
64838W        W36509  17.672  40.450  11.919
64839W        W36510  20.540  14.981  14.517
64840W        W36511  18.810  34.108   0.240
64841W        W36512  12.178  34.360   0.420
64842W        W36513  18.174  15.989   3.092
64843W        W36514   1.331  22.241   1.856
64844W        W36515   6.889  15.830  13.469
64845W        W36516  32.069  33.965   3.460
64846W        W36517  31.068   3.349   0.332
64847W        W36518  43.573  43.172   1.206
64848W        W36519  35.425  36.843   4.975
64849W        W36520   9.409  10.812   2.363
64850W        W36521  33.851   3.594  11.090
64851W        W36522   2.397  29.996   0.290
64852W        W36523  24.194  18.147   4.658
64853W        W36524   9.892  21.193   4.755
64854W        W36525   6.176  41.387   0.357
64855W        W36526  32.493  10.012  11.569
64856W        W36527  23.704  14.615  14.479
64857W        W36528  30.193  12.213  12.643
64858W        W36529  29.648  42.506   3.715
64859W        W36530  10.878   5.740  12.470
64860W        W36531  22.046  25.141  10.431
64861W        W36532   8.361  39.553   2.331
64862W        W36533  38.935  11.550  13.149
64863W        W36534  33.684  15.696   3.081
64864W        W36535  30.864  42.418  14.872
64865W        W36536  11.484  39.751  10.552
64866W        W36537  25.519  30.420  13.480
64867W        W36538   5.656  23.672   4.490
64868W        W36539   3.285  14.660   1.788
64869W        W36540  42.891   8.254   1.782
64870W        W36541  23.604  16.411   4.306
64871W        W36542  25.412   9.199   2.331
64872W        W36543  13.575  27.503  12.180
64873W        W36544  18.562  32.388  13.884
64874W        W36545   1.818  29.300   4.591
64875W        W36546  34.549  36.437   3.659
64876W        W36547  30.991  19.836   5.039
64877W        W36548  33.592  21.759  12.610
64878W        W36549  20.989  34.016  12.510
64879W        W36550  12.105   9.950  11.200
64880W        W36551   4.927   3.763  10.197
64881W        W36552  26.621  42.609  12.460
64882W        W36553  18.281  39.949  12.594
64883W        W36554  41.562   8.380  11.662
64884W        W36555  36.131  20.610  11.573
64885W        W36556  13.477  39.029   2.935
64886W        W36557  10.118   4.891  12.796
64887W        W36558  32.247   2.771  12.958
64888W        W36559   6.123  23.117  11.591
64889W        W36560  38.766  33.026   1.322
64890W        W36561  44.317  38.620   3.041
64891W        W36562  13.728  28.441   1.587
64892W        W36563  14.616  29.155   3.861
64893W        W36564  37.829  19.791  11.235
64894W        W36565  29.902  11.266  12.929
64895W        W36566  16.560   9.629  10.866
64896W        W36567  21.959   5.237   1.978
64897W        W36568  12.777  27.763  12.955
64898W        W36569  24.238  36.481  14.275
64899W        W36570  10.778  22.229   1.270
64900W        W36571   6.841  20.632  12.941
64901W        W36572  10.649  15.080   1.953
64902W        W36573  17.250  14.398   3.298
64903W        W36574  33.925  39.788  11.654
64904W        W36575  41.875   2.228   1.102
64905W        W36576   4.292  36.824   4.858
64906W        W36577   0.294  38.449  13.374
64907W        W36578  34.568   1.921   0.850
64908W        W36579  29.128  34.946  13.689
64909W        W36580  24.714  15.870  14.959
64910W        W36581  29.463  17.242  12.989
64911W        W36582  35.865  40.471  12.998
64912W        W36583  37.618  25.134  10.652
64913W        W36584  23.196   7.811   1.575
64914W        W36585   1.346   2.222  11.255
64915W        W36586   0.943  43.862   3.312
64916W        W36587  34.004   5.116   4.511
64917W        W36588  17.584  42.555   1.726
64918W        W36589  11.583  34.848   3.765
64919W        W36590  12.875  29.551  10.659
64920W        W36591  26.230  32.055  11.265
64921W        W36592   5.626  26.058  10.916
64922W        W36593  31.675  26.276   1.343
64923W        W36594  16.953  34.153   1.440
64924W        W36595  30.667  44.832  13.078
64925W        W36596  25.919  35.508  14.808
64926W        W36597   9.462  20.959   2.865
64927W        W36598   8.753  20.722  13.429
64928W        W36599  27.929  15.884   4.130
64929W        W36600  33.027  20.320  10.952
64930W        W36601  14.835   8.182  12.615
64931W        W36602  39.365   9.816   3.172
64932W        W36603  18.279  36.369   2.070
64933W        W36604  30.537  13.345   1.933
64934W        W36605  20.200  34.484   2.482
64935W        W36606  39.929   8.836   2.258
64936W        W36607  37.095   4.612   2.677
64937W        W36608  22.311  32.036   3.294
64938W        W36609  40.525   4.688   5.115
64939W        W36610  27.582   7.034   1.090
64940W        W36611  27.548  42.272  11.935
64941W        W36612  10.687  28.918   4.586
64942W        W36613  44.670  16.105   2.082
64943W        W36614  14.701   7.167  12.043
64944W        W36615  23.136  31.981   0.973
64945W        W36616   1.905   9.068   4.945
64946W        W36617  16.143  22.219   1.892
64947W        W36618  35.398  32.199   0.366
64948W        W36619  11.759   8.287   0.510
64949W        W36620  12.292   8.390  10.486
64950W        W36621   7.325   7.631   2.565
64951W        W36622  13.616  33.549   4.256
64952W        W36623  28.507  27.982   2.598
64953W        W36624  35.838  18.021   0.992
64954W        W36625  21.199   0.255   2.775
64955W        W36626  19.634  40.825  10.561
64956W        W36627  23.070  31.187   2.390
64957W        W36628  11.973  27.537  11.175
64958W        W36629  27.875  15.829   3.194
64959W        W36630   8.802   2.811   4.008
64960W        W36631   1.781  28.086   2.554
64961W        W36632  16.694  32.931  11.506
64962W        W36633  43.985  40.208   2.751
64963W        W36634  25.012  21.395   4.232
64964W        W36635   1.004  14.816  14.910
64965W        W36636  39.103  26.281  11.378
64966W        W36637  39.839   3.941   1.302
64967W        W36638  29.853  43.717   0.746
64968W        W36639  11.344  38.740   4.203
64969W        W36640   3.429   0.908  14.542
64970W        W36641  22.541  14.572   4.399
64971W        W36642  16.747   3.308  11.943
64972W        W36643  24.470   3.155  12.557
64973W        W36644  24.940   9.396   0.942
64974W        W36645   2.311  31.666  11.525
64975W        W36646  28.487  42.079  11.169
64976W        W36647  24.079  39.738  11.872
64977W        W36648  21.930  25.245  11.462
64978W        W36649  16.454  18.179   2.660
64979W        W36650  24.961  28.936   0.406
64980W        W36651  18.771  17.808   4.754
64981W        W36652   2.233   6.871  11.482
64982W        W36653  25.031  39.355   4.132
64983W        W36654  11.383  33.431   1.810
64984W        W36655  42.749   3.415  14.502
64985W        W36656  41.424  44.410   0.350
64986W        W36657  11.820  25.987   4.146
64987W        W36658   7.459   2.228  13.339
64988W        W36659  38.347  36.930  10.669
64989W        W36660  14.558  15.976   4.864
64990W        W36661  42.374  44.619   2.696
64991W        W36662  13.650  42.306  13.936
64992W        W36663  38.785   0.382   2.375
64993W        W36664  21.592   0.981   2.756
64994W        W36665  30.758   3.212   2.062
64995W        W36666  13.150  11.060   0.316
64996W        W36667  24.647  15.614  12.841
64997W        W36668  29.988  22.809   1.424
64998W        W36669  16.042  22.692   2.625
64999W        W36670  32.961   1.739   4.214
65000W        W36671   5.484  43.368  11.953
65001W        W36672  21.742  32.390  11.078
65002W        W36673  26.059  42.655   2.334
65003W        W36674  14.467  25.285  12.607
65004W        W36675  28.793   1.395  14.280
65005W        W36676  30.999  10.717  13.411
65006W        W36677  36.049  33.091  12.143
65007W        W36678  22.518   3.387  10.704
65008W        W36679  20.451   7.616  12.472
65009W        W36680   2.650   3.403   2.281
65010W        W36681  41.252  27.682  13.900
65011W        W36682  27.154   4.454   4.924
65012W        W36683  42.369  37.244  14.332
65013W        W36684  16.240  23.990  12.735
65014W        W36685  29.892  16.002   3.681
65015W        W36686  10.577  22.614  12.033
65016W        W36687  36.741  25.069   1.000
65017W        W36688  16.814  13.803  13.837
65018W        W36689  17.002  14.782   1.599
65019W        W36690  37.342  43.465  10.507
65020W        W36691  34.585  13.203  11.857
65021W        W36692  38.788  43.851  11.938
65022W        W36693  21.765  24.512   3.122
65023W        W36694  36.260  29.051   1.833
65024W        W36695  19.578  20.643  14.381
65025W        W36696   1.450  44.690  14.735
65026W        W36697  17.456  19.027   1.790
65027W        W36698  35.578  33.043  13.513
65028W        W36699   5.945  20.969  10.193
65029W        W36700  11.685   7.773  12.983
65030W        W36701  25.148  14.694  11.204
65031W        W36702  25.453  37.107  14.897
65032W        W36703  10.678   8.100   2.336
65033W        W36704   1.014   5.311  11.370
65034W        W36705  17.703  13.629  14.718
65035W        W36706   1.665  13.312  14.297
65036W        W36707  23.137   5.390  14.525
65037W        W36708  41.817  19.990   1.127
65038W        W36709   6.411  10.144  14.904
65039W        W36710  15.811  24.730   3.775
65040W        W36711  41.327  30.400   1.022
65041W        W36712  43.726  40.348   1.852
65042W        W36713   6.816  25.974   3.503
65043W        W36714  33.184  32.581  12.355
65044W        W36715  18.289  12.685   4.085
65045W        W36716  33.524  37.769   4.244
65046W        W36717  32.550  27.374  10.446
65047W        W36718  31.223  37.545  11.715
65048W        W36719  14.880  23.671   2.926
65049W        W36720  43.323  34.676   2.235
65050W        W36721  27.628  26.453   1.890
65051W        W36722  34.344  36.031   3.888
65052W        W36723  32.001   3.328  14.996
65053W        W36724  33.552  16.833  14.751
65054W        W36725  17.470  32.159   0.035
65055W        W36726  39.261  26.576   1.391
65056W        W36727  37.646  34.107  12.872
65057W        W36728  41.865  16.147   0.785
65058W        W36729  18.784  10.938  13.715
65059W        W36730  28.009  16.838  14.893
65060W        W36731  35.973   0.951  14.664
65061W        W36732  16.146  35.349  12.615
65062W        W36733   6.917  36.911   0.386
65063W        W36734  37.112   3.843   1.331
65064W        W36735  17.069   2.773  14.772
65065W        W36736   3.517  32.032   0.829
65066W        W36737   0.311  42.174  11.850
65067W        W36738  32.936  40.411   4.663
65068W        W36739  41.554  29.303  11.176
65069W        W36740   4.667  36.221  12.628
65070W        W36741  17.721   3.667   0.934
65071W        W36742   1.669  20.233  10.672
65072W        W36743   4.661  12.809  11.892
65073W        W36744  37.489  31.934   4.931
65074W        W36745  22.209  39.071   0.039
65075W        W36746  31.402  15.948   2.762
65076W        W36747  39.240  33.446  12.615
65077W        W36748   2.493   9.578  11.937
65078W        W36749  23.108  29.772   4.101
65079W        W36750  32.464  12.543   3.791
65080W        W36751  28.560  31.444   2.688
65081W        W36752  11.199   3.915  14.437
65082W        W36753  33.175  23.700  11.501
65083W        W36754   4.778   5.956  14.376
65084W        W36755  25.979  22.028   1.628
65085W        W36756   5.461  26.767   4.614
65086W        W36757  17.635  26.957   2.807
65087W        W36758  10.666  33.676  14.634
65088W        W36759  41.276   1.373  11.954
65089W        W36760  25.994  30.529  11.986
65090W        W36761   5.855  24.732  11.443
65091W        W36762  35.832  12.242   1.392
65092W        W36763  22.059  21.260  13.487
65093W        W36764  26.765  23.128  14.363
65094W        W36765  32.304  31.612  13.109
65095W        W36766  15.172  13.675   1.667
65096W        W36767  35.084   1.640   4.940
65097W        W36768  26.971   2.138  12.963
65098W        W36769  38.573  27.971  12.367
65099W        W36770  41.061   7.667  10.658
65100W        W36771  21.570  34.856  13.983
65101W        W36772  13.523   7.765   4.287
65102W        W36773  29.314  42.030   1.310
65103W        W36774  33.609   6.099   2.240
65104W        W36775   5.150  15.173   3.688
65105W        W36776  30.933  22.252  14.334
65106W        W36777  43.437  15.775  14.767
65107W        W36778  12.383  18.641  11.655
65108W        W36779  24.226  13.435   1.653
65109W        W36780  32.835   6.025   9.831
65110W        W36781  15.680  14.639   3.715
65111W        W36782  42.651  24.018   3.648
65112W        W36783  17.568  27.432   0.170
65113W        W36784   4.162  32.890   1.855
65114W        W36785  14.139  21.855   4.191
65115W        W36786  23.260  36.386   4.160
65116W        W36787  17.294   0.883   1.009
65117W        W36788  15.105  27.165  12.944
65118W        W36789  29.737  39.064   4.383
65119W        W36790  21.254  38.222  10.133
65120W        W36791  13.132  18.744  12.943
65121W        W36792   1.527  39.622   3.232
65122W        W36793  23.945  11.010   2.371
65123W        W36794  28.479   9.895   9.848
65124W        W36795  16.219   9.858   3.430
65125W        W36796  32.920   0.540  13.814
65126W        W36797  16.735  30.043  13.578
65127W        W36798  36.028  12.065  10.736
65128W        W36799   2.838   0.969   2.708
65129W        W36800  26.909   2.316   0.889
65130W        W36801  10.064   9.898  12.938
65131W        W36802  31.966  16.901  10.155
65132W        W36803  36.565  30.841  11.631
65133W        W36804  40.079  17.123  14.852
65134W        W36805   2.231   5.436  14.830
65135W        W36806  18.404  23.757  13.210
65136W        W36807  30.148  19.255  12.333
65137W        W36808   2.994  37.983  13.907
65138W        W36809  21.502  12.962  10.308
65139W        W36810  32.067   6.608   0.271
65140W        W36811  44.127  20.603  13.964
65141W        W36812  13.786  18.353   1.225
65142W        W36813   3.308  31.090   2.477
65143W        W36814  14.671  36.617  14.602
65144W        W36815  15.268  26.560  10.991
65145W        W36816  40.214  42.489  14.499
65146W        W36817  12.678  25.803   3.810
65147W        W36818  29.789   3.427  11.608
65148W        W36819  23.761  24.035   2.176
65149W        W36820   9.689   4.153   0.854
65150W        W36821  12.579  39.418  12.554
65151W        W36822   4.400   0.981  12.136
65152W        W36823  39.063  34.036   4.710
65153W        W36824  12.719  30.219   0.443
65154W        W36825  28.504  24.696  13.380
65155W        W36826  23.539  29.404   0.322
65156W        W36827  22.825   2.760   3.850
65157W        W36828  39.046   6.981  11.180
65158W        W36829  18.144   7.635  10.432
65159W        W36830   0.927  42.876  12.021
65160W        W36831  22.552  22.662  13.471
65161W        W36832  31.931  39.475  14.366
65162W        W36833  30.969   2.631   2.604
65163W        W36834  33.145  37.463   0.447
65164W        W36835   8.397  36.237  13.650
65165W        W36836  15.027  18.752   4.032
65166W        W36837  35.305  37.209  10.239
65167W        W36838  35.384   2.998  12.591
65168W        W36839  43.020  25.112  14.870
65169W        W36840  28.427   6.964   0.098
65170W        W36841  39.530  12.188   1.317
65171W        W36842   6.341   0.740   3.333
65172W        W36843  37.760  16.476   2.251
65173W        W36844  16.763   2.567  13.983
65174W        W36845  33.455  38.395   2.636
65175W        W36846  37.901  43.405  14.082
65176W        W36847  34.154  29.172   0.393
65177W        W36848  27.163  37.584   1.837
65178W        W36849   8.372  25.065  10.678
65179W        W36850  43.761  26.151  11.653
65180W        W36851  43.885  11.282   2.140
65181W        W36852  25.964  18.167  12.011
65182W        W36853  14.415  18.158   3.294
65183W        W36854   8.409   3.840   0.950
65184W        W36855  37.556   4.788   4.793
65185W        W36856   9.354  32.852  13.565
65186W        W36857  17.619  22.150  14.562
65187W        W36858  36.084  26.139  12.675
65188W        W36859  19.293  30.242  12.484
65189W        W36860  20.671  26.932   3.306
65190W        W36861  44.215  14.862  11.511
65191W        W36862   8.287  40.473  14.596
65192W        W36863   1.143   8.506  13.588
65193W        W36864   0.861  22.821   4.315
65194W        W36865  41.010  18.585   3.026
65195W        W36866  39.568  40.960  13.950
65196W        W36867  29.666  10.627   3.112
65197W        W36868  23.434  34.073  12.326
65198W        W36869   4.730  11.354  14.302
65199W        W36870  25.060  28.391  12.885
65200W        W36871  17.984   0.033   2.566
65201W        W36872  33.395  21.165   5.391
65202W        W36873  38.418  14.898   2.773
65203W        W36874   3.911  38.941   3.829
65204W        W36875   4.974  25.905  11.595
65205W        W36876   3.425  38.479   4.545
65206W        W36877  34.063  11.104   2.307
65207W        W36878   5.210   5.626   1.466
65208W        W36879  24.745  39.885  13.795
65209W        W36880  28.019   5.188  14.469
65210W        W36881   1.755  29.577   0.042
65211W        W36882   8.446  22.963  10.656
65212W        W36883  38.010  33.461  14.974
65213W        W36884  33.002  24.732  10.489
65214W        W36885  25.573  21.472   4.312
65215W        W36886  30.362   7.297  11.717
65216W        W36887  25.997   6.023  13.775
65217W        W36888  40.520  31.054  11.202
65218W        W36889  16.484   0.881  10.926
65219W        W36890  35.123  11.792  11.546
65220W        W36891  21.202  36.779   2.815
65221W        W36892  22.421  37.848   5.014
65222W        W36893  26.352   4.030   1.312
65223W        W36894  33.039  18.781   1.532
65224W        W36895  10.640  29.392   4.786
65225W        W36896  38.898   6.744   1.290
65226W        W36897  39.764   7.255   2.195
65227W        W36898  41.850   2.751   0.735
65228W        W36899  38.785  21.026   3.748
65229W        W36900   0.891  15.989  11.592
65230W        W36901  43.981  32.963   4.652
65231W        W36902  37.825  29.078  14.887
65232W        W36903  24.434   1.928  12.389
65233W        W36904  28.653  20.064   0.521
65234W        W36905  18.062  21.736  10.803
65235W        W36906  24.201  10.509  12.118
65236W        W36907  23.534  16.443  14.784
65237W        W36908  11.085  20.502   3.877
65238W        W36909  24.653  18.786  14.382
65239W        W36910  34.821  38.061   3.169
65240W        W36911  15.664   8.476   0.672
65241W        W36912   6.687  43.840  13.349
65242W        W36913  13.896  10.883   2.209
65243W        W36914  10.808  36.285  11.544
65244W        W36915  18.724  18.263  14.395
65245W        W36916  15.291  18.279   3.361
65246W        W36917   9.785  32.244  11.633
65247W        W36918  28.784  11.187  13.832
65248W        W36919  32.827  14.619  14.902
65249W        W36920  31.766  33.480  14.084
65250W        W36921   7.362  34.864   3.920
65251W        W36922  24.641  37.870   2.641
65252W        W36923   6.629  16.648   4.118
65253W        W36924  18.761  10.233  11.546
65254W        W36925  36.018  13.144   1.133
65255W        W36926  42.306  33.891  13.373
65256W        W36927  37.483  36.821  11.553
65257W        W36928  37.416  30.391  10.824
65258W        W36929  14.308  15.693  11.441
65259W        W36930  10.098  14.789  13.887
65260W        W36931  44.763   9.891  11.951
65261W        W36932  42.075  14.273   0.354
65262W        W36933  34.475  19.573  11.871
65263W        W36934  24.229  30.684   4.078
65264W        W36935  13.366   7.142   0.364
65265W        W36936  31.095  10.444  11.205
65266W        W36937  37.783   7.312   4.575
65267W        W36938   4.780  44.990   1.266
65268W        W36939   9.462   2.454  13.625
65269W        W36940   3.864  27.765  10.594
65270W        W36941  29.082   0.248   1.089
65271W        W36942  13.369  37.413   2.208
65272W        W36943  40.823  15.093   4.845
65273W        W36944  10.765  36.530   1.772
65274W        W36945   1.419  44.212  13.523
65275W        W36946  17.474  37.084   2.070
65276W        W36947  16.009  23.722   2.937
65277W        W36948   5.527  24.475  11.728
65278W        W36949  37.706  32.384  11.617
65279W        W36950  29.536  10.089  11.147
65280W        W36951  16.143  32.436   0.294
65281W        W36952   0.802  22.571  11.008
65282W        W36953  27.358  11.264  11.608
65283W        W36954  22.791  31.943   0.455
65284W        W36955  13.750  28.604   4.067
65285W        W36956  43.377   7.234   2.226
65286W        W36957   4.980   0.622  14.336
65287W        W36958  28.986   6.875  11.278
65288W        W36959   7.314  15.630  10.207
65289W        W36960  14.286  28.062   1.667
65290W        W36961  22.704  35.200   4.733
65291W        W36962   3.973  16.228  13.754
65292W        W36963   1.154   8.442   3.620
65293W        W36964   0.815   3.862   1.840
65294W        W36965  33.228  20.097   1.285
65295W        W36966  33.649  20.392  12.445
65296W        W36967  24.114  16.810   2.654
65297W        W36968  13.604  23.597   0.378
65298W        W36969  30.908   4.924   3.625
65299W        W36970   6.687  20.192  11.147
65300W        W36971  21.002  22.626  14.776
65301W        W36972  31.111  18.361   2.980
65302W        W36973   7.314  15.916   0.801
65303W        W36974  44.255  21.652   2.276
65304W        W36975   5.265  21.485  10.703
65305W        W36976  35.708  15.770   3.677
65306W        W36977  19.741  34.844  10.627
65307W        W36978   3.843   4.624   1.452
65308W        W36979   2.967   4.123   1.800
65309W        W36980  21.208  24.086   0.286
65310W        W36981  35.726   4.899  13.304
65311W        W36982  25.214  30.033  14.955
65312W        W36983  18.934   7.890  11.208
65313W        W36984   3.661  38.074  14.545
65314W        W36985  22.243  36.362  12.196
65315W        W36986  41.273  34.763  12.878
65316W        W36987  39.883  18.086  12.569
65317W        W36988   2.792  15.267   4.232
65318W        W36989  41.471   4.343  12.822
65319W        W36990  38.118  29.143  10.943
65320W        W36991  28.179  41.926   4.112
65321W        W36992  28.016   8.393  13.974
65322W        W36993  27.645   1.204   1.772
65323W        W36994   8.414  18.356  13.213
65324W        W36995  35.079  10.386  11.491
65325W        W36996  15.651   9.239   0.009
65326W        W36997  32.017  16.910   0.348
65327W        W36998  24.222   7.329   2.128
65328W        W36999   3.443  17.597   0.716
65329W        W37000  40.670  34.958   3.320
65330W        W37001   9.060   2.781   1.243
65331W        W37002  23.271  30.200  14.884
65332W        W37003  34.688  37.845   0.468
65333W        W37004   2.016  35.135   0.963
65334W        W37005  10.853  32.584   0.681
65335W        W37006  42.841  10.666   3.114
65336W        W37007  32.492  41.435  10.664
65337W        W37008  28.157  30.506   4.165
65338W        W37009  31.924  16.393   0.491
65339W        W37010  38.456  38.151   0.498
65340W        W37011  27.598   2.513  14.107
65341W        W37012  43.931  17.658  13.424
65342W        W37013  34.842  25.125   4.142
65343W        W37014  39.827  32.197   0.900
65344W        W37015  29.474   2.880  14.775
65345W        W37016  22.186   8.912  11.477
65346W        W37017  14.626  20.170   4.249
65347W        W37018  32.943  13.997  12.117
65348W        W37019  32.120  30.419  14.830
65349W        W37020  11.901  11.424  13.864
65350W        W37021  13.643  18.633  10.894
65351W        W37022   6.637  34.237   3.627
65352W        W37023   1.294  18.723   3.303
65353W        W37024   4.654  11.582  11.150
65354W        W37025  30.593  29.011   0.430
65355W        W37026  42.856  30.823   2.241
65356W        W37027  21.458  22.955   3.729
65357W        W37028  34.006  10.429   1.884
65358W        W37029  28.718  17.971  12.657
65359W        W37030  36.704  32.071  11.443
65360W        W37031  17.798  12.933  11.393
65361W        W37032   3.374  13.849  14.930
65362W        W37033  16.417   5.849  12.081
65363W        W37034  23.909  37.116  12.866
65364W        W37035  42.183   5.333   3.373
65365W        W37036  30.669  39.767   3.282
65366W        W37037  11.294   3.666   4.602
65367W        W37038   0.793  30.675   0.147
65368W        W37039  32.963  21.185  11.284
65369W        W37040  26.536  38.111  11.694
65370W        W37041  43.927  23.235   1.843
65371W        W37042  10.725  23.135  12.873
65372W        W37043  29.135  17.727   1.790
65373W        W37044  38.362  40.079  11.988
65374W        W37045   7.271   1.002  13.952
65375W        W37046   2.854  22.755   3.421
65376W        W37047  16.789  21.247   3.775
65377W        W37048  10.167  35.055  10.453
65378W        W37049  29.808   6.674  13.476
65379W        W37050  34.056   8.662   1.607
65380W        W37051  43.171  22.056   0.959
65381W        W37052  31.092  15.856  12.178
65382W        W37053  28.704  23.656  11.163
65383W        W37054   7.355   9.036  14.867
65384W        W37055   8.407  42.524  14.921
65385W        W37056   1.870   5.814   0.293
65386W        W37057  12.687   4.552   3.751
65387W        W37058   0.116  31.459   1.735
65388W        W37059  28.361  27.673   2.191
65389W        W37060  23.814  40.577   1.748
65390W        W37061  41.261   3.898   0.483
65391W        W37062  43.739  33.078  11.182
65392W        W37063  10.792  33.462   0.472
65393W        W37064   1.439  38.789   4.524
65394W        W37065   4.236   9.121  12.171
65395W        W37066  20.448  24.618   0.377
65396W        W37067  11.230  23.658  14.781
65397W        W37068  18.606  30.080  14.709
65398W        W37069  19.211  17.797  10.690
65399W        W37070  16.884  43.324  11.270
65400W        W37071  28.656  12.102   1.877
65401W        W37072  22.773   7.183   3.265
65402W        W37073   6.178  32.828  12.959
65403W        W37074  38.728   0.937   4.063
65404W        W37075  10.687  25.521   2.749
65405W        W37076  38.003  30.801   3.984
65406W        W37077  10.368  28.614  13.014
65407W        W37078  10.831  18.012  12.107
65408W        W37079  36.432  36.794   3.336
65409W        W37080   4.783  29.695   0.775
65410W        W37081  21.732  27.936   3.351
65411W        W37082   9.459   5.430   1.433
65412W        W37083   1.935  38.285   0.258
65413W        W37084  38.028   8.420   1.029
65414W        W37085  37.764  26.131   3.554
65415W        W37086  18.813  34.776   3.387
65416W        W37087  20.000  27.119  11.413
65417W        W37088  39.440  38.818  10.692
65418W        W37089  31.713   2.929  11.636
65419W        W37090   1.861  43.219   0.441
65420W        W37091  35.443  41.802   3.135
65421W        W37092  26.803  35.333  13.336
65422W        W37093  13.245  20.746  11.949
65423W        W37094  31.582  32.923  11.998
65424W        W37095   9.386  18.651  11.186
65425W        W37096  22.673  15.132   3.696
65426W        W37097  28.952  33.131   2.591
65427W        W37098   0.049  22.687  11.520
65428W        W37099   2.008  44.741   3.908
65429W        W37100  35.151  17.324  12.560
65430W        W37101  37.693  18.996   0.148
65431W        W37102  12.615   4.890  11.961
65432W        W37103  21.206  29.578  14.440
65433W        W37104  40.944   1.904   2.097
65434W        W37105  29.377  30.716   2.356
65435W        W37106  39.979  15.044  11.583
65436W        W37107  28.000  33.067   1.952
65437W        W37108  12.217  37.275  14.207
65438W        W37109  17.898  23.319   3.050
65439W        W37110  42.874  34.497  14.671
65440W        W37111  12.870  34.013   4.025
65441W        W37112  14.045  12.310  11.574
65442W        W37113   3.681  38.939  11.623
65443W        W37114   5.784   5.660   0.828
65444W        W37115  43.495  20.807  11.417
65445W        W37116   1.792  12.483   2.746
65446W        W37117  34.609  39.391  13.769
65447W        W37118  14.740   4.167   3.121
65448W        W37119  15.334  43.758   4.147
65449W        W37120   8.428  16.710   2.644
65450W        W37121   1.269  23.696   1.760
65451W        W37122  44.787  28.731   3.225
65452W        W37123  16.570  37.413   3.634
65453W        W37124   7.743  42.384   4.822
65454W        W37125  12.962  20.924   4.499
65455W        W37126  35.755  33.645   1.155
65456W        W37127   4.816   3.267   0.231
65457W        W37128   9.337  39.699  14.933
65458W        W37129  21.012  43.531  13.266
65459W        W37130   7.906  18.109  14.899
65460W        W37131   3.811  17.272  14.383
65461W        W37132  41.550  26.366   5.392
65462W        W37133  38.538  29.065  13.793
65463W        W37134  12.746  18.566  11.292
65464W        W37135  17.549  41.092  12.544
65465W        W37136  39.114  19.212  12.007
65466W        W37137  44.312  14.801  14.784
65467W        W37138   3.719   3.738   0.258
65468W        W37139  29.716  40.256  13.463
65469W        W37140  14.931  13.810   4.370
65470W        W37141   6.642  43.427   3.645
65471W        W37142   8.273  14.736   2.163
65472W        W37143  21.422  12.718   1.846
65473W        W37144  29.964  20.890   0.844
65474W        W37145  11.799   5.508  10.654
65475W        W37146   7.782  40.382  10.012
65476W        W37147  36.483  23.030   0.821
65477W        W37148  18.604  30.098  11.357
65478W        W37149  44.297  36.576   4.196
65479W        W37150   9.232  23.131  14.103
65480W        W37151  26.434  21.655   1.721
65481W        W37152  40.511  14.140  11.691
65482W        W37153  33.159  17.696  14.315
65483W        W37154  41.580  38.105   3.248
65484W        W37155   7.391   7.163  10.699
65485W        W37156  11.818  30.381  14.275
65486W        W37157  16.858  42.838  13.564
65487W        W37158  14.093   8.101  11.408
65488W        W37159  30.926  30.404  14.179
65489W        W37160  16.545   2.935   4.058
65490W        W37161  41.788  14.100  11.015
65491W        W37162  36.980   7.420  12.587
65492W        W37163  28.903  20.040   2.183
65493W        W37164   5.335  44.367   1.573
65494W        W37165  12.807  21.714   4.302
65495W        W37166  20.505  32.159   2.394
65496W        W37167  25.656   4.442  13.512
65497W        W37168   0.806   1.189   0.106
65498W        W37169   3.705  15.193   4.334
65499W        W37170  21.126  13.355  14.830
65500W        W37171   2.926  42.517   4.240
65501W        W37172   2.864  18.756   4.288
65502W        W37173  25.459   2.308   0.820
65503W        W37174  43.250   3.314   3.662
65504W        W37175  26.672  43.747   1.892
65505W        W37176  44.709  11.326   1.752
65506W        W37177   7.977  41.391  14.984
65507W        W37178  35.814  31.398  11.874
65508W        W37179   9.931   4.818   2.110
65509W        W37180  24.498   2.192   4.058
65510W        W37181  15.150  31.656  13.431
65511W        W37182  24.718  18.246  12.491
65512W        W37183   5.740  37.025   0.851
65513W        W37184  27.208  28.772   1.799
65514W        W37185  37.275   4.039   0.842
65515W        W37186  13.734  35.180  13.117
65516W        W37187  40.601  26.897   0.009
65517W        W37188  13.667  25.285   0.900
65518W        W37189  18.190   4.973   4.675
65519W        W37190  20.732  31.548  14.760
65520W        W37191  40.222  43.094  11.014
65521W        W37192   4.156   6.936  11.378
65522W        W37193   6.358  32.354  13.186
65523W        W37194   6.338  23.619  14.240
65524W        W37195  43.806   0.802   1.644
65525W        W37196  41.915  36.695   0.915
65526W        W37197  43.320  23.135  10.885
65527W        W37198   6.925  21.708  11.014
65528W        W37199  24.057  15.550   3.329
65529W        W37200  37.787  29.989  14.224
65530W        W37201  34.974  33.427  10.387
65531W        W37202  44.214  36.036  12.481
65532W        W37203  18.529  22.026  14.885
65533W        W37204  34.612  17.324  14.044
65534W        W37205  16.326  23.122  14.334
65535W        W37206   3.250  22.424  14.149
65536W        W37207  39.872  22.143   3.644
65537W        W37208   7.499  42.389   0.875
65538W        W37209  42.591  13.759   9.721
65539W        W37210   9.730  43.183   4.151
65540W        W37211  33.664  20.623  11.109
65541W        W37212  26.491  18.276  11.556
65542W        W37213  24.717   5.539   0.933
65543W        W37214   2.097  23.971   0.570
65544W        W37215  38.601   4.151   3.751
65545W        W37216  10.281  37.051  10.702
65546W        W37217  39.858   4.943  10.022
65547W        W37218  36.947  18.800   0.776
65548W        W37219  37.797  38.152   0.768
65549W        W37220  17.756  13.567   4.124
65550W        W37221  28.249  29.141   5.068
65551W        W37222  30.474   9.573  11.231
65552W        W37223  39.923  28.779   0.422
65553W        W37224  36.126  39.971   2.746
65554W        W37225  13.651  28.851   4.508
65555W        W37226  38.106   5.815  13.801
65556W        W37227  39.995  35.875  13.462
65557W        W37228  19.140  23.677   2.573
65558W        W37229  43.469  37.567   3.902
65559W        W37230   8.574  41.946   1.266
65560W        W37231  21.345  29.267   4.432
65561W        W37232  27.603   5.843  12.775
65562W        W37233   3.883  41.542   0.232
65563W        W37234  18.670   2.007   0.448
65564W        W37235  40.993   7.278  13.988
65565W        W37236  40.481  42.437   2.231
65566W        W37237  35.391  20.069   3.066
65567W        W37238  23.249  36.039  11.620
65568W        W37239  34.482  17.559  14.517
65569W        W37240   0.375  44.106  13.802
65570W        W37241  19.268  44.100   1.260
65571W        W37242   7.865  41.903   0.033
65572W        W37243  34.562   5.311  14.424
65573W        W37244  33.677  11.908   5.101
65574W        W37245   5.726  17.720   1.594
65575W        W37246  36.330   8.767   4.624
65576W        W37247  25.467  19.187  14.781
65577W        W37248  18.710  10.940   3.196
65578W        W37249  38.923  11.649  12.084
65579W        W37250  14.696  32.164   1.304
65580W        W37251  42.710  11.426   0.766
65581W        W37252  18.407  23.240  13.031
65582W        W37253  29.353  13.607  11.171
65583W        W37254  35.162   1.550  10.366
65584W        W37255  17.292  39.794  12.395
65585W        W37256  36.817   3.261  13.924
65586W        W37257  27.037  25.460  14.478
65587W        W37258  19.529  24.217   4.991
65588W        W37259  23.091  24.974  14.606
65589W        W37260  43.253  29.962   0.497
65590W        W37261  44.844  20.490   2.794
65591W        W37262  28.570  43.865  13.406
65592W        W37263  25.126  20.767   2.376
65593W        W37264  30.069  19.798   2.274
65594W        W37265  13.283  17.658  14.324
65595W        W37266  18.805   5.672   1.270
65596W        W37267  28.356  31.667  14.461
65597W        W37268  36.326  10.156   2.282
65598W        W37269  35.325  25.458   3.292
65599W        W37270  41.606   1.845  12.034
65600W        W37271   4.213   6.795   1.648
65601W        W37272   5.262  38.140   0.188
65602W        W37273  27.278  32.995  13.592
65603W        W37274  43.903  24.491   3.653
65604W        W37275   8.989  28.400  11.675
65605W        W37276  34.577  35.538   4.721
65606W        W37277  22.688   2.300  13.904
65607W        W37278   9.653  33.295   4.518
65608W        W37279  13.064   0.898   5.103
65609W        W37280  12.032  30.640  10.673
65610W        W37281  30.879  35.110  12.569
65611W        W37282  36.018  23.161   1.048
65612W        W37283  26.409  33.703  12.727
65613W        W37284  18.113  34.985  12.987
65614W        W37285   5.241  26.653  12.459
65615W        W37286  42.804  39.042   3.659
65616W        W37287  21.031  10.828  11.595
65617W        W37288  34.889   3.553  12.017
65618W        W37289  44.768   1.988   0.967
65619W        W37290  28.703   4.335  11.602
65620W        W37291  39.871   3.275  11.988
65621W        W37292  26.027   5.303   4.397
65622W        W37293   6.939   6.856   1.590
65623W        W37294   3.406  37.510  14.206
65624W        W37295  31.901   2.232  10.699
65625W        W37296  25.627  24.214  13.834
65626W        W37297   0.744  19.359  10.687
65627W        W37298   6.294  16.337   2.162
65628W        W37299  23.134   1.670  11.965
65629W        W37300  21.940  37.603  11.155
65630W        W37301  10.859  25.134  12.076
65631W        W37302  42.969  42.733   3.818
65632W        W37303  33.815  15.208  12.627
65633W        W37304  32.953  44.522  12.971
65634W        W37305  43.511   0.294   3.171
65635W        W37306  20.562  14.045   3.717
65636W        W37307  37.606  32.375  14.319
65637W        W37308  42.843   3.953  13.794
65638W        W37309   0.225   8.515  12.105
65639W        W37310  29.613  43.168  10.934
65640W        W37311   9.712  41.377   4.681
65641W        W37312  20.588   1.387   2.412
65642W        W37313  39.021   1.414  14.097
65643W        W37314   2.167   1.429  13.275
65644W        W37315  35.031  38.633  13.990
65645W        W37316   6.747  34.353  13.387
65646W        W37317  25.634  33.477   4.608
65647W        W37318  15.848  26.717   0.359
65648W        W37319  37.042  31.424   4.622
65649W        W37320  22.114  19.544   4.229
65650W        W37321  28.667  26.921  12.044
65651W        W37322  38.544   2.364  11.650
65652W        W37323  14.262  41.278  14.339
65653W        W37324   1.287  23.479   4.701
65654W        W37325  17.663  39.627   4.086
65655W        W37326  35.407   8.162  10.725
65656W        W37327  34.606  28.890  12.085
65657W        W37328   7.733  12.409   4.014
65658W        W37329  30.568  20.464   0.623
65659W        W37330  16.096   9.011   3.240
65660W        W37331  30.569  38.604  11.178
65661W        W37332  25.968  22.793   0.347
65662W        W37333   9.616  34.483   0.284
65663W        W37334  24.553  11.307   2.933
65664W        W37335  27.305  28.351  14.400
65665W        W37336  32.863  42.249   2.259
65666W        W37337  36.891  32.459  12.694
65667W        W37338  34.918  17.673   0.779
65668W        W37339  38.783  38.022   4.432
65669W        W37340  19.343  12.701   4.096
65670W        W37341  37.461   2.318   0.741
65671W        W37342  34.965  38.860   5.422
65672W        W37343  24.837  42.042   4.353
65673W        W37344  13.295  44.110   2.823
65674W        W37345  10.123   7.607  10.660
65675W        W37346  36.877  20.885  10.458
65676W        W37347  24.958  18.821  12.531
65677W        W37348  19.386  28.042   2.915
65678W        W37349  44.881  15.234   3.293
65679W        W37350  20.986  37.468   1.858
65680W        W37351  18.092  22.048   2.114
65681W        W37352  38.727   2.713  12.315
65682W        W37353  27.037  34.911  11.497
65683W        W37354  36.747  39.536  13.510
65684W        W37355  12.907   1.888  11.702
65685W        W37356  31.987   4.726   2.290
65686W        W37357  26.197  33.419   0.506
65687W        W37358   0.654   6.496  12.521
65688W        W37359   4.392  13.043  12.246
65689W        W37360  39.115   5.283  13.578
65690W        W37361  12.742   5.376  13.754
65691W        W37362  29.558  30.487   4.144
65692W        W37363   3.230  23.976  12.146
65693W        W37364  24.685  11.564   1.338
65694W        W37365  28.222  13.513   0.292
65695W        W37366  10.616  10.721  14.293
65696W        W37367  30.240   1.885  11.139
65697W        W37368  38.608  18.525   0.196
65698W        W37369  40.391   4.690   3.690
65699W        W37370  40.301   4.363   2.942
65700W        W37371  38.300   9.106   4.268
65701W        W37372   1.006  29.323   2.219
65702W        W37373  31.960  11.019  13.003
65703W        W37374  43.989  15.677  11.747
65704W        W37375  44.789  41.405  11.404
65705W        W37376  16.565  34.927   0.568
65706W        W37377  26.202  44.851  12.258
65707W        W37378   5.685   8.616   0.838
65708W        W37379  44.417   9.206  12.795
65709W        W37380  35.499  44.087  12.010
65710W        W37381  18.717   6.829  14.117
65711W        W37382  20.043   5.983   3.674
65712W        W37383  14.666  16.338  13.425
65713W        W37384   8.755  10.554  12.690
65714W        W37385  40.013  18.557   4.668
65715W        W37386   2.780  31.017   0.264
65716W        W37387  38.427  30.724   1.873
65717W        W37388  30.271  12.515   3.410
65718W        W37389   7.194  34.027  11.526
65719W        W37390  30.106  37.667  10.356
65720W        W37391  25.569  33.696   9.963
65721W        W37392  23.102  26.760  14.404
65722W        W37393  25.235  29.512  10.790
65723W        W37394  40.790  28.831   0.512
65724W        W37395  37.431   8.416  11.571
65725W        W37396  15.409   5.262  14.363
65726W        W37397  31.751  26.789  11.844
65727W        W37398  14.766  41.485  14.843
65728W        W37399  38.828  23.981   3.749
65729W        W37400  43.933  12.729  11.105
65730W        W37401   6.187   6.692   0.503
65731W        W37402  21.473  30.626  10.866
65732W        W37403   4.577   1.146  13.893
65733W        W37404  31.701  11.705  14.867
65734W        W37405  26.451  13.160  10.756
65735W        W37406   8.851  31.580   0.565
65736W        W37407  27.189  35.372   1.191
65737W        W37408  12.088   2.312  14.021
65738W        W37409  41.803  39.928   3.379
65739W        W37410   8.023   8.293   2.839
65740W        W37411  35.126   5.866  13.032
65741W        W37412   5.529  40.919  14.306
65742W        W37413   3.720  25.157  11.635
65743W        W37414  35.552  30.254  13.974
65744W        W37415  36.800  38.946  12.113
65745W        W37416  31.383  36.674   2.359
65746W        W37417  40.931  30.420  14.264
65747W        W37418   4.850  34.363  10.729
65748W        W37419  21.290  21.023   1.693
65749W        W37420  26.063  22.214  14.226
65750W        W37421  25.791  29.063   2.639
65751W        W37422  25.111  23.563   4.068
65752W        W37423  27.221  42.047  12.719
65753W        W37424  13.849  38.542   0.845
65754W        W37425  44.346  26.494  10.155
65755W        W37426  13.119   9.489   2.967
65756W        W37427  11.688  17.301  12.291
65757W        W37428   0.784  22.147   4.617
65758W        W37429  32.718  20.451  13.322
65759W        W37430  27.046   3.403  12.553
65760W        W37431  40.501   4.222   3.880
65761W        W37432   6.052   5.231   2.767
65762W        W37433  39.577  11.103  11.089
65763W        W37434   6.940   0.974  13.416
65764W        W37435  35.526  36.961   1.868
65765W        W37436  33.880  13.370  14.369
65766W        W37437   6.143   5.126   4.156
65767W        W37438  15.767  26.747  10.947
65768W        W37439  24.032  37.974   0.550
65769W        W37440  43.330  43.429   3.010
65770W        W37441   7.187  42.956  11.095
65771W        W37442  23.709  42.038  11.650
65772W        W37443  35.446  44.061   3.971
65773W        W37444   7.841  19.276  12.023
65774W        W37445   7.069  44.388   3.815
65775W        W37446  33.404  44.891   1.410
65776W        W37447  11.327   8.324   0.160
65777W        W37448  34.391  22.082   3.916
65778W        W37449  23.562  33.541  11.024
65779W        W37450  24.572   1.877   1.832
65780W        W37451  38.569  32.431   4.512
65781W        W37452  27.560  19.530   1.951
65782W        W37453  17.189  12.246  10.535
65783W        W37454  11.327   9.144   4.640
65784W        W37455  35.313   0.980  14.714
65785W        W37456   8.803  33.610   5.003
65786W        W37457  38.735  30.938   2.623
65787W        W37458  44.136   6.662   4.508
65788W        W37459  27.279  37.271  14.922
65789W        W37460  24.220  39.216   3.711
65790W        W37461  12.573  29.402  11.116
65791W        W37462  15.189  15.201   4.026
65792W        W37463  19.108  41.080   1.707
65793W        W37464  35.125  27.174   3.616
65794W        W37465  17.879   7.355   3.701
65795W        W37466  38.765  15.029  14.498
65796W        W37467  25.556  16.706  13.183
65797W        W37468  16.115  26.415   1.597
65798W        W37469  23.576  17.636   1.704
65799W        W37470  35.822  17.815  14.411
65800W        W37471  37.859   8.968   4.513
65801W        W37472  16.713  37.092  10.649
65802W        W37473   9.305   2.806   0.210
65803W        W37474  21.759  37.824  13.077
65804W        W37475  43.515  41.496  12.169
65805W        W37476   0.286  10.411   2.756
65806W        W37477  13.071   7.635   2.634
65807W        W37478  31.687  34.043  10.500
65808W        W37479  35.421  38.918   0.959
65809W        W37480  19.412  14.058   2.429
65810W        W37481  10.538   9.397   1.565
65811W        W37482  42.251   5.296   4.356
65812W        W37483  25.793  25.046   4.964
65813W        W37484  27.632  30.245  12.144
65814W        W37485  18.631  10.296   2.870
65815W        W37486  17.179  34.857  14.910
65816W        W37487  41.373  32.916   1.460
65817W        W37488   6.721  32.409   0.510
65818W        W37489   3.643  33.811  14.376
65819W        W37490   5.302   1.438   1.391
65820W        W37491   9.793  18.179  14.074
65821W        W37492   5.520  41.714   4.128
65822W        W37493  30.033  19.205  14.906
65823W        W37494  40.030  38.816  12.866
65824W        W37495   6.829  13.868  13.861
65825W        W37496  16.690   3.379   2.771
65826W        W37497  27.644  20.658   2.847
65827W        W37498  29.717   4.825  14.939
65828W        W37499  37.359  27.072   2.478
65829W        W37500  34.720  28.226   4.484
65830W        W37501  37.768  22.070  14.311
65831W        W37502   8.601  22.233   3.310
65832W        W37503  43.264   0.774  11.660
65833W        W37504  44.633   3.785   2.872
65834W        W37505  20.905  39.129   4.148
65835W        W37506  44.756  37.554   0.339
65836W        W37507   4.895  18.021  10.748
65837W        W37508  21.233   3.674   3.901
65838W        W37509  30.556  23.440  14.973
65839W        W37510  39.861  39.470  13.174
65840W        W37511   0.918  39.784  14.367
65841W        W37512  19.428   7.836   0.841
65842W        W37513  33.577  16.697   2.884
65843W        W37514  27.940  33.722  11.116
65844W        W37515   7.293  10.257   4.766
65845W        W37516  28.613  44.253  14.316
65846W        W37517  13.068  34.522   2.579
65847W        W37518  27.918  23.351  12.349
65848W        W37519  32.024   1.964   2.765
65849W        W37520  35.975  39.177   4.110
65850W        W37521  29.569   7.409  10.280
65851W        W37522  17.731   2.056   1.131
65852W        W37523   8.042  40.886   2.669
65853W        W37524   1.774  36.295   0.437
65854W        W37525  22.562   8.307   2.799
65855W        W37526  22.103  24.905  13.295
65856W        W37527   4.742  34.607   2.249
65857W        W37528   5.280  38.062   0.957
65858W        W37529  10.922  19.056  13.394
65859W        W37530  30.575   6.580   3.164
65860W        W37531   6.175  33.548   2.671
65861W        W37532  23.326  19.648  11.082
65862W        W37533  26.196  41.845   2.666
65863W        W37534  25.438  25.763  12.893
65864W        W37535  28.319  44.461   2.568
65865W        W37536  10.335  12.032   1.377
65866W        W37537   2.681   8.879   4.225
65867W        W37538   3.210  19.628  12.203
65868W        W37539  14.784  43.180   3.504
65869W        W37540  19.080   7.269   4.560
65870W        W37541   5.569   3.013  14.957
65871W        W37542  41.857  43.929  11.419
65872W        W37543  39.947  17.524   3.655
65873W        W37544  33.069   0.447   1.482
65874W        W37545  14.341   8.677  10.650
65875W        W37546  17.090  32.431  10.329
65876W        W37547  30.575  25.590   4.178
65877W        W37548  16.526  17.082   4.507
65878W        W37549  13.733   4.191   3.144
65879W        W37550  13.321  27.375  14.471
65880W        W37551  16.582  19.260  10.675
65881W        W37552  36.771   8.439  11.323
65882W        W37553  42.331  14.272   0.963
65883W        W37554  31.857  22.257   4.821
65884W        W37555  19.983  17.595   0.435
65885W        W37556   9.135  25.038  14.045
65886W        W37557   3.895  10.406   1.695
65887W        W37558   7.471  23.243   4.481
65888W        W37559  29.336  20.309  14.393
65889W        W37560  36.400   6.772   1.735
65890W        W37561   6.722   0.352   4.098
65891W        W37562  35.090  22.248   0.480
65892W        W37563  31.887   1.456  14.474
65893W        W37564  30.209  40.402  13.551
65894W        W37565  43.220  17.245  14.649
65895W        W37566   6.739  27.945  13.777
65896W        W37567  16.120   0.429   1.301
65897W        W37568   4.333   2.781  10.648
65898W        W37569  16.365   7.588  11.932
65899W        W37570  28.753  31.406  11.127
65900W        W37571  35.685   2.227   3.792
65901W        W37572  24.290   0.960   4.099
65902W        W37573  16.547  28.684   1.350
65903W        W37574  16.763  13.661  10.298
65904W        W37575  21.760   8.316   4.147
65905W        W37576   9.133  35.393   0.154
65906W        W37577  36.330  25.502   4.192
65907W        W37578  29.029  42.923   2.228
65908W        W37579  42.889  14.405  14.981
65909W        W37580  22.659  11.283  11.985
65910W        W37581  19.808  15.831   1.919
65911W        W37582  14.538  27.050  12.018
65912W        W37583  35.735   6.892  12.921
65913W        W37584  33.924  43.430  12.379
65914W        W37585  38.500  30.466   1.366
65915W        W37586  42.923  13.642  13.837
65916W        W37587  26.163  37.389   3.429
65917W        W37588   4.152   8.436   2.354
65918W        W37589  15.826  13.894  13.936
65919W        W37590   1.596  34.144   0.704
65920W        W37591  30.337  38.638   4.577
65921W        W37592  24.096  15.255   4.722
65922W        W37593  19.786  13.296   0.411
65923W        W37594  25.045  19.596  11.636
65924W        W37595  40.532   6.350  13.071
65925W        W37596   5.925  33.700  12.063
65926W        W37597  21.098  28.982  13.408
65927W        W37598  14.822   0.536   0.882
65928W        W37599  42.900   7.497  13.247
65929W        W37600   5.230   5.637  14.532
65930W        W37601  34.045  27.675  10.982
65931W        W37602  16.049  30.666  12.500
65932W        W37603   1.213  19.297  13.886
65933W        W37604  13.070  34.828  13.364
65934W        W37605  12.093  33.063   3.694
65935W        W37606  28.029  11.125   4.625
65936W        W37607  21.534   6.790   3.110
65937W        W37608  36.053  29.544   2.042
65938W        W37609  41.612  30.610  13.791
65939W        W37610   2.364  30.714   0.369
65940W        W37611  16.075  20.429   1.338
65941W        W37612  26.273  28.596  14.693
65942W        W37613   0.205  44.478  12.951
65943W        W37614  34.556  17.068  11.913
65944W        W37615  11.374  29.960   0.408
65945W        W37616   3.330  38.553   2.626
65946W        W37617  38.926  40.810   1.011
65947W        W37618   2.073  20.849  13.418
65948W        W37619  24.509   9.200   2.232
65949W        W37620  21.681  20.205  11.253
65950W        W37621  19.475  40.617  12.603
65951W        W37622  44.277  41.150  10.430
65952W        W37623  18.049  22.165  12.156
65953W        W37624  43.049   5.054  11.334
65954W        W37625  21.738  40.616  11.516
65955W        W37626  23.650  14.168   4.246
65956W        W37627  11.706   8.698  12.098
65957W        W37628   4.761  39.344  14.620
65958W        W37629  24.010  24.084  11.242
65959W        W37630  33.648  18.363  10.306
65960W        W37631  15.706   6.886   3.732
65961W        W37632  35.492  32.565   1.788
65962W        W37633  34.457   4.215   2.072
65963W        W37634  35.007   8.975   2.711
65964W        W37635  24.695  42.355  13.533
65965W        W37636  42.928  12.931   3.527
65966W        W37637  44.780  37.104   1.859
65967W        W37638  14.071  27.663   2.334
65968W        W37639  35.122  42.390  13.104
65969W        W37640  40.425  19.142   1.408
65970W        W37641  11.236  16.622   1.918
65971W        W37642  30.761  35.821   4.348
65972W        W37643   2.908  41.892  12.837
65973W        W37644   4.620  35.633  12.971
65974W        W37645  44.819  25.111  13.436
65975W        W37646  22.051  43.967   1.412
65976W        W37647  39.470  39.563   0.752
65977W        W37648   4.258   4.336  13.983
65978W        W37649  35.008   7.883   2.311
65979W        W37650  43.103   3.822   0.827
65980W        W37651  35.465   3.486  12.482
65981W        W37652  20.093  12.060  10.123
65982W        W37653  29.144  25.441  13.414
65983W        W37654  37.007   9.638   2.292
65984W        W37655  41.570  29.967  12.540
65985W        W37656  12.259  31.008  10.949
65986W        W37657  43.055  10.148  13.922
65987W        W37658  31.618   0.919   1.169
65988W        W37659   7.733   6.180   3.615
65989W        W37660   3.451  10.536  13.759
65990W        W37661  28.514  32.492  11.551
65991W        W37662  23.252   4.779  11.153
65992W        W37663  22.565  37.808   2.354
65993W        W37664  34.945  14.279  11.066
65994W        W37665  38.113  33.257   2.478
65995W        W37666  39.997  15.254  14.888
65996W        W37667  16.018  31.938   4.109
65997W        W37668  34.548  42.521   0.963
65998W        W37669  11.571  20.643   3.750
65999W        W37670   2.246  15.660  12.335
66000W        W37671  28.952  44.760   0.971
66001W        W37672  29.073  22.950  11.251
66002W        W37673  11.615  37.837   1.801
66003W        W37674   1.457  24.150  11.181
66004W        W37675   9.604   9.880   2.390
66005W        W37676  35.971  25.098  13.828
66006W        W37677   4.070  37.838   2.272
66007W        W37678  38.119  35.694  14.463
66008W        W37679  40.373  23.495  12.946
66009W        W37680  32.183  43.365  11.095
66010W        W37681  34.892   1.760   4.450
66011W        W37682  17.144  17.581  14.463
66012W        W37683   0.872  29.404   3.119
66013W        W37684  13.291  29.557   2.481
66014W        W37685  16.628  22.598   2.397
66015W        W37686  10.909   3.600   0.031
66016W        W37687   8.832  33.160   2.435
66017W        W37688   4.270  11.440  11.494
66018W        W37689   0.378   0.956  14.964
66019W        W37690   7.006  28.202  14.720
66020W        W37691  10.222  41.507   3.695
66021W        W37692  10.678  20.195   2.223
66022W        W37693   0.189  13.638  11.870
66023W        W37694  14.508  26.437  11.488
66024W        W37695  20.790  39.534   0.269
66025W        W37696   2.716  43.831   1.681
66026W        W37697  33.116   1.693  10.387
66027W        W37698   8.637  17.337  12.885
66028W        W37699   3.980  10.189  14.816
66029W        W37700  41.446  38.987  10.294
66030W        W37701  25.972  39.438   3.168
66031W        W37702  36.050  28.740   0.298
66032W        W37703  36.251   8.229   2.246
66033W        W37704  36.569  23.450  10.747
66034W        W37705  21.295  20.507  12.109
66035W        W37706   9.466  25.251   2.787
66036W        W37707  18.059  31.427  10.680
66037W        W37708  30.364   3.726  12.892
66038W        W37709  28.110  37.527   4.487
66039W        W37710   6.778  16.178  12.066
66040W        W37711   0.253  20.679  12.495
66041W        W37712  26.036  17.538   0.480
66042W        W37713   0.911  18.859   1.615
66043W        W37714  24.233  25.524   0.338
66044W        W37715  40.507  30.117  13.369
66045W        W37716  42.594  34.459   1.324
66046W        W37717  35.045   2.624   4.616
66047W        W37718  26.630  16.398  14.973
66048W        W37719  13.627  15.150  10.953
66049W        W37720   5.771   8.815  13.666
66050W        W37721  34.844  10.870   0.499
66051W        W37722  10.228  36.330   1.684
66052W        W37723  25.497  10.040  10.516
66053W        W37724  25.078  20.282  12.598
66054W        W37725  21.573   5.290   1.408
66055W        W37726  42.808  38.589   0.483
66056W        W37727   3.196  24.965   2.704
66057W        W37728  39.365  42.862   2.098
66058W        W37729  36.301   1.777  11.441
66059W        W37730  28.842  34.268  12.526
66060W        W37731  10.035  43.317   3.253
66061W        W37732  21.936  13.298  10.608
66062W        W37733  14.110  31.130   1.868
66063W        W37734   4.270  36.893   2.843
66064W        W37735  19.586  14.854  11.254
66065W        W37736  13.603   3.688  14.503
66066W        W37737   5.025  14.385  12.911
66067W        W37738  11.216  32.458  14.280
66068W        W37739  16.784   6.688  13.669
66069W        W37740  29.063  17.404   2.719
66070W        W37741  37.403  42.018   4.182
66071W        W37742  23.693  23.055  13.430
66072W        W37743  37.614   0.204   0.334
66073W        W37744  44.326  40.857  13.867
66074W        W37745  39.554  34.936   1.250
66075W        W37746   7.343   2.929   4.194
66076W        W37747  21.178  19.700   2.724
66077W        W37748  43.979   8.226  10.380
66078W        W37749  41.597  10.746   4.729
66079W        W37750  27.920  35.432  11.543
66080W        W37751   4.379  26.071   0.757
66081W        W37752  23.659   2.814   0.426
66082W        W37753   8.874  30.113   0.472
66083W        W37754  14.828  23.107   0.137
66084W        W37755  34.045  13.296   4.124
66085W        W37756   6.705  28.063   1.810
66086W        W37757  37.067  44.893  10.739
66087W        W37758  37.832  10.842  12.088
66088W        W37759  13.841  34.605   1.684
66089W        W37760  30.507   9.574   3.218
66090W        W37761   2.251   0.083  12.008
66091W        W37762  19.553   2.828  10.742
66092W        W37763  43.510  12.132  14.837
66093W        W37764   6.677  16.850  12.531
66094W        W37765  39.034  29.240  13.795
66095W        W37766  21.302  15.758   1.981
66096W        W37767   6.446  13.623  14.128
66097W        W37768  13.488  22.109  14.372
66098W        W37769  44.180  44.713   4.208
66099W        W37770  10.969   7.631  13.597
66100W        W37771  41.811  14.874   4.084
66101W        W37772  35.252  32.700  10.737
66102W        W37773   5.684   0.868   0.309
66103W        W37774  13.611  22.163  14.895
66104W        W37775   6.006   9.634  13.213
66105W        W37776  29.914  27.149   3.970
66106W        W37777  43.789  38.562   3.046
66107W        W37778  42.531  14.663  14.719
66108W        W37779  30.276  30.681   2.659
66109W        W37780  44.526  31.741  12.348
66110W        W37781  37.511  13.387   3.692
66111W        W37782  21.756  38.079  13.558
66112W        W37783  10.775  37.449   0.542
66113W        W37784  25.132   8.469  12.843
66114W        W37785  14.303   2.042   4.221
66115W        W37786  24.167   9.097  11.214
66116W        W37787  16.025  24.936   0.889
66117W        W37788  10.991   1.189   2.153
66118W        W37789  34.633  19.732   1.281
66119W        W37790   4.282   2.788   2.837
66120W        W37791   0.926  21.276   4.611
66121W        W37792  32.666  15.772   2.675
66122W        W37793  12.832  12.082  11.576
66123W        W37794  18.824  27.908  12.390
66124W        W37795  31.381  22.925  14.918
66125W        W37796  27.649  42.419   3.203
66126W        W37797  40.822   1.278  13.815
66127W        W37798  20.003   7.694   2.137
66128W        W37799  37.778  16.760  11.924
66129W        W37800  27.559  22.243   1.289
66130W        W37801  13.387  40.134   1.458
66131W        W37802  40.989  21.943   1.857
66132W        W37803   7.616  26.706  12.565
66133W        W37804  34.284  10.415  11.151
66134W        W37805   0.645  34.980  11.232
66135W        W37806  31.503  37.336  13.919
66136W        W37807  30.872  17.588  14.680
66137W        W37808   6.265  33.133   4.168
66138W        W37809  40.785  44.861   2.844
66139W        W37810   4.873   5.220   4.924
66140W        W37811  41.080  13.104   3.240
66141W        W37812   8.108  32.403   1.321
66142W        W37813  33.862  29.588   0.454
66143W        W37814  43.281  38.844   5.550
66144W        W37815  20.951  20.332  13.857
66145W        W37816  11.180   7.840   2.332
66146W        W37817  22.634  22.407  14.431
66147W        W37818  29.513  38.571   5.141
66148W        W37819  16.339   6.417  13.571
66149W        W37820  17.243  17.088   3.975
66150W        W37821  23.442   5.371   1.371
66151W        W37822  13.911   5.266   1.141
66152W        W37823  44.750  24.510   3.255
66153W        W37824  17.477  40.936  12.042
66154W        W37825  29.065  26.130  12.063
66155W        W37826   6.780  40.027   3.364
66156W        W37827  44.967  40.946  12.808
66157W        W37828  24.551  42.056   1.142
66158W        W37829  40.863  25.478  13.900
66159W        W37830  21.534  22.745   2.902
66160W        W37831  16.715   9.664   3.549
66161W        W37832  10.236  29.580  11.585
66162W        W37833  21.325  16.985   3.315
66163W        W37834  20.517  37.787  13.875
66164W        W37835  44.842   5.296   0.778
66165W        W37836  15.568   9.762  13.728
66166W        W37837  36.552  40.823   4.937
66167W        W37838  12.899  24.661   1.791
66168W        W37839  26.229   9.154   0.487
66169W        W37840   1.856  31.454   1.681
66170W        W37841  43.836   8.138   3.153
66171W        W37842  22.260   6.619   3.901
66172W        W37843  34.896  33.599  13.325
66173W        W37844  44.710  14.730  11.575
66174W        W37845   3.651  21.194   9.764
66175W        W37846   0.236  11.962   2.608
66176W        W37847  14.625   3.266  14.335
66177W        W37848   3.765  15.815   1.398
66178W        W37849   5.817  14.555  14.614
66179W        W37850  19.201  43.107  12.553
66180W        W37851  27.757  43.399   1.168
66181W        W37852  32.092  28.983   1.998
66182W        W37853  26.300  17.800   3.722
66183W        W37854  28.793  14.605   4.278
66184W        W37855  19.689   0.363  14.705
66185W        W37856   9.141  14.562  11.473
66186W        W37857  21.847  36.215  13.332
66187W        W37858  25.256  33.994  12.942
66188W        W37859  20.745  32.159  14.506
66189W        W37860  19.971  41.451  14.866
66190W        W37861  26.978  23.587  13.055
66191W        W37862  35.977   1.823   2.863
66192W        W37863  44.434  31.690   3.582
66193W        W37864  18.437  10.710   0.099
66194W        W37865  29.472  31.090   4.294
66195W        W37866  29.157  21.548  13.032
66196W        W37867   1.056  19.713   2.791
66197W        W37868  42.050  37.253   4.161
66198W        W37869  11.365   6.843   4.521
66199W        W37870  42.003  26.827  13.664
66200W        W37871  39.069  17.095   0.863
66201W        W37872  34.984  17.305  11.646
66202W        W37873  39.818  35.989   3.396
66203W        W37874  44.951  30.086   2.889
66204W        W37875  35.482  18.322   4.683
66205W        W37876  40.133  28.203  10.657
66206W        W37877   8.304  11.570  12.033
66207W        W37878  36.040  44.214   5.178
66208W        W37879  38.662  32.276   2.799
66209W        W37880  36.443  41.498   1.843
66210W        W37881  16.571  13.278  12.944
66211W        W37882   3.602  28.444   1.414
66212W        W37883   4.717  40.359  11.128
66213W        W37884  15.650  29.050   2.250
66214W        W37885  41.381  21.768   0.841
66215W        W37886  36.564  27.085  13.865
66216W        W37887  21.033   0.693   1.841
66217W        W37888   3.844  32.934   0.466
66218W        W37889  11.306  21.201   1.829
66219W        W37890  42.498  38.809  14.753
66220W        W37891   3.340  17.609  13.369
66221W        W37892   4.394   3.923   1.733
66222W        W37893  11.705   7.391  11.168
66223W        W37894  11.249   3.164   3.153
66224W        W37895  41.256  43.298  13.150
66225W        W37896  18.323  10.590   1.715
66226W        W37897  16.872  21.563  12.124
66227W        W37898  16.064  36.914   2.890
66228W        W37899  12.140  42.820  10.468
66229W        W37900  16.563  17.325  12.932
66230W        W37901  26.540  15.106  13.898
66231W        W37902  14.728  20.623   0.312
66232W        W37903  23.291  13.641  13.488
66233W        W37904  30.685  20.140  12.361
66234W        W37905  11.686  18.797   2.422
66235W        W37906  19.581  24.656  14.255
66236W        W37907  24.553   2.915  12.063
66237W        W37908  33.949   8.356   3.951
66238W        W37909  19.618   9.115   1.187
66239W        W37910   2.133   8.631   2.379
66240W        W37911  20.641  21.602   1.373
66241W        W37912  38.981  12.169  12.389
66242W        W37913  13.560   4.817   4.060
66243W        W37914  17.787  23.814   3.205
66244W        W37915   4.619  12.819   3.353
66245W        W37916  11.686  21.259   4.075
66246W        W37917  19.669  41.442   0.485
66247W        W37918  33.662  24.171   0.185
66248W        W37919   1.479   8.841   3.688
66249W        W37920  38.578  44.195   0.765
66250W        W37921  24.462   4.896  11.510
66251W        W37922  42.259   4.113   4.174
66252W        W37923  12.688  21.561   0.242
66253W        W37924   9.367  15.219   3.725
66254W        W37925  30.216  43.200   2.395
66255W        W37926  28.664  11.137  14.345
66256W        W37927  22.593  28.159   4.595
66257W        W37928  26.281  24.073  13.006
66258W        W37929  17.037  39.376  10.602
66259W        W37930   9.372  27.112   1.255
66260W        W37931  14.599  24.648  14.668
66261W        W37932  38.306  20.716  11.016
66262W        W37933  38.398  40.839   1.129
66263W        W37934   4.225  21.622   1.935
66264W        W37935   8.122  43.063  11.582
66265W        W37936  42.220  14.691  11.500
66266W        W37937   3.433  25.122   0.924
66267W        W37938   9.401  15.037  12.167
66268W        W37939  43.537  33.145   1.238
66269W        W37940  13.608  15.123  11.462
66270W        W37941  36.660  25.202   3.292
66271W        W37942  28.754  18.106   0.225
66272W        W37943  37.516   9.370  12.589
66273W        W37944  33.061  43.921  13.812
66274W        W37945  36.799  22.162  13.530
66275W        W37946  32.104  32.374   2.478
66276W        W37947   0.952   4.374   4.641
66277W        W37948   3.160  24.705   4.563
66278W        W37949  39.509  33.893   1.169
66279W        W37950  15.933  25.513  10.663
66280W        W37951  25.799  41.913  12.980
66281W        W37952  44.438  18.964   3.654
66282W        W37953  19.352  12.391   4.507
66283W        W37954  15.739  44.162   5.109
66284W        W37955  33.460  40.994   0.303
66285W        W37956  31.604  11.275  12.170
66286W        W37957  23.219   9.688  12.499
66287W        W37958  33.377   8.563  13.022
66288W        W37959  18.562  37.602  11.205
66289W        W37960  15.562  22.596   2.425
66290W        W37961  10.659  37.175   3.795
66291W        W37962  29.845   9.748   0.796
66292W        W37963  20.653  41.526  12.656
66293W        W37964  12.644  32.059  10.584
66294W        W37965  12.122  37.819  11.569
66295W        W37966  20.333  12.542   5.167
66296W        W37967  44.204  11.345   0.751
66297W        W37968  25.083  41.543  14.943
66298W        W37969  37.367  24.249   2.699
66299W        W37970  17.484  19.293   0.895
66300W        W37971  39.040  10.290  14.053
66301W        W37972  12.550  26.357   4.578
66302W        W37973  31.437  23.498   4.667
66303W        W37974  39.084  25.181   3.192
66304W        W37975  34.810  39.385   3.748
66305W        W37976   3.493   7.828  12.373
66306W        W37977   3.338  21.588   4.798
66307W        W37978  23.610  34.072  14.397
66308W        W37979   7.308  25.238  13.317
66309W        W37980  27.282   0.356  11.657
66310W        W37981  20.267  42.982  10.333
66311W        W37982  10.638  28.158  14.327
66312W        W37983  26.997  41.354   2.577
66313W        W37984  37.552  17.057  14.824
66314W        W37985  20.436   6.204   3.228
66315W        W37986  39.106  11.931  12.857
66316W        W37987  28.585  30.630  10.715
66317W        W37988  35.802  22.296  14.381
66318W        W37989  25.297   1.363  10.709
66319W        W37990  16.244  38.451  12.569
66320W        W37991   7.476  16.627  14.681
66321W        W37992  32.695  11.983  11.269
66322W        W37993  33.805  30.719   3.025
66323W        W37994  43.527  23.143   1.507
66324W        W37995  10.095  34.178  10.904
66325W        W37996  20.808  16.675   3.699
66326W        W37997  12.426  42.820   2.507
66327W        W37998  14.671  17.341   1.304
66328W        W37999   1.104  33.355  10.278
66329W        W38000  35.337  38.227   3.172
66330W        W38001   0.802   5.709  11.617
66331W        W38002  16.192  32.639   2.288
66332W        W38003  39.144  11.841   1.237
66333W        W38004   4.962  26.672  12.032
66334W        W38005  27.862  17.077  13.924
66335W        W38006  23.866  19.582   3.994
66336W        W38007  18.096  42.117   3.436
66337W        W38008   6.287   0.643  11.623
66338W        W38009   4.735  36.501   0.989
66339W        W38010  43.046  12.612  11.941
66340W        W38011  25.937  41.533  13.805
66341W        W38012  26.037  39.617   1.850
66342W        W38013  27.194   3.711   1.005
66343W        W38014  37.845   8.563  13.318
66344W        W38015  24.204   0.818  14.093
66345W        W38016  19.190  21.947  10.742
66346W        W38017   9.599  38.837   5.272
66347W        W38018  34.424  18.254  14.756
66348W        W38019  19.771   1.824   1.999
66349W        W38020  29.552  30.387  13.433
66350W        W38021   3.421  25.924  14.964
66351W        W38022  17.244  37.397   1.726
66352W        W38023  13.285  31.588   4.996
66353W        W38024  18.935  29.319  10.301
66354W        W38025  21.563  24.993  10.624
66355W        W38026  44.600  18.051   0.384
66356W        W38027   4.052  15.233   1.915
66357W        W38028   3.322   0.273  11.215
66358W        W38029  30.516  27.071   3.290
66359W        W38030  19.247   4.776   1.906
66360W        W38031  34.487  33.635  13.948
66361W        W38032  33.324  43.527   2.412
66362W        W38033  42.536   8.164  13.180
66363W        W38034  40.239   8.454  13.029
66364W        W38035  17.648   0.867   4.185
66365W        W38036  37.782   6.641   3.127
66366W        W38037  29.102   6.434   3.260
66367W        W38038   2.282  10.838   3.573
66368W        W38039  13.846   6.645   4.730
66369W        W38040  42.557   0.015  11.132
66370W        W38041   2.013   8.788   2.863
66371W        W38042   9.703  37.584   2.827
66372W        W38043  38.845  40.303   1.057
66373W        W38044  13.655  42.072  11.413
66374W        W38045  35.787   3.504  13.912
66375W        W38046  13.232  30.453  14.464
66376W        W38047   3.379  19.248   4.387
66377W        W38048  25.159  10.423  12.112
66378W        W38049  34.185  25.063  14.580
66379W        W38050   5.220  18.663   0.184
66380W        W38051  22.646  38.016  10.353
66381W        W38052  43.439  33.596   4.192
66382W        W38053   9.379  21.105   0.011
66383W        W38054   0.099   2.394   3.344
66384W        W38055  27.446   2.059  14.375
66385W        W38056  38.323   4.166  10.835
66386W        W38057   3.853  38.430  13.752
66387W        W38058  24.023  29.655   3.816
66388W        W38059  16.971  11.016  10.984
66389W        W38060   1.255  18.072  11.523
66390W        W38061  33.411   4.178  11.204
66391W        W38062  31.352  10.462  13.683
66392W        W38063  11.687   6.363  13.383
66393W        W38064  15.685  41.739   3.563
66394W        W38065  26.134   5.127   0.424
66395W        W38066  22.265  31.992   0.527
66396W        W38067  38.241  37.917  10.305
66397W        W38068  15.797  42.779  13.739
66398W        W38069  14.611  14.622  12.207
66399W        W38070   4.915   4.602  13.816
66400W        W38071  40.799  13.814  11.132
66401W        W38072  29.148  40.954  11.171
66402W        W38073  27.390   5.489  13.085
66403W        W38074  27.502   5.351  14.484
66404W        W38075  15.571  41.498  13.773
66405W        W38076  34.481  13.862  14.820
66406W        W38077   8.887  15.086  10.676
66407W        W38078  12.401  41.686   3.839
66408W        W38079  10.511  29.117  14.828
66409W        W38080  23.534   5.880   1.416
66410W        W38081  11.108   4.821   0.811
66411W        W38082  33.303  39.963  12.342
66412W        W38083  25.101  40.715   0.466
66413W        W38084  29.552   4.773   4.028
66414W        W38085   5.942  13.287   2.225
66415W        W38086  36.181  35.213   2.168
66416W        W38087   2.086  19.782   5.435
66417W        W38088  43.321  41.032  12.411
66418W        W38089  26.095  40.249   3.741
66419W        W38090   9.685   7.767  12.798
66420W        W38091  18.555  29.401  10.646
66421W        W38092  44.783  12.484   5.018
66422W        W38093   2.256  22.915  13.848
66423W        W38094  37.284  25.939   3.714
66424W        W38095  40.388  26.060   3.229
66425W        W38096  11.610  11.736   0.382
66426W        W38097   7.085  12.726  13.951
66427W        W38098   4.703  37.585  12.201
66428W        W38099  27.493  23.647  12.444
66429W        W38100  35.345  24.718   2.200
66430W        W38101   1.745  36.396  13.035
66431W        W38102  21.805  21.609  14.954
66432W        W38103  42.604  20.067   3.041
66433W        W38104   0.711  10.587   1.387
66434W        W38105  11.171  35.956   4.583
66435W        W38106   1.526  28.083   3.386
66436W        W38107  40.345  31.578   0.435
66437W        W38108  23.509  33.117   4.713
66438W        W38109  23.149  36.100   2.361
66439W        W38110  17.314  13.936   5.516
66440W        W38111   8.112   2.055   4.106
66441W        W38112   7.312  23.653   1.262
66442W        W38113  13.027  43.928  12.585
66443W        W38114  42.797   7.366   4.981
66444W        W38115   5.373  22.025   4.530
66445W        W38116  31.084  15.543  14.935
66446W        W38117  33.170  19.170   1.221
66447W        W38118  14.613  29.538  13.550
66448W        W38119  11.216  36.255  14.427
66449W        W38120  33.464   6.897  14.338
66450W        W38121   9.380  33.034   2.512
66451W        W38122  31.617  25.989  12.808
66452W        W38123  24.588  44.937   4.119
66453W        W38124  36.061  20.091  13.940
66454W        W38125  38.884  23.700   2.619
66455W        W38126  18.644  37.824  14.407
66456W        W38127  35.705  11.935   0.613
66457W        W38128   1.836   8.429   1.631
66458W        W38129  37.100   3.249   4.125
66459W        W38130  40.806  35.450  14.398
66460W        W38131  29.058  33.783  14.040
66461W        W38132   1.306   5.909   3.775
66462W        W38133  43.825  32.855  14.856
66463W        W38134  35.131   7.514  11.089
66464W        W38135  34.128   2.762   3.329
66465W        W38136  22.863  41.232   2.883
66466W        W38137  31.109   0.862  10.972
66467W        W38138  31.894  23.467  11.998
66468W        W38139  35.088   5.443   1.369
66469W        W38140  25.827  10.817   2.641
66470W        W38141  13.730  38.605  10.636
66471W        W38142  14.275  34.606   3.415
66472W        W38143  39.430  31.506   1.294
66473W        W38144  36.075  15.766   1.279
66474W        W38145  44.762  18.356   0.780
66475W        W38146  37.944  29.091   0.901
66476W        W38147  34.009  42.572  10.763
66477W        W38148  28.262   9.062   4.992
66478W        W38149  11.277  12.876   2.091
66479W        W38150  36.622  20.350  13.784
66480W        W38151  14.521  44.463  11.355
66481W        W38152  43.432   8.282   2.851
66482W        W38153  10.290  11.030   1.360
66483W        W38154  11.152  12.566  14.840
66484W        W38155  27.104  40.449   2.859
66485W        W38156  30.839  43.976  13.363
66486W        W38157  12.708   2.412   1.216
66487W        W38158  35.677  34.427   1.412
66488W        W38159  11.946  28.692   5.319
66489W        W38160  17.780  37.092   4.517
66490W        W38161  34.070  35.784  11.510
66491W        W38162  16.549  19.980   0.057
66492W        W38163  22.738   0.443   1.666
66493W        W38164  20.982  21.282  10.615
66494W        W38165  38.296  29.208   3.636
66495W        W38166   8.490  21.683   4.530
66496W        W38167  15.142  20.232   2.016
66497W        W38168   7.185   0.132  14.853
66498W        W38169  34.872  39.132   2.320
66499W        W38170  42.775  22.407   0.852
66500W        W38171   9.174  19.894  11.004
66501W        W38172  25.269  30.318   5.034
66502W        W38173  27.920  26.977  11.101
66503W        W38174  24.703  23.786   3.221
66504W        W38175  42.304  29.956   1.911
66505W        W38176   6.292  19.660   5.058
66506W        W38177  24.429  40.152   1.052
66507W        W38178   7.839  37.073  14.594
66508W        W38179  43.522  24.833   3.577
66509W        W38180  38.346  36.140   3.177
66510W        W38181  27.011  18.198   2.955
66511W        W38182  21.082  31.514   2.692
66512W        W38183   9.621  37.095  14.086
66513W        W38184  39.982  39.351   0.187
66514W        W38185   6.761  31.148   3.364
66515W        W38186   9.815  20.618  12.360
66516W        W38187   2.342  24.649  13.028
66517W        W38188  25.444  31.435   1.954
66518W        W38189   1.785   9.759   1.191
66519W        W38190  12.830  14.359   0.325
66520W        W38191   1.422  26.026   3.618
66521W        W38192  27.911   0.236   0.213
66522W        W38193  11.202   2.267  14.893
66523W        W38194  40.050  16.634   0.547
66524W        W38195  43.777  20.958  13.866
66525W        W38196  20.559  30.150   2.765
66526W        W38197  43.044   7.223  14.854
66527W        W38198  29.783  42.211   1.286
66528W        W38199  38.528  31.852   0.987
66529W        W38200  42.047  13.257  12.435
66530W        W38201   1.801  24.414   1.687
66531W        W38202   9.533  10.998  13.719
66532W        W38203  31.115  43.834  12.436
66533W        W38204  19.180   6.827  14.381
66534W        W38205   2.413  42.553   1.418
66535W        W38206  40.974  36.915  12.152
66536W        W38207  16.543  37.102   4.883
66537W        W38208  40.441  28.596  11.359
66538W        W38209  21.717  35.052   0.784
66539W        W38210  13.008   6.557   0.218
66540W        W38211   1.529  42.951  12.977
66541W        W38212  21.056   7.802   4.291
66542W        W38213  37.066   7.544  11.281
66543W        W38214  35.139  26.774  10.258
66544W        W38215  34.359  12.109  12.901
66545W        W38216   0.222  25.525  14.282
66546W        W38217  17.953   5.140  14.060
66547W        W38218  33.466  39.523   4.586
66548W        W38219  18.563  18.297  13.889
66549W        W38220   7.654  41.927  14.346
66550W        W38221  13.680  15.177   1.809
66551W        W38222  23.986  31.450   4.557
66552W        W38223  27.703   8.376   1.405
66553W        W38224   1.974  27.511   3.252
66554W        W38225   0.308  39.910   2.370
66555W        W38226  34.608  37.149  10.644
66556W        W38227   7.296  19.710  10.749
66557W        W38228   6.810   8.866   4.635
66558W        W38229  40.693  17.935  11.164
66559W        W38230  33.682   9.610  10.937
66560W        W38231  29.113  41.936   3.067
66561W        W38232  17.735  40.055  14.010
66562W        W38233  31.616   4.324   2.989
66563W        W38234  25.732  42.686   3.724
66564W        W38235   4.233  15.568   1.347
66565W        W38236  10.360   8.608  10.655
66566W        W38237  38.121  24.793  12.947
66567W        W38238  41.300  41.832  11.182
66568W        W38239   0.029  25.984  12.600
66569W        W38240  22.994  42.273   1.266
66570W        W38241  23.129  23.821  13.482
66571W        W38242  44.260  11.344  11.426
66572W        W38243  37.378  10.767  11.543
66573W        W38244  39.954   0.415   3.833
66574W        W38245   5.269  38.894   2.894
66575W        W38246  17.825   2.407  13.772
66576W        W38247  19.480  40.713   0.765
66577W        W38248  14.260   6.650  11.954
66578W        W38249  44.341   9.205   1.400
66579W        W38250  11.407   0.199  11.542
66580W        W38251  12.990   0.419  13.559
66581W        W38252  37.578  32.404   0.295
66582W        W38253  39.105   8.590  14.822
66583W        W38254  30.501  34.828   3.786
66584W        W38255  27.605  15.244  10.732
66585W        W38256  24.675  24.412   4.759
66586W        W38257  31.565  35.421  12.771
66587W        W38258  44.717   5.643  13.868
66588W        W38259  37.805   2.962  13.320
66589W        W38260  33.364  11.188  10.683
66590W        W38261  41.027  16.389   3.832
66591W        W38262   8.376  36.291  10.521
66592W        W38263  32.307  10.194  14.789
66593W        W38264  20.037  18.773  12.302
66594W        W38265   4.841  13.123  13.498
66595W        W38266   3.592  44.932   0.475
66596W        W38267   4.339  32.763  12.716
66597W        W38268   6.576  34.500   4.174
66598W        W38269  16.772  21.260   0.563
66599W        W38270  29.690  22.350  14.914
66600W        W38271  21.369  17.950   2.118
66601W        W38272   7.410  13.000   0.528
66602W        W38273   1.870  35.323  11.561
66603W        W38274  17.132  26.954  13.379
66604W        W38275  26.655  15.921   4.475
66605W        W38276   2.233  11.503  11.246
66606W        W38277  34.842  35.537   1.024
66607W        W38278  13.695  33.404   3.757
66608W        W38279  14.828   0.296  12.377
66609W        W38280  24.009  23.306   9.995
66610W        W38281  24.991   6.389   0.716
66611W        W38282  22.255   7.530   1.318
66612W        W38283   2.312  30.221   4.931
66613W        W38284  17.695  26.702   3.269
66614W        W38285   0.283  25.210   2.417
66615W        W38286  29.381   0.413   0.422
66616W        W38287  11.809   2.131  12.455
66617W        W38288  41.150  17.141  13.807
66618W        W38289  44.666  44.788   9.892
66619W        W38290   8.922  43.986   0.890
66620W        W38291   1.799  30.346   2.886
66621W        W38292  41.516  14.419  14.817
66622W        W38293  42.415  21.148   3.622
66623W        W38294  35.445  23.064   2.314
66624W        W38295  36.464  44.559   3.717
66625W        W38296  10.870  21.017  13.384
66626W        W38297  33.674  11.427   0.892
66627W        W38298  19.480  28.667   3.181
66628W        W38299   2.560  37.301   0.966
66629W        W38300  22.139  30.337   3.299
66630W        W38301  22.681  14.077   4.575
66631W        W38302  27.860  33.982   1.985
66632W        W38303  20.104   1.881  14.317
66633W        W38304   1.910  44.101  14.413
66634W        W38305  18.002  14.175   0.899
66635W        W38306  33.079  30.082   1.402
66636W        W38307  33.171  24.400   0.272
66637W        W38308   5.427  23.865   2.241
66638W        W38309  41.020   3.780   2.845
66639W        W38310  28.430   6.171  13.286
66640W        W38311  28.054  26.185   0.706
66641W        W38312  24.660   7.354   1.187
66642W        W38313  21.611  38.728   3.636
66643W        W38314   1.841   7.243   3.707
66644W        W38315   1.438  14.428   4.338
66645W        W38316   0.924   5.712  14.828
66646W        W38317   6.880  43.905   3.682
66647W        W38318  11.664  39.998  11.532
66648W        W38319  23.181  42.303  11.466
66649W        W38320   3.695  30.449   0.064
66650W        W38321   7.423  37.248   4.576
66651W        W38322  23.172  35.615   3.666
66652W        W38323   2.079  37.868   4.149
66653W        W38324  17.181  13.981   4.672
66654W        W38325  12.723   6.560  11.866
66655W        W38326  26.048  40.049  14.972
66656W        W38327  31.593  35.487   2.684
66657W        W38328  20.788  12.683   4.962
66658W        W38329  31.363  33.517  14.472
66659W        W38330  36.938  39.435  12.843
66660W        W38331  13.741   3.278  11.954
66661W        W38332   5.919  14.844  10.596
66662W        W38333  13.372   6.677   1.071
66663W        W38334   1.433   1.775   2.803
66664W        W38335  33.223  41.265   2.134
66665W        W38336  32.637   8.886   0.934
66666W        W38337  20.956  31.915   2.376
66667W        W38338  22.628   5.622  10.690
66668W        W38339   5.463  32.421   0.184
66669W        W38340  15.312  30.896   1.204
66670W        W38341   8.906  29.731  12.056
66671W        W38342  14.229   7.379   0.253
66672W        W38343  28.303  16.734  10.625
66673W        W38344   5.990  27.959   2.166
66674W        W38345  14.369  14.327  12.618
66675W        W38346  28.497  25.782   4.522
66676W        W38347  32.487   9.427   2.810
66677W        W38348  19.621  32.105  11.508
66678W        W38349   2.330  34.455   3.555
66679W        W38350  36.984   6.328   0.492
66680W        W38351  25.579  19.555   2.701
66681W        W38352  36.797  27.971  11.546
66682W        W38353  32.589  14.696   1.317
66683W        W38354  32.415   9.270   4.165
66684W        W38355  17.731  27.956  11.655
66685W        W38356   9.318  23.709   3.885
66686W        W38357  42.352   1.034   0.363
66687W        W38358  38.803  39.737   2.816
66688W        W38359  35.827  29.293   1.651
66689W        W38360   6.832  11.891  14.833
66690W        W38361  27.507  29.596  12.925
66691W        W38362  14.944   4.695   9.921
66692W        W38363  21.148  41.190  14.721
66693W        W38364   5.781   6.288  10.704
66694W        W38365  20.988  19.811  13.875
66695W        W38366  18.562  28.105  11.969
66696W        W38367  25.039  31.213   2.379
66697W        W38368  17.712  37.597   4.676
66698W        W38369  26.555   0.955   3.186
66699W        W38370   9.258  14.263  10.643
66700W        W38371   1.620  32.510  13.203
66701W        W38372   5.945   1.289   3.855
66702W        W38373  13.319   8.681   1.796
66703W        W38374  29.861   9.457  14.482
66704W        W38375  17.806   1.973   4.153
66705W        W38376  42.553  41.480  11.916
66706W        W38377   9.756  44.258   4.067
66707W        W38378  11.928   8.959  11.140
66708W        W38379  39.763  36.612  12.520
66709W        W38380  25.989  18.037   3.380
66710W        W38381  20.945  21.162   2.761
66711W        W38382   8.117  24.392  14.483
66712W        W38383  16.932  39.061  11.106
66713W        W38384  39.311  22.279   1.160
66714W        W38385  36.143   2.408   0.842
66715W        W38386  43.010  38.484   2.856
66716W        W38387   0.776  25.160  10.554
66717W        W38388  14.699  12.942   3.451
66718W        W38389   3.955  43.416   4.131
66719W        W38390  44.227  12.719   2.152
66720W        W38391  44.391  18.690   3.194
66721W        W38392   3.218  17.114  12.097
66722W        W38393  40.558  20.727  11.973
66723W        W38394  17.884  31.324   3.641
66724W        W38395  42.312  42.009   2.274
66725W        W38396  42.792  10.338  14.328
66726W        W38397   9.127  11.323  12.822
66727W        W38398  23.177  41.158  13.320
66728W        W38399  26.726  23.147  12.769
66729W        W38400   0.406  18.279   3.766
66730W        W38401  44.907  21.489   2.672
66731W        W38402  41.889  40.874   0.239
66732W        W38403  39.257  17.162  10.549
66733W        W38404  29.778  34.369  13.837
66734W        W38405  43.533  21.894  14.334
66735W        W38406  31.990   6.756   0.760
66736W        W38407  41.171  17.410  10.694
66737W        W38408  10.565  43.666  14.353
66738W        W38409  34.261   0.958   1.802
66739W        W38410  14.926  27.231   3.615
66740W        W38411  17.894   5.975  10.558
66741W        W38412  33.652  20.736  14.930
66742W        W38413  39.615  43.451   0.315
66743W        W38414   0.629  21.974  13.354
66744W        W38415  27.007  34.860   4.358
66745W        W38416  38.059  27.074   4.079
66746W        W38417   8.038  29.029   2.165
66747W        W38418  44.430   4.285  12.507
66748W        W38419  17.592  26.688  14.335
66749W        W38420  14.640  40.273  10.665
66750W        W38421  13.794   4.881  11.948
66751W        W38422  36.029  32.826  13.554
66752W        W38423  37.606  24.739   0.748
66753W        W38424  35.554  22.994  11.572
66754W        W38425  20.593  42.761  11.167
66755W        W38426  39.149  30.430  11.536
66756W        W38427  35.145  33.863  12.963
66757W        W38428  11.104   6.660   3.196
66758W        W38429  10.859  13.069   4.039
66759W        W38430  10.866  32.985  12.780
66760W        W38431  30.862  44.062  11.024
66761W        W38432  27.029  25.997   0.626
66762W        W38433  14.890  27.410  10.796
66763W        W38434  23.669  41.372  12.600
66764W        W38435  13.086  33.016  11.479
66765W        W38436   0.706  43.843   2.856
66766W        W38437  11.786  39.602   3.384
66767W        W38438  10.882  29.505   1.420
66768W        W38439   4.282  22.390  14.183
66769W        W38440  18.887  40.909  11.682
66770W        W38441  10.780  29.150  13.820
66771W        W38442   7.535   6.735  11.611
66772W        W38443  22.029   0.326  14.236
66773W        W38444  28.655   0.955   1.810
66774W        W38445  12.747  11.604  11.724
66775W        W38446   1.908  18.762  10.688
66776W        W38447  29.361   3.401  10.493
66777W        W38448  26.954  41.305  12.626
66778W        W38449  29.115   8.672   2.613
66779W        W38450  41.812  29.705   1.199
66780W        W38451   8.136  29.032  14.104
66781W        W38452  17.219  18.041  12.182
66782W        W38453  12.413  20.190   4.211
66783W        W38454  21.954  41.733   2.302
66784W        W38455  33.884  11.210  12.659
66785W        W38456  44.435  23.981  12.925
66786W        W38457  42.913  21.493  14.631
66787W        W38458  30.509   3.341   0.534
66788W        W38459  11.835   3.669  13.829
66789W        W38460  28.534  28.876  12.457
66790W        W38461   3.402   6.491  11.635
66791W        W38462  13.433  25.995  11.867
66792W        W38463  28.564  28.470  13.025
66793W        W38464  28.680   1.454  13.319
66794W        W38465  24.282  38.500  11.596
66795W        W38466  13.596  36.875  12.420
66796W        W38467   7.909  38.392  11.965
66797W        W38468   4.499  34.375   4.260
66798W        W38469  26.792  28.084  11.769
66799W        W38470  39.540  39.811  13.417
66800W        W38471  31.594  33.849  14.871
66801W        W38472  35.867  38.902   1.328
66802W        W38473  17.569  11.573   3.184
66803W        W38474  40.071  11.700  13.906
66804W        W38475  39.977  32.706   3.738
66805W        W38476  10.831  36.610  13.443
66806W        W38477  25.536   8.373   4.127
66807W        W38478   4.808  40.740   4.212
66808W        W38479  32.532  44.478   0.915
66809W        W38480  39.338   9.894   2.145
66810W        W38481  12.743   2.557   0.727
66811W        W38482  29.976   2.411  12.836
66812W        W38483  18.764  23.871   0.466
66813W        W38484  36.789  26.577   0.415
66814W        W38485  40.738  20.147   0.262
66815W        W38486  29.221  18.607  11.920
66816W        W38487  29.079  13.491  14.967
66817W        W38488  14.051  43.011   1.445
66818W        W38489  29.024  41.384  11.614
66819W        W38490  40.466  28.009   4.473
66820W        W38491  11.910  44.359  14.374
66821W        W38492  15.737  19.579  13.912
66822W        W38493  32.959  44.316  13.461
66823W        W38494  40.388  22.059   4.404
66824W        W38495  22.674  32.352  13.820
66825W        W38496  38.310   9.191  11.948
66826W        W38497  41.831  18.689   1.787
66827W        W38498  11.654  18.627   1.449
66828W        W38499  31.167  23.060   4.649
66829W        W38500  36.119  42.841  12.944
66830W        W38501  39.090  39.594  13.476
66831W        W38502   1.028  14.755  13.110
66832W        W38503  44.724  41.855   4.996
66833W        W38504  22.087  18.311   1.283
66834W        W38505  19.815  37.338  11.984
66835W        W38506  42.783  23.864  12.445
66836W        W38507  10.172   0.440  11.910
66837W        W38508  17.139  31.221   4.397
66838W        W38509   8.083  40.659  13.587
66839W        W38510   7.215  40.619   1.677
66840W        W38511  27.440   1.807  13.280
66841W        W38512  11.622   3.704   0.244
66842W        W38513  38.538   0.726  12.187
66843W        W38514  14.984  37.560  13.388
66844W        W38515  22.081   3.662   1.437
66845W        W38516  15.265  26.062  11.698
66846W        W38517  43.499  16.695   3.174
66847W        W38518  20.255  27.452  10.608
66848W        W38519  11.682   4.764   3.823
66849W        W38520   7.402  31.399   1.272
66850W        W38521  13.312   6.767  11.592
66851W        W38522   5.477  21.090   2.014
66852W        W38523  17.248  21.525  13.928
66853W        W38524   7.714  15.123   0.790
66854W        W38525  31.552  28.956   0.009
66855W        W38526  25.673  13.356  11.443
66856W        W38527  12.616  41.631  12.378
66857W        W38528  20.529  20.060  13.995
66858W        W38529  22.943  39.637   2.163
66859W        W38530  14.253   6.141  12.077
66860W        W38531  20.565  35.403  10.793
66861W        W38532  36.876  35.825  12.098
66862W        W38533  40.759  35.472   0.424
66863W        W38534   6.839  35.111  13.855
66864W        W38535  20.632  29.602  13.576
66865W        W38536  38.940  38.302   3.580
66866W        W38537  16.124  17.593  12.888
66867W        W38538  26.199   0.815  10.700
66868W        W38539   3.662  10.622  14.967
66869W        W38540  22.121  23.424  14.997
66870W        W38541   9.334  19.427  14.939
66871W        W38542  21.217  32.700  12.907
66872W        W38543  14.111  16.432   3.030
66873W        W38544  10.747  37.852  11.561
66874W        W38545   6.626  14.582  14.878
66875W        W38546  15.868  15.783  14.437
66876W        W38547  16.213  21.275   4.583
66877W        W38548  21.810  29.856  11.885
66878W        W38549  11.066  28.021   4.081
66879W        W38550  22.273   7.259   2.285
66880W        W38551  22.271  35.971   1.281
66881W        W38552  33.940  15.046   1.287
66882W        W38553  37.296  24.704  13.864
66883W        W38554   5.872   5.115  12.078
66884W        W38555  21.932  15.594   2.684
66885W        W38556   8.890  36.514   0.213
66886W        W38557  14.264  29.472   2.934
66887W        W38558  17.212  11.985  14.454
66888W        W38559  44.362  29.040   4.592
66889W        W38560  34.533  41.912   3.662
66890W        W38561  12.885  43.968  13.573
66891W        W38562  43.464  40.804   1.322
66892W        W38563  31.853  28.354  11.559
66893W        W38564  40.753  26.687  11.157
66894W        W38565  18.276  11.266  12.854
66895W        W38566   8.833  32.740  11.136
66896W        W38567   0.977  17.041  13.857
66897W        W38568  20.318   6.717   4.064
66898W        W38569   3.736  26.449   2.789
66899W        W38570  37.188  40.001  14.798
66900W        W38571   4.811  36.977   4.977
66901W        W38572  34.251  13.229   4.823
66902W        W38573  12.609  11.066   4.366
66903W        W38574  44.693  44.476  12.868
66904W        W38575  28.145  14.255  12.504
66905W        W38576   1.481  37.139  14.438
66906W        W38577  11.724  30.576   4.099
66907W        W38578  27.250   9.815   2.268
66908W        W38579  43.087   3.772  14.325
66909W        W38580   6.739   3.422   4.216
66910W        W38581   4.717  24.270   5.044
66911W        W38582  44.805  37.608  11.472
66912W        W38583   1.777  21.983   1.763
66913W        W38584  30.316  32.915   2.683
66914W        W38585  35.511  41.542  12.391
66915W        W38586  43.457   2.246  13.140
66916W        W38587   1.173  23.690   2.730
66917W        W38588  37.925  14.327   4.035
66918W        W38589  34.099  21.084  14.013
66919W        W38590  43.456  37.902   0.271
66920W        W38591  32.794   3.712   3.434
66921W        W38592  21.904   7.726  11.964
66922W        W38593  17.066   4.969  12.548
66923W        W38594  44.025  13.281  13.368
66924W        W38595  16.175  12.682   1.481
66925W        W38596  43.042  26.743   2.766
66926W        W38597  18.982  36.909   2.481
66927W        W38598  37.975  44.030   2.936
66928W        W38599   0.918  25.503   1.849
66929W        W38600   3.395  18.665   0.011
66930W        W38601  30.932  19.819   4.212
66931W        W38602  14.325  44.980   2.767
66932W        W38603   5.983  18.638   3.672
66933W        W38604  14.521   5.689  10.999
66934W        W38605  34.055  27.179  12.036
66935W        W38606  44.526  25.979   0.744
66936W        W38607  35.535  12.053  13.363
66937W        W38608  31.571  20.176  13.479
66938W        W38609   9.901  11.666  11.933
66939W        W38610   1.584  26.722  11.647
66940W        W38611  13.540  42.298   1.208
66941W        W38612  42.555  41.682   4.926
66942W        W38613  23.589  15.903   4.179
66943W        W38614  41.042  29.818   0.500
66944W        W38615  28.709  16.695   3.344
66945W        W38616   0.732  34.776  12.348
66946W        W38617   4.163  43.982   3.279
66947W        W38618  39.941   0.527  11.479
66948W        W38619  40.272   6.974   0.442
66949W        W38620  26.502  28.184   4.284
66950W        W38621  16.685   3.627  11.558
66951W        W38622  32.156  17.110  14.622
66952W        W38623  24.274  24.114   0.882
66953W        W38624   9.379   5.827  14.349
66954W        W38625  43.590   3.146  12.389
66955W        W38626   7.168  29.510   1.950
66956W        W38627  13.954   9.516  10.834
66957W        W38628  10.430  41.987   5.139
66958W        W38629  19.105  15.273   2.432
66959W        W38630  11.612  12.606   1.749
66960W        W38631  16.728  42.052   4.354
66961W        W38632  16.654  35.078   2.925
66962W        W38633  29.231  41.925  13.455
66963W        W38634   0.548  44.672  12.382
66964W        W38635  21.319  22.776   0.177
66965W        W38636  43.944  25.231  12.562
66966W        W38637  22.228  15.218   3.407
66967W        W38638  26.013  25.832   3.101
66968W        W38639  32.322   3.706   4.216
66969W        W38640  27.503  33.384   2.211
66970W        W38641   3.955  36.067   1.905
66971W        W38642  12.374   0.922   1.615
66972W        W38643  19.784   3.850  14.854
66973W        W38644  33.086  20.966   3.781
66974W        W38645  27.894  26.863   1.693
66975W        W38646  40.273  12.794   4.371
66976W        W38647   3.674   1.714   0.777
66977W        W38648   1.059  26.622   9.786
66978W        W38649  43.437  10.784   1.896
66979W        W38650   0.439  21.677  12.441
66980W        W38651  31.115  18.136  13.177
66981W        W38652  15.620  12.560   4.576
66982W        W38653   1.885   9.643  14.265
66983W        W38654  43.651  16.166   1.606
66984W        W38655  43.050  31.094   0.507
66985W        W38656   8.731  26.232  11.148
66986W        W38657  24.790  15.784   1.774
66987W        W38658  36.880  10.717  13.034
66988W        W38659  35.485   9.155   1.965
66989W        W38660  36.481  12.578  12.541
66990W        W38661  32.994  20.254   1.710
66991W        W38662  41.983  30.626   2.326
66992W        W38663  16.752  32.807  14.103
66993W        W38664  38.362  18.543  12.829
66994W        W38665  33.863  39.331   2.841
66995W        W38666  13.232  33.152  13.233
66996W        W38667  15.013  34.424  14.447
66997W        W38668  22.228  17.814   1.924
66998W        W38669  43.081  29.523   3.945
66999W        W38670  29.223  19.328   3.740
67000W        W38671   6.969  20.164  11.608
67001W        W38672  20.123   5.469   3.653
67002W        W38673  32.161  37.881   2.807
67003W        W38674  25.242  35.396   2.364
67004W        W38675   0.680  24.728   0.353
67005W        W38676  44.869  24.517   1.909
67006W        W38677  21.001  26.176  10.477
67007W        W38678  17.589  26.326   4.195
67008W        W38679  35.596  31.040   0.512
67009W        W38680  40.089  43.435  10.570
67010W        W38681  13.715   2.363  11.566
67011W        W38682  41.935  15.654   4.672
67012W        W38683   1.914  24.061   3.135
67013W        W38684  24.753  33.582   4.783
67014W        W38685   2.936  21.038   3.607
67015W        W38686  15.172  33.901   4.838
67016W        W38687  28.094   6.582   4.256
67017W        W38688  36.128  30.175   1.873
67018W        W38689  32.692   9.633  12.532
67019W        W38690  31.873   5.019  11.228
67020W        W38691  22.674  15.885   3.173
67021W        W38692  21.098  19.176   2.660
67022W        W38693   9.036  26.265   0.263
67023W        W38694  41.254  30.124  11.368
67024W        W38695   0.763   6.294   3.737
67025W        W38696   7.496  32.437   4.157
67026W        W38697  33.624  36.901  13.452
67027W        W38698   2.758  18.830   2.249
67028W        W38699  38.462  42.329   2.226
67029W        W38700   5.244  29.608  10.250
67030W        W38701  35.842  13.653  10.687
67031W        W38702  29.790  44.355   5.070
67032W        W38703  40.901  19.183   4.142
67033W        W38704  34.972  26.188   4.680
67034W        W38705  24.936  39.581  13.384
67035W        W38706  39.867  30.872   4.553
67036W        W38707  31.701  42.689  14.719
67037W        W38708  12.403  44.334  11.461
67038W        W38709  16.182   1.811   2.935
67039W        W38710  15.078  26.793  13.737
67040W        W38711   8.952  25.979  10.725
67041W        W38712  25.829   3.140  13.849
67042W        W38713  35.333  20.161   4.435
67043W        W38714  18.397  26.560   4.538
67044W        W38715  24.094  40.260  13.351
67045W        W38716  37.457  35.620   2.685
67046W        W38717   7.435  13.918  12.352
67047W        W38718  21.083  21.886   0.278
67048W        W38719  41.459  21.005   3.685
67049W        W38720   0.382   3.313  12.016
67050W        W38721  42.058   9.645  11.117
67051W        W38722  24.937  38.491  12.507
67052W        W38723   9.231  43.273   3.998
67053W        W38724  35.943  19.877  12.997
67054W        W38725  28.563   6.168   3.118
67055W        W38726  22.079   7.467  10.370
67056W        W38727  41.951  18.842  14.552
67057W        W38728  39.389  31.027  14.870
67058W        W38729  26.730  35.357   3.662
67059W        W38730  36.376  19.086  10.608
67060W        W38731  44.557  41.826  11.617
67061W        W38732  27.002  18.849   1.818
67062W        W38733   2.861  32.666   3.436
67063W        W38734  40.817  18.057  14.014
67064W        W38735   6.840  15.067  11.560
67065W        W38736   9.805  37.888  14.635
67066W        W38737  37.093  13.855  11.616
67067W        W38738   3.978  25.708   1.755
67068W        W38739   0.269  42.938   3.969
67069W        W38740   5.957   0.516  12.413
67070W        W38741  31.670  41.189  14.757
67071W        W38742  44.897  11.796  10.747
67072W        W38743  43.446   5.390  10.715
67073W        W38744  37.333   6.782   0.207
67074W        W38745  10.575   5.850   3.826
67075W        W38746  25.568   6.667  10.760
67076W        W38747  17.741  19.308   4.943
67077W        W38748  11.175   2.944   0.762
67078W        W38749  22.589  29.581   0.757
67079W        W38750   5.784  35.839   1.310
67080W        W38751  36.272  14.017   0.743
67081W        W38752  22.116  10.415  14.460
67082W        W38753  28.914   6.344  13.288
67083W        W38754  19.058  32.019   4.683
67084W        W38755  25.718   3.220  10.796
67085W        W38756  38.155   1.950   1.722
67086W        W38757  23.044  30.612  12.393
67087W        W38758  30.666  11.754  14.792
67088W        W38759  14.602  37.485  13.036
67089W        W38760  36.111  18.966  12.372
67090W        W38761  27.007  21.052   2.814
67091W        W38762   3.642   6.418  13.274
67092W        W38763  44.772  33.563  14.518
67093W        W38764  39.324   1.684   2.858
67094W        W38765   3.674  38.000   3.206
67095W        W38766  42.810   9.678  13.984
67096W        W38767  28.342  31.865   0.817
67097W        W38768  13.630  30.248   0.727
67098W        W38769   9.896   5.845  14.289
67099W        W38770  11.066  24.599   2.887
67100W        W38771  44.411  16.280   1.240
67101W        W38772  18.095  11.201   1.380
67102W        W38773  10.281  36.632   4.654
67103W        W38774  12.598  23.076   2.448
67104W        W38775  33.029  37.878   4.852
67105W        W38776  10.398  28.968  12.392
67106W        W38777  11.445  17.777  13.417
67107W        W38778  14.310  33.599   2.045
67108W        W38779  37.655  32.809   4.192
67109W        W38780   5.723  31.907  12.942
67110W        W38781  18.743  23.814   4.411
67111W        W38782   3.284   1.289   1.797
67112W        W38783  32.122  30.928   1.007
67113W        W38784  33.330   7.822   3.158
67114W        W38785  15.007   9.680   3.060
67115W        W38786  42.660  18.099   0.950
67116W        W38787   9.358   4.411   4.510
67117W        W38788  26.982  33.166  10.929
67118W        W38789  22.905   2.639   1.074
67119W        W38790   4.465  36.963  13.736
67120W        W38791  27.252  15.764   2.345
67121W        W38792  13.631  31.462   3.321
67122W        W38793  22.078  43.083  11.994
67123W        W38794  37.507  25.642   2.963
67124W        W38795  10.126  36.577  11.777
67125W        W38796  31.617  36.398   1.671
67126W        W38797  14.212  15.063   0.500
67127W        W38798  19.378  24.386  10.709
67128W        W38799  37.016  27.292  11.075
67129W        W38800  36.849  28.461  12.672
67130W        W38801  31.916  18.293   0.310
67131W        W38802  29.588  18.999  14.785
67132W        W38803  25.953  22.545   3.562
67133W        W38804   1.682  29.118  12.037
67134W        W38805  34.967   8.099  14.425
67135W        W38806   5.898  26.817  13.150
67136W        W38807  16.856  15.972  14.830
67137W        W38808  33.912  43.451   1.084
67138W        W38809  38.901  31.719  11.192
67139W        W38810  41.890  38.435  12.591
67140W        W38811   4.270  23.917   0.976
67141W        W38812  17.540   9.175  12.834
67142W        W38813  28.259  43.270   1.168
67143W        W38814  29.353  30.139  13.860
67144W        W38815  34.488  33.633   1.882
67145W        W38816  42.783  41.802   2.257
67146W        W38817  11.785  29.241   2.742
67147W        W38818  38.850  23.157  12.147
67148W        W38819   8.459  32.228  12.596
67149W        W38820  43.896  41.470   1.657
67150W        W38821  23.088  40.990   0.267
67151W        W38822  16.429  36.117  10.846
67152W        W38823  28.111   5.942  14.881
67153W        W38824  26.594  15.248  11.567
67154W        W38825  25.776  37.558  14.839
67155W        W38826  16.805  43.394   0.919
67156W        W38827  28.061  15.798   2.679
67157W        W38828  33.844  30.883  14.432
67158W        W38829  29.619  41.354   4.087
67159W        W38830   8.187  13.811  14.840
67160W        W38831   0.670   6.114  11.313
67161W        W38832   8.663  15.697  10.737
67162W        W38833   4.927  17.092   4.511
67163W        W38834  11.674  13.852  13.677
67164W        W38835  43.586  40.595  10.950
67165W        W38836   7.915  32.591  10.600
67166W        W38837   6.663  33.033  14.197
67167W        W38838  22.107   6.931   2.758
67168W        W38839  39.486  39.851  14.749
67169W        W38840  12.813   5.895   4.546
67170W        W38841  15.654  33.950  13.447
67171W        W38842  16.110  30.674   0.245
67172W        W38843  10.197  26.520   5.041
67173W        W38844  37.067  21.654   2.845
67174W        W38845  37.462  32.680   2.403
67175W        W38846  41.816  10.712  10.395
67176W        W38847  37.408   1.450   2.102
67177W        W38848   6.977  29.944  13.456
67178W        W38849  26.058   2.688  13.913
67179W        W38850  16.035  19.535  12.047
67180W        W38851   0.309  23.457   4.577
67181W        W38852   9.884  18.447   4.365
67182W        W38853  38.367  29.439   2.894
67183W        W38854  32.762  27.260  14.973
67184W        W38855  10.221   0.001   0.475
67185W        W38856  29.195   9.329   2.832
67186W        W38857  13.719  43.533  12.069
67187W        W38858  26.804  22.493  12.386
67188W        W38859  27.211  27.080   0.060
67189W        W38860  33.465  16.841   0.289
67190W        W38861  19.456  44.838   2.891
67191W        W38862  18.573  40.412   0.943
67192W        W38863   3.489  34.900   0.691
67193W        W38864  17.698  29.043   4.770
67194W        W38865   8.551  11.420   4.128
67195W        W38866  43.468  25.767   4.595
67196W        W38867   9.099  30.071  11.655
67197W        W38868  36.298  22.001  11.175
67198W        W38869  43.844   7.842  13.181
67199W        W38870  28.200  33.982   1.542
67200W        W38871   5.783  19.427   3.975
67201W        W38872  37.888  26.801  12.919
67202W        W38873  11.897  18.322   2.453
67203W        W38874  31.442  20.660  14.781
67204W        W38875  25.222   6.962   3.132
67205W        W38876  17.235  32.604  14.888
67206W        W38877  18.829  29.678  12.982
67207W        W38878   6.217  39.934   2.322
67208W        W38879  14.217  25.929  14.021
67209W        W38880  44.096  18.310   1.437
67210W        W38881  30.520  12.071  14.372
67211W        W38882   6.812  18.365  12.429
67212W        W38883  10.066  40.618  12.944
67213W        W38884  33.900  16.778   0.942
67214W        W38885  18.060   4.777   3.292
67215W        W38886  11.337  14.806   2.671
67216W        W38887   4.743   9.531   0.281
67217W        W38888  11.584  40.527  14.851
67218W        W38889   5.662  38.209   2.749
67219W        W38890  21.554  20.570   1.590
67220W        W38891  31.859  34.578   1.259
67221W        W38892  36.940  37.389   4.829
67222W        W38893   9.369  25.848   1.750
67223W        W38894   9.936  44.830  14.467
67224W        W38895  41.753  17.139   1.007
67225W        W38896  27.432   9.928  14.295
67226W        W38897  22.187  31.415   3.175
67227W        W38898  17.657  16.769   3.965
67228W        W38899  22.905   1.472  10.790
67229W        W38900  44.987   7.203  12.052
67230W        W38901  14.106  40.198  14.884
67231W        W38902  10.848   0.030  13.993
67232W        W38903  33.800   8.302  14.888
67233W        W38904   0.754  16.524   2.751
67234W        W38905   8.723   1.594   4.607
67235W        W38906  28.383  40.161  13.960
67236W        W38907  19.540  20.204   4.962
67237W        W38908  14.678  29.111   4.981
67238W        W38909  26.093  33.907  14.286
67239W        W38910  28.544   4.392  14.469
67240W        W38911  22.229   7.170  14.793
67241W        W38912  13.608  35.338   4.434
67242W        W38913  35.493  37.722   3.139
67243W        W38914  14.613   9.967  11.597
67244W        W38915   8.762   6.170  11.957
67245W        W38916   5.800   7.687  13.929
67246W        W38917  36.287  31.285  11.651
67247W        W38918  24.264   6.764   3.381
67248W        W38919  35.419  17.313   4.482
67249W        W38920  31.461  20.344  10.916
67250W        W38921  31.642  29.196   0.506
67251W        W38922  17.294  18.162   1.680
67252W        W38923   1.731  26.000  10.938
67253W        W38924   8.604   1.427  14.018
67254W        W38925  42.219  25.944  13.110
67255W        W38926   2.412  38.976   2.230
67256W        W38927   8.419  22.522   2.875
67257W        W38928  18.899  21.135  14.585
67258W        W38929   6.429  31.512  10.587
67259W        W38930  14.341  36.945  13.549
67260W        W38931  27.558   4.324   4.642
67261W        W38932  20.560  15.099  14.008
67262W        W38933  20.240  12.746   2.368
67263W        W38934  44.846  26.874   0.012
67264W        W38935   4.156  23.332  11.547
67265W        W38936  20.501  37.040   0.608
67266W        W38937  24.929   7.766   2.679
67267W        W38938  43.017   0.486  14.863
67268W        W38939  32.343  10.042   2.171
67269W        W38940  19.336   5.507  12.825
67270W        W38941  33.583  34.504   1.650
67271W        W38942  18.592  28.474  10.560
67272W        W38943   8.800  36.967  10.892
67273W        W38944  20.431  38.957   4.191
67274W        W38945  30.440  16.312  11.948
67275W        W38946  18.377  36.349  13.392
67276W        W38947   9.237  38.786   1.231
67277W        W38948  30.946  13.803   0.401
67278W        W38949  29.606  44.836  13.809
67279W        W38950  43.691   2.779   3.247
67280W        W38951  16.229  22.282  14.025
67281W        W38952  25.724   0.776  12.418
67282W        W38953   1.394  19.399  11.056
67283W        W38954  34.479  10.651  14.766
67284W        W38955  26.049  32.939  12.782
67285W        W38956   7.542  38.693   1.382
67286W        W38957  28.944  42.875   4.265
67287W        W38958  25.725  27.220  10.994
67288W        W38959  44.449  39.966   2.744
67289W        W38960  13.491  17.137   3.158
67290W        W38961  40.954  10.803  14.401
67291W        W38962   3.936   5.735   3.286
67292W        W38963   9.354  29.152  14.362
67293W        W38964   6.017   0.330   3.231
67294W        W38965  37.549  31.451  11.967
67295W        W38966  40.605  42.153  13.001
67296W        W38967  37.155  32.576   3.717
67297W        W38968  30.886  24.367   4.400
67298W        W38969  42.323  41.219   5.072
67299W        W38970   1.483  34.288  13.347
67300W        W38971  12.834   2.049   2.220
67301W        W38972  38.829  33.231   2.916
67302W        W38973  31.868  30.688   3.404
67303W        W38974  21.139  17.749  14.004
67304W        W38975  35.052  31.851   4.627
67305W        W38976  39.264  36.399   2.786
67306W        W38977  10.411  42.040  11.610
67307W        W38978  44.025  16.742   3.250
67308W        W38979   3.501   1.078  12.183
67309W        W38980  19.765  36.981   1.796
67310W        W38981  38.842  37.899   0.769
67311W        W38982  15.063  19.687  12.237
67312W        W38983   8.879  27.412   2.618
67313W        W38984   8.930  17.208  14.027
67314W        W38985  24.928  36.406   1.442
67315W        W38986  33.358  16.380  11.124
67316W        W38987   0.954  13.391   0.426
67317W        W38988  28.109  32.929  13.116
67318W        W38989  39.408  18.091   2.386
67319W        W38990  37.351  12.916   0.937
67320W        W38991  40.639  24.755   4.574
67321W        W38992   2.660  38.244   4.036
67322W        W38993  29.878  21.222  10.517
67323W        W38994  25.956  43.856   3.614
67324W        W38995   0.939  18.230   1.155
67325W        W38996  12.799   1.034   0.523
67326W        W38997  22.310  42.956  14.552
67327W        W38998  25.013  38.844   4.306
67328W        W38999  17.735   1.269   3.446
67329W        W39000  12.244   1.712   0.828
67330W        W39001  34.902   9.291   3.098
67331W        W39002  29.708   8.288  10.546
67332W        W39003  15.204   4.428  14.006
67333W        W39004  15.701  15.651   0.497
67334W        W39005   8.672  41.013  11.149
67335W        W39006  19.274  21.863  12.610
67336W        W39007  22.146   6.707   4.406
67337W        W39008  35.427  18.657  11.260
67338W        W39009  17.285   5.499  10.020
67339W        W39010   5.187  33.992  11.254
67340W        W39011  19.848  12.756   2.752
67341W        W39012   3.917  29.087  14.270
67342W        W39013   2.226  30.991  13.390
67343W        W39014  21.292   6.303   0.410
67344W        W39015  20.055  18.123  13.307
67345W        W39016   6.892   0.159   3.123
67346W        W39017   0.465  42.230   4.176
67347W        W39018  32.585  40.493   1.635
67348W        W39019  30.359   8.022  12.429
67349W        W39020  25.718  12.068   3.800
67350W        W39021   6.911  26.535   4.153
67351W        W39022  30.137  19.556   0.293
67352W        W39023  33.426  44.624   3.700
67353W        W39024  40.761  38.829   2.628
67354W        W39025   0.204  34.131   3.139
67355W        W39026   3.657  26.633   3.771
67356W        W39027  36.125  10.585   1.992
67357W        W39028  14.088   6.271  11.055
67358W        W39029  36.906  35.554  14.054
67359W        W39030  17.084  33.423   1.501
67360W        W39031  27.871  19.209  14.863
67361W        W39032   6.068  33.137  13.470
67362W        W39033  38.529   8.274   2.766
67363W        W39034  38.819  30.440   3.311
67364W        W39035  25.755  32.717  11.913
67365W        W39036   7.721  28.409   1.662
67366W        W39037  22.970  32.586   3.114
67367W        W39038  11.166  19.804  10.681
67368W        W39039  13.844  29.840   3.668
67369W        W39040  38.982  43.725  13.357
67370W        W39041  13.085   4.754  12.125
67371W        W39042  35.177  19.468   9.937
67372W        W39043  43.414   2.383  12.094
67373W        W39044  40.232  26.722  10.207
67374W        W39045   2.242  20.193  11.517
67375W        W39046  23.029  41.535   3.836
67376W        W39047  32.429   9.757  14.017
67377W        W39048  23.575  30.680  14.019
67378W        W39049  43.548  38.348  11.525
67379W        W39050  30.972  24.941  11.090
67380W        W39051  23.143  19.636   1.763
67381W        W39052  40.404  33.653  13.931
67382W        W39053  15.093  26.349  13.467
67383W        W39054   1.922  17.854   4.557
67384W        W39055  23.441  42.893   4.161
67385W        W39056  36.163  35.383   0.441
67386W        W39057  32.961   9.275   3.262
67387W        W39058  24.047  32.216  12.035
67388W        W39059   4.820  19.322   5.070
67389W        W39060  43.136  24.755   3.239
67390W        W39061  42.808  38.032  11.934
67391W        W39062  19.274  17.815   4.123
67392W        W39063   4.829  21.267   4.126
67393W        W39064  24.666  24.991  11.864
67394W        W39065   7.366   5.499  12.880
67395W        W39066  29.878  28.970  10.430
67396W        W39067  28.519  38.390   3.121
67397W        W39068   1.747  33.323   4.669
67398W        W39069  19.596  23.291  10.666
67399W        W39070   8.118  34.069  11.242
67400W        W39071  41.004   8.365   4.773
67401W        W39072  14.907  17.048  14.314
67402W        W39073  42.929  34.098  11.129
67403W        W39074   1.215  14.786  13.581
67404W        W39075  41.462  15.507  14.285
67405W        W39076  23.687  27.071  14.883
67406W        W39077   9.287  24.098  11.212
67407W        W39078  33.788   2.664   4.198
67408W        W39079  16.092  37.841  10.368
67409W        W39080  41.421  39.510   2.696
67410W        W39081   0.432  30.481   0.876
67411W        W39082  16.100   5.766  14.553
67412W        W39083  43.713  44.207   2.609
67413W        W39084  19.848  29.264   1.803
67414W        W39085  12.213   3.334   1.317
67415W        W39086   7.053  44.255  10.820
67416W        W39087   8.732  29.231  13.149
67417W        W39088   9.081   5.917  11.646
67418W        W39089   6.598  17.192  13.506
67419W        W39090  16.125   3.319  13.960
67420W        W39091  44.791   0.927  11.591
67421W        W39092  33.443  34.841  12.097
67422W        W39093  19.126  10.485  12.006
67423W        W39094  33.966  35.505  13.524
67424W        W39095  36.009  32.578  11.129
67425W        W39096  16.236  14.732   0.546
67426W        W39097  18.324   3.322   1.452
67427W        W39098  20.891  22.169   1.374
67428W        W39099  31.210   1.148   4.821
67429W        W39100  38.081  10.780  12.542
67430W        W39101   6.849  14.048   0.957
67431W        W39102  10.280   7.504  12.622
67432W        W39103  30.629  33.110   2.291
67433W        W39104   6.303   7.349  14.998
67434W        W39105  39.254  38.652   4.140
67435W        W39106  16.257  14.669  11.839
67436W        W39107  28.739  20.130  12.067
67437W        W39108   1.554  39.416  14.007
67438W        W39109  20.116   8.799   1.178
67439W        W39110   6.458   3.929   3.658
67440W        W39111  42.120   7.553  11.473
67441W        W39112   6.959  29.442  13.017
67442W        W39113   1.178  20.023   3.234
67443W        W39114  13.159   7.665  14.378
67444W        W39115  14.282  37.432  12.637
67445W        W39116  40.111  18.317   0.787
67446W        W39117  33.176  24.943   0.334
67447W        W39118  42.520  22.008  14.581
67448W        W39119  22.037  40.522  11.927
67449W        W39120   7.998   2.461  11.660
67450W        W39121  40.063  44.698  14.541
67451W        W39122  43.600  30.553  10.982
67452W        W39123   3.731  44.272  12.990
67453W        W39124  29.640   3.464   2.891
67454W        W39125  11.138  19.243  12.945
67455W        W39126   7.993   1.597   4.774
67456W        W39127  22.619   9.643  13.396
67457W        W39128  13.645  13.100   1.895
67458W        W39129  17.767   2.789   0.335
67459W        W39130  28.617  28.478   0.437
67460W        W39131  40.952   6.248   0.861
67461W        W39132  28.147  37.014  12.929
67462W        W39133  40.891   6.654  10.715
67463W        W39134   1.801  29.812   2.831
67464W        W39135  20.140   0.539  14.888
67465W        W39136   4.292  41.565   3.234
67466W        W39137  12.396  38.824  14.854
67467W        W39138  10.150  29.409   5.000
67468W        W39139   9.294  44.299   1.484
67469W        W39140  37.825  35.149   4.231
67470W        W39141   2.743   7.270   2.728
67471W        W39142  15.550  11.808  11.873
67472W        W39143   8.604  41.566   3.767
67473W        W39144  13.899  21.320   2.781
67474W        W39145  36.165   9.198   0.773
67475W        W39146  24.936   4.940  14.881
67476W        W39147  21.531  40.604  13.700
67477W        W39148  24.222   4.868   1.239
67478W        W39149  24.052  23.118  11.061
67479W        W39150  13.205  30.036   1.638
67480W        W39151  13.407   2.003   3.009
67481W        W39152  18.552  37.055  11.224
67482W        W39153  44.979  13.293  10.023
67483W        W39154   2.588  34.105   2.854
67484W        W39155   1.975  28.380  14.471
67485W        W39156  35.118  10.679   1.853
67486W        W39157  16.011   8.376  11.684
67487W        W39158   2.198  35.862   2.333
67488W        W39159  10.190   7.829   4.182
67489W        W39160  17.147  11.904  11.153
67490W        W39161   8.272   1.037  14.446
67491W        W39162   8.245  22.456   1.656
67492W        W39163  25.161  11.828  14.246
67493W        W39164  27.551  28.765  14.642
67494W        W39165  24.641  41.661   0.772
67495W        W39166  37.006  39.870  13.081
67496W        W39167  22.014  39.429  11.947
67497W        W39168  19.332  35.343   2.716
67498W        W39169  13.736   2.967  14.020
67499W        W39170  27.202  13.708   0.260
67500W        W39171  33.370  15.222  14.987
67501W        W39172  39.480  25.720   1.033
67502W        W39173   8.182  30.113   4.668
67503W        W39174  40.073  16.137   1.740
67504W        W39175  39.092  12.784  11.144
67505W        W39176   1.041  33.956  13.327
67506W        W39177  17.040  17.246   1.754
67507W        W39178  12.881  30.687  12.009
67508W        W39179  26.182   2.219  12.509
67509W        W39180  14.524  21.258   1.316
67510W        W39181  40.609   2.664   4.280
67511W        W39182  10.586  35.728  13.825
67512W        W39183  19.629   4.221  12.001
67513W        W39184  39.468  41.078   3.706
67514W        W39185  41.394   0.347  14.060
67515W        W39186  28.471  43.285  12.824
67516W        W39187  38.970  33.743   3.627
67517W        W39188  19.090  23.839  14.838
67518W        W39189  17.268   0.392   3.714
67519W        W39190  25.870  16.336   1.984
67520W        W39191  23.624  24.792   0.488
67521W        W39192  27.964  34.128  12.559
67522W        W39193   9.834  28.665  12.931
67523W        W39194  16.613   8.904  13.845
67524W        W39195   6.939  39.085   3.757
67525W        W39196   7.645  15.142  14.949
67526W        W39197  32.950  20.959  14.885
67527W        W39198  42.257   7.730  14.867
67528W        W39199   0.957  22.267   1.461
67529W        W39200  43.271  22.671  11.163
67530W        W39201   4.698  27.926  13.460
67531W        W39202  19.205  11.650   1.900
67532W        W39203   5.432  12.100   2.827
67533W        W39204  38.133  23.558  14.263
67534W        W39205  30.407  29.429   1.344
67535W        W39206  42.775  14.592   1.659
67536W        W39207  35.168  24.643   0.301
67537W        W39208  44.938  13.665   4.287
67538W        W39209   3.328  12.036   0.356
67539W        W39210  33.855  16.479  12.905
67540W        W39211   6.116  20.408   0.710
67541W        W39212  36.842  37.675  12.283
67542W        W39213  25.507  19.021  13.801
67543W        W39214  24.452  23.320   3.235
67544W        W39215  25.170  16.486  14.527
67545W        W39216   6.279   4.894  12.586
67546W        W39217   9.872   1.690  13.433
67547W        W39218  28.770  35.187   1.911
67548W        W39219  29.404   6.804  12.588
67549W        W39220  27.266  19.950   0.432
67550W        W39221  42.440   5.957   0.429
67551W        W39222  37.037  10.805   4.422
67552W        W39223  40.409  18.747   0.650
67553W        W39224  20.098  25.612   3.745
67554W        W39225  20.309  36.987   2.624
67555W        W39226   8.416  33.664  12.686
67556W        W39227  35.101  42.126   0.680
67557W        W39228  14.046  23.718  10.953
67558W        W39229  28.604  43.912   0.048
67559W        W39230  29.026  30.553   0.780
67560W        W39231  11.992   9.205  14.487
67561W        W39232   2.675  29.024   3.135
67562W        W39233  31.352  34.638   0.367
67563W        W39234  15.181  37.421   1.319
67564W        W39235   3.149   1.232   3.782
67565W        W39236  28.440  19.230   4.825
67566W        W39237   5.470  19.595   4.383
67567W        W39238  40.222  26.013  13.511
67568W        W39239  30.486   7.508   0.749
67569W        W39240  19.046  29.533  10.760
67570W        W39241  20.487  39.970  10.628
67571W        W39242  38.837  12.130  11.885
67572W        W39243  20.688  19.681  12.087
67573W        W39244  13.240  14.741  10.444
67574W        W39245  39.993   5.389   3.770
67575W        W39246  40.254   2.473   2.250
67576W        W39247  18.735  19.971  12.566
67577W        W39248  44.785   0.395  10.718
67578W        W39249   9.171  17.705   0.746
67579W        W39250  31.378   8.564  11.040
67580W        W39251   3.176  31.135   0.581
67581W        W39252  15.227   1.421  12.993
67582W        W39253  16.267   6.822  12.801
67583W        W39254  34.393  34.508  11.931
67584W        W39255  13.294  41.397   4.214
67585W        W39256   8.209  31.115  10.568
67586W        W39257  34.747  34.593   3.446
67587W        W39258  12.096  29.991   3.395
67588W        W39259   9.612   2.956  11.084
67589W        W39260  39.315   4.341  14.753
67590W        W39261  25.575  24.677  13.097
67591W        W39262   9.895  36.809   0.485
67592W        W39263  43.524  24.235   1.882
67593W        W39264  28.856  12.255  13.882
67594W        W39265   3.478  23.386  13.900
67595W        W39266  36.622  39.987   2.918
67596W        W39267  43.446   9.072  14.333
67597W        W39268  15.354  41.783   0.413
67598W        W39269  17.184  16.132  12.696
67599W        W39270  19.779  28.741   5.104
67600W        W39271  22.788  25.620  12.021
67601W        W39272   9.181  13.872   1.748
67602W        W39273  37.597  15.654   3.374
67603W        W39274   0.415  21.296   3.520
67604W        W39275  19.306   0.754  13.052
67605W        W39276  42.932  20.766  10.084
67606W        W39277  38.081  43.737  11.599
67607W        W39278   3.788  18.984   0.909
67608W        W39279  18.704  14.773  11.146
67609W        W39280  19.280   9.575   0.825
67610W        W39281  24.771  28.429   1.319
67611W        W39282  18.172   3.220   0.023
67612W        W39283   9.621  28.535   3.088
67613W        W39284  23.072   0.440  14.865
67614W        W39285  14.654  29.069  13.977
67615W        W39286  37.755  14.282  12.299
67616W        W39287  29.635  35.603   2.490
67617W        W39288  36.794  14.128   1.375
67618W        W39289  29.865  41.006   0.654
67619W        W39290   4.465  27.356   1.621
67620W        W39291  21.856  35.154   3.920
67621W        W39292   9.921  31.443  12.042
67622W        W39293  19.173  23.700   5.544
67623W        W39294   2.267  16.588   1.910
67624W        W39295   3.513  24.198  12.535
67625W        W39296  12.890  23.476  13.537
67626W        W39297  29.937  44.383  14.400
67627W        W39298   1.920   3.415  13.084
67628W        W39299  10.831   8.958   4.477
67629W        W39300  10.906  17.530  11.949
67630W        W39301   4.767  30.669  10.947
67631W        W39302  39.830   4.291  14.791
67632W        W39303  34.834  26.548  14.425
67633W        W39304  43.507  15.488   4.181
67634W        W39305   9.307  40.063  12.134
67635W        W39306  31.623  33.331  14.925
67636W        W39307   4.859  10.670  13.350
67637W        W39308  34.105  40.544  12.339
67638W        W39309  27.331  27.240   0.532
67639W        W39310  21.613   3.414   2.829
67640W        W39311   4.188  42.970   4.006
67641W        W39312  26.916   4.226  13.774
67642W        W39313   1.442  13.176   3.152
67643W        W39314  18.975  12.602  11.988
67644W        W39315  30.025  37.962  14.971
67645W        W39316   1.011  30.535  11.676
67646W        W39317  14.718   9.887  13.848
67647W        W39318  30.658  21.151  14.950
67648W        W39319  42.217  31.230  14.099
67649W        W39320  41.048  25.972   0.903
67650W        W39321  44.530  38.950  13.921
67651W        W39322  41.885  28.926   0.441
67652W        W39323  21.129   2.789   4.939
67653W        W39324  15.659   7.400   9.733
67654W        W39325  39.751   0.967  12.869
67655W        W39326   2.428  29.609   4.281
67656W        W39327  31.538  16.217   4.252
67657W        W39328  39.383  20.286   2.777
67658W        W39329  23.018   7.185  12.365
67659W        W39330   4.367   6.772  13.774
67660W        W39331  27.638  33.158   4.342
67661W        W39332  43.710  40.887   5.037
67662W        W39333  41.804  24.170   0.694
67663W        W39334   5.303   2.795  11.024
67664W        W39335  37.831  32.839   0.297
67665W        W39336  43.347  17.537   0.039
67666W        W39337  11.657  17.593  14.790
67667W        W39338   4.174  36.608  12.969
67668W        W39339   3.345  18.126  12.394
67669W        W39340  28.058   8.225   0.426
67670W        W39341  30.477  41.499   4.150
67671W        W39342  33.852  37.112   0.799
67672W        W39343  16.272  11.060  13.889
67673W        W39344  25.114   3.951  12.104
67674W        W39345  15.300  33.125   4.310
67675W        W39346  42.689  11.265   5.313
67676W        W39347   4.379   9.268   1.838
67677W        W39348  34.604  25.570   1.484
67678W        W39349  42.424  15.835   1.886
67679W        W39350  16.673  25.669  12.055
67680W        W39351   3.176  40.292   4.486
67681W        W39352  32.466  32.314   0.311
67682W        W39353  16.800   1.238  10.702
67683W        W39354  12.162   8.244  12.532
67684W        W39355  28.148  20.992   1.749
67685W        W39356  44.737  10.836   5.152
67686W        W39357  28.854  15.730   3.202
67687W        W39358   5.460  16.791   2.352
67688W        W39359   9.163   5.567  13.460
67689W        W39360  10.818  35.480  14.250
67690W        W39361  25.936  32.152   2.413
67691W        W39362  33.841   0.446   0.384
67692W        W39363  24.587  24.905  11.377
67693W        W39364  17.183  36.884  10.553
67694W        W39365   5.604   5.847   4.135
67695W        W39366  33.171  26.731  14.986
67696W        W39367  37.550  32.036  12.814
67697W        W39368   3.783  43.628   2.189
67698W        W39369  19.810  43.267   0.388
67699W        W39370  19.690   9.682  10.686
67700W        W39371  28.477  24.193   3.289
67701W        W39372  14.609  27.482  14.034
67702W        W39373  23.726  24.999  14.147
67703W        W39374   0.324  33.899   2.685
67704W        W39375  27.993   5.804   1.945
67705W        W39376  44.151  33.876   5.087
67706W        W39377  40.356   7.768  14.972
67707W        W39378  22.081   1.787  14.467
67708W        W39379  23.427  41.564   5.148
67709W        W39380  14.320   7.918   4.519
67710W        W39381  38.899   9.642   2.740
67711W        W39382  13.436  34.112  11.899
67712W        W39383  30.001  34.555  10.765
67713W        W39384  30.971  41.242  11.247
67714W        W39385  36.155  39.093  10.030
67715W        W39386  15.033  37.613   3.698
67716W        W39387  18.802  25.122   2.725
67717W        W39388  24.373   3.941   1.225
67718W        W39389  30.974   4.326  12.686
67719W        W39390  25.524  31.443  13.432
67720W        W39391  13.537   3.710  11.792
67721W        W39392   1.745   8.296   2.810
67722W        W39393  12.490   0.852   0.896
67723W        W39394  40.258  35.429  11.378
67724W        W39395  10.351  18.221   4.222
67725W        W39396  21.530  20.759   2.081
67726W        W39397  18.208  33.969  12.092
67727W        W39398  22.979  41.214  10.299
67728W        W39399  32.409  24.674  13.776
67729W        W39400  40.812  25.619   3.676
67730W        W39401  12.339   5.688  13.575
67731W        W39402  10.322  41.844   3.162
67732W        W39403  26.521  20.456   2.382
67733W        W39404  24.055   5.191  12.963
67734W        W39405  30.061  28.176   4.322
67735W        W39406  23.192   4.846  14.404
67736W        W39407  27.535  18.549   4.669
67737W        W39408  40.921  30.128  14.700
67738W        W39409  28.622  37.557   4.018
67739W        W39410  23.294  26.588  11.225
67740W        W39411  39.772   7.020   4.432
67741W        W39412  22.107   6.675   0.897
67742W        W39413  33.722  38.090   5.066
67743W        W39414  20.830  13.616   0.962
67744W        W39415  32.855  20.129  13.803
67745W        W39416  19.534  25.707   9.888
67746W        W39417  18.170  26.172   1.230
67747W        W39418  42.313  10.599   0.648
67748W        W39419  26.561  23.866   0.898
67749W        W39420   5.487  44.486  12.425
67750W        W39421  34.372  44.083   0.411
67751W        W39422  26.319   5.303   1.425
67752W        W39423  19.881  18.292  12.289
67753W        W39424   4.935  11.355   0.702
67754W        W39425  10.714  22.199  14.331
67755W        W39426   3.737   3.703   4.725
67756W        W39427  35.835  10.657  12.993
67757W        W39428  29.860   6.682   2.147
67758W        W39429  36.541  13.585  13.594
67759W        W39430  11.812  27.038  10.530
67760W        W39431  15.985  22.094  13.601
67761W        W39432   2.245   3.231  10.795
67762W        W39433  10.256  21.691  13.855
67763W        W39434  11.175   3.510   0.498
67764W        W39435   4.871  38.911   1.707
67765W        W39436  17.127  42.814   1.821
67766W        W39437  18.725  38.338  14.390
67767W        W39438   0.374  32.665  12.627
67768W        W39439  15.679   2.986  13.839
67769W        W39440  29.495   5.674   0.463
67770W        W39441  12.081  24.180  12.426
67771W        W39442  11.160  23.731  10.599
67772W        W39443  13.510  37.504   3.712
67773W        W39444  30.873  18.550  13.918
67774W        W39445  13.056  44.068   0.535
67775W        W39446  12.245  27.139  13.272
67776W        W39447  24.888  19.576   4.116
67777W        W39448  16.769   0.342   4.856
67778W        W39449  12.144  31.955   9.858
67779W        W39450  12.325  10.820  12.731
67780W        W39451  34.634  29.493  12.918
67781W        W39452  26.145  17.674   4.627
67782W        W39453  17.778   5.864  12.395
67783W        W39454  22.245   0.419  10.592
67784W        W39455  13.820  29.574   0.424
67785W        W39456  18.782   9.165  10.796
67786W        W39457  18.287   9.844  14.353
67787W        W39458   0.928  14.217   2.693
67788W        W39459  34.853  42.954   0.355
67789W        W39460  25.812  16.145   4.776
67790W        W39461  44.812  42.321  14.927
67791W        W39462  36.004  15.855   4.096
67792W        W39463  18.422   9.539  12.210
67793W        W39464  10.359  19.136  14.252
67794W        W39465  41.293  18.048  11.956
67795W        W39466  12.282  39.687  12.229
67796W        W39467  40.495  29.113   1.452
67797W        W39468  17.745  38.304  12.502
67798W        W39469  26.107  13.387   2.699
67799W        W39470  31.040  33.804   4.569
67800W        W39471   0.884  20.024   3.644
67801W        W39472  10.328  33.968   3.820
67802W        W39473  44.020  16.993  11.994
67803W        W39474  28.956  22.257   4.268
67804W        W39475  12.691  44.871  12.537
67805W        W39476  30.601  40.039   1.146
67806W        W39477  44.340  39.038  11.022
67807W        W39478  17.598  41.021   4.338
67808W        W39479  23.446  22.172  13.946
67809W        W39480   3.780   9.913   1.722
67810W        W39481  41.880  32.203  14.706
67811W        W39482   0.984   8.483   1.741
67812W        W39483  19.278  32.213   1.816
67813W        W39484  14.849  33.427  11.295
67814W        W39485  25.708   2.706  13.490
67815W        W39486  42.884  12.860  11.523
67816W        W39487  23.628  32.868   2.384
67817W        W39488  28.400  13.597   2.383
67818W        W39489  11.833  37.112   1.345
67819W        W39490  39.584  35.257  14.482
67820W        W39491  40.871  22.442  14.858
67821W        W39492  30.645  28.632   2.207
67822W        W39493  16.986  32.492   2.675
67823W        W39494  40.513   4.959  14.302
67824W        W39495   1.034   7.656   0.782
67825W        W39496  16.718  12.351  10.732
67826W        W39497  18.907   1.911   3.644
67827W        W39498   4.646   2.803  11.626
67828W        W39499  33.059  28.252   4.479
67829W        W39500  15.132  40.306  12.866
67830W        W39501  14.170  20.995  14.961
67831W        W39502   1.650  39.830  10.824
67832W        W39503  17.688  32.157   2.385
67833W        W39504  34.466  17.785   0.004
67834W        W39505  36.402  17.127  14.487
67835W        W39506  42.830  42.048   3.107
67836W        W39507  36.877  33.026   3.712
67837W        W39508   9.880  20.537   4.227
67838W        W39509  43.282  42.975  12.038
67839W        W39510   7.896  17.505  10.676
67840W        W39511  21.733  14.093  12.157
67841W        W39512  16.773  14.791  12.007
67842W        W39513  29.217  36.196  11.179
67843W        W39514  29.964  25.589   3.822
67844W        W39515  33.091  22.108   2.397
67845W        W39516  32.673   1.990   4.601
67846W        W39517   1.745  17.556   0.504
67847W        W39518  17.337  30.404  12.084
67848W        W39519  38.809  44.326  12.701
67849W        W39520  30.062  35.875  11.642
67850W        W39521   5.468  11.829   4.530
67851W        W39522  10.245  34.839   0.756
67852W        W39523   0.271  24.426  11.896
67853W        W39524   7.839  16.599   0.961
67854W        W39525  41.141  33.100   1.026
67855W        W39526   5.719  38.441  14.061
67856W        W39527  25.471  33.451  13.164
67857W        W39528  19.131   3.673   3.984
67858W        W39529  25.015  30.564  14.945
67859W        W39530  28.609  24.426  12.032
67860W        W39531  11.710  43.875  11.036
67861W        W39532  18.657  36.542   4.668
67862W        W39533   9.371  11.334  14.433
67863W        W39534  35.927  13.633   1.805
67864W        W39535  35.623  33.615   3.557
67865W        W39536  36.481  13.775  12.857
67866W        W39537  30.839  33.823  12.466
67867W        W39538  38.060   7.414   3.147
67868W        W39539  34.347  36.651   3.223
67869W        W39540   7.657  37.417  12.679
67870W        W39541  28.457  32.028  14.808
67871W        W39542  10.350  18.011   1.223
67872W        W39543  24.957   6.266   2.179
67873W        W39544  44.662  24.898   4.083
67874W        W39545   9.753   0.286   0.509
67875W        W39546  12.460  41.338  10.621
67876W        W39547  10.927  44.471  11.132
67877W        W39548  13.527  15.765   0.196
67878W        W39549   9.558  35.914   3.810
67879W        W39550   6.293  39.186  10.205
67880W        W39551  42.493  18.736   2.838
67881W        W39552  19.514  43.366  10.593
67882W        W39553  30.804  15.478  13.578
67883W        W39554  23.190  34.341   1.790
67884W        W39555   0.758  41.614   4.948
67885W        W39556  26.024  18.108  10.660
67886W        W39557  22.561   8.249  10.698
67887W        W39558  19.786  30.155   3.223
67888W        W39559   0.642  25.230  12.197
67889W        W39560   4.327  30.490  11.190
67890W        W39561  42.524  29.818   4.622
67891W        W39562  30.946  28.757   2.634
67892W        W39563   5.017  25.975  13.563
67893W        W39564  24.233  24.983  14.253
67894W        W39565  15.115  18.302   0.413
67895W        W39566  10.659  44.713   0.380
67896W        W39567  22.972   5.984  13.451
67897W        W39568  27.518   1.311  13.546
67898W        W39569   8.353  43.475   2.431
67899W        W39570  19.284  31.341  14.103
67900W        W39571  36.722  38.385   4.937
67901W        W39572  36.577  15.148   3.844
67902W        W39573  13.699  40.497   2.892
67903W        W39574  11.815  27.290   2.023
67904W        W39575  24.903  18.256   0.560
67905W        W39576  15.611  12.129  13.421
67906W        W39577   1.947  31.006  12.960
67907W        W39578  39.378  28.124   0.805
67908W        W39579   0.326  26.514   2.688
67909W        W39580  24.353   1.032   5.051
67910W        W39581  20.014  22.642   3.186
67911W        W39582  29.455  27.568   1.242
67912W        W39583  23.428   8.194   1.336
67913W        W39584  11.347  11.402   2.992
67914W        W39585   8.783  25.903   0.004
67915W        W39586  43.450  13.475  14.267
67916W        W39587  33.482  10.081  10.978
67917W        W39588   5.887  34.072  11.159
67918W        W39589  17.604  10.150  14.545
67919W        W39590  17.541   4.372   4.661
67920W        W39591  34.914  20.407   4.256
67921W        W39592  43.825  12.565   0.966
67922W        W39593   9.457  14.328   1.918
67923W        W39594  22.730  24.526  11.478
67924W        W39595   3.218  42.699   2.848
67925W        W39596  28.125   6.775   1.925
67926W        W39597  42.147  20.686   0.910
67927W        W39598  33.533  12.623  12.570
67928W        W39599  35.087  25.604  11.513
67929W        W39600  15.605  34.336   0.895
67930W        W39601  35.844  43.920   4.267
67931W        W39602  10.951  34.839  11.551
67932W        W39603  32.576  18.253  10.730
67933W        W39604   5.411  25.520   4.835
67934W        W39605  24.514  19.562  11.652
67935W        W39606  31.926  16.565  10.569
67936W        W39607  26.613  41.589  14.561
67937W        W39608  31.962  10.847   3.801
67938W        W39609  41.404  11.654   1.049
67939W        W39610  27.504  16.699   0.989
67940W        W39611   4.992  44.869   4.558
67941W        W39612   5.410  43.412  11.116
67942W        W39613   1.800  15.451  12.146
67943W        W39614  42.949   6.381   4.714
67944W        W39615  31.831  41.001   2.227
67945W        W39616  35.552   3.244   4.107
67946W        W39617  10.066  33.886   1.835
67947W        W39618  10.258  23.040   4.386
67948W        W39619  21.628  23.896  12.952
67949W        W39620  21.138   7.366  11.363
67950W        W39621  34.842  24.254  12.514
67951W        W39622  20.825  23.636  12.067
67952W        W39623  38.980  15.860  14.794
67953W        W39624   5.351  35.122   0.469
67954W        W39625  16.637  37.509   4.155
67955W        W39626  43.726  22.575  13.996
67956W        W39627  16.274   6.049   2.286
67957W        W39628  31.602  40.804  11.297
67958W        W39629  32.537  17.143   0.506
67959W        W39630  36.335   3.454   2.375
67960W        W39631   7.824  15.613  14.809
67961W        W39632   3.876  19.135  13.929
67962W        W39633  11.293  20.342   3.426
67963W        W39634  26.680  34.597   9.705
67964W        W39635   0.532  11.024  10.699
67965W        W39636   3.806  12.171  14.024
67966W        W39637  26.120   3.449   1.759
67967W        W39638  17.197  35.051  12.693
67968W        W39639  11.695  12.649   2.283
67969W        W39640  37.425  13.339  10.591
67970W        W39641  27.571  43.987   3.246
67971W        W39642  25.963   0.310  12.387
67972W        W39643  21.249  31.984   1.952
67973W        W39644   9.605  16.241  13.336
67974W        W39645   6.296  39.434   2.236
67975W        W39646  33.004  42.745  14.477
67976W        W39647  19.239  18.114   4.843
67977W        W39648  26.495  13.944   4.114
67978W        W39649  24.626  22.038   3.679
67979W        W39650  33.235  35.554  13.826
67980W        W39651  29.247  17.636  10.767
67981W        W39652  37.854  24.097   5.049
67982W        W39653  16.839  18.061  11.201
67983W        W39654  13.137   8.228   3.572
67984W        W39655  22.516  10.382  12.989
67985W        W39656  28.712  25.304   4.378
67986W        W39657  30.670  19.762  13.428
67987W        W39658   7.224  24.967  12.892
67988W        W39659  37.261  14.206  14.919
67989W        W39660  22.471  39.878  13.474
67990W        W39661  37.950  25.488  13.544
67991W        W39662  38.924  41.764  12.135
67992W        W39663  22.260   7.194   3.183
67993W        W39664  34.350   4.016  11.291
67994W        W39665  43.993  31.704   4.693
67995W        W39666  14.834  38.587   1.742
67996W        W39667  16.880   3.784   3.729
67997W        W39668   7.564  16.655  11.599
67998W        W39669  35.400  23.184   4.533
67999W        W39670  37.926  19.156  11.840
68000W        W39671  36.362   5.682  12.510
68001W        W39672  11.892   5.747   4.855
68002W        W39673  38.854  32.573  12.560
68003W        W39674  39.840  28.731  11.531
68004W        W39675  27.661  39.932  12.266
68005W        W39676   6.139  25.540   4.123
68006W        W39677  13.370   6.365  14.890
68007W        W39678  13.273  12.667  14.348
68008W        W39679   9.892   0.769   0.722
68009W        W39680  11.721  35.508   3.111
68010W        W39681   4.157  38.943  12.535
68011W        W39682  38.281   2.671   3.424
68012W        W39683  27.998  19.477  10.330
68013W        W39684  24.549  30.946  11.139
68014W        W39685   4.656   9.880  10.728
68015W        W39686  19.597  41.892   4.067
68016W        W39687  32.080  36.278  14.825
68017W        W39688  31.115   9.730  14.392
68018W        W39689   4.521  17.589   2.529
68019W        W39690  41.105  11.417   2.335
68020W        W39691  27.258  20.755   3.598
68021W        W39692  10.872   4.196   0.213
68022W        W39693  30.542   2.906   4.893
68023W        W39694   9.460  34.005  11.537
68024W        W39695   6.258  38.196   3.627
68025W        W39696   3.220  17.268   2.786
68026W        W39697   0.943  12.609  13.472
68027W        W39698   1.812  21.949   3.165
68028W        W39699  35.423  29.975  13.010
68029W        W39700   6.657  27.902  14.385
68030W        W39701   4.718  10.613  12.110
68031W        W39702  40.187  27.914  14.242
68032W        W39703  42.582  29.512   1.823
68033W        W39704  22.491  13.360   3.412
68034W        W39705  41.674  22.903  10.763
68035W        W39706  44.772  36.171  14.183
68036W        W39707  27.114  35.350  13.777
68037W        W39708  43.412   4.271   4.633
68038W        W39709  23.958  43.574  14.489
68039W        W39710   6.312  43.478  14.447
68040W        W39711  21.636  34.107  10.724
68041W        W39712  34.166  15.571  12.995
68042W        W39713  15.516  36.551   2.234
68043W        W39714  29.951  35.069  10.821
68044W        W39715   0.739   3.490  10.714
68045W        W39716  41.323  40.250  12.881
68046W        W39717  38.543   5.890  14.129
68047W        W39718   0.537  29.577  10.600
68048W        W39719   3.038   1.900  11.018
68049W        W39720  15.382  36.247   0.335
68050W        W39721  35.305  36.666  13.900
68051W        W39722  33.328  43.985  14.275
68052W        W39723  38.871  21.146   2.354
68053W        W39724  29.276  16.156  12.551
68054W        W39725   5.226  44.054  14.480
68055W        W39726   4.290  23.122   2.363
68056W        W39727   9.714  35.581  14.974
68057W        W39728  34.595  27.969   1.772
68058W        W39729  24.809  39.684  10.584
68059W        W39730  42.380  16.017   4.590
68060W        W39731   2.348  12.851   0.352
68061W        W39732  27.926   5.051   4.244
68062W        W39733  25.439  15.681  12.429
68063W        W39734   2.473  44.773  11.587
68064W        W39735  35.110  15.702  12.838
68065W        W39736  36.376   9.335   4.238
68066W        W39737  31.825   8.190   1.665
68067W        W39738  44.470  26.019  14.550
68068W        W39739   9.341   3.639   1.404
68069W        W39740  19.277   5.518  10.717
68070W        W39741   7.406  30.898   4.301
68071W        W39742  28.391  43.292  11.335
68072W        W39743  29.481   2.326  10.197
68073W        W39744  30.451  15.682   3.281
68074W        W39745  27.012   9.026  11.970
68075W        W39746  10.155  42.285  13.754
68076W        W39747  41.057  24.809   0.329
68077W        W39748   3.225  37.896   1.405
68078W        W39749  29.218  11.442  13.687
68079W        W39750  38.588  41.575  14.288
68080W        W39751  19.015  44.349  13.285
68081W        W39752  44.327  32.459   4.050
68082W        W39753  32.488  35.892   4.505
68083W        W39754  29.871  24.574   2.111
68084W        W39755  44.998  24.864   1.003
68085W        W39756   0.919  32.457  12.435
68086W        W39757  35.485  37.793   4.094
68087W        W39758  17.740   3.540  11.838
68088W        W39759  32.940   5.459   1.045
68089W        W39760  18.735   4.668   1.978
68090W        W39761  17.834   3.847  14.842
68091W        W39762  37.153   7.179  14.361
68092W        W39763  24.024  43.287  12.069
68093W        W39764  11.310  31.608  11.951
68094W        W39765  13.936  29.465  14.502
68095W        W39766  39.593  10.260   0.484
68096W        W39767  11.978  17.595   2.561
68097W        W39768  31.932  19.691   4.173
68098W        W39769   3.481  25.956  10.602
68099W        W39770  36.859  43.376  10.736
68100W        W39771   4.453  38.903  11.165
68101W        W39772  30.492  22.562   3.631
68102W        W39773  19.783  32.479   3.658
68103W        W39774   0.014   1.691   1.355
68104W        W39775  15.264  40.037  13.315
68105W        W39776   3.317  12.352  12.200
68106W        W39777  37.840  42.971   4.526
68107W        W39778  19.123   4.334   2.158
68108W        W39779   6.922   9.978  11.939
68109W        W39780   0.507   1.881   1.377
68110W        W39781  22.096  37.468  12.896
68111W        W39782  31.467  23.830  11.852
68112W        W39783  25.730  44.746   0.080
68113W        W39784   9.695  35.283   0.952
68114W        W39785  15.458   1.218  12.563
68115W        W39786  21.586   4.432   3.464
68116W        W39787  37.966  32.087  11.066
68117W        W39788  28.739   6.176  10.620
68118W        W39789  44.296  41.337  12.999
68119W        W39790  19.130  19.511  14.672
68120W        W39791  34.354  43.027   0.246
68121W        W39792  17.767  19.738   3.590
68122W        W39793  40.960  12.585   3.138
68123W        W39794  10.690  42.510  11.587
68124W        W39795  24.465  42.403  12.411
68125W        W39796  10.161   5.842  10.862
68126W        W39797  27.510  12.931  13.336
68127W        W39798  31.586  43.322   2.494
68128W        W39799  39.547  41.763   4.193
68129W        W39800  32.060  34.064  14.768
68130W        W39801   7.826  41.039  11.004
68131W        W39802  34.398  35.133  14.867
68132W        W39803  44.592  18.845  13.047
68133W        W39804  28.979  36.368  14.839
68134W        W39805   9.640   6.932   4.563
68135W        W39806  12.504  23.149  13.360
68136W        W39807  22.404  10.101  12.560
68137W        W39808  20.747   7.367   0.366
68138W        W39809   8.307   0.747  14.011
68139W        W39810   4.424  32.103   3.759
68140W        W39811  21.051  20.183   5.115
68141W        W39812   8.709  43.417  13.381
68142W        W39813  10.314  31.404   4.698
68143W        W39814   9.920  30.214   2.335
68144W        W39815  17.040   1.811   3.650
68145W        W39816  21.698  11.685  10.476
68146W        W39817  23.120  36.800  11.945
68147W        W39818   8.604   8.213   2.858
68148W        W39819  20.809   5.270  11.410
68149W        W39820   4.034   7.288   0.889
68150W        W39821  14.802  26.109   0.491
68151W        W39822   0.777  20.560   2.923
68152W        W39823   4.257   3.240   3.298
68153W        W39824  41.099  18.704  14.854
68154W        W39825  19.444  21.183  13.302
68155W        W39826  12.661   8.063  11.803
68156W        W39827  35.880  15.570   3.228
68157W        W39828  24.887   4.034   2.175
68158W        W39829  18.845  24.984  14.607
68159W        W39830   2.072  13.655   4.155
68160W        W39831  28.656  38.384   4.651
68161W        W39832  30.858  35.401   1.985
68162W        W39833   5.358   5.672   0.516
68163W        W39834   3.334  15.793  10.971
68164W        W39835  34.151  38.263  12.899
68165W        W39836   9.179  42.933   9.900
68166W        W39837  19.436   0.202   1.224
68167W        W39838  38.734  34.061   1.858
68168W        W39839  17.573   9.702   0.355
68169W        W39840  44.059  11.737   3.266
68170W        W39841  13.437  16.051  10.746
68171W        W39842  37.540   9.887  13.468
68172W        W39843   5.814   3.053  12.648
68173W        W39844  18.519  43.276   3.432
68174W        W39845  16.636  10.087   4.024
68175W        W39846   3.388   0.572  12.165
68176W        W39847  14.337  25.847  13.484
68177W        W39848   1.302  10.540  13.314
68178W        W39849   6.185  14.614   1.723
68179W        W39850  22.780  30.099  11.544
68180W        W39851  34.921  38.338   3.612
68181W        W39852  29.512  40.977  13.912
68182W        W39853  28.537  42.734   2.283
68183W        W39854  16.044   1.974  12.670
68184W        W39855  14.529  12.401   3.913
68185W        W39856  10.795  34.012  11.773
68186W        W39857  36.276   1.754   4.255
68187W        W39858  44.823  37.618   0.833
68188W        W39859  11.554  44.001   1.467
68189W        W39860   0.028  38.920   2.434
68190W        W39861  12.304   3.738  13.106
68191W        W39862  39.975  15.177  10.706
68192W        W39863  27.853  34.601  13.926
68193W        W39864  39.650  23.666  13.419
68194W        W39865  10.241  15.528  12.014
68195W        W39866  33.601  39.085   4.828
68196W        W39867  11.847  15.093   3.814
68197W        W39868  16.494  26.591   1.917
68198W        W39869   9.098  29.055  12.834
68199W        W39870  42.339  41.936   4.533
68200W        W39871  39.956  35.310   4.561
68201W        W39872   9.552   2.457   2.185
68202W        W39873  37.340  26.900   1.056
68203W        W39874  41.063  33.510   4.212
68204W        W39875  32.242   0.918  10.883
68205W        W39876  41.874  19.716  14.041
68206W        W39877  34.961  34.583   4.295
68207W        W39878  38.657  30.994  11.545
68208W        W39879   2.657  21.601   5.503
68209W        W39880   1.310   9.784  11.756
68210W        W39881   8.714  21.345   0.753
68211W        W39882   8.408  32.134   1.686
68212W        W39883  15.045  18.226  10.694
68213W        W39884  28.009   0.669  14.300
68214W        W39885  27.080  10.752   0.744
68215W        W39886  28.905  15.648   1.871
68216W        W39887  34.864  37.007  14.956
68217W        W39888  13.636   6.882  13.144
68218W        W39889   3.480  28.899  13.384
68219W        W39890   4.311   4.863   0.894
68220W        W39891  39.304  37.080  11.524
68221W        W39892   4.557  22.197  13.776
68222W        W39893  40.739  26.394   0.084
68223W        W39894  28.943  13.356  14.417
68224W        W39895  31.277  21.347   4.670
68225W        W39896  27.994  39.435  14.685
68226W        W39897  16.095  15.133  10.608
68227W        W39898  24.840  39.885  11.065
68228W        W39899  10.951   6.637  11.107
68229W        W39900   7.952  36.496   4.150
68230W        W39901  17.373  29.995   1.793
68231W        W39902   3.319   9.751  13.126
68232W        W39903   4.823  16.391   5.055
68233W        W39904  31.814  10.742  13.751
68234W        W39905  40.542  34.691   2.898
68235W        W39906   0.804  37.679   4.635
68236W        W39907  12.333  41.924  14.889
68237W        W39908  42.117  43.226  14.216
68238W        W39909  24.707  20.157  11.915
68239W        W39910  33.375  30.954   4.906
68240W        W39911  39.794  40.672  13.568
68241W        W39912  19.710  29.736  13.599
68242W        W39913  21.913   5.482  13.899
68243W        W39914  35.061  19.644  13.391
68244W        W39915  36.796  30.642   3.605
68245W        W39916   8.101   6.388  11.223
68246W        W39917  22.628  12.967   4.975
68247W        W39918  17.563   4.845   0.921
68248W        W39919  25.691  44.758   1.376
68249W        W39920  12.306  16.736   3.158
68250W        W39921  34.640  35.075  13.041
68251W        W39922  11.823  17.888   4.214
68252W        W39923  16.224  31.958  12.201
68253W        W39924  16.612   1.332   1.247
68254W        W39925  22.480   0.233   1.242
68255W        W39926   6.138  13.762   2.403
68256W        W39927  14.654  43.439   2.636
68257W        W39928  14.233  26.700   3.770
68258W        W39929   5.251  18.883  13.335
68259W        W39930  18.271  14.502  11.064
68260W        W39931   5.205   4.767  14.232
68261W        W39932  16.058  15.499   2.319
68262W        W39933  31.927   1.555   2.439
68263W        W39934  26.332  13.095   2.003
68264W        W39935   2.113   0.262  10.750
68265W        W39936  12.151   1.762  12.274
68266W        W39937  34.089  27.733  11.957
68267W        W39938  42.738  41.857   0.293
68268W        W39939  43.369  31.938   3.632
68269W        W39940   9.753   9.179   3.143
68270W        W39941  14.307  19.023  14.917
68271W        W39942  38.984  10.163   2.590
68272W        W39943  30.154  30.058  11.309
68273W        W39944  24.562  39.351   1.012
68274W        W39945  19.381  39.860   1.802
68275W        W39946  12.668  29.097  12.205
68276W        W39947   3.004  28.896  14.547
68277W        W39948  43.943   8.925   4.103
68278W        W39949  23.427  44.288   3.236
68279W        W39950  38.663  44.811  12.496
68280W        W39951  18.228   1.664  10.979
68281W        W39952   8.940  31.105   0.740
68282W        W39953  28.557  32.932   4.671
68283W        W39954  34.199  29.351   2.629
68284W        W39955  36.360   8.255  14.062
68285W        W39956  10.383   8.743   4.664
68286W        W39957  27.923  12.586  11.670
68287W        W39958  14.331  21.306   0.336
68288W        W39959  44.171  12.299  11.687
68289W        W39960  15.292  37.874  14.795
68290W        W39961  12.250  33.990   3.217
68291W        W39962  17.382  31.650  13.911
68292W        W39963   7.823   4.474  10.622
68293W        W39964  37.197  19.648  12.507
68294W        W39965  17.329  25.092   1.207
68295W        W39966  21.785   4.822  10.126
68296W        W39967  12.297  16.094   4.343
68297W        W39968  20.740  21.017  14.329
68298W        W39969   4.201   6.860  14.761
68299W        W39970  31.982   3.695  10.729
68300W        W39971  14.388  37.622   3.263
68301W        W39972   5.609  22.767  10.751
68302W        W39973  42.956  11.657   0.379
68303W        W39974  29.670  34.576  11.167
68304W        W39975  30.319  19.723  11.671
68305W        W39976  38.780  35.539  14.892
68306W        W39977   1.927   1.986  11.549
68307W        W39978  26.975   4.804  11.533
68308W        W39979  29.473  16.631  12.529
68309W        W39980   8.737  28.029  12.606
68310W        W39981  43.570   1.950   3.623
68311W        W39982   8.393  23.734   3.659
68312W        W39983  12.316  42.310   1.242
68313W        W39984  36.540  42.359   0.324
68314W        W39985  16.714   6.775   0.045
68315W        W39986  16.990  16.314   4.268
68316W        W39987   4.890   1.135  14.323
68317W        W39988  42.302  20.920  11.619
68318W        W39989  32.499  22.883  13.843
68319W        W39990  31.105  16.508   3.153
68320W        W39991  20.685  11.618  14.300
68321W        W39992  19.276  38.935  10.826
68322W        W39993  29.629  32.889  13.393
68323W        W39994  39.502   6.802   2.203
68324W        W39995   4.508  22.144   3.725
68325W        W39996   6.975  43.676  12.951
68326W        W39997  16.659  39.449  13.157
68327W        W39998  27.478  42.079   3.895
68328W        W39999  39.729  39.434  14.224
68329W        W40000  42.832  23.050  11.570
68330W        W40001  21.703   9.192   0.715
68331W        W40002  25.934  40.374  10.630
68332W        W40003   4.915  41.062  13.743
68333W        W40004  44.064   5.264   3.781
68334W        W40005  17.222  41.255  13.288
68335W        W40006   0.485  30.472   3.122
68336W        W40007   8.688   8.709   1.996
68337W        W40008  20.081  20.366   1.463
68338W        W40009  32.231   7.074   3.806
68339W        W40010  20.773  40.035  11.578
68340W        W40011   3.519  34.084   3.808
68341W        W40012  13.178  22.420   5.105
68342W        W40013  41.145  24.553   4.530
68343W        W40014   4.643  23.514  12.987
68344W        W40015  38.003  38.981  10.307
68345W        W40016   4.878   1.992  10.464
68346W        W40017  28.018  10.888   4.151
68347W        W40018  33.588   0.693  14.522
68348W        W40019  14.256   9.378   4.177
68349W        W40020  31.965  26.413   4.150
68350W        W40021  42.426   9.051  14.319
68351W        W40022   8.085  28.529   3.383
68352W        W40023  41.976  23.721  10.362
68353W        W40024  43.882  11.823   5.781
68354W        W40025  31.602  35.350   3.595
68355W        W40026   2.413  13.681   3.122
68356W        W40027   4.204  27.107  12.074
68357W        W40028   2.011  27.829  13.348
68358W        W40029   8.381  24.771   3.671
68359W        W40030  28.361  19.278  11.228
68360W        W40031  10.367  30.141  12.038
68361W        W40032  10.846  16.119   3.195
68362W        W40033  27.693   0.594   4.146
68363W        W40034   9.966  38.922   0.730
68364W        W40035   5.400  20.105   0.394
68365W        W40036  14.212  28.210   0.169
68366W        W40037  20.679  10.488   3.349
68367W        W40038   5.245   2.005  14.026
68368W        W40039   1.739  20.993   2.293
68369W        W40040   8.795  18.569   0.753
68370W        W40041   8.254  38.741  12.721
68371W        W40042  19.173   1.432  11.882
68372W        W40043  37.021  23.176  10.831
68373W        W40044   5.335   3.746   0.867
68374W        W40045  44.012  37.988  12.963
68375W        W40046   1.690  26.289  13.543
68376W        W40047  43.937  20.960  13.351
68377W        W40048   0.803  10.091   3.686
68378W        W40049  33.904  11.282   0.045
68379W        W40050  24.552   6.218  13.889
68380W        W40051  13.699  16.685   2.838
68381W        W40052  20.250  11.224   4.583
68382W        W40053  21.567   9.744   2.913
68383W        W40054  40.880  43.498   2.431
68384W        W40055   7.845  40.541   4.752
68385W        W40056   8.347  34.873   0.212
68386W        W40057  38.113  10.263  11.551
68387W        W40058  34.682  18.121  11.497
68388W        W40059  24.700   9.827  10.930
68389W        W40060  21.141  20.175  12.533
68390W        W40061  44.534  17.044  12.246
68391W        W40062  38.910  44.021   0.319
68392W        W40063  39.403   9.093  12.632
68393W        W40064  39.511   7.706   2.230
68394W        W40065  11.806   2.934  11.125
68395W        W40066  35.477  38.334   4.130
68396W        W40067  38.590  37.355   4.669
68397W        W40068  11.838  30.097   4.836
68398W        W40069  36.579  18.201   3.399
68399W        W40070  20.572   9.190  14.040
68400W        W40071  15.114   3.239  12.538
68401W        W40072  19.501  23.967   1.535
68402W        W40073   4.922  14.877  10.870
68403W        W40074  39.695  36.114   2.403
68404W        W40075  23.994  43.841  10.721
68405W        W40076  11.485  44.798  11.084
68406W        W40077  20.297  33.344   3.292
68407W        W40078  41.928  13.263  11.028
68408W        W40079  15.617   1.386   4.280
68409W        W40080  20.397  38.003   3.225
68410W        W40081  44.302  37.519  13.558
68411W        W40082  33.396  39.986  12.847
68412W        W40083  30.861   0.280   3.737
68413W        W40084   9.748  27.377   0.292
68414W        W40085  17.676  20.655  10.693
68415W        W40086   5.711  21.437  10.971
68416W        W40087   4.431   2.767   3.385
68417W        W40088  39.509  32.826   0.871
68418W        W40089  29.094   1.052  12.060
68419W        W40090   3.632  11.731  11.044
68420W        W40091  18.698   2.344  14.224
68421W        W40092  26.870  31.930   4.634
68422W        W40093  19.176  13.205  12.638
68423W        W40094  30.884  26.709   3.340
68424W        W40095  28.590  41.329  12.963
68425W        W40096  14.211  17.119   1.189
68426W        W40097  32.668  10.469   4.192
68427W        W40098   3.251   1.816   2.677
68428W        W40099   1.380  21.243   2.884
68429W        W40100   4.424  39.788  12.304
68430W        W40101  43.021  15.337   3.200
68431W        W40102  31.405   8.572  13.868
68432W        W40103  41.748  28.153   0.871
68433W        W40104  44.299  44.107  12.003
68434W        W40105  32.453  11.869  12.019
68435W        W40106  41.715  34.401  10.761
68436W        W40107  30.929  33.565   2.323
68437W        W40108  23.879   4.699  11.587
68438W        W40109  18.068  44.693   2.203
68439W        W40110   3.902  38.466  14.279
68440W        W40111  27.418  18.752  13.314
68441W        W40112  20.209  30.418  13.190
68442W        W40113   0.330   2.393   0.073
68443W        W40114  38.052  29.427  13.438
68444W        W40115  32.869   9.293  10.796
68445W        W40116   3.767  17.414  10.943
68446W        W40117  17.885   5.201   3.513
68447W        W40118  35.751  30.613   3.679
68448W        W40119  39.423  42.203  13.345
68449W        W40120  26.434  19.637   1.696
68450W        W40121  39.832  22.519  14.841
68451W        W40122  44.056  23.587  10.498
68452W        W40123  17.621  29.124  11.145
68453W        W40124  44.355  23.913   0.796
68454W        W40125  17.850  13.967  12.912
68455W        W40126  16.252   8.771   2.334
68456W        W40127  29.413  41.950  12.152
68457W        W40128  16.807  11.501  13.876
68458W        W40129  22.163  38.482  12.856
68459W        W40130  21.941  42.719  14.902
68460W        W40131   9.170  17.322  11.211
68461W        W40132   9.187  19.653  14.475
68462W        W40133  34.244  20.060   1.480
68463W        W40134   8.168  27.575   4.865
68464W        W40135   1.221  13.147  14.610
68465W        W40136   6.059  30.209  14.598
68466W        W40137  19.211   6.443  12.326
68467W        W40138   7.097  17.166  13.412
68468W        W40139  37.392  42.205  11.099
68469W        W40140  29.915   5.194   4.287
68470W        W40141  28.907   7.407   1.826
68471W        W40142   1.935  29.663  10.925
68472W        W40143  41.996  38.377   0.115
68473W        W40144  40.698  10.805   4.135
68474W        W40145   6.928  27.555  11.837
68475W        W40146  14.205  29.422  11.020
68476W        W40147  13.916   8.600   3.145
68477W        W40148  34.139  22.217  12.955
68478W        W40149  36.810  16.159   4.075
68479W        W40150  35.989  13.116  12.940
68480W        W40151  11.652  25.498   4.340
68481W        W40152  30.483  30.186   1.760
68482W        W40153  35.933  31.596  14.423
68483W        W40154   4.472  31.487  11.058
68484W        W40155  20.542  20.641  11.581
68485W        W40156   6.952  30.669   3.305
68486W        W40157   7.212   3.791  10.778
68487W        W40158  10.629   5.234   2.453
68488W        W40159   2.899  43.837  12.086
68489W        W40160  23.879   2.554   3.630
68490W        W40161  19.034   1.882   0.850
68491W        W40162  42.956  39.779   0.945
68492W        W40163   4.329  22.321  11.492
68493W        W40164  26.125  14.834   4.745
68494W        W40165   8.421  41.029   0.315
68495W        W40166  18.685  13.348  13.073
68496W        W40167  31.571   1.448   3.779
68497W        W40168   3.335  36.868   4.719
68498W        W40169   1.871  26.100   1.310
68499W        W40170   9.007  27.064  10.974
68500W        W40171  12.724   0.198   4.522
68501W        W40172  34.028  38.297   3.750
68502W        W40173   2.305   0.943  13.418
68503W        W40174  17.060  44.900   0.335
68504W        W40175  43.860  39.604  11.083
68505W        W40176  31.960   6.775   1.678
68506W        W40177  15.140  40.043  11.949
68507W        W40178  33.656  11.965  13.319
68508W        W40179  40.985  38.343  13.787
68509W        W40180   9.349  22.100  13.700
68510W        W40181   8.319  18.339   0.801
68511W        W40182  19.770  32.416   1.871
68512W        W40183   8.382  37.072  14.547
68513W        W40184   9.805  13.706   1.195
68514W        W40185  23.504  26.942   2.806
68515W        W40186   9.008  18.682   5.038
68516W        W40187   6.215   6.269  12.473
68517W        W40188  12.549  40.975  11.740
68518W        W40189  35.655  44.741  14.287
68519W        W40190  15.762  11.867   0.758
68520W        W40191  38.537   2.503  14.345
68521W        W40192   9.880  36.976  11.136
68522W        W40193  12.079  44.104  13.957
68523W        W40194  15.876  22.813   4.679
68524W        W40195  42.317  39.257  14.977
68525W        W40196  38.885  28.953   0.393
68526W        W40197  10.112  37.356   2.599
68527W        W40198  17.245   4.295  11.813
68528W        W40199  32.963  15.347   0.715
68529W        W40200  40.866  27.409   1.763
68530W        W40201  19.088  26.670  11.658
68531W        W40202   7.629  24.532  12.743
68532W        W40203  33.645  18.836  14.715
68533W        W40204  26.147  13.884   1.388
68534W        W40205  18.213   3.285   4.649
68535W        W40206   6.362  37.912   0.320
68536W        W40207  34.147   7.972  11.152
68537W        W40208  12.834  38.001   2.425
68538W        W40209  37.063  11.190  10.634
68539W        W40210  10.839  43.853  10.910
68540W        W40211  35.844  10.668  12.061
68541W        W40212  35.649  12.804   0.306
68542W        W40213  40.543  38.810   3.291
68543W        W40214  18.769  33.886   4.943
68544W        W40215  31.622  17.987  13.050
68545W        W40216  42.792   6.944  13.757
68546W        W40217  15.808  32.472  11.574
68547W        W40218  10.339  37.812  14.345
68548W        W40219   5.253  14.672   0.942
68549W        W40220  40.882  17.083   1.929
68550W        W40221  17.610  27.737  11.202
68551W        W40222   0.196  32.933  13.921
68552W        W40223  44.564  38.688   4.161
68553W        W40224  21.388  36.382  14.788
68554W        W40225   0.728   4.922  11.562
68555W        W40226  12.266  32.073  10.918
68556W        W40227   2.475   3.362   1.294
68557W        W40228  32.432  26.673   4.244
68558W        W40229  34.058  32.139   3.061
68559W        W40230  42.925   1.934   4.539
68560W        W40231  29.337  12.463  11.838
68561W        W40232  17.178  41.184   2.356
68562W        W40233  41.863   9.377   4.359
68563W        W40234   3.893  43.415   0.214
68564W        W40235   8.720  32.201  11.075
68565W        W40236   9.069  17.217   0.363
68566W        W40237  25.534  31.869  10.784
68567W        W40238  28.403   8.742  14.554
68568W        W40239   2.328   4.385   3.638
68569W        W40240  25.538  29.569   1.773
68570W        W40241  23.619  13.404   0.059
68571W        W40242  21.724  19.363  13.547
68572W        W40243   6.429  11.937   2.734
68573W        W40244  14.453  38.829  12.056
68574W        W40245  13.281  37.924   3.571
68575W        W40246  19.637  10.806  13.358
68576W        W40247  15.648  43.721  13.964
68577W        W40248  40.571  15.250   1.245
68578W        W40249  21.224  28.338  14.513
68579W        W40250  38.282  27.408  11.733
68580W        W40251   4.024  12.638  13.281
68581W        W40252  37.043  23.663  10.607
68582W        W40253   9.858   7.433   2.279
68583W        W40254  31.426  36.648   0.275
68584W        W40255  17.643   1.796   2.067
68585W        W40256  12.471  44.479   3.093
68586W        W40257  20.600   4.442   4.704
68587W        W40258  10.733  42.127   2.341
68588W        W40259   8.285  41.850  11.907
68589W        W40260  30.577  13.660   2.906
68590W        W40261   3.956  25.921   3.509
68591W        W40262  43.450  36.478   4.515
68592W        W40263  14.478  31.713  11.231
68593W        W40264  24.164   2.062   1.397
68594W        W40265  42.199  36.392  14.367
68595W        W40266  13.548   8.331   1.454
68596W        W40267  10.396  40.969  12.253
68597W        W40268  12.420  11.627   0.863
68598W        W40269  22.104  42.352  12.414
68599W        W40270  14.612  21.999  11.511
68600W        W40271  44.391   7.114   2.048
68601W        W40272  27.222   7.351  10.118
68602W        W40273  17.228  44.012  12.591
68603W        W40274  44.825   3.385  13.516
68604W        W40275  43.338  37.152   1.354
68605W        W40276  41.545  26.099   2.214
68606W        W40277  18.166  14.547  13.483
68607W        W40278  17.088  42.452  10.941
68608W        W40279  20.269  39.493   3.355
68609W        W40280   2.773  40.955  14.380
68610W        W40281  28.554  24.150   2.397
68611W        W40282   0.067  30.834  11.052
68612W        W40283  23.656   5.811   4.441
68613W        W40284  25.782  38.057  12.908
68614W        W40285   9.377  25.726   3.724
68615W        W40286  14.733  29.470   2.648
68616W        W40287  18.755  12.838  11.460
68617W        W40288  13.348  36.563   3.639
68618W        W40289  28.078  37.057   0.090
68619W        W40290  16.094   5.145  12.385
68620W        W40291   3.296   6.798   1.175
68621W        W40292  36.391  31.654   0.407
68622W        W40293  14.552  32.659   1.324
68623W        W40294  11.622   9.346  14.827
68624W        W40295  41.857  20.777   2.207
68625W        W40296   4.394  17.985  10.599
68626W        W40297   0.295  28.034  11.886
68627W        W40298  12.856  18.463  11.775
68628W        W40299  23.017  13.280   2.267
68629W        W40300  24.804  31.863   4.609
68630W        W40301  27.652   9.138  13.329
68631W        W40302  42.327  25.452   4.731
68632W        W40303  16.308  13.238  13.391
68633W        W40304  38.954  19.974   2.227
68634W        W40305  15.055  12.267  12.603
68635W        W40306  34.181  16.746  12.037
68636W        W40307  14.325   7.458  13.325
68637W        W40308  40.284  40.356   2.008
68638W        W40309   8.589  17.052   0.490
68639W        W40310   5.741  18.234   2.377
68640W        W40311   7.159  20.757  13.482
68641W        W40312  32.120   8.885  13.595
68642W        W40313   3.757  26.541  11.515
68643W        W40314  23.175   4.829  14.916
68644W        W40315  10.457  44.686  14.045
68645W        W40316  31.877   8.446  10.933
68646W        W40317   8.423  39.217   3.588
68647W        W40318   5.892  24.654   1.410
68648W        W40319  15.651  23.527   1.098
68649W        W40320  22.722  30.345  11.041
68650W        W40321  38.512  39.277  14.861
68651W        W40322  33.189  17.049   1.412
68652W        W40323  44.897  44.024   0.022
68653W        W40324  15.706  14.674   1.309
68654W        W40325  30.100  14.681  14.219
68655W        W40326  35.060  11.563   3.613
68656W        W40327  41.679  22.032   4.179
68657W        W40328  39.282  27.059   0.824
68658W        W40329   8.731  16.029   3.730
68659W        W40330  19.315  38.740   1.800
68660W        W40331   5.455  31.511   0.368
68661W        W40332  35.421  39.494  13.608
68662W        W40333  17.728  26.083  14.244
68663W        W40334   0.674  21.240  10.211
68664W        W40335  13.129  17.225   0.778
68665W        W40336  42.828   3.472  13.991
68666W        W40337  20.002  20.096   3.697
68667W        W40338  33.518   7.172  13.014
68668W        W40339  41.456  27.224   0.475
68669W        W40340   2.413   2.941   2.398
68670W        W40341  23.150  11.816   4.068
68671W        W40342  43.009   6.385  11.100
68672W        W40343  40.621  10.989  14.037
68673W        W40344   7.112  42.779  13.543
68674W        W40345  41.356  32.523  12.772
68675W        W40346   6.445  40.002   1.317
68676W        W40347  27.401   9.412   5.375
68677W        W40348  34.399   5.445  12.594
68678W        W40349  43.790   4.378   2.329
68679W        W40350  42.654  32.052  13.010
68680W        W40351  44.430  21.020   4.581
68681W        W40352  10.827  42.265   3.731
68682W        W40353  26.621  16.243  11.396
68683W        W40354  38.486   9.961   1.576
68684W        W40355  25.645  31.631  11.265
68685W        W40356  22.590   1.492   3.923
68686W        W40357   7.422  37.158  10.765
68687W        W40358  30.024  40.032   4.622
68688W        W40359  40.838  40.951  11.337
68689W        W40360  13.811  37.203  12.816
68690W        W40361  10.564  24.846   4.871
68691W        W40362  22.617  20.017   0.829
68692W        W40363  10.306  41.292   3.230
68693W        W40364  13.654  11.023   3.234
68694W        W40365  14.327  41.966   2.852
68695W        W40366  23.931  42.032   3.187
68696W        W40367  34.759  30.535   4.436
68697W        W40368  12.173  37.914  14.567
68698W        W40369  41.312   6.836  13.999
68699W        W40370  14.678  14.425  13.486
68700W        W40371  36.505  27.228  14.594
68701W        W40372  38.235  33.444  12.342
68702W        W40373  26.553  41.807   0.996
68703W        W40374  16.817   2.040   4.282
68704W        W40375  37.095  11.592   3.569
68705W        W40376  42.870  18.233  13.950
68706W        W40377  42.911   5.399  12.522
68707W        W40378   3.764  13.755  11.926
68708W        W40379   9.586   9.033   2.188
68709W        W40380   7.659  37.812  13.511
68710W        W40381  27.642   4.284  12.428
68711W        W40382  43.431  21.380  14.414
68712W        W40383  36.319  22.456   0.348
68713W        W40384  34.878  11.851   2.775
68714W        W40385   6.786  27.182   2.870
68715W        W40386  16.285  24.018   0.259
68716W        W40387  18.777  15.816   3.197
68717W        W40388  22.312  21.243  11.220
68718W        W40389  13.307  33.841  14.986
68719W        W40390  32.935   6.623   0.377
68720W        W40391   8.920  14.777  12.724
68721W        W40392  16.307  40.279  12.535
68722W        W40393   5.940  13.304   0.824
68723W        W40394   3.448  20.277   2.253
68724W        W40395  10.637  24.153  12.414
68725W        W40396  30.926   7.348   0.379
68726W        W40397  23.724   0.408  14.858
68727W        W40398   2.250  28.447   1.304
68728W        W40399   3.749  40.889   2.834
68729W        W40400   7.023   4.194   0.930
68730W        W40401  27.958  42.964   1.427
68731W        W40402  35.020   9.604   3.906
68732W        W40403  37.365  40.450  10.673
68733W        W40404  19.187  14.851   2.745
68734W        W40405   0.125  37.281  11.106
68735W        W40406  10.247  22.569   2.246
68736W        W40407   9.722   7.678  13.339
68737W        W40408  44.435  18.013   4.696
68738W        W40409  23.069  24.474  14.776
68739W        W40410  37.113  43.342  11.433
68740W        W40411  18.111   6.510   3.632
68741W        W40412   1.372  10.634  13.804
68742W        W40413  32.511  20.630  12.857
68743W        W40414  35.834  40.978  11.893
68744W        W40415  32.973   0.767  12.014
68745W        W40416  22.756  18.027  14.340
68746W        W40417   6.763  15.264   2.793
68747W        W40418  35.135  31.723  14.883
68748W        W40419  24.870   0.722  12.002
68749W        W40420  17.808  11.334  11.115
68750W        W40421  30.601  41.793   1.384
68751W        W40422   7.361   6.694   4.667
68752W        W40423  12.355  12.252   1.829
68753W        W40424   0.271   4.347  11.106
68754W        W40425  23.673  43.726   3.846
68755W        W40426  37.429  43.474  13.864
68756W        W40427  34.774  22.671  10.715
68757W        W40428  39.342  35.639   3.818
68758W        W40429  42.940  18.767   0.460
68759W        W40430   9.257  36.830   4.244
68760W        W40431   3.408  31.541  14.322
68761W        W40432  10.336  37.375  14.654
68762W        W40433  32.695  23.234  14.206
68763W        W40434  31.114  21.961  12.563
68764W        W40435  40.942  20.250  13.576
68765W        W40436  30.693  12.545   1.286
68766W        W40437  28.653  25.210  12.541
68767W        W40438  35.619  32.430  11.934
68768W        W40439  21.066  28.946   4.154
68769W        W40440  13.277  39.217  13.672
68770W        W40441   4.841  33.635   1.140
68771W        W40442  29.223  34.860  13.179
68772W        W40443  32.309   4.942  12.866
68773W        W40444  37.969   5.904   2.502
68774W        W40445  42.380  38.331   0.554
68775W        W40446  21.767  30.118   0.003
68776W        W40447  13.313  17.072   2.674
68777W        W40448   8.159   6.881  13.843
68778W        W40449   8.083   4.300   3.950
68779W        W40450  27.287   6.778   4.656
68780W        W40451   6.111  13.949  12.689
68781W        W40452  42.410  15.183  13.388
68782W        W40453   5.520  43.875  14.873
68783W        W40454  32.233  23.815   1.801
68784W        W40455   4.070  21.257   2.458
68785W        W40456  22.180  12.798   2.230
68786W        W40457   0.693  40.951   3.732
68787W        W40458   2.960  18.871   4.802
68788W        W40459  44.410   3.782  14.888
68789W        W40460  21.322  43.469   3.185
68790W        W40461  25.091  14.186  12.349
68791W        W40462  15.755  39.365   3.993
68792W        W40463  26.738   3.304   4.347
68793W        W40464  21.537  33.450  10.220
68794W        W40465  16.525   5.689  11.155
68795W        W40466  25.612  35.052   5.003
68796W        W40467  25.278  24.904  13.453
68797W        W40468  30.055  38.928  10.729
68798W        W40469  10.884  43.137   2.286
68799W        W40470  32.475  15.255   0.922
68800W        W40471  42.781  40.819  11.233
68801W        W40472  12.839  21.118  12.716
68802W        W40473   7.995  36.867  12.104
68803W        W40474  22.853  25.593   1.646
68804W        W40475  15.548  22.200  10.718
68805W        W40476  26.318  17.121  14.059
68806W        W40477  24.501   5.782  12.924
68807W        W40478  21.687  14.473   1.759
68808W        W40479  23.482  43.865  13.439
68809W        W40480  35.840  14.149   3.324
68810W        W40481  32.380  11.330   1.420
68811W        W40482  16.631  35.866   3.670
68812W        W40483   9.767  44.470   2.701
68813W        W40484  19.096   9.378   4.651
68814W        W40485  19.255  36.126  12.439
68815W        W40486  41.752  43.724  13.852
68816W        W40487   4.397  20.379  13.561
68817W        W40488  20.229  22.733  11.247
68818W        W40489   4.938  25.468  12.637
68819W        W40490   9.813   3.152   1.867
68820W        W40491   2.709  34.080   3.410
68821W        W40492   2.744   9.881  14.499
68822W        W40493  16.261  21.175   0.503
68823W        W40494  35.292   5.632   0.314
68824W        W40495   6.618  19.309   0.785
68825W        W40496   2.736  20.180   0.394
68826W        W40497  19.852   8.425   0.240
68827W        W40498  36.742  40.986  14.420
68828W        W40499  42.665  30.823   1.760
68829W        W40500  22.705  28.214   0.535
68830W        W40501  15.752  24.931   2.340
68831W        W40502  44.915  35.846  12.914
68832W        W40503   4.377   2.455   0.214
68833W        W40504  16.165   6.297  11.991
68834W        W40505  22.457  11.626   0.962
68835W        W40506  26.468   3.617  13.896
68836W        W40507  22.669  13.233   0.642
68837W        W40508   9.842   8.127  11.084
68838W        W40509  34.920  35.090   5.049
68839W        W40510  23.763  33.474  14.495
68840W        W40511  21.522  25.282  11.043
68841W        W40512  19.585  31.124  13.047
68842W        W40513  28.609  41.794   3.195
68843W        W40514  17.799  13.488  13.090
68844W        W40515   7.424  11.620   1.888
68845W        W40516  24.996  44.469   1.686
68846W        W40517  26.437  28.179  14.406
68847W        W40518   8.989  14.112   4.933
68848W        W40519  29.099  33.872  11.562
68849W        W40520  12.592   3.947   0.948
68850W        W40521   2.305   0.968   0.597
68851W        W40522  21.511  22.101  10.792
68852W        W40523   2.381  26.222   2.092
68853W        W40524  26.992  29.506  14.294
68854W        W40525  41.259  24.661  11.139
68855W        W40526  21.601  41.474  14.577
68856W        W40527  43.512  38.413  13.551
68857W        W40528  13.716   4.281   4.566
68858W        W40529  13.675  35.612   0.483
68859W        W40530   6.362  26.936   2.637
68860W        W40531  27.085  43.034   1.546
68861W        W40532   9.853  26.717  12.117
68862W        W40533   0.230  12.681   2.127
68863W        W40534  39.939   0.186  14.420
68864W        W40535  17.161  34.538   0.505
68865W        W40536  28.019  36.733   4.116
68866W        W40537  20.700   7.652  10.662
68867W        W40538  26.303  11.791   2.984
68868W        W40539  39.489   4.828   0.414
68869W        W40540  31.504  17.810   2.623
68870W        W40541   4.845  30.758   4.157
68871W        W40542  11.808   2.939   4.562
68872W        W40543  21.686  43.443   0.828
68873W        W40544  17.754  15.385   1.758
68874W        W40545  39.862  25.454   0.800
68875W        W40546  34.823  15.234  14.642
68876W        W40547  34.382  11.389   4.704
68877W        W40548  35.183  35.469   1.803
68878W        W40549  17.303   7.468   1.433
68879W        W40550  28.018  29.170  13.549
68880W        W40551  14.789  31.652  13.003
68881W        W40552   6.655   1.979  10.693
68882W        W40553  22.664   8.126   4.590
68883W        W40554  31.820  35.825   3.777
68884W        W40555  20.011  35.952   4.168
68885W        W40556  12.793  31.078  13.448
68886W        W40557  25.248  12.201   1.801
68887W        W40558  21.100  18.794  12.965
68888W        W40559  22.595  35.541   0.488
68889W        W40560  14.238  35.552  10.618
68890W        W40561  18.721   9.733   4.668
68891W        W40562  41.315  23.986   0.456
68892W        W40563  10.364  26.587  12.099
68893W        W40564  10.297  36.233   4.983
68894W        W40565  35.414  25.502  10.671
68895W        W40566  22.256  44.858   1.715
68896W        W40567   8.299  28.114   0.220
68897W        W40568   6.303  14.317  13.001
68898W        W40569  13.204  32.573   2.297
68899W        W40570  19.029  19.395   2.435
68900W        W40571  17.009  22.063  13.381
68901W        W40572  30.946  31.356   1.200
68902W        W40573  40.878   0.471  12.234
68903W        W40574   9.952  10.209  13.982
68904W        W40575  28.202  31.196  12.455
68905W        W40576  31.911  26.510  11.425
68906W        W40577  19.919  14.985   0.263
68907W        W40578   3.597  44.755  13.588
68908W        W40579  11.388   2.764  11.894
68909W        W40580  10.828  25.459  11.593
68910W        W40581  40.329  25.088   1.848
68911W        W40582  26.489  38.131   0.389
68912W        W40583   5.197  33.622   2.867
68913W        W40584  12.564  12.733  13.824
68914W        W40585  34.555  15.819   0.206
68915W        W40586  40.322  25.645  14.516
68916W        W40587  29.234  29.677   1.899
68917W        W40588  26.441  35.525  14.848
68918W        W40589   7.284  17.865  12.893
68919W        W40590  44.334  36.630  10.910
68920W        W40591   9.119  25.573  14.203
68921W        W40592   6.442  42.881  10.501
68922W        W40593  26.258  43.467   3.721
68923W        W40594  29.512  39.851   2.996
68924W        W40595  38.357  22.040  10.342
68925W        W40596  44.156  10.429   0.835
68926W        W40597  31.018  40.563  10.579
68927W        W40598   1.977  34.430  14.359
68928W        W40599  40.982  41.925  14.461
68929W        W40600   2.219  32.898  14.828
68930W        W40601  36.933  32.194   2.735
68931W        W40602   1.690  36.184   1.366
68932W        W40603  17.265   6.346   2.113
68933W        W40604  10.182   7.193   3.763
68934W        W40605  39.851  25.142  12.097
68935W        W40606  23.037   7.618   2.031
68936W        W40607   9.715  16.003  12.470
68937W        W40608  14.861  34.882   4.413
68938W        W40609  44.193  26.934   4.050
68939W        W40610  27.923  24.211   4.132
68940W        W40611  17.747  31.304  14.209
68941W        W40612  36.447  37.394  12.507
68942W        W40613   5.803  14.103  11.811
68943W        W40614  24.725  17.773  11.720
68944W        W40615  31.616   2.227   2.881
68945W        W40616   8.747  19.530   3.160
68946W        W40617  31.544  14.858   5.032
68947W        W40618  33.437  17.163   2.670
68948W        W40619  37.095  23.607  14.502
68949W        W40620  32.986  28.222  10.810
68950W        W40621  21.592   8.280  13.041
68951W        W40622  31.844  15.348   0.349
68952W        W40623   4.296   1.903  12.570
68953W        W40624  15.593   4.094   3.343
68954W        W40625  24.859  23.481   3.611
68955W        W40626  20.565  43.927  14.584
68956W        W40627  25.072  14.335   3.202
68957W        W40628  28.539  27.111   4.001
68958W        W40629  44.293  21.424   3.675
68959W        W40630  12.712  44.867  10.421
68960W        W40631  15.252  20.375   3.494
68961W        W40632  13.224  30.628  10.125
68962W        W40633   2.203  13.845  12.973
68963W        W40634  28.747  39.555  11.529
68964W        W40635  13.666   4.894   0.667
68965W        W40636   6.840  16.049  10.704
68966W        W40637  17.110   5.222  13.887
68967W        W40638  33.984  25.462   2.247
68968W        W40639   6.986  10.946  11.848
68969W        W40640  43.449   9.171  13.292
68970W        W40641  12.105  27.000  11.476
68971W        W40642  13.638  11.255   0.412
68972W        W40643  35.341   3.773   4.071
68973W        W40644  17.086  16.452  13.550
68974W        W40645  38.509   4.108   1.875
68975W        W40646  30.701  42.962  12.440
68976W        W40647  25.644  37.497   2.657
68977W        W40648  37.534  18.345  12.036
68978W        W40649  30.097  33.773   4.514
68979W        W40650  19.286  14.319  10.239
68980W        W40651  17.612  39.997   4.587
68981W        W40652  15.186   2.658   2.298
68982W        W40653  25.056  42.078  11.457
68983W        W40654  22.709  12.769   1.246
68984W        W40655  28.458  37.454  13.548
68985W        W40656  26.489  30.272   2.186
68986W        W40657  37.491  36.286   1.734
68987W        W40658  28.543  20.188   0.030
68988W        W40659  26.656   7.176   4.622
68989W        W40660   4.446   6.765  14.288
68990W        W40661  23.320   8.821   3.782
68991W        W40662  31.898  13.776  12.530
68992W        W40663  38.812  44.530   0.380
68993W        W40664  43.514  17.319  13.354
68994W        W40665  29.928  13.153   1.463
68995W        W40666  19.022  18.151   3.811
68996W        W40667  36.769  15.543   0.424
68997W        W40668  28.062  44.484  11.970
68998W        W40669  37.032  18.150  12.022
68999W        W40670   4.342  37.422  11.763
69000W        W40671   6.853  23.816   1.490
69001W        W40672   8.829  10.676   0.918
69002W        W40673   1.821  29.808   4.628
69003W        W40674   6.768  36.856  11.528
69004W        W40675  42.554  34.294  13.200
69005W        W40676  10.344  21.813  10.641
69006W        W40677  38.887  32.227   1.100
69007W        W40678  37.371   8.261   4.438
69008W        W40679  20.327   0.436   4.346
69009W        W40680  12.239  42.088  11.007
69010W        W40681  44.196  43.439   2.358
69011W        W40682  35.674  11.092  12.616
69012W        W40683   2.439   1.387   2.691
69013W        W40684   2.165  44.698   1.839
69014W        W40685  18.798  11.749  14.078
69015W        W40686  17.356  42.853   0.404
69016W        W40687  35.002  31.515   1.113
69017W        W40688  41.964  31.666  10.961
69018W        W40689   6.108  41.306   3.570
69019W        W40690   8.880  29.227  12.016
69020W        W40691  21.032  26.608   2.058
69021W        W40692  28.437  37.800  11.413
69022W        W40693  20.768   1.462   1.868
69023W        W40694  30.525  38.043   4.618
69024W        W40695  25.753   0.750   2.737
69025W        W40696  38.193   6.814   0.362
69026W        W40697  32.432   8.548  12.136
69027W        W40698  28.945   6.735  11.762
69028W        W40699  42.250  34.639   3.315
69029W        W40700  10.635  18.035  11.597
69030W        W40701  42.133   3.223   1.431
69031W        W40702   2.784  16.219   2.183
69032W        W40703   2.881  25.062  14.014
69033W        W40704  43.715   9.692   0.077
69034W        W40705   1.720  16.626  11.133
69035W        W40706  41.391   9.272   2.182
69036W        W40707  41.182  38.137  10.450
69037W        W40708   2.405  30.365   4.065
69038W        W40709  28.550   6.903  12.031
69039W        W40710  38.194  15.359   2.671
69040W        W40711  39.310  30.403  12.501
69041W        W40712  32.004  35.180  12.022
69042W        W40713   1.327  20.135   0.370
69043W        W40714   9.598  41.455  11.126
69044W        W40715  22.605  34.819  14.020
69045W        W40716   3.720  14.786   2.710
69046W        W40717  16.577   1.234  13.532
69047W        W40718  25.308  29.053   2.862
69048W        W40719   0.630  43.790  12.427
69049W        W40720  22.039  33.459   1.424
69050W        W40721  18.424  43.466  13.326
69051W        W40722  24.640  18.430   4.694
69052W        W40723   9.180   5.358   0.014
69053W        W40724   6.619  33.511   4.264
69054W        W40725  32.019  16.010   4.219
69055W        W40726  18.068   6.634  14.880
69056W        W40727  41.521   7.215   0.879
69057W        W40728   8.918  35.086   4.567
69058W        W40729  31.387   7.146   0.286
69059W        W40730  41.354  15.902  10.646
69060W        W40731  30.920  41.899  12.074
69061W        W40732  20.995  28.686  11.104
69062W        W40733  41.983   0.355  14.831
69063W        W40734   4.554  15.249  10.963
69064W        W40735   3.181  38.363   2.182
69065W        W40736  26.211   7.837   0.788
69066W        W40737  39.271  40.808  14.931
69067W        W40738  21.052  20.721   0.322
69068W        W40739  39.821   0.183  12.149
69069W        W40740  33.198   6.781   3.503
69070W        W40741  40.589  35.562  12.875
69071W        W40742  31.039  21.663   3.616
69072W        W40743  38.639  38.773  12.097
69073W        W40744  13.335   1.368   3.959
69074W        W40745   8.419  39.455   0.363
69075W        W40746  26.485  12.608  14.708
69076W        W40747   7.355  21.800   4.473
69077W        W40748  22.900  19.102  13.038
69078W        W40749  39.153   3.337  13.343
69079W        W40750  18.233  16.191  11.207
69080W        W40751   4.697  32.915   3.761
69081W        W40752  21.763   0.403  13.386
69082W        W40753   7.279   9.181  11.508
69083W        W40754  31.072  26.896   4.189
69084W        W40755   1.997  35.344   0.235
69085W        W40756  44.400   8.404   2.490
69086W        W40757  13.331   0.460   0.655
69087W        W40758  40.707  19.126   3.618
69088W        W40759   5.651  37.320  12.471
69089W        W40760  30.177  11.354  12.441
69090W        W40761  17.678  35.051  14.959
69091W        W40762  42.445  24.629   1.476
69092W        W40763  23.255  36.898   1.932
69093W        W40764  14.644  23.573   3.768
69094W        W40765  13.298   1.808  10.397
69095W        W40766  32.606   7.288  10.759
69096W        W40767  31.909  19.765   1.021
69097W        W40768  23.793  15.569  11.507
69098W        W40769  44.819  28.444  12.792
69099W        W40770  37.706  44.452  11.380
69100W        W40771   1.216  19.502  10.591
69101W        W40772  31.784  10.550  12.837
69102W        W40773   0.273  29.579  11.042
69103W        W40774   8.173  30.013  14.091
69104W        W40775  38.105  40.940   0.720
69105W        W40776  30.681  21.482   1.250
69106W        W40777  33.982  37.002  11.414
69107W        W40778   5.290  42.988   3.157
69108W        W40779  28.262  34.517   0.843
69109W        W40780  20.042  23.113  10.476
69110W        W40781   8.527  15.557   3.626
69111W        W40782  21.015  34.915  12.479
69112W        W40783  44.993   2.857  14.475
69113W        W40784  14.257   5.972   3.026
69114W        W40785  17.738  41.832  11.336
69115W        W40786  29.654  14.602   0.978
69116W        W40787  10.585  36.137   0.861
69117W        W40788  35.125  24.161  11.649
69118W        W40789  38.805  28.147  11.895
69119W        W40790  38.901  38.460  14.526
69120W        W40791  26.689  21.654  12.409
69121W        W40792  32.663  14.337   1.716
69122W        W40793  39.827  15.777   1.504
69123W        W40794  31.535  20.238   0.357
69124W        W40795  27.654  21.179   5.076
69125W        W40796  24.731  13.256   4.552
69126W        W40797  40.878  10.586  14.885
69127W        W40798  11.224   6.184  11.559
69128W        W40799  31.451  26.442  14.565
69129W        W40800  16.253   4.278  12.998
69130W        W40801  25.897   8.872  12.398
69131W        W40802  44.501  17.332   1.336
69132W        W40803  37.060  13.702   3.706
69133W        W40804  16.074   4.768  13.714
69134W        W40805   2.425  37.326   1.851
69135W        W40806  29.163  14.399  12.507
69136W        W40807   3.281   4.634   0.287
69137W        W40808  17.304   2.443  13.931
69138W        W40809  28.330  32.676   0.816
69139W        W40810  27.716  32.068  11.704
69140W        W40811  21.944  40.497  14.946
69141W        W40812  29.165  42.846  10.960
69142W        W40813  22.003   8.382   1.307
69143W        W40814  31.220   9.603   4.467
69144W        W40815  23.032   0.739  11.582
69145W        W40816  34.704  34.888   0.441
69146W        W40817  38.972   5.769   2.239
69147W        W40818   9.153   6.712   1.436
69148W        W40819  29.480  11.292  14.583
69149W        W40820  21.088   8.402  13.155
69150W        W40821  20.929  26.827   2.836
69151W        W40822  20.833  35.010   3.682
69152W        W40823  21.138  43.209   1.718
69153W        W40824  41.272  12.191   3.859
69154W        W40825   5.715  22.644  13.380
69155W        W40826   3.433  22.300   4.317
69156W        W40827   3.781  41.869   2.706
69157W        W40828  34.246   1.296  11.523
69158W        W40829  18.781  35.491   0.078
69159W        W40830  29.925  27.244   1.185
69160W        W40831  23.206  38.007  11.136
69161W        W40832  30.604  23.134  11.410
69162W        W40833  28.982  31.999  14.770
69163W        W40834  31.775   7.669  10.553
69164W        W40835  33.119  13.149  10.663
69165W        W40836   0.701  26.854   4.461
69166W        W40837  26.500  11.544  10.353
69167W        W40838  22.258  12.132  14.841
69168W        W40839  16.807  28.293   2.271
69169W        W40840  40.853   8.762  11.982
69170W        W40841  36.387   0.829   1.166
69171W        W40842  33.115  30.035   0.347
69172W        W40843  35.547  33.610  12.751
69173W        W40844  39.349  40.694  10.750
69174W        W40845  12.277   6.251  11.622
69175W        W40846  22.000   1.479  14.890
69176W        W40847  15.165  42.595  11.613
69177W        W40848  38.789  22.827   3.287
69178W        W40849  13.227  23.517  11.981
69179W        W40850  39.523  44.750   2.327
69180W        W40851  30.680  21.468   0.391
69181W        W40852  43.634  30.578  12.975
69182W        W40853   8.799  30.736  11.960
69183W        W40854   1.809   5.764   3.578
69184W        W40855  38.401  26.310  12.009
69185W        W40856  41.108  32.134  12.971
69186W        W40857  43.035  40.500   4.218
69187W        W40858  30.190  29.145  12.981
69188W        W40859  37.598  37.995  13.356
69189W        W40860  38.252  27.692  13.653
69190W        W40861  24.302  25.462  12.506
69191W        W40862  42.033  30.065   1.472
69192W        W40863  41.464  23.663  12.041
69193W        W40864  30.620  36.584   0.566
69194W        W40865  32.851  35.396  14.230
69195W        W40866  40.123  34.372   2.812
69196W        W40867  20.554  15.543   3.755
69197W        W40868  34.279  19.717  11.132
69198W        W40869  38.062  29.671  12.137
69199W        W40870  27.491   7.705   4.715
69200W        W40871  20.199  39.833  14.072
69201W        W40872   2.206  18.070  14.775
69202W        W40873  22.995   9.863   4.789
69203W        W40874  34.416  25.920  13.045
69204W        W40875  18.362  43.583  14.414
69205W        W40876  14.196  37.575   2.247
69206W        W40877  39.336  19.716   1.958
69207W        W40878  35.141   0.063   0.756
69208W        W40879  14.860  15.542   3.607
69209W        W40880  30.098  36.473   3.268
69210W        W40881  28.294  34.794  12.929
69211W        W40882   5.857  15.395   4.050
69212W        W40883  12.891   4.920   2.197
69213W        W40884  42.624  24.486  10.283
69214W        W40885  30.023   2.373   4.252
69215W        W40886  32.146  20.525  11.089
69216W        W40887  34.989  12.885  10.584
69217W        W40888   6.336  26.083  14.375
69218W        W40889  10.278  14.741   1.772
69219W        W40890  40.757  37.371  11.944
69220W        W40891  27.240  34.444   4.585
69221W        W40892  39.351  18.615   2.364
69222W        W40893   8.513  25.042   0.262
69223W        W40894   8.948  43.933   3.843
69224W        W40895  17.348  10.324  14.943
69225W        W40896   9.635  23.795   2.191
69226W        W40897  40.906  14.426  12.043
69227W        W40898  41.602  34.582   0.399
69228W        W40899  16.698  34.375   4.106
69229W        W40900  21.280   2.389   4.637
69230W        W40901  23.573  39.711  11.293
69231W        W40902  23.883  16.123  14.306
69232W        W40903  43.341  38.510  12.591
69233W        W40904  15.954  19.666  11.073
69234W        W40905   2.658  19.527   1.055
69235W        W40906   0.314  14.205   0.048
69236W        W40907  31.848   3.156   4.713
69237W        W40908   3.483  29.664   2.454
69238W        W40909   1.724  37.399  14.814
69239W        W40910  29.544   6.769   4.119
69240W        W40911   1.381  18.595  11.530
69241W        W40912  43.973  13.736   4.741
69242W        W40913   8.719  39.071   1.202
69243W        W40914  34.336  20.148  14.863
69244W        W40915  21.188  35.991  11.682
69245W        W40916  43.767  27.709  13.783
69246W        W40917  29.044  25.674  12.954
69247W        W40918  34.210  15.475   1.381
69248W        W40919  21.349  36.488  11.234
69249W        W40920   0.473  40.791  12.885
69250W        W40921  15.454  26.758   2.286
69251W        W40922  29.345  10.308   2.815
69252W        W40923  20.234   8.771  14.039
69253W        W40924  17.800   1.236  14.015
69254W        W40925  10.913   0.327  11.627
69255W        W40926   1.465   0.585  14.982
69256W        W40927  22.055  42.997  11.063
69257W        W40928  30.587  11.048  12.415
69258W        W40929  20.787  24.184   3.341
69259W        W40930  16.132   4.716  12.728
69260W        W40931  10.374  33.163  10.297
69261W        W40932  24.014   4.748   3.618
69262W        W40933  40.848  24.216   0.823
69263W        W40934  42.064  44.449  14.853
69264W        W40935  20.505  10.654   2.907
69265W        W40936  12.733  31.267   3.593
69266W        W40937   5.170  17.290  14.378
69267W        W40938  26.078  40.486   1.416
69268W        W40939  43.845  39.080  11.050
69269W        W40940  44.239  10.120  14.530
69270W        W40941  21.735   1.465  11.993
69271W        W40942  25.476  28.041  11.472
69272W        W40943  10.126  44.251  14.832
69273W        W40944  34.909  10.449  11.963
69274W        W40945   6.670  43.176   1.200
69275W        W40946  23.658  32.915  13.413
69276W        W40947   4.761  20.132   1.026
69277W        W40948  31.782   6.559   3.162
69278W        W40949  26.930  44.807   4.566
69279W        W40950  32.962   0.900   2.723
69280W        W40951   3.559  29.431  14.428
69281W        W40952   6.200   6.442   0.944
69282W        W40953  18.361  18.450   1.455
69283W        W40954  21.266  35.138   1.015
69284W        W40955  25.496  36.184  11.563
69285W        W40956  28.467  36.979   2.890
69286W        W40957  27.129  30.337   0.796
69287W        W40958  10.760  20.677   1.283
69288W        W40959  31.700   8.023   2.446
69289W        W40960   3.966  33.441  10.206
69290W        W40961  39.837  32.102   4.240
69291W        W40962   6.273  42.609   2.179
69292W        W40963  33.845  26.723   4.232
69293W        W40964  17.484  29.998  12.985
69294W        W40965  27.925  24.898  13.148
69295W        W40966   6.091   6.866  11.896
69296W        W40967  36.459  23.070   1.347
69297W        W40968   1.926  25.243   4.157
69298W        W40969  27.897   6.769   3.803
69299W        W40970  35.627   3.886   3.663
69300W        W40971   4.694   7.982   2.269
69301W        W40972  30.662  42.001  11.617
69302W        W40973  37.881  41.392  11.436
69303W        W40974  20.779  34.521   4.302
69304W        W40975  16.871  28.702   0.444
69305W        W40976  43.490  36.094   2.273
69306W        W40977  37.986  32.943  14.810
69307W        W40978  15.979   9.141  14.312
69308W        W40979  38.907  36.888   4.811
69309W        W40980   1.405  29.386  12.483
69310W        W40981  20.289   8.788   4.623
69311W        W40982   4.378  20.065   2.185
69312W        W40983  13.869  39.048   4.894
69313W        W40984  23.430  36.511  13.932
69314W        W40985  25.688   2.907   0.672
69315W        W40986  18.551  10.292  14.334
69316W        W40987  18.945  24.638   2.982
69317W        W40988  27.566  17.308  13.472
69318W        W40989  32.017  23.292   4.086
69319W        W40990  37.390  16.127   3.227
69320W        W40991   7.862   8.458   2.381
69321W        W40992  17.252  10.278  13.601
69322W        W40993   1.350  20.789   0.995
69323W        W40994  42.380   6.661  13.965
69324W        W40995  44.388  30.551   0.909
69325W        W40996  24.605  17.640  14.512
69326W        W40997  23.711  11.359  11.149
69327W        W40998   7.193  42.113   2.135
69328W        W40999  35.425  21.305   4.129
69329W        W41000  35.877   1.742   3.909
69330W        W41001  44.493  39.027  12.660
69331W        W41002  21.750  44.078   3.767
69332W        W41003   2.002  30.336   0.341
69333W        W41004  20.303  22.739  10.720
69334W        W41005   4.339  20.005   1.274
69335W        W41006  44.007  27.856  10.617
69336W        W41007  10.319   8.839  12.048
69337W        W41008   6.830   9.760   3.641
69338W        W41009  18.119  31.529  11.184
69339W        W41010  20.822  18.983  11.189
69340W        W41011  40.496  14.484   3.144
69341W        W41012   4.200  25.095   1.413
69342W        W41013  15.866  31.464  11.997
69343W        W41014  43.726  44.507   4.754
69344W        W41015   4.719  19.338   3.229
69345W        W41016  42.698  23.474   3.786
69346W        W41017   0.971  18.853  13.749
69347W        W41018  39.363  12.700   1.130
69348W        W41019  19.268  34.577  13.482
69349W        W41020  38.502  21.082  14.993
69350W        W41021  27.154  17.594  10.633
69351W        W41022  23.649  16.731  14.393
69352W        W41023  11.129   4.451  14.748
69353W        W41024   2.807  11.661  10.664
69354W        W41025  11.194  34.360   2.698
69355W        W41026  23.155   6.787   1.629
69356W        W41027  24.570  35.553   1.775
69357W        W41028   3.449  40.445   2.680
69358W        W41029  35.051  30.394  13.944
69359W        W41030   8.168  16.013   1.483
69360W        W41031   3.017  17.979   0.464
69361W        W41032  12.642  40.561   1.972
69362W        W41033  26.174   3.964   1.805
69363W        W41034  27.483   1.310  13.041
69364W        W41035  39.338   2.885   1.865
69365W        W41036   3.754  42.813   4.498
69366W        W41037   6.365   7.431   2.893
69367W        W41038  37.051  33.317   1.914
69368W        W41039   5.387  17.913   3.720
69369W        W41040  24.001  35.131   0.007
69370W        W41041  12.567  37.250  12.580
69371W        W41042  38.831  16.223  12.548
69372W        W41043   1.523  43.991   0.225
69373W        W41044  28.256  18.168  12.569
69374W        W41045  22.197  35.524   4.060
69375W        W41046   7.773  30.971  12.744
69376W        W41047  30.483   6.401  14.571
69377W        W41048  12.723  42.476   0.707
69378W        W41049  18.788  12.243  13.405
69379W        W41050  25.199  33.409   4.324
69380W        W41051  43.340  31.012  10.599
69381W        W41052  42.785  23.848  13.455
69382W        W41053  34.335  32.736  10.674
69383W        W41054  15.827  22.555  13.437
69384W        W41055  18.443  12.643   4.578
69385W        W41056  34.034  16.845  10.729
69386W        W41057   6.837  44.930   0.255
69387W        W41058   0.876  24.975   1.901
69388W        W41059  10.171  28.285   0.015
69389W        W41060  41.246  10.397  14.545
69390W        W41061  42.946   5.800   4.080
69391W        W41062  22.635   9.266  12.094
69392W        W41063  41.021  41.337   4.342
69393W        W41064   7.658   2.032   3.257
69394W        W41065  29.024  36.487   4.418
69395W        W41066  22.285   3.940   0.292
69396W        W41067  20.745  16.649  13.318
69397W        W41068  11.072  43.513  13.526
69398W        W41069   1.313  35.872   4.596
69399W        W41070  20.029  39.198   2.159
69400W        W41071  39.022   3.336   2.299
69401W        W41072  27.989  10.650   3.672
69402W        W41073  34.120   4.840  11.695
69403W        W41074  27.526   8.815  14.861
69404W        W41075  29.179  28.000  14.821
69405W        W41076  20.936   6.195  11.412
69406W        W41077  24.606   6.520   3.791
69407W        W41078  16.295  29.709   2.374
69408W        W41079   9.635   3.414  12.948
69409W        W41080  44.403  28.716   1.481
69410W        W41081  39.359  11.779   4.644
69411W        W41082  24.495  11.630   4.695
69412W        W41083  15.711  12.062  11.457
69413W        W41084   4.043  35.883  10.340
69414W        W41085  14.344   5.417  12.573
69415W        W41086  17.510  11.263   0.544
69416W        W41087  21.243  24.557  10.148
69417W        W41088  33.496   4.856   0.213
69418W        W41089   2.846  29.735  14.013
69419W        W41090  39.533  27.654  13.013
69420W        W41091  29.697  23.488   4.221
69421W        W41092  38.376  32.140   1.433
69422W        W41093   3.593   0.418   9.838
69423W        W41094  28.264   7.443  12.882
69424W        W41095  11.118  22.571   2.246
69425W        W41096  37.906  30.882   0.247
69426W        W41097  25.444  13.176   0.234
69427W        W41098  12.755   5.394  11.846
69428W        W41099  22.181  19.614  10.738
69429W        W41100  22.279  15.283  11.891
69430W        W41101  29.680   1.841  14.847
69431W        W41102  29.089  37.438   4.769
69432W        W41103   9.647  17.802  14.906
69433W        W41104   7.239   2.507  12.403
69434W        W41105  14.794  22.244   0.261
69435W        W41106  16.775  33.629  14.283
69436W        W41107  18.666  23.506  11.534
69437W        W41108  21.982   4.241   3.173
69438W        W41109  41.973  25.913   3.212
69439W        W41110  21.531  16.182   0.262
69440W        W41111  13.651  16.804   4.372
69441W        W41112  33.125  22.548  11.550
69442W        W41113  18.077  11.143  11.532
69443W        W41114  26.564   9.173   4.555
69444W        W41115   3.868  16.281  14.662
69445W        W41116  31.058  41.091   2.428
69446W        W41117  42.926  11.832  11.459
69447W        W41118  31.190  21.226  12.024
69448W        W41119  15.614  24.685  14.451
69449W        W41120  10.475  35.746   4.994
69450W        W41121  18.528  15.583  10.719
69451W        W41122  33.969  24.171  13.975
69452W        W41123  35.595  27.517   2.923
69453W        W41124  42.407  40.932  14.039
69454W        W41125   9.112  40.277  14.058
69455W        W41126  33.138  44.049   4.562
69456W        W41127  39.086  27.694   1.779
69457W        W41128   1.021   6.996   2.204
69458W        W41129  10.296  37.448   0.836
69459W        W41130  13.255  33.486  10.590
69460W        W41131  15.257  14.653  11.471
69461W        W41132  42.468  39.892   4.534
69462W        W41133   5.751  39.823   1.463
69463W        W41134   1.020   2.776   3.697
69464W        W41135  15.590   0.444   3.437
69465W        W41136   4.811  37.646  11.567
69466W        W41137  39.485   2.700   2.852
69467W        W41138  37.302  11.008  14.308
69468W        W41139   9.741  42.465   3.054
69469W        W41140  36.579  12.128  11.254
69470W        W41141  21.603  14.684   3.346
69471W        W41142  22.314  28.675   2.631
69472W        W41143   4.222   3.053  13.435
69473W        W41144  14.322  26.161   3.171
69474W        W41145   4.303  31.723  14.597
69475W        W41146   1.717  29.665  13.097
69476W        W41147   5.484  12.595  12.973
69477W        W41148  36.552  37.562   4.523
69478W        W41149   1.948   8.386  10.762
69479W        W41150  10.426  37.114   4.849
69480W        W41151   0.280  23.835   5.093
69481W        W41152  19.981  40.370  12.561
69482W        W41153   2.859  12.545   3.389
69483W        W41154   4.530  42.793   9.792
69484W        W41155  15.566  41.923  14.261
69485W        W41156   4.351  12.225   3.206
69486W        W41157  23.925   6.219   2.228
69487W        W41158  16.537  22.721   4.072
69488W        W41159  27.053  33.178   0.043
69489W        W41160  41.072  44.363   2.934
69490W        W41161  20.614  25.957   1.550
69491W        W41162   9.820  13.941  13.985
69492W        W41163   1.385  25.086  11.679
69493W        W41164   3.931  31.920   3.843
69494W        W41165  40.261  32.998  13.500
69495W        W41166  25.869  29.440   3.863
69496W        W41167  32.203  13.565  14.900
69497W        W41168  38.867  25.679   2.424
69498W        W41169  26.494   1.192  14.027
69499W        W41170  29.540  19.252  10.733
69500W        W41171  24.009  23.094  11.581
69501W        W41172  13.637  31.577  12.633
69502W        W41173   4.336  31.383   4.455
69503W        W41174  41.524  13.288  12.401
69504W        W41175   2.025  41.411  12.494
69505W        W41176  44.396  18.266   2.369
69506W        W41177  16.769   9.971  11.165
69507W        W41178  40.072  17.739  12.214
69508W        W41179  17.731   8.658   3.929
69509W        W41180  24.163  27.783  13.937
69510W        W41181  11.365  21.080   2.743
69511W        W41182  20.532  43.942   0.531
69512W        W41183  17.666  12.797   0.442
69513W        W41184  38.587  14.781   3.274
69514W        W41185   8.785  39.357  14.275
69515W        W41186  11.304  22.004  13.916
69516W        W41187  23.004  34.816   1.677
69517W        W41188  22.453   1.802   3.195
69518W        W41189  19.381  17.540  11.694
69519W        W41190   0.835  36.649   4.582
69520W        W41191  27.982  12.207  13.129
69521W        W41192  44.329  40.637   3.303
69522W        W41193   2.426  18.608   0.020
69523W        W41194  41.552  17.486  14.285
69524W        W41195  36.121  39.663   4.856
69525W        W41196  27.128   7.290   4.070
69526W        W41197  17.839  42.461   0.719
69527W        W41198  18.151   3.215  14.519
69528W        W41199  21.654   7.168   3.808
69529W        W41200   5.201  39.569  11.990
69530W        W41201  37.768  30.589   3.180
69531W        W41202  21.096  35.985   1.502
69532W        W41203  10.376  19.817   0.898
69533W        W41204  27.228  11.439  14.411
69534W        W41205   9.246  24.751  10.711
69535W        W41206  17.788  14.866  13.430
69536W        W41207  30.850   1.792   9.823
69537W        W41208   5.289  36.315   4.820
69538W        W41209  13.875  40.310  14.439
69539W        W41210  38.416   0.717  14.982
69540W        W41211  26.615  30.189   0.846
69541W        W41212   2.073  28.149  11.239
69542W        W41213  12.892  12.840   0.729
69543W        W41214  13.085  38.457  14.550
69544W        W41215  24.597  20.974  11.497
69545W        W41216  28.195  42.221   4.567
69546W        W41217  34.675   9.294  12.097
69547W        W41218  30.317  35.663   4.120
69548W        W41219   1.769  12.794   1.445
69549W        W41220  23.543   3.304   0.284
69550W        W41221  43.002   9.360  13.595
69551W        W41222  12.682  25.639   2.644
69552W        W41223  33.572  33.606  12.454
69553W        W41224   4.497  28.445  12.897
69554W        W41225  30.022   8.713  12.582
69555W        W41226  15.640  16.855  11.778
69556W        W41227  24.056   0.908   3.211
69557W        W41228  30.203  27.418   0.769
69558W        W41229  42.271   2.933  13.505
69559W        W41230   7.034  11.849  11.107
69560W        W41231  33.402  28.932  12.109
69561W        W41232  40.012  39.553   1.653
69562W        W41233  10.443  41.944   4.616
69563W        W41234  21.539  41.859  13.334
69564W        W41235  15.371  17.230  14.419
69565W        W41236   6.926  17.708   2.156
69566W        W41237  40.923  22.707   4.038
69567W        W41238  20.562   7.341   1.434
69568W        W41239   4.158  16.553   2.020
69569W        W41240  32.840  13.106   1.325
69570W        W41241  12.322  14.093   4.946
69571W        W41242  28.053  22.709  12.944
69572W        W41243  39.990  20.959  14.322
69573W        W41244  21.700  23.831   0.261
69574W        W41245  35.092  34.673   4.805
69575W        W41246  41.820  33.938  11.647
69576W        W41247  44.399   0.217   3.387
69577W        W41248  21.119  41.748  14.376
69578W        W41249  12.846   4.980  11.525
69579W        W41250  15.594  17.787  13.615
69580W        W41251   3.414  11.874   0.851
69581W        W41252  30.433  43.204  13.912
69582W        W41253  32.535   6.639  12.048
69583W        W41254   0.371  19.036   1.412
69584W        W41255  44.906  32.760  11.559
69585W        W41256  23.411  42.431  13.184
69586W        W41257  14.177  14.383  10.569
69587W        W41258  26.938  20.734  13.818
69588W        W41259  24.060  24.470  12.569
69589W        W41260  12.630  37.868  13.862
69590W        W41261  36.386  29.016   3.277
69591W        W41262  33.624   6.193  13.431
69592W        W41263  10.702  19.878   4.574
69593W        W41264  16.150  17.111  11.961
69594W        W41265   9.389  21.088  12.865
69595W        W41266  40.184  24.257  12.064
69596W        W41267  40.802  13.151   2.811
69597W        W41268  16.015  21.768   3.175
69598W        W41269   8.279   5.870  12.995
69599W        W41270  21.608   6.750   4.560
69600W        W41271  20.473  21.415   2.762
69601W        W41272  34.105  43.495   3.490
69602W        W41273  23.010  25.988   4.455
69603W        W41274   7.865   0.340  13.768
69604W        W41275  43.445  16.773   0.823
69605W        W41276  13.348   0.349   4.197
69606W        W41277  19.100  15.539  11.427
69607W        W41278  42.200  43.252  14.757
69608W        W41279  22.633  19.502  14.926
69609W        W41280  34.112  40.064   0.913
69610W        W41281   5.681   9.957   0.661
69611W        W41282  16.329  35.167  12.166
69612W        W41283  29.714  30.232   0.752
69613W        W41284  22.724  41.498  12.459
69614W        W41285  19.790  23.529  11.925
69615W        W41286  37.337   1.461  14.780
69616W        W41287   7.825   0.145  13.301
69617W        W41288  19.917   1.313   1.829
69618W        W41289   4.479  16.808   4.634
69619W        W41290  41.273  21.185  12.447
69620W        W41291  10.200   0.358  12.409
69621W        W41292  41.981  21.968   1.715
69622W        W41293  40.366   6.191  12.564
69623W        W41294  42.322  40.406   0.999
69624W        W41295  41.367  41.250  14.347
69625W        W41296  26.794  28.953  12.853
69626W        W41297   2.959  10.289   3.213
69627W        W41298  36.100  15.909  11.190
69628W        W41299   4.273  20.257   0.829
69629W        W41300  30.703  16.243  10.805
69630W        W41301  37.546  26.235  12.409
69631W        W41302  20.207  13.269  13.517
69632W        W41303   4.692  12.427  10.619
69633W        W41304  37.431  23.194  12.201
69634W        W41305  27.054  44.679  10.680
69635W        W41306  31.278  23.444   2.633
69636W        W41307  21.289  11.692   3.610
69637W        W41308  13.181  39.311   1.708
69638W        W41309  31.243  20.857  10.767
69639W        W41310  40.320  32.004  14.480
69640W        W41311  17.180   2.721  10.713
69641W        W41312  12.668   1.004   2.391
69642W        W41313  38.152  12.993   1.258
69643W        W41314   9.916   5.822   2.335
69644W        W41315   0.310   5.906  11.940
69645W        W41316   1.107  24.817   5.344
69646W        W41317  15.768  29.396   1.811
69647W        W41318  28.087  19.937  10.642
69648W        W41319  12.033  32.712  14.597
69649W        W41320  31.935  19.084  14.836
69650W        W41321  42.930  20.494  13.503
69651W        W41322  13.155  40.319   4.606
69652W        W41323   9.732  34.091  12.929
69653W        W41324   5.567  39.404  12.819
69654W        W41325  39.411  37.656   0.241
69655W        W41326  14.182  33.486  12.395
69656W        W41327  39.743  31.970  14.497
69657W        W41328  18.578   6.573   0.000
69658W        W41329  30.207   2.257  11.832
69659W        W41330  21.197  38.296  14.362
69660W        W41331   2.345  35.487   3.484
69661W        W41332  25.972  26.462  10.835
69662W        W41333  31.115   8.880   2.438
69663W        W41334   7.390  10.433  12.548
69664W        W41335  10.148  16.700  14.318
69665W        W41336  35.932  36.513   2.343
69666W        W41337   9.593  13.617  11.556
69667W        W41338  39.882  20.467  13.497
69668W        W41339  25.023  18.551  10.695
69669W        W41340  24.804   8.365  11.169
69670W        W41341  16.574  41.869  10.987
69671W        W41342   1.443  38.920  13.372
69672W        W41343  19.103   8.399  14.311
69673W        W41344  24.160  24.384  11.698
69674W        W41345   0.840  29.204   1.007
69675W        W41346  12.317  27.516  14.797
69676W        W41347  44.058  26.007   1.654
69677W        W41348  41.063   2.964  14.737
69678W        W41349  30.931  15.810  13.965
69679W        W41350   5.231  12.644  14.762
69680W        W41351  15.405  27.597  13.829
69681W        W41352  34.958   2.407  14.005
69682W        W41353   4.931  20.499  11.934
69683W        W41354  30.275  41.982   2.903
69684W        W41355   1.131  24.430   1.235
69685W        W41356   6.674  16.720  14.317
69686W        W41357  40.974  21.653  12.424
69687W        W41358  13.096   8.181  14.297
69688W        W41359  44.267   9.602  13.127
69689W        W41360   6.966  18.814   3.373
69690W        W41361  18.757  44.206  12.844
69691W        W41362  17.222   5.029  10.198
69692W        W41363   7.278  29.091  13.775
69693W        W41364   0.506   4.281  14.251
69694W        W41365  39.456  24.662   4.539
69695W        W41366  29.245  40.292   1.876
69696W        W41367  43.546  43.970  14.574
69697W        W41368   2.183  30.556  14.908
69698W        W41369  17.343  10.141   2.396
69699W        W41370  26.659  37.642   3.102
69700W        W41371  38.248   6.098   2.091
69701W        W41372  30.941  24.795   1.713
69702W        W41373  13.020  24.695  12.406
69703W        W41374  33.646   1.620   3.432
69704W        W41375  21.539  17.508  13.808
69705W        W41376  14.575  42.944  11.646
69706W        W41377  16.377  32.157   2.285
69707W        W41378  29.167  16.387   2.639
69708W        W41379  27.379  13.746   0.794
69709W        W41380  35.967   6.188  14.807
69710W        W41381   3.892  24.597  14.664
69711W        W41382  23.986  15.336  11.106
69712W        W41383   4.449  42.460   0.738
69713W        W41384  39.037  18.047   4.600
69714W        W41385  43.398  44.373  13.983
69715W        W41386  16.306  44.970  14.385
69716W        W41387  30.413  13.157   2.881
69717W        W41388  32.436  34.583  14.536
69718W        W41389  13.263  10.206   0.013
69719W        W41390   8.335  33.130  14.737
69720W        W41391  30.535  42.251   1.639
69721W        W41392   9.406  42.798   2.369
69722W        W41393  18.970  37.512  11.525
69723W        W41394   4.503   0.969   1.410
69724W        W41395  18.206  14.527   4.985
69725W        W41396  21.158  44.768  12.447
69726W        W41397  15.573   4.019  11.613
69727W        W41398  13.388  44.615   2.718
69728W        W41399   8.620  29.168  13.981
69729W        W41400  36.481   8.698   2.208
69730W        W41401  14.068  13.162  13.048
69731W        W41402  18.154  20.036  11.007
69732W        W41403  22.659  15.050   4.234
69733W        W41404   7.245   3.382  14.442
69734W        W41405  41.471  11.093   2.005
69735W        W41406  44.302   3.396   2.829
69736W        W41407  12.660  14.260  12.931
69737W        W41408  44.785  14.105   4.060
69738W        W41409  42.718  17.076   4.424
69739W        W41410  22.627  33.572   3.649
69740W        W41411  25.985  35.901   3.883
69741W        W41412   6.407   2.222   1.776
69742W        W41413   7.238  27.079   1.265
69743W        W41414   4.412  29.080   0.032
69744W        W41415  38.231  43.029  13.474
69745W        W41416  42.821  12.151   2.164
69746W        W41417  34.845   4.723   0.886
69747W        W41418  12.073  34.457   4.241
69748W        W41419  24.031  34.025   2.056
69749W        W41420   9.894   8.632  12.260
69750W        W41421  10.812  36.936   3.143
69751W        W41422  19.769  17.102   0.667
69752W        W41423   7.451   3.250   0.459
69753W        W41424  20.818  30.348   3.213
69754W        W41425   8.110  30.800   4.954
69755W        W41426   0.380  18.577   3.331
69756W        W41427  35.399  27.694  13.859
69757W        W41428  37.395  21.203  14.993
69758W        W41429   9.915  36.999  12.653
69759W        W41430  14.141  22.479  12.933
69760W        W41431  14.157  37.505   2.809
69761W        W41432  35.943   8.066  13.417
69762W        W41433   4.007   8.848  13.919
69763W        W41434  19.700  13.402   1.651
69764W        W41435   4.825  21.772   1.043
69765W        W41436  35.915   0.001  11.201
69766W        W41437  29.251  25.076  14.427
69767W        W41438  18.582  21.764  14.315
69768W        W41439   3.236  24.673   0.800
69769W        W41440  34.370   4.410  11.609
69770W        W41441   3.018   0.502   2.952
69771W        W41442  33.385  22.135   2.820
69772W        W41443  41.353  23.138   3.692
69773W        W41444   0.551  43.938   0.890
69774W        W41445   4.494   7.247  14.976
69775W        W41446  21.753  23.148  14.446
69776W        W41447  10.624  26.492  11.429
69777W        W41448  28.448  10.769   3.906
69778W        W41449   1.345  11.422  12.889
69779W        W41450  20.332  42.955  12.653
69780W        W41451  40.477  13.908   1.283
69781W        W41452  10.265  16.244   2.480
69782W        W41453  37.928  33.706  13.051
69783W        W41454  19.017  39.539   2.856
69784W        W41455  29.971  31.128   4.261
69785W        W41456   5.268   4.412  11.808
69786W        W41457  35.148  38.171   0.468
69787W        W41458  30.007  14.033   0.213
69788W        W41459   3.579  32.179  13.034
69789W        W41460  15.089   8.882  12.960
69790W        W41461   0.766  22.132  14.319
69791W        W41462   6.734   6.947  13.822
69792W        W41463  37.883  27.691  12.006
69793W        W41464  25.555  39.571   2.369
69794W        W41465  11.557  41.208   0.503
69795W        W41466   4.404  33.607   0.868
69796W        W41467  43.566   6.760   2.142
69797W        W41468  14.302  42.726  13.407
69798W        W41469  40.259  40.651   5.022
69799W        W41470  30.210  30.545  13.077
69800W        W41471  29.109  28.998  13.870
69801W        W41472  17.148   0.072   2.375
69802W        W41473   9.460   6.858  13.971
69803W        W41474   6.716  17.945  11.633
69804W        W41475  33.431  28.750   1.929
69805W        W41476  14.696  38.981   3.285
69806W        W41477   9.833  26.922  13.419
69807W        W41478  36.088  20.572   1.389
69808W        W41479   0.371  24.259   1.729
69809W        W41480  23.651   6.386   2.701
69810W        W41481  28.122  20.822   0.565
69811W        W41482  11.208   7.817  13.186
69812W        W41483  26.491  32.091   2.926
69813W        W41484   5.618  24.316  11.220
69814W        W41485  34.882  17.792  12.480
69815W        W41486  18.648  21.054  10.227
69816W        W41487  38.010  39.593   4.472
69817W        W41488  11.870  21.808   1.672
69818W        W41489  31.635  18.036   0.666
69819W        W41490   4.991  19.514   2.823
69820W        W41491  36.908  36.945   5.086
69821W        W41492  36.241  13.229  11.835
69822W        W41493  43.730  30.054  10.502
69823W        W41494  22.687  24.522   1.013
69824W        W41495  17.372  21.953   1.348
69825W        W41496  16.138  33.941   3.072
69826W        W41497  42.716   6.206   4.284
69827W        W41498  20.249  27.595   2.876
69828W        W41499  24.576  14.848  14.978
69829W        W41500  21.569   0.027   3.082
69830W        W41501  21.771  25.187  14.410
69831W        W41502  42.450  38.834   0.760
69832W        W41503  35.077  36.092  12.334
69833W        W41504  34.091  37.106  13.561
69834W        W41505  16.227  43.684  14.826
69835W        W41506  38.397  14.324   1.830
69836W        W41507  25.905   2.963   4.127
69837W        W41508  25.595  24.076   3.924
69838W        W41509  43.028  25.596  13.197
69839W        W41510  38.472  27.624  13.170
69840W        W41511  43.576  34.464   2.683
69841W        W41512  13.300   0.235   2.202
69842W        W41513  14.743  13.724   0.298
69843W        W41514  29.890  25.716  11.439
69844W        W41515  22.507  13.490  13.875
69845W        W41516  19.045   9.601  14.790
69846W        W41517  42.104  22.465   3.691
69847W        W41518  25.302  33.223   0.977
69848W        W41519  14.247  24.435   2.667
69849W        W41520  17.148   6.813  12.276
69850W        W41521  10.811  40.011  14.959
69851W        W41522  41.840   0.257  13.206
69852W        W41523  14.174  35.087  14.764
69853W        W41524  17.234  41.381  11.951
69854W        W41525  27.934  25.870  12.825
69855W        W41526  25.667  14.793   1.610
69856W        W41527  13.587  22.774   0.736
69857W        W41528  35.169  36.890  12.061
69858W        W41529  33.660   9.226  11.264
69859W        W41530  44.031  40.724   2.799
69860W        W41531  38.813   4.669  12.372
69861W        W41532  40.373  29.629  13.484
69862W        W41533  38.405  10.701  11.583
69863W        W41534  10.847  36.847   1.307
69864W        W41535  13.715  16.851  14.052
69865W        W41536  31.148   5.958  13.920
69866W        W41537  13.581  34.350   0.354
69867W        W41538  35.272  14.007  12.007
69868W        W41539  32.375   9.107  12.451
69869W        W41540  30.067   3.054   3.677
69870W        W41541  29.435   9.224  14.832
69871W        W41542  26.000  31.702   3.744
69872W        W41543  10.194   0.517  10.979
69873W        W41544   9.700  41.352  13.862
69874W        W41545  29.469  28.102  11.740
69875W        W41546   2.753   3.873   4.391
69876W        W41547   6.630  36.403  11.268
69877W        W41548  12.108  44.947  10.442
69878W        W41549  30.961   4.192   0.889
69879W        W41550   8.252  37.614   3.128
69880W        W41551  44.295  21.452   0.250
69881W        W41552   7.700  14.603  10.471
69882W        W41553  26.150  36.569   1.782
69883W        W41554   5.818  14.784   0.499
69884W        W41555  41.540  29.537   1.664
69885W        W41556  37.950  33.198  12.984
69886W        W41557  44.605   0.041  12.510
69887W        W41558   6.535  17.466  13.941
69888W        W41559  44.485  35.900   2.261
69889W        W41560  31.244  23.525   1.882
69890W        W41561  43.762  33.455  13.531
69891W        W41562  42.538  17.151   1.364
69892W        W41563  28.688   2.891   2.181
69893W        W41564   4.447  22.961   1.876
69894W        W41565  44.819  21.311   3.472
69895W        W41566  12.729  14.776  11.623
69896W        W41567  22.058  20.525  11.622
69897W        W41568  35.339  26.127   0.367
69898W        W41569  17.993  24.561  10.384
69899W        W41570  39.395  10.687  11.383
69900W        W41571  13.822  22.936   2.301
69901W        W41572   0.746  41.242  11.084
69902W        W41573  25.685  21.728  12.454
69903W        W41574  31.222  35.932  14.810
69904W        W41575   0.937   8.525  12.505
69905W        W41576   7.779  22.516   0.448
69906W        W41577  30.948  26.555   0.393
69907W        W41578  34.401   9.209   2.905
69908W        W41579  31.898  38.954  12.487
69909W        W41580  22.164  29.065   2.922
69910W        W41581  10.290  12.207  11.489
69911W        W41582  36.057  37.015  10.685
69912W        W41583  17.356  24.036  12.460
69913W        W41584  12.591  13.392  11.824
69914W        W41585  13.821   9.694  12.914
69915W        W41586  27.038  25.043  14.851
69916W        W41587  25.987   6.327  11.799
69917W        W41588  14.580  27.938  13.785
69918W        W41589  40.972  24.117  13.631
69919W        W41590  27.121  15.096  11.594
69920W        W41591   5.229  25.245   3.191
69921W        W41592  18.196  24.550   4.683
69922W        W41593  28.250  21.461   3.561
69923W        W41594  42.733  39.715  11.089
69924W        W41595  34.554  40.087  14.997
69925W        W41596  10.602  34.527   1.537
69926W        W41597   9.138  39.586  13.450
69927W        W41598  14.629  33.160  10.541
69928W        W41599   8.875  27.884   1.258
69929W        W41600  27.887  33.221   1.455
69930W        W41601  30.790  20.432   1.293
69931W        W41602  10.787  37.516   1.049
69932W        W41603  41.134   8.826   5.012
69933W        W41604  31.853  33.902   0.693
69934W        W41605  18.635  10.650   4.371
69935W        W41606  21.203   0.843  11.003
69936W        W41607   6.367  13.792  13.112
69937W        W41608  39.404  27.079   1.336
69938W        W41609  14.062   7.428   1.453
69939W        W41610   2.180  16.657   4.422
69940W        W41611  42.986  35.990  10.715
69941W        W41612  27.024  33.484   4.872
69942W        W41613   9.430  18.402   3.049
69943W        W41614  20.541  34.932  11.017
69944W        W41615  11.895   2.767   2.322
69945W        W41616  10.831   4.861  12.055
69946W        W41617  37.501  24.619   1.964
69947W        W41618  38.911   9.744  13.924
69948W        W41619  40.876   6.067   4.423
69949W        W41620   2.184  32.790  11.096
69950W        W41621  44.504   6.204   2.604
69951W        W41622  39.845  32.462   1.907
69952W        W41623  14.795  29.969   4.316
69953W        W41624  22.211  26.545  11.480
69954W        W41625  25.589  21.654   2.286
69955W        W41626   3.354  16.042  14.546
69956W        W41627  16.662  33.145   2.216
69957W        W41628  34.919  10.854  10.632
69958W        W41629  20.950  11.347  12.420
69959W        W41630  33.132  43.464   1.817
69960W        W41631  34.988  14.834   0.377
69961W        W41632   9.776  27.931  13.376
69962W        W41633  44.384  18.234  10.694
69963W        W41634  32.085  35.351  12.527
69964W        W41635  13.784  30.891  11.254
69965W        W41636   9.984   7.249  14.493
69966W        W41637  18.373   6.848   0.846
69967W        W41638   3.208  23.451   2.616
69968W        W41639  25.723  11.765  10.740
69969W        W41640  31.262  32.775  12.664
69970W        W41641   7.955  18.200  11.444
69971W        W41642  36.842  30.592  11.242
69972W        W41643  44.078  13.549  10.704
69973W        W41644  17.945  15.856  12.086
69974W        W41645   3.249   5.087   1.629
69975W        W41646  17.535  14.985  14.410
69976W        W41647  28.948  11.742   4.727
69977W        W41648  31.901  24.597   3.511
69978W        W41649  33.080   8.814  13.525
69979W        W41650   6.239  31.605  11.665
69980W        W41651  25.532  19.979  13.724
69981W        W41652  40.662  29.172   4.884
69982W        W41653  34.049  34.949   0.771
69983W        W41654  33.355  35.349  10.985
69984W        W41655  41.735   0.865   4.330
69985W        W41656  18.018   9.784   1.143
69986W        W41657  18.283  34.443  13.039
69987W        W41658  40.703  42.379  14.360
69988W        W41659  37.781  22.701  12.889
69989W        W41660   9.356  39.582   0.794
69990W        W41661  29.424   3.932  14.905
69991W        W41662  10.739   0.017  14.961
69992W        W41663  21.623  27.051   1.173
69993W        W41664  13.975  31.912  10.549
69994W        W41665  28.974  15.366  13.394
69995W        W41666  32.341  30.068  10.908
69996W        W41667   9.676   8.423   1.373
69997W        W41668   3.079  10.679   1.401
69998W        W41669  27.100   5.498   2.440
69999W        W41670  24.445  44.425   3.385
70000W        W41671   5.202  18.135  12.117
70001W        W41672   0.051  38.903  13.335
70002W        W41673   3.357   4.485   0.780
70003W        W41674  30.653  15.288  14.846
70004W        W41675   0.636  36.367  11.094
70005W        W41676  26.239   1.972  11.968
70006W        W41677   0.790  44.945  13.550
70007W        W41678  44.660  22.467   2.775
70008W        W41679   2.079  10.387   4.293
70009W        W41680  19.409  33.434  13.091
70010W        W41681  37.098  11.399  12.797
70011W        W41682   3.462  40.870   2.404
70012W        W41683   8.474  23.257  12.859
70013W        W41684  36.509  37.320  10.631
70014W        W41685  43.503  12.164  13.309
70015W        W41686   4.201  15.280   4.580
70016W        W41687  18.966  37.304  11.072
70017W        W41688  16.674  32.991  13.627
70018W        W41689  43.316  11.559   1.400
70019W        W41690   2.391  39.407   3.229
70020W        W41691  43.329  38.462   9.812
70021W        W41692   2.318  20.505  14.719
70022W        W41693  30.456   0.006  13.499
70023W        W41694  25.471  17.018   0.303
70024W        W41695  41.740  28.435  10.575
70025W        W41696  37.975  14.127   3.578
70026W        W41697  26.051   5.352   3.841
70027W        W41698  37.220  29.635   3.032
70028W        W41699  13.683  13.289  10.983
70029W        W41700   2.908  12.280  11.926
70030W        W41701  33.160  10.711   4.243
70031W        W41702  24.243  40.222  11.805
70032W        W41703  23.794  17.036  14.953
70033W        W41704  27.054  22.249   0.425
70034W        W41705  32.980  39.846  11.631
70035W        W41706  36.860  24.685   2.571
70036W        W41707   4.264  34.542   4.712
70037W        W41708  16.063   4.216  12.531
70038W        W41709  33.090  34.649   4.379
70039W        W41710  43.832   9.956   0.497
70040W        W41711  13.823   4.736   4.804
70041W        W41712  27.233   0.327   3.471
70042W        W41713  16.724  25.424   4.697
70043W        W41714  43.293   4.342  10.697
70044W        W41715  31.660  42.692   1.699
70045W        W41716  12.666   3.738   3.281
70046W        W41717  16.079   4.418   1.247
70047W        W41718  14.604  19.303  12.908
70048W        W41719  35.387   0.215   3.196
70049W        W41720  12.835   8.845  10.642
70050W        W41721  12.102  42.133   3.863
70051W        W41722  32.633  40.972  12.418
70052W        W41723  30.237   3.236   3.227
70053W        W41724  41.367  35.166   0.411
70054W        W41725   2.151   4.800   3.857
70055W        W41726  12.446  10.034   2.715
70056W        W41727  19.769  12.561  14.354
70057W        W41728  24.536  40.217   0.558
70058W        W41729   7.217  35.365   0.363
70059W        W41730  18.209  19.991  12.489
70060W        W41731  10.132  26.455  14.536
70061W        W41732  31.151   3.426   5.006
70062W        W41733  10.657   6.859  13.019
70063W        W41734  24.578   2.758  14.903
70064W        W41735  25.157   9.512  11.541
70065W        W41736  24.614   0.389  13.480
70066W        W41737  26.953   6.655  10.616
70067W        W41738  31.008   3.774   3.312
70068W        W41739  16.762  26.500  12.811
70069W        W41740   9.283  40.955   1.446
70070W        W41741  20.572  23.344   2.690
70071W        W41742  41.600   4.315  10.872
70072W        W41743   7.508  43.123  12.048
70073W        W41744  25.379   3.731   3.040
70074W        W41745  40.087  22.090  11.574
70075W        W41746  30.175  39.539  13.058
70076W        W41747  20.367  13.505  11.480
70077W        W41748   5.029  16.324  10.666
70078W        W41749  36.942  19.209  12.449
70079W        W41750  39.458  39.955   1.727
70080W        W41751  18.332  19.438  11.692
70081W        W41752  39.376  43.379  12.810
70082W        W41753  37.985   8.816  10.152
70083W        W41754  34.136  39.159   5.513
70084W        W41755  41.234  38.859   9.726
70085W        W41756  18.599  39.333  10.672
70086W        W41757  20.720  16.143   1.388
70087W        W41758  42.365  35.010  14.266
70088W        W41759  30.715  31.160   3.289
70089W        W41760   4.345   4.313  11.080
70090W        W41761  31.626  29.967  11.585
70091W        W41762  42.297  27.994  12.574
70092W        W41763  10.816   2.209   0.563
70093W        W41764  31.845  26.416   2.499
70094W        W41765   3.893  16.117  11.555
70095W        W41766  44.456  35.503  14.112
70096W        W41767  40.211  22.165  14.967
70097W        W41768  15.666   8.189   1.174
70098W        W41769  20.598   2.124   4.143
70099W        W41770   5.550  34.534   4.076
70100W        W41771   8.827  31.429  10.672
70101W        W41772   2.332  17.025  14.776
70102W        W41773  24.553  19.056   1.886
70103W        W41774   9.457  10.772  11.083
70104W        W41775  15.620  24.507  13.935
70105W        W41776   7.270   6.475   2.339
70106W        W41777  20.803  37.034   1.019
70107W        W41778  34.798  36.647  13.975
70108W        W41779  36.513  28.314   4.123
70109W        W41780  27.172   8.214  13.507
70110W        W41781  21.629  38.906   2.209
70111W        W41782  31.842  39.762   3.783
70112W        W41783  41.321  21.246  14.060
70113W        W41784  41.861  43.544   4.021
70114W        W41785   4.984  25.683   5.089
70115W        W41786   1.998   2.505   1.623
70116W        W41787  40.613  26.753   4.054
70117W        W41788  18.651   3.510   3.924
70118W        W41789  34.929  35.748  13.625
70119W        W41790  20.984  32.833  14.900
70120W        W41791  17.720  18.256  12.377
70121W        W41792  11.353  41.215   1.716
70122W        W41793  30.117  38.566   2.318
70123W        W41794  20.361   9.744  11.118
70124W        W41795  33.626  20.752   0.768
70125W        W41796  37.489  36.318  14.316
70126W        W41797  20.852  17.077  14.401
70127W        W41798  44.349  42.214  12.132
70128W        W41799  38.855  31.760  10.675
70129W        W41800  39.929  10.298  12.629
70130W        W41801   8.641  22.060  13.060
70131W        W41802  20.718  23.588   3.835
70132W        W41803  29.837  37.381  13.569
70133W        W41804  21.463  36.427  14.275
70134W        W41805   9.675  21.798  13.364
70135W        W41806  14.121  15.437   2.697
70136W        W41807   4.447   1.306   4.210
70137W        W41808  31.624  36.515  11.876
70138W        W41809  44.263  33.531  13.534
70139W        W41810  40.023  12.589  13.528
70140W        W41811   8.664  30.888  11.486
70141W        W41812  41.358  12.680  13.840
70142W        W41813  42.246  39.365   3.240
70143W        W41814  31.692  34.002   3.823
70144W        W41815  12.142  43.057  10.935
70145W        W41816  39.250  41.243   2.754
70146W        W41817  31.107  23.097  11.461
70147W        W41818  39.449   5.118  10.320
70148W        W41819  44.491  41.295  14.405
70149W        W41820   1.741  41.491   0.682
70150W        W41821  18.137  43.421  12.888
70151W        W41822  15.375   1.323  14.371
70152W        W41823  16.549  19.672  14.604
70153W        W41824  31.998  37.904   0.021
70154W        W41825  33.092  18.049   2.272
70155W        W41826  15.647  35.185  11.421
70156W        W41827   9.669  16.831  12.210
70157W        W41828  38.825  12.439   4.160
70158W        W41829   8.304  30.623   1.222
70159W        W41830   6.440  43.804   0.466
70160W        W41831  44.860   2.910  13.015
70161W        W41832  15.297  19.995   1.584
70162W        W41833  43.609  36.429  14.962
70163W        W41834  11.991  35.897   4.127
70164W        W41835  31.768  17.740   2.183
70165W        W41836  43.889  33.554  11.183
70166W        W41837  21.232  44.732   2.787
70167W        W41838   0.755   9.366  12.899
70168W        W41839  41.717  10.197   3.589
70169W        W41840  12.046  33.623  11.947
70170W        W41841  40.558  22.408   0.928
70171W        W41842   0.360  25.388  11.757
70172W        W41843  20.084  15.805  14.312
70173W        W41844  34.956  36.588  12.434
70174W        W41845  37.939  18.974  12.322
70175W        W41846   9.322  19.325   0.994
70176W        W41847   3.468  36.512   5.084
70177W        W41848  11.084   2.845   4.146
70178W        W41849  28.167  10.285  12.580
70179W        W41850  22.643  17.078  14.102
70180W        W41851  14.775  42.424   1.725
70181W        W41852  36.275   1.897  14.063
70182W        W41853  12.345   1.387   1.312
70183W        W41854  32.150  14.763  12.392
70184W        W41855  16.554  17.643   3.706
70185W        W41856  28.117  16.163   0.466
70186W        W41857   9.773   3.967   3.658
70187W        W41858   1.256  22.953   4.602
70188W        W41859  28.234  12.889   1.711
70189W        W41860  38.366  18.067   4.548
70190W        W41861   9.886  19.706   3.765
70191W        W41862  27.570  31.875  13.390
70192W        W41863  31.159   4.082   3.738
70193W        W41864  32.895  39.000   2.229
70194W        W41865  35.393   6.658   1.432
70195W        W41866  13.143  33.193  11.009
70196W        W41867  27.719   5.638   0.978
70197W        W41868   0.408  21.176  14.449
70198W        W41869   4.814   8.966  13.443
70199W        W41870  10.138  27.525  14.481
70200W        W41871  25.223  35.364  13.886
70201W        W41872  13.267  24.682  13.323
70202W        W41873  20.017  33.810   4.588
70203W        W41874   2.221  22.921   4.747
70204W        W41875  10.070   7.340  13.483
70205W        W41876   6.911   2.997   2.858
70206W        W41877  13.555  21.607   1.347
70207W        W41878  32.533  25.953  14.446
70208W        W41879  13.982   0.930   4.819
70209W        W41880  41.902  31.677  14.741
70210W        W41881  32.632  41.865   4.151
70211W        W41882  34.865  15.489  13.888
70212W        W41883   7.723  10.105  12.875
70213W        W41884  32.703  18.731  12.836
70214W        W41885   4.864  32.069  13.305
70215W        W41886   5.672  31.429   0.823
70216W        W41887  24.125  28.215   3.693
70217W        W41888  42.732  42.737  11.474
70218W        W41889   6.153   4.718   4.476
70219W        W41890   4.831  17.061   3.739
70220W        W41891  19.576  21.978  12.184
70221W        W41892  42.959  26.744   3.620
70222W        W41893  32.924  37.321   0.899
70223W        W41894  40.296  23.633   2.842
70224W        W41895  26.496  18.676   1.923
70225W        W41896  12.409  42.308   2.394
70226W        W41897  26.818  34.350   2.630
70227W        W41898  31.708  28.927  13.442
70228W        W41899  41.767  36.536   3.208
70229W        W41900  29.866  24.052   2.016
70230W        W41901  10.082  42.428  11.044
70231W        W41902  12.796  30.004  13.208
70232W        W41903  16.234   2.724  13.137
70233W        W41904  23.047  21.148  10.666
70234W        W41905   1.909   9.808  12.410
70235W        W41906   6.402  35.673  13.598
70236W        W41907  12.298  10.847  13.233
70237W        W41908   3.223  20.750  13.692
70238W        W41909  42.724   4.676   0.725
70239W        W41910  36.646   7.747  14.776
70240W        W41911  22.604  20.760   0.346
70241W        W41912  37.590   3.382   4.174
70242W        W41913   8.738  42.054  11.058
70243W        W41914  37.625   7.355  14.497
70244W        W41915   2.401  33.122   3.214
70245W        W41916  36.020  44.091  12.092
70246W        W41917  15.141  27.566   4.008
70247W        W41918  23.742  11.392  12.966
70248W        W41919  43.186  33.026  10.140
70249W        W41920  24.880  23.373   1.188
70250W        W41921   2.440  35.864   0.841
70251W        W41922   4.342  24.632  14.408
70252W        W41923  23.574  29.877   3.710
70253W        W41924  15.781  36.600   0.425
70254W        W41925  36.844  22.082   4.775
70255W        W41926   3.348  19.715  13.201
70256W        W41927   8.343  36.175   0.848
70257W        W41928  31.640   9.552   1.446
70258W        W41929  14.757  44.799  13.942
70259W        W41930  16.481  43.354   4.505
70260W        W41931  33.001  13.736  13.808
70261W        W41932  27.589  38.095  12.355
70262W        W41933  12.100  36.863  13.493
70263W        W41934  40.869  30.109   4.677
70264W        W41935  38.119  43.548  11.111
70265W        W41936  42.316  13.564  11.930
70266W        W41937   5.859  31.960  12.446
70267W        W41938  19.366  43.234   0.756
70268W        W41939  42.769  22.099   4.049
70269W        W41940  21.293  37.582   3.176
70270W        W41941  38.285  40.729   4.430
70271W        W41942  35.029  32.442   3.783
70272W        W41943  10.953   4.855  11.207
70273W        W41944  21.495  12.709  11.121
70274W        W41945  37.021   4.899   0.768
70275W        W41946   5.892   4.477   4.106
70276W        W41947  15.820   1.762   1.326
70277W        W41948   4.407  13.762  13.947
70278W        W41949   9.289   1.799   2.239
70279W        W41950   7.346   7.938  13.441
70280W        W41951  26.484  40.301  14.853
70281W        W41952  30.513  14.624   0.427
70282W        W41953  23.412  22.974   1.912
70283W        W41954   8.671  40.918  12.881
70284W        W41955   1.885  31.538   2.191
70285W        W41956  26.518  31.626   3.684
70286W        W41957  27.096   9.903  12.796
70287W        W41958  39.097  23.136   0.543
70288W        W41959  33.414  11.704   0.025
70289W        W41960  39.847  33.400   2.669
70290W        W41961  18.826   8.716  14.890
70291W        W41962  34.182  33.537  14.366
70292W        W41963  11.626  43.929  14.338
70293W        W41964  41.535  14.903   2.132
70294W        W41965  29.595  35.985   0.320
70295W        W41966  24.016  23.206  13.796
70296W        W41967  39.535  14.343  13.026
70297W        W41968  28.828  31.659  14.257
70298W        W41969  25.387  26.465  12.103
70299W        W41970   5.078  27.468   1.000
70300W        W41971  32.968  27.078   4.574
70301W        W41972   6.720  42.055   1.290
70302W        W41973  20.785  34.458  14.053
70303W        W41974  26.224  26.517  11.362
70304W        W41975  29.153  17.897   2.806
70305W        W41976   1.978  18.032   0.456
70306W        W41977  20.061   8.469  11.541
70307W        W41978  37.408  44.372  10.495
70308W        W41979  36.272  40.763   2.298
70309W        W41980  21.572  35.519  12.839
70310W        W41981  41.158  17.618   2.162
70311W        W41982  10.064   2.181  12.534
70312W        W41983   1.521   1.987   4.234
70313W        W41984  23.270  26.378   4.220
70314W        W41985  20.301   8.431   1.668
70315W        W41986  21.482  15.435   0.751
70316W        W41987  29.766   8.269   4.973
70317W        W41988  28.550  11.528  13.364
70318W        W41989  40.324  44.489   4.570
70319W        W41990  29.855  17.782   3.271
70320W        W41991  13.514  40.027  13.097
70321W        W41992   8.384  41.394   4.196
70322W        W41993  40.484  44.561  14.814
70323W        W41994  14.735  30.040  10.468
70324W        W41995  19.192  29.940  12.034
70325W        W41996   4.914   7.066   4.275
70326W        W41997   4.078  18.148   1.420
70327W        W41998  38.996  17.581  12.796
70328W        W41999  30.579  28.467  12.447
70329W        W42000  20.268  32.824   0.402
70330W        W42001  20.404  27.722  12.470
70331W        W42002   1.354   2.912  12.358
70332W        W42003   4.533   6.268  10.472
70333W        W42004  43.206  14.013   2.334
70334W        W42005   7.216   7.769   0.508
70335W        W42006  29.389  14.601  14.111
70336W        W42007  17.973  28.631   1.833
70337W        W42008  21.960  43.880   1.899
70338W        W42009   9.703   0.473   2.730
70339W        W42010  10.710  30.384   4.086
70340W        W42011  44.332  12.473   1.687
70341W        W42012  12.187  26.494   9.950
70342W        W42013  15.274  23.502  11.470
70343W        W42014  34.436  43.369   1.077
70344W        W42015  43.388  29.644   4.342
70345W        W42016  38.605  22.558   3.676
70346W        W42017   3.914  18.531  11.807
70347W        W42018  38.952  17.205  11.575
70348W        W42019   4.450  21.826  12.380
70349W        W42020  44.517  33.571   1.307
70350W        W42021   9.097  30.569  11.570
70351W        W42022   8.377  23.011   1.536
70352W        W42023  28.780  13.749  14.102
70353W        W42024  26.692  43.076   3.813
70354W        W42025  19.285  28.643  10.523
70355W        W42026   1.329  16.216   0.938
70356W        W42027   8.461  33.786   2.745
70357W        W42028  44.095   2.209   3.145
70358W        W42029  15.532  10.084  11.510
70359W        W42030  11.194  34.898   1.424
70360W        W42031  41.795  43.739   3.171
70361W        W42032  18.967  15.710   4.455
70362W        W42033  41.076   4.276  11.033
70363W        W42034  25.802   7.952  11.188
70364W        W42035  39.715  21.039  12.589
70365W        W42036   2.737  30.877   1.871
70366W        W42037   0.199  42.588  14.683
70367W        W42038  29.376  11.242  12.923
70368W        W42039  25.769  32.384   3.446
70369W        W42040  21.754   8.587   4.844
70370W        W42041   8.827  23.610  10.566
70371W        W42042  41.257  16.812   4.011
70372W        W42043  23.448   4.746   0.768
70373W        W42044  17.515  25.391   0.377
70374W        W42045  31.932  21.819   4.548
70375W        W42046  12.445   6.193  12.145
70376W        W42047  36.985   1.790  13.594
70377W        W42048   0.396   1.337  13.630
70378W        W42049   0.372  22.777  14.366
70379W        W42050  12.262  42.906  13.793
70380W        W42051  16.041  39.470   1.815
70381W        W42052   8.730  14.734   1.877
70382W        W42053  21.079  21.477   1.616
70383W        W42054  14.457  43.222   1.223
70384W        W42055  18.633  15.296   4.571
70385W        W42056  18.932  44.980   2.179
70386W        W42057  39.073  25.981  12.267
70387W        W42058   3.330  40.339   1.095
70388W        W42059  38.389  26.928   1.249
70389W        W42060  15.028  13.544  12.708
70390W        W42061  19.711  32.088  10.607
70391W        W42062   6.699  36.847   3.218
70392W        W42063   5.487  25.700   1.241
70393W        W42064   8.320  44.347   0.302
70394W        W42065  15.593  18.178  10.683
70395W        W42066  21.694  18.572   2.442
70396W        W42067   7.096  19.569   0.498
70397W        W42068  23.049  19.561  11.501
70398W        W42069  30.574  40.598   4.667
70399W        W42070  32.403  23.082  11.298
70400W        W42071  31.696  37.930   3.737
70401W        W42072   6.881  41.794  14.983
70402W        W42073  16.512  25.476   2.873
70403W        W42074  14.135  17.188   0.669
70404W        W42075  14.163  29.607  12.582
70405W        W42076   9.322   8.445  13.293
70406W        W42077  42.427  17.588   3.359
70407W        W42078  11.143   7.774   4.547
70408W        W42079  30.874  19.173   4.739
70409W        W42080  40.605   4.781  14.796
70410W        W42081   1.064  22.529  10.562
70411W        W42082  18.761  11.420   1.150
70412W        W42083  22.686  37.394   1.033
70413W        W42084   8.693  29.874  10.732
70414W        W42085   6.948   8.685  14.810
70415W        W42086  17.232  23.266  10.954
70416W        W42087   3.929  28.077   3.589
70417W        W42088  15.004   4.671  10.428
70418W        W42089  32.130  20.994  12.829
70419W        W42090  32.201  31.306  11.903
70420W        W42091  32.669  37.378  12.056
70421W        W42092   6.266  10.666  12.463
70422W        W42093  23.983  40.727   5.022
70423W        W42094  24.927  27.762   3.708
70424W        W42095   6.194  14.277  14.811
70425W        W42096  17.235  25.078  11.231
70426W        W42097  19.292  10.337   3.257
70427W        W42098  23.253  43.435   3.983
70428W        W42099  42.616  33.143   3.707
70429W        W42100  21.282   3.688  12.507
70430W        W42101  41.696   4.783  11.520
70431W        W42102  11.269   0.762   2.843
70432W        W42103   4.974  32.477   5.147
70433W        W42104  22.724  13.222   1.831
70434W        W42105   9.483  30.248  10.418
70435W        W42106  31.483   0.969  13.092
70436W        W42107  24.091  16.945  14.534
70437W        W42108  35.335  35.518   3.575
70438W        W42109  24.053   3.138   0.299
70439W        W42110  16.725   9.343  12.094
70440W        W42111  36.840  19.603  12.130
70441W        W42112  33.156  14.188   1.756
70442W        W42113  22.021   3.127   0.811
70443W        W42114   1.781   0.308  12.156
70444W        W42115  37.081  39.562  11.444
70445W        W42116  12.840  14.914  12.108
70446W        W42117  32.573  17.096   2.226
70447W        W42118   6.764  18.826   0.991
70448W        W42119  38.809  19.824  11.129
70449W        W42120  22.348  44.283  12.966
70450W        W42121  11.109  22.753  13.721
70451W        W42122  37.908  24.655  11.643
70452W        W42123  11.788  22.217   0.003
70453W        W42124  29.654  44.107   0.440
70454W        W42125  17.618  40.485   2.884
70455W        W42126  34.544  23.120  10.720
70456W        W42127  22.125   2.794   2.687
70457W        W42128   3.292   6.694  12.354
70458W        W42129  15.052   7.361   1.210
70459W        W42130  41.454  10.673   3.660
70460W        W42131   6.906   0.567  10.193
70461W        W42132  37.396   6.396  13.009
70462W        W42133  28.481  22.211  13.996
70463W        W42134   6.724  39.339   3.102
70464W        W42135   2.747  40.777  12.468
70465W        W42136   6.753  44.678   4.752
70466W        W42137  12.810  14.157   4.749
70467W        W42138  28.461   8.309  14.248
70468W        W42139  13.544  33.325   4.715
70469W        W42140  38.325  38.276  13.862
70470W        W42141  29.926   0.259   4.053
70471W        W42142  23.555   4.261   1.770
70472W        W42143  15.780  26.157   3.119
70473W        W42144  37.177  31.844   0.747
70474W        W42145  25.994  19.696  13.036
70475W        W42146   2.269  19.929   0.301
70476W        W42147  44.502  18.614   5.109
70477W        W42148  23.261  23.607   4.601
70478W        W42149  11.624   3.563   4.976
70479W        W42150  29.365  44.497  13.528
70480W        W42151  28.483  31.946  12.017
70481W        W42152   0.998  30.261  12.518
70482W        W42153  15.203  24.827  12.563
70483W        W42154   9.881   4.431  12.968
70484W        W42155  16.076  36.461  11.598
70485W        W42156  41.067  31.350   4.027
70486W        W42157  28.875  18.316   2.228
70487W        W42158  10.363  30.612   3.715
70488W        W42159  25.552  14.102   4.679
70489W        W42160  32.439  43.947  14.967
70490W        W42161  41.411  30.502   0.072
70491W        W42162   9.890  10.927  12.996
70492W        W42163  26.678   4.512  12.288
70493W        W42164   2.383  33.747  13.141
70494W        W42165   4.917  20.913   3.277
70495W        W42166  40.024  16.017  13.878
70496W        W42167   0.490  13.302  12.204
70497W        W42168   0.361  36.822   2.141
70498W        W42169  34.828  42.341  14.854
70499W        W42170   7.089  33.983  13.474
70500W        W42171  26.771  20.919   3.717
70501W        W42172  22.823  19.526  11.970
70502W        W42173   6.205  44.290  14.713
70503W        W42174   9.715   5.156   0.796
70504W        W42175   6.348   7.156   3.339
70505W        W42176  39.302   2.474   1.048
70506W        W42177  26.737   1.189   2.755
70507W        W42178  24.200  20.529  13.474
70508W        W42179  38.900  44.525  10.669
70509W        W42180  29.736  14.922  13.890
70510W        W42181  21.266  28.262   1.713
70511W        W42182   8.516   0.292   4.423
70512W        W42183  15.895   5.916  12.186
70513W        W42184  10.328  32.938  10.785
70514W        W42185  28.152  23.117  10.115
70515W        W42186  24.926  42.991   1.388
70516W        W42187  20.356   8.551   0.375
70517W        W42188  43.243  29.204  11.314
70518W        W42189  42.002  14.590  10.633
70519W        W42190  15.526  19.097  13.926
70520W        W42191  16.044  22.507   4.246
70521W        W42192  14.708  40.318  11.916
70522W        W42193  32.732  19.869   4.521
70523W        W42194   7.172   2.734  14.371
70524W        W42195  24.935  25.209   2.448
70525W        W42196  27.183  19.277  12.604
70526W        W42197  29.032   0.187   3.661
70527W        W42198  10.454   5.387  11.520
70528W        W42199  12.231   7.833   3.175
70529W        W42200  16.473   1.261   0.744
70530W        W42201  26.284  32.942   1.869
70531W        W42202  12.051  35.601  10.893
70532W        W42203  31.308  41.949   4.747
70533W        W42204  22.490  28.553   0.858
70534W        W42205  10.343   4.706   3.575
70535W        W42206  31.463  33.143  13.819
70536W        W42207  27.104  17.681   0.812
70537W        W42208  22.697  43.063  14.893
70538W        W42209  18.408  36.284   0.119
70539W        W42210  41.520   4.315   1.765
70540W        W42211  38.854   2.904   1.645
70541W        W42212  41.806  14.147   3.631
70542W        W42213  16.709   9.925  12.992
70543W        W42214   5.179  12.150   3.650
70544W        W42215  33.811   4.892   4.051
70545W        W42216  20.853  35.129   0.708
70546W        W42217  10.178   9.150   2.848
70547W        W42218   5.281  40.516   3.862
70548W        W42219   7.237   1.237  12.932
70549W        W42220   4.083  23.523  12.858
70550W        W42221  37.377  39.654   5.513
70551W        W42222  17.985  16.278   2.236
70552W        W42223  41.996  14.683  13.958
70553W        W42224  14.757   4.768  12.963
70554W        W42225  32.035   7.179  14.411
70555W        W42226  19.851  42.370  14.709
70556W        W42227  27.009  12.339  12.919
70557W        W42228   0.255  27.066  10.787
70558W        W42229   8.832  11.898   3.232
70559W        W42230  29.493  20.589   0.751
70560W        W42231  24.557  30.452  14.464
70561W        W42232  12.668  32.600   2.275
70562W        W42233  12.909  17.526   1.828
70563W        W42234  19.358  34.876   4.576
70564W        W42235  19.666  33.070  12.845
70565W        W42236  11.655  28.059  14.427
70566W        W42237  41.391  19.610  12.923
70567W        W42238  19.318  23.522  10.301
70568W        W42239  23.269  32.092  11.482
70569W        W42240  29.398  12.906   0.697
70570W        W42241  37.869  12.908   5.059
70571W        W42242   8.608  12.280   0.265
70572W        W42243  40.424  38.721  12.039
70573W        W42244  22.298  11.702   3.973
70574W        W42245  44.910  38.467   3.375
70575W        W42246  26.457  25.465  13.806
70576W        W42247  35.408  21.746  13.801
70577W        W42248  33.985  21.390  10.727
70578W        W42249  29.339  31.671  14.422
70579W        W42250  21.606  43.232   2.829
70580W        W42251  37.871  41.438   1.528
70581W        W42252   4.686  26.864  11.428
70582W        W42253  10.917   2.991  11.183
70583W        W42254  34.669  41.034  14.394
70584W        W42255  10.464   0.254   2.281
70585W        W42256  18.759  44.761   4.043
70586W        W42257  29.236  25.584   2.288
70587W        W42258  13.157  33.010   1.370
70588W        W42259  32.391  41.083   3.692
70589W        W42260   6.901  43.908   0.685
70590W        W42261  11.659  30.308  12.436
70591W        W42262  38.818  26.587   3.779
70592W        W42263   4.940  36.775  14.868
70593W        W42264  38.373  20.958   1.667
70594W        W42265   5.736  19.568   0.790
70595W        W42266  42.202  15.548  12.391
70596W        W42267  33.379  18.164   0.274
70597W        W42268  19.056  32.303  14.037
70598W        W42269   8.136  11.593   4.384
70599W        W42270  43.877  27.932  14.563
70600W        W42271  16.769  31.780  12.067
70601W        W42272  35.585  37.293   9.807
70602W        W42273  27.992  42.821   3.415
70603W        W42274  17.081  31.546  12.535
70604W        W42275   2.227  13.191   4.761
70605W        W42276   7.257  18.783  11.618
70606W        W42277  17.110  43.669   3.286
70607W        W42278  29.222   9.281   4.968
70608W        W42279  31.337  36.551   1.263
70609W        W42280  11.175  32.394  11.519
70610W        W42281  22.663  38.890  11.388
70611W        W42282  35.026  33.714  10.826
70612W        W42283  42.357  21.456  14.492
70613W        W42284  12.818  19.867   1.764
70614W        W42285  42.943  23.008  14.545
70615W        W42286  38.817  43.049  11.642
70616W        W42287  30.123  29.552   4.195
70617W        W42288   9.694  31.567   4.078
70618W        W42289  35.122  26.988  13.489
70619W        W42290  43.926  27.628  11.490
70620W        W42291  20.526  37.527   0.975
70621W        W42292  29.012   2.842   3.159
70622W        W42293  26.553  30.556  11.906
70623W        W42294  16.580  43.306   0.451
70624W        W42295  42.912  34.957  10.732
70625W        W42296  18.795  36.494   0.399
70626W        W42297  34.542  41.933  14.983
70627W        W42298  18.698   8.599  11.911
70628W        W42299  14.847  17.607  14.056
70629W        W42300   7.300  42.520  12.456
70630W        W42301   4.874  29.442   1.245
70631W        W42302  23.690  28.089  14.782
70632W        W42303  38.463  12.463   2.657
70633W        W42304  25.565  11.235   1.761
70634W        W42305  29.509  24.005   0.684
70635W        W42306  37.470  31.135  11.563
70636W        W42307  31.402   2.262  12.453
70637W        W42308  44.814  17.858  13.498
70638W        W42309  31.652  39.840   2.250
70639W        W42310   6.833  17.628  13.022
70640W        W42311  15.314  26.056  10.685
70641W        W42312  15.756  19.194  12.581
70642W        W42313  43.908  23.158  10.222
70643W        W42314  11.932  38.074   2.599
70644W        W42315  22.948  40.993   9.847
70645W        W42316   6.359  14.657   2.884
70646W        W42317  41.835  28.210  11.621
70647W        W42318   2.361  41.305   3.410
70648W        W42319  17.981  44.297  13.333
70649W        W42320  28.950  12.686  10.892
70650W        W42321  14.583  10.859   1.856
70651W        W42322  21.881  28.846   3.293
70652W        W42323  19.404  32.554   2.764
70653W        W42324  37.100  42.329  14.770
70654W        W42325  44.060   5.992   1.226
70655W        W42326  24.574   0.599   0.866
70656W        W42327  21.006  14.929   0.386
70657W        W42328  33.507   2.408   2.804
70658W        W42329  27.571  40.846  14.907
70659W        W42330  43.935  11.758  11.601
70660W        W42331   7.606  11.888  13.587
70661W        W42332  38.923  20.800  14.921
70662W        W42333   0.374  21.245   2.580
70663W        W42334  34.824  26.674  12.572
70664W        W42335  24.809  42.049   4.888
70665W        W42336  27.271  44.013  11.651
70666W        W42337   4.466  38.658  10.469
70667W        W42338  29.148  21.996   3.199
70668W        W42339  35.755  34.916   4.481
70669W        W42340  39.329  26.058   0.223
70670W        W42341  29.262  13.141   2.373
70671W        W42342  16.496   8.234   1.635
70672W        W42343  23.666   1.983   4.740
70673W        W42344  30.860  31.268   2.642
70674W        W42345  15.867  24.446   0.977
70675W        W42346   2.539   3.437  11.710
70676W        W42347  23.067   7.558   0.210
70677W        W42348  41.914  11.822  12.196
70678W        W42349   9.260   9.239  12.918
70679W        W42350  20.772  35.887  12.550
70680W        W42351   4.867  21.778  10.915
70681W        W42352  28.249  44.791   0.358
70682W        W42353   3.411  32.359  12.560
70683W        W42354  33.216   7.793  12.084
70684W        W42355  23.296  41.491  11.214
70685W        W42356  11.710  40.821  12.524
70686W        W42357  14.772   0.008   0.802
70687W        W42358   3.679  27.213   3.717
70688W        W42359  41.834  35.299   2.177
70689W        W42360  12.849   2.702  12.420
70690W        W42361   0.225  23.961   2.690
70691W        W42362  33.019   0.300  14.306
70692W        W42363  28.880  13.660  13.250
70693W        W42364  13.386  15.316  12.656
70694W        W42365   0.347  30.013  11.305
70695W        W42366  28.056  28.186   2.749
70696W        W42367  43.947  16.381  11.222
70697W        W42368  31.551  20.158   1.278
70698W        W42369  15.175   3.222   4.511
70699W        W42370   2.732  12.775  12.970
70700W        W42371  20.568  25.335   4.461
70701W        W42372  18.571  15.352   3.140
70702W        W42373  30.433  41.914   2.417
70703W        W42374  41.993  30.296  10.769
70704W        W42375  33.150   5.348  13.006
70705W        W42376   9.990  34.500  14.467
70706W        W42377   4.122   3.643   2.497
70707W        W42378  10.298  32.327   4.430
70708W        W42379  30.450  36.425   2.395
70709W        W42380  39.883  44.715  14.037
70710W        W42381   1.783  12.217   1.853
70711W        W42382  10.629  12.597   0.763
70712W        W42383  15.325  18.566  11.603
70713W        W42384  23.009   8.428   3.757
70714W        W42385  37.900  44.836   0.836
70715W        W42386  41.876  26.580  14.999
70716W        W42387  30.137  40.472   4.950
70717W        W42388  29.187  42.865  10.389
70718W        W42389  39.837  10.220   1.494
70719W        W42390  14.644  24.714   4.148
70720W        W42391  13.150  26.594  13.760
70721W        W42392   7.551  20.536   3.923
70722W        W42393  10.601   8.644   2.262
70723W        W42394  26.074  28.538   0.769
70724W        W42395   0.415  13.563   5.548
70725W        W42396   5.414  44.179   0.336
70726W        W42397  28.386   1.721  13.637
70727W        W42398  43.720  35.964  14.288
70728W        W42399  36.995  13.895   4.211
70729W        W42400  13.871  14.258  10.954
70730W        W42401  11.438  39.870   3.126
70731W        W42402  43.006  32.211  12.658
70732W        W42403  40.398   0.341   3.048
70733W        W42404  22.673  10.680   1.387
70734W        W42405  42.758  41.216   4.796
70735W        W42406   2.366  22.630  10.447
70736W        W42407  29.829  38.794   0.329
70737W        W42408  19.951   9.770   3.375
70738W        W42409  32.123  24.604  14.808
70739W        W42410  14.295  16.230   0.253
70740W        W42411  41.773   1.345   3.663
70741W        W42412  22.664  16.330   0.870
70742W        W42413  19.208  21.454   1.704
70743W        W42414  44.364  31.964  10.722
70744W        W42415  40.418   4.178   4.395
70745W        W42416  15.783   9.747  11.063
70746W        W42417  13.120   5.208   3.363
70747W        W42418  16.087  21.980   4.107
70748W        W42419  28.214  26.613  13.310
70749W        W42420  24.984   9.940   0.918
70750W        W42421  36.849   9.837  12.334
70751W        W42422  35.374  12.282  11.548
70752W        W42423  39.958  35.286  12.474
70753W        W42424  21.679   4.755  13.309
70754W        W42425  42.827  16.999  13.349
70755W        W42426   9.048   2.436  12.593
70756W        W42427  35.114   8.377  10.318
70757W        W42428  36.563   1.220   5.032
70758W        W42429   2.230  14.116   4.709
70759W        W42430   5.100  22.646  11.641
70760W        W42431  37.561  25.945  11.102
70761W        W42432  31.397  31.579   1.299
70762W        W42433  30.346  34.371   3.943
70763W        W42434  14.611  36.724   0.626
70764W        W42435  35.013  34.632   2.988
70765W        W42436   6.160  14.279   5.076
70766W        W42437  39.395  18.678  12.114
70767W        W42438  34.634  14.815   0.864
70768W        W42439  43.061   6.752   2.155
70769W        W42440  39.808   1.970  14.513
70770W        W42441  25.459  26.429  14.956
70771W        W42442   4.301  41.333  11.053
70772W        W42443  25.156  43.756   1.835
70773W        W42444  19.863   9.750  11.163
70774W        W42445  28.391  30.387  12.224
70775W        W42446  19.190  31.708  12.007
70776W        W42447  26.340  30.978  14.591
70777W        W42448  13.127  39.345  12.029
70778W        W42449  33.208  18.647  12.553
70779W        W42450  30.892  11.786   3.058
70780W        W42451  19.014  44.350   4.574
70781W        W42452  32.659  42.980   3.868
70782W        W42453  42.561   8.465   0.311
70783W        W42454   3.132   8.181   0.682
70784W        W42455   8.400  18.076  14.079
70785W        W42456  30.174  26.750   0.042
70786W        W42457  44.442   3.136   4.148
70787W        W42458  34.058  37.775   2.789
70788W        W42459  25.160   9.855   3.105
70789W        W42460  16.162  34.149  12.827
70790W        W42461  31.578  25.128   4.199
70791W        W42462  30.862  42.841   2.799
70792W        W42463  14.714  44.429   1.670
70793W        W42464  25.408  35.257   1.747
70794W        W42465  21.981  38.049  11.586
70795W        W42466   1.398  25.919   1.429
70796W        W42467  28.320  37.537   2.531
70797W        W42468  20.950  37.251  12.923
70798W        W42469   0.151  35.484  13.494
70799W        W42470  43.266  21.718  13.061
70800W        W42471   2.791  26.965   0.852
70801W        W42472   2.502   8.807  13.842
70802W        W42473   5.094  40.531   1.288
70803W        W42474  34.507  17.836   0.521
70804W        W42475  21.709  38.315   0.017
70805W        W42476   0.397  26.588   2.176
70806W        W42477   6.183   0.383  13.933
70807W        W42478  42.286  27.232  14.440
70808W        W42479  27.470   9.115   0.288
70809W        W42480   1.179  13.905  12.020
70810W        W42481  21.493  32.362   4.148
70811W        W42482  37.483   3.879   4.384
70812W        W42483  13.049  31.876  13.356
70813W        W42484  21.749  18.120  12.901
70814W        W42485  37.882  24.216  11.921
70815W        W42486   5.415  13.658  14.983
70816W        W42487  29.205  30.134  10.947
70817W        W42488  21.450  13.467   2.008
70818W        W42489  35.058  19.102  13.865
70819W        W42490  40.924  24.304   0.315
70820W        W42491  16.293  26.312  10.183
70821W        W42492   3.949  37.092  11.567
70822W        W42493  18.049  32.619   0.305
70823W        W42494  22.536   1.061   4.230
70824W        W42495  26.934  18.006   1.547
70825W        W42496  27.044  18.150   1.046
70826W        W42497   5.177  41.524   2.394
70827W        W42498   3.848  42.290   4.555
70828W        W42499   3.269  36.997   2.799
70829W        W42500  30.501  29.952   0.744
70830W        W42501   9.169  39.310  11.493
70831W        W42502  16.128  43.580  14.147
70832W        W42503  41.224  25.986   2.714
70833W        W42504  16.281   3.619   5.009
70834W        W42505  12.720  44.281   4.049
70835W        W42506  31.559  37.818  10.535
70836W        W42507   9.260  41.398   2.360
70837W        W42508  12.351  11.771   1.364
70838W        W42509   4.945  14.516   2.827
70839W        W42510  31.154  25.099   1.231
70840W        W42511  28.922  37.553  11.090
70841W        W42512  35.936   8.218  14.448
70842W        W42513   6.687  31.203  11.963
70843W        W42514  30.690  11.113  14.308
70844W        W42515   8.160  24.128  12.026
70845W        W42516   5.835   8.604   2.234
70846W        W42517   6.656  20.858  14.511
70847W        W42518  36.320  37.090   0.734
70848W        W42519   8.920   2.221  13.460
70849W        W42520   4.840  34.531   2.761
70850W        W42521  44.845  37.370  10.680
70851W        W42522  41.326   2.717  12.997
70852W        W42523   2.927   8.347  10.723
70853W        W42524  40.914  36.789   3.290
70854W        W42525   2.417   3.903   3.495
70855W        W42526  35.617   2.113   1.604
70856W        W42527  12.800  39.752  12.105
70857W        W42528  24.372   2.818  11.595
70858W        W42529  34.091  30.661  11.968
70859W        W42530  27.172   2.932   4.579
70860W        W42531  12.282  10.797   1.359
70861W        W42532  40.905  30.960  10.764
70862W        W42533  36.433   8.416  12.954
70863W        W42534  39.224  29.010  14.392
70864W        W42535   0.212  39.619   4.640
70865W        W42536  18.174  26.394   2.223
70866W        W42537  38.195   7.510   3.661
70867W        W42538  20.621  27.810   4.659
70868W        W42539  22.195   0.353   4.321
70869W        W42540  27.149  17.492  12.876
70870W        W42541  13.652  28.595  14.681
70871W        W42542  44.061  25.712   2.092
70872W        W42543  32.925   0.465  11.032
70873W        W42544   9.682  42.442  11.375
70874W        W42545  16.245   5.957  11.599
70875W        W42546  18.012  16.291  13.898
70876W        W42547  28.043   2.697  14.470
70877W        W42548  34.714  31.702   2.368
70878W        W42549  16.431  34.632  13.780
70879W        W42550   5.889  43.007  10.518
70880W        W42551  38.828  10.170   1.262
70881W        W42552  30.706  16.613  11.158
70882W        W42553  33.048  22.227  13.641
70883W        W42554  19.193  11.730  12.141
70884W        W42555  32.637  15.730   4.814
70885W        W42556  44.807  39.560  11.565
70886W        W42557  25.979  34.838  13.386
70887W        W42558   6.802  40.276   2.903
70888W        W42559  38.163  37.349   3.754
70889W        W42560   2.482  21.465   0.360
70890W        W42561  41.821   9.568   2.370
70891W        W42562  38.120  22.274   4.127
70892W        W42563  12.796  21.394   4.753
70893W        W42564  27.901  41.309   4.408
70894W        W42565  13.814   2.183   4.142
70895W        W42566  12.096  19.784   2.367
70896W        W42567  11.432  42.513  10.860
70897W        W42568   0.728  12.255   1.807
70898W        W42569  32.402  34.063  14.377
70899W        W42570   8.847   8.636  12.510
70900W        W42571  44.493  13.664   4.993
70901W        W42572  23.814  28.508  13.245
70902W        W42573  38.066  24.999   4.548
70903W        W42574   8.364   9.343  14.416
70904W        W42575  14.533  19.513   1.802
70905W        W42576   1.276  34.012  12.341
70906W        W42577  43.552  40.508   2.740
70907W        W42578  11.654   1.141  12.536
70908W        W42579  43.969   0.514   4.838
70909W        W42580  39.932  30.038  11.867
70910W        W42581  14.616  44.596   5.143
70911W        W42582  22.810  35.644  13.717
70912W        W42583   7.837  18.189   0.956
70913W        W42584  40.780  33.579   3.724
70914W        W42585  37.926   5.272  12.069
70915W        W42586  21.751  25.299   1.853
70916W        W42587  15.878  34.959   5.045
70917W        W42588  31.340  34.119  11.599
70918W        W42589  43.949  19.205   1.262
70919W        W42590  39.298  44.424   1.994
70920W        W42591  30.994  25.173   4.754
70921W        W42592  25.598  40.336  14.979
70922W        W42593   8.773  40.762  10.688
70923W        W42594  18.838  29.452  14.386
70924W        W42595   9.700  17.135  12.637
70925W        W42596  33.909  18.091   4.852
70926W        W42597  15.921  39.478  12.015
70927W        W42598  20.186  38.282   2.103
70928W        W42599  33.848  17.245  10.370
70929W        W42600  17.088  24.164   3.658
70930W        W42601   7.302  26.249   2.311
70931W        W42602  39.497  36.491  13.141
70932W        W42603  17.625  16.413   1.801
70933W        W42604  41.191   0.989   0.945
70934W        W42605  42.372  23.057  12.903
70935W        W42606  24.085  44.367  12.575
70936W        W42607  34.536  31.112  13.913
70937W        W42608  35.609  36.497   3.699
70938W        W42609  27.840   2.442   4.129
70939W        W42610  19.316  25.735   3.392
70940W        W42611  41.491   3.844   4.683
70941W        W42612  30.940   6.295   2.835
70942W        W42613  11.001   5.967   0.050
70943W        W42614  32.076  27.560   0.361
70944W        W42615   3.778  21.511   4.152
70945W        W42616  10.339  17.758   1.667
70946W        W42617  37.644  27.691  12.488
70947W        W42618  16.504   3.640  13.128
70948W        W42619  39.871  44.771   0.970
70949W        W42620  19.597  26.163   3.308
70950W        W42621  42.480  40.598  11.942
70951W        W42622  11.081  24.645   4.667
70952W        W42623  11.202   6.794   1.626
70953W        W42624   5.936  32.742   4.147
70954W        W42625  24.738  11.217   3.438
70955W        W42626  30.552   1.366  13.114
70956W        W42627   0.602   8.141  12.103
70957W        W42628   4.448  30.032  14.999
70958W        W42629  16.353  23.120   4.344
70959W        W42630  10.932  11.302   4.753
70960W        W42631  34.341  39.396   3.025
70961W        W42632  31.787  37.040   2.279
70962W        W42633  28.080   4.150   2.739
70963W        W42634  26.657  41.828   4.280
70964W        W42635  31.769  19.775  12.411
70965W        W42636   7.386  42.490  11.062
70966W        W42637   9.727  29.377   3.099
70967W        W42638   2.015  24.693  12.146
70968W        W42639  37.007   3.730   2.944
70969W        W42640   2.781  10.514  10.140
70970W        W42641  22.198   4.825  13.312
70971W        W42642  16.225  28.029   2.870
70972W        W42643  29.652  42.513   1.728
70973W        W42644  36.648   7.982   4.180
70974W        W42645  23.079  23.160   3.570
70975W        W42646  42.462   7.341   3.725
70976W        W42647   5.464  18.673   4.444
70977W        W42648  22.596  44.084   2.568
70978W        W42649   8.143   9.372   4.500
70979W        W42650  43.057  11.203  14.805
70980W        W42651  13.826  15.971  12.912
70981W        W42652   6.861   5.229   3.126
70982W        W42653  27.000  28.150   3.441
70983W        W42654  19.181   3.206  10.786
70984W        W42655  36.399  44.317   1.721
70985W        W42656  33.891   7.697  13.517
70986W        W42657   9.108  40.123  13.551
70987W        W42658   0.418  40.062   1.350
70988W        W42659  34.636  41.306  13.787
70989W        W42660  32.851  26.938   4.095
70990W        W42661  27.952  21.150  13.871
70991W        W42662  41.707  40.994  11.954
70992W        W42663  25.476  44.039  11.586
70993W        W42664  20.302  38.774   2.010
70994W        W42665  31.438  31.598   2.796
70995W        W42666  11.369  19.538   1.760
70996W        W42667  38.116  11.469   2.790
70997W        W42668  20.094  25.834   1.378
70998W        W42669  39.874  11.273  13.024
70999W        W42670   0.766  15.401  12.118
71000W        W42671   0.933   1.208   2.417
71001W        W42672  21.110  24.076   9.949
71002W        W42673  36.878  21.072   3.936
71003W        W42674  13.867  30.945  12.874
71004W        W42675  11.719  31.096  11.653
71005W        W42676   9.750   1.297   0.808
71006W        W42677  38.758  30.968   0.811
71007W        W42678  11.453  35.750  12.770
71008W        W42679   0.438  40.582   1.276
71009W        W42680  15.245  32.865   5.033
71010W        W42681  29.468  10.475   0.227
71011W        W42682   9.250  14.753  10.493
71012W        W42683  20.532  24.306  12.644
71013W        W42684  30.632  14.124  13.394
71014W        W42685  35.995  33.099  13.068
71015W        W42686  36.456   8.727  13.351
71016W        W42687  40.615  44.680  12.294
71017W        W42688  27.494  14.111   4.088
71018W        W42689   9.434  12.710  14.232
71019W        W42690  27.303   6.377   0.487
71020W        W42691   4.459  22.503  14.673
71021W        W42692  35.108   3.915   3.603
71022W        W42693   9.368  20.188   1.859
71023W        W42694  18.663  35.406  13.328
71024W        W42695   3.622   1.887  13.043
71025W        W42696  34.369   4.536   0.692
71026W        W42697  21.036  38.283   0.744
71027W        W42698  20.496  13.217   1.023
71028W        W42699   7.344  41.710   3.120
71029W        W42700  14.631  39.325   3.688
71030W        W42701   2.220  32.121   2.809
71031W        W42702  20.828  24.517  13.984
71032W        W42703  26.959  22.673   3.346
71033W        W42704  35.936  18.806   2.174
71034W        W42705   8.346   2.385  11.273
71035W        W42706  11.646  30.203   3.231
71036W        W42707  23.968  33.256  11.202
71037W        W42708  10.922  18.383  10.835
71038W        W42709  16.397  31.952  10.618
71039W        W42710  30.134   5.497   3.860
71040W        W42711  42.490   8.339  11.403
71041W        W42712  11.341  14.424   2.100
71042W        W42713   9.316  39.053  11.936
71043W        W42714   2.681  20.710   5.199
71044W        W42715  28.297  22.579  14.998
71045W        W42716  14.513   3.489   2.295
71046W        W42717   0.883  38.530   3.418
71047W        W42718  31.239  11.604  12.062
71048W        W42719  18.099  24.180   5.043
71049W        W42720  26.876  31.951  13.888
71050W        W42721   7.234  24.588   1.657
71051W        W42722  35.643  38.002   0.431
71052W        W42723  22.496  28.487   9.952
71053W        W42724  26.811  12.981   2.148
71054W        W42725  37.479  17.051   3.583
71055W        W42726  19.930   7.887   3.747
71056W        W42727   5.459   1.985   2.746
71057W        W42728  40.670  11.701   3.295
71058W        W42729  42.218  37.450   0.521
71059W        W42730  30.788  38.942  10.669
71060W        W42731  41.921   0.011   3.990
71061W        W42732  33.849  13.761  10.449
71062W        W42733   5.920  32.371   2.454
71063W        W42734  10.444   3.912   0.096
71064W        W42735  29.512   7.857   1.315
71065W        W42736  21.782  25.271   4.169
71066W        W42737  11.361  38.113  13.024
71067W        W42738  20.147  29.328   2.236
71068W        W42739   2.366  41.949   1.740
71069W        W42740  28.366  43.742   1.367
71070W        W42741   8.098  39.056  13.090
71071W        W42742  41.762  27.595  10.744
71072W        W42743  28.646  26.756   3.149
71073W        W42744  40.056  18.109   4.962
71074W        W42745  40.227  27.641   0.264
71075W        W42746  12.219  14.585   2.569
71076W        W42747  21.265  28.069   0.313
71077W        W42748  19.169  37.749   1.894
71078W        W42749  10.174   0.237   1.815
71079W        W42750  37.880   1.289  14.337
71080W        W42751  38.460   2.251  11.163
71081W        W42752  39.607  16.246   0.080
71082W        W42753  42.940  27.812   0.436
71083W        W42754  28.085   4.161  14.547
71084W        W42755  30.638  30.375  12.417
71085W        W42756   5.646  20.715  13.736
71086W        W42757  27.363   8.605   0.340
71087W        W42758   0.889  40.326  14.337
71088W        W42759  18.326  10.731  14.596
71089W        W42760  42.513  42.626  12.718
71090W        W42761  21.248  31.116  14.030
71091W        W42762  44.598   8.887  12.390
71092W        W42763  40.951  20.159   2.335
71093W        W42764  12.187  37.312  13.708
71094W        W42765  15.606  38.851   2.307
71095W        W42766  44.397  17.982   3.765
71096W        W42767  26.636   3.236  10.764
71097W        W42768   9.665  33.861   2.133
71098W        W42769  43.045   0.097  13.329
71099W        W42770   9.195  25.685   2.654
71100W        W42771   9.097  32.961   1.987
71101W        W42772  37.415  36.130   5.030
71102W        W42773  36.877  16.467  13.824
71103W        W42774  39.647  39.216   1.349
71104W        W42775  30.105   2.266   0.741
71105W        W42776  44.813  44.322  10.606
71106W        W42777   7.905   0.702   2.297
71107W        W42778  32.153  43.079   1.938
71108W        W42779  38.240  12.801   3.147
71109W        W42780   1.255  35.175  14.902
71110W        W42781  40.719  12.113  14.976
71111W        W42782   8.708  12.579  10.486
71112W        W42783   0.220  30.147  12.150
71113W        W42784  15.755  42.349   3.629
71114W        W42785   7.893  15.230   1.686
71115W        W42786  29.487  30.647  10.873
71116W        W42787  35.020  34.467  14.723
71117W        W42788  25.054   4.245   3.850
71118W        W42789  20.456  26.529  11.648
71119W        W42790   2.075  25.889   2.319
71120W        W42791  43.581   9.876  14.544
71121W        W42792   8.245   4.737  13.671
71122W        W42793  11.398  11.242   1.628
71123W        W42794  28.540   9.628  10.285
71124W        W42795  10.174  30.881   4.553
71125W        W42796  43.369  13.101   3.269
71126W        W42797  12.090  20.615  11.578
71127W        W42798  13.383  19.765  10.858
71128W        W42799  37.291   8.693  12.036
71129W        W42800  21.524  25.918  13.063
71130W        W42801  41.409  14.153   1.395
71131W        W42802  22.262   1.434   4.443
71132W        W42803  24.502  10.627   1.150
71133W        W42804  35.897  16.298   2.415
71134W        W42805   0.724   9.013  14.359
71135W        W42806   7.635  18.966  14.893
71136W        W42807  40.617  39.761  13.733
71137W        W42808   9.777  15.496   1.891
71138W        W42809  22.575  34.890  14.888
71139W        W42810  44.488  29.247   1.384
71140W        W42811  10.427   8.290   4.089
71141W        W42812  43.219   6.857  12.253
71142W        W42813  36.601   7.639  12.331
71143W        W42814   4.673  43.250  11.541
71144W        W42815   3.438  43.581  11.898
71145W        W42816  22.464  12.304   1.224
71146W        W42817   5.184  26.457  10.350
71147W        W42818  12.107   9.884   0.367
71148W        W42819  30.044  27.706   4.062
71149W        W42820  41.969  35.649  14.981
71150W        W42821  19.179  16.679   4.055
71151W        W42822  16.246   8.935   4.635
71152W        W42823  30.017  14.543   0.258
71153W        W42824  22.024  16.708  14.063
71154W        W42825  35.727   7.766   2.806
71155W        W42826  13.969  39.057  12.036
71156W        W42827  32.926  13.112  12.138
71157W        W42828  14.135  26.729  12.154
71158W        W42829  22.224  14.244  14.957
71159W        W42830   7.262  20.197  14.910
71160W        W42831   0.620  21.422  12.868
71161W        W42832  33.994  28.608   1.926
71162W        W42833  20.716  24.675   3.566
71163W        W42834   9.204  20.869   3.387
71164W        W42835   6.864  40.744   4.741
71165W        W42836  29.207  20.121  11.828
71166W        W42837  34.897  27.605  10.735
71167W        W42838  26.663  10.800  14.445
71168W        W42839  36.058  26.116   4.784
71169W        W42840  39.999  20.229   2.351
71170W        W42841  44.445   4.262  10.756
71171W        W42842  26.009  17.072  10.633
71172W        W42843  16.022  31.106  12.782
71173W        W42844  12.217  26.613  12.360
71174W        W42845  43.720  38.885   5.077
71175W        W42846  31.425  20.691  12.230
71176W        W42847   0.589  29.980   0.291
71177W        W42848  28.373  40.934   2.338
71178W        W42849  10.316  23.588   1.862
71179W        W42850  23.682  23.076   3.299
71180W        W42851  18.665  15.991   0.051
71181W        W42852  14.232  23.304   1.004
71182W        W42853   7.213   5.858   1.469
71183W        W42854  44.913   2.852   2.395
71184W        W42855   4.841  44.294   0.801
71185W        W42856  22.759   3.391   0.814
71186W        W42857  30.512  32.428   0.493
71187W        W42858   3.280  11.472   4.949
71188W        W42859  22.903   0.294   3.613
71189W        W42860  41.879  24.990  12.106
71190W        W42861  20.775   1.744   1.456
71191W        W42862  20.779   5.276  10.502
71192W        W42863   0.455  20.183  12.450
71193W        W42864   7.717  32.151  10.119
71194W        W42865  34.848  22.943   3.149
71195W        W42866   4.933  35.441  13.384
71196W        W42867  39.891  41.968  11.485
71197W        W42868   3.703   7.818  12.850
71198W        W42869  44.723  40.079   4.503
71199W        W42870  16.656  26.585   3.312
71200W        W42871  41.945   4.821   3.259
71201W        W42872  31.248   7.910  12.193
71202W        W42873  12.886  20.373  12.052
71203W        W42874   4.970  20.217   0.029
71204W        W42875  37.952  39.425  14.895
71205W        W42876  13.196  38.943   0.095
71206W        W42877  17.101   9.829  13.335
71207W        W42878  21.058   6.736  14.351
71208W        W42879  27.249   2.519  11.505
71209W        W42880  17.790  42.879  14.185
71210W        W42881  35.378  11.802   1.510
71211W        W42882  44.679   3.853  10.173
71212W        W42883  41.044  26.732  11.581
71213W        W42884  12.577  16.818  12.428
71214W        W42885  40.894  40.031  12.598
71215W        W42886  33.480  21.281   2.352
71216W        W42887   1.439   6.363   2.931
71217W        W42888   9.644  44.632   1.284
71218W        W42889  17.037  25.457   4.196
71219W        W42890  15.616  39.253  10.558
71220W        W42891  24.502  13.224   1.277
71221W        W42892   1.748  35.008  14.846
71222W        W42893   3.939   0.955  10.541
71223W        W42894   6.369  34.949  11.199
71224W        W42895  35.005  18.582  13.991
71225W        W42896  43.283  26.674  11.975
71226W        W42897  23.949  29.054   1.216
71227W        W42898   9.338  28.998   3.093
71228W        W42899  34.778  44.458   2.853
71229W        W42900  38.842  31.571   3.702
71230W        W42901  21.040  16.886   5.070
71231W        W42902  43.061  38.813  10.064
71232W        W42903  44.185   1.005   1.993
71233W        W42904  33.094  43.251   3.891
71234W        W42905  44.392   5.956  14.278
71235W        W42906  10.246  22.142  14.551
71236W        W42907  35.926  19.072   0.433
71237W        W42908  11.967  44.893  10.950
71238W        W42909  38.106  28.282  14.358
71239W        W42910   1.228  42.732   1.710
71240W        W42911  16.137  41.238   4.227
71241W        W42912  25.313  14.675  12.134
71242W        W42913  15.067  20.332  13.442
71243W        W42914  13.619  20.659   0.713
71244W        W42915  37.425  24.735  14.957
71245W        W42916  22.389  11.868  13.011
71246W        W42917  31.557  21.151  11.080
71247W        W42918   3.267  31.035   0.076
71248W        W42919   2.003   6.871  13.555
71249W        W42920   6.609  32.183  12.095
71250W        W42921  21.265  22.326   0.482
71251W        W42922  36.384  20.009  14.730
71252W        W42923  14.238  26.681   1.905
71253W        W42924  35.574   6.852  11.656
71254W        W42925  21.558  21.962   2.153
71255W        W42926  32.649  20.955   1.358
71256W        W42927  25.928  44.390   2.858
71257W        W42928  30.114  44.437   0.362
71258W        W42929  17.622  28.184   0.662
71259W        W42930  19.791  36.615  12.438
71260W        W42931   5.746  23.213   0.259
71261W        W42932   1.972  19.134   2.262
71262W        W42933  16.156  37.367   3.949
71263W        W42934  16.474  39.388   0.001
71264W        W42935  13.472  27.253   4.405
71265W        W42936  23.066  38.615   2.269
71266W        W42937  12.379  41.802   3.333
71267W        W42938  21.392  44.574  13.333
71268W        W42939  31.596  23.756  12.360
71269W        W42940  11.033  24.277  13.977
71270W        W42941  33.939  26.538   3.146
71271W        W42942  37.404   6.243   4.633
71272W        W42943  17.163  16.579   3.861
71273W        W42944  11.331  36.075  13.161
71274W        W42945  36.452  32.697  12.894
71275W        W42946  10.708  15.196   0.398
71276W        W42947  41.043  24.889  10.578
71277W        W42948   9.508   2.191  12.613
71278W        W42949  12.668  15.591  10.604
71279W        W42950  26.887  25.196   1.152
71280W        W42951  34.018   9.076   1.281
71281W        W42952   6.952  39.896   1.139
71282W        W42953   8.141  19.032  14.861
71283W        W42954  23.126  14.176   1.780
71284W        W42955  36.088   5.695   4.085
71285W        W42956  28.122   9.587  14.703
71286W        W42957  27.601  22.508  14.495
71287W        W42958  30.379  35.301  10.683
71288W        W42959   7.919  21.523  11.163
71289W        W42960   9.214  29.083  13.338
71290W        W42961  43.913   3.090   4.995
71291W        W42962  23.773  14.921  14.079
71292W        W42963  32.968  19.095   4.180
71293W        W42964  13.369  31.950   3.240
71294W        W42965  17.503   6.013  14.497
71295W        W42966  28.619  34.400  12.998
71296W        W42967   0.007   9.104   4.938
71297W        W42968  37.964  40.446   0.687
71298W        W42969  18.592  27.452  12.596
71299W        W42970  29.554  41.937  14.825
71300W        W42971   5.701  35.679  14.877
71301W        W42972  24.061  28.465  14.544
71302W        W42973  19.830   3.007  13.079
71303W        W42974   2.888  41.487   4.140
71304W        W42975  32.979  33.619  14.852
71305W        W42976  34.860  42.934   3.442
71306W        W42977  40.865   3.223  11.101
71307W        W42978  38.653  41.693   1.436
71308W        W42979  39.070   9.094   9.857
71309W        W42980   4.295  13.095  14.779
71310W        W42981  26.050  11.988  13.643
71311W        W42982  39.915  28.693  10.647
71312W        W42983  18.260   2.225  14.969
71313W        W42984  29.994  24.831  12.625
71314W        W42985  29.868  10.829   3.799
71315W        W42986  13.744  42.484  14.913
71316W        W42987   2.748  42.767   3.735
71317W        W42988   2.512   1.977   1.390
71318W        W42989  29.933   5.896  11.167
71319W        W42990  25.701  32.355  12.874
71320W        W42991  10.822  40.736  12.441
71321W        W42992  22.113   0.421  14.728
71322W        W42993   9.307  17.379   1.248
71323W        W42994  31.737  36.391   2.630
71324W        W42995   4.409  34.518   0.490
71325W        W42996   8.074  24.701  12.445
71326W        W42997  10.929   9.464   4.572
71327W        W42998   2.978  33.065  12.447
71328W        W42999  21.620   3.477  13.280
71329W        W43000  27.663  37.540  10.617
71330W        W43001  42.427  31.940  11.024
71331W        W43002   7.456  12.621  10.370
71332W        W43003   8.791  25.212   2.262
71333W        W43004  12.718  36.366  10.754
71334W        W43005  33.112  20.041  13.367
71335W        W43006   2.515  44.470   2.738
71336W        W43007  13.358  13.878   0.252
71337W        W43008  23.807  37.357   2.771
71338W        W43009  14.589  24.197  12.913
71339W        W43010  26.603   7.685   2.424
71340W        W43011   4.361  29.721   3.689
71341W        W43012   0.461  44.918  12.834
71342W        W43013  34.017  28.459  12.599
71343W        W43014   2.393  11.617   4.060
71344W        W43015  29.733   8.712   0.675
71345W        W43016  22.607  12.274  12.001
71346W        W43017   2.661  43.917  11.617
71347W        W43018  24.661  39.765   1.338
71348W        W43019  16.221   3.971  13.410
71349W        W43020  21.193  22.324  12.837
71350W        W43021   5.587  12.175  12.632
71351W        W43022  15.863  16.509  10.901
71352W        W43023  24.726  21.095  13.892
71353W        W43024   4.119  11.222  12.548
71354W        W43025  29.988  36.764   3.647
71355W        W43026  22.726  41.743  12.901
71356W        W43027  37.590   4.478  11.260
71357W        W43028  21.016  29.199  11.364
71358W        W43029  27.568  10.880   3.365
71359W        W43030  42.557  13.635   5.245
71360W        W43031  31.389  27.147  10.408
71361W        W43032  34.369  42.796   1.388
71362W        W43033  17.183   5.924   9.782
71363W        W43034  17.821   4.324   3.176
71364W        W43035  43.302   1.901   0.525
71365W        W43036  30.508   1.496   3.258
71366W        W43037   5.297  34.655  10.640
71367W        W43038  16.510  19.812  11.116
71368W        W43039  14.546  33.005   0.916
71369W        W43040   1.306  30.876  10.757
71370W        W43041  32.422  33.018   3.244
71371W        W43042   1.373  44.488   0.316
71372W        W43043  28.114  32.682   3.150
71373W        W43044   3.978   7.959  12.441
71374W        W43045  17.839  15.584   2.241
71375W        W43046  40.276  36.723  12.471
71376W        W43047  14.712  24.147   2.758
71377W        W43048   7.274  15.402   0.811
71378W        W43049  20.915  13.312  11.457
71379W        W43050  25.927  40.428   2.810
71380W        W43051  31.690  10.850   4.238
71381W        W43052   6.479   2.030   3.669
71382W        W43053   0.257  23.029   9.681
71383W        W43054   4.887  18.071   3.760
71384W        W43055  28.073   5.570   4.302
71385W        W43056  10.196   5.721  11.801
71386W        W43057   2.508   4.837  12.064
71387W        W43058  10.780  36.761   4.725
71388W        W43059  17.688  23.920   1.238
71389W        W43060  36.132   3.923   3.700
71390W        W43061  10.707  33.897  12.732
71391W        W43062  10.863   4.321  14.317
71392W        W43063  14.690  38.567  13.363
71393W        W43064  24.067  40.980   0.575
71394W        W43065  30.011  39.282   0.405
71395W        W43066   3.811  11.314  11.270
71396W        W43067   3.238   1.305  10.432
71397W        W43068  10.890  39.628   0.907
71398W        W43069   5.375  25.748  12.012
71399W        W43070  34.118  43.897   2.719
71400W        W43071   9.223   8.726  12.862
71401W        W43072  44.930  24.594  13.461
71402W        W43073  37.868   4.785  14.419
71403W        W43074  20.266  17.163  14.909
71404W        W43075  29.012  14.539  13.043
71405W        W43076  19.998  24.451   5.004
71406W        W43077  36.892  44.963  12.376
71407W        W43078   2.451  32.522  13.403
71408W        W43079  10.061  36.175   3.161
71409W        W43080  20.530  37.404   3.429
71410W        W43081  28.467  21.680  11.868
71411W        W43082  34.880  23.253   3.561
71412W        W43083  43.805  12.576  14.990
71413W        W43084   8.748  22.873   0.790
71414W        W43085  21.239   8.702  14.115
71415W        W43086   0.484  23.002   0.862
71416W        W43087   3.020  27.031   2.667
71417W        W43088  13.701  36.813   1.170
71418W        W43089  27.700   6.213   2.296
71419W        W43090  44.409  11.177  12.898
71420W        W43091  12.268  25.966  13.031
71421W        W43092   0.467  26.129   1.919
71422W        W43093  11.424  23.096   3.826
71423W        W43094  25.617   0.360   4.545
71424W        W43095   3.398  15.505   2.249
71425W        W43096  11.953  37.577   2.733
71426W        W43097  38.995  39.386   2.434
71427W        W43098  12.508  14.765   4.405
71428W        W43099   8.480  13.667  10.583
71429W        W43100  31.959  17.326  11.210
71430W        W43101  35.848  43.452  13.448
71431W        W43102  39.570  22.193   1.604
71432W        W43103   7.936  31.684  12.164
71433W        W43104  29.571  32.021   4.562
71434W        W43105  20.593   8.256   1.255
71435W        W43106   3.861  44.990   1.768
71436W        W43107  21.137  27.329  14.748
71437W        W43108  18.484  34.507  10.708
71438W        W43109  13.225  43.269  11.940
71439W        W43110  35.163  29.896  13.919
71440W        W43111   1.256   8.377  14.586
71441W        W43112   4.064  21.180  13.083
71442W        W43113  38.238  15.426   0.350
71443W        W43114  15.757  35.163   2.351
71444W        W43115  12.239  28.528   3.526
71445W        W43116  17.131  15.073   4.293
71446W        W43117  16.796  23.742  13.298
71447W        W43118  36.979  20.634   3.654
71448W        W43119  12.764  15.275   2.313
71449W        W43120  22.648  24.013  12.370
71450W        W43121  23.575  34.339  14.856
71451W        W43122  28.926   7.531   3.343
71452W        W43123  26.718  43.950  11.372
71453W        W43124  42.279   9.693  12.860
71454W        W43125  20.104  30.914   4.965
71455W        W43126  35.411  15.626   1.893
71456W        W43127  10.125  34.610   0.295
71457W        W43128  11.329  30.647  14.949
71458W        W43129   7.853   8.354   0.997
71459W        W43130   1.632   8.694   2.514
71460W        W43131   2.108  15.725   3.858
71461W        W43132  42.837  36.919  14.068
71462W        W43133  14.175   3.480  12.143
71463W        W43134  35.983  33.934   4.838
71464W        W43135  38.913  41.421   3.540
71465W        W43136  43.064  41.569  10.181
71466W        W43137   0.011  34.020  14.436
71467W        W43138  27.770  43.042   4.690
71468W        W43139   2.943   5.987   1.910
71469W        W43140   4.345  34.644  12.788
71470W        W43141  30.569  43.253   1.447
71471W        W43142  40.856  36.156  13.219
71472W        W43143  37.038  33.368  11.565
71473W        W43144   7.978   3.874   4.904
71474W        W43145  37.487  14.882   2.957
71475W        W43146  41.787  16.704   4.883
71476W        W43147  38.208  26.781  12.026
71477W        W43148  17.099  35.121   2.187
71478W        W43149  33.097  31.623  13.792
71479W        W43150  12.388  37.397   2.947
71480W        W43151  28.980  14.810   3.570
71481W        W43152  23.487  21.125  12.199
71482W        W43153   3.451   2.323   2.925
71483W        W43154  32.577   1.571  12.120
71484W        W43155  23.717  19.777   0.907
71485W        W43156  25.731  12.156   0.247
71486W        W43157  42.490  36.120  11.919
71487W        W43158  19.901   0.455   3.405
71488W        W43159  38.983  29.730  10.786
71489W        W43160  29.949  35.758  14.218
71490W        W43161  35.498  21.527   0.710
71491W        W43162   7.768  31.493  12.598
71492W        W43163  29.614  26.407  10.106
71493W        W43164   1.681  43.878  11.545
71494W        W43165  21.572  29.207  14.778
71495W        W43166  21.271  24.988  12.029
71496W        W43167  33.106  21.722   1.292
71497W        W43168  30.604  29.388   0.041
71498W        W43169   9.702   3.673   4.326
71499W        W43170  37.466  25.204   2.675
71500W        W43171  39.972  38.156   2.235
71501W        W43172  30.908  38.865   0.390
71502W        W43173  29.015  28.184  11.144
71503W        W43174  10.736  42.948   4.553
71504W        W43175  40.742  10.411   3.589
71505W        W43176   1.426   1.692  13.995
71506W        W43177  11.333  19.575  11.112
71507W        W43178   3.754  41.659   1.283
71508W        W43179  11.775  35.011  12.867
71509W        W43180  43.442  43.966  10.832
71510W        W43181  31.571  12.661   2.802
71511W        W43182  28.102  40.392  11.805
71512W        W43183   4.734  24.490  12.906
71513W        W43184   3.773  24.549  12.807
71514W        W43185  13.748  21.028   1.911
71515W        W43186  10.737  36.591  11.979
71516W        W43187  44.037  31.497   0.768
71517W        W43188   6.455   8.072  14.528
71518W        W43189  28.847  44.532  13.511
71519W        W43190   8.798  38.261  10.865
71520W        W43191   4.495   0.801  14.472
71521W        W43192  27.550  34.990  14.462
71522W        W43193  44.526  11.308  13.902
71523W        W43194   7.407  28.306   2.322
71524W        W43195  30.636  42.746   0.286
71525W        W43196   4.647  18.668  14.054
71526W        W43197   4.841  35.572  11.650
71527W        W43198   6.862  43.178   4.067
71528W        W43199  33.886  33.470  12.830
71529W        W43200  28.824  13.053   3.486
71530W        W43201  19.581  43.270   1.278
71531W        W43202  19.198  43.743  14.464
71532W        W43203  32.509  42.395  12.535
71533W        W43204  36.103  26.146  12.103
71534W        W43205   6.150  11.864   2.288
71535W        W43206  43.750   4.244   3.219
71536W        W43207  35.718   5.151  12.039
71537W        W43208  32.868  40.482   2.936
71538W        W43209  44.981  39.410  12.041
71539W        W43210  44.358  27.003   0.802
71540W        W43211  26.667   0.634   2.790
71541W        W43212  14.810  17.490   4.306
71542W        W43213  14.695  19.844   4.970
71543W        W43214  22.677   0.580   4.316
71544W        W43215  20.003   4.253   3.340
71545W        W43216  32.971  25.033   2.904
71546W        W43217   1.846   3.142   5.079
71547W        W43218  34.307   4.095   2.538
71548W        W43219  32.971   5.023   4.326
71549W        W43220  43.454  21.527  11.252
71550W        W43221  19.745   8.257   0.845
71551W        W43222  33.135  34.211   1.348
71552W        W43223  36.399   6.810  11.286
71553W        W43224  18.205   6.703  13.953
71554W        W43225  32.515  33.148   2.319
71555W        W43226  33.866  15.917  10.281
71556W        W43227  14.728   9.368  14.540
71557W        W43228  28.690   8.395   2.756
71558W        W43229  27.468  29.169   1.065
71559W        W43230   0.738   4.334   1.160
71560W        W43231   9.242  26.656   0.548
71561W        W43232  25.709  18.274   4.681
71562W        W43233  33.004  38.052   0.398
71563W        W43234  11.703  18.913   4.069
71564W        W43235   2.271   9.891   4.249
71565W        W43236   1.275  10.817  14.913
71566W        W43237  33.780  24.182   4.082
71567W        W43238  31.467  38.808   2.211
71568W        W43239   1.839  20.455   3.686
71569W        W43240  42.606  26.865   2.537
71570W        W43241   8.456  10.335   2.254
71571W        W43242  33.129  33.131   1.105
71572W        W43243  15.120   3.878   3.306
71573W        W43244   7.248  35.722   4.286
71574W        W43245   9.749  36.903  11.644
71575W        W43246   1.398   0.983   2.301
71576W        W43247  36.036  27.332   4.160
71577W        W43248  43.463  15.931   2.682
71578W        W43249   3.287  23.722  14.520
71579W        W43250  13.624  11.120   4.673
71580W        W43251  44.070  11.327  14.752
71581W        W43252  15.084   8.855  11.090
71582W        W43253  24.006  23.196  12.582
71583W        W43254   5.286  19.322   0.944
71584W        W43255  35.432  20.848   0.458
71585W        W43256  24.037  16.277   1.863
71586W        W43257  37.577  33.783  11.490
71587W        W43258  12.156  25.908  13.921
71588W        W43259  41.023  10.249   3.149
71589W        W43260  24.647   2.141   2.329
71590W        W43261  35.687  24.382   3.705
71591W        W43262  30.581  37.648  10.955
71592W        W43263  26.586  19.756  14.342
71593W        W43264  18.724  33.950  11.868
71594W        W43265   8.639  21.585  14.913
71595W        W43266  28.453  13.872  12.713
71596W        W43267   5.380  39.010  13.122
71597W        W43268   4.300  32.675  13.231
71598W        W43269  20.927  22.723  13.025
71599W        W43270  12.580  14.690   3.571
71600W        W43271  15.079  26.512  11.471
71601W        W43272   2.985  16.145  12.458
71602W        W43273   9.833  12.562   1.946
71603W        W43274  15.774  12.752   1.146
71604W        W43275  20.199  16.942  13.026
71605W        W43276  16.000  36.563   2.051
71606W        W43277  21.520   9.158   4.035
71607W        W43278  40.885  23.618  11.206
71608W        W43279  36.835  25.608   0.284
71609W        W43280  43.330  43.903  13.053
71610W        W43281  35.949  32.798  11.703
71611W        W43282  44.117  36.379   3.737
71612W        W43283  15.222  42.532  14.913
71613W        W43284  12.453   3.462  10.668
71614W        W43285  40.513   7.792   3.837
71615W        W43286  22.793  10.974   1.811
71616W        W43287   5.425  19.082   2.694
71617W        W43288  19.644  18.592  12.634
71618W        W43289  21.485  22.662   4.870
71619W        W43290   9.147  15.733  10.462
71620W        W43291  44.802  15.705   0.712
71621W        W43292  14.615  24.145   2.232
71622W        W43293  43.270  11.263  13.421
71623W        W43294   0.253  28.454  13.388
71624W        W43295  29.118  39.921   3.680
71625W        W43296  25.977  27.039   3.621
71626W        W43297  20.114   3.690   2.106
71627W        W43298   7.031  37.065   2.436
71628W        W43299   6.541  14.965   1.796
71629W        W43300  21.314  42.166  12.963
71630W        W43301  37.872  33.540   4.941
71631W        W43302  34.199  35.057   2.236
71632W        W43303  42.274  36.132   0.865
71633W        W43304  34.085  29.560  14.502
71634W        W43305  30.369   8.969  11.910
71635W        W43306   5.908  16.118  13.850
71636W        W43307   9.996  23.775  11.900
71637W        W43308  43.918  41.681  12.945
71638W        W43309  27.162   0.268   4.503
71639W        W43310  43.972  43.967  10.723
71640W        W43311  44.504   3.162   0.161
71641W        W43312  29.531   1.314  11.217
71642W        W43313  41.979  10.802   4.371
71643W        W43314  39.905   9.746  11.939
71644W        W43315   9.800  15.164   1.464
71645W        W43316  35.850  22.344  12.053
71646W        W43317  19.106  32.981  12.095
71647W        W43318  26.949  42.351  10.584
71648W        W43319   8.812  41.843   4.634
71649W        W43320  27.829  37.223   4.158
71650W        W43321  42.320  23.327  12.068
71651W        W43322  29.286  32.050   3.200
71652W        W43323  35.803   4.136   0.057
71653W        W43324  21.130  29.615   2.257
71654W        W43325  40.678  33.972   0.287
71655W        W43326  10.704  32.507   0.185
71656W        W43327  30.623  24.810  10.726
71657W        W43328  41.808   1.160  14.278
71658W        W43329  33.337  27.164   0.779
71659W        W43330   9.904  44.952  11.546
71660W        W43331  16.666  39.686   3.230
71661W        W43332   2.058  43.318   3.222
71662W        W43333  21.558   6.914  10.382
71663W        W43334  44.243  17.496   3.741
71664W        W43335  26.506  39.459  10.955
71665W        W43336  12.020  17.276   4.831
71666W        W43337  24.749  14.536   4.627
71667W        W43338  44.352  40.324   3.714
71668W        W43339  19.134  40.501   3.556
71669W        W43340  26.540  15.149   4.829
71670W        W43341  37.071  31.868   1.754
71671W        W43342  23.512  44.786   0.486
71672W        W43343  28.572  12.088   1.353
71673W        W43344  28.990   7.412  12.484
71674W        W43345  28.673  25.910   1.025
71675W        W43346  19.135  37.092  12.124
71676W        W43347  24.711  24.101   3.835
71677W        W43348  23.697  12.133   3.194
71678W        W43349  32.532  10.861  14.400
71679W        W43350  37.182  16.733   9.985
71680W        W43351  16.782  37.089   4.424
71681W        W43352  16.703  40.077   4.661
71682W        W43353   7.735   0.690  11.230
71683W        W43354   1.353  13.241  12.584
71684W        W43355  21.963  24.457   1.835
71685W        W43356  42.916  31.579   0.374
71686W        W43357  37.083  30.583   5.162
71687W        W43358  30.525   8.913  13.836
71688W        W43359  26.549  24.351   2.342
71689W        W43360  12.303  43.370   1.720
71690W        W43361  14.710  15.539  12.043
71691W        W43362  19.556  10.249  11.105
71692W        W43363  41.661  39.997  14.961
71693W        W43364  31.390  29.017   0.937
71694W        W43365  24.060  42.748  12.018
71695W        W43366  19.987  17.384  13.526
71696W        W43367   7.444  30.539  14.107
71697W        W43368  19.759  29.645  14.124
71698W        W43369  12.102  11.780   1.837
71699W        W43370  29.837   4.286  14.921
71700W        W43371   6.392  26.062  14.905
71701W        W43372  24.167   6.518   2.571
71702W        W43373  33.917  20.629   3.609
71703W        W43374  36.081  18.027   1.464
71704W        W43375  15.758   6.294  10.998
71705W        W43376  26.326  33.921   1.786
71706W        W43377  36.569  44.360   4.207
71707W        W43378  28.363  19.227   0.877
71708W        W43379   7.432  15.669  11.187
71709W        W43380  33.223  17.569   2.938
71710W        W43381  18.393  14.908  10.151
71711W        W43382  13.436   3.497   0.266
71712W        W43383  16.557  40.026   1.663
71713W        W43384  34.358  30.031   3.813
71714W        W43385   9.670  31.540   2.613
71715W        W43386   0.726  38.443   2.384
71716W        W43387   3.374   5.222   4.159
71717W        W43388   4.921  26.767   2.823
71718W        W43389  32.094  17.338   1.309
71719W        W43390  18.287  27.604   1.372
71720W        W43391  41.994   1.445  14.665
71721W        W43392  44.735  24.784   2.814
71722W        W43393  24.981  17.799   4.095
71723W        W43394   4.800  19.541   1.896
71724W        W43395  25.583  25.047   3.305
71725W        W43396   7.647  33.370   3.216
71726W        W43397   5.870   0.721  11.953
71727W        W43398  22.913  22.463  11.914
71728W        W43399  39.557  40.332   4.104
71729W        W43400  42.917  26.669   1.430
71730W        W43401  12.572  37.606   1.166
71731W        W43402  39.293  18.951   0.788
71732W        W43403  17.033   2.989   2.726
71733W        W43404   1.478  37.889   2.437
71734W        W43405  41.861  23.509   1.724
71735W        W43406  24.030  39.745  13.453
71736W        W43407  30.591  29.547   2.239
71737W        W43408  20.196  31.023   2.904
71738W        W43409  26.613  31.879  10.949
71739W        W43410   4.188   8.580  14.339
71740W        W43411  35.336  40.328  13.639
71741W        W43412   3.194   2.773   2.764
71742W        W43413  15.637  40.571  12.891
71743W        W43414  31.475   0.210   0.655
71744W        W43415   0.787  16.033   0.057
71745W        W43416  33.137   2.269  12.102
71746W        W43417  27.149   3.270  13.484
71747W        W43418  30.058   5.488  12.107
71748W        W43419  33.542  31.606   3.537
71749W        W43420  43.691  34.559  10.669
71750W        W43421  40.816  13.206  10.539
71751W        W43422  19.596  37.471  12.842
71752W        W43423  12.693   7.940   4.755
71753W        W43424  41.852  20.676  12.854
71754W        W43425  28.637  33.816   0.326
71755W        W43426  21.075   4.010  13.069
71756W        W43427   3.957  29.476   3.924
71757W        W43428  40.881  26.728  13.661
71758W        W43429  35.435  27.160   0.502
71759W        W43430  41.746   6.824  14.766
71760W        W43431  38.466  25.498   4.100
71761W        W43432  24.651  23.226  11.876
71762W        W43433  38.102  35.372   0.241
71763W        W43434  25.591  36.601   2.893
71764W        W43435   4.396   0.060   4.403
71765W        W43436  37.949   0.938   1.770
71766W        W43437   7.275  26.789   2.407
71767W        W43438  43.989  16.525   1.455
71768W        W43439   9.743  27.624   1.201
71769W        W43440  31.547  17.706  12.480
71770W        W43441  23.568  37.776   0.749
71771W        W43442  28.866  40.954  14.457
71772W        W43443   6.066  32.251   4.198
71773W        W43444  38.307  42.734  12.653
71774W        W43445  16.733  37.967   0.751
71775W        W43446  18.842  18.194  14.908
71776W        W43447  36.663   1.781  12.448
71777W        W43448  41.500  42.900  11.222
71778W        W43449  37.433   8.714  12.913
71779W        W43450  18.058  19.642  12.085
71780W        W43451  37.939  25.776   2.248
71781W        W43452  35.429  41.167  13.358
71782W        W43453  26.728  20.143   4.053
71783W        W43454  28.045  27.727   0.322
71784W        W43455   0.433  25.587   0.624
71785W        W43456  38.772   8.365   0.164
71786W        W43457  16.398  14.919  10.983
71787W        W43458  36.020  15.040   3.668
71788W        W43459  14.287  25.424  11.561
71789W        W43460  16.587  32.527   3.707
71790W        W43461  42.097  34.532   4.074
71791W        W43462   8.964   4.858   2.493
71792W        W43463  21.967  32.902  10.559
71793W        W43464  28.488  16.117   0.082
71794W        W43465  37.898  41.045   1.191
71795W        W43466  42.480  31.154   3.538
71796W        W43467  23.575  25.218  14.576
71797W        W43468  11.332  31.603   3.141
71798W        W43469  38.633  12.505   3.672
71799W        W43470  20.408  37.940  10.596
71800W        W43471  14.446   5.480  10.305
71801W        W43472  31.750   0.965  14.372
71802W        W43473  28.573  18.343  11.539
71803W        W43474  33.573  27.062  10.537
71804W        W43475  30.069  33.923   0.874
71805W        W43476   4.778  28.938   3.660
71806W        W43477  25.271  24.182   0.793
71807W        W43478   0.968  16.270  13.402
71808W        W43479  17.998  28.464  11.048
71809W        W43480  14.598   4.518  11.636
71810W        W43481  41.804   1.386  12.003
71811W        W43482  10.689  35.555   2.072
71812W        W43483  32.518  40.568   3.755
71813W        W43484   8.458   7.378   1.626
71814W        W43485  42.421  20.681  12.193
71815W        W43486  32.559  44.375  10.497
71816W        W43487  35.110  19.529   1.241
71817W        W43488  37.927  14.764   3.732
71818W        W43489  44.408  14.801  12.007
71819W        W43490  11.091  18.768  11.947
71820W        W43491  35.099  34.140   0.254
71821W        W43492  17.749  44.884   0.881
71822W        W43493  42.935  39.089   4.576
71823W        W43494  40.611   3.688  12.296
71824W        W43495  10.912  40.319   0.415
71825W        W43496  18.286  28.421   2.188
71826W        W43497  16.535  43.862  10.628
71827W        W43498  17.538   2.446   4.123
71828W        W43499  40.942  23.735  14.471
71829W        W43500  17.283   5.385   0.830
71830W        W43501  27.661  21.132   1.513
71831W        W43502   1.691  28.484  11.416
71832W        W43503  23.018  27.634   3.167
71833W        W43504  44.284  28.987   3.735
71834W        W43505  14.162  44.602  14.927
71835W        W43506   2.673  27.156  12.276
71836W        W43507  20.805  43.105   1.319
71837W        W43508  26.766  28.601   4.082
71838W        W43509  44.186  24.211   2.349
71839W        W43510  16.055  12.229  12.523
71840W        W43511  24.181  41.407  14.997
71841W        W43512  37.426  42.543  13.847
71842W        W43513  33.512  23.096  10.511
71843W        W43514  32.460   2.996  13.436
71844W        W43515  26.281   5.998  12.578
71845W        W43516  32.944  23.708  10.537
71846W        W43517  31.590  33.471   4.116
71847W        W43518   1.956  12.510   0.499
71848W        W43519  20.169  18.895   1.383
71849W        W43520  18.274   8.854  11.646
71850W        W43521  36.411  34.442  13.331
71851W        W43522  38.733  36.805  14.208
71852W        W43523  27.026  19.520  14.517
71853W        W43524   7.311   1.159  14.815
71854W        W43525   1.286   6.569  13.889
71855W        W43526  44.916  22.944  14.127
71856W        W43527   7.443  13.743  10.647
71857W        W43528  41.532  10.220  13.905
71858W        W43529  15.278  34.906   4.732
71859W        W43530  18.206  10.357  12.024
71860W        W43531  25.375   6.812   0.227
71861W        W43532  16.061  13.348  11.170
71862W        W43533  39.401  42.433  13.808
71863W        W43534   9.469  36.377   4.075
71864W        W43535  33.262  15.518   2.891
71865W        W43536  22.165  17.770   3.729
71866W        W43537  25.386  43.872  12.089
71867W        W43538  40.343  11.880   5.179
71868W        W43539  13.781  17.483  12.985
71869W        W43540  28.085  18.204  14.428
71870W        W43541  36.681  16.540  11.307
71871W        W43542  33.369  26.074   1.718
71872W        W43543  40.912   4.830   0.448
71873W        W43544   9.781  43.430  11.734
71874W        W43545  11.781  43.451   2.652
71875W        W43546  30.225   5.993  13.914
71876W        W43547  36.579  27.575  12.334
71877W        W43548   2.322   3.343   0.623
71878W        W43549  35.955   5.826   3.229
71879W        W43550  21.237  23.489   3.787
71880W        W43551   4.849  38.411  10.182
71881W        W43552  16.811  22.450   3.724
71882W        W43553  16.267   4.864  14.718
71883W        W43554   3.525  29.419   3.597
71884W        W43555  25.036  31.194  13.318
71885W        W43556  36.069  18.463  12.118
71886W        W43557   0.293   4.160  12.794
71887W        W43558  27.321  17.978   1.881
71888W        W43559  33.100   2.749  10.424
71889W        W43560  18.047  42.335  13.927
71890W        W43561  12.305  30.260   4.664
71891W        W43562  29.650  25.231   3.329
71892W        W43563  32.152  18.073   0.789
71893W        W43564  16.815  41.014  13.881
71894W        W43565   7.204  13.454  11.501
71895W        W43566   0.892  31.916  14.851
71896W        W43567   0.250   4.206  11.991
71897W        W43568  20.147  11.733   4.637
71898W        W43569  39.293   2.953  12.919
71899W        W43570  42.515  34.540   2.844
71900W        W43571  37.411  19.275  13.881
71901W        W43572   2.273   8.177   0.378
71902W        W43573   3.944  40.957   1.017
71903W        W43574  11.338  23.833   4.172
71904W        W43575  18.723  32.204  14.427
71905W        W43576  14.934  26.581   2.376
71906W        W43577  24.092  40.480  10.535
71907W        W43578  13.585  15.212   3.843
71908W        W43579   2.865  12.028   4.105
71909W        W43580   9.038  22.277  10.736
71910W        W43581  18.145  39.385   2.942
71911W        W43582  38.315  44.034  11.963
71912W        W43583   8.730  13.230   0.776
71913W        W43584  13.310  30.373  12.048
71914W        W43585  20.178  35.034   4.604
71915W        W43586  29.838  20.751  10.748
71916W        W43587   1.603  18.901   0.873
71917W        W43588  35.115   8.387   3.223
71918W        W43589  30.600  15.249  14.015
71919W        W43590   4.442  32.792   1.403
71920W        W43591  38.687  26.407  13.095
71921W        W43592  37.849  26.767   1.269
71922W        W43593  11.677   9.196  11.941
71923W        W43594  43.720  44.945  14.040
71924W        W43595   7.239   5.734  11.635
71925W        W43596  21.315   9.627  11.948
71926W        W43597   2.014  28.602   0.303
71927W        W43598  27.675  31.847  14.492
71928W        W43599   3.444  15.805   2.645
71929W        W43600  14.139  21.582  11.405
71930W        W43601  40.542  36.352  12.818
71931W        W43602  15.835  39.443  14.293
71932W        W43603  12.124  39.397   4.271
71933W        W43604  31.659  22.317   3.277
71934W        W43605  38.518  24.448  11.744
71935W        W43606  20.188  32.952   1.312
71936W        W43607  10.365   1.918  13.490
71937W        W43608  30.433  24.980  12.390
71938W        W43609  13.919  11.808  11.620
71939W        W43610  39.819  44.963   1.451
71940W        W43611  23.770  11.844   2.730
71941W        W43612  32.628  29.728   1.712
71942W        W43613  43.411  24.079  12.807
71943W        W43614  11.651   7.816  14.847
71944W        W43615  27.958  37.127   1.502
71945W        W43616   5.327   7.012   0.878
71946W        W43617  12.799  38.896  14.527
71947W        W43618  41.824   3.333   1.839
71948W        W43619  26.995  39.969  11.627
71949W        W43620  35.582   7.588  13.944
71950W        W43621  28.192  39.434  10.785
71951W        W43622   8.441  12.229   3.314
71952W        W43623  36.927  28.145   0.228
71953W        W43624  22.645  36.841  12.565
71954W        W43625  26.486  36.108  11.506
71955W        W43626  28.490  20.077  11.595
71956W        W43627  13.487  30.814   2.299
71957W        W43628   6.685  28.839   1.071
71958W        W43629  15.281  19.200  11.188
71959W        W43630  24.547  20.114   3.468
71960W        W43631  26.480   7.453   5.002
71961W        W43632   3.647   1.378   3.761
71962W        W43633  20.633  27.177  13.055
71963W        W43634  38.890  26.479  13.587
71964W        W43635  20.621  26.324   1.924
71965W        W43636   8.241  21.500  12.079
71966W        W43637  22.716  44.831  12.042
71967W        W43638  41.326  44.743  10.558
71968W        W43639  43.962  35.916   2.277
71969W        W43640   5.191  12.002  13.927
71970W        W43641  37.449   9.383  13.557
71971W        W43642  41.836  19.602  12.065
71972W        W43643   4.763  43.197  10.048
71973W        W43644  39.321  15.713   5.075
71974W        W43645  13.856  18.359  13.324
71975W        W43646   8.222  20.207   1.268
71976W        W43647   5.938  38.583   2.309
71977W        W43648  24.451   7.342   1.655
71978W        W43649   9.566  25.202  14.276
71979W        W43650  33.345  29.410  14.505
71980W        W43651  40.117   8.849   1.324
71981W        W43652   6.129   1.793  14.562
71982W        W43653  17.035  13.619  14.269
71983W        W43654   8.978  31.051  14.727
71984W        W43655   1.425  13.336   2.155
71985W        W43656  18.719  11.214   2.188
71986W        W43657   2.447  13.149   3.134
71987W        W43658  37.495  44.360  13.799
71988W        W43659  22.031  17.558   1.084
71989W        W43660   8.004  19.184   3.706
71990W        W43661  36.738   8.784   1.768
71991W        W43662   6.566  20.391  13.926
71992W        W43663  38.589  24.727  10.867
71993W        W43664  35.524   9.677  11.632
71994W        W43665  19.234  35.610   0.621
71995W        W43666  20.262  33.154  11.482
71996W        W43667  25.279  24.210   2.463
71997W        W43668   1.791  40.983   1.906
71998W        W43669  11.146  20.150   0.883
71999W        W43670  35.384  20.123   0.017
72000W        W43671  16.126  33.967   2.542
72001W        W43672  20.882  21.623  12.002
72002W        W43673  33.338  12.699   4.357
72003W        W43674  42.497  28.666   1.775
72004W        W43675  24.273  31.372  14.930
72005W        W43676   9.918  39.281  11.134
72006W        W43677  38.114  14.602  12.440
72007W        W43678  16.045  12.761  13.778
72008W        W43679  30.384  17.590   0.377
72009W        W43680  11.366  21.257  11.616
72010W        W43681  32.154   0.106   3.885
72011W        W43682  26.054  40.416  14.243
72012W        W43683  39.278  10.299  13.582
72013W        W43684  31.081   8.136   2.766
72014W        W43685  35.393  19.061   2.635
72015W        W43686  26.933  36.378  11.658
72016W        W43687  32.567  33.868  11.961
72017W        W43688   9.159   6.196   4.866
72018W        W43689  38.559  40.988   4.818
72019W        W43690  30.547  38.857   2.463
72020W        W43691   5.992  43.450   2.860
72021W        W43692   0.635  37.940   4.206
72022W        W43693  25.755  17.039  11.099
72023W        W43694   7.914  34.864  12.673
72024W        W43695   4.306   8.952   5.007
72025W        W43696  23.496  32.180  10.752
72026W        W43697  39.459  18.761   0.311
72027W        W43698  16.440  14.603  12.350
72028W        W43699  28.223  43.434   2.070
72029W        W43700  35.431  20.538   3.461
72030W        W43701  27.005  18.222  12.037
72031W        W43702  21.381  12.190  10.769
72032W        W43703  36.564  41.589  11.832
72033W        W43704  42.739   9.424  14.484
72034W        W43705  37.854   7.919   1.194
72035W        W43706   3.245   2.770  12.892
72036W        W43707  14.552  15.513   4.582
72037W        W43708  23.944  24.927   1.402
72038W        W43709  26.614  18.835   1.441
72039W        W43710  15.075  37.328  12.907
72040W        W43711  27.688  33.291  12.405
72041W        W43712  18.102  15.827   4.390
72042W        W43713  27.912  30.972   3.570
72043W        W43714   1.989  36.467  11.040
72044W        W43715  35.822   0.537   3.082
72045W        W43716  31.365  36.339   3.001
72046W        W43717  42.003  21.086   1.800
72047W        W43718  20.508  41.854   1.840
72048W        W43719  44.407  18.513   0.410
72049W        W43720  14.109  27.144   2.489
72050W        W43721  18.109  42.886   0.847
72051W        W43722   3.758  34.061  14.923
72052W        W43723  30.880  36.759   2.415
72053W        W43724   5.729  12.306   1.906
72054W        W43725  39.608   0.069  12.606
72055W        W43726  13.759  31.512   1.854
72056W        W43727  25.975  38.929  11.618
72057W        W43728  12.741  28.510   0.277
72058W        W43729   3.463  18.533   2.610
72059W        W43730  29.424  37.805  12.391
72060W        W43731  31.307  11.830  11.542
72061W        W43732  29.647  34.568  12.953
72062W        W43733  44.381   0.494  11.123
72063W        W43734  23.192   2.176   0.167
72064W        W43735  42.387  23.472   2.335
72065W        W43736  11.653  16.544  11.532
72066W        W43737   2.770   7.400   3.766
72067W        W43738  15.640   7.668   2.475
72068W        W43739  11.344   2.272   3.314
72069W        W43740  16.018   2.267  11.482
72070W        W43741  37.937  37.666   4.116
72071W        W43742  34.143  12.598   1.364
72072W        W43743  31.029  17.732   4.649
72073W        W43744   4.081  42.812   0.861
72074W        W43745   0.091  22.162  10.254
72075W        W43746  44.666  30.074   1.363
72076W        W43747  34.953  33.389   1.797
72077W        W43748  13.179   9.961  11.152
72078W        W43749  21.311  38.101   3.202
72079W        W43750  29.786  38.627   4.686
72080W        W43751   5.454  18.293   1.038
72081W        W43752  35.951  12.264   2.652
72082W        W43753  32.749  10.855   3.389
72083W        W43754  24.671  33.031   3.138
72084W        W43755  21.806  16.236  13.964
72085W        W43756  37.834   7.885   3.753
72086W        W43757  24.749  22.363   1.011
72087W        W43758  18.877  36.007  14.456
72088W        W43759  19.432   4.715  10.702
72089W        W43760   4.556   0.934   3.865
72090W        W43761   2.286   4.502  14.869
72091W        W43762  33.085  38.605  13.782
72092W        W43763  18.451  27.267   3.741
72093W        W43764  37.575  29.931  11.982
72094W        W43765   8.910  44.699   2.798
72095W        W43766   1.736  16.695   0.200
72096W        W43767  18.267   1.746   1.779
72097W        W43768  33.518   0.138   3.638
72098W        W43769  10.734   9.632  12.143
72099W        W43770  16.572   1.892   1.833
72100W        W43771  11.052  21.982  11.810
72101W        W43772  31.213   2.749  12.997
72102W        W43773  35.516  15.282   3.711
72103W        W43774  12.211  38.926   4.024
72104W        W43775   0.410  44.393  14.269
72105W        W43776   5.788  36.480  14.705
72106W        W43777  19.715  29.153   4.805
72107W        W43778  21.192  27.036  13.326
72108W        W43779  32.127  11.891  12.432
72109W        W43780  16.307  23.268  11.496
72110W        W43781  42.752  12.735   2.200
72111W        W43782  29.722  43.808  12.176
72112W        W43783  35.624  32.936  11.010
72113W        W43784   5.396  37.316  12.986
72114W        W43785  35.654   1.370  14.792
72115W        W43786  19.536   2.448   1.010
72116W        W43787  44.489  21.542   0.752
72117W        W43788  34.993  30.407   4.886
72118W        W43789   2.444  29.136  13.469
72119W        W43790  25.693  33.302   0.239
72120W        W43791  43.796  13.188  13.835
72121W        W43792   2.516   7.879  14.816
72122W        W43793  40.874   5.015   4.705
72123W        W43794  27.221  43.749  12.125
72124W        W43795   6.813  29.319  14.032
72125W        W43796   0.240  25.479   3.185
72126W        W43797  27.459  19.737  12.957
72127W        W43798   5.338  36.940  12.640
72128W        W43799  13.866  31.947  11.839
72129W        W43800  29.039  26.466   4.784
72130W        W43801  32.077  25.475   0.176
72131W        W43802  34.833  42.904   1.190
72132W        W43803  37.446  17.731  11.358
72133W        W43804  14.764  44.403   2.200
72134W        W43805  38.558  25.100   3.182
72135W        W43806  18.539  41.025  13.518
72136W        W43807   0.315  18.743   0.504
72137W        W43808   8.230   4.820   1.298
72138W        W43809  13.742  24.214  12.543
72139W        W43810  40.935   1.812   2.646
72140W        W43811  13.947   5.726   2.095
72141W        W43812  18.795  21.215   2.817
72142W        W43813  11.591  10.108   0.805
72143W        W43814  30.068  36.338   2.014
72144W        W43815  16.858  22.242   0.298
72145W        W43816  36.819   0.777   4.887
72146W        W43817  31.889  10.210   4.981
72147W        W43818  33.695  30.526   2.515
72148W        W43819  31.163  31.230   3.054
72149W        W43820  42.235  11.227   0.881
72150W        W43821   3.815  30.455  11.230
72151W        W43822  40.318  33.542   4.488
72152W        W43823   3.869  14.437  13.075
72153W        W43824  27.129  36.903   0.477
72154W        W43825  17.218   0.350  12.956
72155W        W43826  30.147   7.840   0.333
72156W        W43827   8.435   0.376   0.014
72157W        W43828  39.924  39.978   1.949
72158W        W43829  15.371   5.892  12.188
72159W        W43830  28.126  28.450  11.462
72160W        W43831  24.242  38.044  10.739
72161W        W43832  15.594   1.735  11.002
72162W        W43833  26.043  24.448  11.522
72163W        W43834  39.849  26.559   3.806
72164W        W43835  41.321   1.669   1.294
72165W        W43836  41.993  27.940   0.405
72166W        W43837   7.407   5.210  13.349
72167W        W43838   9.675   7.889  10.669
72168W        W43839  18.577  14.895   0.344
72169W        W43840  18.107  39.120  13.473
72170W        W43841  25.036   3.168   3.201
72171W        W43842   8.310  25.815   0.775
72172W        W43843   1.918  42.471   4.125
72173W        W43844  38.997  38.729   9.999
72174W        W43845   5.318  19.104  13.786
72175W        W43846  22.726  26.895   0.702
72176W        W43847   8.839  41.687  14.018
72177W        W43848  32.545  21.556  11.101
72178W        W43849  19.439  27.274   4.135
72179W        W43850   4.397   6.922  12.896
72180W        W43851  11.123  33.153   0.744
72181W        W43852  19.339  39.571   3.277
72182W        W43853  14.188  41.507  11.713
72183W        W43854   3.040  41.569  11.514
72184W        W43855  24.739  44.837   2.601
72185W        W43856  26.421  39.451   2.179
72186W        W43857  34.660  28.025  14.366
72187W        W43858  43.828   3.737   4.277
72188W        W43859   5.213  37.871  11.815
72189W        W43860  23.167  23.560  11.037
72190W        W43861  40.273  21.092   1.559
72191W        W43862  29.507  41.404  11.450
72192W        W43863   4.685  41.931   2.672
72193W        W43864  15.748  29.901   1.867
72194W        W43865  26.011  42.292  10.751
72195W        W43866   1.926   3.656   5.129
72196W        W43867  40.473  19.994   4.087
72197W        W43868   5.692  44.204  12.002
72198W        W43869  34.974   3.682  12.537
72199W        W43870  39.010   6.619  11.540
72200W        W43871  12.805  33.647  10.377
72201W        W43872   3.648  41.662   4.760
72202W        W43873   2.468  12.673  14.855
72203W        W43874  22.435  13.823   0.645
72204W        W43875  37.102  15.712  13.157
72205W        W43876  17.357  36.768   0.736
72206W        W43877   2.729  39.830   0.853
72207W        W43878  33.371  15.800  13.288
72208W        W43879   4.899  16.184  12.909
72209W        W43880  30.513   5.114   0.193
72210W        W43881  20.780   8.240  11.208
72211W        W43882  30.962  40.395  12.487
72212W        W43883  22.034  20.148  12.520
72213W        W43884   0.784  13.816   1.669
72214W        W43885  20.256  24.155   3.288
72215W        W43886   0.220  29.181  11.819
72216W        W43887  33.234   0.846  10.471
72217W        W43888   4.879  37.834  13.433
72218W        W43889   3.211  28.452  13.321
72219W        W43890   4.873  23.411   0.459
72220W        W43891  32.561  16.160   0.433
72221W        W43892  33.499  42.235   0.979
72222W        W43893  35.426  24.765  12.360
72223W        W43894  44.543   0.301   4.164
72224W        W43895  25.610  28.636  13.085
72225W        W43896  24.284   2.197   0.236
72226W        W43897  33.347  28.580   0.109
72227W        W43898  35.909  10.453   4.232
72228W        W43899   3.427   9.121   0.804
72229W        W43900   2.340  31.407   4.104
72230W        W43901   8.368  34.300   2.699
72231W        W43902  11.766   6.811   3.762
72232W        W43903   7.487  31.899  12.402
72233W        W43904  35.202  21.227  14.480
72234W        W43905  20.899  21.842   2.859
72235W        W43906  24.531  22.749  12.066
72236W        W43907  38.413  14.749  13.806
72237W        W43908  13.733   8.317   0.996
72238W        W43909   7.803  38.555  13.748
72239W        W43910  11.244   9.895   2.369
72240W        W43911  32.720  41.357   4.063
72241W        W43912  29.016  28.385   3.160
72242W        W43913  23.693  20.658   0.577
72243W        W43914   3.836  31.537  13.986
72244W        W43915  10.288  14.365   0.412
72245W        W43916   1.230  38.679   3.062
72246W        W43917  22.385  21.492   2.299
72247W        W43918  16.064  28.934  11.151
72248W        W43919  18.069  13.341   0.521
72249W        W43920  32.873  25.000   3.919
72250W        W43921  33.377  20.221  13.791
72251W        W43922  35.950  41.057  12.933
72252W        W43923  26.809  32.394   0.179
72253W        W43924  40.661   8.335  13.282
72254W        W43925  15.170  19.843  10.424
72255W        W43926   1.421  44.170   1.689
72256W        W43927  31.070  26.095  12.071
72257W        W43928  34.070  13.658   4.506
72258W        W43929  16.141  41.571   2.320
72259W        W43930  40.878  42.702   3.631
72260W        W43931  20.537  11.472   0.272
72261W        W43932  30.943  15.751  10.202
72262W        W43933  24.049  26.112   1.777
72263W        W43934  20.218   5.692   4.093
72264W        W43935  40.802   8.427   0.501
72265W        W43936  41.126  21.476  14.962
72266W        W43937  25.482  33.141  11.838
72267W        W43938  13.583  14.113  12.455
72268W        W43939   6.208  40.110   3.133
72269W        W43940  20.560  43.758   3.209
72270W        W43941  31.181   1.793   1.766
72271W        W43942   3.773  23.253   0.812
72272W        W43943  24.581  38.940  12.309
72273W        W43944   3.761   0.518   4.535
72274W        W43945  26.081  28.350  13.854
72275W        W43946  31.365  40.965  10.557
72276W        W43947  10.120  24.180  10.634
72277W        W43948  34.998   6.868   1.143
72278W        W43949  35.313  43.448  14.819
72279W        W43950  14.745  36.865  10.524
72280W        W43951  23.298  16.845   2.096
72281W        W43952  20.789  29.060  12.243
72282W        W43953  34.908   4.646  13.833
72283W        W43954   3.172  28.926   4.443
72284W        W43955  42.443   9.900   2.887
72285W        W43956  37.566  10.800   1.285
72286W        W43957  16.527  22.900   2.790
72287W        W43958  31.592  26.047  12.290
72288W        W43959   7.673   9.690  14.223
72289W        W43960   5.708   6.967   1.217
72290W        W43961  13.015  25.114  10.727
72291W        W43962  34.770   4.465   2.740
72292W        W43963   5.836  26.186   3.669
72293W        W43964  30.486  42.803  13.408
72294W        W43965  16.222  37.875  11.380
72295W        W43966  39.567  33.725   0.654
72296W        W43967  43.417  16.094   4.714
72297W        W43968  32.016  40.020   4.190
72298W        W43969  32.501  32.730  10.668
72299W        W43970  38.462  41.494  12.863
72300W        W43971  33.066  39.880   0.764
72301W        W43972  12.524  19.835   0.333
72302W        W43973  23.537  28.885  11.053
72303W        W43974   6.500  23.271  10.006
72304W        W43975   1.476  40.754  12.094
72305W        W43976  11.209  36.507   1.478
72306W        W43977  15.820  31.479  13.057
72307W        W43978  34.955  15.660  14.371
72308W        W43979  15.330  13.368  10.691
72309W        W43980  21.613  43.023  12.894
72310W        W43981  36.786  38.402   2.318
72311W        W43982  11.044  37.859  12.049
72312W        W43983   6.368   0.588  11.101
72313W        W43984  16.193  10.575  14.303
72314W        W43985  20.732  32.607   2.275
72315W        W43986   3.803   0.285  14.718
72316W        W43987   2.935  32.557  12.607
72317W        W43988  22.193   6.183  14.815
72318W        W43989  43.784  40.972  14.544
72319W        W43990  16.523  43.824   0.950
72320W        W43991  27.194  24.968  14.369
72321W        W43992  13.741   4.268   2.274
72322W        W43993  41.543  32.436  12.300
72323W        W43994  24.521  29.059   4.243
72324W        W43995  18.796  29.080   0.515
72325W        W43996   8.181  35.317  13.309
72326W        W43997  33.537  27.537   3.245
72327W        W43998  32.307  38.717   1.656
72328W        W43999   6.213  22.544  13.463
72329W        W44000  10.940   9.769   5.083
72330W        W44001  26.529  33.622   0.902
72331W        W44002  20.485  23.499   4.290
72332W        W44003  43.584   6.809  11.900
72333W        W44004  31.561  20.232   1.803
72334W        W44005  13.105  29.104   3.595
72335W        W44006   4.280  24.191  11.656
72336W        W44007   8.888  13.771  13.951
72337W        W44008   1.909  28.076   0.912
72338W        W44009  10.903  13.893  10.966
72339W        W44010  13.406  31.074   0.328
72340W        W44011   8.888  41.736  14.974
72341W        W44012  19.012  25.374   3.590
72342W        W44013  39.970  43.061   3.300
72343W        W44014  35.797  26.435  12.377
72344W        W44015  26.210   2.471   3.795
72345W        W44016  33.039   1.818  11.404
72346W        W44017  41.595   3.921  12.008
72347W        W44018   0.049  42.399  10.894
72348W        W44019  10.398  31.708  12.154
72349W        W44020  23.546  12.728   1.787
72350W        W44021  11.417  21.029   9.993
72351W        W44022  18.653  10.776   2.702
72352W        W44023   1.877  12.551  14.058
72353W        W44024  19.715  17.141   2.185
72354W        W44025  28.480  41.941  10.678
72355W        W44026   6.595  23.401  13.419
72356W        W44027  19.257  11.227   1.424
72357W        W44028  26.143  16.614   2.360
72358W        W44029   0.786  19.076   4.392
72359W        W44030  13.544   7.757   2.844
72360W        W44031  21.717  41.118   4.625
72361W        W44032  42.528  36.909  12.926
72362W        W44033  38.663   1.976   3.768
72363W        W44034  44.886  25.849  14.846
72364W        W44035  36.861   7.739  10.795
72365W        W44036   6.290  21.282  14.849
72366W        W44037   8.403   9.175   0.877
72367W        W44038  43.545   4.322   3.697
72368W        W44039  32.944  33.435   2.148
72369W        W44040   7.122  29.831  12.612
72370W        W44041   8.130  22.935  11.487
72371W        W44042  17.484  43.520  12.554
72372W        W44043  21.627   8.589   2.378
72373W        W44044  39.315  35.885   2.688
72374W        W44045  42.422  32.354   4.592
72375W        W44046   4.199  10.644  12.009
72376W        W44047  19.080  28.396  14.815
72377W        W44048   8.933   5.728   4.560
72378W        W44049  11.269  44.902   2.152
72379W        W44050  43.706  39.410   5.042
72380W        W44051   2.723  19.223   1.847
72381W        W44052  19.750  24.916  12.167
72382W        W44053  11.224   4.939   1.694
72383W        W44054  13.711  27.360  13.011
72384W        W44055  27.713  38.142   0.873
72385W        W44056  19.173  11.144   1.931
72386W        W44057  29.695   4.719   1.754
72387W        W44058   2.731  19.674   4.688
72388W        W44059  15.258  32.633  13.505
72389W        W44060  21.648  16.642  11.288
72390W        W44061  13.840  37.039   0.202
72391W        W44062  22.170  29.470   4.647
72392W        W44063   1.945   6.996  12.218
72393W        W44064  23.626  43.092  14.799
72394W        W44065  20.126   8.793   9.896
72395W        W44066   5.539  34.881  14.464
72396W        W44067  32.283  22.784  12.124
72397W        W44068  23.768  27.043   3.237
72398W        W44069  21.772  37.256   0.610
72399W        W44070  28.933   8.517   0.437
72400W        W44071  11.245   0.508   1.829
72401W        W44072   8.934  41.421   4.225
72402W        W44073  17.794  30.505  14.548
72403W        W44074  21.028   9.328   1.283
72404W        W44075   8.077  38.339  12.461
72405W        W44076  35.122  11.810  12.442
72406W        W44077  36.344   9.649   4.816
72407W        W44078  26.440  21.193   0.378
72408W        W44079   0.872   6.650  12.088
72409W        W44080  19.030  28.687   1.716
72410W        W44081  27.409  38.038   4.493
72411W        W44082   6.388  16.501   1.688
72412W        W44083  31.904  44.680  11.572
72413W        W44084  22.230  30.661   0.773
72414W        W44085  11.905  29.883  14.137
72415W        W44086  44.520  36.593  13.139
72416W        W44087  12.876  29.042  13.657
72417W        W44088   1.401  21.294   3.511
72418W        W44089   9.688   5.121   4.166
72419W        W44090  18.283  26.938  11.949
72420W        W44091  17.831  11.343   0.947
72421W        W44092  31.518   5.226   1.434
72422W        W44093  16.684  31.380   4.147
72423W        W44094  38.238  24.053   3.140
72424W        W44095  40.024  18.642  13.800
72425W        W44096  13.510  39.589  12.823
72426W        W44097  20.209   0.910  14.307
72427W        W44098  17.970  11.451   0.464
72428W        W44099  26.534  17.686   0.741
72429W        W44100  25.616  10.381   4.186
72430W        W44101  10.663  28.546   1.340
72431W        W44102  43.396  24.474   3.924
72432W        W44103   3.856  41.919  12.725
72433W        W44104  22.575  18.467   2.715
72434W        W44105   3.487  34.821   2.564
72435W        W44106  35.515  43.891   0.886
72436W        W44107   1.736  13.353   1.370
72437W        W44108   0.018  32.365   1.278
72438W        W44109  16.680  44.359  13.783
72439W        W44110   5.141   0.817  13.377
72440W        W44111  15.039  39.558   2.876
72441W        W44112   0.087  32.423   3.166
72442W        W44113  36.897  36.677   1.413
72443W        W44114  44.984  34.070   4.720
72444W        W44115  19.019  15.543  10.927
72445W        W44116  36.589  19.092   2.326
72446W        W44117  31.303  29.154   2.730
72447W        W44118  34.189  30.530   2.630
72448W        W44119  37.515   7.635  12.036
72449W        W44120  10.869  34.608   0.805
72450W        W44121  14.381  44.946  11.441
72451W        W44122  13.206  41.436  10.293
72452W        W44123   8.913  31.814   2.353
72453W        W44124  39.386   4.734   0.975
72454W        W44125  28.247  19.274  13.383
72455W        W44126   1.956   9.243  13.585
72456W        W44127  12.550   2.504  12.804
72457W        W44128  29.384  13.561  10.653
72458W        W44129  29.814  16.239  14.940
72459W        W44130  34.875   6.896   3.211
72460W        W44131  15.315  28.194  11.478
72461W        W44132  40.389  41.024  10.721
72462W        W44133   5.460  26.715  11.954
72463W        W44134  15.138  16.171   2.042
72464W        W44135  24.450   7.172  13.916
72465W        W44136  38.291  17.502   4.594
72466W        W44137  15.329  29.591   1.987
72467W        W44138   0.325   4.217   0.149
72468W        W44139  14.412  38.991   2.590
72469W        W44140   8.623   4.279  12.190
72470W        W44141   2.466  22.626  14.812
72471W        W44142  24.600  41.565   1.313
72472W        W44143  35.506  22.032  10.775
72473W        W44144  21.216  14.373   3.121
72474W        W44145   0.716  14.592   2.995
72475W        W44146  22.668  19.225  10.137
72476W        W44147  31.953  20.288  11.554
72477W        W44148  18.511  15.780   4.722
72478W        W44149   5.136  37.937   2.358
72479W        W44150  34.858  24.632   2.405
72480W        W44151  17.244  11.400   3.625
72481W        W44152  28.182  36.022  14.726
72482W        W44153  35.908  21.890   4.716
72483W        W44154  32.730   6.072  14.843
72484W        W44155  36.239  19.472   3.374
72485W        W44156  19.819  13.553  14.550
72486W        W44157  40.533  35.808   5.006
72487W        W44158   7.267   3.847   4.158
72488W        W44159  13.197  37.478   3.274
72489W        W44160  26.658  37.149  10.665
72490W        W44161   0.508  28.026   0.710
72491W        W44162   8.124   0.090  12.394
72492W        W44163  13.103  21.458  14.306
72493W        W44164  10.737  42.276  14.515
72494W        W44165  44.821  20.335   3.294
72495W        W44166  24.870  21.144   3.787
72496W        W44167  16.206  14.691   2.859
72497W        W44168  40.392  22.772  10.239
72498W        W44169  43.760  38.818   4.208
72499W        W44170  18.946   1.030  13.296
72500W        W44171  10.116   1.780   3.343
72501W        W44172  10.879  12.277  13.649
72502W        W44173   2.756  40.958  13.837
72503W        W44174   3.856  32.172  11.204
72504W        W44175  42.615   4.965  11.642
72505W        W44176  30.617   4.921   2.390
72506W        W44177  14.818  21.532   1.654
72507W        W44178   4.527  34.545   1.537
72508W        W44179   6.399   3.825  12.112
72509W        W44180  19.984  37.460   1.746
72510W        W44181   3.485  13.780  13.312
72511W        W44182  35.088  35.947   4.150
72512W        W44183  21.693  41.438  13.612
72513W        W44184   3.414  28.575   0.549
72514W        W44185  36.063  41.839   0.528
72515W        W44186  15.506  10.077  14.722
72516W        W44187   3.319   0.791   4.456
72517W        W44188  22.175  37.732  13.373
72518W        W44189   7.611  34.478  12.456
72519W        W44190  37.843  29.957  13.351
72520W        W44191   2.563  17.544  11.568
72521W        W44192  11.741  13.299   1.466
72522W        W44193   0.277  13.902  13.801
72523W        W44194  27.145  37.447   0.401
72524W        W44195  44.309   4.898   2.917
72525W        W44196   2.222  20.146   9.821
72526W        W44197   6.542  11.905   0.288
72527W        W44198  34.464   6.929   3.719
72528W        W44199   6.643  31.837  10.929
72529W        W44200  33.075  13.825  14.814
72530W        W44201  19.133  15.906  14.859
72531W        W44202   7.602  37.143  11.253
72532W        W44203  16.624  15.531   1.390
72533W        W44204  27.574  12.352   4.539
72534W        W44205  36.962  31.152  11.606
72535W        W44206  17.644  28.169  10.717
72536W        W44207  14.292  25.927   0.405
72537W        W44208  22.130  33.617   3.459
72538W        W44209  11.787  13.133  10.571
72539W        W44210  36.777  37.019  12.936
72540W        W44211  18.246  34.984   2.277
72541W        W44212   5.683  31.060   0.454
72542W        W44213  37.064  34.830  12.342
72543W        W44214   1.601   9.233   1.915
72544W        W44215  18.013  17.759   2.554
72545W        W44216  27.843  16.718   0.369
72546W        W44217  30.980  16.691  10.682
72547W        W44218   5.938  25.974  12.182
72548W        W44219  32.320  31.091  11.416
72549W        W44220  34.556  21.540  13.483
72550W        W44221   9.100   6.358   0.683
72551W        W44222   9.836   5.439   4.591
72552W        W44223  33.567  19.125  12.014
72553W        W44224  41.087  23.542  13.071
72554W        W44225   1.402  34.552   1.675
72555W        W44226  19.122  24.956  13.361
72556W        W44227  42.867   0.017  10.676
72557W        W44228  23.222  41.798  11.613
72558W        W44229  36.074  37.940   1.922
72559W        W44230  10.692   2.308  10.825
72560W        W44231  14.230  32.105  13.502
72561W        W44232  40.838  35.549   2.825
72562W        W44233   2.419  25.071   4.585
72563W        W44234   6.177  39.070   1.893
72564W        W44235  14.666  34.328  12.553
72565W        W44236   1.037  16.840  11.860
72566W        W44237  34.507  31.549   1.294
72567W        W44238  26.973  32.838   0.399
72568W        W44239  31.414  10.009   1.376
72569W        W44240  22.469  32.103  13.417
72570W        W44241  40.507  26.477   2.095
72571W        W44242  12.306  18.250  12.001
72572W        W44243  20.764  23.469  11.123
72573W        W44244  22.720  26.991   0.192
72574W        W44245  14.762  16.366  12.098
72575W        W44246   4.703  22.564   3.141
72576W        W44247  39.762  38.740   1.228
72577W        W44248  17.297  44.929  12.467
72578W        W44249  13.279  36.947  13.393
72579W        W44250  19.824  33.045   0.510
72580W        W44251   3.771   9.958  13.021
72581W        W44252  29.067   3.250   1.776
72582W        W44253  10.982  26.151   2.147
72583W        W44254  31.717  40.396   1.933
72584W        W44255  13.304  23.772  13.828
72585W        W44256  16.573  26.231   4.427
72586W        W44257  25.982   2.289   0.880
72587W        W44258  27.643  25.211  13.457
72588W        W44259   1.255  20.690  12.178
72589W        W44260  26.295  30.129   1.700
72590W        W44261   5.741  39.697  10.283
72591W        W44262  24.087  38.255   4.713
72592W        W44263  32.485  26.600  11.553
72593W        W44264  21.533  28.436  11.028
72594W        W44265  40.638   8.622   2.243
72595W        W44266  42.903  11.903   9.827
72596W        W44267  30.218  23.872  11.160
72597W        W44268  44.879  10.338  12.178
72598W        W44269  23.241  44.468   3.713
72599W        W44270  33.134   9.688   4.394
72600W        W44271  36.100  35.232   5.227
72601W        W44272  12.812   7.472   3.838
72602W        W44273   8.755  44.454   4.539
72603W        W44274  27.038  33.302  12.994
72604W        W44275   0.450  30.369  10.449
72605W        W44276  21.239  31.598  11.970
72606W        W44277  43.300  30.908  13.951
72607W        W44278  29.656   0.515  12.549
72608W        W44279  11.667  15.078   3.315
72609W        W44280  25.606   1.857  11.127
72610W        W44281  34.510  24.257   0.774
72611W        W44282   8.749  13.871   1.451
72612W        W44283  14.233  32.040  14.487
72613W        W44284   5.166  32.108  10.742
72614W        W44285   0.770   7.156   4.609
72615W        W44286  37.034  24.641   1.667
72616W        W44287  12.893  35.586   2.270
72617W        W44288   4.911  36.518   1.893
72618W        W44289  17.767  16.533  14.979
72619W        W44290  26.864  24.328   4.970
72620W        W44291   4.922  39.220   2.392
72621W        W44292  38.480  36.124   0.455
72622W        W44293  10.624   2.325   3.847
72623W        W44294  30.476  17.952   1.495
72624W        W44295  32.693  35.324   4.960
72625W        W44296  16.091  13.865  11.081
72626W        W44297  20.709  30.863   0.129
72627W        W44298  18.657   7.763   0.288
72628W        W44299  11.378  27.679  14.847
72629W        W44300  29.372  23.217   1.590
72630W        W44301  27.621  28.357  13.477
72631W        W44302  39.511  29.666  11.207
72632W        W44303  42.403  24.568   0.340
72633W        W44304  19.721   1.172   1.362
72634W        W44305   4.370  41.721   0.249
72635W        W44306  34.854  21.955  11.167
72636W        W44307  14.894  26.163  12.350
72637W        W44308  24.460  24.834  14.715
72638W        W44309  10.201   8.365   0.760
72639W        W44310   9.630   1.817   3.230
72640W        W44311  31.114  41.555  13.497
72641W        W44312  33.069   6.457   3.101
72642W        W44313  24.121  44.139   3.938
72643W        W44314  11.929  10.274  10.377
72644W        W44315   9.825  12.607  14.538
72645W        W44316  40.604  16.168  12.882
72646W        W44317  35.369  26.655   0.339
72647W        W44318  36.845   0.199   2.268
72648W        W44319  30.627  43.688  12.253
72649W        W44320   7.998  37.414  13.407
72650W        W44321  38.922   7.441   1.063
72651W        W44322  44.567  12.921   1.805
72652W        W44323  32.032  36.031   2.407
72653W        W44324  28.699  16.588   1.871
72654W        W44325  27.281  38.341  10.608
72655W        W44326  41.008  34.119  11.195
72656W        W44327  13.349  41.960   3.809
72657W        W44328  35.143   5.888  13.890
72658W        W44329  31.851  35.338  14.364
72659W        W44330  21.756  23.003   3.275
72660W        W44331   1.188  39.234  12.695
72661W        W44332  30.123  11.307   4.938
72662W        W44333  24.315  42.624  13.751
72663W        W44334   7.530  11.454  11.093
72664W        W44335  18.967   0.985  14.564
72665W        W44336   6.164   2.700  14.572
72666W        W44337   8.782  35.240   2.317
72667W        W44338  44.660  35.858   4.035
72668W        W44339  37.863  23.116  14.409
72669W        W44340  32.155  12.315   1.886
72670W        W44341  41.851  40.411  14.038
72671W        W44342  15.930  37.901  13.427
72672W        W44343  21.797  22.688  10.148
72673W        W44344  16.206  32.036  13.553
72674W        W44345  27.104  20.093  14.575
72675W        W44346  18.366  24.859  10.157
72676W        W44347  24.108  34.915   4.122
72677W        W44348  32.309  27.003  14.985
72678W        W44349   5.369  10.152   3.787
72679W        W44350  21.542  31.568   2.943
72680W        W44351  39.750  24.746   4.135
72681W        W44352   6.934  27.522   0.387
72682W        W44353  34.851  18.227   2.822
72683W        W44354  16.512  29.608   2.825
72684W        W44355  10.558  33.623  14.123
72685W        W44356  35.774  10.309  11.073
72686W        W44357  37.992  19.759  14.995
72687W        W44358  21.060   8.646  11.269
72688W        W44359  28.802  29.568   3.731
72689W        W44360   5.508   7.501   4.775
72690W        W44361  10.086  31.562  11.206
72691W        W44362  30.575  25.270   2.290
72692W        W44363  33.800  34.998  10.825
72693W        W44364  34.612  25.532   4.353
72694W        W44365  19.819  38.705   5.320
72695W        W44366   7.545   2.206   2.793
72696W        W44367  12.901  29.507  13.377
72697W        W44368  40.993  38.468  13.280
72698W        W44369  13.576  39.015  14.094
72699W        W44370  22.337   6.542  12.918
72700W        W44371  37.480   0.732   1.725
72701W        W44372  25.424   9.724   1.127
72702W        W44373  39.845  18.880  13.044
72703W        W44374  40.230  37.134  11.901
72704W        W44375   1.902  13.296   2.410
72705W        W44376  22.051   7.818   0.395
72706W        W44377  42.979  19.493   3.813
72707W        W44378  35.941  27.990  12.880
72708W        W44379   0.485  11.683   3.912
72709W        W44380  37.353  10.237   3.852
72710W        W44381  18.606  43.307   0.301
72711W        W44382  38.523  24.752   0.887
72712W        W44383   4.147   2.918  11.578
72713W        W44384   7.381   7.497  11.137
72714W        W44385  19.556  41.390  13.979
72715W        W44386  20.675  43.979  10.483
72716W        W44387  19.568   6.332  13.991
72717W        W44388  14.713  17.971   4.539
72718W        W44389  29.633  28.274  12.191
72719W        W44390  12.160  14.192  13.074
72720W        W44391  37.013   9.912  13.336
72721W        W44392  35.957  38.326  13.348
72722W        W44393  43.316  17.118   3.397
72723W        W44394   6.777  28.463   3.065
72724W        W44395  38.647  34.491   3.566
72725W        W44396  29.715  16.695   1.612
72726W        W44397  39.712  37.475   4.908
72727W        W44398  17.379   9.065   5.170
72728W        W44399  41.221   8.901  10.944
72729W        W44400  22.150  18.604  12.467
72730W        W44401   4.913  17.683  11.617
72731W        W44402  11.578   2.167   1.881
72732W        W44403   7.366  35.027  14.436
72733W        W44404  26.190  25.138   3.688
72734W        W44405  16.343   0.509   5.059
72735W        W44406  30.657  44.817  11.387
72736W        W44407  30.435  22.056  14.509
72737W        W44408  23.070  33.627   3.920
72738W        W44409  25.489   3.127  10.327
72739W        W44410  35.685  36.388   9.758
72740W        W44411  23.087  24.491   2.339
72741W        W44412  41.433  16.408  10.732
72742W        W44413  14.618  12.409  11.802
72743W        W44414  33.516  16.739   2.366
72744W        W44415  17.490   3.379  10.932
72745W        W44416  33.837  44.402  13.959
72746W        W44417  18.367  34.928  13.439
72747W        W44418  10.917  15.314   3.836
72748W        W44419  38.329  19.916  13.877
72749W        W44420  17.062   4.435  12.767
72750W        W44421  17.393  15.524  14.415
72751W        W44422  13.204   2.544   1.303
72752W        W44423  24.492  35.397   3.647
72753W        W44424  32.708  15.582   2.181
72754W        W44425  30.660  31.076   4.778
72755W        W44426  11.269  43.776  11.223
72756W        W44427   7.900   9.687   4.168
72757W        W44428  17.486  19.470  12.881
72758W        W44429  35.869  30.469  13.604
72759W        W44430  37.998   1.791  14.429
72760W        W44431  31.378  44.747   4.120
72761W        W44432  34.483  15.813  13.793
72762W        W44433  30.136  10.718   0.858
72763W        W44434  11.776  17.622   3.318
72764W        W44435   4.922  29.947   1.362
72765W        W44436  43.898  39.621  11.938
72766W        W44437  18.636  39.061  11.689
72767W        W44438  10.575  42.322  11.125
72768W        W44439   5.898   7.975   0.317
72769W        W44440  26.003  11.849   1.502
72770W        W44441   7.868   0.839   1.183
72771W        W44442  12.375  39.323   3.682
72772W        W44443   5.099  36.076  10.626
72773W        W44444   8.182   9.741  11.230
72774W        W44445  20.585  23.257  13.483
72775W        W44446  29.675   1.033   5.187
72776W        W44447  22.538   3.706   4.112
72777W        W44448  33.141  30.879  11.939
72778W        W44449  33.649  23.550   1.848
72779W        W44450  32.550   7.517   4.739
72780W        W44451  31.513  16.092  13.588
72781W        W44452  20.483  26.581   2.927
72782W        W44453  35.783  18.886   4.029
72783W        W44454  17.317   3.416   4.232
72784W        W44455  32.058  25.073   3.372
72785W        W44456  40.449   6.331  13.592
72786W        W44457  28.318  19.965   1.813
72787W        W44458  22.441   4.997  11.937
72788W        W44459  27.227   4.987   2.410
72789W        W44460  13.118  27.675  11.107
72790W        W44461  26.702  34.200   0.397
72791W        W44462  15.800  32.517  12.898
72792W        W44463   9.229  26.251  11.569
72793W        W44464  12.238   2.854   0.010
72794W        W44465  43.699   6.873  13.029
72795W        W44466   8.606   5.173  12.583
72796W        W44467   6.391  29.626   4.332
72797W        W44468  28.882  14.081  11.983
72798W        W44469   3.276  16.019   2.188
72799W        W44470  28.979  17.652  11.212
72800W        W44471   9.260   5.917   1.527
72801W        W44472  35.810   4.622  12.025
72802W        W44473  34.469   0.712  10.961
72803W        W44474  16.767  22.665   3.207
72804W        W44475   4.578  30.308  11.615
72805W        W44476   3.690  25.966   2.542
72806W        W44477  19.626  40.377   4.330
72807W        W44478   5.964  43.038  14.860
72808W        W44479  40.844   5.026   2.852
72809W        W44480  20.401  28.585   5.117
72810W        W44481  25.712   7.281   2.364
72811W        W44482  25.137  23.970  13.839
72812W        W44483   2.829  32.146   4.675
72813W        W44484  32.419   2.204  10.745
72814W        W44485  27.172  10.802  14.383
72815W        W44486  19.275  28.901   2.682
72816W        W44487  23.792  23.743   4.534
72817W        W44488  27.638  42.555   3.721
72818W        W44489  38.774  41.930  13.890
72819W        W44490  43.893  22.724   0.352
72820W        W44491  36.112  19.679  11.598
72821W        W44492   8.641  36.136  12.009
72822W        W44493   4.067  40.369   1.247
72823W        W44494  43.589  39.858   1.727
72824W        W44495  24.060  40.863   1.086
72825W        W44496  38.576  34.210   4.583
72826W        W44497  39.252   4.979   3.721
72827W        W44498  24.288  11.728   2.765
72828W        W44499  31.389  17.966   4.223
72829W        W44500  35.394   2.116  11.054
72830W        W44501  39.098  41.765   4.921
72831W        W44502  40.344  28.805  13.031
72832W        W44503  35.127  44.925   1.837
72833W        W44504   4.232  18.325  14.061
72834W        W44505  20.765  12.608   5.469
72835W        W44506  24.626  22.342  14.484
72836W        W44507  13.612  30.815  14.532
72837W        W44508  11.826  30.426   2.705
72838W        W44509  10.760  14.060  12.881
72839W        W44510   2.215  32.433   4.141
72840W        W44511  23.943  15.272  11.884
72841W        W44512  20.971  17.683   2.365
72842W        W44513  36.378  16.289  14.934
72843W        W44514  20.778  32.571  13.162
72844W        W44515   1.495  15.138  12.423
72845W        W44516  33.570  10.123   2.691
72846W        W44517   5.276  21.716   2.760
72847W        W44518  26.529  41.223   4.327
72848W        W44519   4.536  35.227  14.496
72849W        W44520  16.519  14.732   4.097
72850W        W44521   1.032  16.150   3.044
72851W        W44522   3.277  34.144  12.874
72852W        W44523   0.021  33.363   1.394
72853W        W44524   5.081  42.492  13.147
72854W        W44525   4.519   7.260  14.229
72855W        W44526  15.141  35.539  11.681
72856W        W44527  32.894  41.275  11.104
72857W        W44528  41.900  16.418   0.338
72858W        W44529  27.432   9.371  12.040
72859W        W44530  40.468  22.088  13.140
72860W        W44531  12.379  42.125  12.419
72861W        W44532  18.191  29.625  13.855
72862W        W44533  42.930  11.170  13.051
72863W        W44534  42.257  17.159  11.960
72864W        W44535  24.707  10.414   3.072
72865W        W44536  18.273  34.043  10.630
72866W        W44537  28.007  42.481  12.621
72867W        W44538  20.708  27.528  10.859
72868W        W44539  30.579  25.469  12.471
72869W        W44540  40.736  36.055   3.752
72870W        W44541  27.635  41.833  14.757
72871W        W44542  27.044  31.986  13.351
72872W        W44543  30.667  36.512  11.977
72873W        W44544  19.889   6.248   3.243
72874W        W44545  43.815  24.558   2.204
72875W        W44546  35.522  10.428   0.741
72876W        W44547  27.392   5.868  14.529
72877W        W44548  20.641  43.422  14.781
72878W        W44549   1.228  19.147  13.373
72879W        W44550  44.147  16.286  10.375
72880W        W44551   9.461  25.779  10.708
72881W        W44552  10.541  27.902   0.187
72882W        W44553  42.804   1.981  14.594
72883W        W44554  17.124  27.228   3.613
72884W        W44555   3.035  15.725   4.107
72885W        W44556   3.522  22.163   5.681
72886W        W44557  19.498  11.780   2.653
72887W        W44558   3.721  25.419  13.024
72888W        W44559   4.603  29.236   5.020
72889W        W44560  31.611  20.470   2.275
72890W        W44561  25.067   4.505   2.254
72891W        W44562   5.024  37.911  12.485
72892W        W44563  39.602  40.811   2.719
72893W        W44564  42.223   8.781  13.904
72894W        W44565  29.613  26.716   4.646
72895W        W44566  31.732  33.897   2.504
72896W        W44567  40.381   1.955  13.843
72897W        W44568  34.408   6.127  13.799
72898W        W44569   0.714  12.432   4.223
72899W        W44570  44.885  16.446   4.242
72900W        W44571   1.513  26.561   4.672
72901W        W44572  23.231  21.798   3.778
72902W        W44573  18.177  28.885  13.361
72903W        W44574  10.261  36.058  14.061
72904W        W44575  11.855  24.334   0.527
72905W        W44576  20.515  16.658  10.629
72906W        W44577   4.473  28.064  10.671
72907W        W44578  30.004  28.189  14.588
72908W        W44579  12.684  34.979  13.916
72909W        W44580  39.569  31.163   0.343
72910W        W44581   5.149   9.246   4.596
72911W        W44582  19.919   9.701   1.762
72912W        W44583   5.844  38.296   1.885
72913W        W44584  16.505  17.554   2.220
72914W        W44585  31.511  16.800  10.779
72915W        W44586  34.690  22.066   0.190
72916W        W44587  16.062  32.511   3.635
72917W        W44588  24.375  14.283  12.021
72918W        W44589   1.480   0.150  11.545
72919W        W44590  10.227   8.320  13.892
72920W        W44591  21.167   3.727   4.978
72921W        W44592  30.234  32.388  12.443
72922W        W44593  37.365  14.222  14.026
72923W        W44594  37.553  41.041   2.734
72924W        W44595  21.187  24.324  10.962
72925W        W44596   9.345  35.463  11.852
72926W        W44597  11.426  17.718  14.323
72927W        W44598  18.087  27.365  13.419
72928W        W44599  44.905  19.472  14.373
72929W        W44600  37.350   0.837  11.246
72930W        W44601   2.244  41.282  11.182
72931W        W44602  15.255   0.569  13.747
72932W        W44603  20.498  20.091   1.273
72933W        W44604   8.373  12.272  11.609
72934W        W44605  34.211   9.796   2.119
72935W        W44606   0.319  21.409  13.977
72936W        W44607  10.556   4.099  13.967
72937W        W44608  18.208  17.177   3.579
72938W        W44609  33.113   0.784  13.362
72939W        W44610  38.527  27.139   4.357
72940W        W44611   2.361   5.703  10.432
72941W        W44612  23.553  27.637  10.665
72942W        W44613  26.519   1.901   0.268
72943W        W44614  44.645   9.657   0.527
72944W        W44615   5.243  25.768   3.264
72945W        W44616   8.157  22.961   2.705
72946W        W44617  38.454  44.799   2.832
72947W        W44618  21.709  42.893   0.895
72948W        W44619   4.507  27.611  11.856
72949W        W44620  32.515  30.925   2.642
72950W        W44621  12.886  25.192   0.498
72951W        W44622  21.676  14.306   0.801
72952W        W44623  11.243  15.353   3.155
72953W        W44624  22.995   3.268  14.416
72954W        W44625  33.198   4.036  13.476
72955W        W44626   3.998  17.588  12.529
72956W        W44627  37.729  16.307   1.409
72957W        W44628  36.990  11.359   0.741
72958W        W44629  27.578  16.096   2.005
72959W        W44630  40.156  35.942  11.235
72960W        W44631  23.079  30.427   3.291
72961W        W44632   2.870   6.168   2.894
72962W        W44633   5.257  39.164   0.485
72963W        W44634   5.732   1.325  14.410
72964W        W44635  21.442  13.294  12.459
72965W        W44636  12.620  35.854  12.968
72966W        W44637  19.823   2.553  13.843
72967W        W44638  41.086  13.636  12.540
72968W        W44639  36.900   0.852   0.983
72969W        W44640   6.740  25.750   0.740
72970W        W44641   5.494  28.846  13.424
72971W        W44642   0.781  36.932   1.841
72972W        W44643   7.932  25.599   0.488
72973W        W44644   2.047  28.565  11.760
72974W        W44645  13.079   2.936   0.690
72975W        W44646  24.672   2.231  14.883
72976W        W44647  37.072  18.286  14.388
72977W        W44648  13.412  33.434   1.965
72978W        W44649  30.969  32.542   3.308
72979W        W44650  24.919  27.725   1.647
72980W        W44651   3.282  41.768  11.075
72981W        W44652  15.685  33.599   4.137
72982W        W44653  15.689   6.779   1.465
72983W        W44654  41.336   2.500  11.144
72984W        W44655  42.302  32.039  11.539
72985W        W44656   8.644  11.694  11.641
72986W        W44657   3.949  31.318  14.477
72987W        W44658  35.804  26.541   2.887
72988W        W44659  15.221   8.046  11.516
72989W        W44660  15.009  42.889  14.582
72990W        W44661  28.445  23.682  11.622
72991W        W44662   7.189  32.258   1.280
72992W        W44663  40.401  11.856  14.278
72993W        W44664  33.013  17.080   4.195
72994W        W44665   2.162  28.498  13.943
72995W        W44666  17.256  13.360  14.830
72996W        W44667  32.380  26.566  14.087
72997W        W44668  34.453  29.186   1.350
72998W        W44669   4.166  40.161   0.772
72999W        W44670  19.090  43.398   2.524
73000W        W44671  18.796  36.515   2.164
73001W        W44672  42.985   1.650   4.114
73002W        W44673  38.425  19.823  12.124
73003W        W44674   5.757  40.519   4.808
73004W        W44675  16.598  12.736  14.514
73005W        W44676  31.365  12.124   1.778
73006W        W44677  30.810  41.979   4.572
73007W        W44678  11.702   6.200   5.037
73008W        W44679  34.339  12.763  12.015
73009W        W44680  32.637  28.758  13.404
73010W        W44681  14.603  33.538   0.663
73011W        W44682  21.277  29.613   3.645
73012W        W44683  16.599  29.513  11.665
73013W        W44684  11.869  39.387  11.133
73014W        W44685   3.827   9.504  10.896
73015W        W44686  28.818   5.144  14.036
73016W        W44687  35.020  31.062  12.033
73017W        W44688  17.646  16.865  14.416
73018W        W44689   2.639  35.460  13.084
73019W        W44690   6.238   3.912  14.047
73020W        W44691   0.306  28.036  10.609
73021W        W44692  19.757  18.436  11.812
73022W        W44693  38.348  36.358   0.925
73023W        W44694  15.905   5.146   1.801
73024W        W44695  36.405  44.815   0.430
73025W        W44696   8.132  38.616   3.214
73026W        W44697  15.564  42.244   0.416
73027W        W44698  26.566  28.230   2.222
73028W        W44699  35.102  40.247   0.085
73029W        W44700  31.598   8.882  10.673
73030W        W44701  42.373   3.323   1.900
73031W        W44702  11.857  27.879  14.867
73032W        W44703  32.927  32.647  12.810
73033W        W44704  27.434  21.351   4.239
73034W        W44705  28.182  44.305  11.502
73035W        W44706  17.254  34.221   3.780
73036W        W44707  10.753  43.291  14.992
73037W        W44708  14.316   8.608  11.489
73038W        W44709  18.045   6.110   2.665
73039W        W44710  25.235   5.122  10.745
73040W        W44711  29.640   7.719   0.400
73041W        W44712  12.519  21.581   2.852
73042W        W44713  25.443  11.286  14.985
73043W        W44714  38.264  20.529   0.834
73044W        W44715   4.263  26.606  11.579
73045W        W44716  20.477   8.158  11.603
73046W        W44717  13.291  33.683  11.070
73047W        W44718  23.759  22.122   0.853
73048W        W44719   2.649   3.519  10.623
73049W        W44720   6.099  10.511   9.902
73050W        W44721  16.897  18.641  13.949
73051W        W44722  31.174  21.112   3.732
73052W        W44723  16.269   8.541  13.961
73053W        W44724  24.991  18.089   3.609
73054W        W44725   5.064  32.818   2.430
73055W        W44726  26.728  25.786   4.180
73056W        W44727   9.179  37.234   3.230
73057W        W44728   2.461   0.991  10.824
73058W        W44729  27.339  15.867  13.388
73059W        W44730  41.932  38.810   0.789
73060W        W44731  32.663  32.876   3.680
73061W        W44732   7.832  33.696  10.954
73062W        W44733  37.580  40.466  14.926
73063W        W44734  37.337   8.978   1.226
73064W        W44735   8.234   9.828   3.358
73065W        W44736   9.682  25.650  14.905
73066W        W44737  15.101  34.448   1.444
73067W        W44738  11.747  37.898   3.508
73068W        W44739  42.545   8.559  12.403
73069W        W44740  41.753  13.808   1.571
73070W        W44741  17.205  10.132  11.860
73071W        W44742   3.536  16.693   3.276
73072W        W44743  39.226  30.409  13.425
73073W        W44744  34.442  13.678  12.027
73074W        W44745  23.705  22.081   3.906
73075W        W44746  24.589  34.122  14.344
73076W        W44747  28.652  17.857  14.031
73077W        W44748  42.757  18.608  11.120
73078W        W44749  16.820  33.462  13.804
73079W        W44750  27.787   9.729   1.252
73080W        W44751   8.265   9.100  14.859
73081W        W44752  35.671   9.216   0.963
73082W        W44753  10.248  39.069   1.478
73083W        W44754  29.116  13.934   0.312
73084W        W44755  28.161  27.998  14.877
73085W        W44756  34.101  23.142  12.025
73086W        W44757   2.766  26.566   2.708
73087W        W44758  12.775  33.659  13.865
73088W        W44759   5.463  21.904   2.330
73089W        W44760  25.550   4.270  14.576
73090W        W44761  22.443   5.910  12.122
73091W        W44762  35.875   2.855   0.283
73092W        W44763  25.327  33.151  14.887
73093W        W44764  27.594  33.173  13.974
73094W        W44765  20.496  35.802  14.112
73095W        W44766  11.327  33.697  11.204
73096W        W44767  10.706  32.088   4.056
73097W        W44768  39.427  33.656   4.749
73098W        W44769  34.804  44.651   2.366
73099W        W44770  36.613  14.602  11.610
73100W        W44771  35.138  23.956  14.695
73101W        W44772   7.908  24.611  13.563
73102W        W44773  42.290  16.303   4.145
73103W        W44774  20.203  23.262  11.307
73104W        W44775  39.509  39.480   4.284
73105W        W44776  43.656  33.963   2.087
73106W        W44777  29.074   3.859  13.303
73107W        W44778  34.574  20.761   2.968
73108W        W44779  21.093  44.465   2.348
73109W        W44780  35.912  15.451  11.961
73110W        W44781  36.132  25.347   3.704
73111W        W44782  37.984  27.938   1.877
73112W        W44783  37.207  39.185   0.400
73113W        W44784  34.969  12.648  13.961
73114W        W44785  19.259  41.346   2.175
73115W        W44786  26.943  27.690  13.861
73116W        W44787  43.094  41.999   2.655
73117W        W44788  41.557  26.775  12.947
73118W        W44789  44.590  24.163   0.403
73119W        W44790  42.121  34.528   0.470
73120W        W44791   8.445  17.387   1.020
73121W        W44792   8.049   2.339   2.745
73122W        W44793  15.007  37.403  12.081
73123W        W44794  31.370   1.283   0.759
73124W        W44795  26.636  10.305  12.087
73125W        W44796  25.772  19.463   3.267
73126W        W44797  16.135  31.501  14.402
73127W        W44798  38.477  31.481  10.440
73128W        W44799  21.778  32.124  11.542
73129W        W44800  43.981   0.961  14.863
73130W        W44801  21.160  19.203  14.723
73131W        W44802   9.037  32.922   2.868
73132W        W44803   1.835  33.249   0.780
73133W        W44804  27.924  36.358  13.389
73134W        W44805  17.079  30.625  12.471
73135W        W44806  38.773  40.818  11.123
73136W        W44807   9.681  12.703   0.035
73137W        W44808   2.703  20.302  13.094
73138W        W44809   7.974  24.038  12.857
73139W        W44810  13.166  24.257  13.065
73140W        W44811  23.165  17.054  10.821
73141W        W44812  42.393  16.503  11.546
73142W        W44813  37.340  28.131   1.111
73143W        W44814  29.006  31.590   3.243
73144W        W44815  42.892  31.838  10.764
73145W        W44816  32.662   0.905  11.171
73146W        W44817  33.644  29.111   0.351
73147W        W44818  35.191  25.986  10.824
73148W        W44819   6.494  33.368   3.795
73149W        W44820   3.186  42.234   0.822
73150W        W44821  41.591  28.291   2.991
73151W        W44822  14.460  27.958  13.276
73152W        W44823  37.613   0.445  13.561
73153W        W44824  30.897  33.900   1.891
73154W        W44825  32.496  15.314   4.510
73155W        W44826   9.883   9.142  12.156
73156W        W44827  39.064   1.023  13.689
73157W        W44828  42.293  37.480  12.381
73158W        W44829   0.475  19.517  11.161
73159W        W44830  43.674  31.791  14.853
73160W        W44831   8.783   3.305  10.490
73161W        W44832  11.593  27.194   0.437
73162W        W44833  30.511  21.095  11.153
73163W        W44834   3.411  12.505   2.659
73164W        W44835  20.785  41.086  13.655
73165W        W44836  13.180  20.442   0.915
73166W        W44837  29.514   6.183  11.107
73167W        W44838   5.858  17.713   3.145
73168W        W44839  16.805  14.891  10.663
73169W        W44840  16.380  25.750   1.173
73170W        W44841   4.724   5.725  12.090
73171W        W44842   3.591   7.499  10.699
73172W        W44843  25.501  24.649   2.635
73173W        W44844   5.377  35.654  10.803
73174W        W44845  20.999  38.517   1.211
73175W        W44846   2.078  23.590  12.791
73176W        W44847  21.992  13.263  12.376
73177W        W44848  33.454  37.540  12.551
73178W        W44849  16.019  43.219  13.549
73179W        W44850  23.731  36.304  13.380
73180W        W44851   9.258  35.570   0.944
73181W        W44852  23.059  28.608  13.974
73182W        W44853  13.096  22.214   2.173
73183W        W44854  10.729  14.355  13.374
73184W        W44855  30.600   7.290  13.046
73185W        W44856   6.443  36.179  10.570
73186W        W44857   0.401   7.406   1.233
73187W        W44858   3.084  36.024  11.292
73188W        W44859   2.953  34.879  10.552
73189W        W44860  18.746   5.224  11.563
73190W        W44861   3.461  13.379  14.707
73191W        W44862  32.951  40.417  13.808
73192W        W44863  42.752  11.419   1.617
73193W        W44864  29.988  10.816  13.582
73194W        W44865  28.161  13.573   3.846
73195W        W44866   1.971  12.707   0.012
73196W        W44867  35.902  43.678   1.135
73197W        W44868   9.274  21.050   1.509
73198W        W44869  35.398  14.052  14.340
73199W        W44870   7.881  40.819  14.499
73200W        W44871  16.620  33.339  11.849
73201W        W44872  34.956   6.792  12.531
73202W        W44873  26.943  10.067   9.837
73203W        W44874  23.262  40.269   4.960
73204W        W44875  31.277   8.874  11.973
73205W        W44876  18.624   7.221  13.810
73206W        W44877  34.328   3.906  14.265
73207W        W44878  18.206  25.447   1.950
73208W        W44879  19.546  20.096  10.516
73209W        W44880  31.181  31.505  14.932
73210W        W44881  24.702   9.262   0.473
73211W        W44882   2.324  32.204   1.892
73212W        W44883  37.570  40.201  14.478
73213W        W44884   2.138  22.434   4.595
73214W        W44885   9.233  36.807   1.829
73215W        W44886  37.200  16.532  11.286
73216W        W44887  29.855  13.140  11.630
73217W        W44888  17.686  34.211  14.415
73218W        W44889   1.392  26.243  12.925
73219W        W44890  43.554  37.825   4.581
73220W        W44891  24.382  34.990   2.788
73221W        W44892  10.723  13.111   0.786
73222W        W44893   1.234   6.393   0.642
73223W        W44894  20.638  30.199  14.437
73224W        W44895   0.392  40.418   2.282
73225W        W44896   0.445  42.557   2.644
73226W        W44897  10.528  39.648  13.511
73227W        W44898  37.750  20.543   3.184
73228W        W44899  32.721  23.978   4.345
73229W        W44900  25.558  26.188   4.328
73230W        W44901   9.652  28.186  10.533
73231W        W44902   3.461   5.115   0.380
73232W        W44903  37.881  14.523   1.306
73233W        W44904   8.513  21.283  11.682
73234W        W44905  17.627   5.189  13.633
73235W        W44906  18.780   9.249  13.393
73236W        W44907  40.518  12.053  12.935
73237W        W44908  15.597   1.718   4.708
73238W        W44909   8.970  26.471   3.985
73239W        W44910  26.430  16.082  12.356
73240W        W44911  31.127  18.640  11.989
73241W        W44912   6.365  14.710   4.395
73242W        W44913  14.627  22.087   4.320
73243W        W44914  24.362  22.252  11.276
73244W        W44915  28.574  41.478   0.196
73245W        W44916  42.456  31.518  10.737
73246W        W44917  34.931  44.029  10.571
73247W        W44918  35.576  14.146   1.760
73248W        W44919  27.171   5.246  11.698
73249W        W44920  12.265  38.562  12.781
73250W        W44921  19.512  44.287  13.125
73251W        W44922  44.154  41.902  12.517
73252W        W44923  34.381   2.642  13.502
73253W        W44924  30.601  36.865  14.042
73254W        W44925   8.578  36.486  11.042
73255W        W44926  42.404  19.215   1.410
73256W        W44927  29.773  29.031  14.919
73257W        W44928  24.713   8.780  12.978
73258W        W44929  16.646   6.898   3.095
73259W        W44930  11.892  33.330   1.109
73260W        W44931  39.914  39.908  10.897
73261W        W44932  15.970  21.200   2.101
73262W        W44933  25.207  18.599   3.603
73263W        W44934  18.717  33.931   1.239
73264W        W44935  18.691  13.092   3.713
73265W        W44936   5.129  39.946   3.173
73266W        W44937  35.025  15.781  14.906
73267W        W44938  27.176  26.938  14.571
73268W        W44939   8.836   3.703  13.875
73269W        W44940  17.417  31.230   3.960
73270W        W44941  25.078  28.236   1.712
73271W        W44942  24.591   8.706  13.863
73272W        W44943  39.786   7.171  14.906
73273W        W44944  12.175  32.885   1.863
73274W        W44945  19.185   5.076  12.090
73275W        W44946   2.885  22.551  14.508
73276W        W44947  43.088  14.395   3.403
73277W        W44948  25.666  40.920   2.135
73278W        W44949  11.131  30.158  14.027
73279W        W44950  43.003  37.050   0.368
73280W        W44951  44.416  41.827  11.122
73281W        W44952   6.365   1.228   4.876
73282W        W44953  43.929  27.931  13.328
73283W        W44954   7.948  13.365   2.438
73284W        W44955  42.093   6.262  12.618
73285W        W44956  15.205  24.129   1.509
73286W        W44957   0.665  36.052  12.471
73287W        W44958  27.517  35.445   0.239
73288W        W44959  42.055  23.283  10.092
73289W        W44960  10.100   1.683   0.917
73290W        W44961  18.220  17.137   2.288
73291W        W44962  33.812  21.172   3.253
73292W        W44963  24.082  11.982  11.909
73293W        W44964  12.598  34.590  13.324
73294W        W44965  13.573   5.282  12.427
73295W        W44966  25.441  29.084   4.578
73296W        W44967  37.809  34.603   3.087
73297W        W44968   6.183  20.360  10.205
73298W        W44969   6.851   6.413   1.862
73299W        W44970   3.841  25.010   2.312
73300W        W44971  23.248  19.198   0.371
73301W        W44972   5.661  38.786   0.361
73302W        W44973   0.381   6.196   2.406
73303W        W44974  42.851  34.073   4.607
73304W        W44975  35.516   8.214   0.213
73305W        W44976  34.895  19.152   2.817
73306W        W44977  26.992  42.900   2.047
73307W        W44978   8.155   3.996   4.408
73308W        W44979  32.424  17.746   3.840
73309W        W44980  20.565  21.098  11.349
73310W        W44981  19.542  15.337   0.228
73311W        W44982  13.079  44.330  12.081
73312W        W44983  39.325  37.159   0.377
73313W        W44984   0.233  24.481   1.247
73314W        W44985  38.416  11.832  11.688
73315W        W44986   5.639   3.990   2.058
73316W        W44987  41.808  38.614  10.223
73317W        W44988  18.509   3.914  13.134
73318W        W44989   0.316  29.119  10.787
73319W        W44990  43.979   0.446  14.862
73320W        W44991  34.854  39.449  13.280
73321W        W44992  30.470  22.057   4.428
73322W        W44993  30.388  13.775  10.661
73323W        W44994  17.387  15.524   3.711
73324W        W44995   5.296  10.445  10.569
73325W        W44996   0.378  17.382  13.900
73326W        W44997  30.267  32.015   2.937
73327W        W44998  41.397  40.140   3.163
73328W        W44999  30.861   4.989   1.206
73329W        W45000  35.188  13.424   1.408
73330W        W45001  16.201  35.434   2.409
73331W        W45002  16.279  26.076  14.075
73332W        W45003  14.624   5.121  13.834
73333W        W45004  36.402  37.965  12.254
73334W        W45005  23.981  32.896   1.227
73335W        W45006   1.449  33.399  12.812
73336W        W45007  33.550  32.055  14.890
73337W        W45008  27.582  38.767   2.050
73338W        W45009  42.262  32.850  14.011
73339W        W45010  30.476  36.168   4.093
73340W        W45011  33.340  27.755  12.983
73341W        W45012  28.554  31.055  14.738
73342W        W45013  35.486  42.545   2.275
73343W        W45014  33.927   1.430   2.195
73344W        W45015  18.288   3.633   4.255
73345W        W45016  27.917   7.877  13.837
73346W        W45017  15.394  26.275   2.084
73347W        W45018  25.584   1.980  14.519
73348W        W45019  32.627  34.053   1.276
73349W        W45020  40.835   7.735  14.795
73350W        W45021  23.046   1.290   2.729
73351W        W45022  18.534  30.561   3.916
73352W        W45023  29.048   1.977   1.472
73353W        W45024  36.084   5.926   1.392
73354W        W45025  25.146  44.933  12.456
73355W        W45026  16.553  23.593   0.209
73356W        W45027  17.814  23.613   1.709
73357W        W45028   7.216  31.185  11.489
73358W        W45029  40.653  19.589  14.141
73359W        W45030  16.576  27.742   1.384
73360W        W45031   9.337  43.141  14.850
73361W        W45032  23.960   0.797   1.902
73362W        W45033   2.561  10.782  12.562
73363W        W45034  29.543  19.697  12.386
73364W        W45035   9.955  15.818  13.857
73365W        W45036   1.353  43.953   4.683
73366W        W45037  22.627  23.739  13.275
73367W        W45038  33.126  13.868   0.319
73368W        W45039   4.982   9.876   1.478
73369W        W45040  35.827  12.615  12.944
73370W        W45041  18.691  33.292   3.272
73371W        W45042  10.655   5.003  14.970
73372W        W45043  31.501  19.456   0.748
73373W        W45044  31.166  42.420   3.949
73374W        W45045  16.822  30.889  14.868
73375W        W45046  23.126   9.788  14.066
73376W        W45047  31.632  44.857   2.489
73377W        W45048  34.089  32.780   1.861
73378W        W45049  34.155  13.128   3.644
73379W        W45050  43.074  24.014  13.865
73380W        W45051  22.708   6.304  11.917
73381W        W45052  17.951  43.543  13.582
73382W        W45053   1.771  44.940  10.532
73383W        W45054  10.849  43.228  13.949
73384W        W45055  32.603  21.018   0.497
73385W        W45056   6.478  19.979  11.557
73386W        W45057  43.932  22.028   5.186
73387W        W45058   4.682   5.436   2.847
73388W        W45059   2.833   5.680  11.121
73389W        W45060  38.505  19.684   1.390
73390W        W45061  16.776   1.177   0.314
73391W        W45062   4.394  10.668   0.970
73392W        W45063  37.216  34.020  10.300
73393W        W45064  31.968  26.918   4.134
73394W        W45065  27.216  13.401  13.859
73395W        W45066  29.870  16.625   4.107
73396W        W45067  41.483  18.284  12.381
73397W        W45068   6.249   6.206   2.483
73398W        W45069  22.207   8.667  13.542
73399W        W45070  11.118  40.461  10.218
73400W        W45071  18.888  17.197   0.784
73401W        W45072   0.613  10.283  12.903
73402W        W45073  25.466  28.043   0.292
73403W        W45074  18.975  30.028  14.338
73404W        W45075  22.029  14.041  12.890
73405W        W45076  41.048  12.657   1.187
73406W        W45077  37.425  19.537   4.751
73407W        W45078  12.761   6.462   3.759
73408W        W45079  33.934   5.705  12.635
73409W        W45080   0.486  37.990   2.334
73410W        W45081  10.788   0.962  12.308
73411W        W45082   2.751  35.246  14.818
73412W        W45083  28.097  42.074  14.836
73413W        W45084  19.199   6.624   4.919
73414W        W45085  31.997  40.653  14.041
73415W        W45086  30.104  37.169   2.697
73416W        W45087  34.539  22.628   3.529
73417W        W45088  37.012  17.636  10.599
73418W        W45089   6.952  35.342  14.325
73419W        W45090   9.050  15.627   3.619
73420W        W45091  20.721   8.895  13.427
73421W        W45092  34.090  32.457  12.358
73422W        W45093  14.377  19.227   2.332
73423W        W45094  34.871   1.885   1.708
73424W        W45095  35.092  32.775   1.098
73425W        W45096   6.332  29.102   0.823
73426W        W45097  21.178  43.510  11.055
73427W        W45098  42.357   1.550   0.362
73428W        W45099   1.277  29.423  14.967
73429W        W45100  27.750  25.689   0.038
73430W        W45101  31.673  39.854  13.467
73431W        W45102  33.568  36.963   1.218
73432W        W45103   2.336  20.989   4.187
73433W        W45104  40.975  22.956  13.926
73434W        W45105  10.653   9.045  10.685
73435W        W45106  10.256  17.576  14.861
73436W        W45107  24.261  43.920   5.028
73437W        W45108  35.144  35.492   4.849
73438W        W45109  18.992  32.080  11.227
73439W        W45110  40.350  35.922   1.981
73440W        W45111   5.091   8.097  14.415
73441W        W45112  24.120  35.897  14.532
73442W        W45113   0.069  21.600   1.633
73443W        W45114  42.335  27.029   3.987
73444W        W45115  11.832  32.830   0.315
73445W        W45116  43.895   9.206  12.945
73446W        W45117  30.139  39.875  13.453
73447W        W45118   1.778  15.098   2.038
73448W        W45119  26.776   1.488   0.408
73449W        W45120  10.327  36.072   0.434
73450W        W45121  22.753  19.082   0.419
73451W        W45122  16.731  40.322   0.794
73452W        W45123  24.580  28.502  14.584
73453W        W45124  10.918  17.706   3.928
73454W        W45125  34.122  28.231   0.394
73455W        W45126  19.220  16.999  11.587
73456W        W45127  32.996   4.772  14.999
73457W        W45128  29.725   3.249  14.487
73458W        W45129  19.248  17.602   4.651
73459W        W45130  20.893  15.040   2.192
73460W        W45131  33.537   9.853   1.289
73461W        W45132  17.182  13.614   1.782
73462W        W45133  21.726  41.666   3.445
73463W        W45134   9.911   8.718  13.976
73464W        W45135  35.944  21.752   0.914
73465W        W45136  44.704  32.901  13.013
73466W        W45137  35.691  25.144   4.568
73467W        W45138  25.574   6.602   3.233
73468W        W45139  33.041  40.936   4.687
73469W        W45140   3.165  16.074   3.707
73470W        W45141   3.274   8.908  13.487
73471W        W45142  31.534   6.398  12.592
73472W        W45143  34.464  44.501  14.779
73473W        W45144  11.843  28.407  10.866
73474W        W45145  36.998   9.166  10.697
73475W        W45146  12.716  22.031   2.727
73476W        W45147  38.506  27.013   0.323
73477W        W45148  34.653  44.606   5.014
73478W        W45149   3.759  16.229   2.201
73479W        W45150   3.547   6.390  13.824
73480W        W45151   8.318  35.946  11.669
73481W        W45152  38.877  19.321   1.305
73482W        W45153  39.701  43.046   5.056
73483W        W45154  20.792  39.341   4.626
73484W        W45155  36.415  20.788   0.055
73485W        W45156  28.569   0.677  11.891
73486W        W45157  31.145  40.603  12.068
73487W        W45158   5.294  27.121   2.648
73488W        W45159  15.616  15.316  14.505
73489W        W45160   5.224   1.128  10.649
73490W        W45161  36.917  19.070   1.221
73491W        W45162  14.201  23.669   4.790
73492W        W45163   5.199   2.372  12.229
73493W        W45164  26.364  15.720   3.285
73494W        W45165  25.142  17.055  13.132
73495W        W45166   2.683  11.145   3.123
73496W        W45167  11.407   6.862  13.520
73497W        W45168  23.826  18.334   2.834
73498W        W45169  11.107  40.377  12.113
73499W        W45170  25.121   8.632   3.736
73500W        W45171   2.716   0.704   0.727
73501W        W45172  33.067  30.985   2.329
73502W        W45173   2.488  11.709   0.045
73503W        W45174  12.787  18.025  11.994
73504W        W45175  27.242  19.267  11.140
73505W        W45176  12.734   2.990   5.067
73506W        W45177   0.421   6.924  12.127
73507W        W45178   0.065   2.397  12.520
73508W        W45179  35.413  14.526  10.968
73509W        W45180  15.025   1.557  14.041
73510W        W45181  24.670  19.451   0.773
73511W        W45182  42.379  32.634  13.510
73512W        W45183  32.596   0.111   3.615
73513W        W45184  28.856   7.808   0.103
73514W        W45185  23.685  20.753  10.804
73515W        W45186  20.160  43.084  14.066
73516W        W45187   6.125  28.452  14.492
73517W        W45188  43.892  42.610   3.770
73518W        W45189  38.968  31.282  14.451
73519W        W45190  12.150  23.021  10.490
73520W        W45191  25.870  42.564   0.013
73521W        W45192  37.788  27.475  10.704
73522W        W45193  29.207   3.193  14.418
73523W        W45194  33.697  34.028   4.706
73524W        W45195   3.941  16.072   4.168
73525W        W45196   5.405  30.946   0.034
73526W        W45197  17.773  38.935   1.865
73527W        W45198  24.138  18.466  12.945
73528W        W45199   4.292  21.703   4.906
73529W        W45200  16.617  12.362  11.668
73530W        W45201  18.730  14.132  14.621
73531W        W45202  24.862  34.346  11.575
73532W        W45203   7.660  41.874  12.508
73533W        W45204  10.321   0.019  11.118
73534W        W45205  11.294  23.696  11.497
73535W        W45206  36.856  21.649  12.033
73536W        W45207  18.262  38.604  10.955
73537W        W45208   7.489  20.210  12.503
73538W        W45209  28.143  20.251  11.048
73539W        W45210   5.603  24.882  12.081
73540W        W45211  33.000   2.671   2.175
73541W        W45212  30.189   2.863  11.613
73542W        W45213  39.269  38.840   1.264
73543W        W45214  44.934  22.439   4.645
73544W        W45215  13.319   1.463   4.465
73545W        W45216  27.876  39.442  12.208
73546W        W45217  42.342   0.003  14.591
73547W        W45218  31.563  41.321  13.395
73548W        W45219  31.556  12.282  11.697
73549W        W45220  16.694   7.767   2.894
73550W        W45221  12.863  34.842   4.228
73551W        W45222  44.435  29.430  13.962
73552W        W45223  11.379   3.529   2.805
73553W        W45224  39.504   3.915  14.029
73554W        W45225  19.081  14.732  13.574
73555W        W45226  27.667  34.663   4.162
73556W        W45227  28.553  35.130   1.443
73557W        W45228   8.122  28.445   2.869
73558W        W45229  40.632  22.711   0.284
73559W        W45230  28.602   1.141   0.427
73560W        W45231  31.933  21.508  11.058
73561W        W45232  29.112  29.975   3.521
73562W        W45233  25.721  27.608   0.384
73563W        W45234  33.077  13.575   4.244
73564W        W45235   1.592  19.112   3.181
73565W        W45236   6.818  24.594   2.643
73566W        W45237  22.120  10.000  13.006
73567W        W45238  31.383  22.192   1.972
73568W        W45239   7.354  38.916  10.683
73569W        W45240   1.579  18.957   3.673
73570W        W45241  14.840  40.149  10.195
73571W        W45242  13.656   2.425   2.833
73572W        W45243  16.588  17.655   1.102
73573W        W45244   8.479  29.737  14.409
73574W        W45245  37.767  38.998   1.132
73575W        W45246  44.824  34.999   4.551
73576W        W45247  13.660   7.293  13.547
73577W        W45248  35.891  35.874   0.535
73578W        W45249  44.497  10.810  11.436
73579W        W45250  32.312  38.710   2.854
73580W        W45251   7.000   3.953   2.764
73581W        W45252   2.205  35.386   2.513
73582W        W45253  29.629   1.693   0.670
73583W        W45254  32.945  43.237  13.276
73584W        W45255  26.605  24.797   5.068
73585W        W45256  21.401  28.214  10.590
73586W        W45257  26.645  40.341  10.863
73587W        W45258  44.961  15.586  13.798
73588W        W45259  12.346  29.146  14.043
73589W        W45260  21.969  38.764  14.240
73590W        W45261  28.776  43.893   3.200
73591W        W45262   8.751  37.652   1.896
73592W        W45263  12.303  27.110  13.795
73593W        W45264  43.527  10.118  13.718
73594W        W45265  34.458   3.206  13.486
73595W        W45266  31.038  39.973   1.441
73596W        W45267  15.419  42.367  13.020
73597W        W45268  23.531   0.224  13.557
73598W        W45269  36.430  29.174   3.815
73599W        W45270   1.487  34.092   3.673
73600W        W45271  14.033   0.781   3.863
73601W        W45272  44.658  42.332   1.541
73602W        W45273  34.664   1.099  10.658
73603W        W45274  38.689  42.381   4.230
73604W        W45275  22.149   7.259   4.528
73605W        W45276  18.928  30.468   3.153
73606W        W45277  17.890  21.680   1.796
73607W        W45278  18.232  24.014   0.996
73608W        W45279  12.367  39.482  13.612
73609W        W45280  24.952  16.823  12.123
73610W        W45281  28.218  13.447  12.527
73611W        W45282  35.117  12.687  14.927
73612W        W45283  10.737   4.408   2.823
73613W        W45284   4.113  25.994   1.235
73614W        W45285  18.687   2.786  13.985
73615W        W45286   4.928  42.569   3.811
73616W        W45287   1.279  44.179   3.819
73617W        W45288  23.171  33.820   0.297
73618W        W45289   7.168  40.323   4.585
73619W        W45290  20.429  22.575  12.941
73620W        W45291  35.187  14.887   2.928
73621W        W45292  15.172   9.537   4.076
73622W        W45293   0.326  43.342  12.526
73623W        W45294  32.319  33.969   1.685
73624W        W45295   2.337  36.853  13.173
73625W        W45296  14.578  22.901  13.911
73626W        W45297  43.755  13.962   3.457
73627W        W45298  31.688   6.875  11.645
73628W        W45299  36.219  24.147  12.388
73629W        W45300  41.822  25.663   3.651
73630W        W45301  16.814   0.760  13.731
73631W        W45302  20.156   0.392   1.658
73632W        W45303  37.435  19.979   2.971
73633W        W45304   8.595  40.540   0.029
73634W        W45305  36.796  43.996   1.896
73635W        W45306  34.395  19.724   2.231
73636W        W45307  26.923  24.981  10.760
73637W        W45308  21.997  41.025   0.763
73638W        W45309  32.308  23.227   0.662
73639W        W45310  10.972  32.426   3.248
73640W        W45311  11.846   1.659   0.342
73641W        W45312  35.998  34.058   4.333
73642W        W45313  42.986  17.514   5.157
73643W        W45314  23.031   4.291  14.455
73644W        W45315  23.693  29.949  13.289
73645W        W45316  20.835   3.307   0.696
73646W        W45317  24.658  38.801   2.843
73647W        W45318  25.053   0.863  11.543
73648W        W45319  20.493  39.369   2.347
73649W        W45320  35.122  39.097   3.218
73650W        W45321  28.643   9.288   1.972
73651W        W45322  30.522  39.931  11.574
73652W        W45323  30.649  33.434   1.870
73653W        W45324   3.908   5.595   1.460
73654W        W45325   7.473  38.328  13.385
73655W        W45326  29.452   4.940   4.490
73656W        W45327   9.164  30.433   0.145
73657W        W45328  29.917  38.208   1.965
73658W        W45329  18.528   6.730  12.997
73659W        W45330  26.151  17.324  13.587
73660W        W45331  33.107  10.735  10.671
73661W        W45332  19.449   5.402  13.749
73662W        W45333   8.489   0.986  11.658
73663W        W45334  43.797  19.143   0.391
73664W        W45335  42.001  44.423  10.697
73665W        W45336  35.140  14.380   2.881
73666W        W45337  24.700  32.690  11.497
73667W        W45338  19.986   4.251   3.861
73668W        W45339  11.678  16.386   0.768
73669W        W45340  36.543  37.039  11.063
73670W        W45341  18.536   9.775  11.328
73671W        W45342   9.685  40.664   0.062
73672W        W45343  12.130  10.232   0.844
73673W        W45344  30.067  39.862  12.674
73674W        W45345  19.052  15.128  12.961
73675W        W45346  19.986  29.049  11.683
73676W        W45347  16.271  42.297  10.646
73677W        W45348  42.294  37.463  14.869
73678W        W45349  44.806  21.557   5.088
73679W        W45350  22.463   3.612  12.066
73680W        W45351  22.601   2.564   0.413
73681W        W45352  24.610  20.176  12.412
73682W        W45353  35.827  43.936   4.776
73683W        W45354  25.368  10.206  13.021
73684W        W45355  13.462  40.550   1.146
73685W        W45356   9.782  37.478  10.297
73686W        W45357  41.770  23.482  14.910
73687W        W45358  11.227  17.109   2.812
73688W        W45359   7.882   5.256  11.501
73689W        W45360  25.178  20.019   4.122
73690W        W45361   2.330  43.250   4.045
73691W        W45362  19.308   2.845  11.187
73692W        W45363   4.596   6.212  12.989
73693W        W45364   2.898  14.801  12.551
73694W        W45365   6.765  14.118   1.981
73695W        W45366  16.959  20.210   0.884
73696W        W45367  35.428  32.434   1.265
73697W        W45368   1.616  40.145   3.297
73698W        W45369  15.873  24.512   3.262
73699W        W45370  35.503  17.039  12.853
73700W        W45371  43.393  22.701   2.599
73701W        W45372   8.508  38.267   1.278
73702W        W45373   6.269  17.449  12.222
73703W        W45374  21.374  28.996   3.353
73704W        W45375  14.259  40.011   3.180
73705W        W45376  43.353  35.946   4.647
73706W        W45377  17.675  40.595  10.533
73707W        W45378  25.254  10.535  14.408
73708W        W45379  18.851   1.736  13.654
73709W        W45380   8.598  25.754   3.437
73710W        W45381  28.266  42.665  14.005
73711W        W45382  15.696  13.544  13.049
73712W        W45383  24.739   5.345  14.090
73713W        W45384  14.166  21.582  14.297
73714W        W45385  23.263   8.276   2.441
73715W        W45386  27.609  26.043  11.750
73716W        W45387  38.918   2.843   2.181
73717W        W45388  33.824  33.639  11.989
73718W        W45389  24.649   9.019   2.715
73719W        W45390  24.642  29.205   1.793
73720W        W45391  19.513  37.875   4.247
73721W        W45392   9.404  43.717  11.260
73722W        W45393   5.422  40.811  12.906
73723W        W45394  29.547   0.950  14.636
73724W        W45395   2.335  30.996  14.303
73725W        W45396   1.065  18.201  10.213
73726W        W45397  13.089  40.061   0.938
73727W        W45398  25.652  27.742  13.154
73728W        W45399  41.422  15.329   0.861
73729W        W45400  20.289   2.377   2.743
73730W        W45401  14.087  18.827   2.181
73731W        W45402  20.084  44.690  14.450
73732W        W45403  18.499  26.761   3.731
73733W        W45404   5.456  11.522  12.723
73734W        W45405  44.032  35.798  12.915
73735W        W45406  44.753  35.099   1.897
73736W        W45407  35.251  17.174   1.320
73737W        W45408   2.856   9.312   3.298
73738W        W45409  32.443   3.865   2.710
73739W        W45410  22.569   6.672   0.425
73740W        W45411  16.593  11.826  11.676
73741W        W45412  32.917  14.764  10.525
73742W        W45413  24.423   5.072  14.956
73743W        W45414   5.351   7.747   0.360
73744W        W45415  35.073   8.714   4.147
73745W        W45416  10.631  44.031  12.414
73746W        W45417  20.518  22.718  14.936
73747W        W45418  11.087  37.367   3.169
73748W        W45419  18.851  37.585  14.822
73749W        W45420  20.193  17.619   3.640
73750W        W45421  27.949   9.422   4.172
73751W        W45422   8.789  30.230  12.045
73752W        W45423  24.052  26.256  12.925
73753W        W45424  12.025  25.183   0.919
73754W        W45425  27.486  31.645  11.486
73755W        W45426  12.038  31.047  12.654
73756W        W45427   4.299  19.872  13.405
73757W        W45428  25.208  17.762  11.886
73758W        W45429  17.329  13.717  13.824
73759W        W45430  40.425  13.615  13.917
73760W        W45431  17.625  19.733   1.463
73761W        W45432  10.318  40.012   1.699
73762W        W45433  23.542  26.420  13.527
73763W        W45434  38.404   5.391   4.143
73764W        W45435  43.666  12.427   2.926
73765W        W45436  30.767  42.232  13.047
73766W        W45437   9.289  38.505  11.971
73767W        W45438  18.209  36.308   3.443
73768W        W45439   9.160  44.796   1.419
73769W        W45440  15.509  42.509   4.488
73770W        W45441   4.264   9.062   3.137
73771W        W45442  19.808  41.768  12.998
73772W        W45443   6.827   4.452   1.896
73773W        W45444  18.677  22.129   1.932
73774W        W45445  13.690  27.133  10.793
73775W        W45446   2.714  16.269   3.560
73776W        W45447  43.660   3.447  12.793
73777W        W45448  18.175  22.482  14.775
73778W        W45449  25.336  37.506  12.995
73779W        W45450   2.810   6.362   0.173
73780W        W45451  24.501   4.401   2.283
73781W        W45452   3.531  25.728  12.648
73782W        W45453   4.786  20.020  13.571
73783W        W45454   7.703  19.676  14.282
73784W        W45455   3.972  17.031   1.845
73785W        W45456  42.017   4.923  14.690
73786W        W45457   8.284  27.043   4.003
73787W        W45458  26.424  25.603   2.864
73788W        W45459   8.347  41.571  10.830
73789W        W45460  41.902  44.991   3.484
73790W        W45461  10.476  29.569  13.820
73791W        W45462  18.694  12.121  10.146
73792W        W45463  21.277   7.405   3.517
73793W        W45464  26.731  27.958  14.772
73794W        W45465  34.013  25.113   0.959
73795W        W45466  19.977   8.203  11.956
73796W        W45467  38.503   5.628   1.231
73797W        W45468  12.229   9.227   1.004
73798W        W45469   4.993  20.881  12.984
73799W        W45470  13.701  31.271   2.305
73800W        W45471   1.007  43.892   2.438
73801W        W45472  32.238  11.304  14.425
73802W        W45473  42.361  17.347  11.170
73803W        W45474  22.499  42.969   3.147
73804W        W45475   1.247  10.266  14.145
73805W        W45476  27.958   2.367  14.934
73806W        W45477  13.880  11.533   1.437
73807W        W45478  22.254  32.633  13.881
73808W        W45479  42.835  17.135  14.200
73809W        W45480  43.995  10.561  14.093
73810W        W45481  17.007  26.965   3.177
73811W        W45482   9.459   3.020  14.313
73812W        W45483   9.593  42.934   2.843
73813W        W45484  25.749  43.416   0.009
73814W        W45485   1.013  25.647  14.456
73815W        W45486  17.623  12.265   0.362
73816W        W45487   4.824  22.986   4.449
73817W        W45488  21.247   6.366  14.001
73818W        W45489  26.911  29.000   0.841
73819W        W45490   2.272  43.999  13.989
73820W        W45491  22.697  40.080   2.270
73821W        W45492  12.968  11.318  12.088
73822W        W45493  10.618  42.271  13.987
73823W        W45494  36.133   2.753   2.464
73824W        W45495  12.405   6.892  12.408
73825W        W45496  25.755   6.930  13.815
73826W        W45497  20.796  20.245  12.956
73827W        W45498  20.547  33.106  11.914
73828W        W45499  17.968  23.867   3.710
73829W        W45500   5.737  18.266   4.616
73830W        W45501  30.465   0.480   2.370
73831W        W45502  10.244  26.756   1.961
73832W        W45503  12.875  21.187  10.661
73833W        W45504  10.834  26.011   4.663
73834W        W45505   4.381  44.131   1.012
73835W        W45506  22.725  34.649  12.733
73836W        W45507   3.789   1.964   3.135
73837W        W45508  13.003   1.672  13.047
73838W        W45509   3.917  36.776   1.121
73839W        W45510  28.447  22.662   1.341
73840W        W45511  21.563  35.511   3.131
73841W        W45512  15.778   2.819  12.911
73842W        W45513  19.776  18.786   2.305
73843W        W45514  17.115  22.182  14.761
73844W        W45515   5.672  19.356  13.445
73845W        W45516  32.629  17.568  10.744
73846W        W45517  31.570  21.724   0.520
73847W        W45518  13.608  20.801  11.596
73848W        W45519  23.607   5.308   4.243
73849W        W45520   4.384  41.571  13.541
73850W        W45521   9.809   3.697   3.221
73851W        W45522  29.682  12.240  13.537
73852W        W45523   7.112  34.114   3.175
73853W        W45524   6.284  25.938   4.403
73854W        W45525  19.115   4.975  14.366
73855W        W45526  25.383  12.599  11.349
73856W        W45527  25.163  30.447  12.977
73857W        W45528  41.878  31.512   1.363
73858W        W45529  30.723  35.591  11.971
73859W        W45530  33.392  11.724  12.909
73860W        W45531  22.435   1.962   2.251
73861W        W45532  11.833  41.314  13.118
73862W        W45533  35.451  31.039   3.692
73863W        W45534  14.439  41.486  13.027
73864W        W45535  35.898  37.315  11.086
73865W        W45536   1.895  40.475  13.540
73866W        W45537   7.158  13.978  11.528
73867W        W45538  19.539  35.573   2.321
73868W        W45539  16.750  25.020   3.759
73869W        W45540  13.192  28.007  13.480
73870W        W45541  34.701   6.222   3.353
73871W        W45542  31.910  30.615  14.380
73872W        W45543  23.693  36.227  12.772
73873W        W45544  32.983  43.794   0.135
73874W        W45545  27.086  15.127  12.958
73875W        W45546  23.507   1.770   3.169
73876W        W45547   0.483  44.961   3.412
73877W        W45548  33.872  30.046   4.269
73878W        W45549  39.514   2.229   3.723
73879W        W45550   0.707   9.264  11.208
73880W        W45551  31.079  20.066  12.876
73881W        W45552   2.274  40.037  14.059
73882W        W45553  40.879  15.336   0.847
73883W        W45554  17.313   2.548   2.128
73884W        W45555  17.673  24.615  14.223
73885W        W45556  38.696   3.731   2.206
73886W        W45557   0.175   9.700   0.325
73887W        W45558  17.285   3.675   3.381
73888W        W45559  40.238   9.711  11.020
73889W        W45560  10.903   6.337   0.874
73890W        W45561   3.302  25.913   4.129
73891W        W45562  32.664  28.401   1.318
73892W        W45563  11.852  27.212   1.491
73893W        W45564  37.842   8.114   0.555
73894W        W45565  33.371  28.849  11.236
73895W        W45566  22.585  12.284   2.240
73896W        W45567   9.759  28.026   3.856
73897W        W45568  42.257  21.233   3.147
73898W        W45569  31.957  18.586   0.931
73899W        W45570  12.210  29.020   3.718
73900W        W45571  23.705  30.987   4.542
73901W        W45572  25.074  44.908  11.577
73902W        W45573  35.105  19.702  10.675
73903W        W45574  30.654  10.099   0.644
73904W        W45575  25.037  27.084   2.633
73905W        W45576  29.813  39.483  13.993
73906W        W45577  26.036  15.205  13.807
73907W        W45578  32.145  38.512   2.113
73908W        W45579  23.128  23.694   0.259
73909W        W45580  14.996   0.025   1.283
73910W        W45581  41.365  29.494   4.540
73911W        W45582   2.918  35.445  10.668
73912W        W45583   4.066  17.669  11.340
73913W        W45584  22.002   2.733  11.730
73914W        W45585  44.102   8.839  12.572
73915W        W45586  23.473  24.677  14.454
73916W        W45587  27.492  25.518  12.842
73917W        W45588  11.919  23.769   4.901
73918W        W45589   3.662   5.048  14.887
73919W        W45590  33.963   0.697   0.839
73920W        W45591  29.012  25.709  13.838
73921W        W45592  22.005  32.471   0.789
73922W        W45593   8.498  44.962  12.707
73923W        W45594  10.255  14.149  13.538
73924W        W45595   5.757   3.278   1.278
73925W        W45596  35.984  12.585  10.696
73926W        W45597  29.477  27.719  10.770
73927W        W45598  17.360  18.078  11.133
73928W        W45599  35.771  29.648   4.338
73929W        W45600  16.771   0.988   3.246
73930W        W45601  13.722  30.053  11.048
73931W        W45602  26.010  32.426  11.545
73932W        W45603  27.292  18.793  11.329
73933W        W45604  16.210  40.309   1.317
73934W        W45605  31.151  31.670   0.817
73935W        W45606  24.963   0.647  11.100
73936W        W45607   6.863  14.011  10.847
73937W        W45608  24.509   1.867   3.380
73938W        W45609  16.548  12.094   0.773
73939W        W45610  18.672  40.153   0.495
73940W        W45611   6.864  31.086  12.905
73941W        W45612  16.198  16.176  14.352
73942W        W45613   0.208  27.267   0.627
73943W        W45614   6.564  29.945  12.000
73944W        W45615  43.355   2.872   4.789
73945W        W45616  18.566  38.087  13.938
73946W        W45617  18.423  19.825   4.666
73947W        W45618   8.307  24.177  14.946
73948W        W45619  27.868  21.105   2.589
73949W        W45620  19.625   0.406  13.781
73950W        W45621  41.611   7.807  12.477
73951W        W45622  26.920  34.506   1.278
73952W        W45623  18.056   4.457   4.639
73953W        W45624  25.284  27.047  14.385
73954W        W45625  28.629  26.618  13.591
73955W        W45626  18.102  29.577  12.478
73956W        W45627  26.700   7.727  12.430
73957W        W45628  26.092  40.266   2.343
73958W        W45629  27.637  37.782  14.038
73959W        W45630  16.531   9.090  14.788
73960W        W45631  25.101  35.925  10.780
73961W        W45632  40.388  12.582  11.501
73962W        W45633  36.255  40.789  14.300
73963W        W45634   7.939  37.831   2.755
73964W        W45635  15.679  26.120   1.692
73965W        W45636  26.187   2.736   1.485
73966W        W45637  29.116  17.130  14.382
73967W        W45638  43.508  16.344   4.032
73968W        W45639  31.961  26.920   3.209
73969W        W45640  21.789  31.111   4.270
73970W        W45641  12.015   0.360   2.263
73971W        W45642  32.016  44.487   3.852
73972W        W45643  42.580  41.864   1.789
73973W        W45644  19.294  37.580   5.174
73974W        W45645  23.465  11.227  10.699
73975W        W45646   1.503  16.348  11.886
73976W        W45647  43.834  38.968   3.711
73977W        W45648  33.861  21.600   0.255
73978W        W45649  26.403  13.356   0.035
73979W        W45650  11.302  27.178  13.427
73980W        W45651  29.061  22.113  11.638
73981W        W45652   2.227   0.862   4.006
73982W        W45653  29.888  26.592   0.462
73983W        W45654  23.184  14.276   2.849
73984W        W45655  16.111  28.295   0.360
73985W        W45656   2.409   3.954  14.891
73986W        W45657  39.403  10.379  12.594
73987W        W45658  38.885   4.432   2.922
73988W        W45659  39.269   0.972  11.590
73989W        W45660  30.915  36.824   4.255
73990W        W45661  37.132  43.146   1.969
73991W        W45662  21.860  22.677   1.626
73992W        W45663  43.500   4.374  13.130
73993W        W45664  36.056  12.395  14.999
73994W        W45665  12.623  30.592  13.358
73995W        W45666  39.568  13.973   0.412
73996W        W45667  39.358  17.222  11.910
73997W        W45668  12.997  21.140   0.184
73998W        W45669  29.935  34.095   4.909
73999W        W45670  23.415  35.849   4.644
74000W        W45671  16.878  10.341   9.907
74001W        W45672  15.894   2.142   4.684
74002W        W45673   2.647  19.686  13.950
74003W        W45674   8.229   4.486   3.146
74004W        W45675  42.193  29.097   1.945
74005W        W45676   1.420  16.355   3.309
74006W        W45677  36.779  37.352  10.161
74007W        W45678  27.871  32.014  10.123
74008W        W45679  37.677  18.077   0.013
74009W        W45680  38.819  12.225  14.854
74010W        W45681  33.898   7.693  12.588
74011W        W45682  43.746   6.982   4.379
74012W        W45683   8.463  12.489  14.458
74013W        W45684  30.412  28.025  11.569
74014W        W45685  25.629   1.975   3.390
74015W        W45686  17.186   2.270  12.451
74016W        W45687  13.180  28.432   2.374
74017W        W45688  26.484   2.768  13.603
74018W        W45689  11.086  13.288  12.660
74019W        W45690   3.438  39.805   4.334
74020W        W45691   9.442   5.872   4.583
74021W        W45692  31.123  16.040   1.778
74022W        W45693  20.175  41.120   0.868
74023W        W45694  11.401   6.777  14.968
74024W        W45695  24.171  17.673  12.275
74025W        W45696   0.059  17.136   3.778
74026W        W45697   8.793   5.238   4.342
74027W        W45698  13.109  36.371  11.733
74028W        W45699  16.506  34.917   4.976
74029W        W45700   7.327  12.857  12.538
74030W        W45701  16.850  26.179  14.697
74031W        W45702  23.354  18.229   4.785
74032W        W45703  41.856  15.117   1.724
74033W        W45704   9.397  11.825   2.007
74034W        W45705  35.848   0.493  13.919
74035W        W45706  38.014  16.659   4.219
74036W        W45707  24.253  17.222   1.793
74037W        W45708  26.444  22.492  12.012
74038W        W45709   9.083  27.074   0.819
74039W        W45710   9.358  10.711   0.967
74040W        W45711   2.915  16.293  14.423
74041W        W45712  31.951  27.344  11.142
74042W        W45713  25.918   7.359  10.327
74043W        W45714  32.610  37.412  10.608
74044W        W45715   3.734  26.450  14.309
74045W        W45716  43.491  24.534  10.573
74046W        W45717  12.435   0.879   4.226
74047W        W45718  29.728  25.105  11.939
74048W        W45719   6.896  40.023  12.935
74049W        W45720  20.573   5.109   4.357
74050W        W45721   4.948  35.562  14.312
74051W        W45722  37.003  14.269   4.643
74052W        W45723  26.945  35.351   1.680
74053W        W45724  21.550  42.413   0.656
74054W        W45725  28.411   8.816   2.829
74055W        W45726  24.813   1.945   0.316
74056W        W45727   9.278  42.812   1.863
74057W        W45728  41.222  18.094   3.067
74058W        W45729   3.304   3.789   2.737
74059W        W45730  14.852  35.118  11.921
74060W        W45731  29.422  35.492   0.387
74061W        W45732  22.643  36.912   1.172
74062W        W45733   9.049  36.754   3.754
74063W        W45734  31.975  13.818   1.220
74064W        W45735  42.267  28.586   3.156
74065W        W45736  23.879  40.427   3.366
74066W        W45737   4.933  25.270  13.998
74067W        W45738  23.297  13.391   2.736
74068W        W45739  13.855   0.671   0.608
74069W        W45740  40.651  22.082  12.628
74070W        W45741   8.418  14.207   2.048
74071W        W45742  18.255  18.523  13.465
74072W        W45743  39.047  40.352   4.070
74073W        W45744  37.384   1.744   4.264
74074W        W45745   9.620  42.159   4.626
74075W        W45746  35.585  37.744   1.315
74076W        W45747  26.167  12.867   2.722
74077W        W45748   5.990   5.474   4.970
74078W        W45749  44.774  10.824  11.884
74079W        W45750  17.784  31.905  12.823
74080W        W45751  33.924   4.152   0.358
74081W        W45752   2.896  23.200  10.853
74082W        W45753  36.703  17.030  11.536
74083W        W45754   6.731  40.096   2.410
74084W        W45755  37.837  42.205   4.395
74085W        W45756  43.946  43.193  13.018
74086W        W45757  14.032  17.319  13.920
74087W        W45758  42.063  26.179   2.324
74088W        W45759  38.946  43.905  10.012
74089W        W45760  16.580  34.178   2.277
74090W        W45761  35.476  22.022  11.628
74091W        W45762   2.435   5.763  13.440
74092W        W45763  13.236  31.282  12.792
74093W        W45764  38.393  42.779  11.459
74094W        W45765  31.619   9.470   2.713
74095W        W45766  28.090   5.840   4.755
74096W        W45767  39.993  26.133   1.439
74097W        W45768  20.322   7.819  12.002
74098W        W45769  35.407  19.688   2.198
74099W        W45770   3.535  19.821   1.757
74100W        W45771  37.388   2.025  13.370
74101W        W45772  31.751  32.316  14.925
74102W        W45773   7.794  10.260  14.434
74103W        W45774  10.622  11.236   0.954
74104W        W45775  29.738  41.777  13.532
74105W        W45776  37.322  24.320   0.921
74106W        W45777  27.953  38.641   1.719
74107W        W45778  44.101   5.624   4.918
74108W        W45779  16.371   9.915  14.898
74109W        W45780  34.119  43.394   4.870
74110W        W45781   1.525   2.797   3.561
74111W        W45782  36.667   8.865   0.755
74112W        W45783   1.975  32.189  13.002
74113W        W45784  29.231  43.285   0.308
74114W        W45785  40.997  22.086  13.593
74115W        W45786  41.782  25.025  13.026
74116W        W45787  28.031  19.725   2.158
74117W        W45788  15.093  26.141   1.716
74118W        W45789  13.766  35.146   0.733
74119W        W45790  21.734  15.219  11.067
74120W        W45791   2.463  12.656  14.272
74121W        W45792   3.430  22.066  11.044
74122W        W45793  31.945   4.925   5.140
74123W        W45794  10.216  18.996  12.906
74124W        W45795   5.289  28.036  11.415
74125W        W45796  36.477  31.141   0.479
74126W        W45797  14.044  42.321   1.235
74127W        W45798   2.344  20.557  12.677
74128W        W45799  16.141  32.353   1.281
74129W        W45800  42.264   2.321   4.365
74130W        W45801   2.828  27.570   3.398
74131W        W45802  41.862  13.098   2.165
74132W        W45803  22.272  19.852  14.797
74133W        W45804  43.612  36.687  12.934
74134W        W45805  44.482  19.520   4.676
74135W        W45806  44.292  18.145   0.830
74136W        W45807  19.203   9.180   0.485
74137W        W45808   5.734  25.947   3.231
74138W        W45809   9.194  42.393  10.551
74139W        W45810   6.713  17.624   4.054
74140W        W45811  43.287  10.829   3.282
74141W        W45812  29.030  14.153  10.648
74142W        W45813  39.421  39.609  13.863
74143W        W45814  34.400   9.854   1.209
74144W        W45815  16.174  14.258   2.054
74145W        W45816   4.189   3.457   0.446
74146W        W45817   7.219  35.050   3.442
74147W        W45818  24.173  39.841   4.552
74148W        W45819  39.070  35.411   2.001
74149W        W45820  32.502  37.884  12.026
74150W        W45821  10.352  20.218   2.679
74151W        W45822  19.673   9.253   0.701
74152W        W45823  32.613  13.846   4.139
74153W        W45824  43.103   2.955   0.827
74154W        W45825  23.753  16.577   2.316
74155W        W45826   0.172  30.140   1.443
74156W        W45827  44.890  31.372   3.313
74157W        W45828  25.749  14.642  12.474
74158W        W45829  36.510  39.011   4.989
74159W        W45830  17.327  32.008  12.577
74160W        W45831  39.871  28.623   2.719
74161W        W45832  32.403  34.097  11.021
74162W        W45833  19.659  19.002   2.766
74163W        W45834  21.752  27.162  13.365
74164W        W45835  42.446  15.599   0.363
74165W        W45836   0.381  19.504   0.616
74166W        W45837  22.487   5.266  10.244
74167W        W45838  38.316  21.044   0.822
74168W        W45839  43.346  13.030   0.850
74169W        W45840   2.376  36.172  10.842
74170W        W45841   6.214  31.328  12.110
74171W        W45842  22.772  17.316  10.608
74172W        W45843  37.458  11.114   4.387
74173W        W45844  22.705  28.666  12.112
74174W        W45845  35.738  37.002  13.150
74175W        W45846  25.165  36.929  12.803
74176W        W45847  22.099   8.288   4.549
74177W        W45848  35.765   6.545  12.050
74178W        W45849  12.332  22.635  13.353
74179W        W45850  22.488  12.837   2.658
74180W        W45851  25.139  41.278   4.409
74181W        W45852   3.717  17.036   0.799
74182W        W45853   3.417  37.331   0.620
74183W        W45854  43.547  11.292   4.671
74184W        W45855  35.112  18.242  12.586
74185W        W45856   8.397  14.648   4.666
74186W        W45857  40.811  11.139   0.345
74187W        W45858  40.285  35.143  12.870
74188W        W45859  29.533  37.614  14.772
74189W        W45860  32.672   1.324   4.322
74190W        W45861  10.924  15.241  12.917
74191W        W45862  21.027  37.443   3.582
74192W        W45863  41.581   0.640   0.022
74193W        W45864  22.589   7.266  11.007
74194W        W45865  15.727   6.182  10.442
74195W        W45866  23.665  17.742  14.410
74196W        W45867  42.827   1.691   0.599
74197W        W45868  31.647   5.897  13.793
74198W        W45869   0.812   5.772   3.079
74199W        W45870  24.120  22.454   5.141
74200W        W45871   9.580  14.076   1.481
74201W        W45872  41.292  11.287  10.590
74202W        W45873  20.089  41.725   4.162
74203W        W45874  10.132  27.322  10.489
74204W        W45875  23.985  42.790   3.982
74205W        W45876  41.863  13.349   2.872
74206W        W45877  32.022  10.778  14.294
74207W        W45878  17.088  36.923  13.547
74208W        W45879   6.375   8.590   2.181
74209W        W45880  25.484  24.131   1.691
74210W        W45881  13.825  37.823  10.757
74211W        W45882  27.452  37.675  14.518
74212W        W45883  16.265  28.130  11.571
74213W        W45884  26.720  37.662  10.668
74214W        W45885  16.102   8.073  10.670
74215W        W45886   8.681  23.552  11.619
74216W        W45887  41.031  41.919  10.757
74217W        W45888  15.322   0.849   4.156
74218W        W45889  39.107  38.445  10.534
74219W        W45890  16.855  42.909  14.527
74220W        W45891  18.307  42.208  11.227
74221W        W45892  44.428  29.512  14.516
74222W        W45893  27.756  14.349  11.325
74223W        W45894  40.021   6.453  13.878
74224W        W45895  24.573  12.499  12.955
74225W        W45896  34.646  35.485  10.925
74226W        W45897   4.712   1.209  10.642
74227W        W45898  42.911   2.789   2.977
74228W        W45899  23.122  35.149  14.871
74229W        W45900  42.023  36.823   2.278
74230W        W45901   1.814  13.120   1.875
74231W        W45902   2.927  43.486  11.721
74232W        W45903  16.814   6.278   9.773
74233W        W45904  39.426  16.370  13.381
74234W        W45905  40.726  36.817   1.942
74235W        W45906   4.762  31.720   0.784
74236W        W45907  11.824  21.970   0.899
74237W        W45908  14.588  12.084  13.413
74238W        W45909   5.905  14.034   4.555
74239W        W45910  21.818  20.339   1.991
74240W        W45911  27.681  17.548  12.174
74241W        W45912  37.413  38.591  12.170
74242W        W45913   9.795  20.700  10.569
74243W        W45914  40.334  18.260   3.100
74244W        W45915  32.927   1.968   3.756
74245W        W45916   5.957   4.063   1.610
74246W        W45917  10.866  22.460  12.447
74247W        W45918  18.104  15.109   3.266
74248W        W45919  37.794  30.689   4.459
74249W        W45920  27.751  31.271  10.772
74250W        W45921  34.677  31.760  13.210
74251W        W45922  40.021   2.886  13.373
74252W        W45923   9.687  15.526   4.215
74253W        W45924  12.311  12.811   1.425
74254W        W45925  42.061  23.236  11.594
74255W        W45926  13.304  12.146  13.938
74256W        W45927  18.785  25.156   1.502
74257W        W45928  39.527   8.741   4.012
74258W        W45929  29.295  13.735  14.266
74259W        W45930  12.780  26.678  11.227
74260W        W45931   7.596  37.035   2.469
74261W        W45932  14.825   0.692  10.549
74262W        W45933  25.544  39.472   1.844
74263W        W45934  20.389  41.564   3.321
74264W        W45935  23.529  25.980  13.862
74265W        W45936  12.127   2.166  11.954
74266W        W45937  29.511   1.274   0.946
74267W        W45938   7.435  33.170   4.653
74268W        W45939  27.441  19.261  12.141
74269W        W45940   8.681  30.072   2.708
74270W        W45941  16.751   8.804  10.615
74271W        W45942  42.218  10.140  11.182
74272W        W45943   1.931   4.826  13.793
74273W        W45944   6.417   1.290   2.783
74274W        W45945  32.816  22.025   0.023
74275W        W45946  30.417  43.473   3.255
74276W        W45947   3.776  40.500   0.843
74277W        W45948  33.506  14.260   4.110
74278W        W45949  35.223  42.973   1.967
74279W        W45950  10.598  25.013  11.638
74280W        W45951   8.589  11.777  11.149
74281W        W45952  44.408  36.521  12.645
74282W        W45953  14.733  12.335  14.958
74283W        W45954   0.305   9.917   4.734
74284W        W45955  14.353  30.169   0.302
74285W        W45956  16.775   3.014   0.437
74286W        W45957   1.332  36.784  13.773
74287W        W45958  23.285   8.075  11.150
74288W        W45959  24.682  29.599   4.511
74289W        W45960  36.864   0.405  13.961
74290W        W45961  40.378  25.668  13.962
74291W        W45962  33.458   7.614   3.643
74292W        W45963  26.625  37.579   0.312
74293W        W45964   4.688  24.941   0.579
74294W        W45965  21.597  29.909  11.427
74295W        W45966  14.347   5.395  11.516
74296W        W45967  22.668   4.724  12.323
74297W        W45968   6.758   1.731   2.253
74298W        W45969  22.515  15.689  11.119
74299W        W45970   5.914  39.090   3.692
74300W        W45971   0.977   9.047  13.446
74301W        W45972  19.900  38.814   2.858
74302W        W45973  28.515  35.243  12.910
74303W        W45974  31.461  14.715  11.670
74304W        W45975  33.376  27.378  13.822
74305W        W45976  36.315   6.593  10.484
74306W        W45977  37.525  13.205  12.483
74307W        W45978  40.222  29.182  12.090
74308W        W45979   5.894   6.948  12.526
74309W        W45980   2.227  12.669   3.153
74310W        W45981  34.991  35.496   4.373
74311W        W45982  30.682  18.953   0.285
74312W        W45983  17.202   1.955   2.792
74313W        W45984  19.782  39.541   1.376
74314W        W45985  13.185  30.062   2.672
74315W        W45986  36.840  14.362   3.262
74316W        W45987  34.463  23.904  13.980
74317W        W45988  24.168  29.826  11.587
74318W        W45989  15.098  35.072  12.935
74319W        W45990  13.869   9.121  12.033
74320W        W45991   5.652  17.676  11.103
74321W        W45992  44.385  26.096   2.828
74322W        W45993   1.823  44.783   0.385
74323W        W45994  31.010  19.421   2.966
74324W        W45995   5.055  11.187   1.394
74325W        W45996  35.890  27.899  13.951
74326W        W45997  32.306   0.993   4.494
74327W        W45998  11.353  14.039   5.046
74328W        W45999  15.808  20.107  13.006
74329W        W46000  29.632  38.104  13.845
74330W        W46001  26.621  43.091  13.403
74331W        W46002  25.882  38.359  10.658
74332W        W46003   1.861  25.497  14.932
74333W        W46004  43.547  35.444  10.686
74334W        W46005  33.175   5.938   3.141
74335W        W46006  14.118   5.550  10.694
74336W        W46007  30.535  36.193   0.223
74337W        W46008  35.160  44.804  11.925
74338W        W46009  35.939  12.171   4.565
74339W        W46010  30.946  26.530  11.792
74340W        W46011   5.132  24.756  13.114
74341W        W46012  10.245  40.937  11.160
74342W        W46013  39.789  23.674   1.565
74343W        W46014  16.312  23.135   2.384
74344W        W46015   8.255  27.194   0.362
74345W        W46016  39.387  37.329  14.846
74346W        W46017  32.482  23.159   3.682
74347W        W46018  16.197   0.805   0.829
74348W        W46019  35.402  26.883   1.856
74349W        W46020  10.865  41.557  11.613
74350W        W46021  20.380  10.121  11.966
74351W        W46022   9.813  27.353  11.724
74352W        W46023  27.741  22.092   2.549
74353W        W46024  10.407  31.594   1.316
74354W        W46025  18.205  24.117   3.217
74355W        W46026  26.276  20.984  11.399
74356W        W46027   9.936  17.075   4.316
74357W        W46028  33.466  39.614  13.966
74358W        W46029   5.305   9.357  12.033
74359W        W46030   0.495  10.497  10.585
74360W        W46031  12.685  23.591   0.074
74361W        W46032  17.362  40.014  11.146
74362W        W46033  19.666  24.628   3.734
74363W        W46034  18.189  32.543   4.102
74364W        W46035  20.632  38.344  12.093
74365W        W46036  39.820  15.577   2.342
74366W        W46037   9.641  41.649  12.936
74367W        W46038   9.225  18.853   0.791
74368W        W46039  28.199  31.416  14.912
74369W        W46040   4.145  36.569  13.873
74370W        W46041  35.043  40.812   0.429
74371W        W46042  41.725  40.525  10.573
74372W        W46043  22.121  44.312   2.305
74373W        W46044  38.383   6.684  11.910
74374W        W46045  32.946  15.146  14.698
74375W        W46046  27.550   3.184   4.315
74376W        W46047  43.181  42.251   1.250
74377W        W46048  27.127  10.175   4.274
74378W        W46049  43.385   3.819  14.789
74379W        W46050  25.866  42.883   1.256
74380W        W46051  19.734  30.738  11.643
74381W        W46052  26.572   8.785   0.284
74382W        W46053  20.340  10.808   0.074
74383W        W46054   5.880   7.825   1.406
74384W        W46055  16.653   0.494  11.215
74385W        W46056  18.007  36.011  12.862
74386W        W46057  20.450   0.869  12.237
74387W        W46058  31.336  27.575   0.042
74388W        W46059  29.434  14.291   2.179
74389W        W46060  18.425   0.374  14.945
74390W        W46061  32.656  44.316   3.290
74391W        W46062  28.667  32.409  11.075
74392W        W46063  31.905  24.184   5.145
74393W        W46064  30.150  26.396   0.866
74394W        W46065  20.058   8.416   3.660
74395W        W46066  10.829  39.296   3.794
74396W        W46067  24.435   5.753   2.884
74397W        W46068   7.365  43.507   4.763
74398W        W46069   3.185  39.426  11.087
74399W        W46070  33.457  27.943  13.957
74400W        W46071  44.908  33.840  10.682
74401W        W46072   6.067  35.680  11.476
74402W        W46073  41.749  23.909   3.641
74403W        W46074  44.215  11.762  13.981
74404W        W46075  28.515  14.602   0.104
74405W        W46076  20.933   1.449  12.482
74406W        W46077  41.266  11.155   2.763
74407W        W46078  36.623   0.307   4.183
74408W        W46079   0.428  19.768   2.851
74409W        W46080   4.102   2.041  14.027
74410W        W46081  35.600  11.574  12.454
74411W        W46082  35.864  23.457   3.689
74412W        W46083  30.974  37.125  10.682
74413W        W46084  31.558   0.072  11.604
74414W        W46085  36.846  30.961  12.547
74415W        W46086  27.614  12.170  11.158
74416W        W46087  23.937   9.805  11.720
74417W        W46088  16.938   9.734  10.525
74418W        W46089  44.100   0.711   4.334
74419W        W46090  25.115  40.283  14.323
74420W        W46091  13.105  42.292   4.124
74421W        W46092  21.302  13.727  12.908
74422W        W46093   6.415  17.816   4.488
74423W        W46094  12.191  11.865   2.756
74424W        W46095  22.358  43.627   4.060
74425W        W46096  33.627  38.012  10.789
74426W        W46097  10.251  19.718   1.818
74427W        W46098   2.362  36.345   3.161
74428W        W46099  31.677  42.378  12.116
74429W        W46100  42.840  44.937   1.287
74430W        W46101  36.110  39.925   3.255
74431W        W46102  28.025   2.279   2.324
74432W        W46103  28.225  22.130   2.734
74433W        W46104   0.391  39.520  10.729
74434W        W46105  40.805  19.646  11.066
74435W        W46106  14.662  17.662   2.883
74436W        W46107  24.624  44.304  12.990
74437W        W46108  41.024   4.265  13.975
74438W        W46109  29.954  28.487  13.656
74439W        W46110  23.566  30.916   0.398
74440W        W46111  13.879   4.369   4.057
74441W        W46112  17.253  18.547  12.425
74442W        W46113  29.018   5.687   4.705
74443W        W46114  15.295  33.649  11.032
74444W        W46115  29.916   7.810   0.902
74445W        W46116  12.780  10.127   4.614
74446W        W46117  15.860  27.094  13.451
74447W        W46118   2.157  40.644   2.855
74448W        W46119  28.945   3.429  12.188
74449W        W46120   9.158  44.584  14.971
74450W        W46121  37.845  20.253   2.715
74451W        W46122  15.704  20.290   4.725
74452W        W46123   6.689   5.020  12.272
74453W        W46124  22.667   2.807  12.492
74454W        W46125  43.038  13.190   1.300
74455W        W46126   0.833  36.941   0.010
74456W        W46127  11.409  23.110   4.731
74457W        W46128  17.069   3.583  11.191
74458W        W46129  16.222  29.429  12.995
74459W        W46130  22.749  24.571  12.841
74460W        W46131  10.491  41.324  11.899
74461W        W46132  37.325  30.483   9.811
74462W        W46133  29.577  42.686  10.695
74463W        W46134   4.235  23.886   1.854
74464W        W46135  13.299  13.700   2.208
74465W        W46136   9.090  16.512  11.599
74466W        W46137  15.702  40.895   2.112
74467W        W46138  13.638  23.426   2.287
74468W        W46139  32.532  12.720   2.735
74469W        W46140  38.694  30.666   4.213
74470W        W46141   8.853   4.942   0.170
74471W        W46142   5.164  11.851   2.414
74472W        W46143  24.560   9.654  12.320
74473W        W46144   9.430  12.180   4.645
74474W        W46145   5.897  41.847   4.830
74475W        W46146   5.955   1.846   3.652
74476W        W46147  14.815  42.900   4.684
74477W        W46148  18.608  36.158  12.914
74478W        W46149  25.609   8.879  13.816
74479W        W46150  12.597  41.491  14.925
74480W        W46151   0.705  38.599   0.480
74481W        W46152  28.562  17.023   3.731
74482W        W46153   0.970  41.051   3.310
74483W        W46154  18.781  31.959  13.131
74484W        W46155  30.234   1.913   3.239
74485W        W46156  21.420  31.421  12.842
74486W        W46157  23.876   1.827  13.067
74487W        W46158  39.475  39.836  10.625
74488W        W46159   7.257   6.965  11.990
74489W        W46160  26.182  41.511   1.178
74490W        W46161   0.764  37.177  11.604
74491W        W46162  22.167  11.679   0.499
74492W        W46163  15.077   1.981  13.753
74493W        W46164   7.038  25.621   0.306
74494W        W46165  31.850  41.879   4.501
74495W        W46166  42.545   4.508  11.902
74496W        W46167  38.934  21.050   0.378
74497W        W46168  36.074   4.792  14.537
74498W        W46169  27.480  15.820   4.670
74499W        W46170  38.316  12.669  10.755
74500W        W46171  28.266  27.544   4.188
74501W        W46172  21.321  39.555   4.723
74502W        W46173  26.229  33.406  14.043
74503W        W46174  29.622  35.530  12.931
74504W        W46175  35.374  33.495   1.485
74505W        W46176  35.383  15.717  12.395
74506W        W46177  36.978   2.889   2.662
74507W        W46178  42.017  41.020  12.828
74508W        W46179  18.765   2.429  11.910
74509W        W46180  18.060  25.235   4.566
74510W        W46181   9.845   2.932   2.823
74511W        W46182   1.332  33.446  12.287
74512W        W46183  11.946  19.644  11.528
74513W        W46184  12.902  16.100  12.890
74514W        W46185  32.956  39.014  12.407
74515W        W46186  31.441   2.706   3.859
74516W        W46187  26.101  27.929   2.202
74517W        W46188  24.727  29.142  11.705
74518W        W46189   4.919  42.069   0.319
74519W        W46190  10.729  20.508  12.476
74520W        W46191   0.693   8.921   1.787
74521W        W46192  18.564  20.193  10.719
74522W        W46193  31.679  29.665  12.956
74523W        W46194  43.786  29.238   0.420
74524W        W46195   9.120  14.080   0.597
74525W        W46196  40.204  15.171   3.626
74526W        W46197   8.244  29.460   3.407
74527W        W46198  44.639  32.614   0.378
74528W        W46199   3.339   3.888   5.007
74529W        W46200  13.066  25.540  13.354
74530W        W46201   9.126   7.763  14.008
74531W        W46202  12.533   4.986  10.076
74532W        W46203  24.893  11.977   4.027
74533W        W46204  20.788  15.314  13.592
74534W        W46205  20.217  28.894  10.756
74535W        W46206   3.740   4.209  12.263
74536W        W46207  17.919  17.345   0.696
74537W        W46208  37.470  26.023  13.039
74538W        W46209   9.422  17.236   0.746
74539W        W46210  28.462  43.215   1.645
74540W        W46211  21.463  10.838  13.705
74541W        W46212  24.029   6.864   4.512
74542W        W46213  40.026   2.825   1.347
74543W        W46214  17.478  41.068   0.632
74544W        W46215  18.180  39.289  11.808
74545W        W46216  39.269   8.883   3.017
74546W        W46217  42.506  13.264   1.425
74547W        W46218  42.993  26.547   0.951
74548W        W46219  36.676  40.074   4.126
74549W        W46220   2.204  41.291   0.567
74550W        W46221   8.226  28.086   4.117
74551W        W46222  37.876  17.821   4.473
74552W        W46223  41.923  24.701   3.776
74553W        W46224  19.693   7.798   1.715
74554W        W46225  42.069  30.333  11.919
74555W        W46226  29.986  41.564  12.938
74556W        W46227  40.797  27.789  10.436
74557W        W46228  27.232   6.372   1.386
74558W        W46229  15.573   6.341  11.503
74559W        W46230  32.035  23.897  11.109
74560W        W46231  19.701  25.077  14.528
74561W        W46232  19.591  27.067  12.545
74562W        W46233  10.378  32.903  11.301
74563W        W46234  30.056  14.284   3.840
74564W        W46235  16.689  12.015  13.931
74565W        W46236  26.943   0.654   4.251
74566W        W46237  18.824  27.954   5.264
74567W        W46238  15.648  40.845   0.641
74568W        W46239   6.161  18.289   0.504
74569W        W46240  18.744   3.050   0.539
74570W        W46241  12.220  20.746  13.244
74571W        W46242   6.809  25.445  13.948
74572W        W46243  41.454  29.591  14.753
74573W        W46244  34.648   8.362   4.682
74574W        W46245   5.188  15.223  12.929
74575W        W46246   6.697  40.432   4.360
74576W        W46247  31.043  13.326  12.868
74577W        W46248  25.035   5.915   0.161
74578W        W46249  37.997  21.227   2.755
74579W        W46250  23.279  20.951  11.075
74580W        W46251  38.050  13.227   1.721
74581W        W46252   8.426  35.602  12.053
74582W        W46253   8.034  24.043   4.604
74583W        W46254  38.037   1.441  11.572
74584W        W46255  21.152   7.008   2.285
74585W        W46256  15.098  27.012   1.259
74586W        W46257  16.767  21.606  14.092
74587W        W46258  21.060  44.973   4.156
74588W        W46259  42.000  28.171   3.296
74589W        W46260  37.316  33.309  14.203
74590W        W46261   8.869  10.189  11.637
74591W        W46262   0.393   8.667   2.205
74592W        W46263   5.292  33.081  11.652
74593W        W46264  42.920  44.930   3.475
74594W        W46265  19.606  23.303   0.431
74595W        W46266   9.134  15.298  13.604
74596W        W46267  25.135   5.894   0.683
74597W        W46268  31.023  24.178  12.925
74598W        W46269  42.735  14.763   3.606
74599W        W46270  30.227   3.344  11.866
74600W        W46271  25.257   9.902   2.207
74601W        W46272  43.920  10.869   3.917
74602W        W46273  10.284   3.382  13.374
74603W        W46274  42.040  31.668  10.446
74604W        W46275  39.044  18.070  14.443
74605W        W46276  31.904  14.068  12.098
74606W        W46277  34.077  13.753   2.310
74607W        W46278  20.175  28.397  13.326
74608W        W46279   1.370  40.784   4.234
74609W        W46280  42.002  18.321  12.420
74610W        W46281   6.329   0.860  14.098
74611W        W46282  18.345  43.335   0.970
74612W        W46283  28.226   8.992   4.225
74613W        W46284  12.514   0.394  13.327
74614W        W46285  31.524  30.197   1.473
74615W        W46286  21.617  40.097  13.574
74616W        W46287  26.666  11.797  14.378
74617W        W46288   0.342  18.282   1.898
74618W        W46289  10.835  20.006  12.482
74619W        W46290  21.926  14.758   2.551
74620W        W46291  14.127  12.097   2.643
74621W        W46292  29.000  24.453  13.437
74622W        W46293  43.555  19.786   4.647
74623W        W46294  15.734  43.357   0.829
74624W        W46295  13.153  27.643   1.997
74625W        W46296  31.586  24.764   1.346
74626W        W46297  22.172  27.980   1.462
74627W        W46298  24.983  13.277  12.804
74628W        W46299  39.581  38.920   3.684
74629W        W46300   6.838  33.499  13.981
74630W        W46301  22.067  18.137   2.697
74631W        W46302  10.976  22.577  11.182
74632W        W46303   3.660  40.157  11.642
74633W        W46304  13.817  38.620   2.855
74634W        W46305  34.594  25.438  12.945
74635W        W46306  26.294  18.868  11.161
74636W        W46307  26.964  33.346   3.369
74637W        W46308   9.706  34.274   3.087
74638W        W46309  36.588   1.251  11.542
74639W        W46310  20.835  10.651  14.892
74640W        W46311  11.948  19.011   0.774
74641W        W46312  35.609  28.850   3.364
74642W        W46313   1.890  37.091  11.643
74643W        W46314  22.514  21.117  10.750
74644W        W46315   2.667  36.939  11.170
74645W        W46316  29.538  29.247  10.718
74646W        W46317  44.814  26.301  10.282
74647W        W46318  33.020  40.053   4.206
74648W        W46319  12.687  18.107  12.845
74649W        W46320  22.208   9.848  11.679
74650W        W46321   5.108  18.225   4.205
74651W        W46322  28.017   6.747  11.165
74652W        W46323  15.372  22.998  14.237
74653W        W46324  38.105  43.809   3.899
74654W        W46325  11.153  43.163  12.494
74655W        W46326  16.303  34.918   1.573
74656W        W46327  36.916   8.832  13.574
74657W        W46328  20.579  31.583  12.807
74658W        W46329  30.264  14.862  13.769
74659W        W46330  30.948  14.703  14.538
74660W        W46331  39.471  28.403  10.641
74661W        W46332  12.979   0.650  11.105
74662W        W46333  12.119  15.241   3.121
74663W        W46334   5.730  27.896   3.260
74664W        W46335   5.325   6.639  13.598
74665W        W46336   7.833  34.145   2.381
74666W        W46337   7.353  11.792  10.723
74667W        W46338  19.326  31.406   1.209
74668W        W46339  28.432  33.458  11.987
74669W        W46340   7.464  39.924   1.129
74670W        W46341  22.058   9.331   4.630
74671W        W46342  43.992  21.972  13.444
74672W        W46343  37.794  14.172  14.958
74673W        W46344  18.599   3.388  10.785
74674W        W46345  32.127  17.184   3.604
74675W        W46346  42.413  26.345  11.641
74676W        W46347  13.153  15.628  14.352
74677W        W46348   8.894   1.608   0.359
74678W        W46349   2.476  13.635  10.794
74679W        W46350  33.727  35.774  13.919
74680W        W46351  41.449  17.268  14.761
74681W        W46352  28.194  24.559   2.822
74682W        W46353  28.692  30.556   0.382
74683W        W46354   6.734   3.430   0.517
74684W        W46355   2.292  38.478  10.475
74685W        W46356  24.580  18.694  13.892
74686W        W46357  40.670  28.723   4.656
74687W        W46358  44.069   6.301   2.864
74688W        W46359   5.463  25.674   0.366
74689W        W46360   8.434  23.340   0.954
74690W        W46361  43.474  42.844  13.881
74691W        W46362  42.393  41.405  14.304
74692W        W46363  33.655  38.873   2.728
74693W        W46364  24.772  13.398  12.200
74694W        W46365  19.091  38.894  11.529
74695W        W46366  14.845   8.854   0.490
74696W        W46367   8.402   2.039   4.572
74697W        W46368  17.741  41.754   1.752
74698W        W46369  39.017   5.589  11.679
74699W        W46370   6.830  26.679   2.779
74700W        W46371  23.132  38.240   5.403
74701W        W46372  19.628  33.565  12.637
74702W        W46373  20.772  33.313   0.915
74703W        W46374  32.083  26.608   9.846
74704W        W46375  44.318  43.527   0.102
74705W        W46376  36.573  21.811  14.885
74706W        W46377   3.245  35.406  14.776
74707W        W46378  33.747  15.531   0.353
74708W        W46379  41.845  13.141  10.542
74709W        W46380   8.693  21.194   4.426
74710W        W46381  41.242  20.128  11.638
74711W        W46382  36.357  10.668  12.108
74712W        W46383   3.156   2.359   0.749
74713W        W46384  43.248  19.836  13.072
74714W        W46385  42.938  33.598  10.979
74715W        W46386   2.301   4.631  11.208
74716W        W46387  44.688  13.351   2.864
74717W        W46388  32.168   7.192   1.349
74718W        W46389  25.448  21.064  12.905
74719W        W46390  25.734  41.450  11.523
74720W        W46391  16.931  17.277   2.691
74721W        W46392  33.372  27.659  11.586
74722W        W46393  10.296  24.531   2.216
74723W        W46394  34.531  43.776   3.366
74724W        W46395  39.448  32.638   0.338
74725W        W46396  44.293   3.345   3.701
74726W        W46397  25.616   7.370  12.551
74727W        W46398   8.225   7.787   1.394
74728W        W46399  16.896  30.521  11.582
74729W        W46400  24.988   0.908  10.622
74730W        W46401  31.551  22.237   0.484
74731W        W46402  11.738  25.249  13.418
74732W        W46403  27.446  33.619   3.530
74733W        W46404  43.074  32.431  14.376
74734W        W46405   2.781  13.300   4.361
74735W        W46406  37.610   3.852   1.207
74736W        W46407  38.055  38.379   2.273
74737W        W46408   2.897  44.498   4.060
74738W        W46409   7.349  40.605  11.180
74739W        W46410  30.540   6.285   1.769
74740W        W46411  13.261  44.151   4.973
74741W        W46412   1.750  17.632  12.886
74742W        W46413  32.958  26.481   3.252
74743W        W46414   8.279  37.916   1.836
74744W        W46415  17.830  43.085   4.431
74745W        W46416  25.551   0.488   3.154
74746W        W46417  43.835   2.301  11.232
74747W        W46418  12.115  41.249  11.013
74748W        W46419  12.915   5.267   1.500
74749W        W46420  11.942  37.739   2.207
74750W        W46421  40.948  31.570   2.662
74751W        W46422  14.923   7.152   1.921
74752W        W46423   4.745  11.710  13.921
74753W        W46424  29.001  27.936  11.600
74754W        W46425  19.528   8.092  14.975
74755W        W46426  26.453   4.686  11.863
74756W        W46427   1.701  43.940  12.861
74757W        W46428  43.553  43.482  12.804
74758W        W46429  23.144   6.765   0.732
74759W        W46430  25.074   3.903   4.486
74760W        W46431  41.361  14.991  13.420
74761W        W46432  42.286  37.493   3.283
74762W        W46433  22.767  21.248   3.180
74763W        W46434  15.624  20.662  14.249
74764W        W46435   5.795  34.153  13.512
74765W        W46436  21.538  21.151   2.403
74766W        W46437   9.284  16.309  12.511
74767W        W46438  15.231  44.013  13.875
74768W        W46439  14.085  30.681   3.802
74769W        W46440  27.470  12.350  14.908
74770W        W46441  18.278  40.550   3.349
74771W        W46442   4.013  33.161  11.918
74772W        W46443  15.634  10.684  11.265
74773W        W46444  18.554  18.008   1.268
74774W        W46445  16.109   7.848   4.631
74775W        W46446  22.520  18.855   4.623
74776W        W46447  11.095  15.260   2.684
74777W        W46448  32.040  33.517  14.526
74778W        W46449  22.191  20.260   2.690
74779W        W46450  44.598  14.688   4.132
74780W        W46451  43.451  11.709  11.397
74781W        W46452   4.901  31.122  11.204
74782W        W46453  32.904   5.951  11.613
74783W        W46454   6.805  31.365   4.712
74784W        W46455  21.540  23.885   9.718
74785W        W46456  16.487   4.934   0.174
74786W        W46457   5.984  30.015  14.112
74787W        W46458  22.476  36.276   3.619
74788W        W46459  18.525  17.250   3.990
74789W        W46460  12.285  27.622   4.438
74790W        W46461  43.129   3.424   1.482
74791W        W46462  28.058   9.835  10.198
74792W        W46463   4.243  16.089   1.264
74793W        W46464   3.803  39.697  11.493
74794W        W46465   8.829  41.075   3.856
74795W        W46466   8.807  14.282   4.073
74796W        W46467  20.800   3.319   2.923
74797W        W46468  29.384  41.568  13.863
74798W        W46469   4.091  39.385   0.257
74799W        W46470  18.916  36.954  13.440
74800W        W46471  43.498  31.105  13.525
74801W        W46472   8.913  10.322  11.144
74802W        W46473  41.117  12.193   4.794
74803W        W46474  14.040   3.859  11.811
74804W        W46475   2.891  11.563   4.337
74805W        W46476  15.211  35.593   1.208
74806W        W46477  40.301  15.843   4.074
74807W        W46478  34.037   8.175  14.438
74808W        W46479  18.823  15.277  12.500
74809W        W46480  13.055  27.816  10.339
74810W        W46481  31.573  41.269   3.468
74811W        W46482  35.822  20.858   3.296
74812W        W46483  13.067   7.881  12.084
74813W        W46484  25.106  36.848  14.334
74814W        W46485  20.546   0.735  11.235
74815W        W46486  37.458   5.404  11.697
74816W        W46487  16.559  25.646  12.842
74817W        W46488  19.517  18.454   0.386
74818W        W46489   1.873   2.207  12.010
74819W        W46490  37.295  44.635  12.368
74820W        W46491  28.327  43.268   0.375
74821W        W46492  37.548  23.913   0.328
74822W        W46493  19.970  15.795  11.195
74823W        W46494   8.323   9.597  12.202
74824W        W46495  20.028  19.354   1.199
74825W        W46496  39.933  33.198   3.839
74826W        W46497  26.123   7.716  11.554
74827W        W46498   7.841  39.375  11.087
74828W        W46499  31.489  25.461   2.276
74829W        W46500  10.267  31.062  10.488
74830W        W46501  10.716  16.255  11.070
74831W        W46502  29.024  24.191   0.662
74832W        W46503  41.361  40.004   4.295
74833W        W46504   8.787  39.587   3.606
74834W        W46505   9.664  24.273  12.809
74835W        W46506   8.884   1.989   1.824
74836W        W46507  26.841   0.096   4.140
74837W        W46508   7.530  30.311   0.377
74838W        W46509  12.239   3.313   4.361
74839W        W46510  41.820  27.425   2.715
74840W        W46511  22.262  37.966  12.907
74841W        W46512  39.340   1.590   1.561
74842W        W46513  13.724  33.840   3.372
74843W        W46514  29.164   8.797  11.001
74844W        W46515  30.491   5.204  11.993
74845W        W46516  28.012  30.326   2.265
74846W        W46517  36.262   3.160   2.805
74847W        W46518  32.193  14.159   3.203
74848W        W46519  22.264  21.645  12.348
74849W        W46520   2.718  28.350   3.862
74850W        W46521  42.318  43.477  11.166
74851W        W46522  20.350  11.552   4.134
74852W        W46523  22.543  21.255  12.518
74853W        W46524   5.489  33.569   3.653
74854W        W46525  22.424  25.112   2.312
74855W        W46526  37.381   2.250   4.179
74856W        W46527  18.071  24.013   1.985
74857W        W46528  38.005   5.684   4.302
74858W        W46529  11.400  13.618   0.367
74859W        W46530  12.820  25.397   2.204
74860W        W46531  19.391  11.773   3.170
74861W        W46532  26.710  10.905   1.979
74862W        W46533  31.298   0.527   2.863
74863W        W46534   4.653  14.718  13.512
74864W        W46535   8.355  24.998  12.971
74865W        W46536  26.509  16.882   0.686
74866W        W46537  38.874  28.932  12.475
74867W        W46538   7.037  25.222  14.954
74868W        W46539  25.453  27.486   2.795
74869W        W46540  30.597  18.970   2.332
74870W        W46541  15.108   3.636   1.330
74871W        W46542  15.673  32.631   4.243
74872W        W46543   4.870   2.471   4.125
74873W        W46544  25.693  11.653   0.392
74874W        W46545  43.841   2.358   0.864
74875W        W46546  29.669  21.592  11.069
74876W        W46547  34.862  11.351  12.408
74877W        W46548  31.574  21.171   0.500
74878W        W46549  44.530  24.979  14.720
74879W        W46550   0.272  32.398  11.596
74880W        W46551  11.626  22.892   2.891
74881W        W46552   4.229  31.072  10.547
74882W        W46553   0.187  42.519  13.709
74883W        W46554  35.849   3.211   2.420
74884W        W46555  17.309  28.506   3.464
74885W        W46556  30.990  43.329  12.175
74886W        W46557  18.486  17.545   2.458
74887W        W46558  33.826   9.345  14.881
74888W        W46559  31.226   4.209  14.948
74889W        W46560  26.124   6.525  13.814
74890W        W46561  39.058   2.338  11.632
74891W        W46562  10.640  43.236   1.028
74892W        W46563  22.713  42.766  12.096
74893W        W46564  19.612  13.711   3.840
74894W        W46565  40.426  24.111   2.163
74895W        W46566  31.752  27.271  14.095
74896W        W46567  35.858   6.662   3.806
74897W        W46568   9.201  12.027   0.988
74898W        W46569   1.323  36.355   3.817
74899W        W46570   6.764  16.550  12.933
74900W        W46571   0.536  13.674  13.421
74901W        W46572  31.011   6.424   3.839
74902W        W46573  34.869   4.536   0.187
74903W        W46574  18.750  14.299  10.932
74904W        W46575  28.721  34.042  11.246
74905W        W46576  27.696  20.579   3.368
74906W        W46577   8.799   0.188  14.255
74907W        W46578  27.508   2.685  10.675
74908W        W46579  24.021  38.827   1.157
74909W        W46580   1.364  36.658  14.277
74910W        W46581  37.902  27.847   9.953
74911W        W46582  21.926  38.815   0.388
74912W        W46583  28.088  34.364  13.531
74913W        W46584   0.485  36.351   3.773
74914W        W46585  28.222   1.676  11.127
74915W        W46586  34.634  23.157  13.019
74916W        W46587  28.034  24.012  14.880
74917W        W46588  38.749   8.074   2.335
74918W        W46589   4.645  10.360   4.075
74919W        W46590  41.565   1.437   1.714
74920W        W46591  14.342  40.945  13.800
74921W        W46592  37.469   9.685   2.565
74922W        W46593  24.043   9.552   1.448
74923W        W46594   3.948  40.258  13.786
74924W        W46595  21.058   9.616  13.367
74925W        W46596  29.210  42.879  12.565
74926W        W46597   6.339   8.828   3.476
74927W        W46598  44.446  20.021  12.516
74928W        W46599  17.937  28.780   2.332
74929W        W46600  10.757  28.962   1.816
74930W        W46601  30.099  38.773  14.500
74931W        W46602  17.977  44.159   4.580
74932W        W46603   1.716  14.208  10.692
74933W        W46604  33.499  26.571  11.657
74934W        W46605  33.292  43.880  10.505
74935W        W46606  10.838  30.858  14.895
74936W        W46607   9.656  30.481   0.992
74937W        W46608  42.852  23.949  14.338
74938W        W46609  24.884  20.797   3.394
74939W        W46610  44.743  16.585   2.931
74940W        W46611  36.834  35.686   4.269
74941W        W46612  34.404   5.235   1.916
74942W        W46613  25.940  34.442   3.037
74943W        W46614   1.027  13.551  13.561
74944W        W46615  40.024  30.497   3.679
74945W        W46616   2.951  32.469   0.241
74946W        W46617   6.264   8.748   4.015
74947W        W46618  24.465  30.225   0.940
74948W        W46619  13.590   5.239  13.297
74949W        W46620  43.427   6.148   3.293
74950W        W46621  12.860  41.034   0.715
74951W        W46622  19.127  18.657   0.060
74952W        W46623   0.402  17.572   0.625
74953W        W46624  10.800  43.798  11.971
74954W        W46625  13.577  41.784   3.363
74955W        W46626  43.600  13.762  13.019
74956W        W46627   8.274  29.466   0.834
74957W        W46628   4.329  39.004   4.152
74958W        W46629  42.611   9.715   0.976
74959W        W46630   8.881  40.627  13.733
74960W        W46631  22.995  22.258  12.379
74961W        W46632  44.281  37.666   3.265
74962W        W46633   5.380  27.356   4.211
74963W        W46634  40.490  24.575   2.935
74964W        W46635   6.603  14.088  11.847
74965W        W46636   3.378  39.428   2.810
74966W        W46637  11.244   3.235   1.431
74967W        W46638   5.914  41.274   2.209
74968W        W46639  29.023   3.838  10.602
74969W        W46640   5.422  27.909  10.392
74970W        W46641   1.449  42.756   4.178
74971W        W46642   4.383  35.393   1.031
74972W        W46643   7.886  23.726  12.433
74973W        W46644  40.350  38.379   1.955
74974W        W46645  19.206   5.962  12.586
74975W        W46646   1.442  37.850  14.735
74976W        W46647  22.294  25.698   1.458
74977W        W46648  43.808   8.276  11.367
74978W        W46649   4.893  11.297  11.972
74979W        W46650  11.172  38.454  10.718
74980W        W46651  29.991  25.912   0.911
74981W        W46652  40.436   0.093   2.014
74982W        W46653  23.446  11.690   3.190
74983W        W46654  44.468   7.650   1.279
74984W        W46655  22.239  34.390   4.038
74985W        W46656  38.852  35.823   3.878
74986W        W46657   8.974   2.718   2.285
74987W        W46658  26.994  26.961   4.631
74988W        W46659  35.955  22.435   4.514
74989W        W46660   2.774  24.129  12.340
74990W        W46661  24.345  41.889   4.390
74991W        W46662  43.426  24.657   4.900
74992W        W46663  14.709   6.688  12.184
74993W        W46664  29.737  35.874   4.518
74994W        W46665  39.603  37.479  12.355
74995W        W46666   9.450  38.547  13.555
74996W        W46667  28.193  40.922  12.930
74997W        W46668  35.151   0.448   2.774
74998W        W46669  12.048  32.049   4.640
74999W        W46670   2.019  30.508  12.607
75000W        W46671  15.603  38.521  12.889
75001W        W46672  13.433   6.441  12.226
75002W        W46673  39.442  11.054  14.971
75003W        W46674   9.826   8.636   3.113
75004W        W46675  15.250  18.089  13.063
75005W        W46676   0.036  32.476   3.665
75006W        W46677  38.465  39.089   1.668
75007W        W46678  39.775   0.980  11.652
75008W        W46679  17.038  23.621   2.859
75009W        W46680  22.174   3.950  13.778
75010W        W46681  16.652  35.108  10.573
75011W        W46682  24.428  20.735  11.070
75012W        W46683  32.591   4.772  13.321
75013W        W46684  35.493  42.547   4.595
75014W        W46685  30.176   7.415   0.043
75015W        W46686  13.425   9.243  14.122
75016W        W46687  14.899   0.389   2.343
75017W        W46688  40.477  15.585  11.570
75018W        W46689  12.657   0.445  14.957
75019W        W46690   8.819  30.100  11.197
75020W        W46691  24.836  18.030   1.942
75021W        W46692  41.338   6.910  14.496
75022W        W46693  41.735  12.886   4.609
75023W        W46694  42.997  13.273  13.330
75024W        W46695   0.963  27.417   1.192
75025W        W46696  37.081   1.295  11.648
75026W        W46697  15.729  39.823  13.424
75027W        W46698  30.465   8.934  12.396
75028W        W46699  30.084  42.278   0.294
75029W        W46700  25.988   2.857  14.850
75030W        W46701  11.923  17.098   3.953
75031W        W46702  38.068  36.846  11.107
75032W        W46703   6.221  11.789   3.182
75033W        W46704  27.485  31.655   0.018
75034W        W46705  20.611  39.174   1.868
75035W        W46706  20.693  33.573  12.495
75036W        W46707   7.363  37.905  13.084
75037W        W46708  20.661  40.754   2.307
75038W        W46709  33.532  14.232  12.667
75039W        W46710  24.196  23.718   5.182
75040W        W46711  36.677  40.484  14.327
75041W        W46712  19.419  17.250  11.181
75042W        W46713   5.609  41.396  14.435
75043W        W46714  34.102  31.914   0.398
75044W        W46715  18.161  43.943   3.285
75045W        W46716  37.927  21.067  11.104
75046W        W46717   2.817  12.773  11.206
75047W        W46718  32.656  11.351  11.277
75048W        W46719  17.615  13.180  13.889
75049W        W46720  39.396   7.343   4.608
75050W        W46721  32.115  39.909  11.071
75051W        W46722  38.451  39.274  13.971
75052W        W46723  34.998  38.975  10.089
75053W        W46724  10.542  37.619  11.989
75054W        W46725  39.445  34.978  11.943
75055W        W46726  26.692  16.731  11.342
75056W        W46727  31.603  29.515  10.708
75057W        W46728  18.579  33.220   3.784
75058W        W46729  39.605   6.812   0.841
75059W        W46730  12.171  44.572  13.757
75060W        W46731   7.453  29.685   2.373
75061W        W46732   4.075   7.279   4.126
75062W        W46733  20.021  23.292   3.804
75063W        W46734  30.937  39.963  12.765
75064W        W46735   6.884  36.663   2.757
75065W        W46736   5.421  26.500  10.803
75066W        W46737  43.779  23.026  11.967
75067W        W46738  15.145   1.641  12.382
75068W        W46739  17.575  25.614   3.723
75069W        W46740   5.990   8.170   3.677
75070W        W46741  33.596  11.206  13.927
75071W        W46742   8.787   3.528   0.737
75072W        W46743  18.272  40.656   2.273
75073W        W46744  23.635  20.300   0.943
75074W        W46745  42.895   3.680  11.249
75075W        W46746  38.277  43.048  11.044
75076W        W46747  19.402  25.272  10.173
75077W        W46748  37.963   9.886   4.454
75078W        W46749  16.046  23.687  11.282
75079W        W46750   4.054  41.919  11.814
75080W        W46751   8.004  28.729  12.440
75081W        W46752   6.328  43.512   0.908
75082W        W46753  20.775   2.651  11.127
75083W        W46754  40.435  41.220  12.920
75084W        W46755  11.146  37.043   2.703
75085W        W46756  42.951  42.510   2.919
75086W        W46757  11.121   1.366  12.251
75087W        W46758  15.567  40.246  10.726
75088W        W46759  16.493  39.908  14.898
75089W        W46760  35.396   3.996  12.485
75090W        W46761  24.074  44.589  13.687
75091W        W46762   7.232   2.587   2.633
75092W        W46763  39.309  35.478  14.890
75093W        W46764  12.844  21.168   0.889
75094W        W46765  14.400  15.595   3.211
75095W        W46766  20.738  32.121   2.874
75096W        W46767   3.671  30.656   0.788
75097W        W46768  16.194  44.438  14.496
75098W        W46769  21.935  18.859   0.743
75099W        W46770  28.630  17.224   0.203
75100W        W46771   6.851  18.666  12.953
75101W        W46772  37.306  16.670   2.464
75102W        W46773  22.061   8.234  14.547
75103W        W46774   1.287   5.719  13.435
75104W        W46775  20.540  17.696   1.270
75105W        W46776  14.730   3.010   4.306
75106W        W46777   4.654   4.886   2.744
75107W        W46778  15.343   5.451  14.855
75108W        W46779  20.716   9.283  13.070
75109W        W46780  22.725  19.158  14.542
75110W        W46781  43.863  18.097   2.356
75111W        W46782  27.696  24.261   0.751
75112W        W46783  14.121  40.884   3.942
75113W        W46784  31.427  41.950  11.988
75114W        W46785  19.094   4.189  14.752
75115W        W46786  41.746  38.015  13.906
75116W        W46787  31.199  32.102  10.800
75117W        W46788  20.129   3.340   1.135
75118W        W46789   0.321  27.542   4.598
75119W        W46790  41.527  28.723  14.339
75120W        W46791  29.509  40.814   2.601
75121W        W46792  31.113  18.492  14.717
75122W        W46793   2.223  14.143  10.735
75123W        W46794  19.118  38.854  12.506
75124W        W46795   0.890  25.234  11.754
75125W        W46796  44.527  27.387  11.175
75126W        W46797  16.039  18.373   5.037
75127W        W46798  24.214   4.177  11.935
75128W        W46799   0.278  23.476   1.382
75129W        W46800  24.093  12.637   3.177
75130W        W46801   1.046  34.483  12.039
75131W        W46802  19.200  22.201   4.352
75132W        W46803  33.934   6.577   2.875
75133W        W46804  35.391  23.772   0.798
75134W        W46805  35.377   3.748  12.032
75135W        W46806  29.414  30.639  14.002
75136W        W46807  15.641  30.994  10.916
75137W        W46808  10.735  27.459   2.686
75138W        W46809   3.714  31.577   1.838
75139W        W46810  24.475  20.551   3.193
75140W        W46811   3.623  38.103   2.325
75141W        W46812  10.386  11.068  13.469
75142W        W46813  43.826  13.123  11.930
75143W        W46814  39.965  13.382   0.902
75144W        W46815   7.827   6.702   0.632
75145W        W46816  16.911   7.753   0.068
75146W        W46817  14.567   6.794   2.733
75147W        W46818  38.343  36.408   4.574
75148W        W46819  23.965  31.920  10.606
75149W        W46820   2.868  24.814  11.848
75150W        W46821  23.748  32.663   0.129
75151W        W46822  28.664   8.185  14.726
75152W        W46823   6.762  42.620   1.295
75153W        W46824  39.635  31.010  13.882
75154W        W46825  18.742  13.169   0.466
75155W        W46826  44.757  21.237   4.217
75156W        W46827  37.150  43.810   0.864
75157W        W46828  16.312  15.078   3.205
75158W        W46829  31.330  10.248  10.626
75159W        W46830  11.382   4.335  14.217
75160W        W46831  23.222  35.441   4.151
75161W        W46832  27.827  17.066   0.823
75162W        W46833  13.813  37.818  11.268
75163W        W46834   6.433  13.677   1.497
75164W        W46835  22.028  34.939  11.593
75165W        W46836  44.534  44.887   0.860
75166W        W46837  22.578   1.235   2.940
75167W        W46838   8.121  29.863   1.755
75168W        W46839  42.417  27.956   1.342
75169W        W46840  31.085  21.486  11.560
75170W        W46841  26.791  10.767  12.273
75171W        W46842  18.799   0.861  10.660
75172W        W46843   1.506  43.673  11.978
75173W        W46844  35.577   8.654  10.712
75174W        W46845  15.843  41.950  13.801
75175W        W46846  17.393  29.218  12.628
75176W        W46847   4.207  12.913   0.255
75177W        W46848  13.496   0.652   1.167
75178W        W46849  11.047  41.755   2.276
75179W        W46850  31.924  12.320  14.398
75180W        W46851  22.929  31.190   1.416
75181W        W46852  30.146   7.921   4.094
75182W        W46853   9.721  25.023   0.712
75183W        W46854   6.689  22.212   1.491
75184W        W46855   9.826  34.167   1.230
75185W        W46856   5.796  13.149  11.205
75186W        W46857  16.258  19.598  11.527
75187W        W46858  26.564  18.361   4.234
75188W        W46859  14.157   9.470  13.294
75189W        W46860   2.723  42.402   2.744
75190W        W46861   6.955  13.813   0.220
75191W        W46862  28.427  24.031   1.923
75192W        W46863  44.101  19.115   3.244
75193W        W46864   1.574  31.034   1.623
75194W        W46865  38.408  33.863  13.239
75195W        W46866  21.790   7.371   1.463
75196W        W46867  39.122  13.064   4.999
75197W        W46868  40.841  22.626  10.966
75198W        W46869  14.077  29.206   3.316
75199W        W46870  10.421  11.806  13.195
75200W        W46871  42.879  18.023   2.134
75201W        W46872  22.272  43.281   2.395
75202W        W46873  31.051  44.324   0.890
75203W        W46874  43.053  34.193   0.707
75204W        W46875  38.392  24.301  10.609
75205W        W46876  30.039  24.127  10.736
75206W        W46877  34.824   2.364   0.849
75207W        W46878   1.446  33.425  11.288
75208W        W46879  24.638  38.451  12.040
75209W        W46880  34.413  10.757   1.825
75210W        W46881  24.053  38.347   9.789
75211W        W46882  15.752  14.201   4.629
75212W        W46883  27.669  21.740   1.359
75213W        W46884  23.017  13.496  13.905
75214W        W46885  32.128  34.850  13.328
75215W        W46886  21.849  24.046   3.292
75216W        W46887  34.647  14.281  10.648
75217W        W46888  39.248  15.245  11.181
75218W        W46889  31.192   0.311   4.223
75219W        W46890  35.245  13.571  14.242
75220W        W46891   0.356  42.764  13.291
75221W        W46892   8.221  22.875  14.320
75222W        W46893   7.760   8.567   0.247
75223W        W46894  35.006  21.140  13.485
75224W        W46895  17.950  23.654   0.767
75225W        W46896  28.020  29.675  13.470
75226W        W46897  30.362  39.877  10.496
75227W        W46898  43.408  22.994   0.558
75228W        W46899  40.090  37.559   2.809
75229W        W46900  15.475  34.013   1.353
75230W        W46901  13.221   4.566  11.313
75231W        W46902  18.232  44.211   2.196
75232W        W46903  20.067  11.384   3.714
75233W        W46904  13.343  21.022  12.883
75234W        W46905  26.524  38.143   3.102
75235W        W46906  24.464   1.988  11.411
75236W        W46907  28.351   9.857   1.009
75237W        W46908   4.217  43.010   0.352
75238W        W46909   5.236  27.928  14.459
75239W        W46910   1.279  29.422  13.003
75240W        W46911   1.281  41.068  11.270
75241W        W46912  13.291  20.939   0.997
75242W        W46913  39.185  24.767   4.969
75243W        W46914  39.463   1.132   4.642
75244W        W46915  32.088  41.547  12.145
75245W        W46916  44.532  11.682  12.794
75246W        W46917  14.196  28.655  10.544
75247W        W46918  28.197  42.032  12.428
75248W        W46919  19.696  42.269   1.199
75249W        W46920   4.937   2.862   0.527
75250W        W46921   5.201   8.433   0.967
75251W        W46922  43.363  25.102   4.001
75252W        W46923  35.446  10.089   1.649
75253W        W46924  42.923  30.247  11.495
75254W        W46925  10.928  23.799   2.797
75255W        W46926  23.683  28.475  13.725
75256W        W46927   9.292  37.017  10.792
75257W        W46928  32.877  28.917   3.868
75258W        W46929  38.340  21.928  14.708
75259W        W46930  20.986  25.794   5.182
75260W        W46931  24.981  33.473  11.055
75261W        W46932  23.707  44.007  12.441
75262W        W46933   5.252  43.780  14.036
75263W        W46934  26.144  39.369   4.588
75264W        W46935  42.031   7.079   3.427
75265W        W46936  19.383  17.590  12.763
75266W        W46937   1.755   5.390   0.018
75267W        W46938   1.980   8.795  14.804
75268W        W46939   6.187  12.255  13.514
75269W        W46940  33.325   4.714   2.284
75270W        W46941   5.794  10.392  11.193
75271W        W46942   3.076  42.518   0.401
75272W        W46943  32.193  37.463  11.889
75273W        W46944  37.525  44.456   0.922
75274W        W46945   9.369  41.889  11.681
75275W        W46946   6.303   7.785  14.062
75276W        W46947  28.981  40.541   3.320
75277W        W46948   7.206  17.975  13.906
75278W        W46949  10.351  27.506  13.995
75279W        W46950  16.093   2.901  14.811
75280W        W46951   5.872  16.505   2.385
75281W        W46952  27.013   0.494  14.898
75282W        W46953  37.021  35.527   3.355
75283W        W46954   5.234  43.525   2.277
75284W        W46955  33.835  13.702   2.852
75285W        W46956   8.250  38.811  13.550
75286W        W46957   0.435   1.965  11.352
75287W        W46958   7.690  38.970   3.269
75288W        W46959  27.544  41.677   1.212
75289W        W46960  32.475   1.010  13.941
75290W        W46961  26.066  35.263  14.375
75291W        W46962  13.764   2.854   2.482
75292W        W46963   7.584  37.945   2.377
75293W        W46964  28.107  38.382   2.774
75294W        W46965   8.428  25.410  11.705
75295W        W46966  30.765   1.790  12.894
75296W        W46967  18.230  44.588   2.742
75297W        W46968  14.772  24.138   4.223
75298W        W46969  18.506  10.522  10.339
75299W        W46970   1.195  30.102   3.566
75300W        W46971   4.893  17.073  14.751
75301W        W46972   7.172  19.227   1.916
75302W        W46973  40.501  34.647   3.687
75303W        W46974  25.960  30.391  11.498
75304W        W46975  44.886  35.371  12.097
75305W        W46976  28.639  37.412   4.523
75306W        W46977   4.178  26.664   2.352
75307W        W46978  27.449  23.220  13.354
75308W        W46979   5.274  28.069  11.922
75309W        W46980  22.274  22.331   2.033
75310W        W46981  28.362  30.317   3.197
75311W        W46982  13.120  24.684   2.407
75312W        W46983  37.886  10.733  11.592
75313W        W46984  29.416  37.873  11.449
75314W        W46985  22.155  32.899   3.344
75315W        W46986  33.527  21.624   4.092
75316W        W46987  21.032   7.746   0.182
75317W        W46988  10.325  17.088  14.601
75318W        W46989   9.010  42.394   2.273
75319W        W46990  36.546  26.710  11.644
75320W        W46991  25.750  21.440   3.614
75321W        W46992  21.980  25.042  10.968
75322W        W46993   4.932   6.971  14.347
75323W        W46994  36.408  20.771   2.672
75324W        W46995   2.431  24.204   0.252
75325W        W46996  43.505  38.041  13.060
75326W        W46997  39.092   2.472  14.789
75327W        W46998   0.332  37.338  10.551
75328W        W46999  12.005  26.050   2.219
75329W        W47000  39.196  34.512  11.158
75330W        W47001  37.282   7.282   4.720
75331W        W47002  22.907  27.227  14.330
75332W        W47003  43.330  44.462  14.496
75333W        W47004  19.653  12.024   3.762
75334W        W47005   5.889  23.297   1.419
75335W        W47006  24.031  28.887   0.742
75336W        W47007  16.179  33.072   1.987
75337W        W47008  44.486  36.447   0.056
75338W        W47009   0.311  38.869  14.323
75339W        W47010   2.367  17.252   4.132
75340W        W47011  14.694  33.026   2.871
75341W        W47012  23.641  41.645   2.983
75342W        W47013   0.915  15.880  12.158
75343W        W47014  38.764   8.302  12.075
75344W        W47015  43.437  30.919   3.699
75345W        W47016  40.441  23.178  14.817
75346W        W47017   0.406   2.311   0.569
75347W        W47018  22.983   5.310   3.238
75348W        W47019  27.201  24.685   2.948
75349W        W47020  22.539  17.035   1.840
75350W        W47021   6.323  27.472   0.370
75351W        W47022   7.559  27.114   1.724
75352W        W47023  18.365  37.967   2.024
75353W        W47024   3.878   3.572  14.810
75354W        W47025  42.003  37.351  13.574
75355W        W47026  21.022   1.993   0.334
75356W        W47027  40.429   0.463   3.570
75357W        W47028  22.367  34.884   3.850
75358W        W47029  17.756   6.154   3.775
75359W        W47030  11.658  23.950   2.138
75360W        W47031   7.696  13.572  12.051
75361W        W47032  26.559  22.751   4.082
75362W        W47033   3.410  14.769  14.952
75363W        W47034  26.588   3.309   1.940
75364W        W47035  44.920  40.833   4.137
75365W        W47036   0.279  31.930   0.440
75366W        W47037  13.325  41.443   3.675
75367W        W47038   0.031   6.555   3.161
75368W        W47039  32.016  33.522  13.142
75369W        W47040  33.324  38.906   1.387
75370W        W47041  25.658  28.217   2.286
75371W        W47042   6.665  32.673  11.156
75372W        W47043  31.465  30.598  10.783
75373W        W47044  19.937  43.485  12.560
75374W        W47045  22.192  15.647  13.854
75375W        W47046  35.170  40.640   3.693
75376W        W47047  31.413   1.867   4.060
75377W        W47048   4.811   7.734  14.769
75378W        W47049  21.004  11.598  13.207
75379W        W47050  13.441  24.039  12.106
75380W        W47051  42.537   8.406  11.900
75381W        W47052  20.561   6.781   3.109
75382W        W47053  33.463  30.825   0.912
75383W        W47054  11.103  30.820   2.075
75384W        W47055  24.123  26.690   2.877
75385W        W47056  31.600  12.339   4.347
75386W        W47057  23.693  11.848  14.578
75387W        W47058  23.942  29.304  13.923
75388W        W47059  19.770  27.021  13.905
75389W        W47060  39.738   7.750  11.708
75390W        W47061  16.102  30.603  13.416
75391W        W47062   1.275  41.501   4.809
75392W        W47063  42.421  16.978  14.491
75393W        W47064   1.621   7.661  14.322
75394W        W47065   8.669   4.817   4.621
75395W        W47066  12.387  43.432  13.876
75396W        W47067  34.867  15.268   0.679
75397W        W47068  14.206  31.416   2.296
75398W        W47069   3.307  36.854  14.202
75399W        W47070  16.496   4.218   2.249
75400W        W47071  37.416  10.183   3.345
75401W        W47072   8.198  40.205  11.187
75402W        W47073   2.543  42.451   1.891
75403W        W47074   9.162  28.154   3.126
75404W        W47075  43.705  13.449   3.515
75405W        W47076  18.741   0.737   3.166
75406W        W47077  29.015   7.851   4.937
75407W        W47078  27.616  17.517   4.486
75408W        W47079  29.515  19.511  14.999
75409W        W47080  24.918  41.462  10.757
75410W        W47081   7.226  19.291  13.538
75411W        W47082  30.837  28.293  14.905
75412W        W47083  13.104  19.738  13.895
75413W        W47084  20.084  22.869  13.271
75414W        W47085  32.093  35.047  10.660
75415W        W47086  22.845  35.522   1.890
75416W        W47087  29.184  38.576   1.410
75417W        W47088   3.260  37.535   5.037
75418W        W47089  29.829  20.210   4.704
75419W        W47090  16.810   8.416   3.142
75420W        W47091  15.395   6.236   2.311
75421W        W47092  22.978   6.505  10.613
75422W        W47093   0.121  24.344   2.349
75423W        W47094  19.366  14.748   4.587
75424W        W47095  30.673  27.628   0.685
75425W        W47096  15.551  40.105   1.759
75426W        W47097  24.000   5.715  12.934
75427W        W47098  20.619  42.272   0.927
75428W        W47099  26.121  12.106   1.035
75429W        W47100   5.864  23.210  10.695
75430W        W47101  22.585  44.660  12.706
75431W        W47102  21.295  31.921  14.395
75432W        W47103  22.271   3.604   0.765
75433W        W47104  13.249  22.748   1.336
75434W        W47105  17.861  37.397   2.765
75435W        W47106   2.086   0.737   3.158
75436W        W47107  26.431  10.219   4.646
75437W        W47108  42.317  20.038  14.003
75438W        W47109  27.933  11.158   1.365
75439W        W47110  14.316  14.635   0.822
75440W        W47111  18.284  38.854   4.194
75441W        W47112  26.993  18.153  10.715
75442W        W47113  30.842  34.043  11.481
75443W        W47114  22.134  32.357   4.701
75444W        W47115  10.970  29.654  13.975
75445W        W47116   4.970  17.693   2.296
75446W        W47117  37.927  36.831   2.456
75447W        W47118  16.588  12.851  10.714
75448W        W47119  31.410  39.843  12.545
75449W        W47120   4.087   6.294   0.467
75450W        W47121  27.128  27.469   4.616
75451W        W47122  10.890  10.723  14.744
75452W        W47123  33.159  30.042  14.402
75453W        W47124  17.744  28.691  13.546
75454W        W47125  40.263  26.904   3.688
75455W        W47126  16.711   6.300   4.452
75456W        W47127  34.826  42.681  13.419
75457W        W47128  12.556  22.713   4.097
75458W        W47129  43.168  16.234  14.771
75459W        W47130   9.921  32.696  11.061
75460W        W47131  12.906  43.206  12.981
75461W        W47132   1.756   3.929   4.169
75462W        W47133  11.109  37.019   3.578
75463W        W47134  44.928  27.378   0.185
75464W        W47135   6.310  26.163   3.433
75465W        W47136   3.979   0.036   3.203
75466W        W47137  42.977  38.377  14.129
75467W        W47138  16.713  34.360  12.031
75468W        W47139   2.150  21.640  12.870
75469W        W47140   6.715  25.009   3.672
75470W        W47141  16.132  10.654  12.508
75471W        W47142  15.234  21.798   1.182
75472W        W47143  29.845  32.910   1.796
75473W        W47144   9.540   3.387   5.066
75474W        W47145  44.869  38.312   4.350
75475W        W47146   6.439  43.491  11.153
75476W        W47147   8.145  36.868  11.596
75477W        W47148  26.976  33.813  14.263
75478W        W47149  27.169  16.371  13.366
75479W        W47150  16.835  43.766   0.507
75480W        W47151   8.811  33.109  10.746
75481W        W47152   2.793  25.674   4.157
75482W        W47153  27.344  44.138  12.477
75483W        W47154   1.838  19.792  12.431
75484W        W47155   9.917  30.480   0.046
75485W        W47156  22.596  42.455  12.586
75486W        W47157  22.920   2.298   1.958
75487W        W47158  33.119  22.077   3.249
75488W        W47159  28.902  15.308  11.480
75489W        W47160  32.067  38.056   1.388
75490W        W47161  33.917  34.248  10.343
75491W        W47162  22.426  20.653  11.247
75492W        W47163   7.264   2.306  14.051
75493W        W47164   7.812   4.216   0.454
75494W        W47165   2.006   8.833  13.947
75495W        W47166  43.729  16.181   1.075
75496W        W47167  38.980  29.235  12.921
75497W        W47168  42.852   0.939  13.137
75498W        W47169  17.473  12.601   4.501
75499W        W47170  40.415  43.505   4.623
75500W        W47171  14.327  34.599   2.862
75501W        W47172  12.152  38.050  12.596
75502W        W47173  41.055  44.239   1.458
75503W        W47174  31.127   2.345  11.444
75504W        W47175  22.947  30.622   1.777
75505W        W47176  21.179  14.464   0.222
75506W        W47177   0.034  36.998   3.324
75507W        W47178  16.771  15.510  13.789
75508W        W47179  13.409  29.261  11.461
75509W        W47180  14.322   9.675   3.616
75510W        W47181  25.726  12.700  13.763
75511W        W47182  26.093   3.300   3.209
75512W        W47183  24.955  10.320  12.577
75513W        W47184  15.251  17.918  10.342
75514W        W47185  16.279  11.778   3.751
75515W        W47186  33.562  15.038   4.710
75516W        W47187   8.658  14.538  11.644
75517W        W47188  18.428  22.082   3.820
75518W        W47189  17.189  12.369   3.180
75519W        W47190  24.005  23.063  14.286
75520W        W47191  14.587   7.459  14.025
75521W        W47192  38.984  44.526  14.007
75522W        W47193  39.539   9.453  12.972
75523W        W47194  17.738  28.553  12.376
75524W        W47195   5.711   6.587  11.653
75525W        W47196  43.017   9.140  11.587
75526W        W47197  44.819  32.585   4.569
75527W        W47198  22.509   5.337   0.200
75528W        W47199  10.926  11.664   3.159
75529W        W47200  16.388  41.274   3.177
75530W        W47201  15.282  18.776   3.200
75531W        W47202   7.492  35.960  10.031
75532W        W47203   3.217  32.159  13.769
75533W        W47204  14.324  15.614  13.077
75534W        W47205   3.814  37.645   4.465
75535W        W47206   0.975  25.952  13.991
75536W        W47207   6.174  24.297   2.319
75537W        W47208  30.650  21.302   3.781
75538W        W47209   0.490  35.345   1.734
75539W        W47210  35.703   2.153   0.882
75540W        W47211  25.322   1.055   0.443
75541W        W47212  26.083   5.128  11.136
75542W        W47213  32.164   7.443  13.942
75543W        W47214  32.986   0.043   0.722
75544W        W47215  38.840  29.745   1.309
75545W        W47216  12.749   5.340  10.436
75546W        W47217   4.950   9.393  11.025
75547W        W47218   4.153  25.600   0.843
75548W        W47219  32.274  12.054   3.840
75549W        W47220  40.208   5.939   3.630
75550W        W47221  31.409  38.749  12.426
75551W        W47222  42.035  29.139  11.567
75552W        W47223  28.585  36.870   0.176
75553W        W47224  14.224  36.929   1.996
75554W        W47225  16.280  34.169  11.829
75555W        W47226  35.029   7.689  12.948
75556W        W47227  19.680  23.211  13.360
75557W        W47228  18.154  13.866  12.072
75558W        W47229  30.876  30.353   4.185
75559W        W47230  41.920  36.312   2.272
75560W        W47231  13.472  43.301  11.152
75561W        W47232  43.356  40.840  14.308
75562W        W47233  19.577  29.202  13.914
75563W        W47234  41.452  38.045  11.935
75564W        W47235   6.941  21.266   3.221
75565W        W47236  27.996  14.203   4.517
75566W        W47237   6.170  44.391  10.336
75567W        W47238  17.287   8.247  12.855
75568W        W47239  36.265  37.788   0.878
75569W        W47240  44.850  22.965   2.008
75570W        W47241  13.230  10.204   3.731
75571W        W47242  16.241  10.319  13.438
75572W        W47243   7.002  40.929  14.433
75573W        W47244  19.244  26.016   2.957
75574W        W47245  28.517  20.858  14.423
75575W        W47246  10.283   7.309  11.056
75576W        W47247   2.330  14.493  14.579
75577W        W47248   4.331  29.858   1.001
75578W        W47249  32.363  29.963   1.318
75579W        W47250  26.265   8.156  14.540
75580W        W47251   3.483  30.127  14.729
75581W        W47252  23.528   2.288   3.868
75582W        W47253  38.088  26.617  14.885
75583W        W47254  15.016  11.393   3.665
75584W        W47255   0.437   2.831  11.815
75585W        W47256  44.037  14.106  13.509
75586W        W47257  18.490  19.175   4.105
75587W        W47258  41.686   3.706  13.674
75588W        W47259  43.839  26.811  11.213
75589W        W47260  25.144  14.220   4.363
75590W        W47261  19.582  17.766  14.511
75591W        W47262  10.611  44.666  12.141
75592W        W47263  39.957  43.772   0.014
75593W        W47264   4.219   4.392  13.059
75594W        W47265  41.979   0.713  11.533
75595W        W47266  12.086  36.002  11.182
75596W        W47267   5.223   3.982  14.822
75597W        W47268  34.444   2.758   1.253
75598W        W47269  26.729  31.635  13.121
75599W        W47270   6.358  15.628   2.770
75600W        W47271  14.038  16.153  11.685
75601W        W47272  14.116  39.904   0.708
75602W        W47273  26.083   6.240  11.295
75603W        W47274  26.195   3.294  11.691
75604W        W47275   6.208   1.901  14.073
75605W        W47276   2.149  10.622   4.746
75606W        W47277  29.098  16.598   2.185
75607W        W47278   3.667  19.822  10.625
75608W        W47279  36.411  32.183   2.602
75609W        W47280  38.367  22.662  13.844
75610W        W47281  15.684  37.258  12.521
75611W        W47282  39.581  20.549   2.349
75612W        W47283  14.265   1.845  11.967
75613W        W47284  11.645  32.510   4.067
75614W        W47285   7.394  17.980   2.927
75615W        W47286  12.098  20.669  12.427
75616W        W47287  20.858  14.043   0.279
75617W        W47288  39.394  41.926   1.922
75618W        W47289  41.328   5.871  14.382
75619W        W47290  34.041  21.901   4.889
75620W        W47291   8.885   0.614  10.734
75621W        W47292  43.453   0.725  13.450
75622W        W47293  40.288  24.066  10.785
75623W        W47294  23.052  43.711   4.688
75624W        W47295  20.267  11.472   5.070
75625W        W47296  29.826  26.581   3.661
75626W        W47297   9.987  32.033  10.934
75627W        W47298   9.634  41.535   0.430
75628W        W47299  29.129  20.481   0.159
75629W        W47300  33.435  42.749  12.380
75630W        W47301  14.816  15.318   1.400
75631W        W47302  17.410  15.119  11.004
75632W        W47303  16.740  32.616   3.153
75633W        W47304  43.303   7.742   2.886
75634W        W47305   0.102   2.983   3.257
75635W        W47306   3.941  18.657   2.773
75636W        W47307  15.601  26.989  13.006
75637W        W47308   2.413  41.756  12.569
75638W        W47309  38.254  19.474   0.984
75639W        W47310  22.992   0.284  11.888
75640W        W47311  11.304  24.007  12.994
75641W        W47312  13.140   3.179  12.935
75642W        W47313  15.118  43.453  12.116
75643W        W47314  43.294  23.708  13.439
75644W        W47315  25.107  37.175  12.018
75645W        W47316  35.942  33.681  10.303
75646W        W47317  13.573  25.357   3.723
75647W        W47318  36.076  15.976   4.730
75648W        W47319  39.869  27.365   4.907
75649W        W47320  10.331  27.710   4.235
75650W        W47321  29.524  18.123  14.769
75651W        W47322  15.626   4.438   3.738
75652W        W47323  19.612  43.054  13.432
75653W        W47324   0.243  34.656  12.383
75654W        W47325  19.607  39.877  13.851
75655W        W47326  31.371  43.334   4.126
75656W        W47327   7.158  44.621  13.788
75657W        W47328  20.270   4.332  11.669
75658W        W47329  24.522  36.927  11.228
75659W        W47330   0.728  11.760   0.255
75660W        W47331  18.079  12.434  12.085
75661W        W47332  29.639   7.082   5.056
75662W        W47333  14.298   4.291  14.024
75663W        W47334  34.410  43.879  10.993
75664W        W47335  30.401  29.215  13.915
75665W        W47336   6.016  40.532  13.396
75666W        W47337  12.867   4.889  13.871
75667W        W47338  13.278   5.591  11.094
75668W        W47339   1.866  27.000   3.263
75669W        W47340   2.892  17.659  14.803
75670W        W47341   7.596  23.569  14.898
75671W        W47342  15.639  17.866   2.226
75672W        W47343  10.881  34.023   2.382
75673W        W47344  36.282  40.890  10.606
75674W        W47345  24.527  25.615   3.586
75675W        W47346   8.789  24.594   1.073
75676W        W47347  32.015   0.475   2.405
75677W        W47348  31.973  11.529  13.116
75678W        W47349  37.800  11.282  13.444
75679W        W47350  32.549   5.620  11.407
75680W        W47351  24.907  27.041  12.753
75681W        W47352  18.138  12.306   3.386
75682W        W47353  31.929  17.500  10.311
75683W        W47354   6.241  12.836   0.917
75684W        W47355  33.583   2.523  13.825
75685W        W47356  11.230  30.128  13.519
75686W        W47357  44.921  11.898   9.823
75687W        W47358  38.802  16.801   2.238
75688W        W47359   5.622  19.748   2.110
75689W        W47360  14.886   3.135   2.326
75690W        W47361  43.229  43.370  14.544
75691W        W47362   0.368  13.824  12.345
75692W        W47363  38.077  29.675  10.752
75693W        W47364   2.800  23.774  11.947
75694W        W47365  12.244  30.055   2.916
75695W        W47366  38.310   5.269  14.835
75696W        W47367   5.724  13.828  12.991
75697W        W47368  25.357  15.673   9.788
75698W        W47369  39.268  40.231  10.349
75699W        W47370   3.247  39.913   0.722
75700W        W47371  28.528  17.704   0.003
75701W        W47372  38.499  17.551  12.953
75702W        W47373   6.452  35.501  11.156
75703W        W47374  16.046   0.826  13.020
75704W        W47375  20.558  36.754  10.708
75705W        W47376  13.662   2.150   3.645
75706W        W47377   2.984   8.791  14.953
75707W        W47378  21.240  11.815  13.903
75708W        W47379  10.884   9.397   3.570
75709W        W47380  36.343  34.404  11.224
75710W        W47381  41.327  42.276   2.444
75711W        W47382   0.926   5.031  10.068
75712W        W47383  32.885  43.387  12.384
75713W        W47384  35.565  24.873  13.530
75714W        W47385  25.501  39.969  14.145
75715W        W47386  39.423  13.133   4.594
75716W        W47387   3.254  30.576   2.835
75717W        W47388  13.352  44.459   0.791
75718W        W47389  21.412  19.790  11.473
75719W        W47390  26.003  26.146   3.551
75720W        W47391   4.470   7.922   0.512
75721W        W47392  11.291  21.612  12.112
75722W        W47393  30.491   8.477  12.614
75723W        W47394  18.999  36.078   3.174
75724W        W47395  41.887  11.187   4.694
75725W        W47396  14.575  34.497   0.623
75726W        W47397  28.557   8.387   1.789
75727W        W47398  38.894   9.785  11.622
75728W        W47399  28.352  20.074  14.070
75729W        W47400  44.381   3.305  10.700
75730W        W47401  35.028  14.153   4.078
75731W        W47402  13.662  26.159   0.802
75732W        W47403  33.640  10.889   4.231
75733W        W47404   5.745   6.691   0.773
75734W        W47405   9.648  39.497  13.521
75735W        W47406  40.362  21.700  12.794
75736W        W47407  40.350   0.286  12.071
75737W        W47408  35.574  16.539  13.425
75738W        W47409  27.538  18.573  14.747
75739W        W47410  28.481  15.060   4.182
75740W        W47411  21.230   2.696  14.711
75741W        W47412  22.789  22.123   1.766
75742W        W47413   3.086  38.056   4.556
75743W        W47414  34.612  39.766   2.770
75744W        W47415  33.998   0.361   3.157
75745W        W47416   9.307  10.267   0.727
75746W        W47417  32.614  25.616  13.850
75747W        W47418   2.515   9.983  11.091
75748W        W47419   0.634  44.779   2.881
75749W        W47420  27.074  14.873   3.086
75750W        W47421  11.357  30.655  12.898
75751W        W47422  37.824  20.158  11.594
75752W        W47423  38.468  11.737  11.162
75753W        W47424  40.339  23.474  12.434
75754W        W47425  19.651  21.027   4.290
75755W        W47426  38.596   3.927   3.263
75756W        W47427  23.131  34.451   2.698
75757W        W47428   8.238  18.440   2.802
75758W        W47429  30.184   5.833   1.173
75759W        W47430  34.473  32.921   3.223
75760W        W47431   7.163  37.331  11.450
75761W        W47432  17.996  40.259   3.715
75762W        W47433  13.180  28.723  14.443
75763W        W47434  39.251  42.819   0.261
75764W        W47435  32.435  24.283   2.282
75765W        W47436   1.033  31.692  12.272
75766W        W47437  23.034  27.340   3.809
75767W        W47438   0.872   9.292   0.908
75768W        W47439  19.764  24.783  12.762
75769W        W47440   7.260  31.119   2.454
75770W        W47441   9.876  43.894  13.570
75771W        W47442  33.520  16.625   1.277
75772W        W47443  28.293  11.322   4.196
75773W        W47444  13.338  21.760  13.970
75774W        W47445  13.686  17.504   0.541
75775W        W47446  37.910  18.765   4.554
75776W        W47447   3.307  23.031   0.656
75777W        W47448  36.060  14.369   2.871
75778W        W47449   4.218  30.231   2.843
75779W        W47450   1.274  37.495   4.443
75780W        W47451  32.309  30.789  13.529
75781W        W47452  33.951  25.996  12.810
75782W        W47453  14.714  33.599   0.156
75783W        W47454   8.664   1.965  12.913
75784W        W47455  14.982  37.827  12.910
75785W        W47456  26.346  17.281  12.164
75786W        W47457  26.151  42.921   0.753
75787W        W47458  43.157  11.132   5.020
75788W        W47459  16.401  15.111   2.246
75789W        W47460  33.057  16.279  14.765
75790W        W47461  26.101   1.204   3.253
75791W        W47462  24.566  42.003  12.005
75792W        W47463  20.149  10.600   3.339
75793W        W47464  41.531  31.464   1.781
75794W        W47465  41.325  33.004   0.555
75795W        W47466   9.340   4.881  12.153
75796W        W47467  15.677  42.384  14.046
75797W        W47468  25.496  25.250  13.041
75798W        W47469  27.708  35.877  14.920
75799W        W47470  25.997  33.016  14.313
75800W        W47471  38.039   6.571   2.677
75801W        W47472  32.024  25.860  11.017
75802W        W47473  14.069  19.754  12.133
75803W        W47474  14.804  22.748  12.078
75804W        W47475  21.519   8.871  12.129
75805W        W47476  14.753  24.221  11.182
75806W        W47477  44.955  16.245   3.549
75807W        W47478  26.450   1.410   0.825
75808W        W47479  42.330  13.788  14.679
75809W        W47480  16.299  37.545  13.509
75810W        W47481  14.927  16.269  10.687
75811W        W47482  27.080  43.831  13.834
75812W        W47483  32.222  35.132  11.555
75813W        W47484  10.658  15.317   1.442
75814W        W47485  18.811   6.187   1.310
75815W        W47486   4.372  24.924   3.671
75816W        W47487   8.515  37.426  13.339
75817W        W47488  32.049  31.136  14.534
75818W        W47489  32.642  24.091  12.021
75819W        W47490   2.475  37.660  10.554
75820W        W47491  27.194  43.390  13.053
75821W        W47492  33.815  29.061   1.725
75822W        W47493  34.074  10.886  10.988
75823W        W47494  34.022   7.113  14.379
75824W        W47495   3.234  17.411  12.913
75825W        W47496   8.758   9.541   0.262
75826W        W47497  15.170  38.432  13.531
75827W        W47498  27.071  33.467  10.108
75828W        W47499  43.274  12.250  12.209
75829W        W47500   3.262   3.424   3.607
75830W        W47501  29.618  12.282  14.640
75831W        W47502  13.809  38.775  11.217
75832W        W47503  31.992  21.273   0.792
75833W        W47504   7.844  10.130  11.624
75834W        W47505  35.529  25.184  14.417
75835W        W47506   4.448  44.868  12.128
75836W        W47507  36.981   6.991   2.166
75837W        W47508  25.398  32.629  11.108
75838W        W47509  14.942  17.515   0.874
75839W        W47510  12.155   9.720  14.398
75840W        W47511   5.351  42.406   1.539
75841W        W47512  19.069  43.704  10.669
75842W        W47513  39.633   0.905  11.171
75843W        W47514  23.515  17.251   0.363
75844W        W47515  21.117  42.964  13.765
75845W        W47516   1.532  44.898  14.281
75846W        W47517  37.801  17.181  13.508
75847W        W47518  43.898  28.595   2.275
75848W        W47519   7.571  20.630   0.766
75849W        W47520  22.759   8.882   2.876
75850W        W47521   2.364  20.080  12.460
75851W        W47522   6.881  11.711   4.569
75852W        W47523  10.595  32.646   2.288
75853W        W47524   2.466  24.497   3.886
75854W        W47525  22.770   9.435   4.194
75855W        W47526   2.847   7.852  10.950
75856W        W47527  14.790  19.840  13.946
75857W        W47528  10.709  19.933   1.745
75858W        W47529   4.431  14.796  10.740
75859W        W47530   7.404  21.323  14.754
75860W        W47531  28.142   0.225   3.887
75861W        W47532  38.098  14.152  11.946
75862W        W47533  26.734   2.432  11.527
75863W        W47534  17.108  24.152  13.310
75864W        W47535  31.563   4.334   4.524
75865W        W47536  32.912  37.181   2.749
75866W        W47537   3.181  32.431   0.734
75867W        W47538  34.279  25.439  11.679
75868W        W47539  35.520  19.318   3.983
75869W        W47540  17.437  10.767   4.100
75870W        W47541  12.825  43.912   2.787
75871W        W47542  39.421  34.658  13.913
75872W        W47543  40.557  12.114  11.300
75873W        W47544  25.500   8.761   1.576
75874W        W47545  26.358  13.814   4.639
75875W        W47546  26.515  38.351  12.513
75876W        W47547  37.905  11.177   0.469
75877W        W47548  37.418  37.155  15.000
75878W        W47549  23.585   2.859   2.215
75879W        W47550  17.973   8.301   4.707
75880W        W47551  21.202  10.302   1.493
75881W        W47552  22.156  20.066  11.467
75882W        W47553  15.742  25.245   3.836
75883W        W47554  44.528  32.550   3.580
75884W        W47555  43.439  14.665   4.828
75885W        W47556  41.853  18.274  14.035
75886W        W47557  28.602  16.344   0.568
75887W        W47558  21.468  16.264   2.069
75888W        W47559  31.108  35.447  12.259
75889W        W47560   2.858  31.690   4.298
75890W        W47561  35.435   3.983   2.343
75891W        W47562   4.718  23.571  10.577
75892W        W47563   0.275  18.794   3.781
75893W        W47564  35.064  16.703   1.237
75894W        W47565  28.049  43.977  11.898
75895W        W47566  17.065   5.112  14.385
75896W        W47567  43.108  19.193   3.039
75897W        W47568  42.774  14.204  13.101
75898W        W47569  17.188  33.545  10.644
75899W        W47570   8.886  43.971   1.900
75900W        W47571  19.295   8.358  13.475
75901W        W47572  36.630  42.542  11.480
75902W        W47573   1.271  22.066  12.978
75903W        W47574  44.735  30.815   4.105
75904W        W47575  32.381  16.875  13.141
75905W        W47576  35.936  20.320   0.949
75906W        W47577  35.902  44.250  10.778
75907W        W47578  20.078   2.318   0.481
75908W        W47579  27.810   9.360   9.820
75909W        W47580  11.188   3.164  12.645
75910W        W47581  20.291   1.929   1.441
75911W        W47582  19.237  13.682  11.947
75912W        W47583  31.817  43.284   3.051
75913W        W47584   5.398  44.575   3.095
75914W        W47585  26.007  43.830  10.624
75915W        W47586   2.816  34.840  13.959
75916W        W47587   7.799  39.155   1.349
75917W        W47588   1.971  16.638  12.934
75918W        W47589   2.415  27.240   3.194
75919W        W47590  31.476  25.504  11.996
75920W        W47591  38.764  18.382  13.598
75921W        W47592  18.128   3.455   3.174
75922W        W47593  14.464   0.033  12.034
75923W        W47594  17.756   9.191   0.414
75924W        W47595  31.943  18.607   3.987
75925W        W47596   0.323   8.367   1.533
75926W        W47597  33.004   6.403  12.120
75927W        W47598   9.151   2.182  13.941
75928W        W47599  14.536  42.861   5.104
75929W        W47600   9.263  29.980   2.635
75930W        W47601   2.967  43.315   1.433
75931W        W47602  12.428   7.487   4.891
75932W        W47603  13.137  28.124  14.047
75933W        W47604  22.716  41.295   4.184
75934W        W47605  11.365  32.874   4.342
75935W        W47606  26.894  24.595  12.082
75936W        W47607  44.748  26.399  11.143
75937W        W47608  31.737  35.525   0.308
75938W        W47609  21.970  16.327   2.236
75939W        W47610  43.474  42.008   0.782
75940W        W47611  11.162  12.775  12.965
75941W        W47612  17.097  32.187  13.008
75942W        W47613  27.039   5.386  12.164
75943W        W47614  41.584  19.364  13.337
75944W        W47615   2.297  29.527   4.792
75945W        W47616  37.797  30.418  11.197
75946W        W47617  10.214  12.627  13.590
75947W        W47618  16.638  40.876  14.343
75948W        W47619  23.296  19.262   4.837
75949W        W47620  31.207   0.038   2.739
75950W        W47621  20.028  20.191   0.969
75951W        W47622   3.308  12.037  13.998
75952W        W47623  41.893   0.981   1.606
75953W        W47624  18.347  33.533   4.150
75954W        W47625  35.993  21.743  10.785
75955W        W47626  10.087   8.238  11.551
75956W        W47627  21.226   6.521  14.933
75957W        W47628  10.634   6.442  14.952
75958W        W47629  21.371  21.511  11.824
75959W        W47630  13.513  27.795  14.256
75960W        W47631  11.780  35.537   4.585
75961W        W47632  21.258  39.160   2.942
75962W        W47633  24.188   4.943   0.397
75963W        W47634  40.484  39.522   2.924
75964W        W47635  26.497  31.263   4.180
75965W        W47636  38.338  30.087   2.387
75966W        W47637  36.028   2.648   3.752
75967W        W47638   9.641  37.116   1.718
75968W        W47639  13.976  40.522   5.321
75969W        W47640  44.034  35.910  10.738
75970W        W47641  20.201  35.700  11.633
75971W        W47642  24.036  41.036  11.134
75972W        W47643  17.551  10.060   3.741
75973W        W47644   3.771   9.225  14.814
75974W        W47645  24.079   0.945  10.690
75975W        W47646  33.295  14.599  10.831
75976W        W47647  22.018  33.521  11.133
75977W        W47648  24.540  31.013  13.311
75978W        W47649  43.495  35.863  12.043
75979W        W47650   6.931  40.770   1.258
75980W        W47651  18.803   3.029  11.131
75981W        W47652  32.350  19.810  14.869
75982W        W47653  16.863   1.785   1.395
75983W        W47654  35.516   9.820  14.468
75984W        W47655   0.273  42.901   3.448
75985W        W47656  15.917   7.477   4.948
75986W        W47657  26.988  31.093   1.186
75987W        W47658  15.220  41.272  14.715
75988W        W47659   5.482  42.519   5.369
75989W        W47660   3.641  28.138  10.312
75990W        W47661   3.508   5.390   3.682
75991W        W47662  28.474  31.190  14.233
75992W        W47663   0.777  41.784  11.103
75993W        W47664  16.131  12.211  14.750
75994W        W47665  39.052  26.569   0.844
75995W        W47666  25.691  18.682   0.914
75996W        W47667  26.784  38.178  10.697
75997W        W47668  38.686  25.306   2.125
75998W        W47669  33.961   7.046   0.284
75999W        W47670  15.147  10.627  12.028
76000W        W47671  35.973  14.677   3.271
76001W        W47672  35.434  32.441  12.866
76002W        W47673  26.059  18.639   4.747
76003W        W47674   3.315  18.057   2.401
76004W        W47675  21.697   2.210   3.826
76005W        W47676  23.527  27.784   0.504
76006W        W47677  44.124   5.918  12.976
76007W        W47678  37.909  37.032  14.834
76008W        W47679  15.269  12.822  11.831
76009W        W47680  30.925  38.268  14.473
76010W        W47681   5.759  20.310  11.896
76011W        W47682  27.918  32.440  13.454
76012W        W47683  27.451  18.624   3.757
76013W        W47684  23.934  34.917   4.637
76014W        W47685   1.853   4.455   1.099
76015W        W47686  25.370   7.726   0.243
76016W        W47687   1.439  20.064   1.373
76017W        W47688  37.671  13.605   0.447
76018W        W47689  41.408   4.832   3.170
76019W        W47690  41.005  26.248  13.520
76020W        W47691  28.679  43.194  13.294
76021W        W47692  31.108  11.599   2.104
76022W        W47693   6.057  15.431  11.990
76023W        W47694  26.496  37.134   3.123
76024W        W47695   1.248  22.686   2.635
76025W        W47696  10.689  36.361  11.023
76026W        W47697  20.547  31.322   0.291
76027W        W47698  26.986   4.221  11.987
76028W        W47699  10.772  37.994   3.871
76029W        W47700   7.123  22.338  14.500
76030W        W47701  41.311  41.935   4.121
76031W        W47702  10.931   2.810  11.657
76032W        W47703  27.894  35.397   3.024
76033W        W47704  40.211  13.897  13.548
76034W        W47705  11.391  17.651  12.065
76035W        W47706   6.298  13.364   4.151
76036W        W47707  13.786  33.901   3.897
76037W        W47708  22.203  24.096   5.341
76038W        W47709   0.839  32.953   2.065
76039W        W47710  21.501  34.320  12.134
76040W        W47711   1.795  22.201   0.270
76041W        W47712  35.051  29.461  11.623
76042W        W47713  19.235  43.330  11.964
76043W        W47714   4.850  19.606   1.002
76044W        W47715   4.522   5.991   0.304
76045W        W47716  25.787  11.163  11.441
76046W        W47717  21.285  39.881   3.925
76047W        W47718   9.765  23.088  10.670
76048W        W47719  27.972  20.132  11.553
76049W        W47720   1.842  44.918   4.720
76050W        W47721  14.112  10.346  14.480
76051W        W47722  36.096   2.902  11.093
76052W        W47723  41.327  22.720   2.729
76053W        W47724  33.145  14.771  13.819
76054W        W47725  44.005  26.134   3.180
76055W        W47726   6.453  33.208  12.515
76056W        W47727   8.629  15.392  13.908
76057W        W47728  19.362  12.625   2.620
76058W        W47729  25.033   4.806  12.417
76059W        W47730  44.816  17.961  11.576
76060W        W47731  41.516  36.881  13.792
76061W        W47732  38.822  24.704  14.010
76062W        W47733  36.531  30.195   3.579
76063W        W47734  35.330  38.595  10.597
76064W        W47735   7.958  35.818   0.906
76065W        W47736  40.536  44.242   1.413
76066W        W47737  25.603  16.354   2.414
76067W        W47738  28.443  24.226  11.586
76068W        W47739  14.008  14.576   0.403
76069W        W47740  11.352  16.814   0.688
76070W        W47741  19.320   5.711   4.359
76071W        W47742  39.222  19.648  12.503
76072W        W47743  28.365  16.387  10.992
76073W        W47744  17.182  39.839   3.972
76074W        W47745   1.114   2.605  11.490
76075W        W47746  23.201  37.709   5.384
76076W        W47747  40.344  34.814  14.346
76077W        W47748  43.315  18.577  11.774
76078W        W47749   2.882  44.240   4.523
76079W        W47750  23.060  38.659  13.315
76080W        W47751  44.059  24.054  11.949
76081W        W47752  29.652  14.323   3.217
76082W        W47753  37.529  13.899   3.681
76083W        W47754  13.016  11.315   2.548
76084W        W47755  33.131  22.218  13.135
76085W        W47756  12.147  28.398  12.556
76086W        W47757  35.041   0.935   4.143
76087W        W47758  12.758   6.814  13.335
76088W        W47759  34.791  39.218  11.959
76089W        W47760  21.592   3.919   2.648
76090W        W47761  30.542  41.838   1.926
76091W        W47762  28.157  37.868   1.934
76092W        W47763  33.116  38.778   3.593
76093W        W47764  41.813  25.775  12.824
76094W        W47765  41.852  36.148  13.049
76095W        W47766  18.111  31.884  11.645
76096W        W47767  13.850   3.765   2.857
76097W        W47768  18.494   0.328   1.449
76098W        W47769  34.616  30.058  11.207
76099W        W47770  44.801   9.485  13.710
76100W        W47771  34.943  35.516   3.878
76101W        W47772  24.725  18.666   3.364
76102W        W47773  19.209  28.094   3.399
76103W        W47774  39.566  38.345   1.938
76104W        W47775  42.502  23.043   0.404
76105W        W47776  41.928  40.926  14.269
76106W        W47777  11.657   5.854  12.996
76107W        W47778  20.886  15.257   3.236
76108W        W47779  31.483   1.725  12.416
76109W        W47780  19.562  11.588  13.761
76110W        W47781   3.601   8.648   1.393
76111W        W47782  16.132  44.904   3.276
76112W        W47783  13.763  10.417   0.694
76113W        W47784  14.253  43.967  10.392
76114W        W47785   8.195  35.017   3.916
76115W        W47786  39.570  31.936   3.735
76116W        W47787  41.607  18.768  14.943
76117W        W47788  21.383  32.943  10.249
76118W        W47789   8.166   3.383  13.539
76119W        W47790  18.254  25.660  12.484
76120W        W47791  35.175   5.267  14.542
76121W        W47792  26.188   2.994  10.826
76122W        W47793  39.099   0.771   2.194
76123W        W47794  25.517  35.447  12.915
76124W        W47795  18.250  33.636   0.962
76125W        W47796  40.386  10.757  12.573
76126W        W47797  17.324  11.157   1.853
76127W        W47798  43.828   2.661  11.634
76128W        W47799  39.977   9.695  10.578
76129W        W47800  36.067   4.637  13.591
76130W        W47801  24.425  15.625  14.588
76131W        W47802  13.727  37.795   3.329
76132W        W47803  14.272  24.957   2.725
76133W        W47804  30.990  39.965  11.298
76134W        W47805   1.840  20.237   0.320
76135W        W47806  19.230  20.101  10.999
76136W        W47807   5.467  36.829  14.952
76137W        W47808   4.545  32.408  11.968
76138W        W47809  22.220  40.286   0.353
76139W        W47810  14.727  15.102   0.022
76140W        W47811  36.354  37.860  12.754
76141W        W47812  19.091  33.820  11.214
76142W        W47813  20.828  42.917  12.456
76143W        W47814   6.297  35.040   1.325
76144W        W47815  26.955  21.004  14.276
76145W        W47816  43.044  33.380   3.984
76146W        W47817  33.645  40.068   3.716
76147W        W47818   3.886   3.990  12.879
76148W        W47819  36.966  41.233   1.263
76149W        W47820  22.769  12.238  13.342
76150W        W47821  19.027  27.590  13.895
76151W        W47822  10.649  30.119   3.640
76152W        W47823   0.818  32.326  11.601
76153W        W47824  11.529  30.127   0.885
76154W        W47825  15.258  27.668  13.044
76155W        W47826   7.978   5.738  10.881
76156W        W47827   5.820  40.354  10.309
76157W        W47828  34.219  17.221   1.328
76158W        W47829  38.481  42.418   3.159
76159W        W47830  19.088  13.880   2.789
76160W        W47831  40.964  12.811   4.129
76161W        W47832  27.238  43.419  14.796
76162W        W47833  19.996  40.701  14.432
76163W        W47834   2.960  11.505  12.367
76164W        W47835  26.137  40.238  11.544
76165W        W47836  10.348  37.071   0.438
76166W        W47837   6.479   9.815  12.156
76167W        W47838  36.333  37.051  10.232
76168W        W47839  18.117   8.762   2.092
76169W        W47840  14.129  37.635   1.271
76170W        W47841  34.018  26.115   0.290
76171W        W47842   8.170  25.196  12.528
76172W        W47843   3.416  38.539  12.178
76173W        W47844  11.924  18.440  14.937
76174W        W47845  16.553  25.328  13.919
76175W        W47846   8.252  18.807   1.435
76176W        W47847  36.556  10.606  13.763
76177W        W47848  14.354  28.157  10.608
76178W        W47849  40.113   2.980  14.472
76179W        W47850  28.029  40.958   0.873
76180W        W47851  28.884  39.268  13.823
76181W        W47852   5.876  22.947  11.156
76182W        W47853  22.536  30.097   0.987
76183W        W47854  28.943   0.728  13.024
76184W        W47855  10.868   1.987   2.901
76185W        W47856  25.180  30.712   2.284
76186W        W47857  12.140  44.674   1.379
76187W        W47858   3.198  20.114  14.341
76188W        W47859  31.475  33.276   3.204
76189W        W47860   6.199   8.353   0.063
76190W        W47861  21.142   0.541   1.348
76191W        W47862  10.083  16.772   0.490
76192W        W47863  11.481  26.421  14.259
76193W        W47864  34.978   9.124  13.426
76194W        W47865  14.676  41.120  10.320
76195W        W47866  23.941   3.199   2.988
76196W        W47867  27.450  13.330  12.912
76197W        W47868  29.919  10.827   1.351
76198W        W47869  10.427  19.612   4.899
76199W        W47870  22.453  15.393   0.820
76200W        W47871   5.123   4.867  11.054
76201W        W47872  12.581  43.918  14.024
76202W        W47873   2.205  11.388  14.361
76203W        W47874  12.867   1.947   2.781
76204W        W47875  24.719   5.697  11.119
76205W        W47876  17.917   5.614   2.681
76206W        W47877   5.178  20.859   0.782
76207W        W47878   0.125   5.306  13.767
76208W        W47879  36.971  10.310  13.926
76209W        W47880  19.810  21.437   2.166
76210W        W47881  40.281  20.129   4.543
76211W        W47882  20.801   4.886   3.283
76212W        W47883   4.280  33.400   3.186
76213W        W47884  34.439  19.769  12.325
76214W        W47885  38.008  43.003   5.041
76215W        W47886  13.655  44.954   1.955
76216W        W47887  12.310  31.209  13.530
76217W        W47888  23.643  34.068   3.199
76218W        W47889   2.061  36.005  11.225
76219W        W47890  18.366  44.221   3.688
76220W        W47891  41.517  44.878  14.274
76221W        W47892  23.111  41.488   9.865
76222W        W47893  37.321  35.046  11.948
76223W        W47894  39.045  31.847  13.791
76224W        W47895  29.557  10.608  11.734
76225W        W47896  26.554  15.263   1.316
76226W        W47897   4.652  17.130  14.283
76227W        W47898  23.455   9.925  11.231
76228W        W47899  19.080  27.646   1.834
76229W        W47900  32.481   3.343   1.328
76230W        W47901  41.352  44.290   2.235
76231W        W47902  11.314  15.875   3.200
76232W        W47903  38.877  30.190   4.234
76233W        W47904  30.941   5.853   0.444
76234W        W47905  14.050  35.946  10.953
76235W        W47906  44.525   6.701  11.284
76236W        W47907   7.947  22.074  11.854
76237W        W47908  29.631   3.628   0.282
76238W        W47909  31.258  24.885   5.084
76239W        W47910  30.954  33.936   1.061
76240W        W47911  30.818  22.710  11.226
76241W        W47912  35.531  40.363  11.210
76242W        W47913  25.852  27.190  11.467
76243W        W47914  11.756   6.789   2.822
76244W        W47915   8.407  42.759   0.891
76245W        W47916  25.429  29.218  13.829
76246W        W47917  41.539  30.919  13.383
76247W        W47918   3.415  12.701  12.554
76248W        W47919  23.418  18.673   4.163
76249W        W47920  37.042   0.440   1.596
76250W        W47921  21.739  19.030   2.204
76251W        W47922   6.619  39.551   4.075
76252W        W47923  28.655  23.751   2.736
76253W        W47924   1.838   5.505   4.156
76254W        W47925  31.500  43.084  12.833
76255W        W47926  22.306  27.914   0.416
76256W        W47927  40.606  12.231   4.868
76257W        W47928  23.037   6.990   2.782
76258W        W47929  22.124  41.003   5.719
76259W        W47930  19.391  25.881  11.179
76260W        W47931   0.451  26.553   1.634
76261W        W47932  25.386  31.930  11.642
76262W        W47933   5.723  28.591  14.831
76263W        W47934  33.448   9.084   2.750
76264W        W47935  39.032  27.014   0.357
76265W        W47936  24.432   9.309  14.901
76266W        W47937  33.119  33.120   0.155
76267W        W47938  38.046   1.184   1.323
76268W        W47939  36.991  28.665   2.190
76269W        W47940  20.210  37.003  13.628
76270W        W47941  36.852   7.073   4.942
76271W        W47942   9.253   9.317  11.037
76272W        W47943  42.345  36.002  12.888
76273W        W47944  33.202  38.978   4.485
76274W        W47945  34.603  15.138  10.778
76275W        W47946  10.926  42.050  11.483
76276W        W47947  27.210  34.455   1.713
76277W        W47948  17.703  26.430   1.353
76278W        W47949  11.115   7.231   2.477
76279W        W47950  22.895  32.962  12.474
76280W        W47951   4.711  27.381  14.253
76281W        W47952   1.955  35.119  11.083
76282W        W47953   2.763  44.905  10.751
76283W        W47954  42.496   4.370   2.823
76284W        W47955  18.167  21.503   1.354
76285W        W47956  26.122   8.636   0.483
76286W        W47957  24.506  11.089   0.027
76287W        W47958  33.610  11.286   3.084
76288W        W47959  19.127   2.990  14.176
76289W        W47960  21.929  19.074  12.883
76290W        W47961   9.178  11.871   3.859
76291W        W47962   8.734  12.768  12.055
76292W        W47963  26.978  36.808  14.968
76293W        W47964   8.264  13.564   0.292
76294W        W47965  30.705   6.881  13.830
76295W        W47966  40.256  10.535  11.944
76296W        W47967   1.294  29.969   4.049
76297W        W47968   9.497  28.143   2.747
76298W        W47969  26.190  22.591   4.606
76299W        W47970  29.359  18.496   4.092
76300W        W47971  35.106  43.719   2.714
76301W        W47972  37.527   4.317   2.771
76302W        W47973  30.029  40.291  12.399
76303W        W47974  18.688  11.763   1.944
76304W        W47975  35.383  14.524  14.606
76305W        W47976  43.340  17.247  11.209
76306W        W47977   6.296   1.483   1.393
76307W        W47978  23.718  33.547   0.470
76308W        W47979  12.257  27.892  13.112
76309W        W47980  10.338  19.207   2.986
76310W        W47981   4.139  38.980  10.221
76311W        W47982   4.736  25.387  10.965
76312W        W47983  44.804  42.836  14.966
76313W        W47984  15.312   1.862  11.949
76314W        W47985   4.118  10.787   3.665
76315W        W47986   8.776  16.289  12.906
76316W        W47987   7.514  26.014   4.798
76317W        W47988  23.749   7.689  14.337
76318W        W47989  16.283  40.457   1.828
76319W        W47990  36.806  14.758  11.154
76320W        W47991  32.016  38.020   1.913
76321W        W47992  17.171  24.893   0.741
76322W        W47993  19.557   3.320  13.500
76323W        W47994  40.719  14.828  11.131
76324W        W47995  40.047   1.408  11.668
76325W        W47996  21.766  42.862   1.417
76326W        W47997  14.549  29.898   2.901
76327W        W47998  13.568  10.143  13.537
76328W        W47999  32.259  15.551   3.652
76329W        W48000   4.253  42.882   4.503
76330W        W48001  41.415  30.565  14.271
76331W        W48002  10.688  29.897  10.798
76332W        W48003  42.400  14.656  10.239
76333W        W48004  24.264  12.666   0.605
76334W        W48005   2.073  18.528  13.306
76335W        W48006   2.014  25.589  12.126
76336W        W48007  27.640  17.198   0.348
76337W        W48008   6.950  38.005   2.879
76338W        W48009  24.276  29.558   4.845
76339W        W48010  41.423   9.351  10.763
76340W        W48011  40.108  26.190  11.786
76341W        W48012  26.221  17.723  11.907
76342W        W48013  36.715  34.183  10.313
76343W        W48014  28.534  36.038   0.525
76344W        W48015  32.433  26.250   1.879
76345W        W48016  16.295  33.518   2.281
76346W        W48017  35.132  42.951  14.728
76347W        W48018  26.472  18.944   3.445
76348W        W48019  30.240  17.157   4.612
76349W        W48020   2.970  40.849  12.936
76350W        W48021  24.789   1.198   2.315
76351W        W48022  28.627  14.044   0.154
76352W        W48023   8.269  25.243  14.833
76353W        W48024   7.283  10.601  11.536
76354W        W48025   0.796  25.544   4.040
76355W        W48026   5.728  34.405  10.786
76356W        W48027  19.578  27.130   0.996
76357W        W48028  35.472  17.612   4.006
76358W        W48029  32.202   2.686  10.771
76359W        W48030  43.841  14.570  14.948
76360W        W48031  42.582  13.753  10.613
76361W        W48032  13.034   5.791   4.096
76362W        W48033  27.221  43.403   1.180
76363W        W48034  13.268   3.296  14.353
76364W        W48035  44.598  11.232  10.190
76365W        W48036  20.797  10.355  11.700
76366W        W48037   9.450  23.995   0.380
76367W        W48038  13.249   5.706   3.607
76368W        W48039  24.671  44.784   2.075
76369W        W48040  38.499   5.584   3.681
76370W        W48041  40.458  32.031  10.223
76371W        W48042  41.268  43.974   0.517
76372W        W48043  19.005   8.809   3.166
76373W        W48044  20.768  11.251  10.848
76374W        W48045   9.299   8.954  13.341
76375W        W48046  28.011  35.006   0.725
76376W        W48047  28.667  17.088   2.808
76377W        W48048  33.391  15.239  13.789
76378W        W48049  30.251  19.096   0.524
76379W        W48050  28.237  39.917  12.957
76380W        W48051  10.721  31.122   0.372
76381W        W48052  21.949  38.545   0.840
76382W        W48053  42.297  10.287  12.254
76383W        W48054   4.169  11.822   0.285
76384W        W48055  31.590  16.207  10.692
76385W        W48056  15.487  40.127  13.779
76386W        W48057  36.011  38.917   2.179
76387W        W48058  41.010  42.308   3.336
76388W        W48059  13.520  41.860   4.299
76389W        W48060  36.426  19.409  12.531
76390W        W48061  12.350  42.375  11.925
76391W        W48062  22.285  25.294   5.812
76392W        W48063  41.769  34.939   4.162
76393W        W48064  17.099  29.960   3.588
76394W        W48065  26.995  11.115   1.149
76395W        W48066   6.595  38.157  14.911
76396W        W48067  22.669  22.711  12.634
76397W        W48068  42.352   2.180   3.858
76398W        W48069  43.866  38.067  11.079
76399W        W48070  42.970  42.749  12.396
76400W        W48071  11.208  14.163  12.637
76401W        W48072  39.570  41.871   4.719
76402W        W48073  18.049  29.514   0.377
76403W        W48074  19.078  24.260  12.077
76404W        W48075   2.028  11.763  12.124
76405W        W48076   7.276  31.812   1.520
76406W        W48077   8.832   7.128   1.374
76407W        W48078  27.435  13.779   2.359
76408W        W48079  42.887  18.982   4.054
76409W        W48080  11.156   5.407   4.181
76410W        W48081  11.809   8.224  10.596
76411W        W48082  35.977  36.012   4.205
76412W        W48083  31.718  27.676   2.753
76413W        W48084  19.009  39.296  14.151
76414W        W48085  43.117   5.819  14.585
76415W        W48086  43.011  25.037  10.838
76416W        W48087  11.480  22.492  11.067
76417W        W48088  17.120  17.111  10.327
76418W        W48089  38.286  26.523   0.395
76419W        W48090   5.462  23.204  14.726
76420W        W48091  37.551  15.991   2.322
76421W        W48092  39.357   2.246  11.228
76422W        W48093  21.686  41.699   2.908
76423W        W48094   4.200  44.900  10.657
76424W        W48095   4.956  31.897   1.244
76425W        W48096  29.450  42.399   0.921
76426W        W48097  31.953  18.939   1.925
76427W        W48098  36.979   6.125  11.101
76428W        W48099  38.440  38.950  10.612
76429W        W48100  34.534  12.649   2.354
76430W        W48101   9.732  17.534   4.201
76431W        W48102  18.989  24.348  14.781
76432W        W48103  18.090  16.456  11.646
76433W        W48104  38.118   0.578  11.096
76434W        W48105  13.598  36.386  10.481
76435W        W48106   1.354  41.309   4.256
76436W        W48107  22.347  10.246   1.383
76437W        W48108  23.022  26.830   2.961
76438W        W48109  23.548   9.680   3.570
76439W        W48110  36.469  44.803  14.532
76440W        W48111   7.423  10.123  14.093
76441W        W48112  17.971  41.516   1.096
76442W        W48113   6.653  37.536  12.905
76443W        W48114  41.764  31.406  14.284
76444W        W48115  17.988  26.446  13.087
76445W        W48116  20.559  44.684  11.551
76446W        W48117  27.760  35.522  13.218
76447W        W48118  20.060  37.966  14.065
76448W        W48119  44.015  11.968  12.070
76449W        W48120  15.218  25.414   2.753
76450W        W48121  27.687  17.637  10.694
76451W        W48122  35.409  30.616   1.401
76452W        W48123  30.764  30.392   1.360
76453W        W48124   3.740   9.271  13.931
76454W        W48125  34.378  41.483  12.013
76455W        W48126   8.438   3.737  14.780
76456W        W48127  16.363   2.294   3.025
76457W        W48128  38.907  11.527   3.788
76458W        W48129  42.017   0.253  12.271
76459W        W48130  20.585  18.502  11.154
76460W        W48131  12.947  29.190   2.311
76461W        W48132  15.734  30.754  14.274
76462W        W48133   8.671  41.290  13.711
76463W        W48134  29.465  14.029  13.846
76464W        W48135   9.550  12.215  14.300
76465W        W48136  11.204  19.202   3.603
76466W        W48137   9.302  41.828  13.793
76467W        W48138  42.403  23.670  10.706
76468W        W48139   5.382  24.640   1.281
76469W        W48140   4.383  36.707   1.383
76470W        W48141  10.273  10.066   1.573
76471W        W48142  23.598  36.435  11.766
76472W        W48143  24.993  27.478  11.896
76473W        W48144  27.742  30.943   0.783
76474W        W48145  37.302   4.408   2.218
76475W        W48146  17.359   3.440   2.920
76476W        W48147  16.277   0.376   3.617
76477W        W48148  34.669   4.378  10.410
76478W        W48149  44.848   8.409   4.218
76479W        W48150  40.211  15.268  14.415
76480W        W48151   5.795  29.612   0.954
76481W        W48152  22.901  28.237  12.366
76482W        W48153   1.902  17.552  13.964
76483W        W48154  16.310  33.838  14.225
76484W        W48155  14.884  38.104   0.015
76485W        W48156  42.019   0.953   2.938
76486W        W48157  39.376  36.459  13.669
76487W        W48158  35.552   8.201  11.507
76488W        W48159  16.871   5.907  12.437
76489W        W48160  10.268   8.940   1.433
76490W        W48161  24.230   7.206   4.146
76491W        W48162   3.838  39.006  12.960
76492W        W48163  20.034  29.292   3.410
76493W        W48164  16.712   7.571  11.112
76494W        W48165   5.724   6.368  14.377
76495W        W48166  21.251  19.125  14.220
76496W        W48167  12.253   9.630   1.376
76497W        W48168  41.991   7.509   4.681
76498W        W48169   4.887   8.014   0.226
76499W        W48170  14.364  38.084  12.344
76500W        W48171  16.122  40.972  11.180
76501W        W48172  11.320  35.257  14.524
76502W        W48173   5.888  14.647   2.659
76503W        W48174  30.559   5.443  14.795
76504W        W48175  29.938   2.685   0.474
76505W        W48176  41.756   6.661  11.004
76506W        W48177  35.316   6.786   4.389
76507W        W48178   9.530  38.259   3.224
76508W        W48179   4.822  44.277  11.625
76509W        W48180  21.956  16.359   1.674
76510W        W48181   9.136   9.460   0.948
76511W        W48182  14.324   7.275  12.842
76512W        W48183  16.551   4.419  12.595
76513W        W48184  23.182  34.815   3.101
76514W        W48185  33.461  29.924   3.666
76515W        W48186   7.656   1.716   1.262
76516W        W48187   0.073  23.482  14.995
76517W        W48188  42.529  40.600   1.461
76518W        W48189  34.663  16.553  12.037
76519W        W48190  11.138  16.683  14.250
76520W        W48191  42.110  11.293   4.228
76521W        W48192  21.724  36.793  14.036
76522W        W48193  29.905  43.674  13.502
76523W        W48194   1.764  29.628  13.609
76524W        W48195  22.663   9.068   2.147
76525W        W48196   1.118  25.967   4.052
76526W        W48197  28.984   0.656   2.738
76527W        W48198   4.238   3.738  11.917
76528W        W48199  42.773  40.916   4.383
76529W        W48200  38.564  42.986   0.892
76530W        W48201  31.600  23.154  14.049
76531W        W48202  20.212  14.198  11.082
76532W        W48203  41.058  10.313   0.748
76533W        W48204  19.182  29.549   3.233
76534W        W48205  12.738  17.120   2.142
76535W        W48206  27.690  44.531  11.624
76536W        W48207  29.351  42.341  11.472
76537W        W48208  14.624  21.250  14.915
76538W        W48209   0.841  19.593   3.251
76539W        W48210  26.273  21.145   3.635
76540W        W48211   6.863  21.842  11.869
76541W        W48212  28.242  37.929   4.198
76542W        W48213   6.701  14.178   3.014
76543W        W48214  42.291  36.955   2.720
76544W        W48215  28.432  43.102   2.650
76545W        W48216  37.093  29.677   0.258
76546W        W48217  44.042   4.965  12.888
76547W        W48218  35.685  42.373  12.401
76548W        W48219   1.199  13.574  14.270
76549W        W48220  44.390  31.097  14.044
76550W        W48221  14.795  18.280  14.789
76551W        W48222  15.230  13.865   2.141
76552W        W48223  38.000   5.063   2.952
76553W        W48224  17.301   2.699   4.509
76554W        W48225   9.294  24.979   2.330
76555W        W48226   6.784  38.897  12.577
76556W        W48227  33.347  21.742  13.082
76557W        W48228  21.796  36.032   1.489
76558W        W48229  25.215  21.255   3.410
76559W        W48230  25.638  33.345   5.100
76560W        W48231  44.499  23.894   2.068
76561W        W48232  25.209  19.018   0.217
76562W        W48233   9.277   0.803  12.985
76563W        W48234   5.192  16.037   1.181
76564W        W48235  14.417  21.278   2.753
76565W        W48236  34.490  23.574   3.616
76566W        W48237  43.286   4.844  13.968
76567W        W48238  34.919  36.958   0.480
76568W        W48239   6.099  19.806  10.278
76569W        W48240  22.729  36.385   4.228
76570W        W48241  26.171  24.686   1.375
76571W        W48242  10.808   2.874  12.455
76572W        W48243  24.211  10.775  10.787
76573W        W48244  11.737  42.765  11.210
76574W        W48245  39.421   5.999   1.165
76575W        W48246   5.352   9.125   4.123
76576W        W48247  27.086  17.199  14.577
76577W        W48248  26.137   8.887   0.018
76578W        W48249   4.274   3.017   1.381
76579W        W48250   4.737  24.073   1.179
76580W        W48251  19.336   3.011   3.280
76581W        W48252   5.354   8.777  10.835
76582W        W48253  18.079  24.519   2.725
76583W        W48254  20.531   5.838   3.622
76584W        W48255  20.303   3.926   3.592
76585W        W48256  21.437  32.742   2.854
76586W        W48257   2.642  12.345  11.504
76587W        W48258  18.985  40.949   3.766
76588W        W48259  34.638   0.960  12.896
76589W        W48260  18.815  42.434  11.968
76590W        W48261  28.212   1.652   5.099
76591W        W48262  33.026  44.331   0.196
76592W        W48263  44.404   4.385   4.623
76593W        W48264   0.432  16.115   2.663
76594W        W48265  16.034  19.228  10.701
76595W        W48266  27.187   5.876   3.383
76596W        W48267  12.956   4.281  12.191
76597W        W48268  38.329  32.524  10.515
76598W        W48269  24.049   1.790   3.123
76599W        W48270  15.737   8.601   1.963
76600W        W48271  44.283  26.100   4.209
76601W        W48272  33.144  28.242   2.715
76602W        W48273  13.129  17.132  14.755
76603W        W48274  41.023   4.312   0.253
76604W        W48275  31.555  37.650  14.307
76605W        W48276  36.247  26.260  14.409
76606W        W48277  14.746  23.436  13.999
76607W        W48278   8.234  23.683  11.153
76608W        W48279  32.505  41.857   2.295
76609W        W48280  21.623  33.321   0.306
76610W        W48281  35.101  32.140  13.424
76611W        W48282   6.308   7.162   2.220
76612W        W48283  14.174  39.937   4.526
76613W        W48284  25.195  32.714   1.049
76614W        W48285  19.529   9.998   3.601
76615W        W48286  27.663  19.539  10.734
76616W        W48287  27.219  38.805   3.850
76617W        W48288   3.109  32.041   3.364
76618W        W48289   3.232  16.609  12.009
76619W        W48290  12.117  23.668   1.403
76620W        W48291  30.814  25.652  11.250
76621W        W48292   7.698  33.487   0.001
76622W        W48293   8.392  31.757  12.395
76623W        W48294  33.385  17.956  11.217
76624W        W48295   0.790  34.822  12.842
76625W        W48296  26.075  37.762  14.446
76626W        W48297   8.896  37.322   1.315
76627W        W48298  22.545  44.100   4.207
76628W        W48299   8.968  38.110   3.903
76629W        W48300   7.893  39.674   1.330
76630W        W48301  19.229  39.397  12.071
76631W        W48302  32.470  33.393  11.650
76632W        W48303  12.163  38.575  13.354
76633W        W48304  14.781  25.995  13.751
76634W        W48305  34.387   6.701   0.291
76635W        W48306  26.169  26.572  12.443
76636W        W48307  40.079  30.654   0.749
76637W        W48308  43.536   6.470  13.816
76638W        W48309  26.171  44.195   3.296
76639W        W48310  39.956  38.598  14.362
76640W        W48311  12.190   3.793   0.036
76641W        W48312  41.842   4.050  11.574
76642W        W48313  25.312  11.629   4.641
76643W        W48314  27.916  11.295   3.266
76644W        W48315  23.901  33.962  12.482
76645W        W48316  13.548  42.912   1.576
76646W        W48317  20.930  10.714   0.786
76647W        W48318  41.400  42.833  10.013
76648W        W48319  28.486  30.124   2.323
76649W        W48320  37.802   9.825   3.369
76650W        W48321  32.122  23.985   4.730
76651W        W48322  28.914  22.786   4.328
76652W        W48323  12.441  17.706  14.982
76653W        W48324  36.978  27.727  11.997
76654W        W48325   3.475   8.174  13.723
76655W        W48326   2.498  44.564   9.914
76656W        W48327  24.502   0.212   2.345
76657W        W48328  43.145  26.934  11.371
76658W        W48329  28.564  33.095   1.092
76659W        W48330  26.504  41.793  12.038
76660W        W48331  42.984  39.326  10.073
76661W        W48332  27.197  30.917  12.440
76662W        W48333  40.723  43.911  13.948
76663W        W48334  32.355   8.181   1.706
76664W        W48335  39.861  33.795   4.505
76665W        W48336  16.867   2.361  11.989
76666W        W48337   6.273  15.255  14.804
76667W        W48338  39.820   7.213   3.950
76668W        W48339  18.473  16.835   3.296
76669W        W48340   4.691  39.384  11.145
76670W        W48341  23.981  21.590  14.509
76671W        W48342  34.731  20.324   3.789
76672W        W48343  33.818   7.589   3.189
76673W        W48344  11.936  30.983  14.852
76674W        W48345  16.839  41.930   1.414
76675W        W48346   2.252  42.030  14.505
76676W        W48347  20.529  33.617   4.652
76677W        W48348  23.951  29.253   5.104
76678W        W48349  25.589  14.816  12.929
76679W        W48350  26.819  43.937  11.874
76680W        W48351  27.895  35.642  14.481
76681W        W48352  15.326  13.252  14.329
76682W        W48353  32.229  14.254   0.958
76683W        W48354   5.646  15.039   3.691
76684W        W48355  11.930  30.063  12.047
76685W        W48356  13.624  26.612   1.402
76686W        W48357   0.247  28.496   4.540
76687W        W48358  39.326  29.066   2.205
76688W        W48359  43.720  29.679  12.852
76689W        W48360  15.072  39.457   0.032
76690W        W48361   0.020  10.381   4.036
76691W        W48362  14.678  28.588   2.859
76692W        W48363  25.629  27.716   2.354
76693W        W48364   9.765  31.579  10.734
76694W        W48365  14.595  18.055  11.565
76695W        W48366  22.522  30.558   0.333
76696W        W48367  20.384   6.952   1.849
76697W        W48368  21.300   6.686  11.133
76698W        W48369  16.307   3.341   3.289
76699W        W48370  26.682  19.994   3.257
76700W        W48371  15.820  30.062  10.483
76701W        W48372  26.855  43.591  13.384
76702W        W48373  15.559  36.893   3.923
76703W        W48374   7.943   8.757  12.385
76704W        W48375   4.807  16.066   2.647
76705W        W48376  40.996  15.742  12.856
76706W        W48377   5.644  12.353  14.609
76707W        W48378  16.091  16.777   4.503
76708W        W48379  43.568  16.798  11.167
76709W        W48380  25.384  11.111   4.706
76710W        W48381  25.351   3.079  11.128
76711W        W48382   1.936  18.226   1.326
76712W        W48383  12.289  27.477  11.565
76713W        W48384   4.792  21.077  11.916
76714W        W48385  38.488  27.698   3.648
76715W        W48386  26.637  15.446   3.620
76716W        W48387  44.903   4.956   4.117
76717W        W48388  25.481  29.329  11.199
76718W        W48389  29.686  35.888  12.456
76719W        W48390  41.422  44.548  12.350
76720W        W48391  22.486  41.459  13.801
76721W        W48392  26.727  21.206  11.532
76722W        W48393  15.828   4.402  11.389
76723W        W48394  36.618   1.340   3.336
76724W        W48395  30.047  12.742   3.828
76725W        W48396  14.122  18.733   0.374
76726W        W48397   5.031  44.626   4.071
76727W        W48398   5.548   8.709   1.782
76728W        W48399  42.392   6.671   3.589
76729W        W48400  35.759  33.252   2.340
76730W        W48401   1.184  15.707   0.065
76731W        W48402  43.284  26.292  12.940
76732W        W48403  14.777   4.693   3.108
76733W        W48404  23.658  14.182   1.813
76734W        W48405  33.544  25.142   2.203
76735W        W48406  27.919   2.446   0.906
76736W        W48407  36.596  37.431   1.045
76737W        W48408  34.014  30.958   4.899
76738W        W48409   4.945  35.035   3.684
76739W        W48410  33.420  11.873   4.496
76740W        W48411  13.331  22.580   4.609
76741W        W48412  41.101  11.134   4.102
76742W        W48413  44.307  38.891  11.966
76743W        W48414   5.604   9.470   4.443
76744W        W48415  24.554  42.045   1.723
76745W        W48416  13.152  31.002   1.164
76746W        W48417  25.993  18.586  14.417
76747W        W48418  15.029  10.878   3.615
76748W        W48419  28.019  36.581  10.768
76749W        W48420   3.886  14.128   0.936
76750W        W48421  14.477  36.903  10.967
76751W        W48422  17.270   9.868   0.736
76752W        W48423  27.599  15.481  11.658
76753W        W48424   2.367   7.135  10.490
76754W        W48425  18.060  44.773  11.875
76755W        W48426  19.602  29.892   3.738
76756W        W48427  25.907  39.450   0.360
76757W        W48428  18.340  42.507   1.626
76758W        W48429  10.605  33.860  12.230
76759W        W48430  14.538  36.287   3.152
76760W        W48431  21.789   2.447   0.332
76761W        W48432  15.238   0.035  13.896
76762W        W48433  33.368   1.409   2.441
76763W        W48434  14.722   4.543   2.173
76764W        W48435  35.935  42.392  13.446
76765W        W48436  11.318  36.050   1.287
76766W        W48437   8.857  37.339  14.917
76767W        W48438  28.453  31.402   4.475
76768W        W48439  13.666  19.753   0.750
76769W        W48440  26.686  34.986   1.408
76770W        W48441  43.839  41.840   4.170
76771W        W48442   9.837  18.658  10.375
76772W        W48443  39.510  38.300  12.050
76773W        W48444  22.503  12.607   0.772
76774W        W48445  33.911  10.074   0.370
76775W        W48446  43.433  12.601   4.403
76776W        W48447  39.538  38.644   3.263
76777W        W48448  23.051  15.157   1.769
76778W        W48449  40.434   6.280  14.145
76779W        W48450  38.918  44.904   2.550
76780W        W48451  27.684  26.008   2.850
76781W        W48452  37.923  42.215   0.187
76782W        W48453  26.981  29.203   2.695
76783W        W48454  36.545  24.531   0.762
76784W        W48455   3.710  14.859  10.964
76785W        W48456  40.463  37.950   4.408
76786W        W48457  15.793  44.345   1.354
76787W        W48458  13.283  10.270  10.733
76788W        W48459  32.379  17.216  10.407
76789W        W48460  31.146  44.592  10.186
76790W        W48461  37.297  15.572   0.326
76791W        W48462  26.028   0.359  11.109
76792W        W48463  25.904  32.189   3.886
76793W        W48464  15.593  24.305  11.449
76794W        W48465  17.284  27.701  11.650
76795W        W48466  25.091  20.258  13.583
76796W        W48467   1.338  40.859   0.463
76797W        W48468  33.386  18.805   2.161
76798W        W48469  40.857  35.271   1.284
76799W        W48470  21.336  32.848  11.222
76800W        W48471  38.445  34.290   0.844
76801W        W48472  42.428  31.687   0.437
76802W        W48473   5.697   1.803  14.221
76803W        W48474  23.376   4.934   4.849
76804W        W48475  36.982  34.641   2.030
76805W        W48476   2.394  16.594  11.771
76806W        W48477  25.014  33.597  13.389
76807W        W48478  39.617  15.206  13.176
76808W        W48479  35.239  35.892   5.150
76809W        W48480  38.958   6.714  10.756
76810W        W48481  42.820  43.884   2.953
76811W        W48482  19.824  16.846  10.330
76812W        W48483  43.786   6.687  14.360
76813W        W48484   7.724   7.131   0.396
76814W        W48485  38.604  17.623   2.448
76815W        W48486  32.481  11.316   3.297
76816W        W48487   6.732  13.224   4.692
76817W        W48488  33.688   7.898   4.023
76818W        W48489  14.339  43.705   2.265
76819W        W48490  22.246  17.682   2.432
76820W        W48491  33.526  42.425   4.331
76821W        W48492   5.280  12.721   0.476
76822W        W48493  15.103  39.842   1.858
76823W        W48494   9.422  37.890  10.305
76824W        W48495  21.242  25.521   2.894
76825W        W48496  33.202  41.421  14.011
76826W        W48497  13.153   3.343  13.416
76827W        W48498  22.033  30.907   4.683
76828W        W48499   7.115  31.998  10.778
76829W        W48500  17.594  14.566  14.783
76830W        W48501   4.900   2.408   0.257
76831W        W48502  43.511   8.868   0.364
76832W        W48503  32.980   6.878  11.905
76833W        W48504  34.853  44.795  12.396
76834W        W48505  39.977   9.226  11.991
76835W        W48506   7.346  23.954  10.735
76836W        W48507  39.301  32.532  10.786
76837W        W48508   8.239  16.224   4.601
76838W        W48509  29.072  11.233   4.853
76839W        W48510  31.381  11.319   1.217
76840W        W48511  20.242  44.880  14.910
76841W        W48512  44.500   8.301   1.008
76842W        W48513  16.874  17.316   0.822
76843W        W48514  14.351  12.694  11.436
76844W        W48515   0.441  21.202   4.737
76845W        W48516  11.316  21.143  10.700
76846W        W48517  14.742  18.849  13.656
76847W        W48518  13.222  17.823   3.224
76848W        W48519  39.384  32.723  12.614
76849W        W48520   1.107  23.369  11.103
76850W        W48521  17.712   7.143  13.378
76851W        W48522  27.559  22.309  13.516
76852W        W48523   1.332  21.192  13.964
76853W        W48524   7.729  21.273   1.351
76854W        W48525   6.813  29.946   4.567
76855W        W48526  21.101  42.421  12.477
76856W        W48527  44.352  29.430   2.786
76857W        W48528   1.536  27.123   4.213
76858W        W48529  35.655  37.235  12.376
76859W        W48530  27.374  17.143  12.223
76860W        W48531  31.665  20.694  13.217
76861W        W48532   3.172  38.551  11.197
76862W        W48533  38.747  40.346  10.906
76863W        W48534  12.701  39.597   2.644
76864W        W48535  16.163   0.406  12.748
76865W        W48536  29.474  26.984   3.696
76866W        W48537  33.388   7.118  11.182
76867W        W48538   3.364  12.754   3.504
76868W        W48539  29.277  24.175  10.670
76869W        W48540  39.914  34.678  14.764
76870W        W48541  41.309  17.639  13.786
76871W        W48542   4.840  28.718   4.988
76872W        W48543  43.428   7.283  12.079
76873W        W48544  17.264  32.405   3.105
76874W        W48545  24.736  26.434   3.675
76875W        W48546   2.802   9.773   1.339
76876W        W48547  22.567  42.473   2.348
76877W        W48548  11.102  29.501   3.856
76878W        W48549   4.809   4.251   2.262
76879W        W48550  31.628  40.374   2.995
76880W        W48551   5.145  23.127  11.448
76881W        W48552  14.417  15.832  14.958
76882W        W48553  13.398  32.083   2.285
76883W        W48554  36.499   7.614  13.877
76884W        W48555  41.386   3.435   2.746
76885W        W48556   9.336   5.844  11.206
76886W        W48557   2.339  24.172   3.437
76887W        W48558  28.836   7.796   0.698
76888W        W48559   8.886  33.462   3.668
76889W        W48560  28.644  39.989   0.289
76890W        W48561  39.237  42.800   5.084
76891W        W48562  28.882  24.278  14.410
76892W        W48563   1.429   9.702  14.856
76893W        W48564  35.135   8.663   3.649
76894W        W48565  14.962  32.898  11.458
76895W        W48566  13.795  38.502   3.755
76896W        W48567  10.837   5.206  12.429
76897W        W48568  15.188  28.810  10.746
76898W        W48569  19.772  18.972  11.133
76899W        W48570   9.368  42.696  14.341
76900W        W48571  41.179  16.339  11.164
76901W        W48572  13.163  40.975  12.403
76902W        W48573  11.290  33.881  11.680
76903W        W48574   9.819  34.012  14.401
76904W        W48575  41.553   6.165  12.383
76905W        W48576  27.143  30.725  11.511
76906W        W48577  40.645   9.299  13.369
76907W        W48578  23.460  31.454   2.595
76908W        W48579   9.806  31.736  11.655
76909W        W48580   7.419  21.087   3.231
76910W        W48581   6.450  12.867   0.378
76911W        W48582  41.858  40.100   2.891
76912W        W48583  18.598  36.538  11.177
76913W        W48584  23.008  15.127  14.292
76914W        W48585  42.378  20.613  12.714
76915W        W48586  22.049   3.490   4.835
76916W        W48587   7.467   3.768   3.681
76917W        W48588   1.564  24.973  12.558
76918W        W48589  22.670  21.376  13.002
76919W        W48590  32.417  25.720   3.930
76920W        W48591  14.123  23.757  14.309
76921W        W48592  36.626   7.366  13.338
76922W        W48593  41.756  27.617  14.051
76923W        W48594  39.344   6.437   3.775
76924W        W48595  21.704  33.843   4.117
76925W        W48596  12.010  39.635  10.722
76926W        W48597   9.249   5.329  14.479
76927W        W48598  43.358  42.438  12.145
76928W        W48599  36.755  18.870  11.666
76929W        W48600  40.210  19.676  12.428
76930W        W48601  41.317  22.978  11.609
76931W        W48602   5.650  39.811  12.009
76932W        W48603  44.722   4.734  14.396
76933W        W48604  19.180   4.569  13.252
76934W        W48605  38.548  33.209   1.740
76935W        W48606  38.611  23.926  11.458
76936W        W48607  17.385  42.898  14.513
76937W        W48608  17.183  32.935   1.190
76938W        W48609   7.012   8.234   0.396
76939W        W48610  11.693   7.350   3.676
76940W        W48611  14.574  17.810  14.744
76941W        W48612  13.509  20.261  14.669
76942W        W48613   7.047  36.341   4.868
76943W        W48614   6.284  41.725  12.787
76944W        W48615  14.128   7.302  13.790
76945W        W48616  20.612   8.347  12.054
76946W        W48617   1.988  36.594   1.263
76947W        W48618  20.785  40.993  11.880
76948W        W48619  33.528  29.211  13.483
76949W        W48620   5.241  15.759  11.439
76950W        W48621   5.351   5.344   3.195
76951W        W48622  15.552  26.161   4.728
76952W        W48623  13.768  44.715   1.002
76953W        W48624   3.961  22.036   2.397
76954W        W48625  44.047  10.357  10.634
76955W        W48626  28.636  22.726  11.435
76956W        W48627  27.566  32.531   1.840
76957W        W48628   8.319  23.999  10.695
76958W        W48629  21.357   2.865   2.230
76959W        W48630  33.404  25.671   0.792
76960W        W48631  42.775  37.906  10.911
76961W        W48632  24.456  28.938   0.457
76962W        W48633  12.543   3.087   1.908
76963W        W48634  13.419   4.777   3.184
76964W        W48635  35.891  35.737   2.766
76965W        W48636  10.315  20.442  11.314
76966W        W48637  43.698   5.876  11.923
76967W        W48638  35.095   7.170  14.318
76968W        W48639  13.219  24.290   2.050
76969W        W48640  20.060  31.377  12.134
76970W        W48641  26.351  24.096   2.752
76971W        W48642  41.425  27.161  14.252
76972W        W48643  19.718   9.220   4.036
76973W        W48644  11.288   9.781   3.445
76974W        W48645  17.155  34.950  10.663
76975W        W48646  29.999  19.754   4.097
76976W        W48647  34.280  14.100  11.786
76977W        W48648  13.695   9.320  11.599
76978W        W48649  39.015  21.710  10.943
76979W        W48650  23.122  39.659  13.345
76980W        W48651   8.595  20.924  13.931
76981W        W48652  26.121  30.122   1.206
76982W        W48653  33.065  37.601   4.053
76983W        W48654  33.068  16.648   2.663
76984W        W48655  15.586   9.687   0.464
76985W        W48656  40.311  28.605  13.919
76986W        W48657   7.442  15.961   4.059
76987W        W48658   1.323  18.354  13.859
76988W        W48659  34.381  39.496  12.084
76989W        W48660  12.240  24.424  12.884
76990W        W48661   3.367   9.074   2.631
76991W        W48662  42.564   3.010   2.303
76992W        W48663  31.074  25.859   4.197
76993W        W48664  33.589  11.402   4.360
76994W        W48665  44.217   4.796  13.860
76995W        W48666  30.488   1.773   0.761
76996W        W48667   1.723  14.078  11.529
76997W        W48668  14.671  20.325   1.365
76998W        W48669  11.502  44.160  13.059
76999W        W48670   3.640   8.477   1.910
77000W        W48671  37.627   8.638   4.189
77001W        W48672  38.031   6.883   1.319
77002W        W48673  15.352  44.974   4.594
77003W        W48674  16.589  33.935   3.649
77004W        W48675  37.926  44.548   2.407
77005W        W48676   1.314  20.317  11.024
77006W        W48677   1.423  36.964  14.955
77007W        W48678  35.600  42.022   4.670
77008W        W48679  10.363   3.195   1.411
77009W        W48680  15.142  19.825   3.084
77010W        W48681   6.767  22.146   2.826
77011W        W48682   9.507   9.831  13.490
77012W        W48683   4.414  39.055  13.499
77013W        W48684   4.017   7.433   1.800
77014W        W48685  10.301   3.376  14.421
77015W        W48686  43.385  34.354  11.037
77016W        W48687  34.494   5.950   1.364
77017W        W48688  37.706  39.008   0.297
77018W        W48689   1.011  23.928  12.954
77019W        W48690  32.435  28.068  11.530
77020W        W48691  31.407  28.960  10.787
77021W        W48692  32.593   7.429  14.485
77022W        W48693  24.787  10.410   2.547
77023W        W48694  15.238   6.160  10.635
77024W        W48695  21.238  40.432   3.188
77025W        W48696  19.573   1.961  12.586
77026W        W48697  27.585  36.324   3.158
77027W        W48698  29.084   1.694   3.622
77028W        W48699  44.939  25.330  14.790
77029W        W48700  27.540  27.016  13.784
77030W        W48701  38.891  17.202   2.601
77031W        W48702  28.904  42.121  12.164
77032W        W48703   9.397  28.177  14.570
77033W        W48704   7.148  39.727  13.811
77034W        W48705  37.643   3.547  10.439
77035W        W48706  33.199  24.637   0.752
77036W        W48707   5.178  39.403   2.808
77037W        W48708  40.113  30.862  14.022
77038W        W48709  30.654  29.054   2.951
77039W        W48710  43.319  32.015  13.697
77040W        W48711  29.129  31.037  10.877
77041W        W48712  36.986  16.296  12.255
77042W        W48713  12.831  30.974  14.749
77043W        W48714  31.420  41.490   0.924
77044W        W48715  16.035  20.785   4.605
77045W        W48716  33.429  44.076  13.457
77046W        W48717  20.258   2.272  12.947
77047W        W48718  38.052   5.771  14.338
77048W        W48719  34.065   9.813   0.788
77049W        W48720  28.724   5.316   2.127
77050W        W48721  23.792  12.580   0.366
77051W        W48722  25.694  12.141  12.876
77052W        W48723  33.332   4.415  10.271
77053W        W48724   2.360  19.315   2.962
77054W        W48725  33.610   9.243   2.261
77055W        W48726   0.605  23.493   3.604
77056W        W48727  17.824  27.649   3.217
77057W        W48728  19.214  18.571  13.346
77058W        W48729  19.801  21.856   0.509
77059W        W48730  44.297  38.471  12.960
77060W        W48731  11.868  12.597   4.180
77061W        W48732   8.485  26.482  12.743
77062W        W48733  34.454  41.218  11.181
77063W        W48734  24.969  21.799  14.494
77064W        W48735  10.327  40.476  13.411
77065W        W48736  31.216  34.859   2.774
77066W        W48737  40.499  15.628  13.005
77067W        W48738  13.230  13.414   4.580
77068W        W48739  14.294  30.634  12.008
77069W        W48740  38.827  29.050  11.553
77070W        W48741  26.605  27.300   3.831
77071W        W48742  20.663  29.387   2.274
77072W        W48743  31.934  10.230   0.832
77073W        W48744   1.674   1.211  12.415
77074W        W48745  13.661  22.064   4.078
77075W        W48746  37.549  14.412   3.711
77076W        W48747  18.105  27.950   1.968
77077W        W48748  21.125  21.951   1.833
77078W        W48749  38.512  21.340   0.441
77079W        W48750  44.345  40.290  12.349
77080W        W48751  26.192  36.348   3.653
77081W        W48752  22.574   0.993   3.730
77082W        W48753  41.966   2.185  14.081
77083W        W48754  43.488   5.855  11.458
77084W        W48755  41.027  13.232   1.804
77085W        W48756  21.731  25.673  13.473
77086W        W48757  40.928  44.487   1.939
77087W        W48758  34.547  24.320   1.704
77088W        W48759  10.340  33.128  12.626
77089W        W48760  14.668   7.362  11.561
77090W        W48761  36.009  30.118  11.104
77091W        W48762  24.926   5.831  13.926
77092W        W48763  32.763  35.503   4.299
77093W        W48764  40.429   8.427   1.808
77094W        W48765  39.881  15.117   3.184
77095W        W48766  29.517   9.316  12.166
77096W        W48767  32.411  40.969  13.864
77097W        W48768   3.388   9.585   1.799
77098W        W48769  35.356  26.493  11.559
77099W        W48770  40.568  34.332   4.089
77100W        W48771  23.933  43.969  14.823
77101W        W48772  18.258  44.764  13.294
77102W        W48773  26.886  36.034   4.076
77103W        W48774  35.582  32.444   3.706
77104W        W48775   6.935  30.738   2.290
77105W        W48776  39.189  29.439   3.228
77106W        W48777   7.255  36.362   3.867
77107W        W48778  37.358  11.252   0.314
77108W        W48779  27.707   9.270  11.624
77109W        W48780  13.385  27.025   3.863
77110W        W48781  19.144  36.821  11.133
77111W        W48782   5.635   0.502   2.901
77112W        W48783  33.809  41.900   1.819
77113W        W48784  31.005  27.264  14.715
77114W        W48785  23.968  11.687   3.173
77115W        W48786   5.203  29.557   0.401
77116W        W48787  19.486  20.638  13.871
77117W        W48788   5.393  26.881  13.055
77118W        W48789  29.496  10.969  10.734
77119W        W48790  12.634   8.266  13.978
77120W        W48791  37.806  17.023   2.243
77121W        W48792  43.136   4.952  12.406
77122W        W48793  22.917  23.571  12.534
77123W        W48794  42.110  24.571   0.788
77124W        W48795  29.221  12.183   4.973
77125W        W48796  21.990  25.084  14.882
77126W        W48797  21.658   4.721   0.228
77127W        W48798  15.350  11.900   0.452
77128W        W48799  14.233  15.338  14.100
77129W        W48800  44.515   8.729   4.668
77130W        W48801  41.718  10.264   4.995
77131W        W48802  12.888  32.737  14.402
77132W        W48803  39.915  16.608  11.771
77133W        W48804  44.464  36.106  12.932
77134W        W48805  24.459   3.187   4.243
77135W        W48806  18.111  18.648   3.719
77136W        W48807  22.754   7.391   0.924
77137W        W48808  40.114  11.170  13.935
77138W        W48809  28.887   7.037  10.734
77139W        W48810   1.302  44.329   4.329
77140W        W48811  29.022  13.062  12.114
77141W        W48812  37.121  16.191  13.410
77142W        W48813  21.634   0.422  13.918
77143W        W48814  33.405  28.083  14.829
77144W        W48815  34.394  14.355   0.884
77145W        W48816  25.315  42.079  12.494
77146W        W48817  24.091  12.677  13.134
77147W        W48818   2.921  11.201   2.654
77148W        W48819  31.924  13.773   2.216
77149W        W48820  22.896  19.501   1.319
77150W        W48821  41.835  13.730  13.641
77151W        W48822   3.267  23.672  11.749
77152W        W48823  29.252  41.478   3.246
77153W        W48824  13.170   4.030   1.271
77154W        W48825  27.436   9.649   2.902
77155W        W48826   8.394  20.995  10.676
77156W        W48827  42.768   6.233   1.513
77157W        W48828   3.511  30.021   1.171
77158W        W48829   6.700  15.539  10.752
77159W        W48830  41.445   8.184   4.546
77160W        W48831  34.954  43.497  11.516
77161W        W48832  10.864  19.401   4.707
77162W        W48833   9.251  40.913   4.134
77163W        W48834  25.545  26.967   2.648
77164W        W48835   7.511  30.599   3.314
77165W        W48836  41.797  41.775  13.393
77166W        W48837   5.176  41.507   0.309
77167W        W48838  15.636   9.171  13.548
77168W        W48839  32.904  40.982  14.065
77169W        W48840   9.913  26.213   4.113
77170W        W48841  25.504   7.926  13.645
77171W        W48842   2.004  36.090  13.848
77172W        W48843  19.267  27.623  14.352
77173W        W48844  33.682  33.082  13.104
77174W        W48845  33.262   9.357   0.233
77175W        W48846  41.490   8.465  14.415
77176W        W48847  43.797  40.846   4.151
77177W        W48848   1.159  21.621  13.725
77178W        W48849  41.066  22.420   1.658
77179W        W48850   4.971   9.845   2.295
77180W        W48851   2.551   4.334  12.626
77181W        W48852  20.499   1.306   0.686
77182W        W48853   0.562  12.308  10.170
77183W        W48854   0.466  24.727  10.581
77184W        W48855  42.881  34.989   0.522
77185W        W48856  33.123  35.446   0.182
77186W        W48857  11.634  12.172  12.491
77187W        W48858  18.297   2.538  12.877
77188W        W48859   6.038  18.251  13.164
77189W        W48860  36.307  22.957   0.327
77190W        W48861  19.960  32.400  13.568
77191W        W48862  20.465   5.627  10.280
77192W        W48863  13.822  36.652  14.863
77193W        W48864  12.124  25.053  10.483
77194W        W48865  30.646  37.304   3.311
77195W        W48866  28.744   7.774   4.488
77196W        W48867  35.172  33.411   3.670
77197W        W48868  14.914  22.108   2.595
77198W        W48869  30.308  16.589   3.719
77199W        W48870   5.941  20.981  11.047
77200W        W48871   3.081   9.885   2.922
77201W        W48872  32.501  23.073   4.684
77202W        W48873  19.348  19.011   0.397
77203W        W48874  13.334  34.188   2.254
77204W        W48875  13.702   7.969   3.827
77205W        W48876   7.202  17.182  10.798
77206W        W48877  38.586   6.471  14.211
77207W        W48878  36.686   1.836  11.109
77208W        W48879  21.262  23.387   1.940
77209W        W48880  42.840   3.676  10.739
77210W        W48881  20.308  36.829   1.039
77211W        W48882  44.532   6.638   1.877
77212W        W48883  17.278  39.321  13.963
77213W        W48884  40.349   8.029  14.523
77214W        W48885  18.705  16.329  13.305
77215W        W48886  31.772  31.942   2.578
77216W        W48887  17.634  19.454   2.286
77217W        W48888  12.775  16.029  13.800
77218W        W48889  20.792  21.760  13.068
77219W        W48890  30.356  44.769  10.971
77220W        W48891  28.847  37.413   0.318
77221W        W48892   2.297  27.591   2.730
77222W        W48893  37.385  24.560  10.744
77223W        W48894  13.354   4.910   4.527
77224W        W48895  29.532  18.690  12.344
77225W        W48896  27.983  11.766  12.198
77226W        W48897  19.467  35.398   4.020
77227W        W48898   9.745  16.368   0.803
77228W        W48899   1.473  21.557   1.502
77229W        W48900  40.298  34.473   0.903
77230W        W48901   9.858   5.224   1.773
77231W        W48902  39.014  29.439  11.207
77232W        W48903   7.158  37.477  12.806
77233W        W48904  21.421  38.436   9.663
77234W        W48905   1.505  37.108  10.645
77235W        W48906  35.484  37.356   4.984
77236W        W48907   6.564   6.666   3.304
77237W        W48908  35.920  30.847   5.110
77238W        W48909   0.956  32.697   3.905
77239W        W48910  23.764   9.500  11.130
77240W        W48911  38.697  12.125  11.394
77241W        W48912   8.897  14.794  11.096
77242W        W48913  37.772  12.662   1.107
77243W        W48914  44.150   0.263  13.020
77244W        W48915   5.205  34.866   3.238
77245W        W48916   2.473   7.583  12.877
77246W        W48917  29.891   4.857   4.748
77247W        W48918  44.799  22.091   9.790
77248W        W48919  43.003  40.599   3.713
77249W        W48920  27.211   8.196   3.548
77250W        W48921   1.229   8.935   4.140
77251W        W48922   4.721  43.794   4.179
77252W        W48923   0.876  42.926   3.211
77253W        W48924   4.768   5.626   1.204
77254W        W48925   3.711  16.553   4.227
77255W        W48926  25.470  24.772  10.703
77256W        W48927   6.361  43.804   2.829
77257W        W48928  33.424   0.509   4.688
77258W        W48929  34.130  18.977   4.379
77259W        W48930  36.517  31.180   2.350
77260W        W48931   3.292   2.053  12.323
77261W        W48932   2.397  27.802   3.204
77262W        W48933  21.162  27.198   0.760
77263W        W48934  13.215   8.444   1.006
77264W        W48935  30.671  13.044   1.181
77265W        W48936  35.647  36.924   2.377
77266W        W48937  24.340  37.371  11.632
77267W        W48938  36.876  27.961   0.856
77268W        W48939  13.766  29.441   2.697
77269W        W48940  24.305  42.429   0.527
77270W        W48941  38.590  30.408  14.263
77271W        W48942   4.387  10.324  10.690
77272W        W48943   1.879   3.777  11.238
77273W        W48944   8.355  26.673   1.691
77274W        W48945  40.339  42.031   0.784
77275W        W48946  31.143  41.599   2.353
77276W        W48947  23.851  43.398  12.658
77277W        W48948  29.154  25.432  12.517
77278W        W48949  42.497  11.627   3.825
77279W        W48950   2.633  10.346   4.240
77280W        W48951  37.327  42.997  13.586
77281W        W48952  31.892  10.663   4.680
77282W        W48953   4.740  15.872  13.417
77283W        W48954  24.116   9.809   0.515
77284W        W48955   0.406  10.334  11.511
77285W        W48956  25.047  22.633  10.752
77286W        W48957  16.434  38.909   1.244
77287W        W48958  34.512   2.256   1.276
77288W        W48959  10.262   5.990   1.294
77289W        W48960  39.372   0.312   1.482
77290W        W48961  44.451  37.859   3.698
77291W        W48962  41.970  23.568   5.052
77292W        W48963  35.059  33.074   0.239
77293W        W48964  36.699  25.670  11.632
77294W        W48965  44.995  31.885   0.005
77295W        W48966  16.838  19.442  14.253
77296W        W48967  37.479  31.389   3.760
77297W        W48968  37.384  23.653  14.921
77298W        W48969   2.767  35.164  11.500
77299W        W48970  15.848  35.031   4.131
77300W        W48971  41.774   5.839   2.631
77301W        W48972  37.811  17.262  10.777
77302W        W48973  38.566  15.196  14.035
77303W        W48974  23.129   5.802   3.213
77304W        W48975  35.618  22.202   0.297
77305W        W48976   8.187  19.711   1.446
77306W        W48977   8.103  19.720   0.391
77307W        W48978  26.346  18.349   5.138
77308W        W48979  27.468  39.030   1.039
77309W        W48980  41.584   2.057  12.523
77310W        W48981  14.234   5.480   3.248
77311W        W48982   6.246  23.137  12.383
77312W        W48983  42.928  35.538  13.731
77313W        W48984   5.827  14.016  10.800
77314W        W48985  41.872  20.282   2.494
77315W        W48986  27.393  17.668  14.432
77316W        W48987  43.456  25.543  10.680
77317W        W48988  36.416  19.217  13.015
77318W        W48989  39.548  19.079  14.328
77319W        W48990  40.775  27.145  13.380
77320W        W48991  19.641  39.389   1.843
77321W        W48992   3.458  16.930   4.487
77322W        W48993  39.472  16.647   4.582
77323W        W48994  23.007  30.571   4.789
77324W        W48995   9.662  43.704   3.255
77325W        W48996  16.075  39.361   0.322
77326W        W48997  42.055  41.848   1.813
77327W        W48998  29.789   6.372   4.656
77328W        W48999  13.932   6.313  13.822
77329W        W49000  30.601  43.983  14.414
77330W        W49001  38.845  39.969  10.562
77331W        W49002  16.763   3.294  12.827
77332W        W49003   4.916   1.683  11.332
77333W        W49004  21.605  31.012   3.117
77334W        W49005  26.132  35.412  12.539
77335W        W49006  38.911   3.481  13.788
77336W        W49007  36.511  15.079  12.807
77337W        W49008  20.621  27.615  11.372
77338W        W49009  26.644  35.043   0.553
77339W        W49010  18.614  37.151  12.074
77340W        W49011  44.440  33.063  13.450
77341W        W49012  22.280  13.060  14.891
77342W        W49013  22.260  34.819  10.436
77343W        W49014   7.809  31.990  11.454
77344W        W49015  18.688  14.161   1.882
77345W        W49016  29.984  17.786   2.300
77346W        W49017  24.972  27.304  11.336
77347W        W49018  20.455  40.914   3.976
77348W        W49019  38.345  40.099  10.674
77349W        W49020  43.857  42.351  12.363
77350W        W49021  13.214  20.131   3.319
77351W        W49022   2.657   9.016   0.331
77352W        W49023  43.242   4.265   3.254
77353W        W49024  44.827   0.511   0.363
77354W        W49025  10.171  38.947  12.920
77355W        W49026  26.837  38.611   2.294
77356W        W49027  41.031  19.020  12.533
77357W        W49028   5.268  27.012   1.697
77358W        W49029  13.657   0.264   0.299
77359W        W49030  42.817   5.870   0.033
77360W        W49031  26.227   3.502   3.680
77361W        W49032  28.916  29.516   1.518
77362W        W49033  44.053  43.433   3.284
77363W        W49034  17.544  36.501  14.772
77364W        W49035  19.469   3.783  13.291
77365W        W49036   7.289   1.363   3.802
77366W        W49037   5.163  36.994   2.698
77367W        W49038  40.413  44.917  11.002
77368W        W49039  20.158  38.802  12.404
77369W        W49040   0.927  39.534   3.156
77370W        W49041  15.072   2.252   4.212
77371W        W49042  40.407  35.149   3.755
77372W        W49043  25.687   2.709   4.618
77373W        W49044  30.544  24.947  13.837
77374W        W49045   6.378  30.183  13.820
77375W        W49046  34.754  30.904  14.787
77376W        W49047  36.569   5.447  11.882
77377W        W49048  19.651  38.817   0.869
77378W        W49049   3.862  10.419   0.806
77379W        W49050  35.648  10.898   4.143
77380W        W49051  24.323  44.238   1.470
77381W        W49052  31.637  23.139   1.748
77382W        W49053  22.262  29.973   1.429
77383W        W49054  29.386  31.926   0.745
77384W        W49055  15.579  29.614  10.898
77385W        W49056   4.266  24.714   2.297
77386W        W49057  35.118  16.754  14.837
77387W        W49058   4.956  44.376  13.300
77388W        W49059  15.609  15.385   2.071
77389W        W49060  32.071  40.096   0.551
77390W        W49061  28.817   1.820   3.182
77391W        W49062  30.147  16.775   2.401
77392W        W49063  30.132  23.635   1.100
77393W        W49064   8.782  23.993  11.374
77394W        W49065  37.413  18.731  13.865
77395W        W49066   1.795  15.972  12.126
77396W        W49067   6.756  19.593  14.265
77397W        W49068  34.025  12.409   0.906
77398W        W49069  20.388  25.648   1.906
77399W        W49070  42.286  19.175  10.674
77400W        W49071  16.292   4.278   1.704
77401W        W49072  42.939   9.178  12.598
77402W        W49073  37.038  14.817  10.702
77403W        W49074  22.680  11.800   0.472
77404W        W49075   0.824  33.417  12.480
77405W        W49076   2.352  12.344  13.855
77406W        W49077   1.047  36.856   3.292
77407W        W49078   5.859  31.490   3.140
77408W        W49079  23.066  44.394  13.750
77409W        W49080   9.198  41.277  12.958
77410W        W49081  42.220  10.895   5.375
77411W        W49082  34.630  37.311   1.261
77412W        W49083   8.085  38.063   2.310
77413W        W49084  30.332   7.779  13.890
77414W        W49085   5.180  32.073  13.786
77415W        W49086  40.388  38.823   4.242
77416W        W49087  11.672  15.772  10.322
77417W        W49088  18.204  25.598  10.642
77418W        W49089  11.343   9.219   1.328
77419W        W49090  17.294  44.826  12.986
77420W        W49091  38.154  42.005   0.933
77421W        W49092  32.667  38.354  14.366
77422W        W49093  37.320  30.854   2.897
77423W        W49094  41.331  26.930  12.474
77424W        W49095  39.051  22.645   2.878
77425W        W49096  30.469  39.595   4.690
77426W        W49097  19.629   1.607   1.017
77427W        W49098  18.082  10.334  12.521
77428W        W49099  23.416  27.622   3.535
77429W        W49100  13.690   5.951  14.906
77430W        W49101  29.043  37.953   4.635
77431W        W49102  35.339  19.053  10.612
77432W        W49103  44.772  34.875  12.043
77433W        W49104  25.595  23.796   2.774
77434W        W49105  41.365  31.659  12.959
77435W        W49106  33.093  43.304   3.378
77436W        W49107  13.629  28.445   2.098
77437W        W49108  11.504  25.503  14.383
77438W        W49109  15.092  22.067  14.854
77439W        W49110  31.467   0.197  12.092
77440W        W49111  44.977  18.759  11.148
77441W        W49112  10.579  40.552  12.983
77442W        W49113  15.368  42.779  14.227
77443W        W49114  25.145  24.356   1.294
77444W        W49115   1.336  13.177   0.121
77445W        W49116  11.191  10.141   1.743
77446W        W49117  24.709  39.844  12.476
77447W        W49118  40.879   0.053   2.362
77448W        W49119  25.527   0.481  11.142
77449W        W49120   7.634  35.859  12.380
77450W        W49121  26.753  23.817   3.274
77451W        W49122  38.069  10.923  10.771
77452W        W49123  22.125   7.091   4.042
77453W        W49124  17.608  29.193  13.591
77454W        W49125   1.030  15.991   0.538
77455W        W49126  12.022  14.707   0.275
77456W        W49127   2.935  37.223   3.116
77457W        W49128  33.036   6.906  14.916
77458W        W49129   8.665  13.247   3.312
77459W        W49130   3.872  20.205  14.051
77460W        W49131   7.127  33.233   3.838
77461W        W49132   6.176  39.980  10.409
77462W        W49133  15.561  13.978  13.489
77463W        W49134  15.821   0.383  14.615
77464W        W49135  40.709  26.064   2.796
77465W        W49136  25.063  21.653   0.538
77466W        W49137   5.641  31.031  10.596
77467W        W49138  36.493   5.910  12.081
77468W        W49139  38.839  21.219  10.723
77469W        W49140  23.632  11.324  14.001
77470W        W49141  12.481  29.916  11.951
77471W        W49142  19.206  15.628   4.904
77472W        W49143  44.820  31.634   0.403
77473W        W49144  32.092   4.559   0.881
77474W        W49145   4.374  10.432   1.435
77475W        W49146  26.700   2.194   3.657
77476W        W49147  36.535  28.442   0.445
77477W        W49148  22.706  30.453  10.122
77478W        W49149  29.087  41.290   4.334
77479W        W49150  14.171  27.616   0.294
77480W        W49151  35.815  30.285   1.444
77481W        W49152   3.961  22.834   4.568
77482W        W49153  18.507   7.233   0.212
77483W        W49154  12.798   6.899  14.323
77484W        W49155  35.932   1.844   2.348
77485W        W49156   7.704  20.671  10.736
77486W        W49157  27.614   4.979   0.325
77487W        W49158  43.721  33.999  12.081
77488W        W49159   3.695   4.408  13.110
77489W        W49160  39.459  17.305   2.747
77490W        W49161   1.696  18.693   1.334
77491W        W49162  42.415  22.418  11.618
77492W        W49163   2.804   7.502  14.487
77493W        W49164  14.210  37.874   4.032
77494W        W49165  25.091  17.477  14.401
77495W        W49166  14.051   0.832  14.341
77496W        W49167  26.912  32.001   3.835
77497W        W49168  12.163  19.736  13.941
77498W        W49169  41.795  35.325  13.647
77499W        W49170  43.109  32.649   2.806
77500W        W49171   3.234  24.676  10.957
77501W        W49172  32.050  42.036   1.496
77502W        W49173  23.971  41.901  13.389
77503W        W49174   5.428  36.490   1.739
77504W        W49175  18.471  39.790   1.961
77505W        W49176   6.265  11.788  10.542
77506W        W49177  11.110   3.421  10.774
77507W        W49178  31.640  34.547  11.657
77508W        W49179  33.951  42.075   2.899
77509W        W49180  10.834  21.920  10.539
77510W        W49181  37.044  34.949  14.745
77511W        W49182  37.379  34.517  10.220
77512W        W49183  30.938  41.501   1.879
77513W        W49184  28.524  28.909   4.642
77514W        W49185  30.086  26.620  10.678
77515W        W49186  38.624  23.649  14.414
77516W        W49187  37.587  27.940  10.603
77517W        W49188  23.634  25.487   2.886
77518W        W49189  37.089  12.290   1.734
77519W        W49190  12.618  41.234   2.559
77520W        W49191  12.064  33.552  14.849
77521W        W49192  35.237  34.377  12.974
77522W        W49193  36.039  10.389   1.487
77523W        W49194  16.708  14.590   4.555
77524W        W49195   2.570   7.409   4.222
77525W        W49196  19.266  21.336   0.956
77526W        W49197  14.065  15.226  11.201
77527W        W49198  39.812  23.907   3.968
77528W        W49199  34.015  22.998  13.853
77529W        W49200   6.860   3.597  11.116
77530W        W49201  16.696  14.109   4.738
77531W        W49202  14.714  39.971  14.342
77532W        W49203   8.310  26.782   4.429
77533W        W49204  30.395  43.037   0.638
77534W        W49205  28.558  12.659  12.631
77535W        W49206  12.140  30.248  13.856
77536W        W49207  12.678  42.548  12.497
77537W        W49208   9.453  42.379   1.272
77538W        W49209   7.886   8.384  14.200
77539W        W49210  25.624  16.721  11.507
77540W        W49211  38.896  24.515   2.675
77541W        W49212  43.858  20.499  13.540
77542W        W49213  17.695  18.926   0.556
77543W        W49214  21.262  12.390  13.303
77544W        W49215  37.401  20.491   1.726
77545W        W49216  22.145   7.341  13.754
77546W        W49217  28.525  26.918  14.418
77547W        W49218   1.790   9.114   0.522
77548W        W49219  41.223  19.089   3.739
77549W        W49220   1.271  39.771  12.589
77550W        W49221  41.086  35.536  11.635
77551W        W49222  16.992  13.384   3.082
77552W        W49223   7.119  11.378  12.980
77553W        W49224  28.063  38.181  13.999
77554W        W49225  29.466  39.155   0.211
77555W        W49226  25.192  39.109   1.717
77556W        W49227  10.734   4.386   3.731
77557W        W49228  26.901  28.124   9.818
77558W        W49229  40.470  43.006  13.306
77559W        W49230  36.336  43.779  13.470
77560W        W49231  41.937  26.596  11.686
77561W        W49232  21.677  14.592   1.250
77562W        W49233  19.046  24.209   4.703
77563W        W49234  37.412  36.978   2.248
77564W        W49235  34.323  40.511   0.765
77565W        W49236  20.126   3.252   2.379
77566W        W49237  33.945  42.953   2.825
77567W        W49238  38.436  31.367  14.490
77568W        W49239  24.175  11.317   1.302
77569W        W49240  21.803  35.654   1.853
77570W        W49241  14.825  25.688  13.323
77571W        W49242  16.628   6.639  13.153
77572W        W49243  23.772  10.580  11.820
77573W        W49244  18.560  19.523  11.235
77574W        W49245   4.340   6.546  13.298
77575W        W49246   5.205  39.278   4.067
77576W        W49247  40.308  36.439  11.159
77577W        W49248  13.251  22.494  12.444
77578W        W49249  19.143  11.867  13.665
77579W        W49250   9.175   4.881   4.772
77580W        W49251   9.801   1.431  11.455
77581W        W49252  35.805  30.607   2.682
77582W        W49253   9.130  38.045   0.700
77583W        W49254   7.193  25.530   3.234
77584W        W49255  38.777  37.823  11.441
77585W        W49256  21.132  16.128   4.434
77586W        W49257  23.655  34.498  12.096
77587W        W49258  36.582   3.074  11.039
77588W        W49259  40.500  36.455   4.078
77589W        W49260  42.154   0.270   1.864
77590W        W49261  23.218   1.892   1.888
77591W        W49262  19.444  21.574   2.577
77592W        W49263  36.080  27.545  13.106
77593W        W49264  11.859  31.451   0.383
77594W        W49265  35.073  10.081   0.885
77595W        W49266  43.946   0.118  13.601
77596W        W49267  35.039   3.959   1.418
77597W        W49268  15.535  42.940  11.616
77598W        W49269   0.352  21.756   2.662
77599W        W49270  30.575  11.191  13.739
77600W        W49271  11.917  18.828  11.577
77601W        W49272  25.556  39.270  12.523
77602W        W49273  15.209  29.574  12.004
77603W        W49274  18.555  23.974  11.860
77604W        W49275  43.020  44.448   3.293
77605W        W49276  19.273  15.203  10.635
77606W        W49277  39.264  35.052   1.667
77607W        W49278  34.911  42.997  10.646
77608W        W49279  25.139   7.166   2.396
77609W        W49280  37.563  30.145  13.779
77610W        W49281  40.041  27.105  11.527
77611W        W49282   9.369  22.191   1.618
77612W        W49283  44.960  17.964   1.348
77613W        W49284  17.121  36.877   1.746
77614W        W49285  43.029  38.400  11.593
77615W        W49286  38.765  38.410   4.091
77616W        W49287   6.451  15.140   3.215
77617W        W49288  15.802  32.423  13.430
77618W        W49289  15.623  22.561   0.922
77619W        W49290  28.056  40.815  10.572
77620W        W49291   7.871   9.225  14.290
77621W        W49292  28.031   2.954  11.548
77622W        W49293  40.596  11.209  11.164
77623W        W49294  24.017   7.286   0.446
77624W        W49295  40.502   3.687   1.746
77625W        W49296   2.309  12.217   1.796
77626W        W49297  29.023  22.153   3.759
77627W        W49298  31.691  41.306  11.939
77628W        W49299   4.299  14.055   4.949
77629W        W49300  10.757   6.124   1.679
77630W        W49301  43.481  29.274  12.289
77631W        W49302  29.156  35.807   0.886
77632W        W49303  43.745  43.719   2.808
77633W        W49304  16.270  21.972  12.647
77634W        W49305   4.444  13.242   1.479
77635W        W49306  27.471  43.183   0.762
77636W        W49307   3.807   2.836   1.558
77637W        W49308  42.024  11.802   1.630
77638W        W49309  39.670  37.306   3.706
77639W        W49310  32.929  29.422   2.063
77640W        W49311   9.242  24.474   0.295
77641W        W49312  43.730  14.154   5.429
77642W        W49313  34.505  10.819   0.903
77643W        W49314   2.279  34.121  12.760
77644W        W49315  13.126  21.601  12.349
77645W        W49316   7.095  44.433   2.893
77646W        W49317  39.079  14.851   0.440
77647W        W49318  39.558  25.191   4.385
77648W        W49319  37.497  16.589   2.944
77649W        W49320  22.769  25.563  14.808
77650W        W49321  42.839  27.780   3.588
77651W        W49322  16.789  26.822  13.867
77652W        W49323  22.582  41.841   0.540
77653W        W49324   0.428   9.363  11.637
77654W        W49325  41.722   7.840  12.967
77655W        W49326  36.985  11.419   1.283
77656W        W49327  17.581  17.821  10.700
77657W        W49328  12.393  36.344  14.252
77658W        W49329   5.478   3.912  12.533
77659W        W49330  14.031  27.487  13.396
77660W        W49331  38.500  22.807   2.762
77661W        W49332  34.233   5.635  10.901
77662W        W49333  32.331  24.330   4.420
77663W        W49334   9.694  18.643   3.917
77664W        W49335   8.763   1.310  12.495
77665W        W49336   0.613  37.349   4.987
77666W        W49337  36.585   8.405   0.925
77667W        W49338  40.942  36.009  10.789
77668W        W49339  15.727   6.737  12.880
77669W        W49340   5.842  35.331   1.278
77670W        W49341  22.087  28.954   1.227
77671W        W49342  38.367  10.267  12.734
77672W        W49343  12.600  13.650   4.837
77673W        W49344  36.539  37.795   3.204
77674W        W49345  31.502  17.556  14.310
77675W        W49346  26.735  44.328   0.997
77676W        W49347  41.833  24.265   4.022
77677W        W49348  24.439  34.910   4.537
77678W        W49349  43.812  15.274   3.794
77679W        W49350  30.778  41.476  12.360
77680W        W49351  16.077  26.081   4.587
77681W        W49352   9.134  40.563  14.946
77682W        W49353  10.625  41.796  11.998
77683W        W49354  35.333   3.224  12.052
77684W        W49355  26.517   7.308   0.051
77685W        W49356  37.643   8.775  14.353
77686W        W49357  40.134   9.931   0.964
77687W        W49358  39.970  17.832  13.038
77688W        W49359  15.196  14.641   4.899
77689W        W49360   3.631  16.607  13.829
77690W        W49361  22.912   4.503   2.381
77691W        W49362  25.979   8.871   2.882
77692W        W49363  22.002  36.045  11.902
77693W        W49364   9.965   5.281  11.624
77694W        W49365  42.747  24.100   1.669
77695W        W49366  39.810   6.228  14.857
77696W        W49367  39.989  38.170  11.157
77697W        W49368  36.812  37.107   3.652
77698W        W49369  33.816  11.459   1.716
77699W        W49370  26.522   3.563   1.447
77700W        W49371  29.243  19.258   2.616
77701W        W49372   8.788  21.172  11.221
77702W        W49373  16.782  13.691  12.005
77703W        W49374  39.287  40.805   4.129
77704W        W49375  17.053  18.511  11.944
77705W        W49376  36.146  34.838  11.010
77706W        W49377  42.711  26.360   2.688
77707W        W49378  42.741   0.384   2.694
77708W        W49379  40.473  31.077  11.722
77709W        W49380  36.784   2.234  10.817
77710W        W49381  12.657  39.018  10.804
77711W        W49382   2.476   2.787  10.998
77712W        W49383  42.913  43.922   2.417
77713W        W49384  41.474  29.211  14.404
77714W        W49385  32.450   4.767  11.427
77715W        W49386  16.116  12.927  10.370
77716W        W49387   6.658  43.683   4.124
77717W        W49388  20.352  26.245   4.646
77718W        W49389  22.979  44.942   1.433
77719W        W49390  44.188  12.162   2.949
77720W        W49391  17.235  33.010   4.584
77721W        W49392  22.638  38.446   2.926
77722W        W49393  40.794  11.589   0.040
77723W        W49394  35.137   9.705   1.901
77724W        W49395  14.512   2.345   1.319
77725W        W49396  19.646  28.955   2.288
77726W        W49397  18.485  28.732  11.023
77727W        W49398  39.931  11.815  10.542
77728W        W49399  10.627   3.879  12.831
77729W        W49400  38.350  21.602   4.908
77730W        W49401  32.965  33.593  13.125
77731W        W49402  36.148  13.498   3.889
77732W        W49403  17.067  38.417  11.955
77733W        W49404  41.383  44.414   0.865
77734W        W49405   5.024  28.857  11.559
77735W        W49406  16.623  33.673   3.171
77736W        W49407  28.023  34.932  11.539
77737W        W49408  22.001  15.931   0.314
77738W        W49409  43.982  31.136   2.695
77739W        W49410   1.480  11.653  13.897
77740W        W49411  44.344  39.038   0.805
77741W        W49412   7.894  39.974   1.781
77742W        W49413  10.624  16.683   1.112
77743W        W49414  33.990  37.282   3.690
77744W        W49415  34.908  25.402  10.497
77745W        W49416  15.346  27.669  11.521
77746W        W49417  40.747  27.766   2.345
77747W        W49418  25.564   2.820   1.168
77748W        W49419  29.724  34.961  11.794
77749W        W49420  32.940  38.407  12.901
77750W        W49421   8.309   6.861  11.273
77751W        W49422  38.003  15.279  13.030
77752W        W49423   2.466  25.813  13.791
77753W        W49424  11.097  43.415   0.878
77754W        W49425  28.842  24.779  14.332
77755W        W49426  44.980   4.303   1.810
77756W        W49427  28.832  32.636   0.919
77757W        W49428  39.207  42.562  12.519
77758W        W49429  26.721  24.010  12.663
77759W        W49430  24.652   7.713  11.216
77760W        W49431  19.758  39.614  14.265
77761W        W49432  41.577   5.414  14.606
77762W        W49433  33.830   1.289  13.241
77763W        W49434   7.615   1.817   4.087
77764W        W49435   2.072  35.904   3.238
77765W        W49436  42.709  10.681   1.295
77766W        W49437  43.800  16.306   2.539
77767W        W49438   5.945  36.847   3.877
77768W        W49439   3.159  39.403  14.792
77769W        W49440   8.341  37.519   1.039
77770W        W49441  12.311   2.344   4.452
77771W        W49442  22.503   0.272  11.019
77772W        W49443  23.573  21.586   4.584
77773W        W49444  23.420  34.547  11.639
77774W        W49445  44.413  11.187  11.895
77775W        W49446  15.782  14.895  14.266
77776W        W49447  31.448  22.612   4.073
77777W        W49448  22.087  24.395  10.168
77778W        W49449   8.136  26.316   0.755
77779W        W49450  20.946  33.677  11.194
77780W        W49451  36.331  40.467   4.194
77781W        W49452   2.071  25.080  12.469
77782W        W49453  13.570  44.806  12.619
77783W        W49454  33.439   3.685  11.399
77784W        W49455   3.946  18.349  14.484
77785W        W49456  20.223  20.060   2.389
77786W        W49457  41.913  38.478   3.237
77787W        W49458  25.536  30.011   4.534
77788W        W49459   2.913  35.410  12.068
77789W        W49460  35.582   3.830  11.535
77790W        W49461  12.368  34.219  12.574
77791W        W49462   5.695  13.648  14.319
77792W        W49463   1.881  16.699   3.615
77793W        W49464  35.531  43.808  10.782
77794W        W49465   6.905  26.167   2.644
77795W        W49466   3.930  28.148   1.767
77796W        W49467  14.282  18.401   2.399
77797W        W49468  32.202  42.516   2.827
77798W        W49469  26.512  27.534  12.957
77799W        W49470  20.711  10.987   0.398
77800W        W49471  22.063  41.389   4.909
77801W        W49472  22.168  41.741   3.658
77802W        W49473  44.371   2.296   4.142
77803W        W49474  29.154   0.316  10.743
77804W        W49475  11.652  22.737   1.435
77805W        W49476  33.661  23.039   1.870
77806W        W49477   6.337  13.312   3.184
77807W        W49478  43.338  44.660  13.158
77808W        W49479  35.714  22.284   4.089
77809W        W49480  29.874  11.747  10.979
77810W        W49481  20.057  34.115   0.751
77811W        W49482   6.527  11.077  11.071
77812W        W49483  42.086   7.926  10.777
77813W        W49484   0.237  38.266  13.945
77814W        W49485  32.357  14.738  11.257
77815W        W49486   5.370  27.133  12.615
77816W        W49487  31.601  34.343   2.197
77817W        W49488   3.532  32.260  12.038
77818W        W49489   8.398   2.965   4.319
77819W        W49490  19.808  25.641  12.514
77820W        W49491   2.484  15.550   3.374
77821W        W49492   3.160  21.515  12.088
77822W        W49493  14.304   5.903   1.679
77823W        W49494   4.246  12.354   0.374
77824W        W49495   4.495  27.042   3.886
77825W        W49496  29.593  41.766  14.324
77826W        W49497  41.849  32.227   3.385
77827W        W49498  10.120   8.892  12.868
77828W        W49499  34.294  12.558  14.581
77829W        W49500  33.458   6.775   3.017
77830W        W49501   9.683   5.603  13.322
77831W        W49502   8.041  34.993   2.911
77832W        W49503  37.507  40.826   4.652
77833W        W49504  31.131  32.982  12.227
77834W        W49505  32.576  21.335  13.528
77835W        W49506   2.409  26.548  14.760
77836W        W49507  32.351  42.837   0.501
77837W        W49508   1.572  24.490   4.437
77838W        W49509  38.847  21.179  13.644
77839W        W49510  34.175  39.046   4.199
77840W        W49511  24.564  10.662  11.371
77841W        W49512  22.249   3.430  14.832
77842W        W49513  37.510  41.938   3.220
77843W        W49514  31.013   0.409   1.487
77844W        W49515  29.259   8.666  10.119
77845W        W49516   0.536  36.499  14.856
77846W        W49517  14.155  11.247  14.248
77847W        W49518  24.105  36.355  12.516
77848W        W49519  22.971   6.344  12.359
77849W        W49520  19.201  44.205  10.658
77850W        W49521   3.902  18.263   0.317
77851W        W49522   5.190   4.543  14.746
77852W        W49523   2.772   6.762   4.595
77853W        W49524  16.640  21.972  13.030
77854W        W49525  19.242  35.853   2.720
77855W        W49526  42.456   5.849  12.704
77856W        W49527  20.785  11.720   3.349
77857W        W49528  41.559  16.331  14.940
77858W        W49529  39.920  15.173  13.594
77859W        W49530  42.025  36.894   1.394
77860W        W49531  35.408  44.762  13.373
77861W        W49532  42.363   6.246   2.415
77862W        W49533   3.379  24.260   2.116
77863W        W49534  10.749   6.085  13.384
77864W        W49535  26.063   8.032  13.016
77865W        W49536  28.035  25.232   5.003
77866W        W49537  36.067  35.639   1.272
77867W        W49538  43.997   1.387   0.893
77868W        W49539  37.520  36.072   0.326
77869W        W49540  24.168   5.958  14.775
77870W        W49541  42.980  37.412  14.011
77871W        W49542  37.090  21.527   3.778
77872W        W49543  44.286  36.038  13.955
77873W        W49544   8.280   1.597   2.241
77874W        W49545  15.748   0.992   1.030
77875W        W49546   7.316  25.761  12.430
77876W        W49547  31.812  24.251   1.697
77877W        W49548  38.292   2.733   3.956
77878W        W49549   5.580   5.406   2.729
77879W        W49550  30.677  14.592  11.110
77880W        W49551  34.341  30.884   4.441
77881W        W49552  10.787  32.056  12.807
77882W        W49553  17.172  22.256   2.303
77883W        W49554  19.536  38.028   0.438
77884W        W49555  16.455   7.238  14.369
77885W        W49556  39.606   7.961   1.320
77886W        W49557  35.378  27.497  14.822
77887W        W49558  41.858   0.531  10.440
77888W        W49559  34.900  21.969  12.082
77889W        W49560  29.560  36.030   2.209
77890W        W49561   9.173  39.751   1.497
77891W        W49562  15.041  14.178  11.456
77892W        W49563  25.200  38.402  11.229
77893W        W49564   5.792  39.904  13.557
77894W        W49565   4.529   5.161   1.285
77895W        W49566  44.513  33.393   3.591
77896W        W49567   4.944  38.978  11.977
77897W        W49568  29.486  40.379   1.304
77898W        W49569  29.303  15.236   0.322
77899W        W49570  36.540  14.257  14.289
77900W        W49571   4.157  38.141   1.372
77901W        W49572   5.212  37.671  10.709
77902W        W49573  16.266   6.146  11.121
77903W        W49574  13.758  15.719   4.198
77904W        W49575  11.118  39.897  10.918
77905W        W49576  13.647  17.688  12.544
77906W        W49577  39.465  14.562   1.197
77907W        W49578  39.500  35.958   4.209
77908W        W49579  30.352  44.336   1.373
77909W        W49580  25.187   0.688  14.119
77910W        W49581  31.996   0.290  12.044
77911W        W49582  43.419  30.022   1.988
77912W        W49583   7.254   9.948  11.023
77913W        W49584   9.855  13.065  13.212
77914W        W49585  34.042  22.605   2.351
77915W        W49586   1.360   2.775   0.667
77916W        W49587  17.550   3.539  12.326
77917W        W49588  19.117  29.715  12.506
77918W        W49589   4.796  33.150  11.513
77919W        W49590   5.741  25.713   2.216
77920W        W49591  36.096  12.265  13.439
77921W        W49592  40.894   8.110   1.911
77922W        W49593  17.364  14.590   1.942
77923W        W49594   2.165  22.148   5.012
77924W        W49595   5.702   9.226   3.756
77925W        W49596  23.132  31.632   3.396
77926W        W49597  43.473  34.923   2.896
77927W        W49598  21.240   2.358   3.650
77928W        W49599  31.825   8.568   2.427
77929W        W49600  20.703  29.116   0.303
77930W        W49601  25.217  27.187  10.889
77931W        W49602  31.495  44.029   2.828
77932W        W49603  43.347   4.571  10.207
77933W        W49604  35.031  34.344  11.684
77934W        W49605   6.332   5.240  14.504
77935W        W49606  20.201  10.885   3.752
77936W        W49607   2.041  34.104   2.185
77937W        W49608  28.274   3.949   0.860
77938W        W49609  44.930  28.592  10.434
77939W        W49610  20.265   0.858   0.292
77940W        W49611  42.734  17.351  14.838
77941W        W49612  35.542  39.378  12.458
77942W        W49613  30.233  43.374   3.783
77943W        W49614  28.435   9.102   2.398
77944W        W49615  43.367  19.313  13.443
77945W        W49616  21.695  25.517  14.823
77946W        W49617  14.755  36.039   0.992
77947W        W49618  37.443  37.393   5.038
77948W        W49619  36.009  14.738  14.425
77949W        W49620   4.678  28.108   2.695
77950W        W49621  32.583  39.995  10.840
77951W        W49622   2.766   1.286   4.932
77952W        W49623  39.799  28.032  13.559
77953W        W49624   0.972  38.006  11.598
77954W        W49625  44.336   7.165   2.551
77955W        W49626  13.133  18.735   3.258
77956W        W49627  35.435   5.888  13.457
77957W        W49628  14.728  30.062  13.496
77958W        W49629  25.005  24.654   0.881
77959W        W49630  39.304  22.935   3.251
77960W        W49631  36.137  42.472   4.083
77961W        W49632  33.452  34.790  14.955
77962W        W49633   8.620  42.703   1.357
77963W        W49634  43.983  38.396  14.476
77964W        W49635  13.368  41.048   0.779
77965W        W49636  32.984  26.444   0.400
77966W        W49637  41.305  13.707   4.983
77967W        W49638  27.723  12.484   0.353
77968W        W49639   0.863   2.272   1.354
77969W        W49640  36.787  13.832   3.232
77970W        W49641  12.819  35.087  14.420
77971W        W49642   9.234   2.173  12.182
77972W        W49643  12.256  38.150  13.640
77973W        W49644  40.901  42.357   4.757
77974W        W49645  28.922  27.350  10.784
77975W        W49646  37.569   6.271  11.715
77976W        W49647   2.455   8.651   3.821
77977W        W49648  33.356  17.547  12.675
77978W        W49649  23.183   3.239   4.562
77979W        W49650  39.483  29.606   4.600
77980W        W49651  43.669  27.724  12.920
77981W        W49652  38.330  42.834   1.928
77982W        W49653  13.600   6.456   2.361
77983W        W49654  36.551  25.054   2.788
77984W        W49655   0.117   7.595  13.844
77985W        W49656  24.721  17.802   2.440
77986W        W49657  40.333  33.907  14.365
77987W        W49658  17.433  13.334   4.752
77988W        W49659  28.511   8.822  11.687
77989W        W49660  15.177  12.765   4.750
77990W        W49661  34.754  34.569  13.025
77991W        W49662  11.296  42.066  11.080
77992W        W49663   3.450  21.760  14.870
77993W        W49664  33.089  26.474  12.057
77994W        W49665   0.473   2.889  12.315
77995W        W49666  23.639  17.828  10.570
77996W        W49667  11.823  35.943   1.334
77997W        W49668  30.944   1.961   4.280
77998W        W49669  37.078   7.791   3.324
77999W        W49670  12.002  37.874  11.067
78000W        W49671  22.663   7.487  14.027
78001W        W49672  13.517  33.317   3.266
78002W        W49673   2.160  37.483  11.495
78003W        W49674  21.124  35.263  12.036
78004W        W49675  30.746  28.933  12.548
78005W        W49676  17.196  29.841  13.465
78006W        W49677   8.099  29.233  12.576
78007W        W49678  28.119  31.764   2.748
78008W        W49679   5.753   6.466  12.504
78009W        W49680  25.373   9.198  10.720
78010W        W49681  10.307  13.781  11.756
78011W        W49682  18.800  13.986   0.112
78012W        W49683  11.280  17.139  12.002
78013W        W49684  39.504  43.590   3.695
78014W        W49685  22.999  35.937   4.039
78015W        W49686  41.387   1.422   2.212
78016W        W49687  18.638  25.859  10.199
78017W        W49688  17.055  40.554   5.198
78018W        W49689  20.404  30.875   2.428
78019W        W49690  10.878   6.374  12.969
78020W        W49691   2.760  19.044   0.898
78021W        W49692  34.664  19.744  13.739
78022W        W49693   9.314  13.134  11.453
78023W        W49694   0.920  35.301   0.411
78024W        W49695  42.493  13.283  13.281
78025W        W49696  43.266  28.127   4.461
78026W        W49697  36.499  33.853  11.021
78027W        W49698  17.510  37.488   2.401
78028W        W49699  29.516  41.639   3.671
78029W        W49700  37.222  43.978   4.276
78030W        W49701   8.427  13.195  12.003
78031W        W49702  41.536  36.925   1.235
78032W        W49703  36.651  36.481   4.599
78033W        W49704  42.843  35.563   1.250
78034W        W49705  26.237  18.603  12.024
78035W        W49706  16.603  37.066  12.460
78036W        W49707  29.492  40.617   3.712
78037W        W49708   1.027   4.827  11.144
78038W        W49709  27.627  32.500   3.910
78039W        W49710  24.949  25.971   4.608
78040W        W49711   8.529  11.638  13.403
78041W        W49712  44.541  30.012   4.951
78042W        W49713  27.165   6.673  11.541
78043W        W49714  38.772  31.719  14.711
78044W        W49715  18.404  11.175   0.337
78045W        W49716   1.741  13.823  14.337
78046W        W49717   7.334   7.299  12.393
78047W        W49718  27.953   7.283   1.887
78048W        W49719  11.266  21.201  12.521
78049W        W49720  32.555  12.167  10.797
78050W        W49721  13.725   6.988  14.619
78051W        W49722  24.121  43.809   2.984
78052W        W49723  15.208   0.822  14.248
78053W        W49724  14.306   1.911   1.547
78054W        W49725  25.822  33.604  13.535
78055W        W49726   3.040  42.811  14.982
78056W        W49727   7.365  37.605  11.055
78057W        W49728   2.016   8.307  13.400
78058W        W49729  21.006  41.914  12.592
78059W        W49730  24.587  38.500  13.070
78060W        W49731  31.236  41.829  13.938
78061W        W49732  24.993  33.093   1.374
78062W        W49733  15.398  44.727  11.201
78063W        W49734  43.406  20.528  10.079
78064W        W49735  20.192   7.449  11.193
78065W        W49736  17.493  21.929   0.014
78066W        W49737  43.352   3.337  14.150
78067W        W49738  12.594  27.298   3.649
78068W        W49739   9.640   0.355   3.691
78069W        W49740  17.839  13.067   2.315
78070W        W49741  33.859  42.917   4.908
78071W        W49742  43.275  34.050  14.030
78072W        W49743   9.399  20.746   1.006
78073W        W49744  27.523   9.408   4.881
78074W        W49745  27.291   6.543   2.248
78075W        W49746  24.894  25.508   1.708
78076W        W49747  11.300  11.704   1.279
78077W        W49748  39.357  23.603  13.856
78078W        W49749  15.647  13.381   3.365
78079W        W49750  32.619  22.323   2.389
78080W        W49751  40.850  15.834  14.972
78081W        W49752  20.959  29.566  12.187
78082W        W49753   7.418  42.663  13.937
78083W        W49754  18.321  18.685   4.194
78084W        W49755   0.457  32.593   2.181
78085W        W49756  24.130  18.978  12.188
78086W        W49757  25.660  40.747  11.646
78087W        W49758   2.660  20.426   0.874
78088W        W49759  24.944  17.021   0.357
78089W        W49760  15.198  29.731   2.476
78090W        W49761   6.739  26.560  12.104
78091W        W49762  41.793  29.882   0.362
78092W        W49763  33.638  11.314  13.096
78093W        W49764  24.268  24.743   3.118
78094W        W49765   5.037   3.684  14.450
78095W        W49766  13.354  25.596  13.787
78096W        W49767  30.639  35.926   2.650
78097W        W49768  11.094  32.467  10.457
78098W        W49769  33.969  31.385   3.779
78099W        W49770   7.834  35.847  12.858
78100W        W49771  26.945   8.830   4.572
78101W        W49772  43.425  40.693  10.070
78102W        W49773   3.993  15.940  12.953
78103W        W49774  41.310   0.533   4.664
78104W        W49775  37.236   8.802   1.719
78105W        W49776  26.035  36.317   1.334
78106W        W49777  20.726  29.506  12.651
78107W        W49778  27.296   5.485   1.274
78108W        W49779   7.100  14.315   3.352
78109W        W49780  30.904  38.801  12.532
78110W        W49781  15.526  21.989  12.123
78111W        W49782  27.883  43.927   1.399
78112W        W49783   0.128  20.621   5.363
78113W        W49784  12.848  21.680   0.713
78114W        W49785  22.969  11.190  11.584
78115W        W49786   9.389  39.825  13.861
78116W        W49787  36.436  33.203  12.828
78117W        W49788  22.385  26.561   0.486
78118W        W49789   9.280  21.198  11.343
78119W        W49790  37.502  42.872  11.501
78120W        W49791  17.926  11.174  10.654
78121W        W49792  43.303  21.119  13.989
78122W        W49793  43.081  28.963   2.306
78123W        W49794  27.253  40.002   3.812
78124W        W49795   5.359  43.771   3.908
78125W        W49796  30.636   1.234  10.308
78126W        W49797  20.026  23.656   0.454
78127W        W49798   0.008  37.917   0.038
78128W        W49799  36.067  22.137  11.633
78129W        W49800  31.607  22.638   0.828
78130W        W49801  17.341  19.022  13.497
78131W        W49802  32.632  24.083  14.396
78132W        W49803  16.262  33.981   4.912
78133W        W49804  39.881  11.793   3.756
78134W        W49805  33.646  24.663   2.989
78135W        W49806  39.025  26.234  14.016
78136W        W49807  12.577  11.215  12.453
78137W        W49808   7.067  22.620   4.314
78138W        W49809  21.665  41.537  10.304
78139W        W49810  16.539  15.290  14.582
78140W        W49811  17.326  31.134  12.319
78141W        W49812   5.728   4.393  13.097
78142W        W49813  21.226   4.503   4.291
78143W        W49814  42.827  24.226  12.034
78144W        W49815   1.822  33.626  11.030
78145W        W49816  33.790  15.743   3.596
78146W        W49817  21.526  44.484  14.461
78147W        W49818   5.405   0.547   5.179
78148W        W49819  29.687  12.663  11.483
78149W        W49820  29.285  43.748   3.932
78150W        W49821   1.469   7.179   2.400
78151W        W49822   2.046  36.471  10.524
78152W        W49823  23.756   6.139  12.750
78153W        W49824  30.647  27.466   4.615
78154W        W49825  44.670   6.312  12.490
78155W        W49826   2.081   5.558   2.655
78156W        W49827  41.166  22.127  12.486
78157W        W49828  39.762  33.197  13.353
78158W        W49829  21.649   5.711   2.706
78159W        W49830  21.822  32.907  11.079
78160W        W49831   7.364  34.033   1.796
78161W        W49832  11.483   7.225  12.891
78162W        W49833  21.243  33.226   2.920
78163W        W49834  11.307  24.486  11.069
78164W        W49835  38.507  42.823  14.796
78165W        W49836  29.170  29.570  13.976
78166W        W49837  31.575   2.399   0.402
78167W        W49838  33.077   8.714   1.849
78168W        W49839  36.443  26.362   4.046
78169W        W49840  41.762  11.283  14.308
78170W        W49841  42.460  17.974   2.418
78171W        W49842  28.707   6.495  12.840
78172W        W49843  34.645  32.876  11.244
78173W        W49844  35.353  27.892   3.225
78174W        W49845   8.292   3.332   2.592
78175W        W49846  18.523  32.424  13.363
78176W        W49847   8.312   0.237  14.036
78177W        W49848  38.462  20.670  11.496
78178W        W49849  26.657  26.451   1.671
78179W        W49850  20.814   3.312   3.727
78180W        W49851   6.236  42.533   3.666
78181W        W49852   8.261  35.113   4.423
78182W        W49853  28.187  22.530  13.427
78183W        W49854  20.085  33.848   3.288
78184W        W49855  12.245  11.209   0.628
78185W        W49856  34.563  16.747   4.483
78186W        W49857   9.164  18.167   0.317
78187W        W49858  27.895  10.335   3.280
78188W        W49859  28.628  20.316  11.171
78189W        W49860   8.227  13.780  13.232
78190W        W49861  16.204  43.288  11.998
78191W        W49862   8.166   7.437  13.834
78192W        W49863   0.399  15.524  11.424
78193W        W49864  39.308  23.234   1.969
78194W        W49865   3.280   2.883   1.426
78195W        W49866   0.202   5.623  14.206
78196W        W49867  21.658  14.559   4.981
78197W        W49868  29.401  12.617  13.776
78198W        W49869  21.082  31.345  11.537
78199W        W49870  34.483  12.946   1.450
78200W        W49871   3.007  44.304   2.721
78201W        W49872  41.404  10.295  11.461
78202W        W49873  41.427   4.767   0.378
78203W        W49874  13.741   4.891  14.181
78204W        W49875   3.199  30.094  13.850
78205W        W49876  43.152  14.302  10.256
78206W        W49877   4.485  43.398   1.663
78207W        W49878  31.403  37.498   3.636
78208W        W49879  13.462  19.521   4.138
78209W        W49880   1.536  24.723   2.660
78210W        W49881   8.279  22.782  12.878
78211W        W49882   3.269  15.259   4.035
78212W        W49883  20.501  11.061   4.135
78213W        W49884  38.761  44.739  14.864
78214W        W49885   1.370  11.207   0.466
78215W        W49886   8.220  19.705   3.969
78216W        W49887  35.457  13.629  14.713
78217W        W49888  23.135  32.812  13.333
78218W        W49889  39.826  26.444   0.333
78219W        W49890  40.842  32.655  14.907
78220W        W49891  20.757  21.727  14.902
78221W        W49892  39.573  28.612   2.303
78222W        W49893   2.788  25.947   0.813
78223W        W49894   0.458  38.490  10.516
78224W        W49895  12.775  10.742  11.236
78225W        W49896   8.789  28.226   2.159
78226W        W49897  34.840  27.829   3.218
78227W        W49898  44.985  34.925   0.983
78228W        W49899  18.625  43.228  12.908
78229W        W49900   3.417   5.710   2.357
78230W        W49901  42.751  35.688  12.721
78231W        W49902  34.132   9.283   2.180
78232W        W49903  20.730  27.785   1.961
78233W        W49904  18.956  17.015   3.191
78234W        W49905  39.550  12.817  10.932
78235W        W49906  41.863  16.807   2.834
78236W        W49907  35.548  26.673  12.006
78237W        W49908  44.801  20.260   5.086
78238W        W49909  19.049   1.949  11.934
78239W        W49910  31.274   3.460   4.112
78240W        W49911  28.871  17.073   4.168
78241W        W49912  42.506   8.381   2.154
78242W        W49913  37.805  41.085   2.290
78243W        W49914  37.078  15.090   0.343
78244W        W49915  15.747  23.630  12.657
78245W        W49916  25.996  35.599   0.653
78246W        W49917  43.539  28.027  10.589
78247W        W49918   9.234  14.123   1.096
78248W        W49919  23.658  34.805   3.864
78249W        W49920  36.155  43.852  11.642
78250W        W49921  27.972  27.060   4.754
78251W        W49922   5.724  25.388  12.187
78252W        W49923  16.059  17.770  11.579
78253W        W49924  35.656  19.115   0.001
78254W        W49925  37.208  18.492   4.120
78255W        W49926   9.824  29.220   2.199
78256W        W49927   6.155  18.974  12.623
78257W        W49928  27.219   8.235   4.052
78258W        W49929   3.450  24.630  14.377
78259W        W49930  24.535  23.701   0.987
78260W        W49931  26.364  40.031  14.391
78261W        W49932  28.363  12.086  13.940
78262W        W49933   8.460  25.523   5.027
78263W        W49934  23.904   9.145  10.776
78264W        W49935  30.588  33.001   4.562
78265W        W49936  16.045  39.996   1.702
78266W        W49937  27.485  43.468   3.199
78267W        W49938  26.524  12.551  12.451
78268W        W49939  12.824  35.065   2.372
78269W        W49940   0.211   6.588   0.470
78270W        W49941   9.918  11.879  12.529
78271W        W49942  19.816  24.650   3.249
78272W        W49943  33.691  37.011   2.187
78273W        W49944  10.464   7.670  13.477
78274W        W49945   9.759  13.562  12.515
78275W        W49946  23.266  18.188   1.916
78276W        W49947   9.257   6.836   4.199
78277W        W49948  42.794  34.054   1.571
78278W        W49949  16.663   8.176  14.295
78279W        W49950   2.693  16.504   4.558
78280W        W49951   4.382  42.418   4.352
78281W        W49952   8.158  21.670  11.607
78282W        W49953   6.975  34.861   2.489
78283W        W49954   6.419  22.448  11.031
78284W        W49955  24.934  17.095   4.132
78285W        W49956   2.729  39.328   2.831
78286W        W49957  34.524  16.063  11.994
78287W        W49958  13.300   4.360  14.981
78288W        W49959  40.521   6.294   2.767
78289W        W49960  26.976  22.491  11.854
78290W        W49961  16.814  29.654   3.262
78291W        W49962  40.049  30.096  14.352
78292W        W49963  35.894  34.528  14.123
78293W        W49964  34.829  40.391   2.744
78294W        W49965  19.765  12.084   4.576
78295W        W49966   8.793   8.473  14.423
78296W        W49967  38.937  13.645   3.813
78297W        W49968  40.036   9.738   1.600
78298W        W49969  12.260   9.368  11.124
78299W        W49970   2.241   3.373  10.309
78300W        W49971  15.847  43.191   2.141
78301W        W49972  42.789  16.501   2.270
78302W        W49973  30.918  26.538  12.340
78303W        W49974   5.636  36.603  13.832
78304W        W49975   5.290  30.731   3.312
78305W        W49976  14.818  30.992   4.153
78306W        W49977   8.712  19.594   1.744
78307W        W49978  43.898  28.298   0.770
78308W        W49979  32.911  25.129   1.920
78309W        W49980  30.064  14.346   1.193
78310W        W49981  13.685  13.106   0.010
78311W        W49982  28.933  41.761  13.037
78312W        W49983   5.959  23.935  11.139
78313W        W49984  41.023  20.472   4.488
78314W        W49985  44.409  18.514   4.592
78315W        W49986  11.859   3.250  14.535
78316W        W49987  31.527  27.950  11.533
78317W        W49988  25.759  42.006  13.907
78318W        W49989  10.114  30.011  12.935
78319W        W49990  10.415  35.918  11.032
78320W        W49991   9.592  29.421   3.610
78321W        W49992  33.414  33.151  10.747
78322W        W49993   2.566   6.165   3.725
78323W        W49994  35.381  17.205  14.840
78324W        W49995  31.691   1.692  11.234
78325W        W49996  19.317  31.550   4.128
78326W        W49997  30.207   4.827   0.817
78327W        W49998  36.836  32.947   4.555
78328W        W49999  37.356  27.496   4.129
78329W        W50000  11.775  23.268   1.456
78330W        W50001  25.880  13.938  14.862
78331W        W50002  38.377  41.061   2.959
78332W        W50003  11.275  16.304  13.809
78333W        W50004  38.514  40.816  13.807
78334W        W50005  19.150   3.509   2.158
78335W        W50006  26.991  11.731  11.609
78336W        W50007  33.491  25.172  11.884
78337W        W50008  44.322  11.620  12.343
78338W        W50009  11.222  21.377   0.359
78339W        W50010  13.675   1.457  10.736
78340W        W50011  23.930  21.978  13.155
78341W        W50012  22.218  42.293   4.356
78342W        W50013  17.260  37.861   0.797
78343W        W50014  23.806  12.336   0.837
78344W        W50015  37.006  20.331  13.390
78345W        W50016   8.947  17.656  14.317
78346W        W50017   9.303   3.795   3.739
78347W        W50018  16.285  19.746   4.595
78348W        W50019  29.564  12.891  13.051
78349W        W50020  43.575  39.439   0.357
78350W        W50021  11.367  30.614   1.669
78351W        W50022  42.082  13.730  12.754
78352W        W50023   1.282  25.461  13.530
78353W        W50024  30.041  43.498   4.635
78354W        W50025   4.509   7.682   2.695
78355W        W50026  12.635  28.143   1.015
78356W        W50027  26.004  44.325   1.389
78357W        W50028  11.326   7.820   4.070
78358W        W50029   5.547   5.216  13.338
78359W        W50030  11.875   3.811  11.091
78360W        W50031   3.840   5.139   4.804
78361W        W50032  17.374  11.819  13.377
78362W        W50033  19.038   8.213  14.796
78363W        W50034   1.917  17.195   0.142
78364W        W50035  31.353  17.652  10.366
78365W        W50036  36.041  17.857  13.056
78366W        W50037  18.668  33.942  13.389
78367W        W50038   9.755  43.332  11.233
78368W        W50039   4.467   8.451  10.618
78369W        W50040  13.265  15.576   2.852
78370W        W50041   7.137   7.617  10.699
78371W        W50042   3.743  30.007  11.980
78372W        W50043   7.180  43.503  12.432
78373W        W50044  15.143  22.970   4.271
78374W        W50045  23.513   9.904   3.097
78375W        W50046   4.789  18.090   0.785
78376W        W50047  17.169  19.709   2.849
78377W        W50048   3.974  23.915  12.494
78378W        W50049  20.621  40.396  12.079
78379W        W50050   1.881  20.677   5.052
78380W        W50051  31.587  44.786   0.930
78381W        W50052   0.833  29.416  14.706
78382W        W50053  14.899  40.455  14.460
78383W        W50054  40.756  18.905  11.216
78384W        W50055  19.608  18.723   3.218
78385W        W50056   0.253  22.769  13.782
78386W        W50057  10.008  26.091   0.776
78387W        W50058  37.770   5.666  10.633
78388W        W50059  35.320  11.202  12.230
78389W        W50060  42.407   7.198   0.721
78390W        W50061   6.980  41.189   0.938
78391W        W50062   9.658  39.325   3.298
78392W        W50063   4.642  17.976   1.450
78393W        W50064   8.476   3.525   2.129
78394W        W50065  42.883   6.270   2.035
78395W        W50066  18.277  25.565  13.353
78396W        W50067  43.014  25.543  12.676
78397W        W50068  36.065  28.609   3.246
78398W        W50069  16.092   4.436  14.958
78399W        W50070  17.655  18.729  12.171
78400W        W50071   0.611  24.889  12.578
78401W        W50072  44.685  31.001  11.371
78402W        W50073  26.479  37.893   2.648
78403W        W50074  38.161  34.154  12.883
78404W        W50075   5.137  19.232  12.462
78405W        W50076  30.731   9.379   3.635
78406W        W50077  26.505   1.529  14.905
78407W        W50078  19.774  19.230   3.406
78408W        W50079  17.062  18.824  14.841
78409W        W50080  16.054  33.512   2.777
78410W        W50081  16.081  35.793   2.071
78411W        W50082  41.025  42.589   2.172
78412W        W50083  30.432  28.011  14.269
78413W        W50084  11.393  34.070   0.049
78414W        W50085  35.095  20.021   1.413
78415W        W50086  15.854  33.084   1.145
78416W        W50087  24.624  32.889  13.832
78417W        W50088  18.211  15.805   3.877
78418W        W50089   6.168  15.133   2.781
78419W        W50090  15.981  28.758  13.770
78420W        W50091   1.845  23.238  13.891
78421W        W50092  35.069  16.258   0.917
78422W        W50093  41.052   8.206  14.580
78423W        W50094  33.487  18.373   0.743
78424W        W50095   6.166   8.129   1.909
78425W        W50096   2.594  25.962  11.161
78426W        W50097  21.196  41.429   4.297
78427W        W50098  33.615  27.976  10.666
78428W        W50099   5.197  34.994  11.090
78429W        W50100   8.969  34.957  14.776
78430W        W50101   3.420  24.488   0.342
78431W        W50102  40.157  11.827   3.282
78432W        W50103  36.852  29.157  13.362
78433W        W50104  43.428  26.729   1.342
78434W        W50105   9.749  23.310   2.325
78435W        W50106  13.148  17.826   1.402
78436W        W50107   3.753  27.516   2.899
78437W        W50108   0.118  11.841   5.384
78438W        W50109  17.012  35.536  12.938
78439W        W50110  41.156  22.564   1.170
78440W        W50111  43.073  43.110  11.495
78441W        W50112  39.048  39.107  13.592
78442W        W50113  13.650  41.820  11.888
78443W        W50114   5.946  37.380   5.028
78444W        W50115  20.289   3.292   2.898
78445W        W50116  27.884  18.709   4.284
78446W        W50117  24.699  35.111  10.527
78447W        W50118  15.327  21.052  11.994
78448W        W50119  21.709  13.882   2.363
78449W        W50120  31.639   2.111  14.986
78450W        W50121  21.843  43.011  12.455
78451W        W50122  16.038   2.800  11.662
78452W        W50123   8.558  25.940  11.945
78453W        W50124   9.236  28.701  14.589
78454W        W50125  41.282  37.971   4.677
78455W        W50126  40.776  20.061  14.348
78456W        W50127  12.742  26.252   1.673
78457W        W50128  40.071  25.075   4.551
78458W        W50129   1.980   6.087  11.167
78459W        W50130  15.783  31.889   2.682
78460W        W50131   2.022   2.886   3.366
78461W        W50132  14.907  18.060   3.110
78462W        W50133   9.422  20.042  13.430
78463W        W50134  35.373  26.978   3.157
78464W        W50135  13.654   6.825   3.655
78465W        W50136   9.325  11.724   1.512
78466W        W50137   2.748  42.834  11.968
78467W        W50138  26.121  37.220  14.390
78468W        W50139  28.744  44.042   2.681
78469W        W50140  37.859   1.013   4.109
78470W        W50141   6.326  17.045   4.244
78471W        W50142  20.982  35.488  10.500
78472W        W50143  17.795   2.333  14.740
78473W        W50144  26.041   8.629  10.605
78474W        W50145   1.469   9.284  14.506
78475W        W50146  19.593  30.282  13.650
78476W        W50147  19.775  24.210  11.564
78477W        W50148  33.881  43.352  11.856
78478W        W50149   0.967   4.943  12.941
78479W        W50150  29.554  31.042  11.194
78480W        W50151   2.419   9.489   0.413
78481W        W50152  23.534   6.658   1.979
78482W        W50153  26.167  29.001  13.910
78483W        W50154  40.530   7.251   0.954
78484W        W50155   6.969  10.182  12.409
78485W        W50156  22.080  37.877   3.592
78486W        W50157   4.376  44.388  14.025
78487W        W50158   2.751  19.615  11.944
78488W        W50159   1.409   0.382   1.441
78489W        W50160  38.260  39.516  11.196
78490W        W50161   5.221  21.536   4.715
78491W        W50162  11.628   1.419  14.887
78492W        W50163  30.340  37.121   3.683
78493W        W50164   9.291  27.511   0.027
78494W        W50165  40.418  27.872   2.859
78495W        W50166   2.272   2.098  10.353
78496W        W50167   4.833   7.898   4.036
78497W        W50168   3.404  18.576   3.637
78498W        W50169  30.201  37.244  11.269
78499W        W50170   2.842  40.215  13.322
78500W        W50171  22.001  31.331   4.979
78501W        W50172   6.742  22.771  11.270
78502W        W50173  40.409   9.054  13.762
78503W        W50174  34.524  34.739   0.912
78504W        W50175   6.282  40.712  12.574
78505W        W50176  14.546  24.659   1.048
78506W        W50177   3.681   3.394  10.740
78507W        W50178  43.830  33.862  12.956
78508W        W50179  21.643   4.386   3.993
78509W        W50180   1.980  12.844   3.694
78510W        W50181  26.864  16.033  13.113
78511W        W50182  39.888  30.547   1.780
78512W        W50183  20.729  41.393   4.034
78513W        W50184  43.450  10.650   3.788
78514W        W50185   9.653  35.035  11.717
78515W        W50186  24.959   1.359   0.691
78516W        W50187   5.868  13.158   3.617
78517W        W50188  11.024   3.940  10.746
78518W        W50189  29.006   2.493   0.013
78519W        W50190  32.427   3.859  10.481
78520W        W50191  10.579  35.127  14.919
78521W        W50192  29.066   4.949   4.108
78522W        W50193  24.089  27.011   0.270
78523W        W50194  36.385  17.662   0.713
78524W        W50195  18.201  34.187  12.558
78525W        W50196  26.994  31.583   1.059
78526W        W50197  42.988  42.976  13.777
78527W        W50198  11.895  40.771   0.265
78528W        W50199  40.314   7.463   1.837
78529W        W50200   9.847  29.502   4.594
78530W        W50201  43.337  29.457   1.142
78531W        W50202  22.476  27.223   3.766
78532W        W50203  33.647   2.419  12.091
78533W        W50204   1.695  37.503   2.182
78534W        W50205  11.794  27.627  13.124
78535W        W50206  23.221  12.973   4.112
78536W        W50207  40.367  24.518  12.895
78537W        W50208   1.494  35.402   3.722
78538W        W50209  24.888  33.140   2.265
78539W        W50210  39.965   5.306   1.323
78540W        W50211   6.920  24.008   0.470
78541W        W50212  44.297  31.544  12.744
78542W        W50213  42.905   6.460   3.840
78543W        W50214  18.730  15.613  14.711
78544W        W50215  18.582  30.149   0.885
78545W        W50216   8.145  40.309  12.457
78546W        W50217  23.543  10.603   4.566
78547W        W50218  16.596   8.073  11.115
78548W        W50219   9.205  22.810   3.893
78549W        W50220   3.689  16.231  11.073
78550W        W50221   3.744   3.513   3.719
78551W        W50222  11.330  41.525  12.373
78552W        W50223  14.716  16.338   1.274
78553W        W50224   5.812  42.221  14.374
78554W        W50225   0.357  22.075   9.817
78555W        W50226  41.627  11.046  12.110
78556W        W50227  26.557   6.490   1.741
78557W        W50228  13.340  20.010   4.833
78558W        W50229   9.874   6.315   3.690
78559W        W50230   2.373   4.978  11.583
78560W        W50231  17.225   7.723  12.357
78561W        W50232  26.433  33.097   2.314
78562W        W50233  23.485  41.410   0.686
78563W        W50234  11.236  15.432  14.870
78564W        W50235  22.728  29.592  11.558
78565W        W50236   2.065  39.226  11.623
78566W        W50237   7.248   7.339   4.058
78567W        W50238  30.404  38.822  11.628
78568W        W50239  22.835  35.986  11.309
78569W        W50240  21.344  14.669  12.407
78570W        W50241  20.518  35.368  14.374
78571W        W50242   4.975  31.075   3.736
78572W        W50243  39.312   9.317  13.941
78573W        W50244  27.288  21.697  14.905
78574W        W50245   6.226  30.357  11.140
78575W        W50246   0.303  31.620   3.097
78576W        W50247  40.839   4.304  14.770
78577W        W50248  19.265  42.302  10.776
78578W        W50249  34.714   5.926   0.887
78579W        W50250  18.640  15.334  11.192
78580W        W50251   2.904  14.131  11.870
78581W        W50252  31.512  35.933   2.385
78582W        W50253  11.881  12.173  13.554
78583W        W50254  20.779   0.473  12.192
78584W        W50255  11.683   7.919   4.486
78585W        W50256   2.389  15.177  11.563
78586W        W50257  23.114  22.208   0.292
78587W        W50258  30.241  32.098  14.270
78588W        W50259  22.612   8.939  14.862
78589W        W50260  31.079   2.983   4.118
78590W        W50261  43.368  11.757  13.618
78591W        W50262  34.968   6.115  13.448
78592W        W50263  38.788  16.456  12.053
78593W        W50264  42.112   2.508  10.544
78594W        W50265  10.748  19.222   3.886
78595W        W50266  12.757   2.978   2.761
78596W        W50267  15.646  39.059   1.828
78597W        W50268   6.875  21.724   0.888
78598W        W50269  20.750   8.654   4.991
78599W        W50270  10.360  35.102   3.221
78600W        W50271  29.024   7.319   0.905
78601W        W50272   9.710   6.847   1.388
78602W        W50273  14.323   4.267  14.561
78603W        W50274  40.612  15.160   3.959
78604W        W50275  43.505  23.054  13.899
78605W        W50276  22.523  24.171  13.579
78606W        W50277  29.546  42.062   3.394
78607W        W50278  36.462  27.765   4.176
78608W        W50279  21.636  13.357   3.924
78609W        W50280  28.834   9.081   4.552
78610W        W50281  14.164  40.943   3.446
78611W        W50282  36.980  27.770  13.396
78612W        W50283  43.809  29.854   4.113
78613W        W50284  34.361  19.242  14.353
78614W        W50285  20.204  24.679   3.649
78615W        W50286  10.957  14.104   1.945
78616W        W50287  30.361  42.277  13.992
78617W        W50288  18.463  42.714  12.868
78618W        W50289   5.308  28.981  11.064
78619W        W50290   0.040  31.791   4.260
78620W        W50291  39.841  12.863   1.801
78621W        W50292  24.484  15.093   0.430
78622W        W50293   8.823  18.653  14.694
78623W        W50294  33.158  35.029  13.902
78624W        W50295  18.809  23.953   2.260
78625W        W50296  37.412  42.361  12.516
78626W        W50297  32.599  33.546  14.494
78627W        W50298  10.627  20.797   4.761
78628W        W50299  33.036  15.107   3.694
78629W        W50300  18.929   0.067   1.271
78630W        W50301  16.207   8.289  14.508
78631W        W50302  11.649  20.090   3.137
78632W        W50303  38.069  37.319   2.820
78633W        W50304  14.182  32.524  13.793
78634W        W50305   3.338  40.710   0.071
78635W        W50306  32.641  32.451   4.395
78636W        W50307  14.867  14.126  10.976
78637W        W50308  11.921  35.874   2.298
78638W        W50309   3.647  43.809   4.305
78639W        W50310  36.536   1.359  10.940
78640W        W50311  14.109  40.428  10.682
78641W        W50312   4.143  27.545  10.941
78642W        W50313  23.700  10.600   1.528
78643W        W50314   4.181   1.680   0.699
78644W        W50315  11.315  27.528   3.372
78645W        W50316  15.249   4.320  10.126
78646W        W50317  29.405  17.036   1.386
78647W        W50318  39.325  29.495   4.112
78648W        W50319  39.533  12.273   3.397
78649W        W50320  22.626  12.720  13.480
78650W        W50321  22.710  44.452  11.488
78651W        W50322  15.273  38.829   4.668
78652W        W50323  30.467   8.141  11.221
78653W        W50324  20.805  13.153   4.292
78654W        W50325  37.333   8.305   2.361
78655W        W50326  33.016  22.350  14.669
78656W        W50327  11.872  33.988   4.244
78657W        W50328  34.454   4.199   3.041
78658W        W50329  27.397  30.668   3.082
78659W        W50330   9.285   3.398   2.441
78660W        W50331   4.353  20.657  10.671
78661W        W50332  17.517  38.002   4.902
78662W        W50333  11.448  19.194   0.780
78663W        W50334  40.041   9.215   1.890
78664W        W50335  29.946  31.381  13.600
78665W        W50336  16.302  32.977  12.523
78666W        W50337  18.175   3.935  13.533
78667W        W50338  40.376  31.144  12.246
78668W        W50339  26.000  31.573   1.271
78669W        W50340  23.611  40.550  14.914
78670W        W50341  40.504  36.150  12.030
78671W        W50342  26.574   4.320  14.455
78672W        W50343   1.849  16.051  11.611
78673W        W50344  12.307   5.790  14.498
78674W        W50345  41.261  29.999  11.881
78675W        W50346  37.870  44.284   3.385
78676W        W50347  18.113  22.748  12.270
78677W        W50348   0.196   8.710  13.529
78678W        W50349  32.963  34.095   3.014
78679W        W50350  24.180  41.956   0.276
78680W        W50351  22.678   6.410  14.982
78681W        W50352  28.485  16.175  12.961
78682W        W50353   3.910  11.795  11.476
78683W        W50354   0.539  40.427   4.448
78684W        W50355  32.996   1.259  14.783
78685W        W50356  38.852  30.841  14.119
78686W        W50357  20.058   6.964   1.449
78687W        W50358   7.751  15.671   2.144
78688W        W50359  29.076  29.543   4.182
78689W        W50360  18.019  39.404  11.321
78690W        W50361  42.708  36.356  14.310
78691W        W50362  38.188  16.090   1.549
78692W        W50363   6.939  43.408  11.137
78693W        W50364  20.237  39.946   4.175
78694W        W50365   4.914  15.609  11.085
78695W        W50366   7.759  15.653   0.736
78696W        W50367  17.587  10.898   0.892
78697W        W50368  11.605  40.982  14.322
78698W        W50369  22.026   7.684   3.190
78699W        W50370  26.502  32.526   4.659
78700W        W50371  33.030  38.475   1.392
78701W        W50372  20.294  25.534   3.257
78702W        W50373  40.861   3.424   3.737
78703W        W50374   9.216   1.440   1.019
78704W        W50375  25.986  36.105  13.449
78705W        W50376  19.138  16.154   4.189
78706W        W50377  26.411  37.854   3.530
78707W        W50378  27.552  35.566   2.250
78708W        W50379  10.557  33.332   0.021
78709W        W50380   3.347  40.503   0.577
78710W        W50381  17.085   7.116   3.296
78711W        W50382  37.487  38.922   3.362
78712W        W50383   8.383  40.057  12.050
78713W        W50384  24.827  38.945   0.795
78714W        W50385  29.683   4.313  12.657
78715W        W50386  28.374   4.830  12.108
78716W        W50387  15.492  43.309  11.285
78717W        W50388  24.680  36.329   0.798
78718W        W50389   3.875  25.556   0.368
78719W        W50390  37.538  34.228  10.654
78720W        W50391  32.104   4.943   3.330
78721W        W50392  21.663  11.296  11.938
78722W        W50393  31.518  26.665   4.147
78723W        W50394   8.613   9.747   2.597
78724W        W50395  28.749  23.503   0.657
78725W        W50396  27.199  40.912   3.907
78726W        W50397  13.239  37.840   4.065
78727W        W50398   2.550  44.432  13.927
78728W        W50399  17.232  13.408  12.097
78729W        W50400  10.416   2.693   1.322
78730W        W50401  13.707  22.489  13.999
78731W        W50402  23.603   5.251  14.692
78732W        W50403   4.406   1.335  14.423
78733W        W50404  40.343  14.358   4.234
78734W        W50405  44.962  28.735   0.779
78735W        W50406  38.907  27.184  11.716
78736W        W50407  17.695  17.876   0.861
78737W        W50408  30.179   1.142  12.827
78738W        W50409  25.587   7.795  14.135
78739W        W50410   3.217  17.406   0.172
78740W        W50411   9.307  42.855  11.818
78741W        W50412  37.414  39.845   4.460
78742W        W50413  22.727   3.658  11.095
78743W        W50414   5.683  27.545   4.594
78744W        W50415  10.412  31.464   2.684
78745W        W50416  37.346   6.853   2.937
78746W        W50417  29.465  27.053   1.326
78747W        W50418  29.604  40.817   1.067
78748W        W50419  28.701  31.547  14.865
78749W        W50420  15.215  15.278   1.743
78750W        W50421  38.398  20.731   4.662
78751W        W50422   1.364   0.868   4.131
78752W        W50423   3.936   4.300   1.864
78753W        W50424  32.404  18.731  13.815
78754W        W50425  13.886   0.449  10.756
78755W        W50426  26.342  15.578  12.490
78756W        W50427  13.569   0.814  11.175
78757W        W50428   1.756  16.163  12.955
78758W        W50429   8.829  11.144  14.314
78759W        W50430  11.682  12.149  14.507
78760W        W50431   7.893  11.882  11.955
78761W        W50432  12.847  13.762   3.896
78762W        W50433   1.939  21.998  13.819
78763W        W50434  12.216   0.708   2.626
78764W        W50435  14.067  25.902   2.799
78765W        W50436  33.681  22.298  11.633
78766W        W50437  14.117  40.008   2.677
78767W        W50438  20.422  13.990   2.800
78768W        W50439   9.970  38.583  11.509
78769W        W50440  29.514   5.450  14.236
78770W        W50441  18.844  18.131   0.829
78771W        W50442  26.132  26.970  14.706
78772W        W50443  11.760  22.135   4.539
78773W        W50444  35.409  29.684   0.228
78774W        W50445  20.005  16.654  11.784
78775W        W50446  22.526  43.830   4.637
78776W        W50447  42.122  17.987   4.859
78777W        W50448  37.179   1.694  10.354
78778W        W50449  16.720  28.973   4.637
78779W        W50450  25.786  42.448   4.955
78780W        W50451  24.114  43.942   1.856
78781W        W50452  17.202  15.430   4.709
78782W        W50453  11.680  10.794   0.279
78783W        W50454  18.210  12.527   2.129
78784W        W50455  24.727  26.691   4.122
78785W        W50456  26.484  38.984  10.727
78786W        W50457  40.478  31.398  12.702
78787W        W50458  43.088  28.523  11.103
78788W        W50459  39.963  12.152   0.448
78789W        W50460  10.585   9.225  14.776
78790W        W50461  37.033  35.996  11.557
78791W        W50462  23.942  27.703   3.707
78792W        W50463  39.075  10.161   0.425
78793W        W50464  16.371  37.482  10.688
78794W        W50465  33.007   6.852  13.016
78795W        W50466   6.754  16.146   2.322
78796W        W50467  40.049  22.008  13.485
78797W        W50468   1.228  20.534  10.559
78798W        W50469  25.283  38.490  14.799
78799W        W50470  21.424  26.979  10.531
78800W        W50471  28.551  14.816   2.161
78801W        W50472  30.858  13.667  12.520
78802W        W50473  21.901   1.356  10.470
78803W        W50474  11.323   1.013  14.425
78804W        W50475  24.058  22.497  12.090
78805W        W50476   1.021  30.539   3.786
78806W        W50477  39.189  20.093   0.278
78807W        W50478   1.691  20.026   3.284
78808W        W50479  37.839  32.705  12.056
78809W        W50480  30.419   2.003  12.594
78810W        W50481   5.381  28.366   1.907
78811W        W50482  17.922   8.112  11.898
78812W        W50483  14.784  18.551   1.665
78813W        W50484   5.302  17.141   4.141
78814W        W50485  37.091   8.368   3.239
78815W        W50486   2.241  39.139   2.736
78816W        W50487  38.279  28.599   4.168
78817W        W50488  32.995  38.100  13.994
78818W        W50489  27.594  16.630  13.957
78819W        W50490   2.989  16.089   1.739
78820W        W50491  32.407  11.306  12.862
78821W        W50492  15.358   8.961   1.831
78822W        W50493  37.119  10.773   3.353
78823W        W50494  14.807  24.604   2.088
78824W        W50495  27.298  35.933  12.003
78825W        W50496   6.819  39.433   4.541
78826W        W50497  37.049  36.771  14.966
78827W        W50498  17.088  12.731  10.695
78828W        W50499  38.400   9.232   2.738
78829W        W50500  44.649  42.958   1.983
78830W        W50501  18.276  15.859   2.267
78831W        W50502  22.756  13.504  12.562
78832W        W50503  34.667   2.456   1.744
78833W        W50504   9.887  15.771   0.968
78834W        W50505  14.254  38.858   0.762
78835W        W50506  44.943   5.243  11.598
78836W        W50507   8.854  23.255  13.312
78837W        W50508   5.816  38.116  12.920
78838W        W50509  34.809  12.754   3.182
78839W        W50510  41.369  27.695   4.852
78840W        W50511   6.217  43.499  12.507
78841W        W50512  33.530   0.551   3.294
78842W        W50513   8.870  37.236   3.714
78843W        W50514   6.847   9.814  10.731
78844W        W50515  12.605  37.919  14.840
78845W        W50516   5.627  18.930   3.908
78846W        W50517  31.465   5.943  14.937
78847W        W50518  36.315  15.640  14.398
78848W        W50519   3.465   9.625   2.679
78849W        W50520  28.054  40.937   3.324
78850W        W50521  26.420   8.872   4.963
78851W        W50522   1.299  10.904   2.227
78852W        W50523  39.464  28.421  12.146
78853W        W50524  12.893  17.875  13.269
78854W        W50525   4.219  30.755   2.810
78855W        W50526  31.393  20.007   2.254
78856W        W50527  40.530   0.998  10.429
78857W        W50528  15.196  26.478   1.331
78858W        W50529   2.810   6.004  11.660
78859W        W50530  39.785  32.826  14.899
78860W        W50531  39.740  30.041   3.715
78861W        W50532  21.988   2.062  14.968
78862W        W50533  32.776  16.045  13.474
78863W        W50534  14.234  24.158  11.188
78864W        W50535  12.918  26.423   2.426
78865W        W50536  29.100   5.532  12.802
78866W        W50537  11.107  12.685   1.656
78867W        W50538  21.767  12.338  13.342
78868W        W50539  13.161   1.934  14.368
78869W        W50540  22.023  28.733   0.754
78870W        W50541  36.005  30.998  12.152
78871W        W50542  35.332  24.481  10.737
78872W        W50543  41.971  34.422  11.622
78873W        W50544  35.610  20.053   3.571
78874W        W50545  12.709   1.369  13.827
78875W        W50546  13.838  28.218  12.715
78876W        W50547  29.448  15.626  12.591
78877W        W50548  11.392  38.323   0.821
78878W        W50549  34.374  30.994  14.422
78879W        W50550  20.699  37.335   3.956
78880W        W50551  12.406  42.595  11.026
78881W        W50552  33.401   8.667  14.920
78882W        W50553  40.502  39.344   2.440
78883W        W50554  35.531  13.796   1.277
78884W        W50555  36.421  40.308  10.211
78885W        W50556  35.529  24.517   1.751
78886W        W50557  11.715  14.422   0.845
78887W        W50558  26.188  32.479  12.028
78888W        W50559  15.112  40.512  10.629
78889W        W50560  29.944  31.370  11.506
78890W        W50561  33.146  35.477  10.521
78891W        W50562  34.871  21.162  11.544
78892W        W50563  19.564  34.602  13.944
78893W        W50564  19.289  25.373  11.061
78894W        W50565  26.411  32.411  10.899
78895W        W50566  36.830   6.828   3.672
78896W        W50567  14.765  40.867   0.663
78897W        W50568   5.202  44.136  10.419
78898W        W50569   4.663   0.264  14.110
78899W        W50570   5.096  33.946  14.584
78900W        W50571  11.767  34.625  13.492
78901W        W50572  38.419  20.278   0.270
78902W        W50573   2.224  33.908  11.151
78903W        W50574  12.748  30.094  10.684
78904W        W50575   3.508   8.804  14.952
78905W        W50576  16.272  24.772  11.947
78906W        W50577   1.734  22.642   2.477
78907W        W50578  30.440  35.803  10.744
78908W        W50579  36.953  13.789  12.612
78909W        W50580  41.447  18.074   2.203
78910W        W50581  23.945  15.767   4.878
78911W        W50582  24.199  14.911  13.799
78912W        W50583  34.157   9.387  12.151
78913W        W50584  25.948  24.507  10.677
78914W        W50585  37.852  43.921   4.761
78915W        W50586  21.161  32.848   4.668
78916W        W50587  19.741   4.222   2.697
78917W        W50588   2.824  34.052   0.387
78918W        W50589  14.572   2.827   3.082
78919W        W50590  33.522  36.028   0.286
78920W        W50591  21.750  13.689  12.621
78921W        W50592  40.944   1.208   4.298
78922W        W50593  34.561  24.533   4.612
78923W        W50594  33.107  24.085  11.801
78924W        W50595  19.143  23.523  14.418
78925W        W50596  10.101   8.645   4.249
78926W        W50597  26.023  41.599  12.082
78927W        W50598   4.370  31.029   3.585
78928W        W50599  38.277   0.739  14.002
78929W        W50600  15.744   7.152   4.542
78930W        W50601  21.334  12.423   3.305
78931W        W50602  31.693  13.275   2.010
78932W        W50603  31.045  37.395   0.645
78933W        W50604  33.482  10.447   0.467
78934W        W50605  35.777  26.540  13.903
78935W        W50606  39.882  37.864  13.233
78936W        W50607  40.762  44.856   0.956
78937W        W50608  27.649   0.174   1.853
78938W        W50609   8.505  36.819   3.697
78939W        W50610   2.288  39.637  14.400
78940W        W50611  37.485  36.690   2.696
78941W        W50612  38.732  13.490   2.842
78942W        W50613  24.668  20.050  13.868
78943W        W50614  16.997  19.847  14.818
78944W        W50615   6.248   0.775   1.007
78945W        W50616  17.734  36.354   3.824
78946W        W50617  16.119  31.555  10.780
78947W        W50618  22.737   6.201   3.317
78948W        W50619   2.645  38.824   2.716
78949W        W50620  22.595  27.429  10.679
78950W        W50621  39.737  28.843   1.418
78951W        W50622   5.659  27.629  12.606
78952W        W50623   4.534   0.067  12.608
78953W        W50624  26.687  28.399   0.063
78954W        W50625  28.373  15.332   4.624
78955W        W50626  40.037   4.494  13.080
78956W        W50627   6.148  36.731  13.128
78957W        W50628  15.812  18.264  13.368
78958W        W50629  11.428  16.288   4.008
78959W        W50630  41.582  40.912   1.733
78960W        W50631  27.173  15.315   2.833
78961W        W50632  18.996  39.288   1.005
78962W        W50633  11.147  31.675  14.911
78963W        W50634  23.703  15.079   3.800
78964W        W50635   2.797  42.944  14.503
78965W        W50636   0.875  32.417   0.034
78966W        W50637  39.410  24.831  11.062
78967W        W50638  18.037  21.665  11.433
78968W        W50639  36.549  10.004   5.117
78969W        W50640  19.128  24.500   5.131
78970W        W50641   8.658  35.882  13.344
78971W        W50642  43.365  25.475   0.777
78972W        W50643  42.868   8.373  14.406
78973W        W50644  35.557   7.684   2.315
78974W        W50645  13.735  12.599   0.200
78975W        W50646  43.077  22.554  10.694
78976W        W50647  18.733  43.984  12.374
78977W        W50648  37.006   5.469  12.433
78978W        W50649  26.548  16.307  14.465
78979W        W50650  30.293  10.080   0.257
78980W        W50651  21.098  19.492  11.833
78981W        W50652  25.411  35.631  14.853
78982W        W50653  28.617  30.580  12.942
78983W        W50654  11.409  32.511   1.880
78984W        W50655  20.509  15.527  14.522
78985W        W50656  10.335  43.670  12.160
78986W        W50657  32.617   3.398   4.527
78987W        W50658  38.874  15.451  13.683
78988W        W50659  43.920  28.487   1.253
78989W        W50660  16.824  35.027   1.361
78990W        W50661   6.724   5.150   0.861
78991W        W50662  16.600  24.012   0.739
78992W        W50663  16.708  12.891   2.728
78993W        W50664  37.835  39.630   3.672
78994W        W50665  20.826  25.590  12.639
78995W        W50666  40.120   2.262  11.656
78996W        W50667  30.112  25.543   2.825
78997W        W50668  32.388  32.615  13.600
78998W        W50669   3.341  32.973   3.202
78999W        W50670  26.814  11.243  11.682
79000W        W50671   8.414  16.803  14.819
79001W        W50672  39.145  13.890   4.209
79002W        W50673   4.938  43.564   0.358
79003W        W50674  38.013  15.666  14.742
79004W        W50675  17.665  13.893   2.635
79005W        W50676   7.598  18.574  13.384
79006W        W50677  13.279  36.433  13.158
79007W        W50678  14.349  11.225   4.200
79008W        W50679  28.147  31.428   3.497
79009W        W50680  16.306  13.767  13.862
79010W        W50681  21.159  12.331  13.824
79011W        W50682  14.764  16.463  12.614
79012W        W50683  21.433  23.163  14.034
79013W        W50684  15.608  40.161  14.927
79014W        W50685   1.025  44.761  12.584
79015W        W50686  18.859  16.774  12.508
79016W        W50687  18.326  20.312   2.934
79017W        W50688  34.646  19.519   0.555
79018W        W50689   8.447  28.475  12.384
79019W        W50690  25.609   7.289   3.246
79020W        W50691  22.074  10.406   4.618
79021W        W50692  42.730  35.848   0.806
79022W        W50693  10.244   9.367   2.386
79023W        W50694  31.032  30.440  12.047
79024W        W50695   2.479  26.693  12.921
79025W        W50696  30.948  44.263  10.555
79026W        W50697  14.512  42.883   1.914
79027W        W50698  38.965  15.351  10.749
79028W        W50699  21.403  15.019   5.008
79029W        W50700  11.558   0.869  14.874
79030W        W50701  11.858  21.448   0.796
79031W        W50702  15.865  30.468  14.815
79032W        W50703  24.468   7.158   0.263
79033W        W50704   4.684  39.806   1.360
79034W        W50705  37.735  43.160  14.502
79035W        W50706  33.327  13.366  13.655
79036W        W50707  34.524  19.066   0.790
79037W        W50708  19.147  42.110   4.137
79038W        W50709  26.057  17.018  11.579
79039W        W50710  24.574  25.504  10.686
79040W        W50711  42.757  20.596  14.420
79041W        W50712   6.345   4.350  14.358
79042W        W50713  20.689  30.454   0.939
79043W        W50714  33.246  34.148  12.502
79044W        W50715  40.860  17.791   0.002
79045W        W50716  23.119  34.308  12.019
79046W        W50717  10.772  22.697  13.341
79047W        W50718  17.269   1.184  10.458
79048W        W50719   8.721  37.383  10.599
79049W        W50720  29.458   0.259  12.052
79050W        W50721   8.954  12.376   3.419
79051W        W50722  22.626  25.042   1.838
79052W        W50723  21.145   4.313  12.091
79053W        W50724  10.741  39.153  13.635
79054W        W50725  36.965  40.377  12.340
79055W        W50726  30.080  21.730  13.118
79056W        W50727  32.775  28.538   2.248
79057W        W50728  19.159   1.282  13.735
79058W        W50729  21.274   4.196  12.589
79059W        W50730  37.064  27.627   4.961
79060W        W50731  35.953  26.399   3.909
79061W        W50732   3.269  33.686   4.047
79062W        W50733   3.017  10.603  12.791
79063W        W50734  10.896  23.087   4.627
79064W        W50735  32.968  28.071   3.617
79065W        W50736  27.017  15.235   0.473
79066W        W50737  43.523  31.460  13.928
79067W        W50738   0.699  29.076   0.537
79068W        W50739   2.454  19.196  13.949
79069W        W50740  39.909   2.505  14.539
79070W        W50741  31.669  28.172  11.103
79071W        W50742   6.797   2.557  14.049
79072W        W50743   9.108  32.410  14.525
79073W        W50744  39.538  36.775  11.187
79074W        W50745  30.170   5.481  13.889
79075W        W50746   7.101  23.968  12.971
79076W        W50747  20.517  44.775   0.382
79077W        W50748  10.048  34.286  14.010
79078W        W50749   6.267  32.371   3.717
79079W        W50750   0.070   3.142  13.967
79080W        W50751  41.976  38.832  14.840
79081W        W50752  38.954  24.096   1.830
79082W        W50753  37.538  34.139   0.004
79083W        W50754  13.877  31.259  10.306
79084W        W50755  11.764  44.854   4.096
79085W        W50756  24.544  19.999  10.573
79086W        W50757   3.390  19.329  13.718
79087W        W50758  32.765  33.870   4.774
79088W        W50759  18.549   5.127   1.802
79089W        W50760  27.510   0.403  13.464
79090W        W50761  10.837   5.922   1.216
79091W        W50762   3.452  19.489   1.370
79092W        W50763   4.095  12.608   3.434
79093W        W50764  15.037  32.308   2.657
79094W        W50765  23.251  25.186   4.614
79095W        W50766  15.173  33.740  13.400
79096W        W50767  42.925  17.313  11.508
79097W        W50768  22.107  21.661   4.170
79098W        W50769  24.688  23.084   1.547
79099W        W50770  22.889  28.283  10.785
79100W        W50771  28.028  13.908  10.593
79101W        W50772  40.416  36.669  10.714
79102W        W50773  22.902  14.577   0.455
79103W        W50774   0.532   6.814  11.616
79104W        W50775  25.265  27.908   2.048
79105W        W50776  18.050  14.738  11.479
79106W        W50777  42.354  25.888  13.874
79107W        W50778  30.964  38.452   0.802
79108W        W50779   1.383  22.538  14.287
79109W        W50780  23.354  21.999  11.088
79110W        W50781   7.042   8.022   2.397
79111W        W50782  20.880   2.761   2.391
79112W        W50783  28.735   8.284   4.799
79113W        W50784   4.324  29.615   2.342
79114W        W50785  38.808   7.243   1.972
79115W        W50786  26.103  25.575  12.414
79116W        W50787  21.971  36.120  11.180
79117W        W50788  23.174  35.572  10.770
79118W        W50789  44.238  42.970   3.178
79119W        W50790  20.725  37.241   4.887
79120W        W50791  29.791  27.063  13.514
79121W        W50792  43.054  25.525  11.629
79122W        W50793  32.470  37.373   3.417
79123W        W50794  19.338  11.335   2.852
79124W        W50795  24.696  13.520   0.885
79125W        W50796  11.927  13.561   0.441
79126W        W50797  23.491  26.110  11.152
79127W        W50798  39.910   8.885  13.584
79128W        W50799  17.864  30.405  12.070
79129W        W50800  36.507  38.801   3.685
79130W        W50801  44.569   4.349  10.266
79131W        W50802  13.710  34.344  11.526
79132W        W50803  12.294  21.537  11.632
79133W        W50804  13.201   0.544   4.647
79134W        W50805  41.331  24.055   2.269
79135W        W50806  36.891  28.888  12.377
79136W        W50807  12.097  10.875   1.858
79137W        W50808  44.514   2.718   4.431
79138W        W50809   3.978  29.045   1.884
79139W        W50810  24.483  42.831  11.500
79140W        W50811   6.507  38.986  11.943
79141W        W50812  15.341  12.307  11.715
79142W        W50813   5.785  37.339  13.331
79143W        W50814  36.032  32.847  12.607
79144W        W50815  43.455  32.219  12.380
79145W        W50816  29.018  28.458  11.589
79146W        W50817  41.329   2.917   2.667
79147W        W50818  18.140   4.833  12.624
79148W        W50819  16.680  24.242  12.565
79149W        W50820  20.138   3.858   1.232
79150W        W50821  21.753  26.623  12.066
79151W        W50822  28.434  20.453   4.448
79152W        W50823  39.377  24.050   3.683
79153W        W50824   4.231  43.272  12.727
79154W        W50825  29.084  24.242  12.968
79155W        W50826  14.563  21.613   4.579
79156W        W50827  26.202  23.033   4.349
79157W        W50828  26.089  42.035   0.200
79158W        W50829  17.785  28.271   2.252
79159W        W50830   4.751  29.970   4.502
79160W        W50831   0.825  22.446   1.937
79161W        W50832   8.342  11.275  10.645
79162W        W50833  16.320   9.494   0.612
79163W        W50834  19.117  14.695  11.571
79164W        W50835  30.524  10.899  13.309
79165W        W50836   5.710  34.905   3.253
79166W        W50837   6.206  37.221  14.444
79167W        W50838  44.720  30.002   0.250
79168W        W50839  26.656  25.254  13.393
79169W        W50840  23.506  25.005   3.138
79170W        W50841  42.430  28.950  13.809
79171W        W50842  44.863  13.093   0.926
79172W        W50843  18.010  12.712   3.096
79173W        W50844  24.203   8.619  12.987
79174W        W50845  18.887  21.025   4.320
79175W        W50846   4.237  10.467   4.357
79176W        W50847  42.824  25.373  14.462
79177W        W50848   4.912  24.448  11.024
79178W        W50849  36.453  31.471  12.909
79179W        W50850  37.806  22.094   3.683
79180W        W50851  21.591  34.707  11.652
79181W        W50852  13.855  24.068   4.766
79182W        W50853  10.334  15.694  13.504
79183W        W50854  14.116  39.110   3.638
79184W        W50855  10.885  37.942   3.367
79185W        W50856  21.832  15.118  12.129
79186W        W50857  10.225  20.978   1.483
79187W        W50858  40.626  29.670  10.987
79188W        W50859  44.820  21.936   4.764
79189W        W50860  15.328  33.392   5.093
79190W        W50861  11.681  21.476   3.359
79191W        W50862   4.426   6.908   4.188
79192W        W50863  34.935  18.683   1.361
79193W        W50864   2.374  43.229  10.647
79194W        W50865  17.597  24.204   3.562
79195W        W50866  16.063  14.367   1.572
79196W        W50867   3.362   3.158   0.516
79197W        W50868  13.565  24.853   3.812
79198W        W50869  33.089  20.063   0.417
79199W        W50870  20.011  39.846  12.520
79200W        W50871  39.837  42.978  10.702
79201W        W50872  33.628  10.777  10.783
79202W        W50873  37.826   6.698  12.827
79203W        W50874  36.496   9.137   0.372
79204W        W50875   5.434   6.002   1.744
79205W        W50876  21.883  27.284  14.666
79206W        W50877  31.361  30.941  14.786
79207W        W50878  41.589   1.023  11.707
79208W        W50879  30.526  23.409   3.613
79209W        W50880  16.555  25.703   3.320
79210W        W50881  38.387   5.231   2.628
79211W        W50882  41.119   0.880   0.031
79212W        W50883   8.900  21.946   3.760
79213W        W50884  40.062   8.169   4.531
79214W        W50885  25.178   4.866  11.193
79215W        W50886  27.411   4.512  12.023
79216W        W50887  35.322   5.387  12.962
79217W        W50888   5.391  11.285  13.609
79218W        W50889   1.927   8.286  11.647
79219W        W50890   1.971   3.270   1.202
79220W        W50891  20.627  34.108   1.579
79221W        W50892  20.523  13.779   3.272
79222W        W50893  10.157  19.978   2.261
79223W        W50894  43.239  25.569  14.728
79224W        W50895  14.971  20.793  13.699
79225W        W50896  35.553   9.269   1.462
79226W        W50897  25.221  41.821   5.151
79227W        W50898  22.965   4.005   4.136
79228W        W50899  29.054  22.585  12.164
79229W        W50900  42.669  25.072   1.710
79230W        W50901   7.497  20.074  14.060
79231W        W50902  29.463  11.772  12.878
79232W        W50903  13.625  38.841  11.715
79233W        W50904  20.293   2.890   3.244
79234W        W50905  18.925  18.484   2.308
79235W        W50906   9.672   1.945   4.639
79236W        W50907  41.977  39.780  11.467
79237W        W50908  11.354   6.994   3.495
79238W        W50909  23.996  41.570  12.964
79239W        W50910  20.656  24.653  13.505
79240W        W50911  27.611   8.674   0.889
79241W        W50912   8.800  14.538  10.676
79242W        W50913   4.523  13.337  11.801
79243W        W50914   8.845  16.231   0.417
79244W        W50915  36.618   4.815   3.725
79245W        W50916   3.205   1.049   0.419
79246W        W50917  21.720  13.015   0.487
79247W        W50918  44.782   1.499   0.366
79248W        W50919  10.868   5.708  11.532
79249W        W50920  42.531   0.685   2.255
79250W        W50921  35.465   3.370  10.189
79251W        W50922  43.836  19.504  13.280
79252W        W50923  32.488   2.760   4.290
79253W        W50924  38.331  41.319  13.850
79254W        W50925  42.534  10.139  13.920
79255W        W50926  32.026  39.452  13.367
79256W        W50927  17.490   4.769   5.231
79257W        W50928  11.923   9.338   2.776
79258W        W50929   5.596  27.452   0.925
79259W        W50930   5.192  43.820   3.417
79260W        W50931  13.818  25.643   1.367
79261W        W50932  11.208  14.833   3.180
79262W        W50933  32.491   0.962   1.508
79263W        W50934  32.425  16.918  13.639
79264W        W50935  42.236  30.448   0.840
79265W        W50936  30.104  22.036   3.224
79266W        W50937  10.216  13.545   3.779
79267W        W50938   5.222  14.619   4.950
79268W        W50939  32.378  33.939   0.808
79269W        W50940   2.307   7.368   4.648
79270W        W50941  13.413   2.798  14.402
79271W        W50942  39.475  35.471   2.397
79272W        W50943   5.126  43.515  11.529
79273W        W50944   9.408  22.908  12.625
79274W        W50945  32.412  23.612  14.485
79275W        W50946  28.615  11.230   3.757
79276W        W50947   7.991   7.206   3.193
79277W        W50948  40.473   6.449   1.905
79278W        W50949  41.546  44.906   3.071
79279W        W50950  30.368  43.771   0.693
79280W        W50951  33.546  10.387   0.982
79281W        W50952   9.899   5.356  12.910
79282W        W50953   8.238   4.184  10.501
79283W        W50954  11.161  26.216  14.836
79284W        W50955   1.951  32.873   3.174
79285W        W50956   3.831  18.802   2.253
79286W        W50957  26.102  22.971  10.740
79287W        W50958   5.480  15.256  12.059
79288W        W50959  28.138   3.624   2.750
79289W        W50960  14.087  19.215  10.342
79290W        W50961  35.486  42.884   0.950
79291W        W50962  14.890  14.783  14.275
79292W        W50963   0.878  11.735   2.748
79293W        W50964   2.409  37.385  14.334
79294W        W50965  23.761  22.860   0.282
79295W        W50966  16.090  24.591   1.434
79296W        W50967   3.480  25.093  11.182
79297W        W50968  18.019   0.067   1.617
79298W        W50969   0.706  44.951  10.624
79299W        W50970   8.382  18.742   0.435
79300W        W50971  13.059  30.926  12.464
79301W        W50972  36.185  15.009  14.823
79302W        W50973  42.614  35.934   2.677
79303W        W50974  21.206  15.730   4.770
79304W        W50975   2.432  37.317   3.228
79305W        W50976  19.136  20.004   0.353
79306W        W50977  31.501  20.879   4.621
79307W        W50978   6.834   7.569   1.258
79308W        W50979  43.663  41.888  12.476
79309W        W50980  14.843  29.072   2.961
79310W        W50981  17.542   1.556   3.957
79311W        W50982   8.383  17.613  14.313
79312W        W50983  34.016  15.852   4.597
79313W        W50984  18.370   7.239   3.692
79314W        W50985  21.558  10.669  12.285
79315W        W50986  20.060   0.221  10.701
79316W        W50987   6.129  27.781  12.441
79317W        W50988  10.369  26.512  11.002
79318W        W50989  20.656  18.474  13.924
79319W        W50990  33.541  22.477  11.175
79320W        W50991   9.162  31.607  14.068
79321W        W50992  33.754  26.296   5.055
79322W        W50993  31.473  27.445  12.406
79323W        W50994  10.296   7.273   2.021
79324W        W50995  11.775   9.120   0.785
79325W        W50996  26.575  38.694   0.966
79326W        W50997  18.622  30.089  11.851
79327W        W50998  35.575  26.683   4.662
79328W        W50999  41.379   1.889   0.819
79329W        W51000   5.450  11.628   1.495
79330W        W51001  29.899  41.530   1.809
79331W        W51002  31.463  15.696  13.961
79332W        W51003  28.646   4.931   3.791
79333W        W51004  16.026  17.053   1.683
79334W        W51005   6.762  34.866  13.401
79335W        W51006  39.782  13.829  13.029
79336W        W51007  24.708  25.802  12.579
79337W        W51008  20.420  44.108   1.310
79338W        W51009   4.813  18.568  13.050
79339W        W51010  22.172  29.186  13.979
79340W        W51011  15.238  16.711  11.518
79341W        W51012   7.513  42.984   3.566
79342W        W51013   1.021  12.228   2.392
79343W        W51014  44.742   7.949  13.766
79344W        W51015  22.746   4.690  14.193
79345W        W51016  39.477  31.549   4.633
79346W        W51017  22.155  28.937  11.642
79347W        W51018  17.495   0.872   3.692
79348W        W51019   0.353  31.401   3.563
79349W        W51020   3.410  33.851  10.573
79350W        W51021  37.007  39.581   1.739
79351W        W51022  40.710  27.541   0.432
79352W        W51023  31.357  30.669  11.535
79353W        W51024  37.458  35.909   3.111
79354W        W51025  36.904  42.789   1.330
79355W        W51026  20.296  28.396  10.643
79356W        W51027  20.552  11.769   2.291
79357W        W51028  19.783  24.418   4.545
79358W        W51029  15.286  21.609   4.526
79359W        W51030  16.671  21.496  14.585
79360W        W51031  41.489  13.723  14.022
79361W        W51032  35.484   2.343  12.128
79362W        W51033  31.035  21.601   0.755
79363W        W51034  19.200  12.148  11.847
79364W        W51035  11.103  28.120  10.218
79365W        W51036  43.799   4.684  14.173
79366W        W51037  28.476   5.940   3.560
79367W        W51038  28.263  25.167  13.453
79368W        W51039  29.965  14.247   0.691
79369W        W51040  35.027  24.158   0.155
79370W        W51041   8.741  29.713   0.848
79371W        W51042  29.152  33.552   3.052
79372W        W51043  35.534  35.911  14.543
79373W        W51044  39.521  44.771  13.031
79374W        W51045  24.723  12.625   0.346
79375W        W51046  35.846  41.881  12.613
79376W        W51047  27.115  38.775  14.839
79377W        W51048  41.025  25.082   4.566
79378W        W51049  14.363  19.762  14.205
79379W        W51050   8.937  19.550  14.022
79380W        W51051  21.725  32.192   2.802
79381W        W51052   9.971  44.935   3.589
79382W        W51053   5.601  33.922  14.457
79383W        W51054   0.305  25.901  11.613
79384W        W51055  42.266  18.361   4.229
79385W        W51056  33.404  38.788   3.159
79386W        W51057  21.157  43.035   0.894
79387W        W51058  41.339  33.865  13.598
79388W        W51059  31.117  41.362  10.338
79389W        W51060  25.022  24.982  11.098
79390W        W51061  12.569   2.245  11.692
79391W        W51062  23.943  43.412   3.435
79392W        W51063  17.746  17.321   2.289
79393W        W51064  25.238  32.548  14.346
79394W        W51065   3.171   6.994   4.363
79395W        W51066  44.801  26.826   1.012
79396W        W51067  18.237  21.057  10.601
79397W        W51068  18.533  41.522   2.883
79398W        W51069   1.955  42.797   3.206
79399W        W51070  36.556  13.693   4.694
79400W        W51071  37.713  20.493  14.517
79401W        W51072  36.543  22.287  12.609
79402W        W51073  22.779   4.724  11.037
79403W        W51074  16.914  15.259   2.253
79404W        W51075  32.531   5.138  10.669
79405W        W51076  15.181  12.709  13.279
79406W        W51077  36.011  37.630  12.373
79407W        W51078  40.281   7.336   3.764
79408W        W51079   7.421   4.474   0.718
79409W        W51080  24.080  40.336   4.683
79410W        W51081  21.990  39.843   3.359
79411W        W51082  17.755   8.082   0.414
79412W        W51083  25.036  25.479  10.900
79413W        W51084  42.416  11.182  13.023
79414W        W51085  24.095  21.580   0.408
79415W        W51086  42.655  41.094   2.702
79416W        W51087  11.260   3.343  11.261
79417W        W51088  27.893  35.907  13.894
79418W        W51089  37.191   6.765   0.698
79419W        W51090   8.178  31.652  13.823
79420W        W51091  28.845  17.113  13.946
79421W        W51092  21.852  21.539   2.348
79422W        W51093  37.009  19.188   1.715
79423W        W51094   5.454  30.201   1.372
79424W        W51095   7.675  20.121   4.729
79425W        W51096  17.780  42.402  12.901
79426W        W51097  30.473  29.925   0.235
79427W        W51098  42.514  33.802  12.902
79428W        W51099  31.122   4.820   1.679
79429W        W51100   8.497  42.270   0.821
79430W        W51101  26.779  31.102   4.606
79431W        W51102   5.645  37.371  10.751
79432W        W51103  38.521  37.515  14.419
79433W        W51104  17.739  40.362   0.006
79434W        W51105   1.897  15.057  11.754
79435W        W51106  18.381   1.886  13.530
79436W        W51107  14.678   9.140   1.863
79437W        W51108  32.469   0.309  11.821
79438W        W51109   4.582  17.721   1.990
79439W        W51110  35.354  13.884   0.778
79440W        W51111  15.129   6.873  11.922
79441W        W51112   4.333   9.056  14.459
79442W        W51113  32.174  39.796  10.576
79443W        W51114  30.155  15.097  12.536
79444W        W51115   6.970   7.416  12.026
79445W        W51116  41.374  44.098  12.661
79446W        W51117  27.184  23.427  14.468
79447W        W51118   7.090  25.741   4.055
79448W        W51119   0.335  41.913   1.365
79449W        W51120  15.828  16.144  13.991
79450W        W51121  35.553  44.506  13.820
79451W        W51122  13.853  38.948  14.513
79452W        W51123  14.617  19.063   0.365
79453W        W51124  40.414  39.042  11.001
79454W        W51125  39.781  36.339   1.196
79455W        W51126  18.295   1.377  12.050
79456W        W51127  22.523  42.158  11.139
79457W        W51128   1.744   3.942   1.178
79458W        W51129  27.414  29.680  13.787
79459W        W51130  32.838  30.333   3.183
79460W        W51131  27.495  36.324  14.826
79461W        W51132  10.382   5.198   2.904
79462W        W51133  39.824  36.355  11.285
79463W        W51134  10.566  16.720   0.264
79464W        W51135  38.971  38.900   1.714
79465W        W51136   7.464  29.579  14.443
79466W        W51137  34.906   5.463  14.994
79467W        W51138  18.869  16.175   2.824
79468W        W51139  16.601  36.068  14.817
79469W        W51140  28.384   0.290   1.376
79470W        W51141  27.050  28.975   2.241
79471W        W51142   6.926  21.566  12.879
79472W        W51143  20.620  41.724  13.573
79473W        W51144  12.269  38.308  11.460
79474W        W51145  40.882   6.736   1.742
79475W        W51146  29.898  35.168  14.918
79476W        W51147  27.520  22.808   4.213
79477W        W51148  43.968  15.083  10.546
79478W        W51149   1.200  29.211   1.366
79479W        W51150  33.347  24.771  12.168
79480W        W51151  27.884  35.789  12.515
79481W        W51152  36.391  15.179  13.797
79482W        W51153  23.796  26.511  11.170
79483W        W51154  24.995  38.301  14.359
79484W        W51155  37.950  11.489  13.906
79485W        W51156  33.655  33.129   1.448
79486W        W51157  14.738   8.952  11.534
79487W        W51158  43.277  14.289  13.059
79488W        W51159   1.875   3.827   1.900
79489W        W51160   0.835  12.656   2.162
79490W        W51161   1.176  24.781   0.327
79491W        W51162  19.597  11.917  13.367
79492W        W51163  10.823  32.975  10.468
79493W        W51164  44.479  11.743   3.624
79494W        W51165   3.944   0.787   2.296
79495W        W51166  18.409  21.672   1.998
79496W        W51167  21.258  15.173   3.635
79497W        W51168  37.569  32.538   1.270
79498W        W51169  12.479  39.946  13.046
79499W        W51170  29.700  43.124   0.476
79500W        W51171  36.329  37.492   2.836
79501W        W51172  24.225  44.494  11.642
79502W        W51173   7.950  11.647   0.336
79503W        W51174  44.525  20.269  14.055
79504W        W51175  35.401  10.247  13.774
79505W        W51176   7.103   6.756   3.273
79506W        W51177   7.544   6.233  13.932
79507W        W51178  13.330  37.034   1.857
79508W        W51179  17.218   0.811  12.311
79509W        W51180   2.435  36.466  11.304
79510W        W51181  11.097  41.133  14.279
79511W        W51182   4.771  20.117  11.517
79512W        W51183   1.202  42.554  14.848
79513W        W51184   0.978  24.748   3.598
79514W        W51185  22.640  41.049   0.573
79515W        W51186  27.497  12.253  10.659
79516W        W51187  27.599  29.809  14.790
79517W        W51188  15.820  32.481  10.688
79518W        W51189  43.371   4.458  12.223
79519W        W51190  28.074  21.676   1.059
79520W        W51191  23.125  15.098   4.992
79521W        W51192   1.479  43.057  12.164
79522W        W51193   0.879  42.870  11.501
79523W        W51194  38.982  11.801  11.092
79524W        W51195   5.042  11.188  11.131
79525W        W51196  10.269  44.370   2.838
79526W        W51197   7.858  10.207   4.321
79527W        W51198  15.573  29.680  11.634
79528W        W51199  39.612  17.265   4.526
79529W        W51200  30.571  37.378  13.970
79530W        W51201  11.571  25.752  13.460
79531W        W51202   6.181  30.332   1.411
79532W        W51203  41.306  25.825  12.948
79533W        W51204  36.483  39.731   1.900
79534W        W51205  20.568   3.733   2.369
79535W        W51206  18.009  34.974   1.797
79536W        W51207  32.150  29.184  10.779
79537W        W51208   9.382   8.431   4.053
79538W        W51209  22.280  42.811   2.630
79539W        W51210  18.066  27.920  10.359
79540W        W51211  15.449  16.922  11.091
79541W        W51212   5.747  35.994   3.224
79542W        W51213   9.477  15.988  13.759
79543W        W51214  44.921   9.078  12.897
79544W        W51215  14.837  15.672  11.448
79545W        W51216  29.458  29.764   2.382
79546W        W51217  41.443  32.538  13.291
79547W        W51218  36.609   4.953  11.645
79548W        W51219  28.097  14.901   3.817
79549W        W51220   0.764  22.949  14.799
79550W        W51221   6.617   9.434   3.957
79551W        W51222  20.067   6.864  13.801
79552W        W51223  18.070   5.128  10.354
79553W        W51224  36.126  31.051  13.736
79554W        W51225  32.035  36.274   3.620
79555W        W51226  32.710  34.179  12.514
79556W        W51227  20.747   8.879   0.356
79557W        W51228  39.032  24.127  13.024
79558W        W51229  42.135  21.153  13.415
79559W        W51230   5.481   1.947  12.183
79560W        W51231  13.825  29.128  10.490
79561W        W51232   6.213  14.221   3.197
79562W        W51233   5.763  32.389  11.553
79563W        W51234  23.802  28.014  12.444
79564W        W51235   2.753  36.828  12.856
79565W        W51236  39.005   5.997   9.978
79566W        W51237  30.034  21.638   4.572
79567W        W51238  31.941  35.911  11.210
79568W        W51239  27.129  21.961  13.584
79569W        W51240  20.738  11.665  10.502
79570W        W51241  25.259  42.579   1.220
79571W        W51242  16.730   1.752   2.331
79572W        W51243  18.897  36.306  14.033
79573W        W51244  38.016  39.506  11.670
79574W        W51245  36.628  21.291  12.626
79575W        W51246  18.431  20.302   4.883
79576W        W51247  14.044  18.640  14.422
79577W        W51248   1.864   1.473  11.566
79578W        W51249  31.651  25.113  10.681
79579W        W51250  12.614  40.532  14.868
79580W        W51251  15.541  11.681  10.533
79581W        W51252   1.438   7.856  11.885
79582W        W51253  28.457  11.903   4.872
79583W        W51254   0.852   5.285  12.551
79584W        W51255  29.995  28.893  13.967
79585W        W51256  24.754  13.768  10.790
79586W        W51257  30.992  24.125  11.890
79587W        W51258   4.483   3.957   3.732
79588W        W51259   6.344  43.861   3.732
79589W        W51260   8.092  22.059  13.228
79590W        W51261  10.477  36.355  10.556
79591W        W51262   0.997  41.430   0.500
79592W        W51263  41.422  29.490   0.661
79593W        W51264  12.390  40.802   2.368
79594W        W51265   2.773  20.373  14.489
79595W        W51266   8.909  18.662  13.935
79596W        W51267  15.788   6.770  11.814
79597W        W51268   4.939  10.333  11.357
79598W        W51269   8.916   1.512   2.004
79599W        W51270  14.881   2.266   4.862
79600W        W51271  11.428  19.195  14.802
79601W        W51272  23.722  31.513  14.082
79602W        W51273  16.654  17.577  11.146
79603W        W51274   9.223  11.654   2.452
79604W        W51275  22.983  19.849   2.212
79605W        W51276  35.060  43.163   0.815
79606W        W51277  20.665  35.858  11.016
79607W        W51278   5.215  42.873  11.069
79608W        W51279  27.968  15.131   4.275
79609W        W51280  30.812  42.959   1.817
79610W        W51281   9.058  15.503   4.674
79611W        W51282  44.757   9.374  11.940
79612W        W51283  39.130  36.116   1.282
79613W        W51284  36.133  37.559   2.270
79614W        W51285   2.411   7.879   1.737
79615W        W51286   2.476   9.660   2.856
79616W        W51287  12.798   2.454   3.691
79617W        W51288   5.977  27.442   2.891
79618W        W51289  36.064   3.603  12.973
79619W        W51290   5.414  31.839  11.136
79620W        W51291  13.705  37.356  10.980
79621W        W51292  34.350  37.863   4.590
79622W        W51293  15.902   4.379   4.161
79623W        W51294   6.754  10.107   0.355
79624W        W51295  18.356   6.600  14.446
79625W        W51296  44.161  21.454  12.945
79626W        W51297  35.951  22.502   3.677
79627W        W51298  41.442  37.934   0.247
79628W        W51299  14.371  40.498  12.247
79629W        W51300  26.780   2.736  12.207
79630W        W51301  44.939   2.928  14.992
79631W        W51302  20.041  36.129   3.219
79632W        W51303  11.790  16.587  14.834
79633W        W51304  11.293  13.738  14.000
79634W        W51305  26.104  14.367  13.480
79635W        W51306  39.513  19.265   0.432
79636W        W51307  11.407  43.249   2.345
79637W        W51308  41.233  22.636   4.450
79638W        W51309  13.408   8.369  14.652
79639W        W51310  19.809  41.022   2.618
79640W        W51311  31.571  14.800   3.981
79641W        W51312  38.547   8.471   1.782
79642W        W51313  26.564  24.993   0.783
79643W        W51314  33.136   4.001  14.251
79644W        W51315   2.256   3.825   2.441
79645W        W51316   5.838   3.791   0.681
79646W        W51317  14.591  39.671   0.861
79647W        W51318  42.937   1.744  12.481
79648W        W51319   2.289  20.391  13.402
79649W        W51320  36.418  20.252  12.829
79650W        W51321  42.299  38.851   3.750
79651W        W51322   5.630  32.853   2.391
79652W        W51323  31.199  40.440   1.745
79653W        W51324  18.029  39.891  14.911
79654W        W51325  33.024  43.132   4.383
79655W        W51326  36.517  42.343  12.831
79656W        W51327  32.107   0.977   0.310
79657W        W51328  11.222  23.321   4.249
79658W        W51329  21.983  31.562   0.456
79659W        W51330  29.714  16.186  13.399
79660W        W51331   5.305   4.636   0.429
79661W        W51332  31.937   8.687   1.885
79662W        W51333   1.662  17.162  11.730
79663W        W51334  43.318  18.253  10.681
79664W        W51335  38.875  37.097  11.965
79665W        W51336  16.807  15.760   5.006
79666W        W51337  37.366  42.793   3.790
79667W        W51338  23.106  22.530  12.841
79668W        W51339  28.606  27.433  12.057
79669W        W51340  23.378  35.507  11.663
79670W        W51341  11.349  32.861  11.536
79671W        W51342  25.781  10.581  14.547
79672W        W51343   9.946   6.699  12.396
79673W        W51344  20.722  43.695   2.237
79674W        W51345  14.366  44.312  14.529
79675W        W51346  18.847  19.867  14.933
79676W        W51347  14.087  27.941   4.138
79677W        W51348  37.289   6.289   0.965
79678W        W51349   6.682  32.448  12.523
79679W        W51350  34.504  32.685  12.953
79680W        W51351  17.392  16.886   3.499
79681W        W51352  44.429  23.287  10.198
79682W        W51353  20.047  14.726  12.737
79683W        W51354   0.235  24.049  12.602
79684W        W51355  32.917  25.267  14.930
79685W        W51356  40.401  37.862  13.982
79686W        W51357  28.578  16.229   4.364
79687W        W51358  35.418  12.557  11.115
79688W        W51359  14.253   5.778   5.080
79689W        W51360   5.329   5.162   0.486
79690W        W51361  12.194  23.619   3.140
79691W        W51362  22.514  12.899  11.134
79692W        W51363   9.810   7.948   4.546
79693W        W51364   9.770  24.913  13.321
79694W        W51365  35.742   7.674   3.790
79695W        W51366  34.374  33.245  10.543
79696W        W51367  34.709  43.727   1.349
79697W        W51368  21.454  15.800  10.171
79698W        W51369   2.972  44.832  12.509
79699W        W51370  34.417  44.467  12.335
79700W        W51371  27.253  29.139   3.563
79701W        W51372  30.497   0.758  11.755
79702W        W51373  33.159  15.822  10.682
79703W        W51374  36.485  28.971   0.442
79704W        W51375  18.844  41.950   2.768
79705W        W51376  34.607  21.536   1.890
79706W        W51377  36.951   2.996   0.923
79707W        W51378  11.442  29.943   3.992
79708W        W51379  17.141  32.869   2.289
79709W        W51380  29.945   7.722  12.547
79710W        W51381  32.247  34.865   4.505
79711W        W51382  40.650   5.880  12.869
79712W        W51383   2.275  13.027   2.184
79713W        W51384  29.930  17.251  12.135
79714W        W51385  37.857  43.359  10.688
79715W        W51386  36.154  21.715  13.356
79716W        W51387   7.612   3.422   4.203
79717W        W51388  37.011  24.477   0.146
79718W        W51389  17.735  38.092   3.342
79719W        W51390  44.898  12.097  11.216
79720W        W51391  30.985  14.314   4.348
79721W        W51392  23.932  18.680   4.071
79722W        W51393  18.102   7.745  12.864
79723W        W51394  24.194   2.961  10.713
79724W        W51395  26.609  35.805   2.806
79725W        W51396  43.275  13.037  14.532
79726W        W51397  40.504   1.133   1.272
79727W        W51398  37.493  33.793  14.334
79728W        W51399  22.387  40.578   5.479
79729W        W51400  40.391  37.190  10.797
79730W        W51401  15.144  39.576  10.927
79731W        W51402  38.189  23.650   3.997
79732W        W51403  35.425  18.818   0.421
79733W        W51404  14.163  41.468   0.694
79734W        W51405  15.953  16.649   3.169
79735W        W51406  26.643  42.285  12.022
79736W        W51407  42.575  40.342  12.364
79737W        W51408  25.107   6.788   4.972
79738W        W51409  40.883  15.592  13.649
79739W        W51410  42.557  22.548  13.433
79740W        W51411  33.001  23.177   3.829
79741W        W51412  35.553  28.142  10.887
79742W        W51413  24.421  31.233   3.232
79743W        W51414  10.351  43.881  10.667
79744W        W51415   8.850  34.064   2.972
79745W        W51416  38.092  16.533  13.687
79746W        W51417   1.353  33.876   2.929
79747W        W51418  37.235   7.202  12.151
79748W        W51419  15.125  10.868  12.571
79749W        W51420  22.174  39.330   3.227
79750W        W51421  26.411   5.855   1.217
79751W        W51422  39.997  28.134   4.853
79752W        W51423  35.343  41.908   2.621
79753W        W51424  39.813  32.945  14.384
79754W        W51425  43.052  13.437   3.495
79755W        W51426   9.783  30.372  10.833
79756W        W51427  32.502  39.325   4.234
79757W        W51428  23.443  30.636  11.461
79758W        W51429   3.840  37.258  14.848
79759W        W51430  35.071  19.743   0.754
79760W        W51431   5.399  25.409   3.666
79761W        W51432  30.666   6.920   2.773
79762W        W51433  23.911   9.201  14.946
79763W        W51434  18.684  17.652   0.927
79764W        W51435   5.744   8.831  10.016
79765W        W51436  12.953  22.932   2.778
79766W        W51437   0.953  20.628   3.865
79767W        W51438  17.336  36.095  14.533
79768W        W51439  12.064  34.119   3.773
79769W        W51440  18.720   3.593   0.700
79770W        W51441  19.248  37.397   0.119
79771W        W51442   7.891  15.306  11.962
79772W        W51443  33.989   1.240  14.944
79773W        W51444  32.000   3.760   1.426
79774W        W51445  30.695   0.991   0.167
79775W        W51446  41.426  13.309  14.919
79776W        W51447  15.357  39.275   2.590
79777W        W51448  16.997  15.671   9.956
79778W        W51449  40.463  40.209  13.501
79779W        W51450   4.987   4.202   4.108
79780W        W51451  29.691   0.766  14.184
79781W        W51452   8.761  33.707   2.312
79782W        W51453  37.900   9.918  10.636
79783W        W51454  28.679  19.651  12.910
79784W        W51455   8.861  15.873   2.178
79785W        W51456  12.871  31.691   4.529
79786W        W51457  13.897  14.702   3.154
79787W        W51458  36.928  26.936   2.720
79788W        W51459  27.133  38.315   1.351
79789W        W51460   0.683  43.783   3.761
79790W        W51461   2.865  14.142  11.352
79791W        W51462  32.176   4.118  12.958
79792W        W51463  24.236  29.653   0.425
79793W        W51464  11.676  29.275  11.201
79794W        W51465  12.791  24.586   3.377
79795W        W51466  34.923  17.665   0.248
79796W        W51467  30.293  34.306  12.411
79797W        W51468  24.932  41.078  13.509
79798W        W51469   2.490  16.679  12.959
79799W        W51470  15.036  13.463  13.915
79800W        W51471  41.938  14.371   4.080
79801W        W51472   2.974   6.122   3.411
79802W        W51473  11.502  36.383  10.499
79803W        W51474  14.367  34.974  11.036
79804W        W51475   3.948  13.146   2.372
79805W        W51476  27.693  17.510   2.746
79806W        W51477  35.353   4.350   3.723
79807W        W51478  12.226  34.837  13.585
79808W        W51479  31.189  15.905   0.792
79809W        W51480  30.886  28.099  10.755
79810W        W51481  19.208  12.262   3.902
79811W        W51482  19.522  26.869  11.506
79812W        W51483  37.059   6.913  13.494
79813W        W51484  14.632  34.146  11.546
79814W        W51485  16.820  32.940   0.813
79815W        W51486  25.524  23.121  13.886
79816W        W51487  37.635  29.529   0.810
79817W        W51488  19.314  43.687   2.921
79818W        W51489   7.878  10.253   0.873
79819W        W51490   6.303  43.119   2.114
79820W        W51491  26.053  36.561  14.735
79821W        W51492  23.549  23.302   3.740
79822W        W51493  20.444  22.848   9.759
79823W        W51494   2.795  37.855   1.147
79824W        W51495  39.467  11.240   2.575
79825W        W51496  31.851  27.264  14.992
79826W        W51497  14.174   7.634  10.001
79827W        W51498  17.678  22.366   4.958
79828W        W51499   0.787   5.685   2.573
79829W        W51500  36.761  43.984   4.545
79830W        W51501  18.333  24.039  12.732
79831W        W51502   0.295  13.242  13.197
79832W        W51503  35.154   4.982  12.457
79833W        W51504  30.098  34.448   2.702
79834W        W51505   4.028  29.139  10.781
79835W        W51506   1.049  18.149   0.679
79836W        W51507   9.738   1.264  12.476
79837W        W51508  20.564  36.512  14.265
79838W        W51509   1.783  18.333   4.769
79839W        W51510   0.794   9.690   3.117
79840W        W51511  15.660  35.470   1.460
79841W        W51512  15.984  17.493   2.388
79842W        W51513   3.534  13.897  10.625
79843W        W51514  42.051  35.441  11.513
79844W        W51515  17.239  44.185   3.312
79845W        W51516  26.638  16.086  10.461
79846W        W51517   4.771  24.715  14.036
79847W        W51518  18.105  40.578   1.134
79848W        W51519  44.116   6.019  10.819
79849W        W51520  41.044  31.472   4.534
79850W        W51521  32.090  42.914   0.050
79851W        W51522  19.423  34.825   2.763
79852W        W51523   8.369  28.514   3.819
79853W        W51524   3.406  29.411  11.557
79854W        W51525  15.606  16.244   1.766
79855W        W51526  38.665   7.719   3.831
79856W        W51527   1.167  16.277  14.818
79857W        W51528  27.763   6.411   0.240
79858W        W51529  23.689  21.508  11.259
79859W        W51530  17.488  29.091   2.313
79860W        W51531  41.801  44.568   2.241
79861W        W51532  15.369  15.005   3.133
79862W        W51533  14.300  11.663   2.923
79863W        W51534  10.912  31.617   0.368
79864W        W51535  17.502  13.770  12.563
79865W        W51536  36.256  36.927  13.055
79866W        W51537  22.265   4.173  10.566
79867W        W51538  27.160  14.491  12.387
79868W        W51539  29.522  28.683  14.016
79869W        W51540   3.751  11.006  10.348
79870W        W51541  31.369  12.622   0.846
79871W        W51542  10.691  10.334   1.804
79872W        W51543  16.200  32.421  12.581
79873W        W51544  44.752   9.331   4.166
79874W        W51545  30.406  23.908  14.795
79875W        W51546   2.267  37.933  12.067
79876W        W51547   0.099   3.489   1.249
79877W        W51548   6.414  29.454  13.053
79878W        W51549  32.937   8.768   0.471
79879W        W51550  28.025  31.867   3.254
79880W        W51551  41.076  28.142   0.009
79881W        W51552  38.350  15.607   2.248
79882W        W51553  43.997  25.243   0.818
79883W        W51554  16.272  19.689  10.666
79884W        W51555  34.195   8.610  12.452
79885W        W51556  25.201  38.879   0.435
79886W        W51557  20.079  16.284   0.836
79887W        W51558  23.686  38.510  14.461
79888W        W51559  22.093  43.850  14.109
79889W        W51560  22.505  37.082  10.726
79890W        W51561  30.988  36.125  11.723
79891W        W51562  35.120  36.378   4.421
79892W        W51563  25.042  34.833   1.497
79893W        W51564   0.827  29.042   4.438
79894W        W51565  15.224  10.211   0.712
79895W        W51566  29.661   7.976  11.426
79896W        W51567  16.079   9.871   0.365
79897W        W51568  15.326  16.614  12.875
79898W        W51569  34.687   5.417   1.011
79899W        W51570  38.061  20.471   1.345
79900W        W51571   6.309  25.020  12.987
79901W        W51572  40.844  12.615   4.602
79902W        W51573  35.433  36.766   4.122
79903W        W51574  44.012  31.063   4.543
79904W        W51575   8.396  15.266  10.633
79905W        W51576  10.244  24.621  11.652
79906W        W51577  39.954  17.595   0.051
79907W        W51578  30.248  41.325   3.231
79908W        W51579  36.496  19.555  14.302
79909W        W51580  40.351  39.602   3.793
79910W        W51581  12.574  16.196   1.934
79911W        W51582   7.932  10.797   3.713
79912W        W51583  28.042  22.053  13.235
79913W        W51584   4.532   7.893   3.603
79914W        W51585  37.626  35.545   0.324
79915W        W51586  27.027  43.504   0.717
79916W        W51587  32.309  25.574  11.582
79917W        W51588  15.310  24.923   0.407
79918W        W51589  22.126  26.218   4.563
79919W        W51590  25.165   2.353  12.445
79920W        W51591  19.251  21.346   4.490
79921W        W51592   7.466   2.389   0.098
79922W        W51593  30.575   6.465  11.477
79923W        W51594  37.387   8.279  13.174
79924W        W51595  37.402  40.087  12.123
79925W        W51596   7.630   6.707  14.617
79926W        W51597  42.969  37.670   2.810
79927W        W51598  30.470  39.862   2.150
79928W        W51599  38.570   6.350  11.561
79929W        W51600  16.592  23.307  14.744
79930W        W51601  44.456  28.131   2.312
79931W        W51602   4.902  19.166  14.114
79932W        W51603  27.417  41.571   3.782
79933W        W51604  23.494   7.909  11.582
79934W        W51605  41.934   6.477  13.109
79935W        W51606  27.822   1.645  12.386
79936W        W51607  18.178  42.889   3.510
79937W        W51608  16.187   7.651   0.712
79938W        W51609  29.813  25.588   0.115
79939W        W51610  20.886  44.895   4.734
79940W        W51611  38.289  30.467   3.192
79941W        W51612  36.610  11.103  12.841
79942W        W51613   7.451   2.998  11.201
79943W        W51614   7.896  34.401   4.830
79944W        W51615  35.283   3.404  13.815
79945W        W51616  27.199  21.165  12.933
79946W        W51617  12.972  34.462   3.079
79947W        W51618   3.693  35.101   1.332
79948W        W51619  37.443  34.770   0.867
79949W        W51620  23.286   7.370  11.541
79950W        W51621  43.409  42.362  13.653
79951W        W51622  31.684  38.097   2.872
79952W        W51623  21.706   4.916  12.398
79953W        W51624  25.256   6.814  13.847
79954W        W51625  34.992  44.190   0.622
79955W        W51626  40.861  23.472  14.935
79956W        W51627  31.981  14.299   1.392
79957W        W51628   1.267   9.310   2.350
79958W        W51629  13.564   2.358  13.376
79959W        W51630  18.747  41.387   2.176
79960W        W51631  24.958  31.120  14.880
79961W        W51632  25.443  14.676  11.648
79962W        W51633   5.078  38.011  14.723
79963W        W51634  10.098  22.730   1.641
79964W        W51635  25.599  40.364   3.779
79965W        W51636  23.917  33.165   2.101
79966W        W51637  28.114  37.545   3.882
79967W        W51638  41.454  31.858   4.639
79968W        W51639  32.353  29.664  14.385
79969W        W51640  20.557  24.251   2.867
79970W        W51641   7.470  34.494  11.499
79971W        W51642  30.371  27.952  10.747
79972W        W51643  24.425  27.976  10.665
79973W        W51644   6.684   5.220  11.035
79974W        W51645  42.971  18.685  12.579
79975W        W51646  12.682  29.970  14.184
79976W        W51647  20.986  15.297   4.094
79977W        W51648  22.066  44.424   0.815
79978W        W51649   1.184  17.149   1.572
79979W        W51650  23.499  12.910   2.781
79980W        W51651  22.128  26.459   4.096
79981W        W51652  35.627  22.705  11.125
79982W        W51653  24.695  12.034  11.306
79983W        W51654  26.676  44.334  12.999
79984W        W51655   1.487   6.674   2.313
79985W        W51656   5.199  34.414  11.988
79986W        W51657  30.101   0.215   0.983
79987W        W51658  37.597  13.046   1.885
79988W        W51659  44.966  19.850  12.484
79989W        W51660  33.155  13.320   0.978
79990W        W51661   4.528  36.227   3.760
79991W        W51662  27.521  41.955  11.100
79992W        W51663  11.679   7.386  11.673
79993W        W51664  44.871  18.762   3.428
79994W        W51665   3.764  20.110   5.109
79995W        W51666   6.811  14.538   4.611
79996W        W51667  29.781  17.718  10.833
79997W        W51668  19.552  28.680   1.830
79998W        W51669   1.953  27.360  10.748
79999W        W51670  13.270  36.363  14.269
80000W        W51671   4.166  16.974   2.342
80001W        W51672  16.108   4.161   0.409
80002W        W51673  13.747  34.079   0.822
80003W        W51674  12.869  34.520  11.967
80004W        W51675  17.976  33.081  12.041
80005W        W51676  31.263  17.239   1.418
80006W        W51677  19.542   6.782  10.801
80007W        W51678   8.882  29.199   0.290
80008W        W51679  43.694  35.144   1.246
80009W        W51680  21.949  35.559  12.040
80010W        W51681  22.655  29.091  11.787
80011W        W51682   9.827   2.633  12.439
80012W        W51683  41.811  33.921  12.538
80013W        W51684  43.023  19.797  11.834
80014W        W51685  10.362  37.783   5.136
80015W        W51686  30.676   5.730  13.973
80016W        W51687   4.888  13.280   3.259
80017W        W51688  36.963  44.030  11.967
80018W        W51689  29.047  33.034   4.885
80019W        W51690  21.750  33.318   2.218
80020W        W51691  19.533  40.089  12.556
80021W        W51692  17.797  14.720   3.603
80022W        W51693   9.786  18.454   1.931
80023W        W51694  27.146  30.464   2.315
80024W        W51695  11.868   4.975   1.290
80025W        W51696  29.161   8.907   4.100
80026W        W51697  20.423  15.357   4.217
80027W        W51698  32.539  37.819   1.199
80028W        W51699  14.899  36.310   0.521
80029W        W51700  16.057  43.316   0.413
80030W        W51701  18.032  13.113   4.136
80031W        W51702  38.488   8.363  12.545
80032W        W51703  38.086  11.033  13.101
80033W        W51704  24.668  27.757  12.477
80034W        W51705  12.379  23.545   2.666
80035W        W51706  42.639  21.405  11.024
80036W        W51707  30.970  22.930  12.366
80037W        W51708  15.305  37.025   2.304
80038W        W51709  31.535  26.633   1.732
80039W        W51710  27.020  40.867   2.405
80040W        W51711  32.499  31.617   2.010
80041W        W51712  38.421   5.679  10.815
80042W        W51713   8.365   8.169   4.157
80043W        W51714   9.791  26.190   4.956
80044W        W51715  34.892   1.062   0.082
80045W        W51716   2.860  30.584   4.160
80046W        W51717  25.105  35.907   3.247
80047W        W51718  21.195  21.508   3.123
80048W        W51719  35.270   8.777   4.606
80049W        W51720   7.673   3.279  12.462
80050W        W51721  26.929  40.130   1.886
80051W        W51722  25.147  20.256   2.237
80052W        W51723  44.034  16.896  12.954
80053W        W51724  24.019   5.822  14.284
80054W        W51725   2.465  21.994   0.266
80055W        W51726  16.783   3.781   2.171
80056W        W51727  31.171  41.377  14.763
80057W        W51728   0.874   3.223  10.305
80058W        W51729  28.937  42.335  13.211
80059W        W51730  26.208  31.099   4.600
80060W        W51731  10.117   8.471  14.393
80061W        W51732  33.379  17.100  13.447
80062W        W51733  18.996  28.554   3.286
80063W        W51734  43.554  16.669  12.980
80064W        W51735   4.155  20.186  10.726
80065W        W51736  43.761  33.936  13.948
80066W        W51737  10.167  17.759  13.981
80067W        W51738  39.141  17.084   4.491
80068W        W51739  34.117  25.562  11.193
80069W        W51740  27.992  38.111  11.142
80070W        W51741  22.745  40.367  12.916
80071W        W51742  42.993  19.981  13.547
80072W        W51743  34.838  14.577   3.233
80073W        W51744  15.208  40.493  14.021
80074W        W51745  35.567  40.849   2.800
80075W        W51746  28.954  16.646  14.370
80076W        W51747   4.191   3.464   4.565
80077W        W51748  30.570  19.623  14.473
80078W        W51749   9.807  19.486   4.239
80079W        W51750  18.523  13.747  12.450
80080W        W51751  40.204   8.851  12.720
80081W        W51752  25.992  36.205  12.944
80082W        W51753  12.153  10.684  10.602
80083W        W51754  17.716  31.768   2.729
80084W        W51755  17.686  17.845  12.049
80085W        W51756   7.461  41.414   0.041
80086W        W51757  39.283  27.184  12.795
80087W        W51758  27.039  32.068   1.286
80088W        W51759  22.677  10.615  14.956
80089W        W51760  31.342  29.990  10.745
80090W        W51761   9.734  13.998  13.459
80091W        W51762  36.926   6.653  13.057
80092W        W51763  34.841  16.784   3.148
80093W        W51764   1.885  14.228   0.782
80094W        W51765  36.924  36.258  14.950
80095W        W51766  43.347   2.476  11.104
80096W        W51767  27.958  21.954  11.437
80097W        W51768  22.184  11.799   1.440
80098W        W51769  27.467   2.954  13.793
80099W        W51770  26.127  20.987  13.560
80100W        W51771  25.217  44.992   0.845
80101W        W51772   4.874  37.091  12.873
80102W        W51773  23.977  29.750   1.759
80103W        W51774  29.505   3.325   2.045
80104W        W51775  38.727  21.599   2.169
80105W        W51776  21.166  12.402  12.532
80106W        W51777  36.392  17.768  13.851
80107W        W51778  39.125  20.312  13.341
80108W        W51779  27.676  19.681  11.564
80109W        W51780  37.733   7.139  12.039
80110W        W51781   7.510  33.276  11.014
80111W        W51782  14.153  36.830  14.471
80112W        W51783  41.444  13.646  10.327
80113W        W51784  36.655  14.407   0.834
80114W        W51785  21.985  41.949   5.586
80115W        W51786   6.003  15.044   1.418
80116W        W51787  26.750   5.780  11.496
80117W        W51788   0.475  21.996   0.130
80118W        W51789  12.702   8.562  10.200
80119W        W51790  23.807  32.462  13.116
80120W        W51791   7.448   9.160   4.145
80121W        W51792  22.219  25.597  14.761
80122W        W51793  40.028   0.691   2.788
80123W        W51794  26.662  23.124   4.564
80124W        W51795  12.623   3.931  14.562
80125W        W51796  22.514  15.610   3.605
80126W        W51797  38.540  17.369  11.151
80127W        W51798   9.017  19.332   1.429
80128W        W51799   2.424   7.175   0.393
80129W        W51800  22.185  12.740   4.389
80130W        W51801   2.926  24.316   0.407
80131W        W51802  34.669  15.676  10.759
80132W        W51803  30.180  15.363  12.996
80133W        W51804  33.901  44.164  13.048
80134W        W51805  28.048  17.866  14.853
80135W        W51806  25.758  10.775   0.890
80136W        W51807   9.962  33.038  12.281
80137W        W51808   8.909  34.713   2.394
80138W        W51809  44.638  12.333   3.775
80139W        W51810  44.124   6.848  12.753
80140W        W51811  32.228  32.637   0.698
80141W        W51812  13.572  36.625  11.970
80142W        W51813  24.701  15.154  14.544
80143W        W51814   5.155  26.632   3.748
80144W        W51815  24.149   2.430  10.682
80145W        W51816  15.634  12.050   2.185
80146W        W51817  39.987  34.544  10.715
80147W        W51818  35.636  42.380  11.516
80148W        W51819   3.000  20.097  12.104
80149W        W51820  20.958  23.904   0.712
80150W        W51821  19.489  25.181  12.540
80151W        W51822  36.392  39.695   5.369
80152W        W51823  20.153  40.133  12.116
80153W        W51824   1.077  22.603  11.431
80154W        W51825  30.834   5.665   1.864
80155W        W51826   6.805  16.679  12.049
80156W        W51827   3.713  17.268  12.207
80157W        W51828  21.540  30.053   3.804
80158W        W51829  44.004  36.892   1.487
80159W        W51830   9.237   3.526   4.163
80160W        W51831  21.584  35.223  11.520
80161W        W51832  21.111  12.071  10.338
80162W        W51833  26.683   9.442   0.473
80163W        W51834  33.526  32.410  14.452
80164W        W51835  15.187  17.275   3.385
80165W        W51836  10.254   0.325   2.758
80166W        W51837  21.274  17.946  11.475
80167W        W51838   5.453  35.592  12.624
80168W        W51839  40.237  35.668  12.076
80169W        W51840  33.771  38.634   5.048
80170W        W51841  26.432  28.728   3.671
80171W        W51842   7.250  42.335   3.786
80172W        W51843  29.230  43.750  11.512
80173W        W51844   5.211   0.355  11.073
80174W        W51845  12.677  38.706   1.923
80175W        W51846  38.908  14.850  10.660
80176W        W51847  44.452  32.810   4.857
80177W        W51848  31.598  37.154  14.435
80178W        W51849   5.466  34.091   2.810
80179W        W51850  37.810  37.003  12.906
80180W        W51851  44.435  12.535   2.600
80181W        W51852  23.129  31.369  13.310
80182W        W51853   9.717  40.919   3.897
80183W        W51854  16.916  29.888   4.953
80184W        W51855  14.829   6.509  14.302
80185W        W51856  36.930   4.374   3.591
80186W        W51857  29.577  34.168  11.464
80187W        W51858  42.144   8.299  12.196
80188W        W51859   3.791   0.964  12.908
80189W        W51860  28.273  12.251  14.622
80190W        W51861  23.607  35.843   1.409
80191W        W51862   9.875  18.961   4.323
80192W        W51863  19.704  39.351  13.386
80193W        W51864   6.500  25.513   0.310
80194W        W51865  10.608  12.772   1.650
80195W        W51866  23.233   2.451  14.754
80196W        W51867   0.235  18.476   0.941
80197W        W51868  15.222  24.555  11.670
80198W        W51869  38.086  14.664  14.921
80199W        W51870  26.316   7.363  10.687
80200W        W51871  22.682   2.030   0.261
80201W        W51872  10.572   0.891  11.014
80202W        W51873  23.807  41.987   2.300
80203W        W51874  11.539   5.782  14.022
80204W        W51875  34.823   8.799  11.971
80205W        W51876  31.387  23.285  12.280
80206W        W51877  23.912  40.058   4.169
80207W        W51878  21.284  30.719  13.104
80208W        W51879  32.172   9.781   0.932
80209W        W51880  27.942  36.571  14.910
80210W        W51881  15.321  36.036  14.299
80211W        W51882  39.996  29.247   1.192
80212W        W51883  21.167   3.719   4.441
80213W        W51884  37.106  32.397   0.049
80214W        W51885   6.294  35.664  14.441
80215W        W51886  29.919  30.149  14.006
80216W        W51887  40.139  43.331   0.294
80217W        W51888   6.415  41.012   4.831
80218W        W51889  43.768  34.078  11.224
80219W        W51890  17.337  42.020   3.653
80220W        W51891  41.962   6.167  10.223
80221W        W51892  13.755   9.659  12.023
80222W        W51893  12.907  40.076   2.814
80223W        W51894  13.429   2.712  10.903
80224W        W51895  27.579  40.307  14.717
80225W        W51896   0.573   9.867  14.254
80226W        W51897  17.033  43.300  14.270
80227W        W51898  24.083  10.162   1.877
80228W        W51899   9.976  41.238  12.068
80229W        W51900  38.475  27.622  11.222
80230W        W51901  35.838  42.145   0.889
80231W        W51902  19.578  39.067  12.446
80232W        W51903  37.507   8.851  14.876
80233W        W51904  24.959  33.118  14.507
80234W        W51905  40.457  21.217  11.937
80235W        W51906  36.308  31.423  11.110
80236W        W51907   5.882  42.442  11.235
80237W        W51908  18.766  26.516  14.911
80238W        W51909  36.407   6.634   3.134
80239W        W51910  34.648  26.076  14.540
80240W        W51911  24.252   3.334  13.854
80241W        W51912  38.778   1.667  13.085
80242W        W51913  32.088  35.916  12.613
80243W        W51914  11.649  41.778  12.065
80244W        W51915  14.271   7.793  13.823
80245W        W51916  26.232  11.841  14.102
80246W        W51917  13.258  14.099  14.362
80247W        W51918   2.972  14.800   1.388
80248W        W51919  19.230  40.067   4.150
80249W        W51920  26.466  10.701  13.307
80250W        W51921   2.512  17.561   3.159
80251W        W51922  20.677  27.628   2.523
80252W        W51923  37.878   6.379  14.513
80253W        W51924  30.110   0.237  12.522
80254W        W51925  27.665  38.589   2.559
80255W        W51926  41.370  10.801   1.440
80256W        W51927  29.138  10.171   1.947
80257W        W51928  16.015  12.826   2.439
80258W        W51929  35.132  34.938  12.983
80259W        W51930  36.849  17.320   3.280
80260W        W51931  29.190   0.852  10.758
80261W        W51932  15.606  13.194   3.842
80262W        W51933   2.838  23.905  14.741
80263W        W51934   6.810  42.016   3.223
80264W        W51935  34.406   3.189  14.664
80265W        W51936   0.812   4.307  11.134
80266W        W51937  27.201  37.974   0.903
80267W        W51938  26.919  25.129  12.980
80268W        W51939   9.197   4.629  13.623
80269W        W51940  23.176  28.461   0.568
80270W        W51941  43.283  35.970   0.890
80271W        W51942   2.792  39.248  13.495
80272W        W51943  10.173  36.502   0.174
80273W        W51944  12.683  10.202   9.933
80274W        W51945  11.150  20.751   0.056
80275W        W51946  31.955   0.997  12.880
80276W        W51947  11.340  11.630  11.605
80277W        W51948  44.200  29.275   0.851
80278W        W51949  12.103  20.642   3.865
80279W        W51950  26.506  42.544  13.372
80280W        W51951  41.254  37.289   1.470
80281W        W51952  30.108  17.615  11.846
80282W        W51953  23.469  34.817   2.632
80283W        W51954  44.487  40.482   2.832
80284W        W51955  43.221  29.618  12.969
80285W        W51956  41.812   4.840  12.072
80286W        W51957  29.059  16.144   1.637
80287W        W51958  24.699  15.083  10.726
80288W        W51959  36.111  35.067   3.538
80289W        W51960  42.430  15.108  14.983
80290W        W51961  37.519  39.127   2.392
80291W        W51962  19.640  34.519  11.099
80292W        W51963  14.300  15.761   4.215
80293W        W51964   4.411  24.219  12.593
80294W        W51965  29.534   8.616   3.245
80295W        W51966   0.405  19.257   4.706
80296W        W51967   3.850   1.928   3.712
80297W        W51968  26.632  18.710   2.412
80298W        W51969  38.986  34.702   1.383
80299W        W51970   2.802  27.461   2.882
80300W        W51971   9.441  32.631   0.447
80301W        W51972  23.859  41.232  10.135
80302W        W51973  43.048   9.198   2.356
80303W        W51974  35.868   6.477   4.399
80304W        W51975  13.184  20.929  10.332
80305W        W51976  27.781  19.066  13.517
80306W        W51977  27.226   5.737   0.809
80307W        W51978  17.158  34.860   1.736
80308W        W51979  26.059   0.731   2.302
80309W        W51980  27.003  21.362   5.022
80310W        W51981  17.248  38.353   2.450
80311W        W51982  16.240  22.738  11.481
80312W        W51983  12.643   0.907   2.897
80313W        W51984   4.917  15.260   4.143
80314W        W51985  16.522  39.045  11.440
80315W        W51986  40.054  16.170   3.732
80316W        W51987   0.161  14.993   1.120
80317W        W51988   4.223   1.929   2.805
80318W        W51989  39.943  19.488   0.201
80319W        W51990  14.334  31.656  13.758
80320W        W51991   1.475  24.458  12.537
80321W        W51992  24.063   1.439  13.885
80322W        W51993  40.866  12.126  11.694
80323W        W51994   1.654  13.299  13.384
80324W        W51995  15.119  15.593   2.764
80325W        W51996  25.389  23.547  12.688
80326W        W51997   7.729  29.948   0.885
80327W        W51998  15.648  38.341   1.181
80328W        W51999  10.320  39.223  14.376
80329W        W52000   1.249   5.887   2.855
80330W        W52001  18.451  40.218   4.555
80331W        W52002  15.866  31.686   0.917
80332W        W52003   5.363  17.310  14.918
80333W        W52004  41.960   8.294  14.508
80334W        W52005  11.269  40.557  14.421
80335W        W52006   8.148  28.582  11.963
80336W        W52007  35.740  40.881  14.289
80337W        W52008  32.328   2.337   3.343
80338W        W52009  26.175  34.375   1.965
80339W        W52010   5.382  32.410   2.334
80340W        W52011  13.687  13.659   4.579
80341W        W52012  44.425  43.021   4.543
80342W        W52013  10.725   4.976   4.644
80343W        W52014  17.653  20.132   0.332
80344W        W52015   3.453  16.163  12.976
80345W        W52016  19.692  23.711   4.179
80346W        W52017   8.708  12.682  11.537
80347W        W52018  19.744  28.654  12.012
80348W        W52019  28.400   4.430   0.786
80349W        W52020  32.393  13.998   3.687
80350W        W52021   2.804   5.575  13.097
80351W        W52022  34.669  35.430   2.764
80352W        W52023   1.719  15.757  11.175
80353W        W52024   4.267   8.911  10.754
80354W        W52025  22.995  30.996   0.916
80355W        W52026  39.638  27.576  11.064
80356W        W52027   9.808  14.986   1.943
80357W        W52028  44.925  39.746   2.805
80358W        W52029   0.050   6.034  13.715
80359W        W52030  23.036  27.096  10.647
80360W        W52031  40.756   6.733  13.792
80361W        W52032  33.116   5.652   1.475
80362W        W52033  44.970  26.063   2.106
80363W        W52034  18.676  12.164  12.067
80364W        W52035  24.196   7.675   3.365
80365W        W52036  12.870  17.789   0.744
80366W        W52037  36.511  36.385  14.256
80367W        W52038  15.810  36.037   1.685
80368W        W52039   4.335  29.192   3.668
80369W        W52040  32.215  24.971  13.393
80370W        W52041   1.380  15.695   2.888
80371W        W52042  18.625  29.396  12.549
80372W        W52043  12.953  35.319  10.797
80373W        W52044  23.951  37.319   5.080
80374W        W52045   6.463  12.248  14.916
80375W        W52046   3.757  24.727   0.676
80376W        W52047  20.491  37.292   4.432
80377W        W52048  30.027  13.709   0.623
80378W        W52049  44.349  10.183  14.033
80379W        W52050  41.661  33.545   2.242
80380W        W52051   1.449  25.231  13.067
80381W        W52052  16.510  42.368   2.192
80382W        W52053   1.200  23.194   5.543
80383W        W52054   8.822  10.276  14.292
80384W        W52055  26.149  34.866   2.257
80385W        W52056  37.140   1.849   1.936
80386W        W52057  22.008  40.230   1.234
80387W        W52058  39.501  19.730  12.934
80388W        W52059   2.249  28.996   4.546
80389W        W52060   5.674   2.704  10.656
80390W        W52061   6.970  12.089   0.621
80391W        W52062   6.623  44.893   2.468
80392W        W52063   9.229  24.947  12.554
80393W        W52064  41.493  18.796  12.430
80394W        W52065  20.733  33.738  14.205
80395W        W52066  21.371  44.750  11.933
80396W        W52067  21.278  27.189   0.249
80397W        W52068  31.843  19.300  11.608
80398W        W52069   8.840  28.732  14.936
80399W        W52070  39.477  29.995   1.413
80400W        W52071  42.904  31.592   3.568
80401W        W52072   6.704  11.114  12.764
80402W        W52073  37.530  18.188  10.725
80403W        W52074  26.938  42.956  12.936
80404W        W52075  18.099  29.159   3.440
80405W        W52076  29.063  26.553   2.906
80406W        W52077  27.256  38.859  11.153
80407W        W52078  25.102  28.320   4.508
80408W        W52079  43.973   5.070   1.079
80409W        W52080  39.438  12.079   4.221
80410W        W52081  37.568  32.289  13.812
80411W        W52082  33.522  32.782  13.499
80412W        W52083  19.808  36.839   0.906
80413W        W52084   8.621  32.897   3.192
80414W        W52085   6.371  11.730   5.048
80415W        W52086   8.008  26.661  12.907
80416W        W52087  39.228   6.918   0.344
80417W        W52088   1.002  15.027   3.350
80418W        W52089  21.096  39.985   3.448
80419W        W52090  35.660   3.425  10.708
80420W        W52091  44.300   0.505  12.041
80421W        W52092   5.633   3.323   0.768
80422W        W52093  32.844   4.647   1.357
80423W        W52094  19.194  44.465  11.889
80424W        W52095  18.190  20.262  13.051
80425W        W52096  27.850   7.838  14.880
80426W        W52097   1.298  15.400   4.066
80427W        W52098  22.757   8.228   2.316
80428W        W52099  18.131   2.262  11.125
80429W        W52100  22.146  19.324  14.823
80430W        W52101  19.147  22.624   4.055
80431W        W52102  44.783  27.876   3.575
80432W        W52103  23.620  30.130  12.782
80433W        W52104  21.163  36.778  12.346
80434W        W52105  44.236  27.029  12.944
80435W        W52106  30.635  20.079  11.817
80436W        W52107   9.576  43.493   1.868
80437W        W52108  35.424  14.679  11.455
80438W        W52109  16.110  34.559   4.204
80439W        W52110  13.878  25.577   2.414
80440W        W52111   1.898  26.218   2.681
80441W        W52112  43.286  24.470   2.311
80442W        W52113  12.280  27.407   0.890
80443W        W52114   0.293  44.842  13.328
80444W        W52115  28.442   9.456   4.066
80445W        W52116  23.566  39.545  14.569
80446W        W52117  14.394  24.011   0.289
80447W        W52118  27.048  22.984  13.557
80448W        W52119  19.069  17.548  14.450
80449W        W52120  11.615   5.209   4.103
80450W        W52121  24.212   4.771  14.086
80451W        W52122  11.651  35.131   5.016
80452W        W52123  38.377   1.741  14.813
80453W        W52124  39.031  12.355   1.310
80454W        W52125  32.233   7.689  12.011
80455W        W52126  42.735  29.805  11.862
80456W        W52127  30.694   1.782  14.266
80457W        W52128  37.747  19.562   1.364
80458W        W52129   5.775  22.187  11.565
80459W        W52130  38.284  27.541   4.089
80460W        W52131  22.215  40.556   1.725
80461W        W52132   8.566   4.680   5.113
80462W        W52133  31.617  29.136   4.015
80463W        W52134  39.893  32.416   2.900
80464W        W52135  32.959   5.824  13.097
80465W        W52136  35.186  13.018  13.611
80466W        W52137  40.750  15.612   4.159
80467W        W52138  25.084   8.469  14.815
80468W        W52139  11.587  21.760   0.451
80469W        W52140  11.572  24.021  12.378
80470W        W52141  20.743  26.408   0.755
80471W        W52142  43.348  15.127  10.860
80472W        W52143  19.843  27.408  13.514
80473W        W52144  13.699  22.469  11.157
80474W        W52145  34.133  21.502   4.489
80475W        W52146  17.036  30.944  14.347
80476W        W52147  34.103   8.151  12.653
80477W        W52148  25.267   0.463  10.709
80478W        W52149  14.087  17.499  11.868
80479W        W52150   4.059   1.135  11.012
80480W        W52151  29.023   4.722  12.496
80481W        W52152  20.709   2.220   1.277
80482W        W52153  19.796  28.862   3.588
80483W        W52154  41.915  16.145   1.664
80484W        W52155  23.277  23.216   1.444
80485W        W52156  28.113  22.104   1.348
80486W        W52157   6.069  11.398  11.098
80487W        W52158  32.651  36.991   1.160
80488W        W52159  42.210  12.181   0.871
80489W        W52160  30.922  27.783  14.774
80490W        W52161  42.889  21.201   3.833
80491W        W52162  41.086  37.356  11.035
80492W        W52163  21.200   3.335  10.999
80493W        W52164   4.955   6.757   2.727
80494W        W52165   7.326   1.817  10.663
80495W        W52166  33.834  19.714   2.310
80496W        W52167  36.754  39.024  13.075
80497W        W52168  32.674  39.988  13.616
80498W        W52169  43.971  21.663   2.715
80499W        W52170  20.682  42.353  10.850
80500W        W52171   6.416   9.123   4.320
80501W        W52172  34.904  17.708   2.685
80502W        W52173  43.817   0.713   0.300
80503W        W52174  29.091   5.172   1.236
80504W        W52175  16.207  37.009  12.798
80505W        W52176   9.796  44.332   0.748
80506W        W52177  22.535  39.316   2.341
80507W        W52178  37.325  15.284   0.775
80508W        W52179  39.765  25.972  10.453
80509W        W52180  34.194  33.117  13.026
80510W        W52181  30.605  43.194  13.085
80511W        W52182   5.969  43.975   0.165
80512W        W52183   2.201  43.765   4.024
80513W        W52184  35.816  15.192   1.032
80514W        W52185  37.271  30.644   3.358
80515W        W52186  16.485   8.089  13.807
80516W        W52187   4.083  37.479  12.933
80517W        W52188  29.400  34.974  12.726
80518W        W52189  13.598  23.953   2.262
80519W        W52190   7.420  18.494  12.067
80520W        W52191  44.293   1.169   1.313
80521W        W52192   2.261  21.303  14.472
80522W        W52193   3.407  23.461   0.369
80523W        W52194   2.236  30.450  10.695
80524W        W52195   6.444  25.791  13.422
80525W        W52196   1.819  38.320  11.224
80526W        W52197  20.150  17.480  11.014
80527W        W52198  24.232  32.573  14.320
80528W        W52199  23.099  35.110  10.495
80529W        W52200  32.536  31.171   0.815
80530W        W52201  20.312  12.940  14.411
80531W        W52202   3.474  44.132   2.596
80532W        W52203  33.113  21.198   1.337
80533W        W52204  18.799  19.044   0.403
80534W        W52205   8.998  18.651   3.174
80535W        W52206  28.497  25.333   2.891
80536W        W52207  38.043  32.208  13.006
80537W        W52208  21.160   8.772   2.366
80538W        W52209  12.069  27.215  11.954
80539W        W52210  42.264  15.306  11.026
80540W        W52211  24.256  40.018  12.313
80541W        W52212  34.854  14.707  14.532
80542W        W52213  38.097  39.345   1.386
80543W        W52214   6.284  25.547  13.881
80544W        W52215  20.628  21.638   3.233
80545W        W52216  18.139  27.431   1.875
80546W        W52217   1.052   0.362  13.280
80547W        W52218  22.085   9.346  12.849
80548W        W52219  38.064  30.428   0.537
80549W        W52220  11.202  35.970  12.390
80550W        W52221  11.946  28.044   1.743
80551W        W52222  42.770  42.308   1.576
80552W        W52223  12.365  40.889  13.936
80553W        W52224  36.040  15.757  10.688
80554W        W52225  34.784   2.351  14.914
80555W        W52226  31.851  40.341  11.164
80556W        W52227  27.873  17.046  13.124
80557W        W52228  36.534   7.000  12.974
80558W        W52229  11.852   5.935  11.561
80559W        W52230  41.094  40.267   3.922
80560W        W52231  23.083  25.959  14.521
80561W        W52232  34.202  33.966   0.453
80562W        W52233   5.912   9.425  14.470
80563W        W52234  36.123  17.414   0.343
80564W        W52235   0.317  32.856   1.762
80565W        W52236   8.575   2.436   2.649
80566W        W52237  36.011   6.877   2.766
80567W        W52238  22.621  30.679  14.738
80568W        W52239  19.017  16.031  11.430
80569W        W52240  35.504  38.428  14.090
80570W        W52241  35.551  23.744  11.134
80571W        W52242  19.020   3.174  12.880
80572W        W52243  22.159  41.833   4.601
80573W        W52244  36.491   4.937  13.618
80574W        W52245  43.907  30.631   0.443
80575W        W52246  36.373  43.827  14.275
80576W        W52247   0.368  17.795   1.660
80577W        W52248  34.355  43.747   2.301
80578W        W52249  29.222   8.284  13.392
80579W        W52250  22.092   0.847   3.635
80580W        W52251  22.774  20.022  14.919
80581W        W52252   4.848  13.919  14.903
80582W        W52253  42.109  24.969  10.611
80583W        W52254  10.724  15.571  14.990
80584W        W52255  18.791  42.306  11.478
80585W        W52256  18.288  23.554  14.817
80586W        W52257  15.067  43.263  13.397
80587W        W52258  35.541  44.526  14.757
80588W        W52259  43.664  19.262   2.983
80589W        W52260  39.075  13.018  10.687
80590W        W52261   8.832  18.109  11.590
80591W        W52262  33.951  14.736  12.505
80592W        W52263  24.516  44.442  14.453
80593W        W52264  35.102  10.855  12.556
80594W        W52265  38.505  24.026  12.317
80595W        W52266  44.720   0.106  11.997
80596W        W52267  34.919  36.424   1.215
80597W        W52268  11.139  44.232   3.543
80598W        W52269  11.383   5.001  13.446
80599W        W52270  34.614  39.517  14.308
80600W        W52271  11.712  14.347   4.304
80601W        W52272   9.401  13.631  13.940
80602W        W52273  33.906   4.115  11.069
80603W        W52274  33.044  42.015   3.271
80604W        W52275  15.166   6.739  10.275
80605W        W52276  43.961  11.178   1.202
80606W        W52277  35.424   7.646  10.708
80607W        W52278  11.339  30.021   1.362
80608W        W52279  12.893  35.875  11.547
80609W        W52280  38.071  23.433  14.777
80610W        W52281  26.931  11.725   1.895
80611W        W52282   9.767  21.236   1.470
80612W        W52283   4.516  41.803   4.950
80613W        W52284  25.777   3.491   4.051
80614W        W52285   6.592  10.591   2.212
80615W        W52286   0.274  17.733  12.846
80616W        W52287  15.678   1.777   3.690
80617W        W52288   6.415  15.815  11.994
80618W        W52289   0.095  20.240  14.778
80619W        W52290  16.525  20.390   2.156
80620W        W52291  29.696  19.265   1.265
80621W        W52292   1.781  30.616   0.714
80622W        W52293  25.905  30.782  14.776
80623W        W52294  34.640  27.644   1.128
80624W        W52295  44.273  12.792   0.731
80625W        W52296  37.305  28.371  13.037
80626W        W52297  20.347  24.222   2.401
80627W        W52298  41.427  26.867   4.319
80628W        W52299  19.799  20.603  12.083
80629W        W52300   8.249  29.723  12.460
80630W        W52301  33.446  10.361  10.554
80631W        W52302  21.984  39.916   4.846
80632W        W52303  29.543  29.276   1.671
80633W        W52304  33.509  10.165   3.602
80634W        W52305  31.399  22.726   0.388
80635W        W52306   7.873  30.590  11.111
80636W        W52307  36.583   0.268   1.787
80637W        W52308  28.517  17.347   2.382
80638W        W52309   7.787  19.793   2.647
80639W        W52310  22.218  30.736  13.028
80640W        W52311  14.853  40.990  13.865
80641W        W52312   4.786  19.228   2.308
80642W        W52313   0.803  36.362  12.856
80643W        W52314  12.851  32.752   3.578
80644W        W52315   2.325  16.535   4.906
80645W        W52316  31.176  18.997   3.288
80646W        W52317  13.649   7.862   0.775
80647W        W52318  27.110  41.838   2.723
80648W        W52319  30.254   7.615  12.117
80649W        W52320  39.998  27.608   2.729
80650W        W52321  17.310   2.012  12.918
80651W        W52322  28.353  18.177   4.856
80652W        W52323  20.259  14.560   4.152
80653W        W52324  37.479  29.677   4.646
80654W        W52325  20.986  31.500  10.651
80655W        W52326  34.958  11.624   0.906
80656W        W52327  33.923  35.589  12.655
80657W        W52328   4.740  38.817  14.707
80658W        W52329  26.709  41.692  14.059
80659W        W52330  12.245  42.748   3.237
80660W        W52331  26.526   9.749  12.080
80661W        W52332  21.746  12.918   4.161
80662W        W52333  10.501  44.138   0.195
80663W        W52334  24.602  29.549  13.784
80664W        W52335   0.568  15.134   2.402
80665W        W52336  18.703  24.258   3.983
80666W        W52337  22.267  27.090  14.982
80667W        W52338  21.509  29.461  11.128
80668W        W52339  34.451  12.964   0.921
80669W        W52340  38.815  44.990   0.681
80670W        W52341  14.692  22.462  10.321
80671W        W52342   8.665  23.030   2.779
80672W        W52343  23.490  27.105   3.702
80673W        W52344  22.612  10.243  14.469
80674W        W52345  35.581   9.186   4.633
80675W        W52346  22.179  18.838   1.220
80676W        W52347  34.401  44.732  11.361
80677W        W52348  29.072   2.311   4.709
80678W        W52349  39.314  19.547  14.485
80679W        W52350  39.537  29.523   1.018
80680W        W52351  29.982  43.915  13.063
80681W        W52352  38.574  22.233   3.232
80682W        W52353  41.760  26.562   4.948
80683W        W52354  33.978  37.530  12.096
80684W        W52355  32.035  28.960   3.753
80685W        W52356  32.912  37.131   1.828
80686W        W52357   5.207   7.671  11.683
80687W        W52358  36.836  29.847  10.606
80688W        W52359  22.592  16.592  11.990
80689W        W52360  10.103  25.194   1.003
80690W        W52361  12.091  31.498   1.286
80691W        W52362  31.990  29.515   4.059
80692W        W52363  11.899   4.438  14.214
80693W        W52364  21.947  20.282   4.780
80694W        W52365  37.602  22.566  13.416
80695W        W52366  43.948  36.931   4.334
80696W        W52367  30.757  13.174   2.389
80697W        W52368  13.193   2.318  11.605
80698W        W52369  37.780  27.233   2.229
80699W        W52370  16.031   2.310   0.359
80700W        W52371  24.286   8.204   4.448
80701W        W52372  23.684  34.419  12.623
80702W        W52373  35.364  40.696   0.060
80703W        W52374  35.908  36.868   3.510
80704W        W52375  16.347   5.437  11.578
80705W        W52376  22.448  11.130  11.523
80706W        W52377  34.947  43.510   1.791
80707W        W52378   8.581  18.993  13.573
80708W        W52379  43.572  17.041   1.262
80709W        W52380   7.542  32.230  10.619
80710W        W52381   0.967  39.045   4.533
80711W        W52382  32.461  10.892   2.915
80712W        W52383   6.902  28.353   0.599
80713W        W52384  21.998  21.205  12.511
80714W        W52385  27.142  15.639  12.915
80715W        W52386  25.576  19.538  14.000
80716W        W52387  13.126   7.426   1.187
80717W        W52388  40.805  29.880  11.450
80718W        W52389  35.092  13.391  12.359
80719W        W52390  23.500  32.976  14.417
80720W        W52391  11.215  40.920   1.245
80721W        W52392  15.517  41.376   9.964
80722W        W52393  38.270  31.076  14.908
80723W        W52394  11.591   0.120   0.302
80724W        W52395  35.955  18.975   1.277
80725W        W52396  11.634  35.800   1.850
80726W        W52397  30.633  10.438   2.871
80727W        W52398   7.222  14.885  13.799
80728W        W52399  26.275   2.718  12.391
80729W        W52400  18.342  27.530   2.339
80730W        W52401  40.074  42.974   3.823
80731W        W52402   2.363  18.344   2.793
80732W        W52403  18.298   3.511  11.204
80733W        W52404  29.195  19.134   1.235
80734W        W52405  23.683  24.706   3.787
80735W        W52406  36.137   0.318   4.037
80736W        W52407  18.291   1.313   2.749
80737W        W52408   1.984  25.039   3.207
80738W        W52409  43.519  44.831   0.805
80739W        W52410  14.060  10.752   1.683
80740W        W52411  43.248  44.404   2.431
80741W        W52412  36.309  27.724  10.433
80742W        W52413   3.363  26.451  10.730
80743W        W52414  17.582  42.363  11.972
80744W        W52415  18.354   7.362  11.439
80745W        W52416  20.654  25.093   0.543
80746W        W52417  17.642  18.691   4.118
80747W        W52418  36.911  40.464  10.399
80748W        W52419   8.680   4.718   3.152
80749W        W52420  14.163  39.554  10.511
80750W        W52421   2.521  12.694  10.618
80751W        W52422  31.216  21.503   2.208
80752W        W52423  18.703  34.567  11.172
80753W        W52424   0.289   9.823   3.311
80754W        W52425  37.278   6.859  11.756
80755W        W52426  24.627   1.740   3.869
80756W        W52427  26.695  26.064   2.841
80757W        W52428  42.432  21.876   2.726
80758W        W52429  41.061  15.549  14.599
80759W        W52430  32.063  25.043   2.352
80760W        W52431  14.678  11.223  14.327
80761W        W52432  21.772   1.308   4.167
80762W        W52433   3.238  42.751   0.855
80763W        W52434  44.398  23.711   5.035
80764W        W52435  34.898   6.339  12.938
80765W        W52436  33.741   5.217  13.897
80766W        W52437  23.458  12.755   4.932
80767W        W52438   7.490  34.197   4.506
80768W        W52439  14.049  40.765   2.178
80769W        W52440  12.601   1.982  12.124
80770W        W52441   8.919   7.366   0.343
80771W        W52442   2.042  27.880   1.789
80772W        W52443  42.409  12.837   0.208
80773W        W52444  30.120  36.596  13.601
80774W        W52445  23.500  28.220   0.232
80775W        W52446   2.649  20.090  10.637
80776W        W52447  29.183  28.026   1.270
80777W        W52448  11.245   1.997   0.376
80778W        W52449   5.742  17.500  10.620
80779W        W52450   9.965  25.716  12.874
80780W        W52451  29.483  31.986  11.082
80781W        W52452   4.004  19.709   0.217
80782W        W52453  36.030  38.951  11.019
80783W        W52454  37.640  41.808  10.762
80784W        W52455   4.883   1.244  12.069
80785W        W52456  10.328   5.635   2.605
80786W        W52457  42.008  12.306  12.478
80787W        W52458  26.934  14.014  12.416
80788W        W52459   9.251  30.737   1.247
80789W        W52460  24.541  14.042   0.917
80790W        W52461  19.712  25.981  14.068
80791W        W52462  35.446  24.177  14.336
80792W        W52463  10.826   6.916   2.802
80793W        W52464   8.246  10.740   3.283
80794W        W52465  43.952  25.721   4.419
80795W        W52466   8.798  18.483  10.081
80796W        W52467  36.327   9.724   0.954
80797W        W52468  16.316   7.349  13.355
80798W        W52469  14.373  14.812  14.047
80799W        W52470   8.420  11.308   1.473
80800W        W52471   5.853  35.356   2.244
80801W        W52472  20.094  23.982   2.797
80802W        W52473  22.267  16.967  14.449
80803W        W52474  26.778  41.015  10.784
80804W        W52475   2.792  36.468  13.942
80805W        W52476   5.847  29.467  11.530
80806W        W52477  16.604  34.427  12.865
80807W        W52478  10.228  31.513  14.934
80808W        W52479   9.832   9.829  14.772
80809W        W52480  18.577  32.960  14.913
80810W        W52481  35.898  15.619  12.459
80811W        W52482  24.772  26.199  14.085
80812W        W52483  13.978  42.911   1.937
80813W        W52484  42.737   1.160   2.251
80814W        W52485  36.101  43.746  12.508
80815W        W52486  41.025  33.452  11.687
80816W        W52487  22.236  44.818  11.034
80817W        W52488   5.395  11.019  14.049
80818W        W52489   0.843  36.124   2.458
80819W        W52490  38.012  37.095   0.853
80820W        W52491   5.438  36.103  13.840
80821W        W52492  15.743   7.895  10.281
80822W        W52493  44.443  23.725  12.052
80823W        W52494  14.248   1.476   3.354
80824W        W52495  17.258  11.037   2.693
80825W        W52496  35.756  26.712   0.663
80826W        W52497  13.365  15.601  13.440
80827W        W52498  19.306  15.065  12.519
80828W        W52499  25.620  40.547   0.456
80829W        W52500  39.477  35.143   3.662
80830W        W52501  19.053  30.867   2.300
80831W        W52502  23.172   1.894   0.979
80832W        W52503   5.723  30.199   1.826
80833W        W52504  26.096  19.779   3.906
80834W        W52505  21.126  12.362   1.203
80835W        W52506  44.514   8.879  11.404
80836W        W52507  20.281  25.635  13.472
80837W        W52508  39.733  11.164  11.577
80838W        W52509  27.903  18.837   0.210
80839W        W52510   3.034  37.476   2.686
80840W        W52511  36.516  11.097  12.325
80841W        W52512  42.310  31.610  14.443
80842W        W52513   5.837  32.929  10.690
80843W        W52514  37.064  36.871  13.365
80844W        W52515  12.639  21.460  11.047
80845W        W52516   8.154   4.814  12.175
80846W        W52517  31.799  30.517   0.237
80847W        W52518  24.046   5.662  11.626
80848W        W52519  17.545  16.506   1.265
80849W        W52520  41.516  16.733  13.889
80850W        W52521  35.899  20.330  12.783
80851W        W52522  30.328  14.032  12.981
80852W        W52523  28.870  29.319   1.038
80853W        W52524  41.780  22.399  10.687
80854W        W52525   2.821   4.329   3.446
80855W        W52526  41.632  39.332  12.134
80856W        W52527  38.355   4.270  14.963
80857W        W52528  43.866   5.126   1.881
80858W        W52529  35.859   2.709  14.403
80859W        W52530   6.300  36.103   4.179
80860W        W52531  15.068   2.448   3.685
80861W        W52532  40.410  15.057   3.156
80862W        W52533  23.598  12.482  13.037
80863W        W52534   4.395  35.339  13.363
80864W        W52535  37.621  38.107  12.002
80865W        W52536  44.517  13.710   5.507
80866W        W52537  15.748  14.115   0.343
80867W        W52538  21.452  31.180   2.592
80868W        W52539  16.148  36.600  10.695
80869W        W52540  15.712  31.898  13.373
80870W        W52541   0.371  10.673  11.069
80871W        W52542  38.288  12.768  12.616
80872W        W52543  35.048  34.743   1.315
80873W        W52544  26.524   1.414  11.165
80874W        W52545  22.568  37.831  12.458
80875W        W52546  43.287  43.937   2.764
80876W        W52547   3.343  13.537  12.869
80877W        W52548  17.563  11.753   0.245
80878W        W52549  26.996  12.912   4.548
80879W        W52550  19.247   0.431   3.703
80880W        W52551  31.521  23.070   3.316
80881W        W52552  31.978   3.703   1.953
80882W        W52553  31.982  17.348  14.194
80883W        W52554  28.671  10.066   0.677
80884W        W52555   5.316   4.417   2.255
80885W        W52556  37.297  16.425  11.813
80886W        W52557   3.520   8.851  12.972
80887W        W52558  25.662   8.592  10.266
80888W        W52559  22.542  25.419  12.477
80889W        W52560  21.192  43.554   0.807
80890W        W52561  41.470   8.159   3.705
80891W        W52562  26.478   2.864  11.663
80892W        W52563   2.334  14.971  11.052
80893W        W52564  21.532   5.907   4.117
80894W        W52565  18.762  10.133  13.295
80895W        W52566  15.248   0.037  12.991
80896W        W52567  36.826  30.698   2.802
80897W        W52568  34.510  13.104  10.536
80898W        W52569   8.128  26.229   3.607
80899W        W52570  36.469  14.200   4.668
80900W        W52571   3.494   3.360   1.446
80901W        W52572  41.547  31.422  12.524
80902W        W52573  27.784  26.482  11.244
80903W        W52574  11.658  25.653  10.669
80904W        W52575  27.441  41.000  13.472
80905W        W52576   2.961  16.730  11.105
80906W        W52577  26.996   5.949   0.383
80907W        W52578  41.429   4.795   4.644
80908W        W52579  15.591  43.039   2.616
80909W        W52580   2.914  37.314  12.049
80910W        W52581  44.961  15.990   3.996
80911W        W52582  18.657  37.071   3.316
80912W        W52583  28.867  33.823   2.082
80913W        W52584  44.438  11.554  13.279
80914W        W52585  28.166  35.612  12.928
80915W        W52586  12.890  36.615  13.442
80916W        W52587  29.944   9.730   3.812
80917W        W52588  26.069  33.107  11.754
80918W        W52589  10.166  20.497   2.288
80919W        W52590  10.615  38.760  12.704
80920W        W52591  12.380  41.378  11.421
80921W        W52592   2.703  29.589  12.157
80922W        W52593  29.578  34.984   0.472
80923W        W52594  43.727  26.245  12.543
80924W        W52595  40.811  39.985   1.381
80925W        W52596  40.552  37.569   4.819
80926W        W52597  16.688  11.589   0.809
80927W        W52598  38.105  25.109  11.521
80928W        W52599  17.674   5.236   1.983
80929W        W52600  23.126   4.929   3.573
80930W        W52601  19.268  42.472   1.637
80931W        W52602   2.197  43.792  11.485
80932W        W52603  21.300  19.626  10.934
80933W        W52604  18.199   3.194   0.538
80934W        W52605  31.679  44.288   0.129
80935W        W52606   8.876  13.145  11.734
80936W        W52607   9.223  16.767  14.009
80937W        W52608  12.757  19.313   2.667
80938W        W52609   2.327  27.618  12.487
80939W        W52610  24.722   3.326   0.055
80940W        W52611  11.993   9.847   2.842
80941W        W52612  40.323  17.348  12.378
80942W        W52613  21.181  42.120   3.748
80943W        W52614  36.930  27.061  10.621
80944W        W52615  21.056  27.990  13.478
80945W        W52616  18.011  10.338  11.073
80946W        W52617  16.281  19.201   3.931
80947W        W52618   1.369  32.824   2.418
80948W        W52619  40.057  10.575   0.278
80949W        W52620   0.373   0.686   0.420
80950W        W52621  19.061  16.866  11.103
80951W        W52622   5.267   6.193  10.565
80952W        W52623  21.271  40.897  11.599
80953W        W52624   4.400  21.574   1.259
80954W        W52625   3.813  41.414  14.744
80955W        W52626   5.090  41.231  11.433
80956W        W52627  15.928   1.738  11.395
80957W        W52628  20.111  29.544   4.765
80958W        W52629  32.465  20.310  11.630
80959W        W52630   3.505  12.374   1.450
80960W        W52631   9.617  35.833   1.861
80961W        W52632   7.670   4.795   1.304
80962W        W52633  42.625   0.923   2.721
80963W        W52634   5.313   8.185  12.210
80964W        W52635  42.560  10.818  14.334
80965W        W52636  33.141   7.422   0.795
80966W        W52637   3.658   2.740   1.067
80967W        W52638  36.425  36.863   9.771
80968W        W52639  12.917  12.766  12.337
80969W        W52640   3.293  32.567  14.544
80970W        W52641  23.662   4.225   2.791
80971W        W52642   5.614  30.836   4.261
80972W        W52643   5.419  26.625   2.805
80973W        W52644  31.623  17.626   1.355
80974W        W52645  24.315  41.360  11.451
80975W        W52646  24.124  41.298   2.708
80976W        W52647   8.686  28.185  14.888
80977W        W52648  13.534  21.050   1.435
80978W        W52649   1.813   1.057   4.279
80979W        W52650   4.033  24.672   1.675
80980W        W52651  15.672   4.902  12.535
80981W        W52652  22.078  42.041  14.119
80982W        W52653  20.782  31.750  14.197
80983W        W52654  10.769  33.875  13.738
80984W        W52655  38.424   7.482   0.861
80985W        W52656  24.027   5.721  10.720
80986W        W52657  39.723  42.253   4.239
80987W        W52658   4.664  14.054   4.603
80988W        W52659  27.045  39.515  12.800
80989W        W52660  20.720   8.003   3.784
80990W        W52661  16.987  28.616   3.837
80991W        W52662  22.229  25.909  14.305
80992W        W52663  27.017  34.442  11.224
80993W        W52664   6.582  25.151   1.961
80994W        W52665   3.700   4.968  12.542
80995W        W52666  42.997   1.498  13.363
80996W        W52667  28.114  14.102  11.597
80997W        W52668  40.012   7.216  10.486
80998W        W52669  37.882  10.275   3.625
80999W        W52670  21.982  28.154   0.751
81000W        W52671  42.207  10.962  10.149
81001W        W52672  32.592  34.066  13.886
81002W        W52673  38.585  39.481  10.785
81003W        W52674   1.524  26.258   4.152
81004W        W52675  44.260  34.859  12.012
81005W        W52676   5.754   3.281   3.439
81006W        W52677  16.639   3.308  14.692
81007W        W52678  22.221  36.418   3.177
81008W        W52679  16.367  18.712  11.720
81009W        W52680  30.235  26.123  10.667
81010W        W52681  40.500  42.343   3.351
81011W        W52682  17.963   5.326   5.480
81012W        W52683  24.875  31.799  11.673
81013W        W52684  31.661  16.687   2.271
81014W        W52685  44.417   0.811  10.184
81015W        W52686   8.270  38.933   0.387
81016W        W52687  22.127  38.158  12.442
81017W        W52688  31.551  34.888  12.065
81018W        W52689  19.205   7.586  11.542
81019W        W52690  23.506  10.838   4.118
81020W        W52691   0.866  21.954  14.805
81021W        W52692  44.882  36.888  12.872
81022W        W52693  36.373   0.600  14.808
81023W        W52694  44.345  36.468   2.918
81024W        W52695  31.052   6.736   3.059
81025W        W52696  44.919  35.893  12.028
81026W        W52697  23.007  20.142  10.839
81027W        W52698  34.218  31.654   5.014
81028W        W52699   8.714  31.908   4.560
81029W        W52700  19.332  44.957  13.697
81030W        W52701  35.116  18.609   0.808
81031W        W52702   9.989  34.538   2.296
81032W        W52703  42.027  15.145   2.217
81033W        W52704  32.964  23.554   2.188
81034W        W52705  11.310  15.401  12.593
81035W        W52706  36.350   9.814   3.328
81036W        W52707  41.333  23.116  12.925
81037W        W52708  12.996  13.036   2.782
81038W        W52709  35.349  25.097  11.077
81039W        W52710  41.375  21.675   1.577
81040W        W52711  33.017   5.886  12.134
81041W        W52712  13.846  42.952  11.168
81042W        W52713  36.076  33.661  12.131
81043W        W52714  32.652  40.055   2.441
81044W        W52715  34.629   5.877  10.722
81045W        W52716  14.197   4.368  10.671
81046W        W52717  39.859  37.392   0.023
81047W        W52718  40.077  15.569  12.672
81048W        W52719  22.074  13.161   4.734
81049W        W52720  21.321  43.829   4.030
81050W        W52721   0.834  34.489  14.609
81051W        W52722   3.776  15.082   0.160
81052W        W52723  40.392  13.680  11.424
81053W        W52724  26.747  39.202   0.946
81054W        W52725   9.242  17.115  12.057
81055W        W52726  39.283  39.538   4.745
81056W        W52727  10.340  33.441   1.834
81057W        W52728  19.201  27.542  14.853
81058W        W52729  39.312  33.842  14.312
81059W        W52730  27.607  18.112   0.929
81060W        W52731  26.534   2.237   4.535
81061W        W52732  39.208  33.292   9.898
81062W        W52733   7.705  39.543  13.442
81063W        W52734  26.474   0.443   4.095
81064W        W52735   2.724  41.904  10.652
81065W        W52736   7.923  29.127  12.086
81066W        W52737   4.866   8.527   3.037
81067W        W52738  36.456  42.936   3.069
81068W        W52739  41.095  15.331   3.889
81069W        W52740  29.478  43.311  14.841
81070W        W52741  18.569   4.941  14.476
81071W        W52742  28.460  29.585   1.232
81072W        W52743  32.053   0.971   2.842
81073W        W52744   3.279  42.475  13.757
81074W        W52745  19.216  40.501  14.892
81075W        W52746  38.096  29.557   1.036
81076W        W52747  19.174  23.129   2.797
81077W        W52748  41.453  16.739   4.498
81078W        W52749  31.080  33.412   0.952
81079W        W52750  17.219  40.611   1.307
81080W        W52751  37.060  19.810  13.420
81081W        W52752  19.015   0.939   0.464
81082W        W52753  15.704   4.318   5.049
81083W        W52754  42.558  22.565   1.306
81084W        W52755  39.047  24.294  13.538
81085W        W52756   8.211  13.025   3.177
81086W        W52757  40.805   6.353   3.183
81087W        W52758  17.234  36.323   2.653
81088W        W52759  43.701  11.785  14.019
81089W        W52760   5.205   1.525   2.204
81090W        W52761   5.155  23.540  13.131
81091W        W52762  41.813   6.649   1.535
81092W        W52763  24.540  34.834   0.696
81093W        W52764   3.252  31.867  13.329
81094W        W52765  34.969  28.593   1.488
81095W        W52766  42.886   1.485  14.776
81096W        W52767  15.740  15.704   3.476
81097W        W52768  31.156  32.536   2.265
81098W        W52769  21.320  24.201   3.277
81099W        W52770  40.367  20.142  10.425
81100W        W52771  36.598  16.301  12.663
81101W        W52772  20.662   4.152  14.192
81102W        W52773  27.800  35.153  14.893
81103W        W52774  18.770   4.207  12.810
81104W        W52775  14.546  31.185   1.022
81105W        W52776  35.571  44.332  11.184
81106W        W52777   9.524  32.501  13.256
81107W        W52778  44.887   2.917  10.536
81108W        W52779  34.686  25.168  14.688
81109W        W52780  18.341  11.668  13.161
81110W        W52781   9.982  41.298   4.158
81111W        W52782  22.617  34.097   1.304
81112W        W52783   2.653  30.730  10.811
81113W        W52784  11.229  22.384   0.359
81114W        W52785  19.668  13.155  10.541
81115W        W52786   6.800  39.552   3.590
81116W        W52787   8.148  13.076   1.711
81117W        W52788   5.605  23.668  10.820
81118W        W52789  37.787  31.073   2.970
81119W        W52790  16.689   4.823  12.874
81120W        W52791  13.877  34.864   4.253
81121W        W52792  35.158  41.423   3.295
81122W        W52793  31.537   5.902   0.933
81123W        W52794  41.506  42.387   3.275
81124W        W52795  11.237  32.117  12.000
81125W        W52796  21.203   4.206  14.915
81126W        W52797  10.627   0.076   4.259
81127W        W52798  44.235  17.767   1.180
81128W        W52799  10.686  37.896  14.752
81129W        W52800  39.107  12.631   2.898
81130W        W52801  42.872  21.029   5.377
81131W        W52802  33.127  32.618  11.484
81132W        W52803   3.388  44.354  12.566
81133W        W52804  34.139  16.502  13.337
81134W        W52805  30.661  11.346   2.690
81135W        W52806  43.896  30.539   4.572
81136W        W52807  20.776  40.557  11.629
81137W        W52808  30.734   8.464   2.583
81138W        W52809  36.974  16.979   3.648
81139W        W52810  10.569  31.643  13.516
81140W        W52811   9.826  36.536  12.437
81141W        W52812  27.522  10.136   0.479
81142W        W52813   9.205  11.638  13.583
81143W        W52814   8.382  27.591  11.386
81144W        W52815  12.883  28.125   1.489
81145W        W52816  14.378  44.179   2.478
81146W        W52817  35.021  25.477   1.031
81147W        W52818  44.317  38.830   0.330
81148W        W52819  28.387   8.656   0.495
81149W        W52820  28.900  43.549  13.012
81150W        W52821  26.220  20.156  13.020
81151W        W52822  16.692  33.131  14.477
81152W        W52823  13.730   7.346  10.918
81153W        W52824   0.935  13.142   3.832
81154W        W52825  27.200  25.580  11.588
81155W        W52826  14.649   4.830   0.829
81156W        W52827   3.316  38.086  14.948
81157W        W52828   7.419  22.012  11.774
81158W        W52829  16.866  21.205  13.752
81159W        W52830   8.675  40.004   2.355
81160W        W52831  21.060  10.805   2.193
81161W        W52832  23.171  36.417  14.381
81162W        W52833  30.702  32.599   0.953
81163W        W52834   5.329  24.736  11.152
81164W        W52835  19.656  40.325   1.744
81165W        W52836  40.366  40.731   2.382
81166W        W52837   0.831  38.940  14.090
81167W        W52838  30.023  39.048  13.073
81168W        W52839   6.408  32.618  11.910
81169W        W52840  20.016  40.342  13.904
81170W        W52841  19.078  26.985  12.512
81171W        W52842  41.676  12.157   1.892
81172W        W52843  38.591  20.153  12.567
81173W        W52844  20.620  12.069  10.197
81174W        W52845  17.267  36.368  12.186
81175W        W52846  31.938  26.302  11.945
81176W        W52847  44.914  17.242   2.292
81177W        W52848  41.753  37.854   3.711
81178W        W52849   8.398   2.355   0.236
81179W        W52850   8.690  15.824   2.677
81180W        W52851  15.649  44.193  12.456
81181W        W52852  33.016  24.752  11.445
81182W        W52853  16.821   8.697  12.442
81183W        W52854  23.411  22.512  12.002
81184W        W52855   9.646  11.355  12.880
81185W        W52856   0.526   0.451  10.660
81186W        W52857  41.609  17.639  12.008
81187W        W52858  14.719  42.708   0.320
81188W        W52859  25.340  19.218   2.319
81189W        W52860  24.734   0.891  14.370
81190W        W52861   8.359   5.099   0.268
81191W        W52862  21.349  10.524  14.905
81192W        W52863   4.764  29.245  13.826
81193W        W52864  28.681  14.361  13.428
81194W        W52865  25.130  19.533   1.866
81195W        W52866  24.600  35.148  14.345
81196W        W52867   1.209   9.387  12.069
81197W        W52868  18.105   2.401   1.016
81198W        W52869  28.323  36.995  10.777
81199W        W52870  43.497  28.692  13.097
81200W        W52871  44.718  25.880  13.911
81201W        W52872  13.318   0.657  13.917
81202W        W52873   7.776  10.654  11.591
81203W        W52874  37.833  32.882   1.925
81204W        W52875  25.153  28.464  13.871
81205W        W52876  29.398   4.950   2.689
81206W        W52877  23.331  28.397  11.068
81207W        W52878  11.381  26.583  11.834
81208W        W52879   0.094  11.693   0.064
81209W        W52880  39.831  33.312   4.752
81210W        W52881  35.258   4.340   0.982
81211W        W52882  27.753  36.090  11.214
81212W        W52883   5.503   3.113   4.155
81213W        W52884  15.738   1.899   3.192
81214W        W52885  13.615  44.780   3.522
81215W        W52886  41.528  20.213  11.203
81216W        W52887   0.389  17.076   4.917
81217W        W52888   0.574  14.569  14.764
81218W        W52889  23.682  37.556  12.044
81219W        W52890  26.155  39.878   3.388
81220W        W52891  35.419  37.593  12.678
81221W        W52892  43.274  37.468   0.517
81222W        W52893  17.544   5.882  11.324
81223W        W52894  28.971   2.088  11.289
81224W        W52895  26.912  20.772   2.197
81225W        W52896  19.601  14.575   4.088
81226W        W52897  25.060   1.915   4.135
81227W        W52898   0.787  18.318   1.639
81228W        W52899  18.254  10.879  12.080
81229W        W52900  11.747  36.478   9.966
81230W        W52901  17.737   6.630   4.198
81231W        W52902   0.044  38.455   0.716
81232W        W52903  14.956   6.632   2.429
81233W        W52904  13.075  29.068  11.895
81234W        W52905  36.611  36.221   3.669
81235W        W52906  29.840  28.881   3.118
81236W        W52907  15.840  10.131   3.199
81237W        W52908   9.250  32.060   3.201
81238W        W52909  10.237   9.457   3.281
81239W        W52910   6.790   5.724  13.871
81240W        W52911  21.625  14.046   0.363
81241W        W52912  39.025   1.712   4.712
81242W        W52913  31.618   0.904   3.125
81243W        W52914  32.939  36.977  14.971
81244W        W52915  24.957  23.182   0.722
81245W        W52916  38.535   4.883   4.188
81246W        W52917  27.583  27.937  11.964
81247W        W52918  11.921  32.274   3.201
81248W        W52919  44.562  24.222  13.373
81249W        W52920   4.628   2.473   0.683
81250W        W52921  13.816   0.537  13.885
81251W        W52922  18.985  21.974  14.537
81252W        W52923   8.263  31.139  13.984
81253W        W52924   9.763  30.021   1.246
81254W        W52925  10.271  16.102  10.664
81255W        W52926   0.831   4.821  10.639
81256W        W52927  29.503  23.502   4.731
81257W        W52928  44.257  31.719  13.355
81258W        W52929  44.736   3.488   0.813
81259W        W52930  33.604  33.385   2.722
81260W        W52931   3.103  19.546   1.776
81261W        W52932  42.930   9.856   1.742
81262W        W52933  15.537   2.251   0.493
81263W        W52934   4.729  24.964   2.369
81264W        W52935  13.556  12.100  11.458
81265W        W52936   5.715  31.837   4.220
81266W        W52937  20.556  34.692   0.603
81267W        W52938   2.334  38.866  12.789
81268W        W52939  31.518  12.503  11.225
81269W        W52940  18.723  33.498  12.597
81270W        W52941  39.954  34.938  13.232
81271W        W52942   5.709  21.687  11.474
81272W        W52943  44.989  34.452  11.145
81273W        W52944  19.863  26.089   4.646
81274W        W52945  12.656  12.586   1.106
81275W        W52946  12.337   4.716   1.311
81276W        W52947   8.846  34.565   3.894
81277W        W52948  34.011  26.487   1.638
81278W        W52949   6.259  21.513   3.721
81279W        W52950  11.715  10.139  11.737
81280W        W52951  33.517   7.647   5.034
81281W        W52952  41.248  42.125   0.853
81282W        W52953  23.843  15.579   1.751
81283W        W52954  13.874  42.184   3.694
81284W        W52955  37.825  31.393   3.365
81285W        W52956   0.406  29.640  14.920
81286W        W52957  17.978  11.296   3.298
81287W        W52958  39.597   1.707   3.740
81288W        W52959  10.919  38.457   4.122
81289W        W52960   0.730   7.779  13.001
81290W        W52961  19.407  22.039  13.315
81291W        W52962   6.874  33.693   3.815
81292W        W52963  22.768  18.663   0.755
81293W        W52964  32.953  23.152  13.764
81294W        W52965  18.145  40.380  13.979
81295W        W52966   7.146  15.510  11.588
81296W        W52967  25.489   8.384  14.012
81297W        W52968  30.656  27.578   3.322
81298W        W52969   0.540  19.260  12.859
81299W        W52970  39.073  18.871   1.458
81300W        W52971  18.101   5.665  11.950
81301W        W52972  15.126  21.277   3.400
81302W        W52973  27.075  13.711  10.418
81303W        W52974   3.326  43.970  11.159
81304W        W52975  15.380   2.248   3.314
81305W        W52976  18.301  41.241  12.967
81306W        W52977  19.367  12.375   2.156
81307W        W52978   1.037  24.585   2.671
81308W        W52979  17.636   6.468   3.399
81309W        W52980  44.448  36.594   1.461
81310W        W52981  19.686  15.195   4.563
81311W        W52982   5.906  41.771   2.241
81312W        W52983   9.865  17.748  11.220
81313W        W52984  11.835  37.547  14.452
81314W        W52985  29.835  33.835  13.533
81315W        W52986  36.950  27.997  12.932
81316W        W52987  22.892   3.795  14.342
81317W        W52988  44.507  39.305   1.205
81318W        W52989  42.887  27.776  14.772
81319W        W52990   4.416  42.921   2.516
81320W        W52991   6.883  35.754   1.665
81321W        W52992   8.479  24.259   4.406
81322W        W52993  44.812  22.049  13.085
81323W        W52994  29.984   9.362  13.112
81324W        W52995  12.147  21.255  13.430
81325W        W52996  33.578  16.148  10.660
81326W        W52997  34.458  43.794  10.486
81327W        W52998  25.553   7.110   1.053
81328W        W52999  19.148   0.983   2.263
81329W        W53000  32.137  40.255  12.134
81330W        W53001  12.130  41.827  14.425
81331W        W53002  38.945  25.003   0.690
81332W        W53003  41.021  27.216   0.167
81333W        W53004  12.149   2.152  11.429
81334W        W53005   7.306   8.830   3.771
81335W        W53006  12.565  30.624  10.720
81336W        W53007  44.466  27.148   1.305
81337W        W53008   3.019  13.266  11.934
81338W        W53009  36.331  17.279  11.104
81339W        W53010  28.989  37.830  12.104
81340W        W53011   2.229  36.380   2.154
81341W        W53012  38.998  31.399  13.545
81342W        W53013  17.286  32.637  10.854
81343W        W53014  14.619  15.573  10.999
81344W        W53015  33.118  11.128   2.645
81345W        W53016  15.606  16.878   2.878
81346W        W53017  43.836  21.977  10.227
81347W        W53018  10.069  43.516  10.443
81348W        W53019  30.760   8.235  11.640
81349W        W53020   3.357  12.694   4.586
81350W        W53021  38.628  32.085   3.678
81351W        W53022  41.373  17.104   0.257
81352W        W53023  31.482  26.013   0.877
81353W        W53024   7.685  28.329  13.967
81354W        W53025   9.292  33.155   3.851
81355W        W53026  40.565   8.958  14.245
81356W        W53027  33.334  19.208   4.537
81357W        W53028  21.065   8.359  12.644
81358W        W53029  41.142  28.973   2.721
81359W        W53030  11.689  16.771   2.136
81360W        W53031  36.897  32.654  13.713
81361W        W53032  25.489   1.778  13.165
81362W        W53033  38.241  21.358   4.071
81363W        W53034  34.168  34.549   2.395
81364W        W53035  28.356   7.793   0.528
81365W        W53036   0.832  36.135   4.634
81366W        W53037  30.391   5.209   1.121
81367W        W53038  33.360   7.421   0.230
81368W        W53039   5.770   8.689  10.541
81369W        W53040  42.052  26.970   1.827
81370W        W53041  23.754  19.399  12.892
81371W        W53042  15.846   2.664  11.165
81372W        W53043  28.462  41.880   2.285
81373W        W53044  29.905  38.521  14.903
81374W        W53045  31.624  24.546  14.885
81375W        W53046   0.071  33.403   3.550
81376W        W53047  10.718  18.583   4.216
81377W        W53048  39.428  33.950  14.822
81378W        W53049  20.794  26.281   3.773
81379W        W53050  32.892  33.511  11.374
81380W        W53051   8.005  29.844  13.310
81381W        W53052  19.195  14.086  14.411
81382W        W53053  31.050  35.924   0.760
81383W        W53054  12.364  21.129  10.733
81384W        W53055  28.250  24.779   0.243
81385W        W53056  28.272  10.403   0.763
81386W        W53057  16.727  34.605   0.202
81387W        W53058  30.494  39.086  11.060
81388W        W53059  13.217  23.355  14.978
81389W        W53060   8.751   5.390  14.359
81390W        W53061  34.799  40.661   0.872
81391W        W53062  40.509  35.886  13.496
81392W        W53063  32.048  41.885   0.439
81393W        W53064   8.833   8.392   2.416
81394W        W53065   8.912  39.871   1.920
81395W        W53066  25.056  29.353   4.796
81396W        W53067  31.157  25.989  12.565
81397W        W53068  31.461  12.786   0.357
81398W        W53069  35.916  23.634  12.967
81399W        W53070   0.806  21.241  13.770
81400W        W53071  35.553  20.154  12.327
81401W        W53072  43.985  29.539  10.595
81402W        W53073   4.768  41.554  12.877
81403W        W53074  20.572  43.900   1.785
81404W        W53075  13.177  36.137   3.285
81405W        W53076  33.006  37.715  11.873
81406W        W53077  37.619  24.164   2.230
81407W        W53078  30.018  44.006   4.567
81408W        W53079  25.905  31.931   0.862
81409W        W53080  18.563  34.919   0.741
81410W        W53081  35.345  18.857   4.857
81411W        W53082   8.263   5.463   3.248
81412W        W53083  17.162   3.830  12.052
81413W        W53084  14.850  17.077  11.599
81414W        W53085  28.012  22.626  10.267
81415W        W53086  27.587  23.535  11.063
81416W        W53087  38.004  17.227  11.842
81417W        W53088  28.069  33.846  11.867
81418W        W53089  22.449  39.699   1.963
81419W        W53090  29.596  26.621  12.755
81420W        W53091   5.850   5.218   3.303
81421W        W53092  10.203  41.474  14.763
81422W        W53093  34.826  21.441  11.120
81423W        W53094  32.076  34.353   0.831
81424W        W53095   4.358  37.086  14.820
81425W        W53096  36.359  16.302  10.983
81426W        W53097  11.653  27.496  14.455
81427W        W53098  33.608  24.848  14.435
81428W        W53099   0.124  20.612   4.615
81429W        W53100  13.788  40.076  11.001
81430W        W53101  43.541  18.276   5.007
81431W        W53102  24.879  12.241   2.186
81432W        W53103  22.372  39.797   2.974
81433W        W53104  43.877  11.821   4.278
81434W        W53105  28.909  22.285   4.787
81435W        W53106  26.246  41.264  14.735
81436W        W53107  42.703   9.209   4.943
81437W        W53108   9.389   4.315   3.638
81438W        W53109  34.027  16.671   4.421
81439W        W53110  14.572  39.338   2.944
81440W        W53111  25.717  13.614   0.252
81441W        W53112   6.636  43.696   1.348
81442W        W53113  22.863  36.451   0.219
81443W        W53114  33.005  36.132   1.386
81444W        W53115   5.298   7.199  11.997
81445W        W53116  18.199  33.943   1.386
81446W        W53117  28.073   7.238   3.690
81447W        W53118  38.440  11.162  12.627
81448W        W53119  12.473  34.451   3.155
81449W        W53120  39.294  33.484  10.683
81450W        W53121  18.133  14.851  11.967
81451W        W53122  11.842  34.930   4.190
81452W        W53123  44.439  23.462  11.520
81453W        W53124  16.570   0.450   3.145
81454W        W53125  29.016  41.607  12.093
81455W        W53126  16.031  33.797  13.800
81456W        W53127  10.272  35.614   4.540
81457W        W53128  25.002  14.882   2.800
81458W        W53129  38.315  16.718  11.993
81459W        W53130  34.288  15.072  12.822
81460W        W53131  21.225  43.812  13.639
81461W        W53132  15.156  14.389  12.808
81462W        W53133  38.156  13.208  14.971
81463W        W53134   2.740  16.072  13.085
81464W        W53135  35.352  15.903   9.896
81465W        W53136   7.472  44.371  12.583
81466W        W53137  12.158  25.152  14.942
81467W        W53138  26.240  30.822  13.894
81468W        W53139  18.536  17.683  11.160
81469W        W53140   1.788  19.094  11.070
81470W        W53141  41.595  10.868   2.467
81471W        W53142  39.113   7.133  11.656
81472W        W53143  38.258  14.879   1.254
81473W        W53144   2.678  31.215  12.409
81474W        W53145   8.655  19.839  11.118
81475W        W53146  12.301  15.116   2.651
81476W        W53147  38.990  29.960  10.310
81477W        W53148   2.631  19.686   0.575
81478W        W53149  11.808  11.657   4.125
81479W        W53150   7.244  38.950  11.627
81480W        W53151  40.983  11.255   3.196
81481W        W53152   3.985   9.415  14.372
81482W        W53153  24.156  41.436  13.477
81483W        W53154  33.286  17.447  11.233
81484W        W53155  42.247  11.875  14.839
81485W        W53156   3.255  27.190   2.235
81486W        W53157  10.304   8.452   3.240
81487W        W53158  27.756  12.879   5.040
81488W        W53159  21.133  34.883   1.984
81489W        W53160   1.571  19.867   5.416
81490W        W53161  10.153  24.768   4.554
81491W        W53162  26.017  38.059   4.132
81492W        W53163  14.194  17.974   3.727
81493W        W53164  42.473  34.526  11.707
81494W        W53165   9.308   8.184   2.299
81495W        W53166  23.280  37.932  12.908
81496W        W53167  22.980  40.491  13.848
81497W        W53168  25.950  15.998  12.539
81498W        W53169  20.279  26.441   3.366
81499W        W53170  43.027  18.453   4.700
81500W        W53171   5.850   7.696  14.832
81501W        W53172   2.502  34.549  12.533
81502W        W53173  13.274  13.424  13.688
81503W        W53174  38.376   9.889   0.952
81504W        W53175  25.724  11.138  13.108
81505W        W53176  18.656  26.552   3.285
81506W        W53177   4.708   0.466   3.679
81507W        W53178   2.117  13.444  14.535
81508W        W53179  15.708  15.383   4.049
81509W        W53180   8.187  16.552   1.778
81510W        W53181   8.416   7.759  11.191
81511W        W53182  30.103  43.883  14.369
81512W        W53183  26.426   7.544  12.837
81513W        W53184  36.624   8.780   2.696
81514W        W53185  33.873  38.068  12.090
81515W        W53186  41.269   9.989   4.098
81516W        W53187  18.753   2.870  14.509
81517W        W53188   8.450   6.715  12.572
81518W        W53189  27.872   4.732  11.962
81519W        W53190  40.055  34.808   4.700
81520W        W53191   3.859  39.364  14.367
81521W        W53192   9.746  18.744   1.498
81522W        W53193  31.385  16.953   2.603
81523W        W53194  11.797  38.899  11.064
81524W        W53195  23.178  20.587   2.803
81525W        W53196  32.928  26.733  11.085
81526W        W53197  37.413  18.179  14.022
81527W        W53198   5.364  33.458  14.409
81528W        W53199  23.003  10.771   2.292
81529W        W53200  44.186  41.152   3.681
81530W        W53201  22.685  30.781   5.163
81531W        W53202  15.661  41.472  11.352
81532W        W53203  33.020  40.626   1.388
81533W        W53204   5.373  19.855   2.744
81534W        W53205   1.844  31.037   2.057
81535W        W53206   6.342  12.946  11.203
81536W        W53207  22.106  10.541  12.566
81537W        W53208  41.530  44.913  13.768
81538W        W53209  32.965   9.996   1.406
81539W        W53210  13.345  35.613  10.653
81540W        W53211  36.940  10.252  10.768
81541W        W53212  32.594  39.513  10.521
81542W        W53213  22.679  19.015   1.322
81543W        W53214  16.103  36.174   2.394
81544W        W53215  10.755  13.842  13.353
81545W        W53216  39.268  30.598  11.083
81546W        W53217  39.091  40.043  12.794
81547W        W53218  21.695  18.398   2.981
81548W        W53219  21.049   7.457  13.288
81549W        W53220  30.698  16.768  12.016
81550W        W53221  39.323  30.071   4.019
81551W        W53222  24.564  26.082   3.316
81552W        W53223   3.166  21.724   5.621
81553W        W53224  44.824   8.464   1.703
81554W        W53225   7.807   4.283  14.496
81555W        W53226  19.260   1.403   0.747
81556W        W53227  35.866  14.375   1.405
81557W        W53228  23.264  12.726  10.704
81558W        W53229  21.535  25.769   0.271
81559W        W53230   7.252  38.507  14.450
81560W        W53231  22.758  44.935  13.161
81561W        W53232   0.052  41.734  11.675
81562W        W53233  31.963   4.674  11.593
81563W        W53234  25.684  13.659   1.120
81564W        W53235  31.970  29.089   1.508
81565W        W53236  36.527   5.623   0.843
81566W        W53237   4.192  29.601   2.838
81567W        W53238  19.798  40.848  13.935
81568W        W53239  34.739   7.134  13.464
81569W        W53240  39.784  17.312  12.178
81570W        W53241  35.047   9.188   3.595
81571W        W53242  16.681  29.409   1.664
81572W        W53243  10.863  14.081  14.722
81573W        W53244   6.752  44.978  14.666
81574W        W53245  28.487  10.793   3.402
81575W        W53246   2.237  24.463   0.731
81576W        W53247  23.004  37.683   0.203
81577W        W53248  11.811  36.798   0.373
81578W        W53249  21.105  31.328   4.969
81579W        W53250  42.459   0.246   0.016
81580W        W53251  37.879  36.589  10.713
81581W        W53252  22.597  30.538  14.246
81582W        W53253  34.873  26.667  11.581
81583W        W53254   7.477  36.030   0.893
81584W        W53255  14.654  27.516   0.039
81585W        W53256  33.515   7.409   4.184
81586W        W53257  20.673  38.580  13.453
81587W        W53258  12.696   3.103  14.898
81588W        W53259  25.280  26.046   2.361
81589W        W53260  20.468  11.002   3.303
81590W        W53261   0.779  24.254  11.857
81591W        W53262  31.142   5.861   1.373
81592W        W53263  11.800  22.528   3.727
81593W        W53264  35.999  29.834  12.344
81594W        W53265  25.704  22.117  11.655
81595W        W53266  15.867  36.093   0.314
81596W        W53267   3.975  42.239   3.638
81597W        W53268  31.924  33.479   3.344
81598W        W53269  17.210   0.009  14.841
81599W        W53270  37.605  35.011   0.414
81600W        W53271   1.648  33.373   0.314
81601W        W53272  22.576  22.306  14.920
81602W        W53273  28.316  42.113   1.759
81603W        W53274   7.668  26.236  10.546
81604W        W53275  40.475  43.954  11.128
81605W        W53276  24.513  13.836   1.821
81606W        W53277  36.369  35.499   3.642
81607W        W53278  36.956  14.697   2.831
81608W        W53279  42.017  15.224   4.409
81609W        W53280  38.243  39.076  12.028
81610W        W53281  12.958  24.090  14.412
81611W        W53282  12.066   4.453   4.482
81612W        W53283  29.658   8.981  14.407
81613W        W53284   7.294  44.509   0.768
81614W        W53285  19.115  43.968   4.239
81615W        W53286  10.639  44.096   4.214
81616W        W53287  11.846  44.482   4.686
81617W        W53288  34.310  24.412  13.082
81618W        W53289  31.968  12.801   2.059
81619W        W53290  40.709  25.430   2.011
81620W        W53291  25.024  15.523  10.696
81621W        W53292  39.971  40.292  12.642
81622W        W53293  12.179  42.880   1.574
81623W        W53294  24.991  29.650   1.715
81624W        W53295  14.597   8.722  11.082
81625W        W53296   2.774   2.734  14.271
81626W        W53297  16.237  38.623  12.073
81627W        W53298   1.445  40.297  10.667
81628W        W53299  12.120   1.838   1.459
81629W        W53300  26.198   5.789   3.318
81630W        W53301  26.141  34.370  13.988
81631W        W53302  35.055  39.527  13.968
81632W        W53303  33.789   8.660   3.558
81633W        W53304  36.735  24.317  13.621
81634W        W53305  42.009  42.425   3.217
81635W        W53306  26.221   4.076   2.808
81636W        W53307  13.638  11.250  14.303
81637W        W53308  36.941   0.436   3.605
81638W        W53309  42.065   7.180   2.898
81639W        W53310   6.636  27.083  12.102
81640W        W53311  13.232  22.108   2.647
81641W        W53312  15.054  44.509   3.744
81642W        W53313  32.981   7.831  11.155
81643W        W53314  34.163  22.037   0.325
81644W        W53315   4.341  34.613  11.949
81645W        W53316  17.918   3.165  11.303
81646W        W53317   9.774  38.649   2.732
81647W        W53318  13.519   3.180   4.539
81648W        W53319  22.668  33.587   1.735
81649W        W53320  23.793  26.406   4.170
81650W        W53321  14.695  41.334  13.446
81651W        W53322   5.550  20.065  10.894
81652W        W53323   3.845  10.242   0.319
81653W        W53324  42.621   6.142   2.874
81654W        W53325  27.922   1.423  11.897
81655W        W53326  33.311  25.746  11.609
81656W        W53327  23.543  31.975   2.691
81657W        W53328  10.712  24.622   1.938
81658W        W53329  36.503  41.440  12.321
81659W        W53330  33.993  30.887  12.882
81660W        W53331  23.718  35.511   4.381
81661W        W53332  19.620  24.223   4.095
81662W        W53333  43.839  43.912   3.314
81663W        W53334  40.402  14.632  13.046
81664W        W53335  28.069  29.794   2.186
81665W        W53336  15.776   2.422  13.979
81666W        W53337   9.869  26.715   3.553
81667W        W53338   0.046   1.735  11.095
81668W        W53339  31.560  33.870   4.738
81669W        W53340  10.050  12.324   3.204
81670W        W53341  20.714  31.031  13.452
81671W        W53342   2.951   7.171   1.280
81672W        W53343   2.786  35.373   3.212
81673W        W53344  35.579  16.308   0.874
81674W        W53345  15.591  16.085   4.234
81675W        W53346  31.070   2.738   4.581
81676W        W53347  29.405   4.449  13.668
81677W        W53348  11.133  16.072   3.647
81678W        W53349  34.502   4.209   1.098
81679W        W53350   5.045  27.535  11.818
81680W        W53351  28.868  15.183   4.755
81681W        W53352  36.875  37.515  12.777
81682W        W53353   0.510   2.797   0.817
81683W        W53354  10.147  12.702  11.664
81684W        W53355  13.869  35.128   1.723
81685W        W53356  33.366  31.506  12.821
81686W        W53357   4.907  37.044  13.974
81687W        W53358  28.542  35.628  14.697
81688W        W53359   0.495  33.565  12.097
81689W        W53360   5.371  28.158   3.632
81690W        W53361  21.266  26.822  12.055
81691W        W53362  14.096  18.154   2.831
81692W        W53363  21.537  19.317  11.600
81693W        W53364   2.929  11.711  12.846
81694W        W53365  13.561  21.989   2.235
81695W        W53366   1.337   6.215  14.764
81696W        W53367   3.906  43.707  13.883
81697W        W53368  22.135  10.730   4.137
81698W        W53369   0.000  29.649   1.281
81699W        W53370  35.951  35.801   4.669
81700W        W53371  10.787  32.083  13.312
81701W        W53372  21.468  35.724  11.307
81702W        W53373  28.073   8.030  10.635
81703W        W53374   9.533   9.870   4.697
81704W        W53375   6.574  12.694   4.711
81705W        W53376  26.435   3.215  11.238
81706W        W53377  34.454  24.792   0.805
81707W        W53378  15.584   3.500   0.961
81708W        W53379  14.376  26.196  11.059
81709W        W53380  24.010  39.832  14.402
81710W        W53381  17.926   9.963   0.642
81711W        W53382  15.311  44.532  10.734
81712W        W53383  38.054  17.139   0.918
81713W        W53384  20.150  25.025  14.775
81714W        W53385  35.258  33.857   2.716
81715W        W53386  23.493  30.499   4.616
81716W        W53387  17.617  16.032  14.116
81717W        W53388  38.452  12.431  11.724
81718W        W53389  32.872   1.399   2.867
81719W        W53390   1.450  10.185   3.650
81720W        W53391   6.742  24.588  10.731
81721W        W53392  19.556  25.745  12.950
81722W        W53393  24.405   9.631  11.813
81723W        W53394  23.503  39.834  10.755
81724W        W53395  10.570  32.978   3.857
81725W        W53396  19.596   4.003   3.160
81726W        W53397  39.294  44.511   2.797
81727W        W53398  35.651  34.035   0.310
81728W        W53399  26.809  38.026   2.267
81729W        W53400  25.932  21.112   0.387
81730W        W53401  28.500  19.440   4.312
81731W        W53402  15.854  44.018  12.027
81732W        W53403   4.715  42.855  12.887
81733W        W53404  10.747  26.558   3.281
81734W        W53405  26.211  17.594   3.249
81735W        W53406   9.819   1.567   0.329
81736W        W53407  28.062  33.023  11.557
81737W        W53408  18.162   7.560   1.007
81738W        W53409  31.961  32.833   0.308
81739W        W53410   6.672   6.677  10.489
81740W        W53411  20.747   6.903   4.970
81741W        W53412   1.754  31.334  10.735
81742W        W53413  17.487  38.467   4.678
81743W        W53414  25.414  25.486  11.580
81744W        W53415  44.259  18.356  13.742
81745W        W53416  44.674  20.790  11.033
81746W        W53417  15.751   6.869  14.754
81747W        W53418  18.219   3.662   0.761
81748W        W53419  21.999  26.048   5.056
81749W        W53420  40.267   3.291   4.981
81750W        W53421  11.431  24.618  11.550
81751W        W53422  43.105   3.691   5.174
81752W        W53423  40.188  33.942  11.584
81753W        W53424  38.305  18.730  11.511
81754W        W53425  43.158  29.497   5.081
81755W        W53426  29.537  36.577  14.607
81756W        W53427   0.939  15.912   2.603
81757W        W53428   6.822   0.230   3.616
81758W        W53429  32.024  27.653  14.453
81759W        W53430  21.209  38.415   3.808
81760W        W53431  35.255  27.081   4.921
81761W        W53432  14.134  29.097  12.854
81762W        W53433   7.631  19.559   0.471
81763W        W53434  17.111  43.849  11.691
81764W        W53435  29.252  11.071   4.394
81765W        W53436  12.941  15.610   3.271
81766W        W53437  16.340  20.169  12.808
81767W        W53438  18.937  25.180   4.856
81768W        W53439  13.177  43.068   2.849
81769W        W53440   5.703   5.352   3.982
81770W        W53441  35.565  14.222   3.737
81771W        W53442  11.690  24.501  14.719
81772W        W53443  17.081   3.305  12.389
81773W        W53444  25.595  35.912   2.268
81774W        W53445  26.720  19.170  11.114
81775W        W53446  17.475  28.564   9.827
81776W        W53447  34.473  41.534   0.819
81777W        W53448  31.542  13.472  12.814
81778W        W53449  36.533  17.731   2.586
81779W        W53450  28.662  25.385   0.911
81780W        W53451  13.883   2.074  14.683
81781W        W53452  33.033  19.795   3.214
81782W        W53453  41.298  33.831  14.106
81783W        W53454  26.986   0.731   3.747
81784W        W53455  29.524  24.642  10.714
81785W        W53456  15.575   2.108   1.882
81786W        W53457  40.032  21.204   1.979
81787W        W53458  38.539   1.499   4.519
81788W        W53459   4.775  39.779  13.765
81789W        W53460  33.453  26.863  13.877
81790W        W53461  35.375  44.006   4.503
81791W        W53462   1.635  14.254   2.189
81792W        W53463  19.049  30.979   1.171
81793W        W53464  40.735  20.347   1.827
81794W        W53465  28.630  29.226   3.398
81795W        W53466   0.915  24.430   0.009
81796W        W53467  39.480  13.272   1.175
81797W        W53468  43.693  32.926  12.973
81798W        W53469   0.956  42.396  12.500
81799W        W53470  11.797   7.443   0.603
81800W        W53471  41.547  34.949   1.878
81801W        W53472  27.560  27.692   0.515
81802W        W53473  42.017  30.732   2.837
81803W        W53474  15.390   2.206   4.778
81804W        W53475  16.033  11.176  12.515
81805W        W53476  21.556  28.931   0.627
81806W        W53477  18.503  35.846  14.807
81807W        W53478  36.272  25.020   1.207
81808W        W53479  41.009  35.665  13.118
81809W        W53480   8.845  28.286  10.793
81810W        W53481  13.268  34.613   3.488
81811W        W53482  22.064   1.856  13.922
81812W        W53483  15.155  16.785   0.340
81813W        W53484  26.555  10.312   2.204
81814W        W53485   9.156  43.786  13.084
81815W        W53486   3.293   1.792   3.713
81816W        W53487  22.420  38.465  10.507
81817W        W53488  12.205  21.508  12.146
81818W        W53489  25.698  41.562   4.659
81819W        W53490  22.452  11.405   1.704
81820W        W53491  12.227  18.073   2.778
81821W        W53492  16.971  39.288  14.920
81822W        W53493  20.104  20.511  11.192
81823W        W53494   0.641  42.777   0.391
81824W        W53495  36.421  18.674   3.592
81825W        W53496  26.173  31.768   2.692
81826W        W53497  34.014  38.356   5.412
81827W        W53498  22.660  24.729   4.069
81828W        W53499  31.628   5.850   4.168
81829W        W53500  10.389  30.669  12.030
81830W        W53501  20.934  44.064   1.428
81831W        W53502  21.019  37.289  14.563
81832W        W53503  12.870  13.763   4.407
81833W        W53504  26.578  35.170  12.556
81834W        W53505  19.204  13.860  13.938
81835W        W53506  40.315   0.578   2.130
81836W        W53507  10.264  13.761  10.195
81837W        W53508  37.424   0.042   0.912
81838W        W53509   5.968  31.465  13.940
81839W        W53510  43.286   5.447  12.192
81840W        W53511  19.326   5.981   1.290
81841W        W53512  13.309  12.634   2.975
81842W        W53513   7.308  30.382  10.318
81843W        W53514  17.482   9.867   1.873
81844W        W53515  38.859  36.871  10.648
81845W        W53516  17.271  15.435   3.184
81846W        W53517  11.149  17.922  11.701
81847W        W53518  11.322  17.673  10.727
81848W        W53519  15.530  12.341   3.571
81849W        W53520  38.561  42.088  10.585
81850W        W53521   2.150  24.613   2.042
81851W        W53522   3.992  39.458   2.100
81852W        W53523  27.884  23.062   2.775
81853W        W53524  44.824  21.435  10.125
81854W        W53525  28.928  18.913   2.847
81855W        W53526  17.062   5.854   2.854
81856W        W53527  43.762  16.543  13.453
81857W        W53528  37.951  38.457   1.203
81858W        W53529   3.303  26.162  14.517
81859W        W53530  32.123  37.053   3.175
81860W        W53531  14.485  33.601  13.004
81861W        W53532  16.969   4.028  11.454
81862W        W53533   7.257  17.636   4.173
81863W        W53534   7.224  28.654  14.034
81864W        W53535  21.817  16.554   3.782
81865W        W53536  18.502   1.508   1.383
81866W        W53537  36.323  17.197   3.286
81867W        W53538  41.289  22.133   4.551
81868W        W53539   5.739  26.689  13.987
81869W        W53540   2.866  35.474  12.590
81870W        W53541   0.222  18.140  12.491
81871W        W53542  18.023  12.912  11.858
81872W        W53543  14.326   2.950  10.904
81873W        W53544  43.042  36.769  12.893
81874W        W53545   3.500  27.668  12.072
81875W        W53546   7.335  38.772  13.666
81876W        W53547  27.052  43.087  14.435
81877W        W53548  44.052  38.038   2.211
81878W        W53549  23.734  20.567   2.374
81879W        W53550  13.651  32.081  12.740
81880W        W53551  20.097  36.279   1.937
81881W        W53552   0.455  42.409  12.298
81882W        W53553  30.649  21.171   2.886
81883W        W53554   0.983  26.555   4.764
81884W        W53555  34.042  17.795   0.717
81885W        W53556  21.690  29.401  11.615
81886W        W53557  20.154  36.589  14.583
81887W        W53558   3.039  30.535  12.527
81888W        W53559  42.753  12.032  12.847
81889W        W53560  27.788  22.082   1.766
81890W        W53561  18.040  27.155   4.075
81891W        W53562   5.859  39.876  11.562
81892W        W53563  39.352  20.175   1.714
81893W        W53564   7.683  42.873  12.486
81894W        W53565  30.949  28.664  10.665
81895W        W53566   6.445   9.622   1.089
81896W        W53567  24.542   0.836  12.893
81897W        W53568  39.415   4.808  11.629
81898W        W53569  26.505  30.017   3.331
81899W        W53570   5.099  13.592   3.634
81900W        W53571  44.247   1.249   2.497
81901W        W53572  20.142  29.204   0.048
81902W        W53573  33.328   3.784   4.225
81903W        W53574  37.093  27.528  11.537
81904W        W53575  40.591  28.834  14.297
81905W        W53576  34.698   0.172   0.510
81906W        W53577  12.706  43.932  14.867
81907W        W53578   8.852  19.927   4.553
81908W        W53579  33.063  11.240   3.158
81909W        W53580   4.885  15.643   2.263
81910W        W53581  11.275  25.579   1.971
81911W        W53582  29.047  34.110   0.398
81912W        W53583  10.765   2.649   1.700
81913W        W53584  20.261   5.447   2.768
81914W        W53585  32.010  21.338  14.326
81915W        W53586  22.085  35.496   1.441
81916W        W53587  21.556  18.759  12.718
81917W        W53588  34.734  22.885   1.109
81918W        W53589  14.166  12.390  13.408
81919W        W53590   3.784   7.603   2.254
81920W        W53591  20.856  42.559  14.690
81921W        W53592  18.631   6.409  13.845
81922W        W53593  26.567   4.633  14.013
81923W        W53594  24.364  34.232   1.683
81924W        W53595   5.780  23.034   1.841
81925W        W53596  11.046  12.036   4.068
81926W        W53597  31.286  35.784   4.345
81927W        W53598  23.184   2.792  14.389
81928W        W53599  35.330   1.422   2.655
81929W        W53600   1.262  30.957   2.648
81930W        W53601  43.786  44.453  10.609
81931W        W53602  16.607   6.205   1.293
81932W        W53603  44.197  42.854   4.119
81933W        W53604   3.986  36.786  12.512
81934W        W53605  11.083  17.350   1.566
81935W        W53606   9.272  24.681   4.666
81936W        W53607   8.807  34.199   2.443
81937W        W53608  38.508  34.081  11.660
81938W        W53609  24.008  22.956  13.032
81939W        W53610   4.727  10.598  13.850
81940W        W53611  12.206  12.676  11.636
81941W        W53612  18.512   7.912   0.786
81942W        W53613   1.524  36.009  11.117
81943W        W53614  40.625   6.319   0.479
81944W        W53615   6.403  38.792   0.848
81945W        W53616  26.432  44.830   4.380
81946W        W53617  39.462  10.255   4.444
81947W        W53618  25.532  12.685   3.680
81948W        W53619  31.903   7.841  12.400
81949W        W53620   3.353  31.599  13.766
81950W        W53621   5.404  30.966  11.485
81951W        W53622  16.133   5.740   0.467
81952W        W53623  16.702   3.551   0.691
81953W        W53624  17.043  27.489  12.672
81954W        W53625  13.335  23.630  11.481
81955W        W53626   2.808  30.454  12.980
81956W        W53627  21.426   4.871   0.653
81957W        W53628  32.574  28.144   2.751
81958W        W53629  14.231   3.284   1.108
81959W        W53630  12.150  37.310   3.438
81960W        W53631  16.148  42.070   0.979
81961W        W53632  18.913  10.447  12.909
81962W        W53633  44.693  40.353   0.569
81963W        W53634  10.171   2.416   5.019
81964W        W53635  26.980   9.493  13.724
81965W        W53636  14.128  26.096   1.854
81966W        W53637  31.295  38.948   4.714
81967W        W53638  20.197  29.500  14.367
81968W        W53639  33.505  43.285   4.232
81969W        W53640   1.433   4.625  13.797
81970W        W53641   2.855  13.677   0.828
81971W        W53642   3.201  44.775   1.814
81972W        W53643   2.950  40.988   2.412
81973W        W53644  41.522   6.702  12.846
81974W        W53645  44.955  19.600   4.881
81975W        W53646   7.349   3.012   3.125
81976W        W53647  15.275  25.852  13.561
81977W        W53648  34.165  20.588  10.997
81978W        W53649  24.181  20.587   2.765
81979W        W53650  42.917  37.254  13.086
81980W        W53651  10.208  43.238  11.944
81981W        W53652  39.292   6.502  13.473
81982W        W53653  22.217  36.088   2.760
81983W        W53654  34.098  29.274  14.037
81984W        W53655  32.460  37.446   2.911
81985W        W53656  32.082   7.657   0.366
81986W        W53657   2.381  23.559   0.314
81987W        W53658  35.137   1.452  14.785
81988W        W53659  15.725   6.160   0.284
81989W        W53660  32.992  27.965  14.508
81990W        W53661  37.924  20.247  13.942
81991W        W53662  37.310  17.564  13.795
81992W        W53663   6.175  28.648   2.286
81993W        W53664   1.484  23.283  11.498
81994W        W53665  34.522  27.276   0.207
81995W        W53666  17.784   8.710   2.486
81996W        W53667  36.585  39.305  10.215
81997W        W53668  29.014  23.011  13.945
81998W        W53669   2.862  35.593  13.522
81999W        W53670  44.860  13.218   1.469
82000W        W53671   3.299   3.356  12.707
82001W        W53672  43.546  29.600  11.493
82002W        W53673  30.974   9.496  14.933
82003W        W53674  22.548  42.648   4.066
82004W        W53675  18.607  22.596   2.152
82005W        W53676  44.662  40.976   3.712
82006W        W53677   4.727   1.421   2.366
82007W        W53678  30.919  35.643  11.503
82008W        W53679   9.958  34.602  11.697
82009W        W53680  29.531  28.977   0.364
82010W        W53681   7.785  31.072   1.424
82011W        W53682  32.856   9.918  11.200
82012W        W53683  31.142   7.805   4.141
82013W        W53684  38.762  16.226   3.857
82014W        W53685  14.232  34.443  11.631
82015W        W53686  10.315   1.706   2.869
82016W        W53687  22.026  36.499   1.781
82017W        W53688  35.868  11.524  13.838
82018W        W53689   0.053  15.160   2.405
82019W        W53690   1.695   8.710  14.352
82020W        W53691   1.383  39.934   2.855
82021W        W53692  43.522  11.831  12.070
82022W        W53693  18.795  12.432  12.913
82023W        W53694  35.529  19.248   1.295
82024W        W53695   2.699   8.757  11.572
82025W        W53696  38.801   4.231  11.548
82026W        W53697  42.932   6.967  13.251
82027W        W53698  25.048  33.922   3.203
82028W        W53699  17.652  12.493   1.451
82029W        W53700   6.711  11.665  13.121
82030W        W53701  34.270  26.053  11.016
82031W        W53702  13.717  31.485   4.710
82032W        W53703   1.826  34.806   1.815
82033W        W53704  14.038  37.546   3.683
82034W        W53705  25.013  31.676   2.082
82035W        W53706  18.294  42.261  14.815
82036W        W53707  10.191   3.681   4.551
82037W        W53708   4.474  40.861   4.594
82038W        W53709   2.960  25.130  10.508
82039W        W53710  16.151   3.499   0.979
82040W        W53711  16.817  26.961   1.724
82041W        W53712  12.071  22.486  11.863
82042W        W53713  34.939  24.547   0.782
82043W        W53714  23.722  18.680  11.983
82044W        W53715  24.015  15.899   0.454
82045W        W53716   7.883   5.805  14.613
82046W        W53717  17.597  44.846   2.853
82047W        W53718  44.729  24.168   4.564
82048W        W53719   1.398  17.847  13.794
82049W        W53720  10.109  40.081   1.243
82050W        W53721  13.723  13.363   3.221
82051W        W53722  13.323  42.997   3.767
82052W        W53723  23.247  38.593  10.127
82053W        W53724  37.596  23.592  10.942
82054W        W53725  31.028  19.508   0.989
82055W        W53726  30.194  22.032  11.547
82056W        W53727  32.809   1.719   2.448
82057W        W53728  40.662  13.417  14.863
82058W        W53729  20.114   7.404   1.717
82059W        W53730  14.356  33.190   2.454
82060W        W53731  30.938  14.665  13.247
82061W        W53732  28.569  38.935  12.437
82062W        W53733  22.294  29.644  10.688
82063W        W53734  40.334  11.518   3.675
82064W        W53735  13.620  35.203  14.004
82065W        W53736  36.312  35.669  14.787
82066W        W53737  37.393   9.910   2.084
82067W        W53738  32.060  19.080  11.178
82068W        W53739  20.626   3.179   1.149
82069W        W53740  38.767  10.789  13.861
82070W        W53741   5.850  20.732  13.225
82071W        W53742  29.138   0.806  11.618
82072W        W53743   7.608  32.741  10.992
82073W        W53744  41.980  33.251  14.973
82074W        W53745  25.961  41.955   1.755
82075W        W53746  37.331   4.411   4.487
82076W        W53747  37.610  29.509  13.205
82077W        W53748  23.748  28.982  12.995
82078W        W53749   0.400  11.477   2.835
82079W        W53750   2.991  15.314  12.539
82080W        W53751  23.067  39.451  14.703
82081W        W53752  20.515  16.773  14.683
82082W        W53753  35.440  19.603  14.943
82083W        W53754   7.858  27.470  11.221
82084W        W53755   9.071  43.054   2.876
82085W        W53756  26.061   7.120   0.277
82086W        W53757  21.104   5.829  13.178
82087W        W53758  31.008  13.004   4.972
82088W        W53759  16.698   3.223   3.627
82089W        W53760  24.022   2.413  14.244
82090W        W53761  23.283  39.353   4.550
82091W        W53762  26.311  37.659   4.014
82092W        W53763   5.482   6.308   1.341
82093W        W53764  36.645  24.610   1.255
82094W        W53765   9.109   8.783   0.379
82095W        W53766   0.214  20.950  12.002
82096W        W53767  34.444  15.022  12.031
82097W        W53768  20.277  43.905  11.692
82098W        W53769   5.754   2.357   3.631
82099W        W53770  26.104  23.085   4.867
82100W        W53771   9.414  12.648   2.257
82101W        W53772  39.845  23.559  12.936
82102W        W53773   2.914  38.986  11.174
82103W        W53774   3.878  34.927   3.910
82104W        W53775  33.597  29.394   0.864
82105W        W53776   1.413   5.349  14.208
82106W        W53777  30.954  17.777   1.770
82107W        W53778  35.814  24.105   4.116
82108W        W53779  33.890  26.702  10.318
82109W        W53780  34.851  32.750  12.096
82110W        W53781  32.079  30.500  10.799
82111W        W53782  33.449  25.988   4.782
82112W        W53783   7.285  10.369  13.079
82113W        W53784   6.008   5.813  10.724
82114W        W53785  39.555  15.079   1.271
82115W        W53786  10.654  25.555   2.232
82116W        W53787  34.281  18.507  13.320
82117W        W53788  10.517  37.299   2.926
82118W        W53789  11.639  33.841  10.304
82119W        W53790  21.121  10.381  11.044
82120W        W53791  32.514   6.106  11.154
82121W        W53792   8.701   8.950   2.444
82122W        W53793  10.563  13.344  11.463
82123W        W53794  35.220  38.765  11.905
82124W        W53795  25.262  22.994   0.294
82125W        W53796  43.920  38.402  10.256
82126W        W53797  44.347  41.379  13.873
82127W        W53798  26.107  15.812  12.078
82128W        W53799  43.744  40.528  11.435
82129W        W53800  35.488  20.336   0.499
82130W        W53801  39.003  13.352   0.442
82131W        W53802   3.174  29.738  14.854
82132W        W53803  26.550  13.574  14.369
82133W        W53804  40.412   8.179   4.159
82134W        W53805  13.632  41.306   4.643
82135W        W53806  26.336   9.093   3.228
82136W        W53807  37.106  36.964   1.800
82137W        W53808   1.317   6.172  10.700
82138W        W53809  35.940  10.563  10.680
82139W        W53810  35.294  37.346  14.990
82140W        W53811  41.105  34.241   0.321
82141W        W53812  18.107   9.652   2.136
82142W        W53813  35.312  42.742  14.235
82143W        W53814   5.739  22.012  14.223
82144W        W53815   3.769   3.274  12.030
82145W        W53816  12.607  17.330  12.416
82146W        W53817  25.737  33.332   0.748
82147W        W53818   6.416  24.230  13.524
82148W        W53819  18.240  17.030   1.397
82149W        W53820  12.552  14.607   1.771
82150W        W53821  30.574   2.404   0.541
82151W        W53822   4.312  25.407  14.894
82152W        W53823   9.806  40.079   1.888
82153W        W53824  27.552  16.721  11.068
82154W        W53825  24.968  43.864  13.132
82155W        W53826  15.339  13.903  12.930
82156W        W53827   3.501  30.935  13.349
82157W        W53828  15.806  40.547  11.551
82158W        W53829  44.686  32.179   4.274
82159W        W53830   1.859   6.895  14.726
82160W        W53831   5.459   3.503  11.420
82161W        W53832   1.015  16.701   3.303
82162W        W53833  44.045  32.632  11.240
82163W        W53834  26.970  44.528  14.520
82164W        W53835   9.731   6.474  11.980
82165W        W53836  35.584  33.649   0.666
82166W        W53837  28.734  21.084  12.078
82167W        W53838  40.758  42.329   0.735
82168W        W53839  22.380  38.024   2.760
82169W        W53840  21.685  37.418   2.336
82170W        W53841  39.232  43.527   1.430
82171W        W53842   8.752   0.776  12.414
82172W        W53843  24.479  26.039   3.854
82173W        W53844  26.742   4.845  13.062
82174W        W53845  29.492  17.547  11.222
82175W        W53846   4.731  16.195  12.402
82176W        W53847  15.860  29.540  14.859
82177W        W53848   0.782  15.705   4.497
82178W        W53849  21.154  36.185   5.036
82179W        W53850  14.400  12.733   0.986
82180W        W53851  40.464  33.168   4.835
82181W        W53852  39.520  27.357   1.922
82182W        W53853   2.773  10.146  13.778
82183W        W53854  34.101  30.498   2.099
82184W        W53855  13.807  24.728   2.752
82185W        W53856  14.136  17.186   1.750
82186W        W53857  18.600  31.085  11.713
82187W        W53858  20.016  30.984   3.916
82188W        W53859  11.273   7.986   3.144
82189W        W53860  15.532  37.543  12.943
82190W        W53861  37.917  18.137  13.327
82191W        W53862  28.601  32.615   3.349
82192W        W53863  31.415  24.614  11.782
82193W        W53864  20.472  36.317  11.924
82194W        W53865   7.058  32.949  13.869
82195W        W53866   5.642  28.193   0.378
82196W        W53867   0.480  35.869  11.012
82197W        W53868  36.392  35.949   2.846
82198W        W53869  14.158  20.502  13.381
82199W        W53870  25.493  40.422   4.282
82200W        W53871   9.669   2.080  13.923
82201W        W53872  12.821  44.824   0.937
82202W        W53873  12.719  23.536  12.105
82203W        W53874  28.570  44.406  14.861
82204W        W53875  19.041   1.552   3.234
82205W        W53876  40.299   4.452   0.759
82206W        W53877   4.339  38.074   4.291
82207W        W53878   6.873  24.988  13.462
82208W        W53879  17.595   2.875  14.736
82209W        W53880   1.030   2.166  13.079
82210W        W53881  26.902  39.643   2.102
82211W        W53882  11.329  43.291   1.822
82212W        W53883  31.029  19.735   1.990
82213W        W53884  39.490  43.417  11.130
82214W        W53885  37.122  43.843  12.841
82215W        W53886  25.980  29.457   3.358
82216W        W53887  23.995  39.456  11.457
82217W        W53888  34.995  37.511  11.479
82218W        W53889  38.742  41.540  10.808
82219W        W53890  34.014  14.687  13.520
82220W        W53891   1.986   4.974  12.077
82221W        W53892  38.774  34.625  13.692
82222W        W53893  21.645  20.701   4.070
82223W        W53894   8.262  12.636   3.580
82224W        W53895  10.227   2.673  11.642
82225W        W53896  18.469  37.340   2.301
82226W        W53897  33.947  36.272   4.795
82227W        W53898   0.109  16.234  14.488
82228W        W53899   8.367   0.656  10.811
82229W        W53900  24.641  25.557   4.611
82230W        W53901  13.133  40.522  14.892
82231W        W53902   3.881  42.482   3.171
82232W        W53903   3.266  17.003   2.357
82233W        W53904  35.384  12.175   3.579
82234W        W53905   1.254  28.548   2.154
82235W        W53906   1.364   7.213  11.381
82236W        W53907   9.537  35.962  11.658
82237W        W53908  20.754  42.791  12.940
82238W        W53909  28.193   3.723   4.524
82239W        W53910  39.461  20.285  11.379
82240W        W53911  24.004  28.900  14.874
82241W        W53912  10.715  14.809   4.799
82242W        W53913  30.179  21.012  12.115
82243W        W53914  25.246  23.500   0.439
82244W        W53915  13.618  14.101  12.981
82245W        W53916  30.276  39.098   2.831
82246W        W53917  32.849  28.952   0.767
82247W        W53918  42.560  18.579   0.164
82248W        W53919  30.698  25.287  11.994
82249W        W53920   5.247  33.589  12.367
82250W        W53921  44.459  20.081  13.438
82251W        W53922  16.707  21.704   2.248
82252W        W53923  28.707  42.303   2.032
82253W        W53924  33.992  36.075  13.535
82254W        W53925   6.431  39.806   2.775
82255W        W53926  30.773  17.842  12.877
82256W        W53927  12.282  22.018   4.378
82257W        W53928  34.744  38.448  10.191
82258W        W53929  29.430   6.397   2.779
82259W        W53930  35.586  16.735   1.248
82260W        W53931  31.759  29.105  10.436
82261W        W53932  36.756  26.595  13.823
82262W        W53933  37.810  17.687   1.791
82263W        W53934  31.175  41.334  12.651
82264W        W53935  29.561   7.354  13.352
82265W        W53936   4.476  22.699  13.804
82266W        W53937   2.963  38.564  12.588
82267W        W53938  28.589  21.772  14.264
82268W        W53939  27.445  38.964  14.073
82269W        W53940  11.564  17.518   2.857
82270W        W53941  31.619  20.402   4.822
82271W        W53942  14.809  28.020   1.280
82272W        W53943  15.320  12.035   4.145
82273W        W53944  13.680  11.721  14.061
82274W        W53945  10.772   9.803   1.880
82275W        W53946  17.700  12.124  11.952
82276W        W53947  33.884   4.711  13.865
82277W        W53948  44.941  36.779   2.833
82278W        W53949   1.125  10.107   3.112
82279W        W53950  15.596   5.735  14.403
82280W        W53951   3.949   8.873   0.826
82281W        W53952  25.714  30.988   1.911
82282W        W53953  40.852  12.271   2.248
82283W        W53954   4.969  20.345   1.514
82284W        W53955  37.471  42.715  11.003
82285W        W53956   0.791   6.754  12.965
82286W        W53957   5.429  42.526   2.073
82287W        W53958  29.678  18.580   0.086
82288W        W53959  18.327  15.126  12.542
82289W        W53960  26.073  37.876  13.917
82290W        W53961  18.073  36.599   4.705
82291W        W53962  29.572  36.303   1.784
82292W        W53963  43.497   9.270   1.981
82293W        W53964  26.777   8.633   4.108
82294W        W53965  44.232  19.749  11.447
82295W        W53966  14.054  32.658   5.053
82296W        W53967  24.057  33.561   1.831
82297W        W53968  13.511  10.726  10.811
82298W        W53969   9.876  31.919  12.932
82299W        W53970  37.259  35.052  11.050
82300W        W53971  37.341   3.387   1.162
82301W        W53972  14.288  28.089  12.499
82302W        W53973   1.019  19.191   0.377
82303W        W53974  30.883  44.895   4.064
82304W        W53975  40.300  44.949   0.701
82305W        W53976  27.983   3.272   4.629
82306W        W53977  34.474  42.176   4.116
82307W        W53978   1.801  44.406   0.020
82308W        W53979  29.649  36.381   3.739
82309W        W53980  23.703  13.558  11.068
82310W        W53981  23.597  10.442  11.365
82311W        W53982  10.542   2.461  13.820
82312W        W53983  34.650  28.449   0.769
82313W        W53984   9.120   2.432   1.898
82314W        W53985  39.002  39.260   2.938
82315W        W53986  13.371   0.346  10.965
82316W        W53987  30.669  25.997   4.910
82317W        W53988   6.440   8.811  14.914
82318W        W53989  39.965  33.922  13.956
82319W        W53990  31.982  40.961   3.209
82320W        W53991  43.354  32.164   4.877
82321W        W53992   5.721   1.837   3.172
82322W        W53993  19.011   9.927   3.413
82323W        W53994  19.155  41.933  11.155
82324W        W53995  15.913  16.347  14.879
82325W        W53996  20.467  30.019   4.539
82326W        W53997   7.554  44.260  10.674
82327W        W53998  35.973  34.026  13.971
82328W        W53999   9.728  20.768  13.880
82329W        W54000  22.140  23.115   3.576
82330W        W54001  26.055   5.464  12.947
82331W        W54002  11.829  35.968  11.641
82332W        W54003  20.169   9.256   0.850
82333W        W54004  36.407  40.876   3.242
82334W        W54005  24.158  19.525  14.503
82335W        W54006  29.937  35.584  10.726
82336W        W54007  33.125   8.324   3.177
82337W        W54008  14.725   4.276   3.666
82338W        W54009  39.446  14.486   0.466
82339W        W54010   5.236  41.490   1.389
82340W        W54011  29.935  24.987  13.123
82341W        W54012   6.306  20.279   1.953
82342W        W54013  25.574  37.373   4.670
82343W        W54014   7.928  25.331  12.973
82344W        W54015  22.072  16.283   3.273
82345W        W54016  38.576  42.888   2.918
82346W        W54017  12.804  26.008  14.448
82347W        W54018  41.287  36.719  10.725
82348W        W54019  39.859   9.842   3.306
82349W        W54020   2.875  18.036   3.843
82350W        W54021  38.479  24.618   2.983
82351W        W54022  11.627  28.435  11.603
82352W        W54023   4.575  41.925   0.685
82353W        W54024  25.226   2.256   0.345
82354W        W54025  44.451   4.658   0.319
82355W        W54026  15.800  35.748   0.685
82356W        W54027  15.019  11.613   4.148
82357W        W54028  10.112  15.811  11.581
82358W        W54029  40.169  11.411   2.037
82359W        W54030  29.487  36.558   2.715
82360W        W54031  35.846  15.394   0.004
82361W        W54032  39.982  13.195  10.490
82362W        W54033   0.540  38.808   4.368
82363W        W54034   2.934   0.568  11.349
82364W        W54035  35.503  31.582   1.339
82365W        W54036  11.800  34.462  14.978
82366W        W54037  16.172  31.458   4.134
82367W        W54038   6.433  42.728   4.523
82368W        W54039  13.164  32.545   4.387
82369W        W54040  20.235   3.111  14.884
82370W        W54041   5.681  24.338   2.205
82371W        W54042  18.694  17.804   2.850
82372W        W54043   5.814   0.917   5.064
82373W        W54044  17.036   3.838   4.232
82374W        W54045   3.163  35.425  13.130
82375W        W54046  35.589  21.901   1.285
82376W        W54047  15.547  40.104  11.555
82377W        W54048  34.257  27.768  11.429
82378W        W54049  40.609  17.371   3.639
82379W        W54050  31.545  14.586  10.653
82380W        W54051  16.528  42.466   4.657
82381W        W54052  13.660  25.133  12.836
82382W        W54053  27.188  41.442  11.686
82383W        W54054  27.333  31.984  12.037
82384W        W54055  41.669   6.069  11.679
82385W        W54056  15.396  25.551  10.558
82386W        W54057  12.987   9.660   4.870
82387W        W54058   2.315  42.838  12.714
82388W        W54059  30.949  38.131   1.853
82389W        W54060  26.153  12.897  12.562
82390W        W54061  42.737  35.362  11.648
82391W        W54062   7.156  39.836   4.777
82392W        W54063  28.917  10.268  13.908
82393W        W54064  44.748  44.769  13.321
82394W        W54065   7.449  22.059   0.437
82395W        W54066  11.553   2.264  14.051
82396W        W54067  10.419  19.643   3.794
82397W        W54068   2.749  38.587   1.930
82398W        W54069  11.425  35.634  12.051
82399W        W54070  17.083  39.891   3.475
82400W        W54071  18.149  40.356   2.878
82401W        W54072  11.417  22.593   0.833
82402W        W54073  43.178  25.137   4.979
82403W        W54074  12.124   1.308  10.367
82404W        W54075  10.119  23.148  13.562
82405W        W54076   0.495  34.539   1.343
82406W        W54077  21.208  20.250  11.621
82407W        W54078  43.811  30.927   4.094
82408W        W54079  37.900  37.658   0.940
82409W        W54080   0.780  31.757   2.825
82410W        W54081  27.541  34.779  11.549
82411W        W54082  17.345   7.784  14.369
82412W        W54083  12.009  15.884  13.407
82413W        W54084  13.555  40.055   2.694
82414W        W54085   2.728  27.150   2.246
82415W        W54086  31.926  31.397   2.870
82416W        W54087  41.716  21.001   0.822
82417W        W54088   4.624  42.622  14.418
82418W        W54089   1.741   7.839   4.085
82419W        W54090  29.080   8.370   3.257
82420W        W54091   2.860  22.810   0.529
82421W        W54092  29.771  21.350  13.900
82422W        W54093   0.990  31.841  11.725
82423W        W54094   5.181  39.539   4.507
82424W        W54095  35.813  12.040  13.803
82425W        W54096  29.487  10.095   1.346
82426W        W54097  37.790   3.264  12.084
82427W        W54098  17.678  24.515   3.974
82428W        W54099  15.211  27.898   2.789
82429W        W54100  36.725  11.957  11.741
82430W        W54101  27.023  12.106  11.967
82431W        W54102  27.067   1.916   3.376
82432W        W54103  31.971  14.358  11.210
82433W        W54104  10.841   0.714   0.338
82434W        W54105  17.679  21.628  13.382
82435W        W54106  43.593   2.888  14.296
82436W        W54107   8.318  33.999   2.280
82437W        W54108  11.558   3.550  12.647
82438W        W54109   4.923  40.419   1.772
82439W        W54110  10.732  12.040  12.846
82440W        W54111   8.977  36.287  13.364
82441W        W54112  29.761   8.703  13.920
82442W        W54113  35.852  41.948   0.069
82443W        W54114  32.022   8.126  10.560
82444W        W54115  38.488  30.710   3.688
82445W        W54116  15.109  27.398  14.743
82446W        W54117  44.194  43.046  12.070
82447W        W54118  37.338  38.462   3.632
82448W        W54119  17.634   6.824  12.032
82449W        W54120  21.286  23.224   3.296
82450W        W54121   4.649  19.199  12.600
82451W        W54122  36.412  21.301   5.022
82452W        W54123   6.720  26.060   0.318
82453W        W54124  13.985   7.868  12.084
82454W        W54125  15.751   7.254   5.387
82455W        W54126  43.261  29.134  14.540
82456W        W54127  16.225  39.047   0.770
82457W        W54128  15.232   4.384  14.529
82458W        W54129  37.362  15.990   1.181
82459W        W54130  29.523  24.226   1.297
82460W        W54131  36.423  44.351   1.216
82461W        W54132  42.342  20.738   0.405
82462W        W54133  28.216  20.338   0.410
82463W        W54134  31.329  41.704  11.194
82464W        W54135  13.067  23.619  11.053
82465W        W54136  22.520  21.070   0.835
82466W        W54137  23.165  28.946  12.070
82467W        W54138  18.069  40.332  13.088
82468W        W54139  40.725  10.140  13.292
82469W        W54140  30.481  35.583  14.363
82470W        W54141  33.946  28.899  13.454
82471W        W54142   7.266  10.687  14.925
82472W        W54143  19.618  23.054  10.203
82473W        W54144   8.019  23.274   1.276
82474W        W54145  19.465  38.835  12.895
82475W        W54146   6.890   9.283  13.539
82476W        W54147  12.897   2.937  14.396
82477W        W54148  42.052  28.259  12.960
82478W        W54149   0.897  43.533  13.184
82479W        W54150  44.639   8.126  12.944
82480W        W54151  23.051  22.029  12.835
82481W        W54152  22.346  22.994   0.939
82482W        W54153  17.650  43.277  10.740
82483W        W54154   3.768  14.719  12.336
82484W        W54155  29.039  13.904  12.439
82485W        W54156  20.053   4.312  14.937
82486W        W54157  32.855  14.669   2.647
82487W        W54158   8.604   9.884   4.908
82488W        W54159  16.988  14.283   1.732
82489W        W54160  44.636  19.778   1.409
82490W        W54161  10.721  25.926   1.287
82491W        W54162  22.314  15.897   0.767
82492W        W54163  19.767   9.332  12.398
82493W        W54164  14.135   7.209   0.954
82494W        W54165  27.630   4.906   4.741
82495W        W54166  24.696   9.752  14.742
82496W        W54167  22.775   5.671   3.556
82497W        W54168  37.737  37.164  14.373
82498W        W54169   2.991  13.189   1.040
82499W        W54170  40.854  40.230  13.132
82500W        W54171   0.061  43.344  11.046
82501W        W54172  30.187  32.907  12.455
82502W        W54173   1.150  41.516  11.476
82503W        W54174  18.742   4.419   0.559
82504W        W54175  24.619   1.709  14.887
82505W        W54176  20.873   6.689  13.073
82506W        W54177  10.312  34.196  11.756
82507W        W54178  24.739   1.239  13.174
82508W        W54179  20.487  25.521  13.948
82509W        W54180  16.118  34.854  10.553
82510W        W54181   7.617  15.777   3.587
82511W        W54182  34.925  12.260   0.281
82512W        W54183  44.370  37.002  12.822
82513W        W54184  16.560  22.074  10.694
82514W        W54185  38.041  32.442   1.033
82515W        W54186  12.725  18.153  10.615
82516W        W54187  28.489   5.350  10.391
82517W        W54188  26.041  28.196   2.959
82518W        W54189  16.146  34.472  10.897
82519W        W54190  36.495  18.182  12.988
82520W        W54191   3.773  42.412  13.478
82521W        W54192   7.374  41.024   1.284
82522W        W54193   4.048  17.069  12.559
82523W        W54194   3.935  30.616  13.385
82524W        W54195   7.221  15.531   3.783
82525W        W54196  26.500  15.289   2.224
82526W        W54197  26.117  41.751  14.752
82527W        W54198   7.147  24.109  14.446
82528W        W54199  12.994  30.449  13.023
82529W        W54200  24.252  25.194   3.676
82530W        W54201  43.356  20.666   0.200
82531W        W54202   9.314  27.511   0.949
82532W        W54203  15.087  14.273  14.246
82533W        W54204  14.130   3.713   1.389
82534W        W54205  41.943  29.642   2.615
82535W        W54206  29.468  28.737   1.674
82536W        W54207   4.934   4.774   2.318
82537W        W54208  34.328  22.192   2.536
82538W        W54209  39.033  10.296  11.571
82539W        W54210   7.944   4.928  14.947
82540W        W54211   8.113  12.131   0.293
82541W        W54212  42.399  41.345  12.395
82542W        W54213   3.844   0.653  14.328
82543W        W54214  20.638  27.774   3.721
82544W        W54215   3.826  12.145   0.086
82545W        W54216  44.195   0.684  14.442
82546W        W54217  38.006  17.594   4.035
82547W        W54218  43.358   4.432  11.209
82548W        W54219  31.029   2.698  14.348
82549W        W54220   9.876   1.871   1.363
82550W        W54221  13.662  24.984  12.065
82551W        W54222   5.276  37.300   1.347
82552W        W54223  31.874  39.278  12.019
82553W        W54224  37.034  21.546  14.342
82554W        W54225  29.086  24.939  12.588
82555W        W54226  20.757  42.569   1.328
82556W        W54227  36.229  39.994  12.645
82557W        W54228  30.483  14.383  11.537
82558W        W54229  38.642   3.241   2.681
82559W        W54230  25.062   1.446  14.787
82560W        W54231  29.592  22.940  13.501
82561W        W54232  12.134  17.130   2.842
82562W        W54233   5.763  19.678  11.229
82563W        W54234  11.806   4.806   4.794
82564W        W54235  43.867  36.385   2.494
82565W        W54236   1.758  39.505   1.779
82566W        W54237  41.289  26.781   4.844
82567W        W54238  27.642  19.155   1.526
82568W        W54239  18.547   5.686  11.571
82569W        W54240  37.657   2.010   0.384
82570W        W54241  44.543  13.092   0.343
82571W        W54242  27.638  31.459   1.435
82572W        W54243  40.124  15.083  13.069
82573W        W54244  28.631  25.033   0.509
82574W        W54245  30.389  32.942  13.825
82575W        W54246  27.473  23.718  14.922
82576W        W54247  41.407  30.060  10.834
82577W        W54248   1.501  17.722  11.966
82578W        W54249  34.982   5.167  10.991
82579W        W54250   1.800   7.343   4.713
82580W        W54251  38.959  24.157   0.431
82581W        W54252  40.990  37.343  12.437
82582W        W54253  12.641  37.601  12.091
82583W        W54254  15.765   9.914   4.680
82584W        W54255   8.344  24.636  13.937
82585W        W54256  42.499  24.564   3.366
82586W        W54257  14.169  33.919   1.655
82587W        W54258  40.971  25.291  13.366
82588W        W54259  44.100  39.875   1.738
82589W        W54260   5.238   6.236   4.343
82590W        W54261  32.369  39.947  11.788
82591W        W54262  22.340  38.899   2.954
82592W        W54263  41.244  22.280   4.035
82593W        W54264  22.010  44.397   4.136
82594W        W54265  35.820  39.511  13.284
82595W        W54266  16.673  37.612  12.514
82596W        W54267   6.797  20.502  14.891
82597W        W54268   3.262   3.323  13.232
82598W        W54269  10.601  14.617  13.827
82599W        W54270  41.776   1.869   3.252
82600W        W54271   8.410  31.054   3.207
82601W        W54272  11.164   7.388   1.974
82602W        W54273  44.059  21.533   1.031
82603W        W54274  25.526  44.337   4.613
82604W        W54275  30.824   2.888   1.653
82605W        W54276   3.599   3.022   3.662
82606W        W54277  28.828  25.472   0.262
82607W        W54278  17.139  41.609  14.226
82608W        W54279  18.492  25.066   0.007
82609W        W54280  34.586  24.494  12.115
82610W        W54281  17.743   2.709  13.357
82611W        W54282  32.649   9.348  12.100
82612W        W54283  30.996  39.918   3.700
82613W        W54284  12.626  37.798  11.582
82614W        W54285  12.291  17.839  10.649
82615W        W54286   4.289  38.263  13.986
82616W        W54287  22.527  44.929  10.638
82617W        W54288  15.648  16.364   2.775
82618W        W54289  14.709  26.669   1.368
82619W        W54290  28.668  11.233   2.095
82620W        W54291   1.081  11.447  11.955
82621W        W54292  34.921  12.343   4.575
82622W        W54293  39.559   5.304  13.345
82623W        W54294  43.812  39.206   2.609
82624W        W54295  15.126   7.665   4.924
82625W        W54296  25.480   9.939   5.085
82626W        W54297  37.052  19.294   2.212
82627W        W54298  37.041   9.752  14.776
82628W        W54299  42.711  28.878  10.231
82629W        W54300  36.925   0.919   3.838
82630W        W54301  42.523   0.513   3.131
82631W        W54302  12.171  41.051  12.629
82632W        W54303   7.486  18.824   3.406
82633W        W54304  33.236   5.878   0.970
82634W        W54305  25.570   3.204  13.408
82635W        W54306  30.204   6.951  12.925
82636W        W54307  33.209  32.027  10.162
82637W        W54308  18.715  16.329   0.447
82638W        W54309  12.125  42.339   1.721
82639W        W54310   5.545  29.355  13.369
82640W        W54311  41.539  13.369  13.363
82641W        W54312  28.577  10.408  10.743
82642W        W54313  19.441  20.013   4.519
82643W        W54314  30.412   2.408  14.510
82644W        W54315  26.661  15.180  12.578
82645W        W54316  43.194  21.578   1.271
82646W        W54317   8.343  17.300  12.427
82647W        W54318  17.742  32.895   2.950
82648W        W54319  43.011   7.905   3.792
82649W        W54320  28.597   6.315   4.119
82650W        W54321  30.736   1.863  11.038
82651W        W54322  42.985   4.670  10.971
82652W        W54323  34.034   2.443   4.607
82653W        W54324  43.089  11.132  13.894
82654W        W54325  33.050  20.972   2.300
82655W        W54326   7.323  14.013  13.828
82656W        W54327  34.505  18.972  13.071
82657W        W54328  41.797   9.042   2.419
82658W        W54329  18.443  19.818  12.961
82659W        W54330  19.531  22.546  14.803
82660W        W54331  10.369  36.770  11.130
82661W        W54332  18.223  11.396   3.748
82662W        W54333  28.898  30.472  12.068
82663W        W54334  18.854  11.979   4.169
82664W        W54335  40.232  18.905   3.665
82665W        W54336  42.498  31.814   1.932
82666W        W54337  29.719   9.633   1.303
82667W        W54338   9.175  39.776  12.582
82668W        W54339  18.028  23.924   2.722
82669W        W54340   9.964   5.821  14.952
82670W        W54341   4.889   2.307   1.597
82671W        W54342  19.167  13.623  13.272
82672W        W54343  25.553  44.053  10.708
82673W        W54344  18.681  11.515   4.382
82674W        W54345  26.512   6.308  11.643
82675W        W54346  35.547   5.818   4.764
82676W        W54347  19.019  23.901  13.429
82677W        W54348  12.610  18.643  10.796
82678W        W54349  43.259  39.110   5.102
82679W        W54350  37.323  39.385   3.691
82680W        W54351  16.371   7.795   4.193
82681W        W54352  37.219  36.205  10.173
82682W        W54353  15.893   4.613  10.413
82683W        W54354  33.057  36.065  14.583
82684W        W54355  11.173   1.359   3.636
82685W        W54356  31.633   0.122  14.656
82686W        W54357  19.638  21.599  14.039
82687W        W54358  43.758  43.764  11.166
82688W        W54359   0.839  44.552  10.273
82689W        W54360  14.030   9.892   0.374
82690W        W54361   2.992  19.784   1.346
82691W        W54362   6.863  35.907  13.466
82692W        W54363   3.295  26.218  12.217
82693W        W54364  34.016  31.766   3.423
82694W        W54365  10.303  30.189   0.226
82695W        W54366  25.196  18.649  12.063
82696W        W54367  35.474  18.320  13.935
82697W        W54368  23.514   9.553  11.571
82698W        W54369  43.513  12.616   3.393
82699W        W54370  12.844  28.891  14.934
82700W        W54371  16.448  14.339  14.426
82701W        W54372  37.920  17.779   2.649
82702W        W54373  12.193  33.051  14.963
82703W        W54374  36.490  22.258  14.022
82704W        W54375   2.439  15.332   3.847
82705W        W54376  33.832  36.018   3.890
82706W        W54377  33.168  11.588   2.347
82707W        W54378  42.449  14.661   0.251
82708W        W54379  35.932   9.779  12.065
82709W        W54380  14.176  27.915  11.028
82710W        W54381   2.145  22.487  13.067
82711W        W54382  21.286  31.544   1.686
82712W        W54383  42.270  34.064  14.491
82713W        W54384  16.785  20.924   2.875
82714W        W54385  20.360  23.948  12.990
82715W        W54386  12.308  16.072   2.911
82716W        W54387  16.524  19.123   0.476
82717W        W54388  18.662   6.469   2.222
82718W        W54389  15.583  26.228  13.345
82719W        W54390  33.586   1.846   2.149
82720W        W54391   2.592  28.631   3.462
82721W        W54392  22.821  18.092  12.926
82722W        W54393  29.585   4.227  13.252
82723W        W54394  26.643  36.960   4.442
82724W        W54395  20.960  41.835   4.113
82725W        W54396  16.863  17.690   0.136
82726W        W54397  32.948  23.529   1.317
82727W        W54398  31.421  18.469  11.600
82728W        W54399  44.356   6.674   2.410
82729W        W54400  10.615  20.248  14.897
82730W        W54401  29.492  28.272  10.874
82731W        W54402  12.356  21.893  11.116
82732W        W54403  27.434   2.695   3.235
82733W        W54404   9.864  39.071  13.736
82734W        W54405  20.317  14.926   4.582
82735W        W54406  33.298  25.790   3.982
82736W        W54407  19.384   9.585   3.861
82737W        W54408  11.946  24.746  11.478
82738W        W54409  23.170  38.059   0.559
82739W        W54410   3.818   7.042  14.445
82740W        W54411  42.248  19.774  14.439
82741W        W54412  35.813   5.022   3.246
82742W        W54413  26.510  30.757   4.357
82743W        W54414  28.005  26.731   0.470
82744W        W54415   6.294  37.156   3.339
82745W        W54416  36.832  15.557   2.297
82746W        W54417  26.160   9.588   3.284
82747W        W54418   7.451  29.974   4.441
82748W        W54419  16.092  15.313  11.996
82749W        W54420  38.577   7.860  13.628
82750W        W54421  30.697  43.389  14.932
82751W        W54422   8.205  41.870   3.027
82752W        W54423  23.158  36.548  10.523
82753W        W54424  35.840  37.180  10.238
82754W        W54425  16.099  29.977  14.965
82755W        W54426   0.721  30.536   5.188
82756W        W54427  13.629  22.139  10.722
82757W        W54428   9.443  20.143   0.296
82758W        W54429  10.292  31.523  10.734
82759W        W54430   7.183   1.874  13.572
82760W        W54431  31.582   2.140   1.803
82761W        W54432  22.433  28.411  13.149
82762W        W54433  38.977   0.667   1.332
82763W        W54434  28.834  19.253   0.084
82764W        W54435   1.896  21.325   2.644
82765W        W54436  15.950  14.682  10.795
82766W        W54437  39.804  25.498   4.753
82767W        W54438   5.070  36.366   1.382
82768W        W54439  15.907  40.482   3.738
82769W        W54440  23.108  35.278  12.987
82770W        W54441  21.640   7.673   2.791
82771W        W54442  36.479   6.255  13.742
82772W        W54443  23.103  31.511   1.777
82773W        W54444   2.875   3.641   4.864
82774W        W54445  11.859  44.773   0.056
82775W        W54446  28.155   6.076   4.297
82776W        W54447  26.606   6.891   2.570
82777W        W54448  15.976  13.646  13.471
82778W        W54449  28.444   3.729   3.178
82779W        W54450  26.980  13.721  12.006
82780W        W54451  16.092  28.900  12.975
82781W        W54452  41.397  40.541  11.543
82782W        W54453   7.919  21.027   1.861
82783W        W54454   5.838  10.662  12.884
82784W        W54455   7.385  35.343  11.185
82785W        W54456  34.455  39.079  14.878
82786W        W54457   0.359  31.864  13.937
82787W        W54458   9.908  20.739   0.769
82788W        W54459  32.652  40.252  14.466
82789W        W54460   6.887  14.517  10.731
82790W        W54461   9.666   0.830   3.126
82791W        W54462  36.078   5.282  10.758
82792W        W54463  19.053   6.465  11.829
82793W        W54464  44.366  11.179   9.736
82794W        W54465  15.385  26.255  13.881
82795W        W54466   9.319  36.089  13.023
82796W        W54467  39.544  43.950   0.693
82797W        W54468   7.596  33.125  12.673
82798W        W54469  23.714  11.135   1.499
82799W        W54470  11.661   2.026  11.513
82800W        W54471  16.746  34.098  11.557
82801W        W54472   1.531  28.956   1.672
82802W        W54473   6.658  42.974   3.373
82803W        W54474  12.453  10.606  14.828
82804W        W54475   1.491   5.403   3.777
82805W        W54476  22.124  19.779   0.706
82806W        W54477  34.648  24.160  14.815
82807W        W54478  17.743  44.572  14.998
82808W        W54479  11.108  28.445  11.604
82809W        W54480   7.596  40.431  14.942
82810W        W54481  40.461   3.481   2.829
82811W        W54482   2.969  39.587   4.225
82812W        W54483  17.196  25.267   3.714
82813W        W54484  14.698  39.180   0.745
82814W        W54485  18.624  25.160  13.349
82815W        W54486  10.387  14.292  10.232
82816W        W54487  38.632  30.486  11.564
82817W        W54488  25.041  38.086   0.034
82818W        W54489  32.094  13.074   4.069
82819W        W54490  17.417  23.052   0.835
82820W        W54491  25.136  31.510  13.938
82821W        W54492  19.430   5.792  14.233
82822W        W54493  11.923  10.431   1.290
82823W        W54494  14.284  21.629  14.887
82824W        W54495  18.123   6.912  11.470
82825W        W54496  16.606  34.370  11.084
82826W        W54497  30.640   2.280  13.566
82827W        W54498  25.734  12.684   3.126
82828W        W54499  10.637  27.571   1.136
82829W        W54500  11.713   5.198   1.750
82830W        W54501  32.563  25.661   3.441
82831W        W54502  13.551  10.618   4.307
82832W        W54503   3.861   1.061   3.218
82833W        W54504   5.951  24.653   4.186
82834W        W54505  24.466  40.209  11.227
82835W        W54506  38.881  29.899   4.661
82836W        W54507  26.626  28.715   2.353
82837W        W54508  34.426  37.015   3.602
82838W        W54509   0.729  21.725  13.977
82839W        W54510  40.849  14.246   4.404
82840W        W54511  42.858  11.696   1.197
82841W        W54512  18.646  14.731  12.799
82842W        W54513  20.676  10.165  11.220
82843W        W54514  20.562   5.360   3.350
82844W        W54515  11.203  14.577  10.641
82845W        W54516  42.588   4.936  10.134
82846W        W54517  39.715  40.348  10.723
82847W        W54518  16.313  26.632   2.914
82848W        W54519   1.132  10.887   1.300
82849W        W54520  20.177  10.958  10.725
82850W        W54521  35.925  15.039  14.000
82851W        W54522  35.556  18.259  12.287
82852W        W54523  21.628   2.972  12.039
82853W        W54524  23.535  40.319   2.581
82854W        W54525  39.489  32.230   2.260
82855W        W54526  30.057  36.618  11.994
82856W        W54527  14.056   1.889  12.964
82857W        W54528  14.171   6.105  14.823
82858W        W54529   2.973  37.619   0.721
82859W        W54530  10.083  19.256  13.814
82860W        W54531  27.739   2.193   2.767
82861W        W54532  18.669  21.326   5.120
82862W        W54533   1.197  32.587   4.691
82863W        W54534   8.939  38.764  13.463
82864W        W54535  18.215  13.134  13.075
82865W        W54536   1.964  43.318   1.776
82866W        W54537  32.039  12.807  13.453
82867W        W54538  32.793  29.191   4.289
82868W        W54539  31.501   3.819   0.176
82869W        W54540  34.728  31.563  12.582
82870W        W54541  39.783  31.051   1.683
82871W        W54542   6.731  42.834   2.868
82872W        W54543   0.091  15.517  14.863
82873W        W54544  16.213  33.214   4.458
82874W        W54545  27.446   3.990  12.044
82875W        W54546   8.201   8.429  11.190
82876W        W54547   4.308  25.282  10.697
82877W        W54548  12.733  15.825   4.227
82878W        W54549  32.333  32.344  14.442
82879W        W54550   8.312   6.932  14.937
82880W        W54551   7.661   2.256   5.169
82881W        W54552  32.214  36.845  11.118
82882W        W54553  21.461  37.462  11.233
82883W        W54554  42.280   7.977  11.710
82884W        W54555   4.425  30.723   0.737
82885W        W54556  39.400  29.474  12.095
82886W        W54557   1.219  31.397  10.771
82887W        W54558  43.033  15.253   4.145
82888W        W54559  44.843  23.646   5.274
82889W        W54560  38.897  39.389   1.876
82890W        W54561  20.703  28.239  14.428
82891W        W54562  12.225  28.488   0.231
82892W        W54563  20.460  38.708   3.723
82893W        W54564   8.707  13.090  10.633
82894W        W54565   2.741  35.512   4.953
82895W        W54566  32.716  13.861  12.989
82896W        W54567  14.148  16.021   0.717
82897W        W54568   4.845  37.310  14.833
82898W        W54569  41.936  41.530   5.248
82899W        W54570  29.324  16.544   4.824
82900W        W54571  29.306   7.746   9.984
82901W        W54572  33.390  33.989  13.480
82902W        W54573  36.423  40.096  12.183
82903W        W54574   7.800  44.268   3.318
82904W        W54575  30.379  40.853  10.698
82905W        W54576  16.024   2.045  11.013
82906W        W54577  41.920  26.929   0.428
82907W        W54578  27.944  41.353   1.798
82908W        W54579  21.399  22.902   9.874
82909W        W54580   6.718  41.911  12.617
82910W        W54581   0.818  23.200  14.332
82911W        W54582  43.841  38.361  14.987
82912W        W54583   5.863  40.992  12.482
82913W        W54584  33.077  18.244  14.196
82914W        W54585   5.820  33.964   3.403
82915W        W54586  35.512  40.049  11.644
82916W        W54587  35.035   3.305   0.833
82917W        W54588  33.590  38.061  11.284
82918W        W54589  10.074  33.544   2.287
82919W        W54590  28.535   7.065   2.659
82920W        W54591   1.368  32.496   4.094
82921W        W54592  19.699  43.624  14.392
82922W        W54593  18.137  35.594  14.061
82923W        W54594  12.028  28.144   4.308
82924W        W54595  24.555  14.023   3.750
82925W        W54596  26.611  23.285   4.076
82926W        W54597   8.906  17.023  11.560
82927W        W54598   2.322  33.514   1.375
82928W        W54599  10.056   5.790   3.724
82929W        W54600  35.862  31.824  11.618
82930W        W54601  14.808  43.047  11.166
82931W        W54602  35.305  15.775  13.894
82932W        W54603  19.306  24.621   3.366
82933W        W54604  44.365  16.873   2.743
82934W        W54605   0.015   2.905  13.508
82935W        W54606  44.390  30.504  14.387
82936W        W54607  24.504  10.197   0.856
82937W        W54608  11.671  42.969  10.731
82938W        W54609  16.785  42.850  12.133
82939W        W54610  40.910  24.323   3.174
82940W        W54611  38.056  22.908  14.820
82941W        W54612  35.043  27.681   1.815
82942W        W54613  22.941  28.843   0.863
82943W        W54614  28.674   4.332   2.362
82944W        W54615   7.789  25.501   4.566
82945W        W54616   4.705   8.022   3.121
82946W        W54617  38.989  32.721   0.972
82947W        W54618   5.227  35.524   2.900
82948W        W54619  42.430   2.805   4.565
82949W        W54620  39.050  26.780  11.451
82950W        W54621   1.397  17.257  11.034
82951W        W54622  30.542   6.297   3.627
82952W        W54623  38.336  44.158   1.751
82953W        W54624  14.709  29.990   1.886
82954W        W54625  24.040  21.300  14.060
82955W        W54626  22.994  31.619  14.165
82956W        W54627  25.501  17.604   1.727
82957W        W54628  21.932  44.227  12.647
82958W        W54629  32.216  16.083  11.445
82959W        W54630   5.572  18.139  12.944
82960W        W54631  32.102   0.289   3.379
82961W        W54632  13.790  29.133   4.107
82962W        W54633  10.272  37.578  10.517
82963W        W54634   5.639   5.767   3.099
82964W        W54635  20.734  17.299   0.311
82965W        W54636  38.149  28.640   3.184
82966W        W54637   1.957   2.166  13.960
82967W        W54638  12.358  32.132   2.278
82968W        W54639  39.058  12.292  11.087
82969W        W54640  22.229   2.296  14.129
82970W        W54641  34.975   8.406  10.809
82971W        W54642  25.449  12.203  10.685
82972W        W54643  20.772  13.822  11.541
82973W        W54644  23.563  24.772   4.629
82974W        W54645  28.987   1.644  12.570
82975W        W54646  37.572  23.693  12.442
82976W        W54647  14.541  23.666   1.988
82977W        W54648  13.290  17.239   0.272
82978W        W54649  34.781  14.387  13.184
82979W        W54650  18.819  42.995  11.652
82980W        W54651  31.780   6.956   4.146
82981W        W54652  21.374  19.144  12.069
82982W        W54653  23.492  18.798   1.697
82983W        W54654  35.944  41.279  13.442
82984W        W54655  43.410  33.529  13.874
82985W        W54656  38.554  40.267  11.494
82986W        W54657  33.519  43.095   3.127
82987W        W54658  31.878  29.103  14.600
82988W        W54659  15.246  18.304   3.868
82989W        W54660  35.859   2.761  12.778
82990W        W54661   1.922   7.122   0.217
82991W        W54662  17.554  37.020   4.004
82992W        W54663  20.028  32.353  12.819
82993W        W54664  39.573  43.761   2.187
82994W        W54665  34.976  24.699   3.887
82995W        W54666  14.233  43.783  13.232
82996W        W54667  12.635   6.200  14.473
82997W        W54668  40.450  10.773   1.015
82998W        W54669   8.750   7.804   5.007
82999W        W54670  12.114   8.923   0.388
83000W        W54671  31.195  33.023  14.244
83001W        W54672  20.672   8.699  10.647
83002W        W54673   5.235  21.784   1.883
83003W        W54674  13.397  38.776   4.678
83004W        W54675  39.803  42.812   4.246
83005W        W54676  26.276  35.602  11.229
83006W        W54677   1.515   9.870   0.716
83007W        W54678  30.110  39.798   0.321
83008W        W54679  33.402  13.089   1.391
83009W        W54680   0.012  33.384   2.676
83010W        W54681   7.861  26.518  11.174
83011W        W54682  25.252  12.655  10.774
83012W        W54683  31.108  23.240  14.324
83013W        W54684  38.394  24.109  14.248
83014W        W54685   0.337  36.883  11.614
83015W        W54686  42.396  30.236  14.416
83016W        W54687   2.273  29.621  13.493
83017W        W54688   2.238   4.655   1.391
83018W        W54689  30.001   7.640  13.476
83019W        W54690  14.034  28.139  11.485
83020W        W54691  40.541   0.735  13.779
83021W        W54692  37.717  24.314   3.086
83022W        W54693  13.597  37.443  11.551
83023W        W54694  19.157  10.688   0.032
83024W        W54695  26.759   6.182  12.620
83025W        W54696   5.259  42.758  14.156
83026W        W54697  30.493   4.277   4.547
83027W        W54698   2.921  15.203   1.693
83028W        W54699  15.164   3.308   3.984
83029W        W54700  40.974  24.504  14.004
83030W        W54701  21.717  36.842  12.387
83031W        W54702  40.131  17.210   4.566
83032W        W54703  13.839  43.453  11.542
83033W        W54704   7.883  16.136  11.694
83034W        W54705  17.743   4.771   3.781
83035W        W54706  16.063  23.494   0.048
83036W        W54707  44.212  32.939  13.936
83037W        W54708  35.449  32.157  13.789
83038W        W54709  14.586  10.437   0.050
83039W        W54710   7.283  12.745  14.453
83040W        W54711  33.721  13.192  14.826
83041W        W54712  20.537  20.600  14.014
83042W        W54713  17.542   5.442  14.097
83043W        W54714  22.631  32.701  10.670
83044W        W54715  15.650  39.379   0.828
83045W        W54716  31.592  24.074  14.137
83046W        W54717  27.281  24.279  11.151
83047W        W54718   8.706   4.783  12.897
83048W        W54719  34.676  14.292   2.696
83049W        W54720   0.790  27.094  12.349
83050W        W54721  12.783  27.543  11.662
83051W        W54722  10.176   3.615  11.989
83052W        W54723   5.844  27.105   4.374
83053W        W54724   0.075  31.059   1.396
83054W        W54725  13.792   5.829   5.368
83055W        W54726  35.842  25.497   0.312
83056W        W54727  25.934   3.727  11.603
83057W        W54728  40.911  11.246   1.264
83058W        W54729  35.985  14.040   4.580
83059W        W54730  11.434  26.004  12.528
83060W        W54731  43.975  17.061   4.053
83061W        W54732  11.018  24.790  14.024
83062W        W54733  23.245  23.559  13.924
83063W        W54734  26.023  44.935  14.277
83064W        W54735  34.993  26.799  13.030
83065W        W54736  10.668  18.746   2.392
83066W        W54737  32.011  28.011   3.044
83067W        W54738  44.903  17.766   1.917
83068W        W54739   7.874  28.745  10.866
83069W        W54740   9.015  32.614  13.201
83070W        W54741  26.091  34.863   3.295
83071W        W54742   5.145  36.525  13.966
83072W        W54743   9.212  44.659   4.386
83073W        W54744  36.643  16.681   1.338
83074W        W54745  28.037  35.583   4.980
83075W        W54746  36.416  37.475   5.027
83076W        W54747   2.999  10.322   0.630
83077W        W54748  18.360  27.987   2.930
83078W        W54749  16.298   5.309  10.172
83079W        W54750   0.276  32.614  13.553
83080W        W54751  16.448  22.398   2.876
83081W        W54752  28.020  19.676  14.211
83082W        W54753  33.319  41.736   0.873
83083W        W54754  40.022   5.840   3.124
83084W        W54755  28.180  43.621   0.017
83085W        W54756  19.117   0.381  13.900
83086W        W54757  37.060  27.093   4.157
83087W        W54758  12.353   2.717  13.434
83088W        W54759  39.720  25.049   2.672
83089W        W54760  30.717   2.891  12.961
83090W        W54761  27.146  30.450  11.974
83091W        W54762  34.237  34.528  12.895
83092W        W54763  13.137  14.499   2.743
83093W        W54764  43.654  29.110   0.904
83094W        W54765  36.549  12.672   3.739
83095W        W54766  44.356  27.404  11.652
83096W        W54767  18.899   9.752  12.306
83097W        W54768  31.956  37.916  14.499
83098W        W54769  29.088   5.783  11.469
83099W        W54770  25.782   8.822  11.601
83100W        W54771   1.094  36.168   2.923
83101W        W54772   0.861  16.181  11.059
83102W        W54773   3.774  42.184   1.260
83103W        W54774  39.294  13.604  14.351
83104W        W54775   2.168  36.929  11.230
83105W        W54776  35.037  21.463   2.338
83106W        W54777   1.972  21.436  10.659
83107W        W54778  38.902  25.727  11.084
83108W        W54779  17.608  37.613  13.276
83109W        W54780   5.871  27.221  11.414
83110W        W54781   3.402  13.183   3.186
83111W        W54782  32.218  16.079  14.413
83112W        W54783  25.102  12.341   4.856
83113W        W54784  21.219  20.066   3.696
83114W        W54785  41.252  14.151   3.611
83115W        W54786   6.201  38.620  14.344
83116W        W54787   2.803  42.000   1.975
83117W        W54788   7.263  24.723  12.442
83118W        W54789  32.403  14.237  11.448
83119W        W54790  29.066   8.860   3.082
83120W        W54791   2.376  14.258  13.622
83121W        W54792   4.758  42.422  14.898
83122W        W54793  28.439  22.980   4.273
83123W        W54794  22.967  11.702   0.961
83124W        W54795  15.725  17.540   4.222
83125W        W54796  13.186   6.725  10.591
83126W        W54797  26.106  25.688  14.561
83127W        W54798  31.146  18.194   0.528
83128W        W54799  34.089  39.824   3.802
83129W        W54800   3.413  33.482   0.753
83130W        W54801  21.180  14.159  13.490
83131W        W54802   1.797  32.378   3.615
83132W        W54803  35.976  10.803  11.173
83133W        W54804  42.172  27.609   2.350
83134W        W54805  16.251  12.215  10.921
83135W        W54806  29.661  35.470  11.162
83136W        W54807  41.890  21.694  10.617
83137W        W54808  18.677  20.265   0.257
83138W        W54809   3.328   3.477  12.200
83139W        W54810  20.594  34.209   0.843
83140W        W54811  37.581  40.382  13.493
83141W        W54812  39.089  22.573  14.393
83142W        W54813   0.892  30.629   1.176
83143W        W54814  40.267  34.448   3.300
83144W        W54815  42.548  24.047  13.906
83145W        W54816   1.795  22.275   4.235
83146W        W54817  37.360   1.291   2.597
83147W        W54818  12.658  44.521   1.362
83148W        W54819  28.715  42.363   1.485
83149W        W54820  41.408  25.737   4.929
83150W        W54821  37.962  29.722   1.496
83151W        W54822  25.794   4.746   1.245
83152W        W54823  25.952   9.090   2.400
83153W        W54824  29.411  43.008   3.584
83154W        W54825  42.932  19.213  12.474
83155W        W54826  15.808  29.246  14.440
83156W        W54827  36.458  28.362  11.656
83157W        W54828  23.614  20.301  12.481
83158W        W54829  28.476  31.076   3.701
83159W        W54830   1.377  38.911   2.616
83160W        W54831  22.707   1.425   0.096
83161W        W54832   2.303  11.711  10.798
83162W        W54833  44.698  27.230  12.098
83163W        W54834   8.419  37.901  12.618
83164W        W54835  20.883   6.416  10.945
83165W        W54836  31.030  27.905   4.203
83166W        W54837  43.882  40.343  12.552
83167W        W54838  35.599  44.532   3.837
83168W        W54839  24.109  21.700   3.947
83169W        W54840  16.401   7.643   5.028
83170W        W54841   2.693  22.668   3.910
83171W        W54842  14.164   1.004   0.361
83172W        W54843  35.145  33.396   4.547
83173W        W54844  13.069  37.787  13.026
83174W        W54845   6.519  44.990  13.957
83175W        W54846   9.823  23.147   1.327
83176W        W54847  15.242  34.911   2.947
83177W        W54848   5.059   0.900   3.685
83178W        W54849  38.440  33.637  10.341
83179W        W54850  11.112  26.704   1.461
83180W        W54851  44.235   5.499   4.437
83181W        W54852   0.898  31.534   1.292
83182W        W54853   9.740   5.861   1.297
83183W        W54854  27.668  22.340  11.191
83184W        W54855   6.823  22.049  14.875
83185W        W54856  33.695  24.240   2.194
83186W        W54857  31.113  26.955   1.755
83187W        W54858   3.031  41.072   0.293
83188W        W54859  24.767  30.972   4.513
83189W        W54860  27.499  37.853   0.465
83190W        W54861  16.713  32.415  13.779
83191W        W54862   8.389  28.952   1.773
83192W        W54863  42.901  27.483   4.523
83193W        W54864  26.982  12.669   0.875
83194W        W54865   0.695  33.793  11.133
83195W        W54866   7.759  41.754   2.805
83196W        W54867   9.713  17.265   2.890
83197W        W54868  41.581  23.083  12.472
83198W        W54869  36.057  24.604   0.953
83199W        W54870   1.126  29.109   3.501
83200W        W54871  10.666  25.118  14.217
83201W        W54872  33.905  17.877   2.748
83202W        W54873  23.815   1.169   4.128
83203W        W54874  22.461  32.412  12.626
83204W        W54875  44.935  31.384  14.926
83205W        W54876  29.115   7.884  13.691
83206W        W54877   3.737   7.643   1.427
83207W        W54878   5.623  16.029   2.737
83208W        W54879  42.074  38.870  14.331
83209W        W54880  31.036  13.842  13.998
83210W        W54881  14.782  29.172  14.458
83211W        W54882  43.447  42.789  14.392
83212W        W54883  22.496  27.449   0.297
83213W        W54884  42.355  12.307   5.028
83214W        W54885  40.943  12.691  14.467
83215W        W54886  20.196  28.385   4.229
83216W        W54887   5.128  38.546  13.005
83217W        W54888  44.958  27.509   1.382
83218W        W54889  33.082  27.550   2.240
83219W        W54890  33.794  28.413  13.750
83220W        W54891  30.672  33.364   0.046
83221W        W54892  10.254  38.124  10.485
83222W        W54893  17.100  31.230  10.368
83223W        W54894  39.616  12.692   3.110
83224W        W54895   7.791  21.198  13.471
83225W        W54896  17.665  11.727   2.292
83226W        W54897  12.799   1.449  10.990
83227W        W54898  12.227  41.942  13.531
83228W        W54899  20.660   5.142  13.229
83229W        W54900  14.646  21.990   0.689
83230W        W54901  30.553  14.093  11.970
83231W        W54902  26.533   4.315   1.725
83232W        W54903  20.108  38.559   4.071
83233W        W54904   9.836  14.552   3.208
83234W        W54905  35.508  44.314   1.671
83235W        W54906   5.451  20.735  14.571
83236W        W54907   3.166  41.922   3.473
83237W        W54908   0.591  21.669   4.506
83238W        W54909   6.822  27.681  13.306
83239W        W54910  22.308  15.828  12.093
83240W        W54911  34.847  27.026   3.116
83241W        W54912  27.847   9.206  10.690
83242W        W54913   3.248  35.915  13.345
83243W        W54914   0.053   2.209   2.875
83244W        W54915  30.733  26.906  13.286
83245W        W54916  43.239  11.833   2.279
83246W        W54917  18.772  12.925  12.793
83247W        W54918   6.137  22.559  14.273
83248W        W54919  34.287  30.399   3.114
83249W        W54920  40.238  44.441  13.477
83250W        W54921  30.384  22.421   1.454
83251W        W54922  11.635  20.555  12.981
83252W        W54923  25.390  15.706  14.372
83253W        W54924  11.123  28.042   4.611
83254W        W54925  10.412  18.800  13.836
83255W        W54926  27.662  17.582  13.025
83256W        W54927  43.534   4.965  11.137
83257W        W54928  12.939  34.835  11.555
83258W        W54929  38.349   3.901  13.201
83259W        W54930  10.286  26.913   4.703
83260W        W54931  21.154  27.471   4.155
83261W        W54932  42.923  29.465   4.601
83262W        W54933  37.897  37.504  13.568
83263W        W54934  18.627  42.932  13.348
83264W        W54935  13.313  29.513  11.911
83265W        W54936   5.910  43.765  12.862
83266W        W54937  24.547   0.842  10.894
83267W        W54938  43.940  42.729   2.835
83268W        W54939  42.293  13.057  11.978
83269W        W54940   2.988   0.952   3.246
83270W        W54941  16.321   4.893  10.498
83271W        W54942  31.592  39.314   0.453
83272W        W54943  19.490   6.168   2.612
83273W        W54944  19.572   8.362  11.590
83274W        W54945  39.430  16.693  12.001
83275W        W54946  14.275  11.639   2.420
83276W        W54947   5.356  39.072   1.919
83277W        W54948  33.066   3.525   4.769
83278W        W54949  15.778   4.228   1.664
83279W        W54950  41.915  19.472  12.956
83280W        W54951  40.512   7.187  10.233
83281W        W54952   4.644   9.602  12.992
83282W        W54953  39.823   9.607   2.854
83283W        W54954  38.422  29.475   1.435
83284W        W54955  19.696  32.642   2.336
83285W        W54956   4.847   5.355   1.762
83286W        W54957  14.211  16.162  11.219
83287W        W54958  40.615  25.104  10.819
83288W        W54959   1.010  16.345  11.964
83289W        W54960  13.824  20.683   1.182
83290W        W54961  31.479  27.629  11.920
83291W        W54962   5.363   1.836  10.533
83292W        W54963  36.098  30.146   0.618
83293W        W54964   5.835   0.721   2.355
83294W        W54965   7.135   2.192  11.966
83295W        W54966  35.187  40.341   0.592
83296W        W54967  27.612   0.726   0.918
83297W        W54968  35.324  29.027  10.505
83298W        W54969   5.456  40.150   1.738
83299W        W54970   2.302   8.184  12.957
83300W        W54971   4.385   5.331   4.706
83301W        W54972   5.102  16.154  12.026
83302W        W54973  33.943   9.164  10.837
83303W        W54974   0.990  14.517   3.472
83304W        W54975  22.298   3.047   4.530
83305W        W54976  29.009   2.890  12.004
83306W        W54977   9.371   3.154   2.913
83307W        W54978  16.856  43.875  12.931
83308W        W54979  43.625  13.170  12.427
83309W        W54980  36.349  30.389  14.278
83310W        W54981  35.423  40.821   1.962
83311W        W54982  37.710   8.411  12.048
83312W        W54983  25.477  28.582   4.763
83313W        W54984  24.889   8.788  12.476
83314W        W54985  23.220  19.030   3.852
83315W        W54986  40.456  34.374  10.319
83316W        W54987   2.248   7.875  12.478
83317W        W54988  23.911  32.851   4.506
83318W        W54989   1.931  40.492  10.753
83319W        W54990  15.400  25.161   9.996
83320W        W54991   9.820  40.484  13.391
83321W        W54992  42.250  21.893  14.155
83322W        W54993  35.843  14.254  14.468
83323W        W54994  38.375   9.139   0.403
83324W        W54995  44.959  42.888   1.028
83325W        W54996  19.554  19.699  13.838
83326W        W54997  27.610  26.992   2.764
83327W        W54998  17.644  35.228   4.881
83328W        W54999  21.304  42.465  11.979
83329W        W55000  18.270  16.704   4.329
83330W        W55001  12.305  18.016  12.516
83331W        W55002  21.556   1.938  12.842
83332W        W55003  26.426  24.958   4.174
83333W        W55004  38.851  18.889  10.676
83334W        W55005  21.150  14.746   1.258
83335W        W55006  16.692  40.562  12.315
83336W        W55007  40.534  42.044  14.710
83337W        W55008   5.796  40.295  11.919
83338W        W55009  42.876  17.691   1.250
83339W        W55010  19.273  11.112   0.536
83340W        W55011  23.970  10.432   2.407
83341W        W55012  19.214  27.094  11.948
83342W        W55013  16.819  30.507   2.369
83343W        W55014   6.245  26.236   3.990
83344W        W55015  15.730  40.591  13.785
83345W        W55016  37.936  42.720   0.290
83346W        W55017  40.667  36.051  11.222
83347W        W55018  21.110   5.954   1.326
83348W        W55019   5.320  13.929  10.739
83349W        W55020   8.179   1.530  13.533
83350W        W55021  16.258  20.657   0.354
83351W        W55022  16.684   9.752  12.491
83352W        W55023  35.007  22.987  14.014
83353W        W55024   6.519   4.362   0.795
83354W        W55025   2.713   0.726   1.897
83355W        W55026   6.668  26.392  14.086
83356W        W55027  30.994  25.548  12.777
83357W        W55028  31.453  31.949  12.447
83358W        W55029  34.149  10.482   3.325
83359W        W55030  42.938  37.148   2.732
83360W        W55031  24.277  11.636   0.387
83361W        W55032  42.940  18.001  13.487
83362W        W55033  22.078   5.850   1.300
83363W        W55034   1.013   1.541  14.808
83364W        W55035  35.691  34.483  14.582
83365W        W55036  19.682  36.521   3.301
83366W        W55037   3.267   6.587   0.193
83367W        W55038   4.172  14.849   0.380
83368W        W55039   9.900  44.678  11.092
83369W        W55040  42.841  40.499  12.972
83370W        W55041  32.141   1.660  10.515
83371W        W55042  40.615  18.294   0.861
83372W        W55043  12.638  40.369   4.763
83373W        W55044   4.719  24.780   2.851
83374W        W55045   3.192  33.567  14.450
83375W        W55046  22.160   0.825  14.384
83376W        W55047  33.844   6.771  12.455
83377W        W55048  25.549  17.600  12.664
83378W        W55049   7.184  42.829  14.411
83379W        W55050  22.815  13.221   2.739
83380W        W55051   5.648   4.246  14.852
83381W        W55052  14.066  29.586  14.979
83382W        W55053  20.731  31.059  10.605
83383W        W55054   5.328  40.512   4.390
83384W        W55055  41.248  28.097   0.840
83385W        W55056  41.891  29.241  14.696
83386W        W55057  34.019  38.020  11.573
83387W        W55058  16.661  31.640  14.243
83388W        W55059  27.225  40.427  11.468
83389W        W55060  13.621  38.006  14.770
83390W        W55061   1.769   6.529  12.001
83391W        W55062  22.975   6.984  10.823
83392W        W55063  42.763  14.276   3.771
83393W        W55064   1.826  30.508  13.077
83394W        W55065  12.864  38.603   3.758
83395W        W55066  30.884   3.926  14.025
83396W        W55067  12.307   7.304  12.735
83397W        W55068  39.362  36.585  11.638
83398W        W55069   4.305  42.045   3.002
83399W        W55070  38.496  39.787  13.873
83400W        W55071  39.793  14.522  11.436
83401W        W55072  39.548  17.674  14.718
83402W        W55073  21.091  38.586  12.106
83403W        W55074  29.062   5.710  14.334
83404W        W55075  17.249  44.835  13.858
83405W        W55076  17.568  40.316  14.508
83406W        W55077  44.880   0.379   1.757
83407W        W55078  43.468  13.039  11.317
83408W        W55079  11.232  36.319  13.610
83409W        W55080  32.002  22.297   0.790
83410W        W55081  12.326  14.091  14.455
83411W        W55082  21.009  10.297  10.338
83412W        W55083  37.581   2.304  11.341
83413W        W55084  27.618  34.588   4.910
83414W        W55085   2.822  32.936  11.977
83415W        W55086  26.858  23.638   3.747
83416W        W55087  36.911  12.313   0.728
83417W        W55088  25.470  37.423   0.826
83418W        W55089  16.334  38.386   3.675
83419W        W55090  38.252   4.424   2.343
83420W        W55091  39.927  13.116   1.371
83421W        W55092  10.969  28.507   4.399
83422W        W55093  39.601  37.853   1.476
83423W        W55094  16.989  38.380   4.745
83424W        W55095   0.776  27.142   3.182
83425W        W55096   0.792   4.722   5.043
83426W        W55097  17.043  44.475  12.421
83427W        W55098   6.282  15.339  12.896
83428W        W55099   6.400  25.763   3.737
83429W        W55100  27.010  21.794   2.360
83430W        W55101  41.334  14.673   2.847
83431W        W55102  28.724   8.353   1.283
83432W        W55103  37.422   1.974   3.414
83433W        W55104  10.356   3.108   2.819
83434W        W55105  24.777  18.659   3.871
83435W        W55106  34.530   3.497   0.696
83436W        W55107   0.818   0.809  11.595
83437W        W55108  23.354  14.790   3.151
83438W        W55109  10.522  17.238  11.235
83439W        W55110  33.794  42.268   3.645
83440W        W55111  40.237  31.361  14.974
83441W        W55112  38.545  25.190   4.530
83442W        W55113  28.301  39.436   1.747
83443W        W55114  20.516   2.515  11.559
83444W        W55115   1.373  15.660  12.369
83445W        W55116  25.732   7.137  12.094
83446W        W55117   2.221  17.041   5.095
83447W        W55118  11.697  33.124  13.972
83448W        W55119  28.643  16.232  10.580
83449W        W55120  33.631  35.509   0.259
83450W        W55121  43.897  27.651  12.462
83451W        W55122  18.496   5.816  14.404
83452W        W55123  43.051  40.582  10.807
83453W        W55124  20.146  37.245   2.176
83454W        W55125  43.341  23.237   3.221
83455W        W55126  44.378  30.659  14.930
83456W        W55127  42.658  36.403  13.035
83457W        W55128   1.103  21.621  10.947
83458W        W55129  10.539  12.579  13.994
83459W        W55130  36.085  31.885   4.615
83460W        W55131   0.971   8.925   3.678
83461W        W55132  20.159  27.464   4.375
83462W        W55133  18.583  39.330   2.649
83463W        W55134  17.236   2.692  13.456
83464W        W55135  16.077   9.219   0.967
83465W        W55136  42.772   5.798   1.793
83466W        W55137   2.502  40.077  14.542
83467W        W55138  19.125  30.449  13.535
83468W        W55139  39.756  32.301  13.836
83469W        W55140  30.617   4.760   1.743
83470W        W55141   7.208  17.375   3.727
83471W        W55142  33.947  19.081  11.657
83472W        W55143  35.222   1.401  11.793
83473W        W55144  19.779  44.697   3.680
83474W        W55145  10.346  36.590  14.700
83475W        W55146  34.672  42.272   3.337
83476W        W55147  15.759  13.313   2.854
83477W        W55148  42.020  38.439  10.683
83478W        W55149  35.228  35.151   2.205
83479W        W55150   1.360   9.162   4.940
83480W        W55151   4.464  23.661   1.392
83481W        W55152  37.455  33.438  11.149
83482W        W55153  24.755  32.233  12.456
83483W        W55154  31.557  36.228   4.389
83484W        W55155  41.269  24.981   2.770
83485W        W55156  35.572  33.640  12.247
83486W        W55157  26.175  19.946   5.042
83487W        W55158  40.393   2.421  12.058
83488W        W55159  39.828  18.069  11.055
83489W        W55160  20.600  26.500   1.391
83490W        W55161   7.417  18.039   0.018
83491W        W55162  14.561  11.151   3.744
83492W        W55163  29.468  34.331   3.893
83493W        W55164  30.395  35.517  13.445
83494W        W55165  34.430  12.085  10.524
83495W        W55166  35.197  20.513  14.013
83496W        W55167  21.926  42.055   1.902
83497W        W55168  37.002  23.594  13.660
83498W        W55169  13.170  37.869   2.067
83499W        W55170  20.843  21.102   1.287
83500W        W55171  19.233  33.584   2.217
83501W        W55172  26.373   9.668   4.607
83502W        W55173  27.138  11.961   3.701
83503W        W55174   9.393  38.074  14.325
83504W        W55175  29.450   7.500  14.537
83505W        W55176   7.678  43.966   0.591
83506W        W55177  25.085  39.543   3.148
83507W        W55178  28.773   0.827   4.845
83508W        W55179   5.802  37.524   0.757
83509W        W55180   9.575   4.668   3.302
83510W        W55181   0.799  28.500  10.277
83511W        W55182  40.399   3.693  13.435
83512W        W55183   1.600   0.422  10.740
83513W        W55184   1.138  23.160   0.533
83514W        W55185  36.955  29.401   2.651
83515W        W55186  27.983  23.441  11.572
83516W        W55187  17.320  42.561  13.392
83517W        W55188  23.546  14.893  12.633
83518W        W55189   1.500  14.920   4.170
83519W        W55190  42.927  24.620   1.698
83520W        W55191  32.458  28.541   1.807
83521W        W55192  27.194  13.678   4.136
83522W        W55193  13.744  11.915  12.947
83523W        W55194  30.560  33.909  14.012
83524W        W55195  29.333  25.568   0.266
83525W        W55196  42.122  20.323   0.201
83526W        W55197  26.421   8.999   2.697
83527W        W55198  24.929  12.275  10.638
83528W        W55199   3.546  39.331  13.957
83529W        W55200  30.664  40.664   0.310
83530W        W55201  12.901   7.242   1.634
83531W        W55202  20.346   4.646   2.722
83532W        W55203  10.847  17.582  11.437
83533W        W55204  18.611  24.769   1.184
83534W        W55205  24.486  41.374  10.473
83535W        W55206   4.545  39.307  13.934
83536W        W55207  16.309  11.562  14.004
83537W        W55208  17.589  25.665  12.016
83538W        W55209  23.147   7.683  12.381
83539W        W55210  26.843  30.260   0.344
83540W        W55211  10.125   7.338  13.995
83541W        W55212  14.614   0.777   0.446
83542W        W55213  31.851  41.404   0.192
83543W        W55214  26.078  19.228   0.506
83544W        W55215  14.395  29.229   2.292
83545W        W55216   0.917  15.561  12.594
83546W        W55217  44.800  25.371  13.893
83547W        W55218  22.665  24.681  14.492
83548W        W55219   6.990  31.854  13.442
83549W        W55220  35.859  16.249   1.306
83550W        W55221  29.333   7.263   5.423
83551W        W55222   9.183  15.174   4.281
83552W        W55223   6.314  15.629   4.751
83553W        W55224  37.972  32.754   2.430
83554W        W55225  33.441  26.131  11.939
83555W        W55226  15.061  40.063   4.643
83556W        W55227   5.702   3.472  12.362
83557W        W55228  23.197  14.597  14.410
83558W        W55229  22.191  13.190   1.870
83559W        W55230  13.094  29.264  11.030
83560W        W55231  35.312  14.274   1.316
83561W        W55232  30.573  19.332   2.705
83562W        W55233  28.066  11.628   4.624
83563W        W55234  18.107  32.142  13.988
83564W        W55235  26.107  10.184  14.451
83565W        W55236   5.848  15.285  12.422
83566W        W55237  39.627  25.507   1.877
83567W        W55238  34.036   3.333  11.569
83568W        W55239  14.292  17.969  11.169
83569W        W55240   9.989  42.242  10.511
83570W        W55241  42.031  17.391   3.671
83571W        W55242  38.540  24.886  11.421
83572W        W55243   4.079  41.464  11.515
83573W        W55244  25.157  27.559  14.445
83574W        W55245  29.480  13.797   2.324
83575W        W55246  22.032  42.807  11.546
83576W        W55247  36.814  43.029  13.491
83577W        W55248   9.879  24.231   2.294
83578W        W55249  41.081  30.818   3.282
83579W        W55250  38.039  38.734  13.464
83580W        W55251  18.020  10.944   0.608
83581W        W55252   7.127  10.446  11.996
83582W        W55253   9.640   5.181  10.776
83583W        W55254   9.178  12.624   0.182
83584W        W55255  26.415  19.252  11.510
83585W        W55256  33.306  41.440   3.418
83586W        W55257  33.129   9.257  13.789
83587W        W55258   5.280  29.147   1.373
83588W        W55259   1.951  25.133  10.845
83589W        W55260  36.435  10.119   1.271
83590W        W55261  17.092  36.311   0.857
83591W        W55262  34.634  36.835  12.086
83592W        W55263  22.822  42.479  13.894
83593W        W55264  21.781   8.592  11.442
83594W        W55265   9.322  16.323  11.173
83595W        W55266   9.261  16.728   0.847
83596W        W55267  22.140  30.619  13.959
83597W        W55268   9.325  13.760  10.622
83598W        W55269  11.373   9.682   1.894
83599W        W55270   7.844  27.999  14.962
83600W        W55271  14.723  37.106   0.157
83601W        W55272  16.734   3.990   1.692
83602W        W55273  32.158  44.476   0.243
83603W        W55274  33.932  24.694  11.110
83604W        W55275   3.858  24.951  12.506
83605W        W55276  42.014   4.387   0.031
83606W        W55277  15.156  41.248  11.375
83607W        W55278  16.497  41.326   0.884
83608W        W55279   4.997  26.001   4.169
83609W        W55280  28.889  33.939  12.965
83610W        W55281  16.116  16.092   4.372
83611W        W55282  14.756  26.564  11.059
83612W        W55283  35.488   0.202  12.028
83613W        W55284  20.682  41.162   3.587
83614W        W55285  12.414  26.122  12.447
83615W        W55286  13.626  33.037   0.678
83616W        W55287  12.829  21.309  11.515
83617W        W55288   8.376   5.198   2.837
83618W        W55289  40.940  12.726   0.316
83619W        W55290  41.696  10.180  11.025
83620W        W55291  26.517  21.172   4.105
83621W        W55292  12.894  42.667  11.119
83622W        W55293   6.782  22.715   2.410
83623W        W55294  29.007  25.643   1.817
83624W        W55295  12.273  23.260  14.398
83625W        W55296  20.450   4.895  14.913
83626W        W55297  40.266   1.911  12.939
83627W        W55298  28.761   5.671  12.206
83628W        W55299  10.700  22.608  14.004
83629W        W55300   2.450  15.240  13.949
83630W        W55301   6.628  43.808   3.263
83631W        W55302  33.038   4.129   3.163
83632W        W55303  13.247   5.850   2.662
83633W        W55304  42.496  42.781   4.634
83634W        W55305  34.856  12.784   4.080
83635W        W55306  15.325  32.590  12.461
83636W        W55307  35.914   8.173   4.607
83637W        W55308  40.137  16.601   1.545
83638W        W55309  26.426  17.753  14.724
83639W        W55310  16.629  16.853  11.613
83640W        W55311  25.926  42.940  11.187
83641W        W55312  44.689   7.334   0.691
83642W        W55313  14.792  36.472   2.753
83643W        W55314  41.366   0.264  12.971
83644W        W55315  44.416  12.564   0.278
83645W        W55316   2.245  30.526  12.131
83646W        W55317  38.008   4.241  12.963
83647W        W55318  15.103  22.299  12.019
83648W        W55319  41.082   4.273  11.902
83649W        W55320   0.659  14.809   1.919
83650W        W55321  20.183  38.135   4.464
83651W        W55322  30.923  33.865   4.081
83652W        W55323  23.234   6.326   4.632
83653W        W55324  12.330   6.620  11.076
83654W        W55325  17.177  18.194  10.669
83655W        W55326  20.632  30.110  13.420
83656W        W55327  10.854  11.298   4.227
83657W        W55328  15.546  42.872   0.719
83658W        W55329   9.425  18.767  12.669
83659W        W55330  33.577  13.179  12.830
83660W        W55331   7.200  30.074   4.938
83661W        W55332  12.255  23.468   0.406
83662W        W55333   4.252  13.810   0.666
83663W        W55334   8.213   9.455   2.977
83664W        W55335  34.855  34.148   2.867
83665W        W55336  41.255  37.892  13.895
83666W        W55337  44.779  33.457  13.555
83667W        W55338  16.201  34.592  14.740
83668W        W55339  43.519  15.114   1.320
83669W        W55340   2.883  20.977   2.762
83670W        W55341   1.736  41.843  11.072
83671W        W55342   7.496  41.051  11.955
83672W        W55343  44.488  29.532   0.021
83673W        W55344  19.197   6.391  13.408
83674W        W55345  42.873  30.798   4.678
83675W        W55346  18.238   7.408   2.328
83676W        W55347   1.857  21.329  12.538
83677W        W55348  11.205  39.393   3.212
83678W        W55349   8.856  22.166   0.434
83679W        W55350   0.999  43.476  13.683
83680W        W55351  43.142  35.409  14.197
83681W        W55352  31.871  12.249   1.420
83682W        W55353  26.954  20.277  12.573
83683W        W55354  35.400  40.581   5.075
83684W        W55355  10.835   8.766  12.515
83685W        W55356  13.140   2.484   0.370
83686W        W55357  15.635  43.857   1.283
83687W        W55358  15.134  31.125   2.222
83688W        W55359  23.851   8.024  11.191
83689W        W55360  43.875  36.769  11.103
83690W        W55361  37.371  23.249   2.297
83691W        W55362  26.507  21.308  14.374
83692W        W55363  30.255  28.270  11.133
83693W        W55364  16.183  37.468  12.540
83694W        W55365   4.815   1.804  13.842
83695W        W55366  20.556  14.770   1.231
83696W        W55367  24.374  18.626   1.612
83697W        W55368  36.104  13.576   4.387
83698W        W55369  35.548  15.836  14.882
83699W        W55370  32.681  34.906  14.207
83700W        W55371  19.252  35.042  10.712
83701W        W55372  37.945  22.355  13.910
83702W        W55373  33.508  13.249   1.882
83703W        W55374  13.569  42.476  14.413
83704W        W55375  42.350  22.386  11.119
83705W        W55376  10.181  11.217   1.881
83706W        W55377  15.607   7.674   4.605
83707W        W55378  26.558  34.945   4.620
83708W        W55379  15.124  13.343  12.022
83709W        W55380   7.802  32.393   0.893
83710W        W55381  38.587  30.375  14.807
83711W        W55382  14.190   0.676   1.982
83712W        W55383  29.073   9.830  14.188
83713W        W55384  18.455  36.232   5.031
83714W        W55385  12.641   6.645  10.530
83715W        W55386   6.014  11.584   2.737
83716W        W55387  16.936  13.869   5.134
83717W        W55388  14.005   0.875   2.443
83718W        W55389  28.419  19.518   3.390
83719W        W55390  20.773  37.621  10.773
83720W        W55391  37.049  26.255   5.055
83721W        W55392  30.018  26.487  13.037
83722W        W55393  20.197   2.185  13.859
83723W        W55394   3.055  20.700  13.209
83724W        W55395   3.444  16.278  14.998
83725W        W55396  31.342  19.602  14.671
83726W        W55397  17.980  10.975   0.083
83727W        W55398  14.416  10.266  10.736
83728W        W55399  19.503   1.760  12.119
83729W        W55400  19.101  28.926   2.190
83730W        W55401  27.698  38.575   3.707
83731W        W55402   9.527  32.920   3.022
83732W        W55403  12.743   8.029   3.303
83733W        W55404  12.323  43.850  12.204
83734W        W55405  24.935   0.889   3.621
83735W        W55406  35.258   3.159   2.600
83736W        W55407  19.219  29.667   1.871
83737W        W55408  34.109   8.685  14.391
83738W        W55409   4.613   4.875   4.558
83739W        W55410  44.470   8.673   1.356
83740W        W55411  29.060  22.489  12.990
83741W        W55412  33.926  12.329   2.753
83742W        W55413  40.138  25.924  10.820
83743W        W55414  13.685  19.673   2.294
83744W        W55415  44.331  15.250   1.737
83745W        W55416   7.490  22.946   0.625
83746W        W55417   6.286  44.423   1.193
83747W        W55418  43.018  23.038  12.492
83748W        W55419  42.215  12.827   5.098
83749W        W55420  15.265  37.598  12.504
83750W        W55421  15.128  35.937   4.816
83751W        W55422  33.514  28.106  11.863
83752W        W55423  35.508  19.614  13.113
83753W        W55424   0.855  16.046  13.868
83754W        W55425  12.834  42.074  14.858
83755W        W55426   0.964  34.377   0.439
83756W        W55427  37.865  28.311   4.130
83757W        W55428  30.064  30.224   2.547
83758W        W55429   9.195  19.534   2.209
83759W        W55430  41.350  43.071  14.872
83760W        W55431  15.116  40.078   3.688
83761W        W55432   4.282  13.722   1.615
83762W        W55433  28.223   1.722   3.822
83763W        W55434   9.426  28.007   0.979
83764W        W55435  42.090  41.501   4.713
83765W        W55436   4.825  43.174   1.336
83766W        W55437   5.729  21.637   4.537
83767W        W55438   2.988  16.292  13.548
83768W        W55439  32.754  19.583   2.575
83769W        W55440  15.363   8.896   0.622
83770W        W55441   3.689   8.175  13.249
83771W        W55442  26.483  40.702  14.089
83772W        W55443  15.988  16.960  11.151
83773W        W55444  25.442   2.315   2.802
83774W        W55445  35.940  28.402  13.956
83775W        W55446  33.570   4.001  13.910
83776W        W55447  14.213   9.179  11.589
83777W        W55448  22.978  25.139   4.018
83778W        W55449  12.244  27.571   3.930
83779W        W55450  39.464   5.815  11.603
83780W        W55451  38.620   2.950   4.922
83781W        W55452  31.458  38.496   3.798
83782W        W55453  16.514  42.767  10.688
83783W        W55454  20.698  36.370  11.022
83784W        W55455  22.553  19.478  12.929
83785W        W55456  23.113  18.297   2.857
83786W        W55457   3.021   1.898   0.382
83787W        W55458  27.430  35.664  12.826
83788W        W55459  40.970  18.551   4.645
83789W        W55460  29.371  30.410  11.327
83790W        W55461  25.269  37.593  14.945
83791W        W55462  36.916  37.390  13.300
83792W        W55463   2.822  34.461   4.130
83793W        W55464  33.193   1.831   3.338
83794W        W55465  42.164  16.817   1.116
83795W        W55466  34.538  34.594   1.410
83796W        W55467  44.996  37.985   2.501
83797W        W55468  15.533   3.306  10.955
83798W        W55469  12.007   9.233  10.691
83799W        W55470  18.251   5.876   4.531
83800W        W55471  36.027  38.791   0.427
83801W        W55472  44.000  11.122  11.026
83802W        W55473  42.405  37.574  11.879
83803W        W55474  10.733  37.617  13.656
83804W        W55475  40.936  20.224   4.045
83805W        W55476  16.954  34.011  13.940
83806W        W55477  18.567  16.568  12.880
83807W        W55478  18.537  11.381  11.492
83808W        W55479  25.294  44.713  11.134
83809W        W55480   1.255  16.242  12.933
83810W        W55481  16.175  18.269  11.496
83811W        W55482  11.126  24.820   4.188
83812W        W55483   5.998   1.414  11.168
83813W        W55484  37.870  28.157   1.416
83814W        W55485   9.132   1.250  14.027
83815W        W55486   1.228  10.386   1.378
83816W        W55487  23.559  17.330  10.641
83817W        W55488  18.138  32.851  13.387
83818W        W55489  41.564  41.279  12.861
83819W        W55490   6.282  30.073   4.626
83820W        W55491  32.800  44.819  14.388
83821W        W55492  12.187  43.395  11.376
83822W        W55493  41.453  40.062  10.650
83823W        W55494   7.867  43.631   1.694
83824W        W55495   8.875  24.104  10.354
83825W        W55496  17.506   3.844   2.627
83826W        W55497   7.347  13.914  13.328
83827W        W55498  26.307  39.773   3.861
83828W        W55499  26.139  15.220   3.883
83829W        W55500  12.315   9.662   3.288
83830W        W55501  24.294  20.245   4.225
83831W        W55502  27.553  28.699  12.550
83832W        W55503  20.256  18.328   2.400
83833W        W55504  15.132  15.319   0.285
83834W        W55505  29.443  36.139  14.324
83835W        W55506   7.819   1.847  10.845
83836W        W55507  37.795  38.539  12.583
83837W        W55508  26.306   6.420  10.427
83838W        W55509  14.891  38.086   1.816
83839W        W55510  43.408  12.611   4.923
83840W        W55511  34.455  25.165   1.202
83841W        W55512   5.165  26.228  11.146
83842W        W55513   6.092  21.648   1.632
83843W        W55514  13.609  18.594   0.268
83844W        W55515  29.219   7.301  11.131
83845W        W55516  10.025  27.076  14.761
83846W        W55517   7.120  13.866   2.243
83847W        W55518  18.248  29.225   2.934
83848W        W55519  23.963  24.927   0.871
83849W        W55520  13.346  17.578  13.375
83850W        W55521  30.420  17.522   2.297
83851W        W55522  31.174  40.701  14.044
83852W        W55523   5.240  22.074  14.262
83853W        W55524   1.546  27.927   4.699
83854W        W55525  17.690   5.495  10.471
83855W        W55526  43.648   5.834  10.966
83856W        W55527  15.715  30.049   1.387
83857W        W55528   0.727   7.233   0.792
83858W        W55529   0.444   7.841  12.516
83859W        W55530  24.497   8.823   0.320
83860W        W55531  15.867   9.727  14.920
83861W        W55532   6.750  37.634   2.112
83862W        W55533  12.683   5.033  12.836
83863W        W55534  24.929  28.748  12.515
83864W        W55535  36.731  15.865  12.411
83865W        W55536  40.063  32.906   1.775
83866W        W55537   8.670   1.374   1.368
83867W        W55538   9.291  10.354   4.698
83868W        W55539  17.493  21.606   2.799
83869W        W55540  44.732  39.241  13.545
83870W        W55541  42.483  15.273   3.212
83871W        W55542   1.395   8.793   1.664
83872W        W55543  15.223  23.221   1.092
83873W        W55544  27.380  14.725  12.808
83874W        W55545  43.085  19.055  11.092
83875W        W55546   4.537   9.803   2.834
83876W        W55547   6.208  23.091  14.278
83877W        W55548   4.769  36.997   2.078
83878W        W55549  28.712   8.976   5.264
83879W        W55550  13.836  13.134   0.515
83880W        W55551  23.700  22.039   4.827
83881W        W55552   1.280  25.983  13.561
83882W        W55553  13.193  33.985  13.838
83883W        W55554  19.677  11.000   3.724
83884W        W55555  34.565   2.960   1.737
83885W        W55556  10.285  32.363   3.933
83886W        W55557  31.459  40.845   3.178
83887W        W55558  33.026  12.934   2.577
83888W        W55559  38.937  34.043   2.700
83889W        W55560   9.798  21.936   0.343
83890W        W55561   2.508  11.759   0.885
83891W        W55562  23.023  41.924   0.261
83892W        W55563  32.658  31.141  12.351
83893W        W55564  32.556  40.291   5.033
83894W        W55565   8.720   5.192   3.839
83895W        W55566   5.814  24.243  10.742
83896W        W55567  10.335  15.871  11.115
83897W        W55568  19.173  42.016   1.330
83898W        W55569   9.757  43.446   3.698
83899W        W55570   6.495  34.978   2.305
83900W        W55571  22.191  38.208   3.186
83901W        W55572  43.374   5.620  12.679
83902W        W55573  20.597  16.953   0.702
83903W        W55574  13.835   9.129   4.025
83904W        W55575  38.422  23.492   0.438
83905W        W55576   6.703  27.980  12.900
83906W        W55577  19.645  12.365   4.985
83907W        W55578   1.483  23.911  13.440
83908W        W55579  26.650  37.343   1.733
83909W        W55580  27.218  25.733   3.257
83910W        W55581  37.248  23.346   1.787
83911W        W55582   1.850  33.089   2.711
83912W        W55583  13.919  33.175  10.722
83913W        W55584  16.030  41.591   0.877
83914W        W55585   1.973   4.714  12.915
83915W        W55586  33.329  14.092  10.903
83916W        W55587   2.448  40.534  10.650
83917W        W55588   8.090  20.534   0.783
83918W        W55589  39.796  19.225  11.536
83919W        W55590  26.630  38.853   1.892
83920W        W55591  14.208   8.962   4.560
83921W        W55592  34.581   8.692   2.838
83922W        W55593  40.027  22.625   3.551
83923W        W55594  36.521  32.433   1.732
83924W        W55595  42.272  31.142   2.651
83925W        W55596  39.285   5.655  10.663
83926W        W55597  43.762  38.511  12.298
83927W        W55598  36.050  16.689  13.569
83928W        W55599   6.143  21.206  10.644
83929W        W55600   0.871  21.936   1.859
83930W        W55601  29.010  26.021  10.724
83931W        W55602  40.718  39.438  13.329
83932W        W55603  43.170   3.316  13.636
83933W        W55604   2.269  40.768   1.871
83934W        W55605  33.110  14.711   2.204
83935W        W55606   3.897  43.253   3.647
83936W        W55607  43.043   1.249   3.261
83937W        W55608  22.543  36.432   1.875
83938W        W55609  42.347   1.818  10.440
83939W        W55610  24.354   0.762  11.901
83940W        W55611  43.198   6.806   1.282
83941W        W55612  41.470   3.364  11.686
83942W        W55613  41.296  38.154   1.758
83943W        W55614  16.823  19.075   4.096
83944W        W55615   4.707  44.112  10.232
83945W        W55616  10.244  24.603   2.710
83946W        W55617  31.968  12.161  14.909
83947W        W55618  30.869  12.758  10.720
83948W        W55619  37.086  10.329  11.674
83949W        W55620  27.533  35.958   3.511
83950W        W55621  18.938  32.611   1.642
83951W        W55622  17.142  44.250  14.397
83952W        W55623  40.346  12.988   1.704
83953W        W55624  43.295  32.101  14.721
83954W        W55625   3.174  15.483  11.343
83955W        W55626  11.727  29.499  14.528
83956W        W55627  26.286  14.106  13.075
83957W        W55628  10.561  29.708  14.309
83958W        W55629   4.223  28.646   3.672
83959W        W55630  11.814  15.705   2.254
83960W        W55631  21.606  41.010  10.232
83961W        W55632  13.570  13.202  12.837
83962W        W55633   5.384   0.992  14.247
83963W        W55634  30.482  44.348  11.217
83964W        W55635  29.117   5.960  12.485
83965W        W55636  14.567  22.976  12.519
83966W        W55637  22.461  24.528   1.728
83967W        W55638  39.493   6.783  11.497
83968W        W55639   2.849  15.786  13.528
83969W        W55640  38.657   1.758   0.703
83970W        W55641  20.959   3.345   1.599
83971W        W55642  31.921  43.787   3.247
83972W        W55643  19.958   7.883  11.065
83973W        W55644  15.850   6.193  14.403
83974W        W55645   2.537  20.764   3.067
83975W        W55646  35.912   6.287   0.744
83976W        W55647   6.149  24.420  11.149
83977W        W55648  41.927  29.803  10.813
83978W        W55649  37.580  41.464  14.620
83979W        W55650  31.054  28.683   4.640
83980W        W55651  10.262  39.106  12.063
83981W        W55652  12.116  40.477   1.899
83982W        W55653  16.932  19.320  14.755
83983W        W55654  34.580  25.010   3.706
83984W        W55655  15.320  30.710   3.307
83985W        W55656  21.369  27.531  13.456
83986W        W55657  16.347  32.056   3.725
83987W        W55658  10.634  37.046   0.863
83988W        W55659  18.209  30.700   2.689
83989W        W55660  44.283  21.567   5.442
83990W        W55661  30.009  31.864   1.872
83991W        W55662  21.968   3.774  11.974
83992W        W55663  23.274   8.261   3.322
83993W        W55664   8.817  18.605   2.207
83994W        W55665  26.481  44.935   3.366
83995W        W55666   5.180  17.227   2.334
83996W        W55667  37.412   5.223  10.754
83997W        W55668  12.739  44.364  12.432
83998W        W55669  36.062  16.998  12.623
83999W        W55670  31.940   8.982   1.439
84000W        W55671  38.386   8.704   1.343
84001W        W55672  44.110  38.860  11.451
84002W        W55673  29.743  19.577  10.393
84003W        W55674   9.867  43.845   0.030
84004W        W55675  44.896  15.590   4.312
84005W        W55676  26.430  31.704   0.677
84006W        W55677  19.683  27.599   0.735
84007W        W55678  26.624  16.636  14.072
84008W        W55679  36.134  40.143   4.668
84009W        W55680  24.984  25.218  11.544
84010W        W55681  39.499  38.832   1.738
84011W        W55682  30.879  29.052  13.799
84012W        W55683  32.578  31.196  14.897
84013W        W55684   4.670  12.152   3.701
84014W        W55685  35.854  44.362  13.055
84015W        W55686   2.713   6.036   0.556
84016W        W55687  44.463   6.690  13.741
84017W        W55688  31.143  12.799   1.285
84018W        W55689   4.666  34.983   1.241
84019W        W55690   4.731   1.145  13.385
84020W        W55691  33.967  38.770   1.919
84021W        W55692  30.171  23.627  10.714
84022W        W55693  20.532   7.638  13.302
84023W        W55694  19.558  20.031  12.406
84024W        W55695  24.446   1.600   2.278
84025W        W55696  21.462   3.013   4.067
84026W        W55697   7.686  10.678  10.659
84027W        W55698   8.732  30.215   0.971
84028W        W55699  12.760  42.430   4.472
84029W        W55700  38.626   1.941  10.751
84030W        W55701  40.135  31.608  12.386
84031W        W55702  42.033  26.717  13.172
84032W        W55703  28.954   3.165   3.592
84033W        W55704   8.288  16.190  11.413
84034W        W55705   4.479  25.571  13.518
84035W        W55706  37.490   5.456  11.202
84036W        W55707  36.018  21.770   1.507
84037W        W55708  27.467  42.087   4.493
84038W        W55709  17.839  10.242   2.360
84039W        W55710   0.810  18.561  14.771
84040W        W55711  27.405  36.482   1.257
84041W        W55712  44.850  38.097   1.070
84042W        W55713   3.621  29.255  11.066
84043W        W55714  41.008  43.041   0.259
84044W        W55715  38.045  27.807  11.504
84045W        W55716  17.930   4.359  13.863
84046W        W55717   3.823  24.192   1.711
84047W        W55718  40.849  17.923   2.418
84048W        W55719  29.390   8.699  14.765
84049W        W55720  13.810   2.933  13.109
84050W        W55721  30.658   7.789   0.355
84051W        W55722  37.759  26.052  13.535
84052W        W55723  11.325  22.078   0.780
84053W        W55724  25.784  37.111   5.066
84054W        W55725   2.260  18.140  14.236
84055W        W55726  20.244  33.921  10.727
84056W        W55727  33.499   7.393   2.809
84057W        W55728  44.392  32.860   4.353
84058W        W55729  17.968  19.108  12.909
84059W        W55730  11.101  36.913   1.763
84060W        W55731  10.692   5.290   0.843
84061W        W55732   9.507  17.455  13.005
84062W        W55733  28.613  35.534  11.164
84063W        W55734  22.517  14.380   0.750
84064W        W55735  35.620  24.049  10.735
84065W        W55736  29.390   2.486   3.123
84066W        W55737  10.167  38.760  12.424
84067W        W55738   8.346   0.670   0.996
84068W        W55739  31.223   0.963  14.368
84069W        W55740   2.766  19.159   2.678
84070W        W55741  43.850  42.464   1.482
84071W        W55742  28.795  34.884   4.412
84072W        W55743  28.139  25.514   0.919
84073W        W55744  32.588  38.417  13.817
84074W        W55745  41.750  22.054  10.278
84075W        W55746  20.211  43.654  14.355
84076W        W55747   2.045  25.602  11.107
84077W        W55748  35.212  43.421   2.267
84078W        W55749  16.653  10.311   1.844
84079W        W55750  36.135  20.308   2.472
84080W        W55751  17.027  43.887   1.924
84081W        W55752  26.184  35.383   2.318
84082W        W55753   7.908  37.853  12.547
84083W        W55754  30.916  38.071  12.895
84084W        W55755   1.884  24.266  10.932
84085W        W55756   2.466  16.764  14.341
84086W        W55757  34.048  38.352  14.042
84087W        W55758  22.523   6.658  12.244
84088W        W55759  14.049  39.631  11.604
84089W        W55760  13.908  16.733   0.928
84090W        W55761  43.595   5.623  14.662
84091W        W55762  30.377  21.553   2.615
84092W        W55763  13.377  10.225   1.472
84093W        W55764  41.444  21.729  13.565
84094W        W55765   2.397  21.607  10.896
84095W        W55766  39.883  17.142   4.107
84096W        W55767  15.271   0.282  12.107
84097W        W55768  20.490  34.152  14.411
84098W        W55769   4.383   9.325   2.717
84099W        W55770  25.157   8.942   2.804
84100W        W55771  41.758  22.237  12.474
84101W        W55772  38.890   8.720   1.138
84102W        W55773   7.357  32.468  11.911
84103W        W55774   2.259  19.992   3.964
84104W        W55775  35.618  19.004   0.852
84105W        W55776   4.781  30.948   1.325
84106W        W55777  28.873   3.415   2.210
84107W        W55778  39.323  36.328  14.936
84108W        W55779  37.508  28.542   0.767
84109W        W55780  27.443  39.862  11.298
84110W        W55781  12.879   6.381  13.068
84111W        W55782  43.458  26.365   2.232
84112W        W55783  33.345  35.054  12.992
84113W        W55784  44.239  37.486  13.034
84114W        W55785   1.733  22.158   4.735
84115W        W55786  33.845  18.382   2.798
84116W        W55787  33.942  30.152  11.947
84117W        W55788   9.666  15.806   2.874
84118W        W55789   7.356  14.225   4.207
84119W        W55790  40.911  18.186   0.436
84120W        W55791  36.606  27.970   3.729
84121W        W55792   1.108  36.723  11.554
84122W        W55793  10.350  29.534  12.947
84123W        W55794   6.792  35.389  13.389
84124W        W55795   0.618  18.278  14.349
84125W        W55796  30.543  10.859  11.917
84126W        W55797  25.000  26.559  13.509
84127W        W55798  11.923  40.843   4.608
84128W        W55799   9.438  35.479   4.109
84129W        W55800   4.978  37.545   2.638
84130W        W55801   2.772  19.312  14.604
84131W        W55802  10.645  18.354   4.675
84132W        W55803  26.205  25.293  14.212
84133W        W55804   8.413  20.413   3.094
84134W        W55805  37.554   4.966   3.310
84135W        W55806   3.540   5.263   1.244
84136W        W55807   3.122  39.394  13.074
84137W        W55808   0.218  44.890  14.161
84138W        W55809  40.965  21.671  14.439
84139W        W55810  34.689  40.129   0.888
84140W        W55811  27.727  14.554   3.937
84141W        W55812   5.508  25.078   5.202
84142W        W55813  14.433  17.551   0.905
84143W        W55814  11.637  14.217  12.311
84144W        W55815  14.681   8.854  13.318
84145W        W55816   8.782  28.703  12.041
84146W        W55817  29.006  17.333   3.745
84147W        W55818  44.981   0.261  13.377
84148W        W55819  44.298  14.174  12.937
84149W        W55820  22.938  14.722   2.796
84150W        W55821  32.358  17.158  10.922
84151W        W55822  16.777  20.814   2.359
84152W        W55823  15.652   7.765  13.997
84153W        W55824  12.188  36.607   4.661
84154W        W55825  10.397  27.165   1.366
84155W        W55826  23.060  25.477  13.288
84156W        W55827   2.965  37.793  10.690
84157W        W55828  10.519  23.359  11.200
84158W        W55829  23.058   6.257   0.784
84159W        W55830  44.158  14.209   2.340
84160W        W55831  26.169  22.564   1.685
84161W        W55832  38.311  11.831  10.636
84162W        W55833  20.802   0.775   0.989
84163W        W55834  43.537  26.656   5.191
84164W        W55835  40.014  12.836  13.081
84165W        W55836  19.606  14.219   0.671
84166W        W55837   1.966  10.316   3.417
84167W        W55838  28.730  36.057  10.939
84168W        W55839  26.155   4.880   4.012
84169W        W55840  14.583  41.290   5.039
84170W        W55841  17.802  14.136   0.443
84171W        W55842  35.113  26.033  14.770
84172W        W55843  33.818   4.692   3.268
84173W        W55844  19.422   2.921   2.736
84174W        W55845  27.908  36.427  11.577
84175W        W55846  29.388  36.013   2.696
84176W        W55847   6.697  31.425  13.399
84177W        W55848  16.739  28.125  13.303
84178W        W55849  38.307   1.267   4.093
84179W        W55850  44.467  35.061   0.928
84180W        W55851  37.808  25.030  13.285
84181W        W55852  26.051  27.496   1.312
84182W        W55853  21.054  39.624  11.837
84183W        W55854  39.285   7.141  14.806
84184W        W55855  24.008   2.892   4.436
84185W        W55856   3.189  29.998   1.651
84186W        W55857   2.419  31.096  11.160
84187W        W55858   3.472  19.108  11.072
84188W        W55859  16.724  20.082  13.142
84189W        W55860   7.240  43.269  13.475
84190W        W55861  24.500  18.016  13.485
84191W        W55862  21.338  22.405   9.987
84192W        W55863  41.544  33.929  12.091
84193W        W55864  31.427  24.233  12.156
84194W        W55865   5.826  32.527  14.445
84195W        W55866   4.758   8.246  14.783
84196W        W55867  17.343  31.825   5.178
84197W        W55868  41.810  11.717  13.398
84198W        W55869  19.495  36.022   3.342
84199W        W55870  13.253  31.618   0.379
84200W        W55871  38.018  40.374   4.128
84201W        W55872  39.394  31.557  13.240
84202W        W55873   2.840  30.364   1.849
84203W        W55874  43.921  23.536   2.257
84204W        W55875  11.823  35.973  12.187
84205W        W55876  44.762  35.148  14.979
84206W        W55877  31.339   5.252  14.500
84207W        W55878  10.735  14.826   1.509
84208W        W55879   7.839  32.391   1.770
84209W        W55880  44.224  17.232   0.900
84210W        W55881   2.145  19.211  12.106
84211W        W55882  40.468  35.814  11.635
84212W        W55883   8.938  15.260  11.993
84213W        W55884  24.197  24.696   3.673
84214W        W55885  44.339  24.802   4.700
84215W        W55886  10.996  11.246   1.320
84216W        W55887  29.638  33.044  14.293
84217W        W55888  35.019  15.613  10.345
84218W        W55889   4.815  20.275   2.394
84219W        W55890  29.538  37.594  13.920
84220W        W55891  18.018  34.988   0.771
84221W        W55892  22.287  37.636  11.552
84222W        W55893  25.967  44.593   4.408
84223W        W55894  28.960   6.203   4.755
84224W        W55895  10.847   0.880   4.361
84225W        W55896  43.208  15.563   4.593
84226W        W55897  19.734  40.553  11.657
84227W        W55898  21.688  15.826  13.666
84228W        W55899  33.460   0.463  10.763
84229W        W55900  20.717   0.766   4.169
84230W        W55901  18.070  23.158   0.066
84231W        W55902  37.433  35.572  11.991
84232W        W55903  20.993  26.945   9.579
84233W        W55904  36.217   2.716   1.575
84234W        W55905  34.472  21.339   1.240
84235W        W55906  14.602  36.944   1.092
84236W        W55907  39.736  14.273   0.830
84237W        W55908  41.805   5.434   1.540
84238W        W55909  14.141  40.569   2.653
84239W        W55910  36.086   9.544   2.724
84240W        W55911   0.365  34.330   3.597
84241W        W55912  30.441  35.516   4.918
84242W        W55913  23.660  17.747  12.447
84243W        W55914  38.947  33.558   4.110
84244W        W55915   1.180  18.764   4.220
84245W        W55916  30.702  34.951   1.115
84246W        W55917  20.988  37.105   3.201
84247W        W55918  44.800  28.901   3.741
84248W        W55919  32.033  41.464   3.367
84249W        W55920  26.835  44.924  12.506
84250W        W55921  35.402  32.004   2.792
84251W        W55922   5.785  19.432   1.717
84252W        W55923  38.873  37.800   2.675
84253W        W55924  38.362  43.322  13.874
84254W        W55925   5.294  20.527  14.117
84255W        W55926   1.859   1.525   0.941
84256W        W55927  38.943  28.994   3.460
84257W        W55928   4.527   5.730   4.389
84258W        W55929  19.574  19.299  13.439
84259W        W55930  25.634  37.481  14.331
84260W        W55931  28.547  29.602   4.207
84261W        W55932   9.712  22.763  14.866
84262W        W55933  41.318  16.776  14.823
84263W        W55934   1.253  12.205  12.463
84264W        W55935  13.210  24.181   2.574
84265W        W55936  35.047  17.531  13.789
84266W        W55937  37.132  26.935   3.663
84267W        W55938  25.184  22.711  12.587
84268W        W55939  14.634  40.769   3.244
84269W        W55940   1.844  35.058   4.690
84270W        W55941  18.807   4.717   2.847
84271W        W55942   8.783  32.024   0.850
84272W        W55943  27.543  42.746   2.763
84273W        W55944  27.059  44.982  14.793
84274W        W55945  32.732  19.235  13.062
84275W        W55946  26.817  37.464  11.946
84276W        W55947  10.548  26.091  12.103
84277W        W55948  43.893  38.817  14.752
84278W        W55949  42.907  42.561   4.843
84279W        W55950  10.219   8.140  13.413
84280W        W55951   7.453  33.620   0.442
84281W        W55952   1.833  33.326   1.820
84282W        W55953  41.854  22.701   2.760
84283W        W55954  38.999  44.835   3.586
84284W        W55955  16.119   9.433   4.505
84285W        W55956  13.418  26.061  13.493
84286W        W55957   7.138   5.996   0.959
84287W        W55958   6.221  19.511   3.080
84288W        W55959   4.488  43.859   0.057
84289W        W55960  40.482  12.039  13.818
84290W        W55961   0.196  37.418   0.105
84291W        W55962   2.489  27.585   0.682
84292W        W55963  41.185   0.048   3.713
84293W        W55964  37.934  24.034   2.694
84294W        W55965  23.243   2.212   1.412
84295W        W55966  13.205  25.541   2.539
84296W        W55967   3.896  30.839   1.216
84297W        W55968  37.973  44.018  12.594
84298W        W55969  23.026  41.434   4.820
84299W        W55970  13.412  33.172   2.390
84300W        W55971  11.054  18.720   4.581
84301W        W55972   6.386  23.225  10.596
84302W        W55973  36.497  41.294  10.867
84303W        W55974  34.015  11.437  12.099
84304W        W55975  27.689  34.664  14.877
84305W        W55976  42.992   0.682  12.167
84306W        W55977   9.887  42.090   3.384
84307W        W55978  30.106  42.820   0.277
84308W        W55979   3.953   6.337  12.305
84309W        W55980  41.447   0.696   1.277
84310W        W55981   7.866  29.398  13.037
84311W        W55982  32.320   3.755  14.729
84312W        W55983  31.243  28.403  10.985
84313W        W55984  13.135   1.296   0.954
84314W        W55985  19.340   6.282  14.976
84315W        W55986  31.459  14.783  13.148
84316W        W55987  38.910  31.130   4.082
84317W        W55988  30.190  18.140  14.390
84318W        W55989   1.369  40.136   0.959
84319W        W55990   0.382  22.581  11.936
84320W        W55991  43.252  25.329   0.279
84321W        W55992  43.473  28.047  11.943
84322W        W55993  24.657   1.350   1.826
84323W        W55994  24.461  14.053   0.402
84324W        W55995  19.420  43.167   3.654
84325W        W55996   3.928  23.087   2.739
84326W        W55997  35.433   1.844   1.215
84327W        W55998  44.757   9.750   3.374
84328W        W55999  12.887   6.415   1.039
84329W        W56000  23.933   4.054   1.479
84330W        W56001   2.064  29.403   1.413
84331W        W56002  37.923  25.787  13.111
84332W        W56003  17.156   1.643   4.374
84333W        W56004  10.783   1.930  12.538
84334W        W56005  40.868  43.816  14.832
84335W        W56006  19.580  21.911  11.672
84336W        W56007  17.797  13.613  13.665
84337W        W56008  31.593  29.133  12.024
84338W        W56009  39.808  32.623   2.395
84339W        W56010   3.665  12.156   2.392
84340W        W56011  44.242  29.991  10.565
84341W        W56012  26.010  34.901  10.709
84342W        W56013  31.112   5.439  14.048
84343W        W56014  15.626  25.649  11.840
84344W        W56015  17.641  18.803   1.053
84345W        W56016  24.198   9.913  10.832
84346W        W56017  10.420   0.372   3.242
84347W        W56018   4.833  11.314  14.814
84348W        W56019  43.412  32.708   2.296
84349W        W56020  32.165  18.186   3.795
84350W        W56021   6.183   5.128  11.139
84351W        W56022  15.593  27.740   4.248
84352W        W56023  25.635  19.808  11.701
84353W        W56024  24.219  19.462  12.059
84354W        W56025  43.424  40.214  13.843
84355W        W56026   9.757  23.615  10.589
84356W        W56027  41.868  10.876   0.751
84357W        W56028  39.452   7.265  13.930
84358W        W56029  21.471  38.560   5.417
84359W        W56030  20.623  14.735   5.448
84360W        W56031  23.066  20.723   4.091
84361W        W56032  30.005  31.102   2.501
84362W        W56033  40.794  28.652   3.348
84363W        W56034   0.826  39.284   2.685
84364W        W56035  29.567   6.493   3.675
84365W        W56036   4.744  37.152   0.773
84366W        W56037  27.468  27.302   2.387
84367W        W56038  29.544  42.748   2.203
84368W        W56039  17.638   9.722   2.350
84369W        W56040  25.683  11.975   2.400
84370W        W56041  24.544  38.062  14.841
84371W        W56042  12.386  15.721  13.757
84372W        W56043  10.393  31.527  14.403
84373W        W56044  21.741  24.780  10.168
84374W        W56045   2.360  29.913  13.944
84375W        W56046  12.387  26.824  11.904
84376W        W56047  36.141  40.964   4.133
84377W        W56048  18.249  24.474   0.767
84378W        W56049  41.161   6.728   0.862
84379W        W56050  39.190   7.935   4.554
84380W        W56051  24.752  12.489   0.861
84381W        W56052  22.115   3.317   2.760
84382W        W56053  30.128  14.197  13.446
84383W        W56054  34.949  31.014   3.628
84384W        W56055  44.400   8.335  10.079
84385W        W56056   2.240  29.665   1.831
84386W        W56057  20.731  34.578  14.549
84387W        W56058   0.727  14.571  11.438
84388W        W56059  16.303  14.132  12.099
84389W        W56060   7.747   1.010  14.251
84390W        W56061  19.457  27.594   2.161
84391W        W56062  10.434  29.678   2.318
84392W        W56063   1.838  33.559   3.695
84393W        W56064  23.007  39.388  12.897
84394W        W56065  20.810  13.916  12.119
84395W        W56066   1.409  44.251  14.389
84396W        W56067  25.745  12.619  10.983
84397W        W56068  35.875  29.373  13.530
84398W        W56069   4.402  27.570  10.506
84399W        W56070   9.868  21.744  10.809
84400W        W56071  20.732  37.106  13.396
84401W        W56072  13.592   6.025  11.114
84402W        W56073   3.480   9.043   1.714
84403W        W56074  32.222  29.179  12.574
84404W        W56075  23.667  35.968   3.642
84405W        W56076  42.421  13.258   4.315
84406W        W56077  25.164   4.689  14.467
84407W        W56078  32.685   4.245   1.731
84408W        W56079   4.131  33.937  14.253
84409W        W56080   1.285  37.945  12.995
84410W        W56081  18.175  22.549  14.263
84411W        W56082  18.205  15.931  11.650
84412W        W56083  32.184   8.209   3.252
84413W        W56084  27.092   2.360  13.436
84414W        W56085  21.497  20.992  11.909
84415W        W56086  28.610   1.277  13.802
84416W        W56087  14.346  43.208   3.233
84417W        W56088  18.135  12.259  13.479
84418W        W56089  36.831   6.160  11.789
84419W        W56090  20.482  34.578   4.846
84420W        W56091  11.343  27.167   4.674
84421W        W56092  26.903  31.529  13.597
84422W        W56093  23.300  11.422   1.361
84423W        W56094   8.251  15.047  13.159
84424W        W56095   9.380   0.418  10.724
84425W        W56096  42.312  26.436  13.863
84426W        W56097  26.434  40.329  10.399
84427W        W56098   6.755   7.450   3.520
84428W        W56099  44.925  22.481  14.412
84429W        W56100   0.592  34.092   0.750
84430W        W56101  39.899  19.070  12.393
84431W        W56102  21.492  40.486  14.699
84432W        W56103  36.480  37.838  10.667
84433W        W56104  19.252  29.636  11.623
84434W        W56105  12.295  22.133  14.925
84435W        W56106  21.782  21.694   4.570
84436W        W56107  32.579  15.218  13.453
84437W        W56108  39.155  34.508   2.769
84438W        W56109  29.883  44.966   1.767
84439W        W56110  10.622  19.316  12.938
84440W        W56111   0.768   9.461   2.168
84441W        W56112  32.316  18.309  14.322
84442W        W56113  21.712  10.808   3.842
84443W        W56114   6.393  17.752  10.798
84444W        W56115   7.845  12.233  11.550
84445W        W56116  28.719  43.327   3.934
84446W        W56117  32.279   1.496   0.908
84447W        W56118  44.441  14.920   4.628
84448W        W56119  19.192  32.918  10.623
84449W        W56120  17.088  44.879   1.880
84450W        W56121  36.391  38.790  11.676
84451W        W56122  38.369  18.504   4.862
84452W        W56123  10.214   7.973  14.281
84453W        W56124  13.131  33.250  12.724
84454W        W56125  20.718  44.447   4.527
84455W        W56126   1.587   4.038  14.368
84456W        W56127   1.677  30.472  14.870
84457W        W56128  16.158  38.937  13.752
84458W        W56129  31.075  10.292  14.231
84459W        W56130  18.761  21.752   3.235
84460W        W56131  11.268  26.061   4.950
84461W        W56132  22.695  43.569   2.294
84462W        W56133  24.492  31.409  12.003
84463W        W56134  40.615   5.683  12.393
84464W        W56135  29.093  38.242   0.961
84465W        W56136   6.317  28.892   1.842
84466W        W56137  29.470  34.460   0.397
84467W        W56138   6.312  10.394   1.346
84468W        W56139   1.556  12.658  11.568
84469W        W56140  30.106  17.764  14.011
84470W        W56141  42.524   1.693  10.905
84471W        W56142  14.723  16.272  11.185
84472W        W56143  34.023   9.977   3.239
84473W        W56144   3.189  10.869   0.027
84474W        W56145  33.447  17.403   1.718
84475W        W56146  17.955  12.621  11.015
84476W        W56147  21.343  10.209   2.818
84477W        W56148  14.499  37.705   4.548
84478W        W56149  24.817  31.630   2.571
84479W        W56150  15.257   7.853  10.136
84480W        W56151  27.455  34.860  12.488
84481W        W56152  22.687   0.890   1.364
84482W        W56153  36.664  26.507  11.198
84483W        W56154  38.884  23.658   0.309
84484W        W56155  28.502  32.403   4.349
84485W        W56156  38.974  40.942   3.662
84486W        W56157  30.352   8.311  13.074
84487W        W56158  25.146  36.565   0.742
84488W        W56159   0.305  15.293  11.927
84489W        W56160   9.838  41.279  14.430
84490W        W56161   3.727  32.593  14.883
84491W        W56162  36.887  42.913   3.683
84492W        W56163  21.200   8.285  14.958
84493W        W56164   2.944  39.868  12.951
84494W        W56165  14.145  23.947  14.820
84495W        W56166  43.567   1.217  11.669
84496W        W56167  41.260  31.041   1.634
84497W        W56168  19.548  36.443  11.019
84498W        W56169  11.095  36.543   2.971
84499W        W56170  36.335  27.144  12.532
84500W        W56171  23.272  40.297  12.981
84501W        W56172  39.627  10.583  14.829
84502W        W56173  34.846  16.532  10.309
84503W        W56174  12.165  43.928   2.177
84504W        W56175  21.283  13.798   0.057
84505W        W56176  19.060  30.406  11.114
84506W        W56177  26.174  38.948   4.210
84507W        W56178  40.078  32.913  12.488
84508W        W56179  10.577  31.415  11.161
84509W        W56180   4.686  20.759   2.460
84510W        W56181  18.317  23.285  11.163
84511W        W56182  24.774  36.778   1.067
84512W        W56183   2.868  23.963   1.324
84513W        W56184  10.898   5.199  11.669
84514W        W56185  38.345  31.279  13.319
84515W        W56186  15.554  22.682  10.908
84516W        W56187  29.507  23.960   4.962
84517W        W56188   1.714   3.524  14.473
84518W        W56189  20.062  20.661   2.594
84519W        W56190  42.050   9.813   4.624
84520W        W56191  16.138  26.202   2.698
84521W        W56192  21.077  25.200  10.735
84522W        W56193  27.581  32.469   2.371
84523W        W56194  17.566  31.365  10.587
84524W        W56195  43.004  41.001  10.386
84525W        W56196  25.364  38.812  10.888
84526W        W56197  25.066  27.387  13.923
84527W        W56198  32.316  40.945  10.735
84528W        W56199  39.833  37.864  10.714
84529W        W56200  29.073  29.415   2.362
84530W        W56201  19.642  18.432   4.600
84531W        W56202  25.284  23.770  11.659
84532W        W56203  16.751  24.739   5.005
84533W        W56204  18.182  14.551   0.407
84534W        W56205   3.737   5.335   0.765
84535W        W56206   4.625  13.197   0.208
84536W        W56207  35.879   5.393   2.878
84537W        W56208  20.924  25.974  11.848
84538W        W56209   5.760   8.198  10.707
84539W        W56210   5.579  23.959   0.814
84540W        W56211   7.411   7.827  12.518
84541W        W56212  10.802  36.386  14.737
84542W        W56213  13.844  30.872  12.087
84543W        W56214  38.781  16.973  13.506
84544W        W56215  18.746   8.833   5.001
84545W        W56216   9.908  35.384   1.810
84546W        W56217  41.502   5.768   0.347
84547W        W56218   9.928  40.344  10.983
84548W        W56219   4.719  22.280  12.447
84549W        W56220  28.467   4.835  13.815
84550W        W56221   8.439  27.563   1.447
84551W        W56222  28.980   7.288  11.593
84552W        W56223  35.443  44.231  13.389
84553W        W56224  18.772  10.139  10.616
84554W        W56225   3.984  11.461   1.619
84555W        W56226  40.988   1.793  10.839
84556W        W56227   3.850  30.049   4.161
84557W        W56228  36.935  40.940  14.915
84558W        W56229  31.039  18.595  13.427
84559W        W56230  32.066  24.536   1.350
84560W        W56231  13.825  28.136  14.831
84561W        W56232  19.882   6.853   1.943
84562W        W56233  44.397  23.522   5.516
84563W        W56234  33.136  26.777  10.615
84564W        W56235  29.233  17.838   1.301
84565W        W56236  24.923  15.041  12.024
84566W        W56237  21.148  24.059  14.295
84567W        W56238  34.884  34.965   1.747
84568W        W56239  23.144  44.764   3.301
84569W        W56240  15.180  10.391   3.574
84570W        W56241  40.531  15.798   0.924
84571W        W56242   1.294  29.549  14.470
84572W        W56243  37.927   0.037  12.073
84573W        W56244  32.516  12.274  11.690
84574W        W56245  27.994   7.040   5.053
84575W        W56246   0.087  17.500  14.856
84576W        W56247  20.333  25.661   2.723
84577W        W56248  34.290   2.386   0.796
84578W        W56249  38.714  44.316  10.241
84579W        W56250   0.290  23.009   0.038
84580W        W56251  36.878  31.683   2.626
84581W        W56252  12.247   6.833   3.028
84582W        W56253  44.580  26.462  14.346
84583W        W56254  28.973  16.269   1.140
84584W        W56255  33.417   5.398   1.834
84585W        W56256  18.505   5.361  12.080
84586W        W56257  16.517  28.143  10.699
84587W        W56258  41.435  23.529  14.456
84588W        W56259  23.642  18.296  14.381
84589W        W56260   0.419  18.236  12.940
84590W        W56261   2.667  38.313  12.102
84591W        W56262  31.094   0.388  10.707
84592W        W56263  40.577  37.664  12.375
84593W        W56264   0.793   4.702   3.616
84594W        W56265  14.926   4.301  13.233
84595W        W56266  21.606  44.305  10.550
84596W        W56267  18.875  18.659  13.728
84597W        W56268  15.196  11.734   2.252
84598W        W56269   1.568   2.402   3.245
84599W        W56270   9.364   8.318   0.724
84600W        W56271  25.091  27.429   4.085
84601W        W56272  34.918  44.690   0.459
84602W        W56273   9.557  33.227  11.497
84603W        W56274  17.978  22.172   3.530
84604W        W56275  14.311  31.687  13.223
84605W        W56276  22.650  16.745  11.499
84606W        W56277   0.739  10.089   4.980
84607W        W56278   4.965  44.566  10.140
84608W        W56279  41.884  27.229   3.711
84609W        W56280   9.781  13.655   2.124
84610W        W56281   8.681  26.155   3.117
84611W        W56282  21.700  16.684  13.131
84612W        W56283   0.514  20.825   3.684
84613W        W56284  10.041  11.754  11.447
84614W        W56285  32.660  12.100   2.382
84615W        W56286   4.281  37.257  12.266
84616W        W56287  41.015  30.250  10.506
84617W        W56288  16.058  44.264   1.853
84618W        W56289  37.647  18.600   2.644
84619W        W56290  14.848  28.159   4.558
84620W        W56291  18.336  18.156   4.068
84621W        W56292   1.239  21.005   4.069
84622W        W56293  26.890  38.310  14.106
84623W        W56294  22.262  35.133  12.890
84624W        W56295   1.048  12.650   1.666
84625W        W56296  12.833  42.508  10.507
84626W        W56297  13.423   1.850  14.824
84627W        W56298  42.032  25.077   0.823
84628W        W56299  24.043  28.880   4.151
84629W        W56300  14.087  42.689  10.782
84630W        W56301  26.090  14.304   4.171
84631W        W56302  23.286   8.960   2.932
84632W        W56303   8.637  44.396   0.723
84633W        W56304  37.120  35.861  14.524
84634W        W56305  15.181  43.056   3.854
84635W        W56306  23.974  40.924   0.019
84636W        W56307  29.604  19.238  11.513
84637W        W56308  10.654  13.314   3.597
84638W        W56309  19.231  21.523  14.570
84639W        W56310  35.815   6.645  11.243
84640W        W56311  27.696   5.201   2.215
84641W        W56312  22.945  27.272  11.626
84642W        W56313  32.099  33.087  14.837
84643W        W56314  38.603  34.934   3.821
84644W        W56315  10.243  43.044   3.665
84645W        W56316  25.196  34.039  11.342
84646W        W56317  41.548  15.504  11.551
84647W        W56318  38.997  15.843   2.595
84648W        W56319  13.937  35.825  14.470
84649W        W56320  21.533  30.966   3.636
84650W        W56321  24.942  12.358  11.610
84651W        W56322  20.517  42.460   2.648
84652W        W56323   3.589  36.616  13.772
84653W        W56324   0.405  27.441  13.453
84654W        W56325  21.986  12.498   3.942
84655W        W56326  28.916  11.824   3.145
84656W        W56327   3.299   1.188   4.806
84657W        W56328  42.610   1.724   3.766
84658W        W56329  21.153   5.985  13.661
84659W        W56330  32.990   4.835   3.857
84660W        W56331  35.884  36.734   2.814
84661W        W56332  27.637  18.778   2.414
84662W        W56333  25.190  13.281  11.870
84663W        W56334  21.568  22.699  13.739
84664W        W56335  14.288   0.812   2.891
84665W        W56336   3.246   8.922  10.729
84666W        W56337  13.299  12.380  14.959
84667W        W56338  33.179  33.787   1.660
84668W        W56339  40.253  30.653  10.995
84669W        W56340  13.359   5.453   4.787
84670W        W56341  36.017  24.724   4.587
84671W        W56342  43.993  43.287  11.091
84672W        W56343  18.309  23.627   3.091
84673W        W56344  16.889  44.821  10.686
84674W        W56345  26.032  37.076   1.688
84675W        W56346   9.497  41.507  14.732
84676W        W56347   5.138  23.755   4.422
84677W        W56348  23.068  12.536  13.986
84678W        W56349  43.911  15.048  13.360
84679W        W56350  30.629   3.967  12.473
84680W        W56351  12.790  11.132  11.550
84681W        W56352  21.092  43.093   4.529
84682W        W56353  24.471  22.322  12.366
84683W        W56354  37.538  38.901  10.538
84684W        W56355  30.530  39.524   1.310
84685W        W56356  22.806  22.650   0.243
84686W        W56357  15.662  40.810  14.246
84687W        W56358  22.289  30.688  11.380
84688W        W56359   3.833  26.219   1.629
84689W        W56360  43.302  10.349   0.462
84690W        W56361  20.490  16.610  13.748
84691W        W56362   1.772  25.504   3.227
84692W        W56363  20.702  23.029   4.500
84693W        W56364  20.788  37.772  14.769
84694W        W56365   0.886  27.924   1.072
84695W        W56366  43.005  16.131   2.556
84696W        W56367  18.077   5.878   1.792
84697W        W56368   1.500  19.142   9.751
84698W        W56369  42.771   8.134  14.905
84699W        W56370  26.544   9.236   0.006
84700W        W56371   0.767   4.234  12.535
84701W        W56372   0.862  37.403   1.711
84702W        W56373  30.509  41.512   2.784
84703W        W56374  39.803  40.776  14.898
84704W        W56375  32.595  33.490  13.464
84705W        W56376  23.058  28.452   4.555
84706W        W56377  15.846  39.160   2.692
84707W        W56378  12.006  20.444   1.937
84708W        W56379  38.178  44.782  13.065
84709W        W56380  21.617  25.977   3.850
84710W        W56381  25.438  21.131  11.437
84711W        W56382  29.517  36.692  11.143
84712W        W56383   8.681  24.599   4.068
84713W        W56384   5.189  14.772  11.297
84714W        W56385  25.997  34.954   4.611
84715W        W56386   3.223  38.063  11.066
84716W        W56387   7.326   2.742  10.753
84717W        W56388  44.989   4.751  14.876
84718W        W56389   0.808  26.242   3.299
84719W        W56390  44.153  31.539  12.015
84720W        W56391  24.241  18.606  11.836
84721W        W56392  33.948  35.828   3.040
84722W        W56393  44.192  23.934  12.454
84723W        W56394  24.081  40.920  13.627
84724W        W56395  13.639  11.655  13.493
84725W        W56396  34.493  13.747   1.577
84726W        W56397  21.610  41.230   1.666
84727W        W56398   1.028  11.373   2.385
84728W        W56399  28.000  43.913   0.905
84729W        W56400  28.028  34.651  14.418
84730W        W56401   9.466  38.311  13.062
84731W        W56402  17.820  29.561  11.908
84732W        W56403  20.274  22.444   2.779
84733W        W56404  35.820  34.928   3.139
84734W        W56405   1.516   7.154  10.373
84735W        W56406  21.469  31.965   2.420
84736W        W56407  21.901   8.779   3.149
84737W        W56408  10.550  34.799  12.278
84738W        W56409  27.749  19.178   3.165
84739W        W56410   4.813  19.834   1.461
84740W        W56411  38.069  15.364   1.202
84741W        W56412  10.121  23.103   1.994
84742W        W56413  32.660  38.322   4.150
84743W        W56414  16.633  41.729   3.378
84744W        W56415  24.123  28.440   3.185
84745W        W56416  27.053  26.064   2.200
84746W        W56417  42.627  33.987   0.947
84747W        W56418  20.483  19.532  11.218
84748W        W56419  33.612  33.865  13.021
84749W        W56420  18.503  21.896  12.212
84750W        W56421  21.133  38.683   2.844
84751W        W56422  29.507   3.429   1.542
84752W        W56423  31.818   3.737  14.704
84753W        W56424  13.304  12.221   4.241
84754W        W56425  14.786  25.062   2.307
84755W        W56426  17.849  36.314  13.359
84756W        W56427  27.439  29.509   0.213
84757W        W56428  16.338   4.410   5.520
84758W        W56429  39.314   6.789  11.996
84759W        W56430  22.008   9.771  12.554
84760W        W56431  34.503  38.866   9.928
84761W        W56432   3.652  12.754   2.256
84762W        W56433  28.995  23.514   4.861
84763W        W56434  25.386  10.347  10.902
84764W        W56435  37.976   2.314   0.783
84765W        W56436   9.415  14.699   2.300
84766W        W56437  10.871  28.617  12.876
84767W        W56438   3.958  14.326   2.746
84768W        W56439  41.265   8.794  11.591
84769W        W56440  25.475  37.925   2.358
84770W        W56441  12.965  40.429   1.307
84771W        W56442  29.219  15.236   1.861
84772W        W56443   2.941  24.623  12.317
84773W        W56444  37.319  20.255   0.005
84774W        W56445  28.499  12.191   2.864
84775W        W56446  33.547  19.669   3.335
84776W        W56447  21.837  31.564   0.963
84777W        W56448  30.613  36.686   0.066
84778W        W56449  25.637  38.551  12.934
84779W        W56450  15.842  18.631  11.647
84780W        W56451   9.588   1.290   3.348
84781W        W56452   4.451  15.252  11.760
84782W        W56453   5.319   6.119  13.518
84783W        W56454  27.000  11.417   4.542
84784W        W56455   9.248  29.344   1.740
84785W        W56456  42.953  35.969   1.523
84786W        W56457  43.430  30.448   1.693
84787W        W56458  39.203  10.608   0.159
84788W        W56459  13.167  38.405  13.404
84789W        W56460  21.573   6.008   0.761
84790W        W56461  32.120  15.744   2.749
84791W        W56462  40.376  32.521   0.358
84792W        W56463  32.808  38.235   0.979
84793W        W56464  36.596  25.328  10.732
84794W        W56465  25.728  23.268   2.818
84795W        W56466  25.986  31.628  10.520
84796W        W56467  42.423  20.305  13.551
84797W        W56468   5.815   3.388   0.267
84798W        W56469  13.648  37.120  14.699
84799W        W56470  22.586  28.964   4.755
84800W        W56471  30.476  28.075   0.930
84801W        W56472  21.668  38.443   4.069
84802W        W56473   1.346   1.166  12.977
84803W        W56474  41.116  36.177   2.664
84804W        W56475  28.154   8.267   3.593
84805W        W56476  29.766   8.303   1.418
84806W        W56477  19.393  19.779   2.396
84807W        W56478  28.129  28.207  11.008
84808W        W56479  34.342  24.177  13.557
84809W        W56480   1.766  36.348  14.485
84810W        W56481   7.346   2.859   0.780
84811W        W56482  41.813   9.960  11.469
84812W        W56483  32.577   7.224  12.707
84813W        W56484  35.373  11.240   3.859
84814W        W56485  13.744  32.791   0.256
84815W        W56486   7.747   1.833  10.336
84816W        W56487   2.300  23.589   0.843
84817W        W56488   8.015  20.092  14.169
84818W        W56489  21.540  27.474   3.472
84819W        W56490  25.459  29.650  12.056
84820W        W56491  30.524   5.925   2.177
84821W        W56492  34.575  22.751  14.789
84822W        W56493  39.348  32.946  11.345
84823W        W56494  28.989  28.130   0.297
84824W        W56495  41.150  18.260   0.913
84825W        W56496  28.327  33.924   4.208
84826W        W56497  13.064  16.715  11.944
84827W        W56498   3.528  40.533  13.751
84828W        W56499  26.610  10.933   0.816
84829W        W56500   7.370  21.083  10.820
84830W        W56501  27.375   5.309  14.977
84831W        W56502   6.916  39.382   0.364
84832W        W56503   4.186  38.642   2.719
84833W        W56504   3.076  43.342   4.561
84834W        W56505   8.263  24.130   2.703
84835W        W56506  32.023  33.331  11.376
84836W        W56507   7.887  24.552   0.977
84837W        W56508  35.105  21.193   2.783
84838W        W56509  33.920  41.034   0.003
84839W        W56510   9.129  31.395  13.445
84840W        W56511   2.330   7.661   0.305
84841W        W56512  41.577  36.041   0.366
84842W        W56513   3.264   7.618  14.332
84843W        W56514   4.188  43.859   4.214
84844W        W56515  26.648  25.504   0.815
84845W        W56516  35.979   0.718  10.575
84846W        W56517   3.726   9.371  13.047
84847W        W56518  22.805   6.429  10.077
84848W        W56519   5.198   1.819   3.179
84849W        W56520  25.778  22.032   3.576
84850W        W56521  34.167  33.600  11.116
84851W        W56522   9.710  24.248   1.393
84852W        W56523  42.762  37.070  11.962
84853W        W56524  26.927  26.008   5.014
84854W        W56525  28.083  11.807   4.134
84855W        W56526  18.118  21.067  11.956
84856W        W56527  44.833  14.918   0.393
84857W        W56528  23.600  38.793   4.165
84858W        W56529  26.285  37.967  10.718
84859W        W56530   4.708  40.840   1.467
84860W        W56531  33.080  22.618  12.471
84861W        W56532  23.137  20.537   1.381
84862W        W56533   4.781  40.389  14.360
84863W        W56534  43.754  16.688   3.721
84864W        W56535  35.017  11.429  14.219
84865W        W56536  23.689  25.054  13.122
84866W        W56537  19.837   3.208  12.054
84867W        W56538   6.806   9.547  11.173
84868W        W56539   0.912   2.697  13.056
84869W        W56540  39.580   6.231   4.195
84870W        W56541  11.364  13.148  11.706
84871W        W56542  23.167  30.615  11.009
84872W        W56543  42.406  23.243   0.873
84873W        W56544  43.519  26.571   2.764
84874W        W56545  31.691  36.093  14.475
84875W        W56546   2.334  20.086  14.403
84876W        W56547  16.809  27.100   0.781
84877W        W56548  32.083  44.300  14.765
84878W        W56549  32.261  37.865  12.879
84879W        W56550   6.854   2.994   3.893
84880W        W56551  20.557  36.979  12.732
84881W        W56552  26.104  25.498   0.926
84882W        W56553  23.137   9.459   2.926
84883W        W56554  22.045  39.194  14.543
84884W        W56555  38.865  41.750   2.616
84885W        W56556  13.583  38.905   2.402
84886W        W56557  32.332  13.203   3.282
84887W        W56558   9.099   3.985  10.772
84888W        W56559   5.439  35.962   1.732
84889W        W56560  43.424  22.508   0.372
84890W        W56561  29.002  20.955   3.297
84891W        W56562  14.252  22.070  12.602
84892W        W56563  25.500  38.617   1.360
84893W        W56564   7.728   7.861   2.774
84894W        W56565   4.676  16.599  10.904
84895W        W56566  16.595  38.275  12.079
84896W        W56567  40.882  14.003   4.889
84897W        W56568  25.387  43.509  12.522
84898W        W56569   1.301  28.554   4.260
84899W        W56570  44.758   8.661   0.712
84900W        W56571  32.010   8.805   4.596
84901W        W56572  16.103   4.898   3.320
84902W        W56573   9.454  12.520   3.270
84903W        W56574   1.785   4.784   4.539
84904W        W56575  34.050  40.460   4.615
84905W        W56576  10.631  14.334  14.326
84906W        W56577  12.069  42.248   3.340
84907W        W56578  27.460   9.016  14.370
84908W        W56579  33.583  15.682  14.871
84909W        W56580  28.420   9.728  12.499
84910W        W56581  25.469  23.180   0.782
84911W        W56582  32.923  44.865  10.627
84912W        W56583  12.636  24.263   3.750
84913W        W56584   2.958   5.049   0.301
84914W        W56585  30.103  39.052   4.777
84915W        W56586  43.008  42.730   1.419
84916W        W56587   6.650  44.300   3.462
84917W        W56588  23.831  30.770  11.885
84918W        W56589   5.975  28.152  14.941
84919W        W56590  15.082  37.296  11.165
84920W        W56591  33.834  35.272  13.077
84921W        W56592   7.443  16.118  11.459
84922W        W56593  28.921  10.942   2.586
84923W        W56594  40.894  43.091   2.093
84924W        W56595  40.571  39.325   4.171
84925W        W56596  12.047  28.751  11.654
84926W        W56597  16.220  30.128  13.549
84927W        W56598  16.369   9.989   0.798
84928W        W56599  36.390  33.433   3.232
84929W        W56600  34.241  44.253  11.462
84930W        W56601  14.033  33.334  13.025
84931W        W56602   3.329  38.927  12.929
84932W        W56603   0.511  42.517   3.203
84933W        W56604   5.354  33.358   0.419
84934W        W56605  22.915  17.540  11.091
84935W        W56606   5.867  33.395  11.627
84936W        W56607  16.138  16.634  12.572
84937W        W56608   8.840  24.234  12.566
84938W        W56609  40.240  37.328  10.316
84939W        W56610  15.305  33.095  14.386
84940W        W56611  15.455  19.600  13.479
84941W        W56612  18.875  13.258  13.544
84942W        W56613  18.957  30.042  13.822
84943W        W56614  29.212   2.719   2.682
84944W        W56615  14.182  10.539   3.473
84945W        W56616  12.351   0.965  14.005
84946W        W56617  28.001   2.951   4.223
84947W        W56618  44.501  19.751   4.199
84948W        W56619   6.206   0.706  10.613
84949W        W56620  23.958  23.024   3.848
84950W        W56621  42.364  41.038   5.555
84951W        W56622  10.759  40.301   4.173
84952W        W56623  37.043  35.086   4.672
84953W        W56624  16.059  10.342  12.932
84954W        W56625  27.028  37.436  12.897
84955W        W56626  33.045  39.327  10.337
84956W        W56627  21.593  36.159   4.565
84957W        W56628  20.380   9.817   3.653
84958W        W56629  36.429   2.219   1.644
84959W        W56630  18.291   1.108   0.876
84960W        W56631  41.838  27.691  12.518
84961W        W56632  23.488  40.556   1.297
84962W        W56633  42.871  44.995  14.817
84963W        W56634  12.894  42.069  12.458
84964W        W56635  19.230  14.326   1.436
84965W        W56636  39.472  10.576  10.889
84966W        W56637   3.055   4.618   1.707
84967W        W56638  20.221   8.460  12.674
84968W        W56639   3.793   8.668   0.373
84969W        W56640   9.362  40.638  10.051
84970W        W56641   2.688  13.812   1.318
84971W        W56642  36.395  39.879  14.005
84972W        W56643  14.166   5.673   2.587
84973W        W56644  33.621  19.873  12.474
84974W        W56645  18.738  40.678   4.582
84975W        W56646  31.084  10.129  13.374
84976W        W56647  14.694  18.531   3.093
84977W        W56648  28.908  11.836  13.567
84978W        W56649   8.181  34.458   0.514
84979W        W56650  23.482  24.497  10.649
84980W        W56651   7.637  34.874   3.202
84981W        W56652  23.541  36.477   1.735
84982W        W56653   3.748  11.336  14.324
84983W        W56654   3.758  20.294  11.576
84984W        W56655  43.384  23.170  13.363
84985W        W56656   0.910  21.185   1.377
84986W        W56657  22.254  44.054   3.785
84987W        W56658   8.218  14.066   2.912
84988W        W56659   1.368  21.999   4.135
84989W        W56660  31.055  25.541  10.794
84990W        W56661  26.174  28.159   3.464
84991W        W56662  26.106   5.819   0.757
84992W        W56663  43.385   6.788  10.493
84993W        W56664  15.699  20.103  13.535
84994W        W56665   8.733   0.966  13.846
84995W        W56666   5.822   2.303   2.328
84996W        W56667  44.330   1.738  13.272
84997W        W56668  12.965   6.746  12.291
84998W        W56669  14.621  23.132   2.720
84999W        W56670  34.879  14.413   0.637
85000W        W56671  40.005   8.179  13.384
85001W        W56672  20.520   3.669   0.902
85002W        W56673  40.167  21.656  11.915
85003W        W56674  17.371  22.615  14.578
85004W        W56675  17.766  40.088   3.174
85005W        W56676  18.577   1.867   2.156
85006W        W56677  13.847  25.954  14.432
85007W        W56678  43.908   4.139   4.615
85008W        W56679  17.787  23.406   3.572
85009W        W56680  41.307  12.172  13.902
85010W        W56681   0.980  13.577  14.904
85011W        W56682  30.013  41.420   3.728
85012W        W56683   4.212  24.642   4.560
85013W        W56684  12.934  38.871  13.377
85014W        W56685  14.693  42.965   2.399
85015W        W56686  26.228  41.498   1.696
85016W        W56687  11.925   4.748   3.371
85017W        W56688   3.050  22.525   4.535
85018W        W56689  16.681  16.835   2.766
85019W        W56690  44.376  16.526   2.199
85020W        W56691  15.668  28.930   0.871
85021W        W56692   7.736  34.489  13.956
85022W        W56693   0.014   2.703   4.618
85023W        W56694   0.895  21.119  14.257
85024W        W56695  20.099  21.496   0.277
85025W        W56696  34.803  32.993  10.729
85026W        W56697   5.939  12.135  14.975
85027W        W56698  10.640  25.264  11.143
85028W        W56699  26.697  39.347   3.642
85029W        W56700  20.689  19.624  10.372
85030W        W56701   1.046  34.437  13.591
85031W        W56702  15.028  18.719  11.135
85032W        W56703  40.590  36.399  11.587
85033W        W56704   6.777  33.421   4.753
85034W        W56705  31.965   1.472  13.129
85035W        W56706  44.019   8.728   0.418
85036W        W56707  36.912  37.325  11.902
85037W        W56708   1.733  10.091  14.048
85038W        W56709  18.982  41.470  14.864
85039W        W56710  26.629  44.876   0.974
85040W        W56711   6.774  10.317   4.887
85041W        W56712  20.519  10.752   4.573
85042W        W56713  15.486  37.844   1.306
85043W        W56714  38.091  24.241  12.928
85044W        W56715   9.226  13.135   0.929
85045W        W56716  27.826  30.040  13.813
85046W        W56717   0.982  13.121   2.947
85047W        W56718  44.399   9.814   4.453
85048W        W56719  23.467  24.999   0.945
85049W        W56720   2.974  38.144  11.526
85050W        W56721  12.668  31.045   1.368
85051W        W56722  33.676   5.328  12.961
85052W        W56723  20.994   9.322   0.298
85053W        W56724  33.088   7.398  10.881
85054W        W56725  35.635   4.424   0.458
85055W        W56726  26.159  12.699   0.511
85056W        W56727   6.613   5.837   2.354
85057W        W56728  13.317   2.767   1.763
85058W        W56729  44.178  27.949  14.100
85059W        W56730   3.939  31.566  12.463
85060W        W56731  16.112  37.768   4.273
85061W        W56732   8.945  27.752  13.108
85062W        W56733  32.550  13.670   3.339
85063W        W56734  16.573   3.138   0.991
85064W        W56735  41.879   7.995   1.222
85065W        W56736  27.553  22.567   1.674
85066W        W56737  28.285  11.399  11.429
85067W        W56738  13.188  41.272   3.164
85068W        W56739  25.578  36.743  13.596
85069W        W56740  38.860   2.442   1.352
85070W        W56741   4.484  20.191  12.085
85071W        W56742  20.329   0.613  10.493
85072W        W56743  44.884  11.366   9.766
85073W        W56744  28.504  40.270  12.107
85074W        W56745   6.795  11.308  10.654
85075W        W56746  21.237  32.424  10.973
85076W        W56747  12.352  28.148  14.110
85077W        W56748  28.262  15.502   2.298
85078W        W56749  21.841  31.990   0.183
85079W        W56750   6.320  39.298  13.136
85080W        W56751   2.749  43.526  14.608
85081W        W56752  22.474   6.663   1.390
85082W        W56753  21.162   3.680   2.845
85083W        W56754  34.634  13.734  13.504
85084W        W56755  14.841  17.005   4.140
85085W        W56756  19.285  16.385  11.130
85086W        W56757  43.222  13.295   2.649
85087W        W56758  10.931  20.047  13.426
85088W        W56759  30.486  28.671  13.811
85089W        W56760  30.006  29.171   4.699
85090W        W56761   2.879  31.799  11.739
85091W        W56762  22.606  20.649   3.710
85092W        W56763  37.256  12.564   4.129
85093W        W56764  12.662  26.707  10.202
85094W        W56765   6.462  18.252   2.824
85095W        W56766   8.428  40.276  13.797
85096W        W56767  40.705  24.240  11.979
85097W        W56768  28.701  28.916  13.338
85098W        W56769   3.845  24.599   2.636
85099W        W56770   6.955  21.993   3.729
85100W        W56771  26.223  14.840   2.750
85101W        W56772   8.850  31.947  13.811
85102W        W56773   7.186  10.117  11.496
85103W        W56774  36.910   3.496  12.506
85104W        W56775  17.297  30.434   3.861
85105W        W56776  27.963  12.177   3.357
85106W        W56777  31.273  30.556   0.181
85107W        W56778  33.475  31.188   4.417
85108W        W56779  15.162   6.968  12.899
85109W        W56780  21.230  40.564   4.082
85110W        W56781  16.731  17.095   2.247
85111W        W56782   7.735   8.449   4.598
85112W        W56783  43.246  31.232   1.005
85113W        W56784  26.000  22.477  10.740
85114W        W56785   8.843  22.225  13.511
85115W        W56786  14.347   7.862   1.782
85116W        W56787   5.923   8.450   4.850
85117W        W56788  21.573  11.843   2.770
85118W        W56789   1.822  41.035   4.134
85119W        W56790  36.017  32.058  12.072
85120W        W56791  28.526  27.123   3.495
85121W        W56792  13.745  21.628  14.925
85122W        W56793   7.883  33.715  14.575
85123W        W56794  42.431  29.250   4.608
85124W        W56795  17.882  24.226  11.155
85125W        W56796  11.625  38.525   5.341
85126W        W56797  35.836  26.873  13.286
85127W        W56798  18.187  37.856  11.448
85128W        W56799   0.142  28.712  12.399
85129W        W56800   7.801  36.700   0.035
85130W        W56801  24.040  10.097   3.772
85131W        W56802   6.881  11.147   0.291
85132W        W56803  13.817  39.551   1.810
85133W        W56804  27.577  21.558   1.843
85134W        W56805  20.727  34.859   2.361
85135W        W56806   1.869  44.273   0.540
85136W        W56807  42.483  43.769  13.446
85137W        W56808  14.718  37.831  12.004
85138W        W56809  25.398  37.964  14.235
85139W        W56810  22.397  24.764  10.370
85140W        W56811  21.156   6.482   1.271
85141W        W56812   8.190  23.376   1.874
85142W        W56813  33.570  43.667   3.899
85143W        W56814  26.713   4.287   3.693
85144W        W56815  10.001  26.492  12.583
85145W        W56816  28.954   1.254   4.596
85146W        W56817  24.713   3.671   2.643
85147W        W56818  43.799  18.996   4.220
85148W        W56819   4.698  13.104   4.795
85149W        W56820   8.927  29.303   1.318
85150W        W56821  39.618   2.868   0.381
85151W        W56822  23.698   1.859  13.553
85152W        W56823  31.545   6.640  12.117
85153W        W56824  35.982  34.153   3.825
85154W        W56825  32.991  41.380   2.581
85155W        W56826  17.073  38.373   0.808
85156W        W56827  23.529  36.979   3.020
85157W        W56828  10.749  30.465   2.782
85158W        W56829   9.466  32.001  10.761
85159W        W56830  33.897   0.489   3.664
85160W        W56831  38.087   5.684   0.836
85161W        W56832  33.332  36.015   3.879
85162W        W56833  16.817   4.363   2.818
85163W        W56834   3.499  43.395   1.823
85164W        W56835   8.941  42.772  14.039
85165W        W56836  20.591  36.236  13.841
85166W        W56837  34.456  28.959  13.397
85167W        W56838   9.542   2.675   1.712
85168W        W56839   9.876  13.216   2.742
85169W        W56840  36.421  41.591   3.450
85170W        W56841  17.661   6.485   2.888
85171W        W56842  25.975  11.076  11.903
85172W        W56843  11.061  26.247  11.477
85173W        W56844  43.397  14.375  13.876
85174W        W56845  21.661   4.839   2.170
85175W        W56846  31.107  15.187  13.218
85176W        W56847  44.334  16.219   4.395
85177W        W56848  14.853  26.086  10.892
85178W        W56849  22.203   2.236  13.061
85179W        W56850  20.589  23.033  11.530
85180W        W56851  11.451   6.752  12.599
85181W        W56852  34.971   6.167  10.957
85182W        W56853   3.811  37.933  12.949
85183W        W56854  37.897   8.958   0.238
85184W        W56855   3.406  22.775   1.910
85185W        W56856  40.495  12.800  14.261
85186W        W56857  43.537  11.641   1.898
85187W        W56858  30.162   3.833   4.562
85188W        W56859  16.108  16.280  11.297
85189W        W56860  35.910  15.342   2.249
85190W        W56861  11.159  29.947   3.573
85191W        W56862  30.190  14.833   1.270
85192W        W56863  32.456  28.791   4.189
85193W        W56864   0.681  32.564   4.343
85194W        W56865  20.656   9.212  10.770
85195W        W56866  40.473  36.895  13.446
85196W        W56867  25.690  40.804  14.138
85197W        W56868  39.373   8.858   1.013
85198W        W56869  28.982  37.960   3.718
85199W        W56870  25.024  19.366  11.179
85200W        W56871  20.258   8.399  14.894
85201W        W56872   9.432  20.807   1.957
85202W        W56873  21.554  43.907   4.492
85203W        W56874  44.438   3.764  12.498
85204W        W56875   1.871  37.480  14.321
85205W        W56876  16.486  33.410   0.859
85206W        W56877  22.212  21.084   1.287
85207W        W56878  26.068  21.595   0.324
85208W        W56879   3.759  40.858  13.432
85209W        W56880  39.240  18.771  10.286
85210W        W56881  40.891  32.849  10.540
85211W        W56882  21.163   7.275  10.369
85212W        W56883  24.509  39.882  13.330
85213W        W56884  42.291  27.530  12.991
85214W        W56885  14.274   4.702  12.059
85215W        W56886  10.170  35.853   0.892
85216W        W56887  37.038  42.881  10.726
85217W        W56888  20.483  32.666  14.064
85218W        W56889  27.535  32.392   4.811
85219W        W56890  33.516  25.968  10.618
85220W        W56891  22.184  33.333   2.502
85221W        W56892  31.485  38.071  14.970
85222W        W56893  11.906   7.861   0.909
85223W        W56894   5.726  44.717  12.040
85224W        W56895  26.778   4.856   4.156
85225W        W56896  31.178  17.323  12.527
85226W        W56897  13.498  19.269  13.503
85227W        W56898  32.948  34.176  12.055
85228W        W56899  37.499  13.126  13.902
85229W        W56900   9.724  30.171   2.813
85230W        W56901  29.021   8.190  10.100
85231W        W56902  25.479   5.777  11.310
85232W        W56903  24.620  37.426  11.206
85233W        W56904  43.726  38.298   0.485
85234W        W56905   8.969  37.194   4.540
85235W        W56906  20.717   8.079  13.010
85236W        W56907  11.066  30.259   1.871
85237W        W56908  39.320  29.984   2.344
85238W        W56909  20.283  19.750   0.919
85239W        W56910  42.276  42.391  14.371
85240W        W56911  21.736  20.967  14.468
85241W        W56912   4.884  17.630   4.576
85242W        W56913  10.406  15.842   0.298
85243W        W56914   5.375  26.050   2.358
85244W        W56915  33.899   2.955   3.752
85245W        W56916  16.398  21.056  12.872
85246W        W56917  37.616  18.035   0.791
85247W        W56918  20.808  15.577   5.088
85248W        W56919  31.705  43.224  14.773
85249W        W56920  24.802  14.589   1.431
85250W        W56921  10.809  40.254  12.626
85251W        W56922  28.789  11.241   4.253
85252W        W56923  14.580   8.230   0.407
85253W        W56924  37.068  34.026   3.455
85254W        W56925  31.432  18.527   0.831
85255W        W56926  43.290  10.765  13.204
85256W        W56927  42.011  24.528  12.294
85257W        W56928   6.261  32.762  12.416
85258W        W56929  11.009  38.841  11.455
85259W        W56930  38.510  38.631   0.333
85260W        W56931  24.205  31.573   4.109
85261W        W56932  18.801  29.931   3.166
85262W        W56933  18.763  40.884   1.371
85263W        W56934  36.097  33.169  14.365
85264W        W56935   9.174  41.500  12.488
85265W        W56936  27.076   2.390  12.472
85266W        W56937  34.070  38.795  13.774
85267W        W56938  26.288  29.205   2.713
85268W        W56939  22.570  17.479   3.613
85269W        W56940  18.049  17.092   4.067
85270W        W56941  10.437  28.518   1.790
85271W        W56942  19.077  40.333  12.400
85272W        W56943  16.942  26.397  10.836
85273W        W56944   0.190  42.416  11.381
85274W        W56945  24.841  40.475   3.087
85275W        W56946  28.972  44.119  14.740
85276W        W56947  18.711   8.388  11.428
85277W        W56948  31.993  25.558   2.110
85278W        W56949  37.506  26.196   4.507
85279W        W56950   9.649  29.951  13.871
85280W        W56951  21.944  39.437   4.081
85281W        W56952  29.535  34.860  12.243
85282W        W56953  27.698   6.968  10.238
85283W        W56954  39.793   9.639   2.049
85284W        W56955  11.207  30.653  11.119
85285W        W56956  14.886   1.186  14.425
85286W        W56957   5.146   7.125   3.035
85287W        W56958  43.826  11.351  14.298
85288W        W56959  22.439  40.855   4.264
85289W        W56960  13.847   6.534  12.802
85290W        W56961  33.532  41.752   2.219
85291W        W56962   7.804   6.823  11.186
85292W        W56963  13.833   3.362   4.141
85293W        W56964  42.364   3.425  13.123
85294W        W56965  18.153  12.359  14.593
85295W        W56966  21.481  21.317  12.555
85296W        W56967  37.317  35.020   4.231
85297W        W56968   7.472   7.195   3.194
85298W        W56969  24.713  15.071   3.879
85299W        W56970   7.430  14.888   2.603
85300W        W56971  43.534  34.391   1.770
85301W        W56972   5.187  17.979  11.200
85302W        W56973   2.495  27.136   0.417
85303W        W56974  19.254  29.202   0.761
85304W        W56975  24.706  27.030  13.553
85305W        W56976  30.887   8.541  13.748
85306W        W56977  17.274  39.588   1.211
85307W        W56978  33.612  34.955   1.365
85308W        W56979  38.978  10.448  11.066
85309W        W56980  39.243   8.629  12.471
85310W        W56981  29.193   7.808  11.310
85311W        W56982  14.397  29.160  11.445
85312W        W56983   4.800  27.481  12.261
85313W        W56984  42.394  15.354   0.844
85314W        W56985  14.543   0.811  14.547
85315W        W56986  16.465   7.106   0.859
85316W        W56987  42.934  43.912  10.764
85317W        W56988  25.387  43.241   3.154
85318W        W56989  37.029  42.217   3.128
85319W        W56990  16.089  10.400   1.004
85320W        W56991  42.830   5.480  11.137
85321W        W56992  23.334   0.664  11.146
85322W        W56993  39.544  44.248  12.996
85323W        W56994  32.532  28.701  14.319
85324W        W56995   2.341   6.196   1.388
85325W        W56996  26.246   2.333   0.276
85326W        W56997  10.563   2.626  11.248
85327W        W56998  43.050  26.235  10.697
85328W        W56999  25.796  38.417  14.756
85329W        W57000   0.362  11.904  10.966
85330W        W57001  21.510  26.746   0.311
85331W        W57002  31.929  43.812  14.822
85332W        W57003  43.736  43.511  10.690
85333W        W57004  33.553  27.034  11.897
85334W        W57005  23.663  24.561  12.903
85335W        W57006  37.805  44.493  12.402
85336W        W57007  11.361  36.133  11.423
85337W        W57008  17.689  19.251  13.829
85338W        W57009  38.324  34.588  13.982
85339W        W57010   1.281  14.608  14.470
85340W        W57011  39.211  42.109   4.361
85341W        W57012  38.083  44.906  14.286
85342W        W57013   2.312  14.219  12.629
85343W        W57014  39.304  35.925  12.043
85344W        W57015  28.438  30.635   1.304
85345W        W57016  44.301  41.074   5.717
85346W        W57017   6.461  25.560  14.386
85347W        W57018  44.724  21.211   5.450
85348W        W57019  29.633   0.547  10.798
85349W        W57020  35.997  21.353  11.998
85350W        W57021  39.496  22.011   4.302
85351W        W57022  21.231  25.734  10.988
85352W        W57023   0.352  23.197  14.047
85353W        W57024  39.382   2.354   1.949
85354W        W57025  16.743  11.825  12.569
85355W        W57026  10.513   5.975  12.124
85356W        W57027  11.211  33.926   4.918
85357W        W57028   9.740   9.164  13.102
85358W        W57029  11.279  37.433  11.886
85359W        W57030   4.020  29.582  11.057
85360W        W57031  35.114  39.518  10.335
85361W        W57032  38.878  22.095   0.381
85362W        W57033  17.319  41.612  11.119
85363W        W57034  39.087  14.131   3.710
85364W        W57035  11.609  35.995   3.222
85365W        W57036  27.335  17.947  13.773
85366W        W57037  30.133  27.257   0.002
85367W        W57038  29.456   8.481   0.294
85368W        W57039  35.764  40.113   1.879
85369W        W57040   8.643  19.132  14.074
85370W        W57041   5.625   8.963  12.039
85371W        W57042  19.901  40.889   3.168
85372W        W57043  39.903  29.059   2.393
85373W        W57044  20.581  29.401  10.753
85374W        W57045   2.711  10.283   2.163
85375W        W57046  40.838  28.717  13.041
85376W        W57047   6.771  39.470  13.485
85377W        W57048  27.952  23.719   2.289
85378W        W57049   5.430  38.385   2.308
85379W        W57050  31.606  11.578  13.868
85380W        W57051  15.590  34.464  13.533
85381W        W57052  44.947  18.989  14.561
85382W        W57053  19.048  25.273  12.294
85383W        W57054   3.448  10.708  10.643
85384W        W57055  36.103  36.739  12.185
85385W        W57056   9.665  44.366  13.673
85386W        W57057  12.342  21.279   5.014
85387W        W57058  36.126  34.728   2.305
85388W        W57059  22.107  28.656  13.990
85389W        W57060  35.948  28.886  13.323
85390W        W57061  40.251   3.833  10.691
85391W        W57062   5.840  29.060   0.081
85392W        W57063   7.660  24.311  13.200
85393W        W57064   0.999  12.774   0.231
85394W        W57065  28.740  42.790   1.796
85395W        W57066  34.897  19.689   2.258
85396W        W57067  27.602  10.298   5.012
85397W        W57068   5.940  26.758   4.741
85398W        W57069   5.409   4.895  11.930
85399W        W57070  38.997  27.049   3.594
85400W        W57071  42.879  36.373  14.795
85401W        W57072   4.993  40.979   4.652
85402W        W57073   9.355  42.228   3.278
85403W        W57074  37.897  28.457  13.917
85404W        W57075  18.304  27.327  14.829
85405W        W57076  43.243  43.422   0.894
85406W        W57077  43.117  41.072  10.907
85407W        W57078  32.038  38.964  14.476
85408W        W57079  30.427  30.553   2.154
85409W        W57080  15.778  11.560  11.464
85410W        W57081   5.927   3.991   4.295
85411W        W57082  26.825  17.337  12.417
85412W        W57083  22.059  43.505   3.675
85413W        W57084  13.331   8.211   3.076
85414W        W57085  43.530  41.975   3.799
85415W        W57086  21.322  15.224   4.525
85416W        W57087  18.768  35.185   4.725
85417W        W57088  25.053   8.176   0.276
85418W        W57089  19.082  15.337   1.901
85419W        W57090  13.687  31.838   3.674
85420W        W57091  44.014  23.446   4.750
85421W        W57092  18.683  43.278  12.064
85422W        W57093  14.725  11.892   3.743
85423W        W57094  19.648  14.114  14.149
85424W        W57095   0.232   0.421   3.439
85425W        W57096   7.634  39.558  14.758
85426W        W57097   2.493  21.577  13.618
85427W        W57098  28.661   5.862  11.756
85428W        W57099  33.584  37.599   3.750
85429W        W57100  38.844  37.582   1.711
85430W        W57101  21.809  40.784  14.390
85431W        W57102   4.406  18.681  10.581
85432W        W57103  43.217  41.484  14.887
85433W        W57104  35.556  26.976  14.108
85434W        W57105  41.236  29.445   0.190
85435W        W57106  24.643   3.415  12.136
85436W        W57107  24.197  29.643   1.267
85437W        W57108   0.039  43.847  14.536
85438W        W57109   1.294   0.409   0.484
85439W        W57110  23.692   7.225   4.213
85440W        W57111  33.083  32.564  13.293
85441W        W57112  35.586  43.306   1.228
85442W        W57113   4.374  40.625   0.929
85443W        W57114  43.973  39.476   2.128
85444W        W57115  44.645  39.137  10.616
85445W        W57116  28.016  22.127  14.253
85446W        W57117   6.456  19.178  14.383
85447W        W57118  18.051  42.054  14.374
85448W        W57119  36.133  20.765  14.225
85449W        W57120  14.587  13.345  14.919
85450W        W57121  12.368  12.748  14.550
85451W        W57122   5.109  12.075  12.412
85452W        W57123  37.164  33.021   3.268
85453W        W57124  14.793  10.362  10.321
85454W        W57125   1.298  36.812   1.821
85455W        W57126  19.754   4.623  13.303
85456W        W57127  34.957  42.292   1.147
85457W        W57128   9.886  42.933  11.593
85458W        W57129  17.221   3.918  12.571
85459W        W57130   5.568   5.403  12.453
85460W        W57131  34.096  24.748   3.317
85461W        W57132  44.463  11.254   5.071
85462W        W57133   6.714  42.240   3.668
85463W        W57134  10.967  18.029  13.423
85464W        W57135  17.462  25.548   3.076
85465W        W57136  30.583   7.354   4.610
85466W        W57137   1.210  39.505   3.609
85467W        W57138   4.884  26.065  10.188
85468W        W57139  23.963  40.942   3.219
85469W        W57140  28.091  27.269   3.771
85470W        W57141   8.821  13.765   0.958
85471W        W57142   8.327  20.253  11.155
85472W        W57143  10.986   8.065  11.462
85473W        W57144  38.469  30.224   3.910
85474W        W57145  10.541  37.375  14.076
85475W        W57146  20.975  40.566   4.591
85476W        W57147  21.648  33.879   1.011
85477W        W57148  44.466   9.493  10.719
85478W        W57149  11.860  42.753  14.072
85479W        W57150   3.861   4.611  14.651
85480W        W57151  13.837  13.746   0.663
85481W        W57152  25.946  22.250  11.194
85482W        W57153  33.059  22.298   3.726
85483W        W57154  28.732  12.661   0.213
85484W        W57155  23.784  19.774  12.004
85485W        W57156  10.236  20.061   3.518
85486W        W57157   0.437  27.258  13.946
85487W        W57158  33.697  39.137  13.882
85488W        W57159  24.132  39.533   4.127
85489W        W57160  11.290   5.801   2.228
85490W        W57161  27.484  32.511  12.589
85491W        W57162   0.362  35.049  13.131
85492W        W57163   7.346  16.707   3.464
85493W        W57164   5.651  34.510  12.197
85494W        W57165  15.127   4.983   0.939
85495W        W57166  33.711  17.821  12.421
85496W        W57167  24.041  31.009  13.025
85497W        W57168  37.803  40.504  10.371
85498W        W57169  36.925  21.256  10.815
85499W        W57170  32.679  19.212   1.044
85500W        W57171  35.348  20.533  12.744
85501W        W57172  38.297  39.388   3.519
85502W        W57173  11.792   1.023  10.695
85503W        W57174  23.699  15.539   2.277
85504W        W57175  32.825   8.776   3.159
85505W        W57176  37.720  42.349  10.725
85506W        W57177  34.873  33.751   1.388
85507W        W57178  22.047  44.283  14.443
85508W        W57179  37.709  33.522   2.727
85509W        W57180  23.040  14.769   0.917
85510W        W57181  37.388  34.735  11.522
85511W        W57182  27.524  34.233  10.680
85512W        W57183  35.337  40.382  13.127
85513W        W57184   7.833   0.032   4.446
85514W        W57185  34.028  44.836   3.024
85515W        W57186   2.389  20.641   1.761
85516W        W57187  31.591  16.811   3.074
85517W        W57188  27.309  17.178   0.782
85518W        W57189  30.803  30.907   1.363
85519W        W57190  13.101  40.561   0.785
85520W        W57191  24.557   3.292  11.628
85521W        W57192  41.454  27.501   1.146
85522W        W57193   2.749  33.654   2.658
85523W        W57194  37.581   6.667  10.502
85524W        W57195   4.333  15.545   3.204
85525W        W57196  25.723   5.913   1.980
85526W        W57197  24.680   9.236  12.621
85527W        W57198  25.611   1.489  11.659
85528W        W57199   4.760  44.336   4.947
85529W        W57200  38.867  20.280  14.878
85530W        W57201  23.944  19.575   0.417
85531W        W57202   3.149  41.420  13.591
85532W        W57203  43.421  30.162   3.238
85533W        W57204  40.982  28.564  12.136
85534W        W57205  41.528  32.017   2.387
85535W        W57206  10.205   3.208  10.697
85536W        W57207  35.121  24.984   3.191
85537W        W57208  29.064  42.431  14.653
85538W        W57209   1.088  27.577  13.120
85539W        W57210   1.864   0.695   2.292
85540W        W57211   4.927   4.934   0.218
85541W        W57212   0.439  22.766   2.763
85542W        W57213  31.480  35.377   4.088
85543W        W57214  16.273  16.159  13.771
85544W        W57215   1.201  13.861   2.951
85545W        W57216  21.124  25.949   3.952
85546W        W57217  20.574  34.812   3.267
85547W        W57218  20.058   3.802   4.067
85548W        W57219  41.115  33.976   2.062
85549W        W57220  25.136  19.569  12.972
85550W        W57221  17.618   4.768  13.940
85551W        W57222  38.339  44.486  13.602
85552W        W57223  44.521  21.774  12.064
85553W        W57224  43.866   2.961  12.805
85554W        W57225  39.787  34.595   0.862
85555W        W57226  22.205  24.580  14.678
85556W        W57227  40.886   0.341   4.342
85557W        W57228  22.594   8.923   4.187
85558W        W57229  14.741  38.313  12.922
85559W        W57230  24.563  37.647  12.671
85560W        W57231  27.261   1.073  10.187
85561W        W57232   8.838   5.883   0.677
85562W        W57233   2.324   7.330   2.401
85563W        W57234  38.606   5.287  13.516
85564W        W57235   6.348  44.889   0.947
85565W        W57236  31.399  39.021   1.725
85566W        W57237   1.886   6.424   2.630
85567W        W57238   1.881  24.972   4.618
85568W        W57239  25.142  38.962  12.589
85569W        W57240  23.540  23.997  13.981
85570W        W57241  11.417  25.829   3.215
85571W        W57242  27.844  15.371  12.095
85572W        W57243   3.403  42.258   3.103
85573W        W57244  38.591  15.279   1.234
85574W        W57245  26.701  26.820   4.014
85575W        W57246  31.882  29.130   1.005
85576W        W57247  14.133  31.540   3.227
85577W        W57248  43.843  32.507   0.826
85578W        W57249   9.664   1.501   2.455
85579W        W57250  44.717  35.599  11.614
85580W        W57251  17.406  13.182   1.204
85581W        W57252  21.181  20.229   2.795
85582W        W57253   9.119   0.181   1.036
85583W        W57254  19.176  11.788   3.669
85584W        W57255   6.454   2.961   3.525
85585W        W57256  42.780  18.549  14.355
85586W        W57257  36.457   4.781  14.879
85587W        W57258  20.562  31.521  13.325
85588W        W57259  29.059  11.597  12.616
85589W        W57260  20.708  39.855   2.407
85590W        W57261  11.043  40.839   3.145
85591W        W57262   5.970   8.401  13.471
85592W        W57263  14.709  27.979  14.795
85593W        W57264  12.774  27.600  10.716
85594W        W57265   0.702   9.399  13.951
85595W        W57266   6.364  35.315  13.076
85596W        W57267  29.835   3.798   4.178
85597W        W57268   1.143   4.542   2.800
85598W        W57269  26.469   1.716   3.675
85599W        W57270  17.809   2.942   1.419
85600W        W57271  36.073  17.577  10.798
85601W        W57272  10.724  24.136  14.748
85602W        W57273  26.189  21.204   2.698
85603W        W57274  25.925  41.058  11.932
85604W        W57275  36.528  24.900  12.047
85605W        W57276  39.519  36.038  13.418
85606W        W57277  20.731  25.468   0.196
85607W        W57278  19.959  35.516   3.839
85608W        W57279  21.030  38.847  12.581
85609W        W57280  36.513  13.753  12.342
85610W        W57281   5.183  42.944  11.958
85611W        W57282  24.222  14.594   3.118
85612W        W57283  23.744  19.765   1.815
85613W        W57284  16.660  42.583   5.196
85614W        W57285  43.425   3.463  10.678
85615W        W57286  21.538  11.556   2.347
85616W        W57287  36.128  40.432   3.310
85617W        W57288   1.229   2.295  13.563
85618W        W57289   1.323  32.090  12.427
85619W        W57290  13.157   7.743   1.646
85620W        W57291   4.597  36.752   0.253
85621W        W57292  36.027  33.983  11.162
85622W        W57293   5.429  41.987   2.237
85623W        W57294  30.895  44.761  14.972
85624W        W57295  28.617  10.938  10.764
85625W        W57296  19.843  30.412  12.807
85626W        W57297  35.406  31.627  11.511
85627W        W57298  13.514  39.011  10.379
85628W        W57299  37.858  36.583   0.947
85629W        W57300  11.722  21.990  12.778
85630W        W57301  38.015  15.133  11.575
85631W        W57302  30.567  22.582   4.742
85632W        W57303   4.792  16.776  11.366
85633W        W57304  38.829  37.945  10.809
85634W        W57305  32.853  25.474  13.385
85635W        W57306  31.432  21.108  11.562
85636W        W57307  33.845  33.639  14.755
85637W        W57308   1.275  44.354   0.810
85638W        W57309  17.654   2.004  12.540
85639W        W57310  17.179  26.633  12.521
85640W        W57311  24.064  21.969   2.631
85641W        W57312  33.968  40.876  11.434
85642W        W57313  36.392  39.723   3.857
85643W        W57314   3.206   2.738  11.523
85644W        W57315  43.101  28.674   2.735
85645W        W57316  19.889  33.432   1.815
85646W        W57317  27.858  28.687   4.235
85647W        W57318  30.165   5.135  11.160
85648W        W57319  44.246  26.153   1.190
85649W        W57320  22.753  31.890   5.182
85650W        W57321  27.389  14.603   1.932
85651W        W57322  20.533  42.496  12.521
85652W        W57323  22.027   5.885  13.457
85653W        W57324   2.959   2.994  12.435
85654W        W57325  43.404  41.545   3.535
85655W        W57326  20.780  11.181   2.965
85656W        W57327  37.780  29.175  11.577
85657W        W57328  30.183   8.749   2.282
85658W        W57329  29.070  36.890   3.519
85659W        W57330  17.696  31.587  11.485
85660W        W57331   4.959  21.010   2.086
85661W        W57332   7.477  25.073   3.194
85662W        W57333  17.827  16.375   4.493
85663W        W57334   6.921   9.262   1.870
85664W        W57335  28.090  17.793   3.733
85665W        W57336  28.235   0.303  11.695
85666W        W57337   9.156  13.550   0.629
85667W        W57338  36.132  17.758  11.282
85668W        W57339   1.410  12.094   1.003
85669W        W57340   4.754  39.241   3.770
85670W        W57341  16.318  12.648   0.995
85671W        W57342   0.384  39.029   2.824
85672W        W57343  35.644  27.012   1.422
85673W        W57344  29.701   3.531   5.164
85674W        W57345  19.808  37.558   3.952
85675W        W57346  43.857  37.448  14.288
85676W        W57347  37.496  29.891   2.643
85677W        W57348   2.363  35.642  14.986
85678W        W57349  23.239  35.100  10.981
85679W        W57350  26.639  17.503   4.760
85680W        W57351  16.239  27.992  13.013
85681W        W57352  44.550  38.826   2.626
85682W        W57353  18.119  34.155   1.880
85683W        W57354  16.803  16.370  12.955
85684W        W57355  31.372  19.539   3.319
85685W        W57356  32.181  42.835  12.481
85686W        W57357  37.458  39.419   1.193
85687W        W57358   7.971   1.612  11.270
85688W        W57359  23.102   8.183   0.957
85689W        W57360  17.128  15.655  12.483
85690W        W57361   5.706  44.273  10.593
85691W        W57362   2.252  25.434   3.682
85692W        W57363  34.517   5.740   3.185
85693W        W57364  18.109  33.058   4.266
85694W        W57365  12.100   4.558   2.738
85695W        W57366  30.279  38.956  12.099
85696W        W57367  10.733  16.164   2.683
85697W        W57368  12.751  39.116   2.870
85698W        W57369   1.436   1.218   0.930
85699W        W57370   2.182  14.089   2.201
85700W        W57371  35.036  29.833  10.723
85701W        W57372   1.305  31.364   1.013
85702W        W57373  42.749  10.858  10.659
85703W        W57374  26.271  28.113   0.962
85704W        W57375  25.587   3.510  11.277
85705W        W57376  11.892  13.552  14.042
85706W        W57377  33.113   2.414  14.001
85707W        W57378  11.340   3.843  11.139
85708W        W57379  26.957  36.848  11.447
85709W        W57380  24.082  36.309  11.607
85710W        W57381  42.161  21.556  11.941
85711W        W57382  22.993   4.334  13.062
85712W        W57383  25.182  14.653   1.838
85713W        W57384  42.239  10.769   1.114
85714W        W57385  40.591  22.326   1.820
85715W        W57386  18.810  35.928  13.364
85716W        W57387  41.731  32.870   4.074
85717W        W57388   3.811  16.035   0.302
85718W        W57389  17.090  34.896   5.045
85719W        W57390  35.022  38.907   4.545
85720W        W57391   2.478  32.942   0.273
85721W        W57392  39.973   4.937   3.531
85722W        W57393  41.776  12.335   2.845
85723W        W57394  37.520  36.630   0.219
85724W        W57395  19.074  27.191  10.854
85725W        W57396  27.506  24.236  12.461
85726W        W57397   5.816  12.215  12.158
85727W        W57398  19.090  10.877  11.597
85728W        W57399  21.971  36.654  13.619
85729W        W57400  31.849   4.650  13.766
85730W        W57401   5.244  22.662   1.309
85731W        W57402  18.699  11.632  12.330
85732W        W57403  42.068   1.792  12.205
85733W        W57404  29.818  37.391   0.439
85734W        W57405  21.067   4.598   0.896
85735W        W57406   0.644  16.791  12.577
85736W        W57407  21.520  37.931   4.965
85737W        W57408  27.577  36.874  13.987
85738W        W57409  10.759  32.271  10.790
85739W        W57410  22.486  35.125  11.445
85740W        W57411  17.208   4.865  13.054
85741W        W57412  18.697  37.592   1.345
85742W        W57413  37.423   3.388  10.888
85743W        W57414  24.087  26.991   1.907
85744W        W57415  33.317  29.162  11.661
85745W        W57416  32.886  10.117  12.553
85746W        W57417  16.753  18.313   0.819
85747W        W57418  38.439  16.063  10.729
85748W        W57419  29.560   7.890  13.405
85749W        W57420  39.055  31.158   0.370
85750W        W57421  41.613  13.227  11.487
85751W        W57422  13.388  42.245  12.095
85752W        W57423   2.885  13.877   4.335
85753W        W57424  22.068  43.776   0.162
85754W        W57425   5.383  33.535  12.878
85755W        W57426  16.589   6.360  11.544
85756W        W57427  32.043  24.891  10.970
85757W        W57428   1.908  12.104  13.077
85758W        W57429   6.556  40.933   4.340
85759W        W57430  13.345  44.446   3.223
85760W        W57431  30.052  37.047   3.213
85761W        W57432   2.406  23.510  10.702
85762W        W57433  37.860  42.587  12.498
85763W        W57434  40.855  16.439   0.725
85764W        W57435   1.847  21.749   4.142
85765W        W57436  24.605  38.449   4.731
85766W        W57437   0.306  40.883   2.481
85767W        W57438  32.608  34.426   0.896
85768W        W57439  20.131  22.808   3.667
85769W        W57440  41.203  36.310   1.332
85770W        W57441  36.857  26.933   0.845
85771W        W57442  23.769  38.977  12.963
85772W        W57443  20.330  33.736   4.170
85773W        W57444  16.214  12.810   1.963
85774W        W57445  14.103  10.098   2.491
85775W        W57446  43.805  16.551  10.746
85776W        W57447  24.138  43.082  14.426
85777W        W57448   6.902  37.771  12.464
85778W        W57449  21.329  15.677   4.246
85779W        W57450  34.490  35.451  11.415
85780W        W57451  42.810  43.771  12.144
85781W        W57452   5.711  25.439   3.228
85782W        W57453  33.800  31.408  11.580
85783W        W57454  30.320  33.618   1.405
85784W        W57455  37.877   5.979   3.834
85785W        W57456  20.930  24.979  11.615
85786W        W57457  28.662  15.502   2.728
85787W        W57458   4.535  38.004  12.489
85788W        W57459  42.828   8.734   2.468
85789W        W57460  20.791  31.165   4.189
85790W        W57461  27.164  21.527   2.758
85791W        W57462   8.716   8.861  14.064
85792W        W57463  10.856  39.508  11.107
85793W        W57464  28.435  17.813  14.497
85794W        W57465   9.827  31.567   0.305
85795W        W57466   2.445  44.872  12.472
85796W        W57467  27.413  35.267  11.490
85797W        W57468  32.736   1.351   0.696
85798W        W57469   7.769   9.862   3.138
85799W        W57470  42.048  21.062  12.070
85800W        W57471   1.820   9.489   3.192
85801W        W57472  29.343   2.252  14.426
85802W        W57473  10.580   6.401   1.289
85803W        W57474  11.112  24.232  10.653
85804W        W57475  35.659  24.872  14.847
85805W        W57476  37.776   2.423  12.496
85806W        W57477  23.076   7.217  13.903
85807W        W57478   9.668  23.503  11.511
85808W        W57479  22.847  24.004   3.382
85809W        W57480  21.613   0.532   3.042
85810W        W57481  42.318  41.786  13.948
85811W        W57482  14.156  12.657   0.506
85812W        W57483  28.269  36.539   3.690
85813W        W57484  23.650  31.963   0.888
85814W        W57485   1.355  19.740  12.121
85815W        W57486  25.824  30.507  13.931
85816W        W57487  15.653  16.491   4.557
85817W        W57488  32.930  38.290  13.401
85818W        W57489  15.264  38.437   2.512
85819W        W57490  19.634  15.590  11.538
85820W        W57491   7.960  37.852  13.095
85821W        W57492  17.065   7.297  12.122
85822W        W57493  20.118  36.538  10.567
85823W        W57494  38.481  43.953  12.496
85824W        W57495  31.571  30.646   2.933
85825W        W57496   1.657  29.395   0.516
85826W        W57497  24.558   6.001   4.794
85827W        W57498  44.150  44.869  11.431
85828W        W57499  10.806  42.628   2.244
85829W        W57500  42.509  22.519   0.376
85830W        W57501   9.206  22.521  11.890
85831W        W57502  39.824  40.761  12.471
85832W        W57503  12.267  19.740  14.888
85833W        W57504  21.241   4.699  12.439
85834W        W57505  30.564  34.042   4.675
85835W        W57506  27.370   8.411   2.344
85836W        W57507  10.163  21.642   4.523
85837W        W57508  25.130  27.946  14.034
85838W        W57509  20.358  44.690  11.063
85839W        W57510  44.119  38.570   3.961
85840W        W57511  14.847  29.287  13.156
85841W        W57512  44.088  35.522  12.491
85842W        W57513   6.308  26.080  13.838
85843W        W57514  28.394  26.512  14.696
85844W        W57515  29.545   9.607   3.163
85845W        W57516   7.343  30.281  12.525
85846W        W57517  19.757  18.085   4.999
85847W        W57518   0.024  29.551  10.593
85848W        W57519  12.511  11.831  14.079
85849W        W57520  28.731   4.951   1.766
85850W        W57521  15.712   0.715  12.610
85851W        W57522  18.244  32.882  12.854
85852W        W57523  27.477  36.808   4.075
85853W        W57524  21.521   7.803   3.274
85854W        W57525  24.648   4.567   9.788
85855W        W57526  25.681  26.744  10.311
85856W        W57527   1.262  22.625  12.269
85857W        W57528  21.810  36.669  11.442
85858W        W57529  25.281   8.990  14.951
85859W        W57530  42.128  10.196  12.775
85860W        W57531  16.892   6.734   4.955
85861W        W57532  27.031  24.619   2.458
85862W        W57533  39.887  40.927  10.566
85863W        W57534  38.183  21.482   0.050
85864W        W57535   2.756  37.855  11.160
85865W        W57536  14.664  12.566  13.559
85866W        W57537  39.044  42.436   4.767
85867W        W57538  39.695  36.833   4.398
85868W        W57539   0.937  37.181   3.689
85869W        W57540   1.846  18.617  13.787
85870W        W57541  40.958  12.088  12.665
85871W        W57542  38.416  11.151   1.241
85872W        W57543   7.446  28.356  14.948
85873W        W57544  34.832  22.247   2.400
85874W        W57545  15.817   0.020  14.240
85875W        W57546  11.836  35.908   0.409
85876W        W57547  17.760  18.224  12.907
85877W        W57548  36.996   1.326  10.674
85878W        W57549  19.206  14.207   1.942
85879W        W57550  44.895  42.661   3.732
85880W        W57551  37.668  11.895   2.269
85881W        W57552  18.124  25.071  13.137
85882W        W57553  19.186  25.945  14.279
85883W        W57554   8.419  33.152  14.218
85884W        W57555  19.812  17.554  11.399
85885W        W57556   9.837  11.670   0.794
85886W        W57557  29.636  36.083  12.971
85887W        W57558  43.319  39.946  14.635
85888W        W57559  34.380   6.449  12.926
85889W        W57560  38.064  43.333   3.703
85890W        W57561   7.118  20.162   2.279
85891W        W57562  21.953  25.576   0.552
85892W        W57563  24.182  38.992   3.010
85893W        W57564  41.822  26.160  11.948
85894W        W57565  22.577  10.149   4.521
85895W        W57566  44.410  38.007  10.954
85896W        W57567  17.538   1.969  13.836
85897W        W57568  17.568   0.515   1.825
85898W        W57569  37.615  36.887  12.424
85899W        W57570  19.780  13.812   0.959
85900W        W57571  19.409   7.835   2.796
85901W        W57572  21.211  13.823  10.294
85902W        W57573   5.787  34.301   0.304
85903W        W57574  23.311  32.482  14.834
85904W        W57575  28.985  35.582  13.398
85905W        W57576  44.898  12.225  14.339
85906W        W57577   1.849  16.728   4.888
85907W        W57578  42.673  27.622   4.064
85908W        W57579  43.711  32.124   0.462
85909W        W57580  35.924  39.141   0.831
85910W        W57581  34.119   1.601  13.593
85911W        W57582  34.883   4.484   1.341
85912W        W57583  34.987  28.718   2.917
85913W        W57584  17.349  10.176   1.469
85914W        W57585  40.784  44.231  14.503
85915W        W57586  10.308  40.991  14.684
85916W        W57587  15.352  18.640  10.737
85917W        W57588  13.628  17.274  14.849
85918W        W57589  33.768   7.219   1.528
85919W        W57590   9.390   1.695  14.119
85920W        W57591  12.147  43.950   0.808
85921W        W57592  28.954   5.713   3.796
85922W        W57593  34.361  37.828  11.915
85923W        W57594  20.246  37.576  10.247
85924W        W57595  10.374   2.884   0.100
85925W        W57596  43.092  20.088   2.829
85926W        W57597   5.308  35.988   0.183
85927W        W57598  36.568  26.006  11.247
85928W        W57599  37.036   1.338   4.299
85929W        W57600  16.012  43.435   4.748
85930W        W57601   2.920  17.212  12.501
85931W        W57602  36.453  33.024  13.336
85932W        W57603  40.315  19.166  11.514
85933W        W57604   1.737  15.945   4.159
85934W        W57605  35.242   4.061   0.453
85935W        W57606  24.350  13.782  10.473
85936W        W57607  29.388   3.608   2.461
85937W        W57608   6.735   7.579   4.054
85938W        W57609  15.398   3.593   5.079
85939W        W57610  19.109  15.529   0.437
85940W        W57611  36.113  18.920  11.861
85941W        W57612   5.682  29.062  14.087
85942W        W57613  22.247  28.885  14.443
85943W        W57614  29.274  25.225  10.124
85944W        W57615  32.444   7.149   1.826
85945W        W57616   3.419  15.368   0.408
85946W        W57617  31.003  20.099   0.161
85947W        W57618  10.760  44.011   1.994
85948W        W57619  42.032  35.873   4.092
85949W        W57620  33.776   9.789  11.416
85950W        W57621   0.926  27.055   1.790
85951W        W57622  10.875  18.276   2.309
85952W        W57623  20.699  14.403  11.997
85953W        W57624  40.496  44.263   2.259
85954W        W57625   3.241  43.417  10.411
85955W        W57626  21.467  36.862   0.490
85956W        W57627   8.867  11.642   0.867
85957W        W57628  37.596   7.624   3.330
85958W        W57629  19.728   0.683  13.340
85959W        W57630  24.812  24.717  13.601
85960W        W57631   9.891  24.996  10.462
85961W        W57632   6.845  34.588  13.849
85962W        W57633  18.812  43.331  14.324
85963W        W57634  16.252  36.702   1.273
85964W        W57635  18.526  21.150  13.071
85965W        W57636  10.243  21.404  10.961
85966W        W57637  34.457  17.114  13.284
85967W        W57638   1.758  20.397  13.467
85968W        W57639  37.595  32.384   1.787
85969W        W57640  17.498   2.370  11.526
85970W        W57641  15.326  29.282  10.589
85971W        W57642   3.910  17.581   3.158
85972W        W57643  13.813   9.244   0.572
85973W        W57644  27.389  37.378   2.299
85974W        W57645  37.959  34.676   4.100
85975W        W57646   7.685  17.056  12.973
85976W        W57647   9.876  36.139  12.095
85977W        W57648  14.033  36.075   2.258
85978W        W57649   8.405  13.352  10.993
85979W        W57650  16.012  42.979  13.092
85980W        W57651   9.733  36.637   2.773
85981W        W57652  44.459   1.055  11.194
85982W        W57653  10.646   5.164   4.160
85983W        W57654  28.448   6.497   0.838
85984W        W57655  24.712  27.637   3.281
85985W        W57656  17.076  24.139  13.827
85986W        W57657  35.448   4.240  14.488
85987W        W57658  42.679  15.018  12.076
85988W        W57659   6.262  33.385   4.637
85989W        W57660  41.415  43.159  10.416
85990W        W57661  43.426  22.881  14.380
85991W        W57662  18.050  42.944   1.762
85992W        W57663  24.187  25.103   1.834
85993W        W57664  17.559   6.924   3.190
85994W        W57665   4.780  34.386  14.689
85995W        W57666  29.981  41.910  14.023
85996W        W57667  18.819  32.102  12.120
85997W        W57668  27.023   5.921   1.280
85998W        W57669  44.616  32.597   3.073
85999W        W57670  18.986  10.957   0.947
86000W        W57671  33.324  27.628   1.404
86001W        W57672  37.019  29.134  11.147
86002W        W57673  17.198  20.672  11.982
86003W        W57674  43.753  32.223   3.434
86004W        W57675  27.499  14.238   4.581
86005W        W57676  28.196  19.652  11.542
86006W        W57677  10.084  31.127  14.354
86007W        W57678  16.057  13.824   1.653
86008W        W57679   0.070  10.811  10.617
86009W        W57680  16.334  38.046   1.769
86010W        W57681  38.048  42.881  13.950
86011W        W57682   2.285  33.076  14.084
86012W        W57683   2.509  34.002   4.956
86013W        W57684  38.993  17.930  10.701
86014W        W57685  19.615  35.385   1.835
86015W        W57686  34.913  35.182  11.543
86016W        W57687  16.664  32.149  13.333
86017W        W57688  27.477  18.546   0.271
86018W        W57689  32.329  39.605   2.644
86019W        W57690  15.059  36.473  10.669
86020W        W57691  16.693  19.202   3.589
86021W        W57692  40.896  29.330   0.582
86022W        W57693   9.437  11.803  12.096
86023W        W57694  42.735   2.336   2.789
86024W        W57695  20.134  32.122  11.510
86025W        W57696  23.197  14.246   3.858
86026W        W57697   1.807   7.622   0.384
86027W        W57698  25.273  36.444  11.158
86028W        W57699  30.442  18.335  13.097
86029W        W57700  18.306   2.210   2.942
86030W        W57701   9.726  35.440  13.486
86031W        W57702  29.286  32.844   0.796
86032W        W57703  11.323  17.414  11.576
86033W        W57704  16.023  25.037   3.199
86034W        W57705  20.601  37.892   1.374
86035W        W57706  38.335   7.116   2.182
86036W        W57707   7.113  41.844   3.602
86037W        W57708  35.374  23.544   4.158
86038W        W57709  18.079  25.564   2.442
86039W        W57710  40.541  20.031  13.843
86040W        W57711  43.028  22.366   1.341
86041W        W57712   2.447   1.915  13.983
86042W        W57713  31.478   4.905  11.551
86043W        W57714   5.860   4.829   1.243
86044W        W57715  37.918  21.011   2.256
86045W        W57716  17.300  14.262   0.395
86046W        W57717  21.287  36.451  10.686
86047W        W57718  42.503  20.523  10.731
86048W        W57719  21.966   0.387   3.842
86049W        W57720  14.655  43.315  13.873
86050W        W57721   3.757  32.982   1.001
86051W        W57722  29.398  36.904  10.681
86052W        W57723  38.453  39.844   4.350
86053W        W57724  16.604  22.699  11.095
86054W        W57725  27.118   7.307  12.323
86055W        W57726  34.353  26.531  13.553
86056W        W57727  33.915  13.649   3.765
86057W        W57728   3.457  44.538  14.051
86058W        W57729  35.074   0.882  13.612
86059W        W57730  25.519  34.495   1.297
86060W        W57731   0.361  19.699  14.489
86061W        W57732  10.066   1.362   3.660
86062W        W57733  31.670  40.344   4.384
86063W        W57734   7.926  24.079  11.215
86064W        W57735  28.622  34.127  14.838
86065W        W57736  18.777   1.956   1.315
86066W        W57737   2.189   7.269  11.856
86067W        W57738  41.851   9.170  14.993
86068W        W57739  11.575   8.771   4.398
86069W        W57740  29.074   3.724  14.087
86070W        W57741   1.293  27.575  12.625
86071W        W57742  26.170  30.053  14.425
86072W        W57743   2.890  33.186   3.441
86073W        W57744  29.154  14.900  12.441
86074W        W57745  18.821   6.231  10.699
86075W        W57746  31.113  10.208   1.745
86076W        W57747  33.507  39.287   3.255
86077W        W57748   5.483   2.812   3.567
86078W        W57749  35.746  24.375  12.460
86079W        W57750  13.120  39.885   0.365
86080W        W57751  38.138  44.904  12.540
86081W        W57752  16.775  30.415  13.982
86082W        W57753   7.761  33.470  11.420
86083W        W57754  32.203  42.422  10.728
86084W        W57755  32.439  15.627  11.304
86085W        W57756   1.788  34.635   2.897
86086W        W57757  38.436  15.033  10.631
86087W        W57758   5.995  35.923  12.941
86088W        W57759  43.159  14.534   9.577
86089W        W57760   6.247  20.019   2.889
86090W        W57761  13.739  15.424   2.276
86091W        W57762  42.739  44.489   3.714
86092W        W57763   9.641  37.116   2.567
86093W        W57764  42.423  35.789  13.756
86094W        W57765   0.998   5.319   3.750
86095W        W57766  28.684  22.689   1.816
86096W        W57767  11.495  28.238   0.333
86097W        W57768  22.924  27.389   0.681
86098W        W57769   7.036  35.058  12.990
86099W        W57770  19.687  31.569   4.925
86100W        W57771  25.162  25.495   4.624
86101W        W57772   2.084  19.998   4.967
86102W        W57773   0.830  29.983   4.425
86103W        W57774  30.790  20.128   3.795
86104W        W57775  40.174  19.890   3.684
86105W        W57776  29.849  22.716   4.904
86106W        W57777   6.697   2.939  13.670
86107W        W57778  19.764  21.483   0.873
86108W        W57779  33.500  29.940   3.158
86109W        W57780  12.754  21.903   3.730
86110W        W57781   7.244  35.883   0.328
86111W        W57782  31.378  11.244   2.428
86112W        W57783  31.191  15.445   1.145
86113W        W57784  41.076  12.771  10.730
86114W        W57785  39.298   2.417  12.946
86115W        W57786  37.194  39.213  14.364
86116W        W57787  29.525  35.884   3.536
86117W        W57788  40.906  35.623   0.903
86118W        W57789  26.876  32.488  13.425
86119W        W57790   7.729   8.559  11.924
86120W        W57791  28.262  43.841   2.733
86121W        W57792   8.707  35.533   4.925
86122W        W57793  13.845  21.596  13.870
86123W        W57794  23.261  37.299   4.242
86124W        W57795  40.376  26.482  14.735
86125W        W57796   8.110  20.732   4.569
86126W        W57797   1.220  22.685   1.652
86127W        W57798  41.921  43.545   4.522
86128W        W57799  36.901  33.629   0.523
86129W        W57800  29.940  12.520  13.021
86130W        W57801  42.642  37.860  14.842
86131W        W57802  23.413  34.214  10.450
86132W        W57803  43.054  26.046  14.827
86133W        W57804  24.691  26.945   2.256
86134W        W57805  15.095  32.583   3.088
86135W        W57806  20.754  34.995  10.540
86136W        W57807   4.172  36.321  12.493
86137W        W57808  27.798  13.184   1.662
86138W        W57809  36.966  23.968   0.009
86139W        W57810  25.189  27.512   0.374
86140W        W57811  10.950   5.335  13.854
86141W        W57812  26.461  25.526   1.299
86142W        W57813   5.368  39.802  12.460
86143W        W57814   6.434  44.262  12.526
86144W        W57815   1.415  31.662   4.598
86145W        W57816  25.952   0.452  13.540
86146W        W57817  21.000  42.056   4.576
86147W        W57818  44.583  40.454   4.146
86148W        W57819  37.496  14.803   0.694
86149W        W57820  11.063  15.109   1.212
86150W        W57821  24.286  12.827  12.679
86151W        W57822  15.259  25.629   1.844
86152W        W57823  38.419  16.575   4.533
86153W        W57824   9.746  27.144   3.898
86154W        W57825  36.323   5.289   4.854
86155W        W57826   4.427   0.345  10.372
86156W        W57827  19.302   8.824  14.542
86157W        W57828  22.439  40.103   1.629
86158W        W57829  43.832   1.450   1.404
86159W        W57830  29.386  39.106  11.895
86160W        W57831  39.525  23.996  11.479
86161W        W57832  41.204  40.539   1.862
86162W        W57833  18.558   4.365   3.862
86163W        W57834  31.586  27.414   4.788
86164W        W57835  31.398  30.252   0.969
86165W        W57836  34.560  13.665   4.727
86166W        W57837  19.368  20.544  11.214
86167W        W57838  13.239  37.374  11.201
86168W        W57839   8.454  18.306  10.554
86169W        W57840   3.280  15.680  10.457
86170W        W57841  42.300  15.585  14.321
86171W        W57842  15.127  24.196   0.792
86172W        W57843  25.761  38.609  11.114
86173W        W57844  19.366  19.677  10.746
86174W        W57845  44.011  29.011   1.283
86175W        W57846  22.177  32.094  10.964
86176W        W57847  14.556  10.263  13.053
86177W        W57848  23.612  28.850   0.216
86178W        W57849  44.910  18.065   3.756
86179W        W57850  28.467  26.756   4.806
86180W        W57851  12.345  15.748  11.504
86181W        W57852  27.659  41.279   0.693
86182W        W57853  13.593  27.015   2.411
86183W        W57854  33.634   4.943  11.520
86184W        W57855  39.570  10.275  14.018
86185W        W57856  33.191  16.256  11.692
86186W        W57857  12.168  17.359  13.022
86187W        W57858  41.914  43.031   0.517
86188W        W57859   2.105  36.558   0.757
86189W        W57860   8.637  10.953  14.941
86190W        W57861   9.206  10.592  11.486
86191W        W57862   7.233  31.474   3.057
86192W        W57863  34.629  40.110   2.325
86193W        W57864  41.012  35.777   1.399
86194W        W57865  35.004   6.426   4.207
86195W        W57866   5.799  34.904  11.907
86196W        W57867  39.839   5.968   0.332
86197W        W57868  10.377  34.926   2.219
86198W        W57869   4.503   3.425   1.618
86199W        W57870   3.740  16.583   1.714
86200W        W57871  30.076   1.549   3.623
86201W        W57872  44.596  40.847   9.684
86202W        W57873   4.591   1.738   0.984
86203W        W57874  23.045  29.564  14.025
86204W        W57875  25.670  21.109   0.846
86205W        W57876  40.046  21.531  10.681
86206W        W57877  27.471   2.303  11.899
86207W        W57878   2.866  30.918   3.743
86208W        W57879   7.664  18.284   3.303
86209W        W57880  37.135   9.826  13.818
86210W        W57881  37.855  15.262   0.737
86211W        W57882   1.196  32.972   0.101
86212W        W57883  22.575   8.399  14.745
86213W        W57884  39.598  14.957   0.320
86214W        W57885  19.061  27.084  10.315
86215W        W57886   1.268   1.330  12.086
86216W        W57887  25.399  42.489  14.766
86217W        W57888  34.567   6.279   0.536
86218W        W57889   0.192  38.469   1.685
86219W        W57890  11.397  22.169   1.803
86220W        W57891  20.634   3.220   2.455
86221W        W57892  38.302  28.944  12.401
86222W        W57893  20.768   2.149  11.187
86223W        W57894  10.771  42.448   0.505
86224W        W57895   5.655  30.985  12.859
86225W        W57896  41.424  29.447  13.400
86226W        W57897  11.572   8.604   2.410
86227W        W57898  11.907  33.119   2.249
86228W        W57899  34.001  43.896   4.668
86229W        W57900  17.638  15.206   2.844
86230W        W57901  12.362  26.088   2.601
86231W        W57902  42.988  23.748   0.289
86232W        W57903  40.521  11.231   1.669
86233W        W57904  42.743  26.509   3.190
86234W        W57905   9.067  12.720  13.876
86235W        W57906  29.708   2.448   2.703
86236W        W57907  27.987  12.385  10.550
86237W        W57908  31.930   7.206   2.333
86238W        W57909  34.059   3.382   4.237
86239W        W57910  23.594  44.511   2.793
86240W        W57911  25.964  19.118   0.986
86241W        W57912  44.250  29.021   0.281
86242W        W57913  15.417   4.989   1.934
86243W        W57914  11.904  38.782  12.469
86244W        W57915  10.400  14.478   1.330
86245W        W57916  12.597  40.404   0.777
86246W        W57917  21.974  16.017  10.684
86247W        W57918  15.644  29.032   4.810
86248W        W57919  35.512   9.554  12.656
86249W        W57920  10.185  16.782   3.239
86250W        W57921   0.163   0.928   1.274
86251W        W57922  41.301  11.695  14.430
86252W        W57923  17.083   4.853  11.116
86253W        W57924  21.236   8.251   2.305
86254W        W57925   1.343  25.652  14.899
86255W        W57926  28.959   9.459   5.386
86256W        W57927   0.528  19.027  11.959
86257W        W57928  10.121  20.630   3.617
86258W        W57929   2.910  37.395   0.242
86259W        W57930  22.897  39.086  12.467
86260W        W57931  19.523  41.414   2.819
86261W        W57932  30.426   3.965  14.255
86262W        W57933  12.098  39.916   0.305
86263W        W57934   0.931  41.344   3.965
86264W        W57935  21.631  15.744  11.482
86265W        W57936  18.276  10.248   4.128
86266W        W57937  11.135  20.099  11.630
86267W        W57938  11.206  32.203   0.630
86268W        W57939  38.934   8.543   2.142
86269W        W57940  22.765   1.194  11.491
86270W        W57941   7.639  36.012   3.406
86271W        W57942  23.956   8.157   4.013
86272W        W57943  20.625  13.207  10.683
86273W        W57944  12.986   0.684  12.106
86274W        W57945  42.282  27.180  13.386
86275W        W57946  23.389  37.807   1.919
86276W        W57947  16.301   2.267  14.033
86277W        W57948   6.683  28.602  14.622
86278W        W57949   9.636   5.645   0.808
86279W        W57950  43.376  21.123   5.454
86280W        W57951   4.170  33.620   2.647
86281W        W57952  13.155  17.122   4.471
86282W        W57953  10.765  17.587   1.926
86283W        W57954  42.041   6.315   3.739
86284W        W57955   7.309  26.450   2.797
86285W        W57956  30.099  29.879   1.552
86286W        W57957  22.601  35.480  12.186
86287W        W57958  44.224   2.738  12.468
86288W        W57959   3.902  21.595  10.924
86289W        W57960  13.151  11.851   4.571
86290W        W57961  42.066   6.677   4.370
86291W        W57962  22.201   5.042   2.882
86292W        W57963  43.193   5.844  11.873
86293W        W57964  34.531  34.152  13.822
86294W        W57965   4.115  21.217   2.985
86295W        W57966  32.036  19.523   2.916
86296W        W57967  33.076  41.112   1.535
86297W        W57968  16.718  21.161  11.448
86298W        W57969  20.559  40.072  14.383
86299W        W57970  41.342   2.141   0.357
86300W        W57971  33.881  19.154   1.644
86301W        W57972   9.120  39.773  11.287
86302W        W57973  26.538   0.804  12.955
86303W        W57974  38.834  11.505   0.581
86304W        W57975  30.010  11.695  11.943
86305W        W57976  35.103  35.853   1.440
86306W        W57977  21.594  23.276   2.872
86307W        W57978  16.356  24.560   4.489
86308W        W57979  34.152  15.794  10.710
86309W        W57980  23.704  11.415   2.014
86310W        W57981  12.441  37.415   1.936
86311W        W57982  27.250   7.865  10.249
86312W        W57983   2.450   5.194   2.669
86313W        W57984  40.129  12.561  14.527
86314W        W57985  24.580   7.707  13.907
86315W        W57986  27.264  31.033  14.995
86316W        W57987  39.249  16.563   1.415
86317W        W57988  25.197  37.273   1.272
86318W        W57989   0.960  38.297  11.191
86319W        W57990   2.323  25.623   0.227
86320W        W57991  34.947  14.185  14.550
86321W        W57992  26.409  32.161  13.914
86322W        W57993  33.221  13.530  12.111
86323W        W57994  33.388  29.067  12.987
86324W        W57995  39.249  33.404  13.305
86325W        W57996  42.090  27.984  12.081
86326W        W57997  32.012   6.372  12.375
86327W        W57998  21.766  24.471  13.748
86328W        W57999   5.597   9.337   3.262
86329W        W58000  24.534  39.640  12.061
86330W        W58001  19.619  29.626   1.463
86331W        W58002  10.312  19.202  12.456
86332W        W58003   6.650   9.392   4.698
86333W        W58004  22.511  23.258  14.690
86334W        W58005  37.043  27.446   2.724
86335W        W58006  29.879  20.271  13.014
86336W        W58007   5.733  16.038  11.237
86337W        W58008  29.461  13.471  11.658
86338W        W58009  23.063  26.072   1.542
86339W        W58010  39.919  43.985  13.404
86340W        W58011   2.285  18.487  12.362
86341W        W58012  18.835  11.870   5.217
86342W        W58013   9.563   4.275  14.828
86343W        W58014  32.041  22.194  13.827
86344W        W58015  23.827  24.594  13.393
86345W        W58016  34.399  26.181   2.822
86346W        W58017  42.445   9.405  14.997
86347W        W58018   8.765  34.126   4.144
86348W        W58019   1.910  14.151   1.758
86349W        W58020  27.506  43.686   0.845
86350W        W58021  31.483  33.619   0.335
86351W        W58022  25.423  37.453  10.861
86352W        W58023   2.474   6.444   5.026
86353W        W58024  30.375   5.371  10.682
86354W        W58025  31.445  32.775   3.356
86355W        W58026  39.965  20.687   3.130
86356W        W58027  24.612  21.677   2.320
86357W        W58028  24.695  35.636  12.492
86358W        W58029  38.038  38.886   5.617
86359W        W58030  19.506  16.765   3.099
86360W        W58031  17.211   6.646   0.232
86361W        W58032  26.133  40.909  14.396
86362W        W58033  24.096  19.789  14.965
86363W        W58034   5.853  26.401   5.067
86364W        W58035  44.399  21.236  14.249
86365W        W58036  11.148  38.130  11.110
86366W        W58037  24.449  36.941   0.032
86367W        W58038  14.598   4.028   2.246
86368W        W58039  37.433  10.439  12.504
86369W        W58040  41.507  29.688  14.247
86370W        W58041  41.087   5.430   0.444
86371W        W58042  26.235  11.814  10.733
86372W        W58043  18.590  11.584  10.131
86373W        W58044  22.253  33.582  14.047
86374W        W58045  17.667  22.450  14.990
86375W        W58046  24.585  43.717  13.778
86376W        W58047  41.577  24.223  11.061
86377W        W58048   3.970  13.380   4.572
86378W        W58049   6.500  36.057  13.931
86379W        W58050  12.245  25.250  12.461
86380W        W58051  12.710  36.167  12.527
86381W        W58052   9.306  25.705   1.218
86382W        W58053   4.738  44.629   2.743
86383W        W58054  29.681  30.158  11.993
86384W        W58055  12.796   3.448  14.500
86385W        W58056  36.098  27.459   3.243
86386W        W58057  34.908  26.696   1.794
86387W        W58058   3.782   0.486  13.827
86388W        W58059  19.106  24.235  12.591
86389W        W58060  42.877  26.534  13.171
86390W        W58061  35.531  26.409   1.017
86391W        W58062  33.898  13.896  14.346
86392W        W58063   3.462   0.275   0.113
86393W        W58064   0.775   7.000  12.503
86394W        W58065   0.341  18.744  14.997
86395W        W58066  25.369  33.493   2.722
86396W        W58067  32.409   1.199  10.470
86397W        W58068  19.049  42.839  14.160
86398W        W58069  26.935  35.479  14.682
86399W        W58070   1.819  38.359   3.814
86400W        W58071  26.909  24.117  13.119
86401W        W58072   9.069   1.264  13.173
86402W        W58073  20.647  37.842   2.293
86403W        W58074  36.467  22.224   3.272
86404W        W58075  26.631   2.588   1.232
86405W        W58076  42.374  32.104  13.452
86406W        W58077  31.887  10.476  14.812
86407W        W58078  38.887  34.950  14.098
86408W        W58079  44.297  13.443  10.272
86409W        W58080   2.173  18.342   9.773
86410W        W58081  23.192  16.207   4.016
86411W        W58082  20.315   0.237  11.138
86412W        W58083  26.269  38.542  14.645
86413W        W58084  22.579  41.420  10.569
86414W        W58085   9.209  44.429  14.459
86415W        W58086  21.727   9.699   1.607
86416W        W58087   0.971  11.315  10.782
86417W        W58088  26.568   7.658  13.827
86418W        W58089  43.409  23.513   0.748
86419W        W58090  25.053   9.839  12.424
86420W        W58091  29.637  25.279  13.419
86421W        W58092  25.743  28.741   1.403
86422W        W58093  22.712  38.086   4.652
86423W        W58094  39.693  21.205   3.831
86424W        W58095   9.372  42.819  10.761
86425W        W58096  44.721  40.243   3.361
86426W        W58097  26.991  14.407   3.310
86427W        W58098   7.281  37.520   2.358
86428W        W58099  29.991   3.203   0.610
86429W        W58100  13.601  31.012   1.835
86430W        W58101  37.035  44.814   4.756
86431W        W58102  12.130  21.684   1.214
86432W        W58103   3.718  43.384  14.697
86433W        W58104  39.839  24.079   3.453
86434W        W58105  34.698   7.782  11.986
86435W        W58106   7.947  20.133  12.904
86436W        W58107  32.166  31.490  14.946
86437W        W58108  42.499  27.694  11.202
86438W        W58109  20.427   9.774   1.719
86439W        W58110  41.258  36.155   3.786
86440W        W58111  11.817  20.979  14.420
86441W        W58112   2.984  11.838  14.358
86442W        W58113  15.770  33.484   0.029
86443W        W58114  14.602  42.069  11.156
86444W        W58115  14.973  35.552  12.162
86445W        W58116   6.858  42.319   2.801
86446W        W58117   2.864  13.766  13.004
86447W        W58118  27.641  17.740   3.209
86448W        W58119  16.270  41.285  11.667
86449W        W58120  36.882  40.402  13.831
86450W        W58121  13.791  14.927   2.262
86451W        W58122  34.558  39.112  12.431
86452W        W58123  11.168  20.743  10.366
86453W        W58124  43.881  23.631   2.780
86454W        W58125  30.945   6.859  10.561
86455W        W58126  23.574  33.671   1.270
86456W        W58127  37.053   8.021  11.510
86457W        W58128  30.716   8.112   3.412
86458W        W58129  39.572  18.109  14.435
86459W        W58130  11.352  36.515   0.975
86460W        W58131  16.093  35.424   3.841
86461W        W58132   7.528  36.975  12.283
86462W        W58133   2.041  11.052  13.870
86463W        W58134  33.107  32.160  14.599
86464W        W58135  40.583  32.615  12.273
86465W        W58136  41.154   9.228  13.506
86466W        W58137  28.892  39.339  11.989
86467W        W58138  18.304   3.803   2.225
86468W        W58139   4.918  28.613   1.899
86469W        W58140  29.402  44.997   1.970
86470W        W58141   6.887  22.267   0.994
86471W        W58142   0.022  35.880   4.420
86472W        W58143   0.233   3.393   4.505
86473W        W58144  30.055  40.490  11.555
86474W        W58145  10.244  29.492   3.303
86475W        W58146  16.707  30.201  14.468
86476W        W58147   2.887  15.513  13.981
86477W        W58148  42.769   0.260  14.353
86478W        W58149  18.158   5.319  13.386
86479W        W58150  32.913  15.582  13.317
86480W        W58151  24.554   2.954   4.691
86481W        W58152   9.754  37.587  13.813
86482W        W58153  12.763  23.878  11.348
86483W        W58154  28.008  39.779  13.731
86484W        W58155  34.618  21.216   3.680
86485W        W58156  29.913   4.625  14.517
86486W        W58157  18.692   0.712   4.543
86487W        W58158  15.314   2.381   0.044
86488W        W58159  25.173   4.164  11.628
86489W        W58160  10.252  24.324   1.759
86490W        W58161  13.822   1.650   3.646
86491W        W58162  37.587   4.877  13.996
86492W        W58163   1.700  26.009   3.160
86493W        W58164  15.553  24.892  13.546
86494W        W58165  16.663  15.938   4.130
86495W        W58166   3.506  10.660  13.018
86496W        W58167  22.920  36.065  10.779
86497W        W58168  25.880  30.450   3.220
86498W        W58169   9.112  34.423   1.928
86499W        W58170  37.051  15.590   1.298
86500W        W58171  10.616   7.801  14.951
86501W        W58172   7.511  29.935  13.464
86502W        W58173  11.794  20.614   0.554
86503W        W58174  43.715   0.815  14.367
86504W        W58175  12.890   4.698   0.197
86505W        W58176  22.941  37.993  13.893
86506W        W58177  17.167   2.837   1.202
86507W        W58178  22.077  19.531  12.726
86508W        W58179  33.521  11.915   0.838
86509W        W58180   6.249  16.578   0.310
86510W        W58181  41.771  41.759  13.919
86511W        W58182  29.299   2.342   1.829
86512W        W58183  24.240   6.291   4.523
86513W        W58184   2.680  29.328   2.712
86514W        W58185   6.183  13.240   1.744
86515W        W58186  43.033  34.629  12.016
86516W        W58187  21.147  20.533  10.734
86517W        W58188  17.703  17.716   2.959
86518W        W58189  20.745   2.161  13.019
86519W        W58190  27.117   6.291  10.202
86520W        W58191   3.465  22.152  12.922
86521W        W58192  29.433  36.138   4.145
86522W        W58193  18.144  35.502   3.195
86523W        W58194   3.360  25.070   3.794
86524W        W58195  44.829  17.797  12.537
86525W        W58196   1.652  22.853   9.740
86526W        W58197  31.267  27.492   2.941
86527W        W58198  39.411  14.828  12.861
86528W        W58199  28.634  33.501  13.995
86529W        W58200  42.447   2.477  11.255
86530W        W58201  25.766  41.541   3.408
86531W        W58202  12.667  41.459   4.944
86532W        W58203  17.026   0.418   1.773
86533W        W58204  11.559  18.655   4.492
86534W        W58205  27.529   7.724  10.666
86535W        W58206  22.910  12.152  10.725
86536W        W58207  38.778  18.291  12.423
86537W        W58208  41.225  33.333  12.398
86538W        W58209  39.586  30.482   0.685
86539W        W58210   2.118  44.858   1.344
86540W        W58211   9.138  42.786   1.361
86541W        W58212  19.494  27.952   1.085
86542W        W58213  33.391  18.231   4.965
86543W        W58214  43.793  39.792   0.708
86544W        W58215  10.415  24.788   3.540
86545W        W58216  38.334  19.669  11.231
86546W        W58217  26.701  17.405   1.817
86547W        W58218  21.104  39.344   1.620
86548W        W58219  24.045   8.700  11.520
86549W        W58220  41.530  41.792  10.161
86550W        W58221  13.513   6.859   5.079
86551W        W58222   9.827  35.005  14.466
86552W        W58223   9.118  37.407   5.006
86553W        W58224   0.469  43.990   0.023
86554W        W58225  12.621  36.410   1.951
86555W        W58226  15.991   9.644  14.133
86556W        W58227  27.566   3.202  10.669
86557W        W58228  12.304  28.658  14.290
86558W        W58229  36.411  38.606  11.153
86559W        W58230  27.552   5.928  10.197
86560W        W58231   8.277  43.065   4.086
86561W        W58232  32.237  21.208   3.767
86562W        W58233  30.214  19.230  13.969
86563W        W58234  37.587  38.147   2.595
86564W        W58235  44.339  10.076   0.478
86565W        W58236  32.647  22.567   4.688
86566W        W58237  44.571  22.535   4.295
86567W        W58238  20.077   3.488   1.629
86568W        W58239  24.280  17.263  11.091
86569W        W58240  36.376  33.128   0.523
86570W        W58241  24.779  24.956   0.508
86571W        W58242  21.933  23.484  13.537
86572W        W58243   7.232  28.510   4.007
86573W        W58244   2.713   1.242  12.457
86574W        W58245  22.081  38.008   2.294
86575W        W58246   2.150  38.997  12.338
86576W        W58247  14.054  42.084   1.871
86577W        W58248  44.558  41.365   4.930
86578W        W58249  17.054   0.322  13.886
86579W        W58250   9.573  43.952   0.469
86580W        W58251   6.538   8.435   1.723
86581W        W58252  38.461  34.813  13.318
86582W        W58253  22.177  12.838   3.426
86583W        W58254   9.667  38.309   2.300
86584W        W58255  36.598  35.026  12.442
86585W        W58256  31.390  32.488  13.562
86586W        W58257  36.468  38.688   4.598
86587W        W58258  10.329  35.482  10.722
86588W        W58259  34.445  38.887  14.367
86589W        W58260   2.654  40.318  14.966
86590W        W58261  42.404  43.287   3.482
86591W        W58262  36.375   2.734   4.183
86592W        W58263  32.668  26.079   2.365
86593W        W58264  40.327  33.875   1.268
86594W        W58265   7.196  17.110   1.558
86595W        W58266  14.527  32.589  11.194
86596W        W58267  19.350   8.824   2.769
86597W        W58268  17.218  42.932  11.417
86598W        W58269  23.334   0.275  14.041
86599W        W58270  11.710  18.037   1.486
86600W        W58271  38.930   7.335   0.564
86601W        W58272  15.725   0.004  12.023
86602W        W58273  17.922  35.842   1.451
86603W        W58274   5.794  35.976   4.371
86604W        W58275  40.247  11.202   1.225
86605W        W58276  40.902  12.889  13.069
86606W        W58277  24.111  42.999   2.474
86607W        W58278   6.513  36.000  14.840
86608W        W58279  40.980  28.539   0.918
86609W        W58280  44.741  42.456   0.834
86610W        W58281  24.063  26.379  13.522
86611W        W58282  25.422   7.428  11.180
86612W        W58283  14.790   6.798  11.160
86613W        W58284  44.914  29.196   2.832
86614W        W58285  27.577  41.825  13.031
86615W        W58286  12.827  25.504   4.970
86616W        W58287  44.866  12.548   4.190
86617W        W58288  14.607  31.673   1.168
86618W        W58289  31.137  23.641   0.995
86619W        W58290   5.624  26.504   2.354
86620W        W58291  23.188  14.642  11.659
86621W        W58292   6.426  13.748   0.997
86622W        W58293  33.602  14.491  12.220
86623W        W58294   3.938  14.153  11.619
86624W        W58295   4.824  26.562   0.266
86625W        W58296   1.961  29.416   3.633
86626W        W58297  11.400   2.771  13.951
86627W        W58298  39.531   4.871   2.275
86628W        W58299  44.416  37.999  13.724
86629W        W58300   7.114  18.156   4.128
86630W        W58301  21.280  23.071   0.984
86631W        W58302  42.501   5.731   3.188
86632W        W58303   6.357   5.844   3.694
86633W        W58304   8.361   8.790   1.223
86634W        W58305  17.203  15.903   3.373
86635W        W58306   4.412  29.594   1.452
86636W        W58307   0.408  29.070   2.956
86637W        W58308  32.481   0.273  12.794
86638W        W58309  40.898  27.747   4.650
86639W        W58310  30.923   4.947  12.096
86640W        W58311  24.580  42.474   4.515
86641W        W58312  12.823  12.664   3.171
86642W        W58313  10.584  38.990   1.905
86643W        W58314   7.864  14.157  10.707
86644W        W58315  25.740  39.848   3.687
86645W        W58316  27.314  15.014   0.123
86646W        W58317  11.694  33.342  11.120
86647W        W58318  23.028  20.217   3.172
86648W        W58319  37.093  37.523   1.224
86649W        W58320  41.482   1.284  10.629
86650W        W58321   2.471   8.156  14.368
86651W        W58322  33.745   9.576   0.366
86652W        W58323  34.061  17.856  14.337
86653W        W58324  39.704  38.365  10.621
86654W        W58325  40.945  39.298   2.718
86655W        W58326  31.276  24.731   2.984
86656W        W58327  31.130   2.467  10.958
86657W        W58328  29.695  44.017   3.830
86658W        W58329  19.255  19.057   3.388
86659W        W58330  26.150  42.352  13.029
86660W        W58331  41.064  36.506   2.262
86661W        W58332  10.437   6.170   2.533
86662W        W58333  18.194  31.544   0.909
86663W        W58334   4.288  19.889   3.554
86664W        W58335  20.503  30.585  13.601
86665W        W58336  18.988  25.681   9.760
86666W        W58337  18.356  28.634  13.989
86667W        W58338  22.819  33.038   2.914
86668W        W58339  27.016  43.220   4.199
86669W        W58340   2.816  31.613  13.524
86670W        W58341  42.394   9.301   1.263
86671W        W58342  15.101  26.624  12.536
86672W        W58343   3.828  13.147  14.991
86673W        W58344  31.195   0.443   1.973
86674W        W58345  35.577  34.756  12.813
86675W        W58346  23.056  38.503   9.669
86676W        W58347   0.267  15.785  10.970
86677W        W58348  12.827  23.903  12.453
86678W        W58349  21.732  32.417   2.278
86679W        W58350  34.035  31.397  14.525
86680W        W58351  14.084   0.299   3.648
86681W        W58352  44.168  30.125  11.393
86682W        W58353  13.858  40.299  13.520
86683W        W58354  35.435  33.740   4.017
86684W        W58355  27.036   7.689  14.531
86685W        W58356  16.070  36.208   1.226
86686W        W58357  37.951  17.369   0.478
86687W        W58358   4.312  21.604   0.261
86688W        W58359   6.296  15.633   0.939
86689W        W58360  20.653  37.805   3.736
86690W        W58361  11.260  42.007   3.600
86691W        W58362  28.026  41.990  10.931
86692W        W58363  13.235  38.472   1.859
86693W        W58364  40.958  11.804  13.116
86694W        W58365   8.590   6.459   2.478
86695W        W58366  27.493  39.443   1.629
86696W        W58367  38.257  15.255  14.477
86697W        W58368   4.402  12.839  13.538
86698W        W58369  43.498  12.517   1.370
86699W        W58370   6.885  28.926  10.397
86700W        W58371  36.207  38.481   3.377
86701W        W58372  28.136   5.924   2.936
86702W        W58373   6.907  38.247   0.329
86703W        W58374  33.319  34.497  13.636
86704W        W58375  34.933  25.696   3.533
86705W        W58376  12.011  14.068  14.035
86706W        W58377  23.819   0.403   0.720
86707W        W58378   8.426  44.241   1.861
86708W        W58379  36.114  26.628   4.894
86709W        W58380  39.796  34.177   2.398
86710W        W58381  15.698  11.128   0.015
86711W        W58382  13.820  42.987   2.439
86712W        W58383  18.323  26.268  14.889
86713W        W58384  16.791  32.650  13.259
86714W        W58385  19.767   4.476  11.546
86715W        W58386  26.424  17.771   0.236
86716W        W58387   1.754  11.338  13.525
86717W        W58388  25.225  29.324  12.539
86718W        W58389   4.208  10.163  13.797
86719W        W58390  26.943   3.257   1.174
86720W        W58391  33.605  24.676   2.472
86721W        W58392  17.801  38.443   1.451
86722W        W58393   2.039   7.853   2.711
86723W        W58394  20.224  35.110  13.036
86724W        W58395  40.278  41.012  12.447
86725W        W58396   9.394  43.308  13.085
86726W        W58397  12.611  44.777   3.798
86727W        W58398  27.714  30.724   4.310
86728W        W58399   9.131  38.368  12.644
86729W        W58400  30.947  38.876   2.130
86730W        W58401  43.858  41.138   4.608
86731W        W58402  24.004   6.240  10.674
86732W        W58403  20.061  11.641   0.423
86733W        W58404   8.451   9.120  12.366
86734W        W58405  43.757  13.795  11.011
86735W        W58406  36.946  16.115   3.590
86736W        W58407   1.339  16.154   4.784
86737W        W58408  28.629   8.946  12.966
86738W        W58409  32.969  32.909   2.074
86739W        W58410  26.480  18.074  12.884
86740W        W58411  42.458  20.298   1.600
86741W        W58412  40.238  34.494  13.407
86742W        W58413  11.216  33.147  13.714
86743W        W58414   6.816  29.106  14.537
86744W        W58415  37.784  16.163   4.196
86745W        W58416   5.383   8.837   3.655
86746W        W58417  13.673  11.350   3.723
86747W        W58418  19.659  19.350  11.541
86748W        W58419   9.857  32.069  10.432
86749W        W58420   9.097  41.899   2.427
86750W        W58421   0.307  20.273   2.835
86751W        W58422  24.956  34.174  13.421
86752W        W58423  23.247  29.706  11.621
86753W        W58424  37.882  40.807   1.843
86754W        W58425  13.142  40.519  13.999
86755W        W58426   1.885   5.078   2.704
86756W        W58427  37.310   9.794  14.328
86757W        W58428  34.164  41.489   3.183
86758W        W58429  30.435  21.623  12.298
86759W        W58430  32.647  44.808  13.428
86760W        W58431  22.813   4.396   4.842
86761W        W58432  23.489  36.830  11.140
86762W        W58433  35.937  24.959   0.319
86763W        W58434  28.611  17.613  12.149
86764W        W58435  28.196  27.683   2.874
86765W        W58436  43.916  14.306  14.514
86766W        W58437  11.129   6.450   4.211
86767W        W58438  37.582  35.925   2.230
86768W        W58439  31.974  16.829  11.070
86769W        W58440  34.562  12.720   3.669
86770W        W58441   1.942  41.480   3.692
86771W        W58442  12.624  17.907   4.462
86772W        W58443   3.794  13.641   0.767
86773W        W58444  29.585  43.052   3.099
86774W        W58445  24.948  36.425   2.445
86775W        W58446  12.729   9.700   1.215
86776W        W58447  36.312  30.802   2.730
86777W        W58448  16.671  43.797  12.005
86778W        W58449  44.316  32.417  14.011
86779W        W58450  19.599   9.376   0.208
86780W        W58451  24.538  30.443   0.178
86781W        W58452  13.774  37.578   4.143
86782W        W58453   3.380  20.189  12.451
86783W        W58454  35.566  40.121   0.877
86784W        W58455  23.992  30.626   0.307
86785W        W58456  26.313  40.985   1.495
86786W        W58457  14.758   2.663  10.616
86787W        W58458  36.130  12.742   4.711
86788W        W58459  14.064  28.400   3.702
86789W        W58460  28.879  23.037   2.272
86790W        W58461  11.901  11.330   0.278
86791W        W58462  21.302  38.820   4.105
86792W        W58463   9.272  16.004   0.220
86793W        W58464  39.267  31.530   3.093
86794W        W58465  38.866  14.994  12.120
86795W        W58466  25.876  38.939   3.303
86796W        W58467   2.904   3.648  13.001
86797W        W58468  13.779  43.970  10.646
86798W        W58469  22.618  17.719   0.714
86799W        W58470   8.723   5.202   3.330
86800W        W58471  22.418  44.335  11.091
86801W        W58472  29.457  17.234   2.407
86802W        W58473  33.263  42.279  13.019
86803W        W58474  40.049  24.463  10.515
86804W        W58475  11.439  29.952   2.299
86805W        W58476  44.227  22.177   2.677
86806W        W58477  41.477   8.313   1.866
86807W        W58478  24.290  44.711  11.164
86808W        W58479  27.552  29.427   3.873
86809W        W58480  36.602   4.194   3.167
86810W        W58481  23.980  10.697  13.903
86811W        W58482  16.783  17.325  13.437
86812W        W58483  13.403  25.706   1.019
86813W        W58484  35.404  17.063  11.511
86814W        W58485   6.216  16.137   1.293
86815W        W58486   4.721  42.373  13.516
86816W        W58487  37.758  28.645  13.028
86817W        W58488  11.926   4.071   2.692
86818W        W58489  38.319  39.506  13.088
86819W        W58490  36.969  25.187   2.458
86820W        W58491  21.724  16.538  14.902
86821W        W58492   8.457  17.107   4.103
86822W        W58493  13.828  28.610   0.163
86823W        W58494  20.033  16.832  14.458
86824W        W58495  42.613  33.377   5.119
86825W        W58496   7.112  23.648  14.714
86826W        W58497   3.031   1.609   4.127
86827W        W58498   3.673  30.881  11.506
86828W        W58499   7.854  15.664   4.035
86829W        W58500  39.752   9.162   3.738
86830W        W58501  36.492  16.576  14.506
86831W        W58502  36.640  25.161  11.596
86832W        W58503  35.320  29.353  11.172
86833W        W58504  29.150   4.424   4.077
86834W        W58505   7.428   9.642   3.967
86835W        W58506  21.070  40.841  10.163
86836W        W58507  24.477  41.559   3.541
86837W        W58508   5.614  21.129   2.856
86838W        W58509   5.325  44.640  10.526
86839W        W58510  41.773  35.367  14.564
86840W        W58511  31.998  42.418   3.336
86841W        W58512  29.472  23.825  13.882
86842W        W58513   6.074   6.759  10.411
86843W        W58514  21.188  35.115   3.286
86844W        W58515  23.188  10.611   3.674
86845W        W58516  38.554  43.120  12.453
86846W        W58517  32.471   1.850  12.568
86847W        W58518   2.290   7.332  13.580
86848W        W58519  14.575  16.153  14.367
86849W        W58520  25.326   4.949   2.180
86850W        W58521  29.956  10.250  13.120
86851W        W58522  23.831   4.717   4.639
86852W        W58523  32.309   3.860   0.616
86853W        W58524  22.918  11.628   0.030
86854W        W58525   2.918  40.309   0.789
86855W        W58526  19.418  23.725   3.349
86856W        W58527  24.357  34.735   5.057
86857W        W58528  30.160  37.413  10.798
86858W        W58529  38.462  40.513   0.529
86859W        W58530  23.919  12.328  10.682
86860W        W58531  22.205  37.230  10.146
86861W        W58532   6.895  31.235   2.081
86862W        W58533  27.652   7.069  11.016
86863W        W58534  24.735  39.916   3.242
86864W        W58535  34.564  15.607   2.327
86865W        W58536  43.932  27.773   0.695
86866W        W58537  19.204   5.794   2.831
86867W        W58538  24.129  37.396  12.394
86868W        W58539   1.818  32.775  10.725
86869W        W58540   9.393  36.919  12.782
86870W        W58541  18.691  34.351   0.909
86871W        W58542   6.748  32.587   0.004
86872W        W58543  26.488  28.922  13.284
86873W        W58544  32.445  33.537   3.298
86874W        W58545   2.688  36.180   4.616
86875W        W58546  43.143  36.335   4.939
86876W        W58547   0.836  37.505   3.173
86877W        W58548  41.122  34.639   1.754
86878W        W58549   6.002  42.014  11.484
86879W        W58550  25.534  16.486  14.931
86880W        W58551  34.340  43.254  10.285
86881W        W58552   3.164  36.524   3.747
86882W        W58553   7.686   2.718   2.840
86883W        W58554  18.422  39.536  14.944
86884W        W58555  19.455  28.024  14.707
86885W        W58556  28.008  31.806   1.270
86886W        W58557   4.879   3.779   1.511
86887W        W58558  19.795  33.881   2.712
86888W        W58559  32.671  42.497  13.868
86889W        W58560  12.184  10.695  14.348
86890W        W58561  38.535  25.264   0.882
86891W        W58562   1.395   5.624   0.992
86892W        W58563  27.470  32.674   4.379
86893W        W58564  10.276  20.486   1.390
86894W        W58565  31.017  43.974   3.704
86895W        W58566  30.476  19.000  11.405
86896W        W58567   8.366   8.710  12.660
86897W        W58568  39.749  37.455  13.546
86898W        W58569   6.191  11.337   4.202
86899W        W58570  18.313  23.670  12.346
86900W        W58571  23.243  25.527   4.231
86901W        W58572  35.135  10.398   1.383
86902W        W58573   2.842  40.346   3.722
86903W        W58574  14.755  43.422   2.118
86904W        W58575   7.656  40.046   2.262
86905W        W58576  34.867  26.888   1.316
86906W        W58577  35.793  23.861  12.480
86907W        W58578  32.983   7.937   0.828
86908W        W58579  29.945  34.100   3.239
86909W        W58580  42.029  44.013  13.499
86910W        W58581   4.808  29.200  13.011
86911W        W58582  41.006  26.955  12.063
86912W        W58583  17.199  32.357   2.212
86913W        W58584  30.379  28.112   1.448
86914W        W58585   8.825   0.602   3.144
86915W        W58586   6.202  30.553   3.742
86916W        W58587   2.426  17.019   2.171
86917W        W58588  30.334  41.043   3.933
86918W        W58589  25.005  19.070   0.721
86919W        W58590  14.091  12.654  13.828
86920W        W58591  43.933  34.478  14.002
86921W        W58592  23.027  29.847   0.878
86922W        W58593   1.420  26.257   2.807
86923W        W58594   9.349  28.623  13.137
86924W        W58595  18.988  21.684   3.689
86925W        W58596  37.947  29.151   3.206
86926W        W58597  38.853  28.698   4.900
86927W        W58598   2.524  21.994   1.387
86928W        W58599  19.059  40.288  14.425
86929W        W58600   8.302  26.392  11.990
86930W        W58601   1.712  41.256   4.625
86931W        W58602   9.334  13.303   4.149
86932W        W58603  18.703  33.022   1.369
86933W        W58604  28.870  26.279   3.985
86934W        W58605  31.878   2.331  12.647
86935W        W58606  30.455  17.612   3.940
86936W        W58607  14.192  36.049   3.445
86937W        W58608   9.892  19.751  13.904
86938W        W58609  13.557  23.058  10.679
86939W        W58610  43.741   1.263   1.888
86940W        W58611   0.767  12.582  14.800
86941W        W58612  18.733  17.092   2.296
86942W        W58613  43.532  31.736   4.090
86943W        W58614  15.109  39.452   0.540
86944W        W58615  10.432  36.553   3.111
86945W        W58616  17.293  24.895  14.408
86946W        W58617  23.592  12.761  11.947
86947W        W58618   1.700   3.904   0.335
86948W        W58619  16.176  16.606  14.067
86949W        W58620  19.296   1.959  14.855
86950W        W58621  17.974  10.722   2.131
86951W        W58622   6.749  19.081  13.902
86952W        W58623  17.741  12.731   1.918
86953W        W58624  37.721  39.964  12.531
86954W        W58625  27.607  40.992   3.055
86955W        W58626  26.957  12.804  14.359
86956W        W58627  28.073  27.666  11.002
86957W        W58628  16.013  19.198  13.017
86958W        W58629  18.773  41.320   3.345
86959W        W58630  19.975  29.412   2.919
86960W        W58631  34.998  37.519   3.070
86961W        W58632  35.727  39.149  10.387
86962W        W58633  22.175  10.168  12.109
86963W        W58634  38.897  12.592  13.897
86964W        W58635  13.510  43.522   4.441
86965W        W58636  12.787   4.713  11.075
86966W        W58637  16.695  36.281  14.365
86967W        W58638  42.670  43.866  11.213
86968W        W58639  18.666   6.728   4.156
86969W        W58640   7.533  21.767   1.395
86970W        W58641  19.500   2.328  11.171
86971W        W58642  23.371  10.437   2.864
86972W        W58643  16.102  19.084  14.816
86973W        W58644  19.408  36.074  14.726
86974W        W58645  24.699   0.158  13.957
86975W        W58646  12.802  18.949  11.650
86976W        W58647  21.578  38.803  10.416
86977W        W58648  24.148  42.799  10.678
86978W        W58649  13.792  28.331   4.521
86979W        W58650  31.715  12.343  13.459
86980W        W58651   7.599  17.234   1.276
86981W        W58652  13.526   7.299  12.484
86982W        W58653  19.760  12.343  14.952
86983W        W58654   5.166   6.727   3.631
86984W        W58655  32.940  20.983  13.477
86985W        W58656  27.064  10.793   1.637
86986W        W58657   4.935  20.758  11.014
86987W        W58658  43.470   9.864   3.142
86988W        W58659  16.315   7.770  12.416
86989W        W58660  31.432  31.336  13.488
86990W        W58661  31.663  23.724   1.014
86991W        W58662  20.038   9.369   4.838
86992W        W58663  16.183   1.722   0.750
86993W        W58664  37.107  40.744  14.123
86994W        W58665  44.911  15.139   4.659
86995W        W58666  11.732  44.732  14.047
86996W        W58667   4.519  34.942  14.007
86997W        W58668   8.885  25.187   4.305
86998W        W58669  14.353  44.664   4.649
86999W        W58670  11.227  44.663   2.637
87000W        W58671   5.335  22.166   1.151
87001W        W58672  41.938   1.942   4.121
87002W        W58673   6.182  39.550   4.346
87003W        W58674  18.725  24.649  13.228
87004W        W58675  18.253   5.611  10.443
87005W        W58676  22.167   4.195  11.738
87006W        W58677  41.458  42.778   0.303
87007W        W58678  18.069  39.578  14.398
87008W        W58679  10.863  26.718  11.025
87009W        W58680  37.585   9.052  10.658
87010W        W58681  34.391  18.266   0.274
87011W        W58682  37.054  27.490   1.792
87012W        W58683  39.999   0.002   2.353
87013W        W58684  21.215  28.599   0.355
87014W        W58685  42.839  15.715  11.538
87015W        W58686   0.800  35.147   1.364
87016W        W58687  20.022  19.758  12.970
87017W        W58688   1.428  39.378   0.357
87018W        W58689  44.310  28.219  12.036
87019W        W58690  22.593  21.878  13.045
87020W        W58691  19.076  10.750   1.408
87021W        W58692  29.037  26.132   0.731
87022W        W58693  11.251  18.677  11.071
87023W        W58694  42.970  35.602   4.532
87024W        W58695   3.425  39.635  14.385
87025W        W58696   7.025  38.477  10.838
87026W        W58697  18.292  12.718  12.778
87027W        W58698  37.864  26.231   1.313
87028W        W58699  25.595  43.063  10.799
87029W        W58700  15.330  40.508   4.530
87030W        W58701  37.620  33.716  10.710
87031W        W58702  14.605  40.581  12.878
87032W        W58703  25.501  22.586  14.431
87033W        W58704  20.012  25.180  12.525
87034W        W58705  11.194  40.443   0.867
87035W        W58706   0.808   6.723  13.947
87036W        W58707  26.968  14.151   4.183
87037W        W58708  17.413   7.881  13.844
87038W        W58709  27.729  28.863   1.866
87039W        W58710  44.949  44.933  12.880
87040W        W58711   0.801  18.377  13.825
87041W        W58712  11.695   5.851   3.405
87042W        W58713   1.743  43.511  12.584
87043W        W58714  11.717  32.075  10.211
87044W        W58715  34.468  17.131   3.307
87045W        W58716   7.479  11.403   0.280
87046W        W58717  11.226   7.379  11.405
87047W        W58718  43.775  30.135   0.578
87048W        W58719  17.110  40.678  12.589
87049W        W58720  39.862  26.868   5.068
87050W        W58721  17.384  17.315  10.739
87051W        W58722  26.128  17.312   3.669
87052W        W58723   0.000   6.276   2.744
87053W        W58724   3.319  42.021  10.622
87054W        W58725   1.477  22.357   9.739
87055W        W58726  43.287  40.921   4.056
87056W        W58727  20.014  27.895  13.426
87057W        W58728  37.928  16.264  11.931
87058W        W58729  14.863  39.952   0.524
87059W        W58730  31.732  18.442  12.797
87060W        W58731   5.524  11.812  12.253
87061W        W58732  29.667  37.194  11.164
87062W        W58733  21.987  17.627   4.216
87063W        W58734  30.874  10.455  10.316
87064W        W58735  21.754  31.535   2.410
87065W        W58736  43.940   6.419  13.015
87066W        W58737   6.173   0.778   0.479
87067W        W58738   9.289  21.010  13.403
87068W        W58739  33.965  26.398   2.625
87069W        W58740  35.330   8.524  13.837
87070W        W58741  10.862  38.339  12.915
87071W        W58742  29.729   8.133   3.191
87072W        W58743   5.249   6.296   2.281
87073W        W58744   3.300  27.149   0.899
87074W        W58745  43.534  35.589   2.365
87075W        W58746  27.295  29.084  14.284
87076W        W58747  15.331  11.253  10.194
87077W        W58748  33.467  26.740   1.880
87078W        W58749  19.835  40.854   1.164
87079W        W58750  14.321  30.365   4.167
87080W        W58751  22.192  28.123  14.961
87081W        W58752   7.660  35.057  10.842
87082W        W58753  30.180   5.296   3.372
87083W        W58754  34.013  23.149  10.644
87084W        W58755  44.340  17.864  13.884
87085W        W58756  42.592  22.439  10.672
87086W        W58757  24.134  13.682   0.188
87087W        W58758  13.201  15.593  10.500
87088W        W58759  44.280  25.275   4.105
87089W        W58760  19.679  39.538   2.348
87090W        W58761  11.138  15.855   2.352
87091W        W58762  35.888  32.488  14.937
87092W        W58763   7.353  17.517   0.013
87093W        W58764  19.877  38.008   3.263
87094W        W58765   9.600  30.180  11.656
87095W        W58766  41.247  17.238  12.036
87096W        W58767   8.104  25.055   1.142
87097W        W58768   4.432  10.995   0.570
87098W        W58769   1.395  27.912  13.434
87099W        W58770  30.000  31.660   1.336
87100W        W58771  20.704   9.779  12.988
87101W        W58772   6.466  40.529   1.197
87102W        W58773   3.939  22.606  13.569
87103W        W58774   5.793  40.844  11.968
87104W        W58775  19.031  37.307  13.831
87105W        W58776  36.895  13.322  13.358
87106W        W58777  21.335  25.897  10.176
87107W        W58778   6.231  17.286   2.251
87108W        W58779  21.590  19.526  14.893
87109W        W58780  22.441  32.529   3.133
87110W        W58781   7.316   0.441   2.385
87111W        W58782  19.728  34.373   2.881
87112W        W58783  43.537  29.035  14.985
87113W        W58784  40.462  38.547  11.150
87114W        W58785   9.505  27.166  13.765
87115W        W58786  36.032  35.860  12.560
87116W        W58787   9.662  22.841  14.137
87117W        W58788  17.682   8.205  11.041
87118W        W58789  10.778   5.343  11.126
87119W        W58790   1.495   2.356  12.322
87120W        W58791  18.600  19.487   2.143
87121W        W58792  28.954  14.134  13.811
87122W        W58793  18.210   3.335  11.724
87123W        W58794  20.311  31.111  12.492
87124W        W58795  16.215  31.652   4.611
87125W        W58796  30.915   6.640   1.766
87126W        W58797  25.405  21.024   1.283
87127W        W58798  27.976  20.474   0.902
87128W        W58799   3.328  13.664   1.951
87129W        W58800  16.560  24.487   2.886
87130W        W58801  23.601  38.891  14.788
87131W        W58802  23.719  14.687  13.080
87132W        W58803   0.750   9.716  11.007
87133W        W58804  21.511  23.717   5.052
87134W        W58805  41.451   4.343  11.378
87135W        W58806  10.244  27.693   5.059
87136W        W58807  31.384  22.153   3.773
87137W        W58808  15.418   9.702  11.914
87138W        W58809  38.997  11.314  14.902
87139W        W58810   6.494  40.333  13.136
87140W        W58811  15.652  21.923  13.993
87141W        W58812  30.133  36.359  11.551
87142W        W58813   2.346  17.549   4.548
87143W        W58814  25.131  32.032  14.314
87144W        W58815  34.597  14.828   1.757
87145W        W58816  43.895  40.750   1.050
87146W        W58817   0.320  30.973  14.512
87147W        W58818   5.236   0.568   0.948
87148W        W58819   8.310   4.114  14.454
87149W        W58820  15.661  33.070   2.160
87150W        W58821  14.834  44.062  12.103
87151W        W58822  26.641  38.343  14.958
87152W        W58823  23.102  18.577  11.851
87153W        W58824   6.199  17.280  10.631
87154W        W58825  37.537  41.004  14.875
87155W        W58826  37.968   3.037  13.807
87156W        W58827  34.451  32.402  12.006
87157W        W58828  24.241  21.761  13.500
87158W        W58829  30.991  44.605   2.521
87159W        W58830  18.684  29.413   3.207
87160W        W58831   0.265  11.632   2.198
87161W        W58832  36.931  39.565   2.903
87162W        W58833  13.665  40.510  14.905
87163W        W58834  18.105  13.602  10.574
87164W        W58835  25.163  35.127   1.073
87165W        W58836   2.319   7.108   3.857
87166W        W58837  30.958  34.386   2.732
87167W        W58838   1.756   2.467   0.769
87168W        W58839   4.034   2.921  12.392
87169W        W58840  28.700  26.964   2.646
87170W        W58841  19.680   6.484   5.095
87171W        W58842  18.269  32.021  13.077
87172W        W58843  22.481   5.395  11.133
87173W        W58844  38.423   5.197  11.709
87174W        W58845  34.445  38.939   2.126
87175W        W58846  20.460  26.637  14.419
87176W        W58847   6.850  43.962   0.154
87177W        W58848  15.123  29.963   4.723
87178W        W58849  18.476   8.218   4.578
87179W        W58850  25.030  26.998   0.327
87180W        W58851  30.023  13.732   3.726
87181W        W58852  37.048   9.186   0.839
87182W        W58853  27.212  44.498  14.060
87183W        W58854   7.348  16.426   0.817
87184W        W58855  12.610  23.819   0.535
87185W        W58856  33.062  23.000   0.323
87186W        W58857  13.815  27.930   3.693
87187W        W58858  12.160  12.621   0.859
87188W        W58859  39.361  36.588   1.354
87189W        W58860  22.468  44.008  11.495
87190W        W58861   7.148  17.672   3.301
87191W        W58862   6.894  27.064  11.641
87192W        W58863  42.550   8.921   4.536
87193W        W58864  12.156   9.323  14.985
87194W        W58865   5.414  15.161   4.140
87195W        W58866  22.792  11.332   1.320
87196W        W58867  18.575  35.580  14.361
87197W        W58868  34.072  22.475   0.652
87198W        W58869  43.971   7.867   1.080
87199W        W58870  37.103   2.198   0.382
87200W        W58871  40.864  18.408  11.134
87201W        W58872  34.114  28.238  11.680
87202W        W58873  44.869  27.127  13.458
87203W        W58874  31.157  15.559   2.951
87204W        W58875  17.640   7.235   2.304
87205W        W58876  41.109   3.458   4.581
87206W        W58877   6.346  23.009   1.398
87207W        W58878   9.022  14.194  12.854
87208W        W58879  42.796   9.243  11.126
87209W        W58880  36.269  26.038   0.836
87210W        W58881   0.356  41.599  14.869
87211W        W58882   8.285  23.463   4.139
87212W        W58883  32.086  15.502   4.152
87213W        W58884  24.380   4.513  10.712
87214W        W58885   2.432  39.966   3.400
87215W        W58886  12.345  35.480   1.688
87216W        W58887  29.673  32.479   1.398
87217W        W58888  26.709  14.763  12.275
87218W        W58889   0.528  18.047  12.098
87219W        W58890  26.769  37.317  14.869
87220W        W58891  30.041  44.553  13.900
87221W        W58892  34.407  28.632   4.749
87222W        W58893  18.065  20.965  12.457
87223W        W58894  26.200  17.312  11.037
87224W        W58895  31.580  34.094   3.326
87225W        W58896  14.149  23.046  12.896
87226W        W58897  32.923  11.816  13.712
87227W        W58898   6.592  24.549  13.882
87228W        W58899   5.559   0.430   0.544
87229W        W58900  15.284  10.342  10.677
87230W        W58901  25.049  42.326  10.648
87231W        W58902  43.496   7.101   3.662
87232W        W58903  19.604  17.957   0.489
87233W        W58904  29.895  24.183  13.492
87234W        W58905  18.859   3.773  14.953
87235W        W58906   1.780   2.460  13.554
87236W        W58907   5.802  33.931   3.917
87237W        W58908   4.194  20.592   0.366
87238W        W58909  22.478  43.268   1.383
87239W        W58910  28.414  11.192  13.020
87240W        W58911  42.800  30.097   0.217
87241W        W58912   0.664   7.762  13.974
87242W        W58913  39.827  37.457  11.890
87243W        W58914  34.343  30.698   1.425
87244W        W58915   4.750  23.486   2.814
87245W        W58916   1.890   0.174   2.211
87246W        W58917  29.884  15.806  13.855
87247W        W58918  32.480  30.930   4.628
87248W        W58919  38.415  10.891  14.822
87249W        W58920  39.721  28.598  12.578
87250W        W58921  14.367  23.647   0.641
87251W        W58922   6.723  33.029  14.717
87252W        W58923  44.757  26.782   5.211
87253W        W58924   7.806  21.987  11.370
87254W        W58925  28.060  21.738   0.028
87255W        W58926   6.578  18.831  11.683
87256W        W58927  40.391  33.076   3.576
87257W        W58928   4.158  32.404  10.651
87258W        W58929  33.427   6.812   1.649
87259W        W58930  15.700  20.534   3.287
87260W        W58931  21.563   8.744   1.843
87261W        W58932  31.430  12.365  13.905
87262W        W58933  15.687  44.746  13.833
87263W        W58934  22.605  19.064   4.147
87264W        W58935   6.200  37.090  13.511
87265W        W58936  11.865  29.152   4.088
87266W        W58937   9.688  27.881   0.151
87267W        W58938   8.329  31.471  14.494
87268W        W58939  43.478  35.507   3.659
87269W        W58940  22.646  31.020   4.518
87270W        W58941  11.641  32.326   0.357
87271W        W58942   7.210  25.931  10.677
87272W        W58943   2.718  27.384  13.003
87273W        W58944   9.347  15.078  11.666
87274W        W58945  11.148  18.785   0.675
87275W        W58946  27.106  35.659  12.414
87276W        W58947  44.086  12.125   4.629
87277W        W58948  32.602  44.091   2.829
87278W        W58949  40.952  20.938  13.839
87279W        W58950  13.564  18.348   4.320
87280W        W58951  35.778  20.897  11.976
87281W        W58952  12.941   1.713   4.162
87282W        W58953  26.123  29.575  14.249
87283W        W58954   8.802  16.734   4.094
87284W        W58955   3.343   9.541   0.451
87285W        W58956  40.365  17.407  11.230
87286W        W58957   0.827  36.920   4.135
87287W        W58958  27.232  27.408  11.518
87288W        W58959  30.629   7.600   3.397
87289W        W58960  30.983  27.424  11.166
87290W        W58961  29.138  26.076   1.279
87291W        W58962  18.360  24.217   2.381
87292W        W58963  26.657  11.169  11.155
87293W        W58964  11.231  29.599  11.967
87294W        W58965   8.998  24.288   4.342
87295W        W58966  16.542  32.866  14.945
87296W        W58967  24.528   5.747   4.311
87297W        W58968  28.593  27.473   2.626
87298W        W58969  19.651  25.223  13.035
87299W        W58970  32.211  42.092  12.879
87300W        W58971  38.338  31.959  14.454
87301W        W58972  20.120  21.795  11.564
87302W        W58973  39.521  27.571   1.463
87303W        W58974  43.369  11.450  12.403
87304W        W58975  26.273  28.510  12.312
87305W        W58976   4.174  43.689  12.414
87306W        W58977  25.678  21.514   1.290
87307W        W58978   6.259  19.515   1.544
87308W        W58979   6.353  22.808  14.698
87309W        W58980  41.347  18.122  13.955
87310W        W58981  31.139  39.854   0.423
87311W        W58982  36.276  13.482   0.811
87312W        W58983   6.371  38.274   4.554
87313W        W58984  30.543  29.858  11.031
87314W        W58985   2.308   5.199  10.606
87315W        W58986  19.098  44.079   3.304
87316W        W58987  16.754  36.815   2.160
87317W        W58988   4.866  28.942  12.529
87318W        W58989  17.278  24.910  12.214
87319W        W58990  26.393  25.075  11.645
87320W        W58991  32.427  23.964  10.741
87321W        W58992  16.141  42.576   5.048
87322W        W58993   1.150  43.753  11.611
87323W        W58994   1.459  29.972  12.463
87324W        W58995  13.644  10.731   2.652
87325W        W58996  13.583  39.537   4.216
87326W        W58997  34.644  38.845   4.168
87327W        W58998  35.674  37.523   0.278
87328W        W58999  12.801  30.205  12.203
87329W        W59000  41.917  34.855   3.674
87330W        W59001  28.611  22.215   1.534
87331W        W59002  10.816   9.170   0.686
87332W        W59003  29.752   1.963  12.060
87333W        W59004   0.267  25.638   4.093
87334W        W59005   8.627  34.040  11.220
87335W        W59006  30.604  37.328   2.794
87336W        W59007  18.492  43.531  12.488
87337W        W59008  43.102  40.460   1.197
87338W        W59009  10.405  15.653   0.810
87339W        W59010  44.445  12.196  12.145
87340W        W59011  24.646   1.520  12.156
87341W        W59012  12.580  25.836  12.013
87342W        W59013  25.485  21.780   2.822
87343W        W59014   5.909  12.749   1.720
87344W        W59015  22.474  26.765  12.459
87345W        W59016  14.311  35.086   2.613
87346W        W59017  41.484   8.275  13.056
87347W        W59018  36.879  35.569   4.769
87348W        W59019   2.784  18.641   3.291
87349W        W59020  42.075  28.708  13.508
87350W        W59021   3.309  34.818  10.942
87351W        W59022  19.288   0.341  13.356
87352W        W59023  36.558  20.320   0.315
87353W        W59024  30.095  10.770  13.060
87354W        W59025  31.855  13.762   3.852
87355W        W59026  11.856  12.588   1.286
87356W        W59027  34.480  29.469  13.406
87357W        W59028  40.669  28.401   0.232
87358W        W59029   2.989  36.816   1.338
87359W        W59030  11.176  36.568   0.474
87360W        W59031   2.318  10.294  12.494
87361W        W59032  17.144  21.205   4.951
87362W        W59033   2.120  35.488  13.118
87363W        W59034  35.933   8.405   0.462
87364W        W59035  44.314  32.395   4.581
87365W        W59036  22.662  17.808  11.483
87366W        W59037  33.353  41.232  10.872
87367W        W59038  22.198  28.648   4.577
87368W        W59039  36.434  19.556   2.156
87369W        W59040   6.377  18.264  12.761
87370W        W59041  29.477  39.931  14.109
87371W        W59042  17.211   9.543  11.962
87372W        W59043  25.757  33.526  14.274
87373W        W59044   8.445  24.532   2.424
87374W        W59045   4.562  35.092   4.551
87375W        W59046  11.627  20.586   2.832
87376W        W59047  14.629  16.186   2.741
87377W        W59048  39.638  12.600  14.291
87378W        W59049  24.984  31.702   1.187
87379W        W59050  29.869  21.099   2.175
87380W        W59051  24.019  14.296   0.981
87381W        W59052  38.495   8.299  14.258
87382W        W59053  29.610  36.627   4.237
87383W        W59054  35.911  33.363  14.808
87384W        W59055  43.458   4.106  12.606
87385W        W59056  28.601  18.955   4.399
87386W        W59057  34.989   9.917  13.945
87387W        W59058   1.955  16.736  14.214
87388W        W59059  27.963  36.491  12.867
87389W        W59060  41.574  20.723  14.968
87390W        W59061   9.567  37.553   3.365
87391W        W59062  17.194   1.746  12.479
87392W        W59063  17.510  39.939   1.825
87393W        W59064  26.055  41.949   0.764
87394W        W59065  24.291  26.502   4.865
87395W        W59066  16.057  15.339  14.782
87396W        W59067  28.172   8.806  10.160
87397W        W59068   6.352  26.973   4.578
87398W        W59069  34.985  26.457   0.063
87399W        W59070  21.253  37.570  14.921
87400W        W59071  27.667   3.774   4.700
87401W        W59072  43.996   5.560  11.639
87402W        W59073  20.675  30.516   4.574
87403W        W59074  14.401  39.612  12.602
87404W        W59075  15.313  13.913  13.934
87405W        W59076  12.179  31.968  13.074
87406W        W59077   9.075  33.536   1.181
87407W        W59078  44.520  31.980  14.584
87408W        W59079  28.481  34.969  12.446
87409W        W59080  20.664  14.541   0.376
87410W        W59081  30.906   3.494  13.747
87411W        W59082  26.671  23.624  14.485
87412W        W59083  21.031   4.865  10.664
87413W        W59084  21.312  21.506   2.075
87414W        W59085   0.612  15.358  14.304
87415W        W59086  35.038  10.119   3.836
87416W        W59087  39.530  23.068   4.724
87417W        W59088  23.173   6.830  13.004
87418W        W59089  29.970  43.479  13.974
87419W        W59090   7.456  33.410  14.546
87420W        W59091   0.048  36.345   0.777
87421W        W59092  39.067  44.039   0.828
87422W        W59093  41.051  28.566   4.335
87423W        W59094  35.985   9.737  14.823
87424W        W59095  23.945  39.620  12.963
87425W        W59096  27.495  16.295   4.897
87426W        W59097  38.268  37.065  14.427
87427W        W59098  30.988  36.568  13.872
87428W        W59099   4.409   3.824  10.926
87429W        W59100  41.847  16.311  14.500
87430W        W59101   9.169  27.137   4.614
87431W        W59102  27.261  29.519   4.675
87432W        W59103  22.642   3.458  11.587
87433W        W59104  18.176   9.219   1.845
87434W        W59105  35.491  32.363   4.196
87435W        W59106  35.377  29.896   0.775
87436W        W59107  43.882  20.985   4.748
87437W        W59108  26.107   4.993  11.646
87438W        W59109  41.769  11.404   0.703
87439W        W59110  24.340   4.801   4.629
87440W        W59111  15.196  15.130  14.774
87441W        W59112  16.213   6.272  10.220
87442W        W59113  34.017   4.919  13.016
87443W        W59114  30.206  31.527  12.194
87444W        W59115   6.396   4.381  12.530
87445W        W59116  29.698  13.388  13.036
87446W        W59117  13.204  15.103   2.605
87447W        W59118  24.037  34.315  10.218
87448W        W59119  24.490  15.696  12.342
87449W        W59120  14.882  29.540  13.992
87450W        W59121   7.771  32.451   2.337
87451W        W59122  20.424  17.006  11.087
87452W        W59123   9.844  35.147   4.166
87453W        W59124  37.516   4.885   4.272
87454W        W59125   2.017  34.553  11.925
87455W        W59126  25.127  30.298  10.998
87456W        W59127  13.160  11.093  14.262
87457W        W59128  19.532   1.699  14.395
87458W        W59129  10.830  41.376   1.789
87459W        W59130  38.971  28.602  12.088
87460W        W59131   4.390  10.801  11.553
87461W        W59132  27.851   0.909  10.643
87462W        W59133   2.897  43.780   4.778
87463W        W59134  16.217  19.044   0.946
87464W        W59135  30.454   0.989   3.288
87465W        W59136  19.314  11.143   5.134
87466W        W59137  11.711  16.797  12.468
87467W        W59138  41.734   2.480  14.449
87468W        W59139   4.515  42.374  11.152
87469W        W59140  19.764  28.242   3.288
87470W        W59141   0.189  29.069   0.445
87471W        W59142  38.693   6.119  12.483
87472W        W59143  12.666  11.252  11.030
87473W        W59144  39.455  44.008  12.111
87474W        W59145  27.613  12.805  12.457
87475W        W59146  31.447  13.721   1.995
87476W        W59147   2.263   0.537   0.327
87477W        W59148  35.497   3.190   1.715
87478W        W59149  27.552  29.938   2.915
87479W        W59150  28.618   8.980   3.264
87480W        W59151  38.696   9.184   4.580
87481W        W59152  18.423  12.192   4.353
87482W        W59153  39.866   0.474   1.353
87483W        W59154   5.478  15.201  13.373
87484W        W59155  22.749  19.006   3.636
87485W        W59156   1.998  34.495  12.443
87486W        W59157  30.125  43.407   0.426
87487W        W59158  13.020  37.546   0.267
87488W        W59159  15.145  39.583  13.561
87489W        W59160  13.723  36.951   2.173
87490W        W59161  35.935  16.277  10.646
87491W        W59162  38.611  25.417  14.916
87492W        W59163   9.702  16.866  14.549
87493W        W59164  23.556  28.773   1.498
87494W        W59165  19.268  39.486   0.035
87495W        W59166   5.722  39.287   1.581
87496W        W59167   2.574  39.462   2.327
87497W        W59168  36.585  29.402  12.993
87498W        W59169  41.807  19.254  14.274
87499W        W59170  33.859  21.646  12.185
87500W        W59171  12.181  23.911  12.855
87501W        W59172   3.343  41.592  14.024
87502W        W59173  19.689  29.930  14.568
87503W        W59174   2.413  21.787   3.371
87504W        W59175  24.095  34.814   3.211
87505W        W59176  27.948   1.457  10.765
87506W        W59177   8.210  34.055  12.979
87507W        W59178  36.996   7.253  10.859
87508W        W59179   5.311  34.527  13.001
87509W        W59180  42.238   8.819  12.050
87510W        W59181   7.147  44.071  13.883
87511W        W59182  15.371   1.171  14.933
87512W        W59183  39.430  39.648  12.559
87513W        W59184  30.562  13.643   5.003
87514W        W59185  25.087  22.606   3.118
87515W        W59186  39.466  38.778  13.685
87516W        W59187   2.246  44.827  13.780
87517W        W59188  38.372  37.384  13.365
87518W        W59189  29.663  43.089  10.397
87519W        W59190  20.597  20.140  10.376
87520W        W59191  29.559  10.536  12.419
87521W        W59192  14.583   8.788   1.453
87522W        W59193   3.063  25.709   4.609
87523W        W59194  34.186  33.475   4.513
87524W        W59195  43.692  40.109  11.107
87525W        W59196  44.847  16.059   4.550
87526W        W59197  33.583  43.718   1.813
87527W        W59198  42.657  19.208  14.827
87528W        W59199  14.260  36.389  14.841
87529W        W59200  35.000  25.298  13.277
87530W        W59201  39.344   1.514   2.069
87531W        W59202  36.030   3.951  11.311
87532W        W59203   6.871  35.337   2.248
87533W        W59204   6.385  40.767  11.224
87534W        W59205  21.738  27.945  13.803
87535W        W59206  28.733  25.698  12.373
87536W        W59207  41.817  13.619   5.017
87537W        W59208  15.364  22.259  11.192
87538W        W59209  30.998  31.246  12.364
87539W        W59210  20.397  35.069   2.800
87540W        W59211  20.466  22.439   0.870
87541W        W59212  13.928   8.871   2.257
87542W        W59213  27.082  32.878  14.056
87543W        W59214  35.989  14.576   4.564
87544W        W59215  29.647  44.517  11.598
87545W        W59216  34.338  34.984  12.130
87546W        W59217   9.394  28.610  11.445
87547W        W59218  24.059  35.584  13.071
87548W        W59219  28.053  31.986  13.124
87549W        W59220  34.500  32.812  11.718
87550W        W59221  28.045  42.657   4.938
87551W        W59222  41.591   7.431  11.548
87552W        W59223   8.670  15.268   4.407
87553W        W59224  39.889  18.473   0.335
87554W        W59225  12.531  44.183   0.490
87555W        W59226  37.394   3.293  14.852
87556W        W59227   6.210  44.534  11.364
87557W        W59228  34.747   0.487  11.654
87558W        W59229   4.806   7.086   1.210
87559W        W59230  41.027  15.856   3.769
87560W        W59231   7.154  15.313  14.982
87561W        W59232  36.530   0.313  14.410
87562W        W59233   5.312  42.605   0.511
87563W        W59234  13.401  12.317   1.674
87564W        W59235  37.310  43.181  11.865
87565W        W59236  28.218  12.381   1.872
87566W        W59237  35.760   9.376  11.212
87567W        W59238  35.508   8.339  13.317
87568W        W59239   6.651  29.346   0.448
87569W        W59240  10.444  35.223  13.028
87570W        W59241   6.647  44.200   1.505
87571W        W59242  31.521  17.126  10.336
87572W        W59243  35.229  23.299   3.133
87573W        W59244  20.465   4.766  11.875
87574W        W59245  13.047   2.183  12.996
87575W        W59246  16.643  24.955   0.908
87576W        W59247  18.930  40.824   0.828
87577W        W59248   3.322  22.690  10.418
87578W        W59249  38.643   4.689   4.673
87579W        W59250   2.749  40.965  10.724
87580W        W59251   9.958  25.721  13.792
87581W        W59252  12.770   1.922  11.212
87582W        W59253  37.151  33.923   0.876
87583W        W59254  36.046  31.498   3.203
87584W        W59255  35.630  33.399   4.385
87585W        W59256  16.608   6.178   3.857
87586W        W59257  19.531  28.684   4.549
87587W        W59258  38.979  30.725   1.244
87588W        W59259  36.822  28.935  14.733
87589W        W59260  21.717  28.027   1.745
87590W        W59261  42.852  17.310   3.237
87591W        W59262  21.628  32.581   4.682
87592W        W59263  14.657  29.847  12.557
87593W        W59264   4.808  27.271   2.755
87594W        W59265  29.237  41.016   1.358
87595W        W59266  34.267  33.983   4.605
87596W        W59267  10.613  13.730   4.616
87597W        W59268  27.670  32.593  14.823
87598W        W59269  42.022  11.403   3.726
87599W        W59270   7.817  29.858   3.530
87600W        W59271  32.655  43.401   3.090
87601W        W59272  18.615  32.142  11.639
87602W        W59273  42.410  33.844   1.833
87603W        W59274  43.303  21.752  10.292
87604W        W59275  30.959  44.769  12.665
87605W        W59276  36.036  42.381   1.309
87606W        W59277   5.830   1.906  11.307
87607W        W59278  27.514  35.107   3.256
87608W        W59279  13.261  27.680   4.221
87609W        W59280   2.881  43.703  13.011
87610W        W59281  11.615  19.031  12.902
87611W        W59282   7.705   1.475  12.969
87612W        W59283  16.685  26.950  13.083
87613W        W59284  19.026  12.351   1.309
87614W        W59285  12.343  41.316  14.517
87615W        W59286  20.320  15.853   1.755
87616W        W59287  22.744  38.155  12.078
87617W        W59288  10.744  38.826  13.203
87618W        W59289  14.737  11.714   3.227
87619W        W59290  35.489   4.811   0.801
87620W        W59291  30.993  11.143  12.096
87621W        W59292  40.385  13.743   4.748
87622W        W59293  41.835  24.565  12.781
87623W        W59294  42.467  44.186  10.639
87624W        W59295   9.926   7.273   0.010
87625W        W59296  44.399  21.026  11.436
87626W        W59297  16.486  10.856   3.281
87627W        W59298  26.618  19.184   1.853
87628W        W59299   1.957  23.810  11.818
87629W        W59300  15.695  39.623  11.550
87630W        W59301  30.977  33.538  14.116
87631W        W59302  41.411  24.518   2.948
87632W        W59303  21.302  26.640   4.603
87633W        W59304  25.585  26.568  14.398
87634W        W59305  33.347  27.941  11.104
87635W        W59306   9.753  11.888   0.261
87636W        W59307   5.292  21.513   3.763
87637W        W59308   5.339  35.481   4.924
87638W        W59309  25.620  20.149   2.013
87639W        W59310  41.825   4.927  13.805
87640W        W59311   2.965   1.347  12.945
87641W        W59312  10.596  19.621   1.345
87642W        W59313  23.497  20.411  12.981
87643W        W59314  43.403  31.431   3.688
87644W        W59315  30.094  22.280   4.737
87645W        W59316  40.074   6.898  13.117
87646W        W59317   5.407  39.678   0.463
87647W        W59318  21.395   7.535  14.821
87648W        W59319   4.735  25.751  13.945
87649W        W59320  41.404  41.273   4.723
87650W        W59321  33.593  37.741  14.770
87651W        W59322   3.887  29.543  11.701
87652W        W59323  22.385  35.286  14.123
87653W        W59324   9.207  34.966  11.986
87654W        W59325  31.506  28.621   3.871
87655W        W59326  17.264  27.415   4.071
87656W        W59327  31.256  42.463   4.942
87657W        W59328  28.470  31.535   1.804
87658W        W59329  18.520   3.218   0.971
87659W        W59330  18.395  17.228   0.934
87660W        W59331  40.871  17.294   3.196
87661W        W59332  29.537  40.730  14.368
87662W        W59333  41.369  12.091  12.968
87663W        W59334  16.604  41.124  11.325
87664W        W59335  43.169  15.169   0.446
87665W        W59336  40.823  34.617   0.873
87666W        W59337  21.751   7.156  12.554
87667W        W59338  40.715  23.969  14.048
87668W        W59339  27.663  33.739  10.679
87669W        W59340  26.735  19.934  10.661
87670W        W59341  21.052  42.503  11.166
87671W        W59342  38.573  38.894  13.502
87672W        W59343  31.861  20.932   4.994
87673W        W59344   7.827  41.431   2.406
87674W        W59345   3.629  22.955  12.369
87675W        W59346  32.311  44.524   4.973
87676W        W59347  43.207  35.823   1.947
87677W        W59348  40.128   8.344   3.179
87678W        W59349  40.336  32.825   1.237
87679W        W59350  10.831  33.115  11.467
87680W        W59351  23.291  29.881   2.812
87681W        W59352  15.175  30.014   1.318
87682W        W59353  26.972  20.431  13.381
87683W        W59354  43.347   1.438  12.472
87684W        W59355  44.773  11.774  12.167
87685W        W59356  23.503  43.272  11.967
87686W        W59357  23.815  31.375  14.623
87687W        W59358  21.197  35.119  13.401
87688W        W59359  35.325  12.643  11.978
87689W        W59360   0.370  30.637   1.372
87690W        W59361  21.154   7.324  10.871
87691W        W59362  26.269  29.722   3.724
87692W        W59363  27.445   0.988   1.347
87693W        W59364  31.441  34.900   3.399
87694W        W59365  41.503  12.676   3.884
87695W        W59366   1.804  17.216  10.729
87696W        W59367  32.026  23.663  10.628
87697W        W59368  22.892  14.698   3.499
87698W        W59369  16.565  26.262  11.413
87699W        W59370  26.422  41.473   0.170
87700W        W59371  40.496  20.214  14.774
87701W        W59372  19.461  36.789   2.774
87702W        W59373  40.967  26.917  14.204
87703W        W59374  12.405   9.234  12.058
87704W        W59375  41.815  38.875   3.585
87705W        W59376  33.278  33.395   4.071
87706W        W59377  27.682   7.121   3.364
87707W        W59378  43.747  22.204   4.308
87708W        W59379  28.581  37.160  14.755
87709W        W59380  22.232  24.078  14.517
87710W        W59381  23.219  16.341  13.679
87711W        W59382  13.084  24.643   4.925
87712W        W59383  37.776  31.569   0.722
87713W        W59384  14.157  39.556   1.150
87714W        W59385  41.133  41.561  12.855
87715W        W59386  42.515  14.711   1.240
87716W        W59387   0.705  41.282  13.333
87717W        W59388  22.664   7.719   3.272
87718W        W59389  10.159   7.799  13.037
87719W        W59390  13.096  25.967  14.921
87720W        W59391  10.925   4.679  12.531
87721W        W59392  17.163  37.153  10.992
87722W        W59393  44.857  39.922  12.942
87723W        W59394  34.175  38.469  11.885
87724W        W59395   9.441   7.950  12.381
87725W        W59396   4.422  41.161   0.882
87726W        W59397  44.505  37.974   0.115
87727W        W59398  15.415   7.560  11.496
87728W        W59399  23.221  29.270  12.460
87729W        W59400  26.034  15.248  14.693
87730W        W59401  10.478  11.492  11.568
87731W        W59402  25.610  11.533   1.336
87732W        W59403  38.329  26.625  11.054
87733W        W59404  36.699  41.356  12.911
87734W        W59405  14.873   9.462  10.719
87735W        W59406  25.483  28.184  13.406
87736W        W59407  32.064  35.861  13.611
87737W        W59408   8.884  19.388  11.096
87738W        W59409  31.717  38.346  12.465
87739W        W59410  42.496  36.146   3.175
87740W        W59411   1.447  29.470   3.842
87741W        W59412  39.361   4.360  13.827
87742W        W59413  36.986   0.586  14.436
87743W        W59414  19.504  24.024   2.741
87744W        W59415   6.780  42.241  14.307
87745W        W59416  20.624  39.885  12.058
87746W        W59417   3.399  35.665   0.480
87747W        W59418  40.311   9.332   1.438
87748W        W59419  42.484  19.589   2.465
87749W        W59420   9.657  40.327   0.943
87750W        W59421  10.002  42.043   2.201
87751W        W59422  10.342  17.110  14.064
87752W        W59423  43.030  30.056  12.206
87753W        W59424  24.506  32.931   1.295
87754W        W59425  30.973  20.724   2.818
87755W        W59426  15.669  25.721   3.418
87756W        W59427  25.068  44.610   4.703
87757W        W59428  22.698  39.501   4.613
87758W        W59429  29.654  11.903   0.781
87759W        W59430  20.000  17.831   4.144
87760W        W59431   3.649  39.898  10.642
87761W        W59432  23.691  43.859   3.348
87762W        W59433  20.209  27.934   0.459
87763W        W59434   4.893   0.285  10.112
87764W        W59435  16.185  26.021  10.738
87765W        W59436  39.254  13.698  11.686
87766W        W59437  12.232  22.283   2.344
87767W        W59438  29.248  44.326   4.962
87768W        W59439  38.244  12.274   3.396
87769W        W59440  11.597  39.226  11.972
87770W        W59441  36.815  36.309  11.929
87771W        W59442   8.753  41.512   2.469
87772W        W59443  39.891  32.793   4.720
87773W        W59444  36.282   4.293  14.979
87774W        W59445   3.855  43.969   0.896
87775W        W59446  25.180  23.651  10.726
87776W        W59447   3.934   1.329   1.008
87777W        W59448   1.878  39.518   1.229
87778W        W59449   0.345  17.197  11.173
87779W        W59450  27.556  34.426   0.341
87780W        W59451  28.528   4.468   2.848
87781W        W59452  26.611  35.102  14.528
87782W        W59453  34.590   8.680   0.879
87783W        W59454  11.574   3.863  10.675
87784W        W59455  20.903  36.192   4.047
87785W        W59456  15.184  44.613   2.480
87786W        W59457  17.763   0.900  13.513
87787W        W59458   5.816  36.936   3.394
87788W        W59459  14.775  32.692   4.362
87789W        W59460  35.252  20.325   3.892
87790W        W59461  33.482  31.817   2.886
87791W        W59462  42.460   4.590   1.161
87792W        W59463  35.082  19.663   3.144
87793W        W59464  11.311  28.524   3.038
87794W        W59465  22.917  34.113  12.460
87795W        W59466   1.854   7.815  13.407
87796W        W59467  25.631  10.159   3.687
87797W        W59468  43.780  43.719   0.410
87798W        W59469   3.868  38.250   4.393
87799W        W59470  17.466  20.081   0.815
87800W        W59471   3.410  15.086   3.590
87801W        W59472  43.119  23.993   9.754
87802W        W59473  33.064  19.867  14.490
87803W        W59474   3.885  20.422   5.486
87804W        W59475  37.042  36.624   2.401
87805W        W59476  11.540  15.164  12.993
87806W        W59477  25.520  27.025  13.882
87807W        W59478  24.265  24.997   0.466
87808W        W59479  16.127   9.823  10.673
87809W        W59480   0.372  36.093  12.947
87810W        W59481  14.911  13.760  12.257
87811W        W59482  13.883  14.613  13.982
87812W        W59483  30.920  24.616   3.351
87813W        W59484  30.082  37.570  13.993
87814W        W59485  13.272  33.013   0.276
87815W        W59486   8.319  37.337  13.821
87816W        W59487  35.122   1.533  13.047
87817W        W59488  16.637  37.224   0.854
87818W        W59489  15.253   1.738   3.347
87819W        W59490  36.781   2.052   2.857
87820W        W59491  21.771  43.414  14.034
87821W        W59492  37.992  20.548   0.396
87822W        W59493  32.806  27.557   4.468
87823W        W59494  18.081  31.497  12.654
87824W        W59495   9.896   5.415   2.832
87825W        W59496  39.295   1.968   4.091
87826W        W59497  25.942  30.977   3.260
87827W        W59498  15.660  43.917   3.765
87828W        W59499   2.575  23.749   4.530
87829W        W59500  11.876   2.417   4.730
87830W        W59501  37.487  24.512   1.456
87831W        W59502  41.763  41.455  10.457
87832W        W59503   1.723  33.338   3.229
87833W        W59504  28.722  20.744  11.428
87834W        W59505  32.204  29.063  13.504
87835W        W59506  33.254  13.277   5.213
87836W        W59507   4.911  39.545   0.511
87837W        W59508   2.107  38.540   1.379
87838W        W59509   4.605  36.811   3.934
87839W        W59510   9.758   0.998   2.646
87840W        W59511   3.717  15.630   4.655
87841W        W59512  41.038  28.176   2.234
87842W        W59513  39.482  21.073   4.597
87843W        W59514  10.817   2.897   2.711
87844W        W59515  23.061  10.366   4.579
87845W        W59516  22.388   0.808   3.158
87846W        W59517   5.645  37.888  14.264
87847W        W59518  20.518  35.431   3.829
87848W        W59519   2.077  36.628  11.646
87849W        W59520   1.999  42.021  12.802
87850W        W59521  27.086   0.815   2.581
87851W        W59522  30.990  16.062  13.490
87852W        W59523  11.150  39.611  14.867
87853W        W59524  36.981   3.838  10.892
87854W        W59525   0.006  11.705  11.697
87855W        W59526  16.868  36.775   0.908
87856W        W59527  35.975  35.563  13.007
87857W        W59528  37.915  22.050  10.627
87858W        W59529  36.479  30.681   4.455
87859W        W59530  20.351  27.521  13.539
87860W        W59531  18.272  39.805   0.390
87861W        W59532  23.406  40.976  10.126
87862W        W59533  18.004  34.474   1.488
87863W        W59534   5.991  31.995  14.707
87864W        W59535   6.692  26.266  12.872
87865W        W59536   9.881  42.057  11.645
87866W        W59537  22.327   1.813  13.353
87867W        W59538  25.546  18.060   2.665
87868W        W59539  21.697  38.148   4.515
87869W        W59540   7.675  23.006  11.718
87870W        W59541  24.082  30.119  13.619
87871W        W59542  34.012  36.877   4.693
87872W        W59543  40.258  30.391   4.131
87873W        W59544  42.892  35.568   0.368
87874W        W59545  42.036  11.368  14.795
87875W        W59546   4.404  30.618   3.262
87876W        W59547  37.992  12.614   1.576
87877W        W59548  25.061  22.144   3.401
87878W        W59549   2.867  26.436   0.912
87879W        W59550  30.049   8.691   3.204
87880W        W59551   3.347  28.935   3.586
87881W        W59552  29.959   7.959  13.050
87882W        W59553  38.751   2.328   2.409
87883W        W59554   4.223   4.805  11.795
87884W        W59555  35.583   2.235  11.610
87885W        W59556   9.556  32.969   1.756
87886W        W59557  11.759  28.781  11.231
87887W        W59558   7.771  37.415  12.189
87888W        W59559  24.283  31.084  11.551
87889W        W59560  37.094  21.145  11.300
87890W        W59561  44.854  11.314   2.261
87891W        W59562  23.038  37.133   3.794
87892W        W59563  31.182  30.446   2.328
87893W        W59564  39.438  25.637   0.523
87894W        W59565  10.024   2.666   1.002
87895W        W59566   1.032  42.436   4.256
87896W        W59567  10.196  38.016   3.688
87897W        W59568   7.819  28.882  12.888
87898W        W59569   4.673  10.716   3.627
87899W        W59570  34.435  22.769  11.119
87900W        W59571  43.066   9.047   4.598
87901W        W59572  25.463  44.302   1.375
87902W        W59573  32.089  27.846  11.190
87903W        W59574  28.718   8.668   2.242
87904W        W59575  13.322  30.992  12.029
87905W        W59576  15.277  39.883   0.216
87906W        W59577  15.059  31.211  13.090
87907W        W59578   1.849   7.468  11.204
87908W        W59579  41.428  25.712  10.691
87909W        W59580  41.655  38.382   3.759
87910W        W59581  42.891  24.664   5.017
87911W        W59582  25.704  34.061  13.955
87912W        W59583  18.371  20.982   4.296
87913W        W59584  11.193  36.554  11.740
87914W        W59585  41.107   4.720  14.941
87915W        W59586   6.938  23.645   4.097
87916W        W59587  43.407  13.905   0.687
87917W        W59588  32.747  30.661  13.159
87918W        W59589  12.959   8.359   4.617
87919W        W59590   7.971   5.910   2.744
87920W        W59591  26.674  21.649  13.805
87921W        W59592   2.804  23.961   4.147
87922W        W59593  36.868  17.046   4.338
87923W        W59594   6.698  27.472  14.000
87924W        W59595  40.875  22.216   2.294
87925W        W59596   8.443  25.551   0.303
87926W        W59597  10.847   9.772  13.885
87927W        W59598  12.588   5.257   1.930
87928W        W59599  30.418  11.720   4.740
87929W        W59600  36.707  16.559   3.773
87930W        W59601  29.643  34.955   5.034
87931W        W59602  10.324  12.746  14.450
87932W        W59603  15.359  24.236  14.306
87933W        W59604  37.043   0.988  13.533
87934W        W59605  17.737  21.175  13.655
87935W        W59606  32.098  16.055   0.966
87936W        W59607   7.239  17.828  11.641
87937W        W59608  18.800  42.279  12.842
87938W        W59609  19.248   0.988   3.650
87939W        W59610  26.656  21.954   3.567
87940W        W59611  10.105  35.006  12.010
87941W        W59612  42.503  14.279  13.533
87942W        W59613  25.641  32.887  10.730
87943W        W59614  20.769  23.276  10.606
87944W        W59615  40.993  34.498  11.540
87945W        W59616  16.102  11.691  10.746
87946W        W59617  34.830   0.485  13.810
87947W        W59618  23.694   4.786  10.855
87948W        W59619  35.600  41.922  13.941
87949W        W59620  43.300  35.649  12.869
87950W        W59621   3.852  25.122  14.772
87951W        W59622  19.199  33.970  10.745
87952W        W59623   0.268   6.893  10.769
87953W        W59624  28.021  29.504   4.182
87954W        W59625  22.726  30.418   3.676
87955W        W59626  42.705   5.638   3.656
87956W        W59627  34.644  21.613   3.229
87957W        W59628  23.064  33.802  12.044
87958W        W59629  33.894  35.504   2.260
87959W        W59630  18.174  26.629   3.121
87960W        W59631  19.394  21.963   2.248
87961W        W59632  34.508  20.354  12.375
87962W        W59633  26.354  42.831   1.944
87963W        W59634  37.073  35.681  12.616
87964W        W59635  37.299  23.279   0.806
87965W        W59636  18.505  31.718  11.977
87966W        W59637  15.653  38.258   2.804
87967W        W59638   3.479  10.564  11.617
87968W        W59639  41.407  27.260  12.951
87969W        W59640  28.485  14.793  13.662
87970W        W59641  40.995  12.739   2.074
87971W        W59642  31.984   7.891  11.024
87972W        W59643  32.788   2.826  14.010
87973W        W59644  29.939   7.738   4.962
87974W        W59645  11.122   6.392  14.748
87975W        W59646   7.376  23.232  12.991
87976W        W59647  42.941  14.929  14.980
87977W        W59648  37.347  34.401   2.962
87978W        W59649  43.947  20.013  13.362
87979W        W59650   0.271  20.451  12.044
87980W        W59651  38.982  26.534   3.249
87981W        W59652  26.372  36.202  14.256
87982W        W59653   1.948  30.846   3.758
87983W        W59654  27.656   2.025  11.452
87984W        W59655  43.030  37.467  10.192
87985W        W59656   5.641  38.575  13.062
87986W        W59657  18.870  17.948  11.441
87987W        W59658   8.673   0.128  10.667
87988W        W59659  32.268  41.508   4.261
87989W        W59660  14.419   9.740  10.750
87990W        W59661   7.794  30.238  10.461
87991W        W59662  12.601  42.928  10.696
87992W        W59663   2.428  23.560   4.959
87993W        W59664   9.930  42.777   0.875
87994W        W59665  40.324  37.776  12.953
87995W        W59666  19.343  28.748  13.825
87996W        W59667  16.684  16.184  10.311
87997W        W59668   6.471  19.083   1.347
87998W        W59669  42.967  28.674   3.851
87999W        W59670  19.027   9.717   4.235
88000W        W59671   8.943  19.592   0.740
88001W        W59672  17.265  44.502  14.844
88002W        W59673  12.247  38.850   2.203
88003W        W59674   1.463  21.599  11.425
88004W        W59675  29.863  22.946  13.935
88005W        W59676  35.974  42.129  11.119
88006W        W59677  23.637  21.337  12.650
88007W        W59678   8.016  34.415  11.611
88008W        W59679   2.984  10.287   2.610
88009W        W59680  33.841  19.309   0.269
88010W        W59681  26.377   6.270   3.164
88011W        W59682  36.101  35.041   2.708
88012W        W59683  20.523  26.039   5.118
88013W        W59684  41.949  40.241   2.352
88014W        W59685   4.504  11.382  13.579
88015W        W59686  39.950  12.870  14.950
88016W        W59687  23.608  42.785   0.752
88017W        W59688  10.924  42.236  12.504
88018W        W59689   8.096  40.436   0.080
88019W        W59690  26.927  12.965   3.648
88020W        W59691  12.337  21.813  13.982
88021W        W59692   0.464  12.753   5.443
88022W        W59693  41.988  11.160   0.287
88023W        W59694  30.726  12.602   9.935
88024W        W59695   2.736  32.700   0.669
88025W        W59696  37.879  19.698   1.846
88026W        W59697  15.543  39.394   3.078
88027W        W59698  31.801  17.666   4.086
88028W        W59699  10.404  35.905   1.371
88029W        W59700  39.379   8.697  11.495
88030W        W59701  28.132   9.889   3.344
88031W        W59702  34.292  41.844   0.434
88032W        W59703  11.505  37.338   4.556
88033W        W59704  44.840  12.143   0.527
88034W        W59705  13.276  11.873  14.873
88035W        W59706   4.830  24.490  12.397
88036W        W59707  44.419   0.240   0.076
88037W        W59708  30.283   8.236   1.393
88038W        W59709  26.101  31.242   2.730
88039W        W59710  17.808  15.933   1.879
88040W        W59711  27.087  33.627   1.549
88041W        W59712   7.898  31.789  14.577
88042W        W59713  37.194  38.104  12.271
88043W        W59714  10.582  10.855  11.489
88044W        W59715  14.690   2.780  14.125
88045W        W59716  38.415  16.373   0.547
88046W        W59717  21.759  33.517  12.438
88047W        W59718  18.427   8.850  11.140
88048W        W59719  10.122  38.240   5.014
88049W        W59720  24.511  24.137  13.793
88050W        W59721  23.370  33.125  12.529
88051W        W59722  25.207  16.172   2.708
88052W        W59723  38.689  22.654   4.514
88053W        W59724  43.029  12.825   4.047
88054W        W59725   5.889  38.933  14.918
88055W        W59726  39.109  24.985  13.085
88056W        W59727   2.777  43.027   0.900
88057W        W59728  20.197  27.408   3.854
88058W        W59729  12.536  15.245  14.943
88059W        W59730  32.105   3.398  12.088
88060W        W59731   7.248  41.386  11.646
88061W        W59732   3.621  10.672   3.584
88062W        W59733  26.719  26.557   3.128
88063W        W59734  43.779   2.006   2.249
88064W        W59735  11.267  27.568   2.857
88065W        W59736  27.124  42.227   2.283
88066W        W59737  22.693  10.277  12.023
88067W        W59738  38.701  42.442   2.676
88068W        W59739   2.435   8.144  10.743
88069W        W59740  11.655  25.957   3.661
88070W        W59741  40.183  16.216  11.095
88071W        W59742  18.682  11.659   2.440
88072W        W59743  36.068  35.902   3.248
88073W        W59744  42.849  21.320  13.859
88074W        W59745  44.223  20.650   0.936
88075W        W59746  38.573  18.772  12.435
88076W        W59747   9.612  38.054   0.527
88077W        W59748  39.437  10.292   4.959
88078W        W59749  27.475  13.196   1.255
88079W        W59750   2.288  43.740  14.440
88080W        W59751  18.608  39.831   1.456
88081W        W59752  18.403  30.077   1.886
88082W        W59753  32.854   2.521  14.447
88083W        W59754  21.330  32.003   0.407
88084W        W59755  13.028  29.206  14.570
88085W        W59756  17.882   1.378   1.885
88086W        W59757  21.122  24.281   4.265
88087W        W59758  23.497  10.648   2.395
88088W        W59759   6.471  35.096   0.839
88089W        W59760  37.376  39.483   3.192
88090W        W59761  24.222   5.965  12.518
88091W        W59762  14.600  22.099   3.807
88092W        W59763  11.412   9.312   2.721
88093W        W59764  19.035  37.485   4.214
88094W        W59765  15.515  20.242   2.420
88095W        W59766  24.184  20.296  14.928
88096W        W59767  44.457  22.235  14.415
88097W        W59768  39.566  32.120   0.446
88098W        W59769   3.212  18.442  12.785
88099W        W59770   3.460  16.087   5.043
88100W        W59771  11.710   5.464  11.179
88101W        W59772   1.867  10.031   4.595
88102W        W59773  16.603  27.612  14.841
88103W        W59774  13.735  11.779  11.092
88104W        W59775  35.453   9.337  13.419
88105W        W59776  20.511  35.831  12.042
88106W        W59777   8.801  24.502   3.581
88107W        W59778  19.251  26.710  14.899
88108W        W59779  33.420  18.101  12.070
88109W        W59780  12.390  12.245  11.339
88110W        W59781  25.684   0.457   0.777
88111W        W59782  40.170  32.647   3.263
88112W        W59783  10.240  34.759  14.820
88113W        W59784  42.749  24.663  11.170
88114W        W59785   8.309  11.178   3.637
88115W        W59786   3.402   6.109   1.668
88116W        W59787  15.986   2.221  10.169
88117W        W59788   5.607  42.099  14.856
88118W        W59789  31.447   6.152  12.119
88119W        W59790  11.795  18.709  12.516
88120W        W59791  11.289   7.684  12.687
88121W        W59792  11.351  12.869   0.195
88122W        W59793  32.051  26.676   4.595
88123W        W59794  13.591  40.097   0.750
88124W        W59795  23.387  16.305  14.218
88125W        W59796   5.243  43.228  10.679
88126W        W59797  24.160  43.550   4.670
88127W        W59798  28.435  16.628  13.502
88128W        W59799  29.158  23.851  14.297
88129W        W59800  18.576   8.424   2.851
88130W        W59801  27.844  32.118   5.126
88131W        W59802  42.315   7.486  14.382
88132W        W59803  12.990  24.539  11.671
88133W        W59804  44.927   0.872   3.343
88134W        W59805  12.090  28.669   1.098
88135W        W59806  27.503  29.686   3.393
88136W        W59807  37.816   3.528  11.206
88137W        W59808  13.127   5.884  11.508
88138W        W59809   8.341   9.952  13.014
88139W        W59810  14.948  37.875   1.354
88140W        W59811   9.573  17.600   3.698
88141W        W59812  33.478  35.307  13.455
88142W        W59813   0.310  36.404  12.536
88143W        W59814  44.527  29.595   4.611
88144W        W59815  32.651  44.489   1.889
88145W        W59816   3.924   7.940   1.867
88146W        W59817  12.677  36.653   4.129
88147W        W59818  33.117  34.362  10.324
88148W        W59819  30.671   7.821   2.229
88149W        W59820  10.593  42.855   0.259
88150W        W59821  43.470  18.619  12.749
88151W        W59822   7.797   5.860  10.419
88152W        W59823  41.914  15.598   0.774
88153W        W59824   2.738  13.128   0.037
88154W        W59825  29.396   0.792   4.061
88155W        W59826  35.493  40.419  10.686
88156W        W59827  23.645   5.764   3.938
88157W        W59828  44.805  43.333   4.662
88158W        W59829  36.080  37.140   2.562
88159W        W59830  41.036  38.935  11.640
88160W        W59831  16.559   9.886  13.920
88161W        W59832   9.641  42.157  14.456
88162W        W59833  27.525  29.963   3.836
88163W        W59834  39.901  29.609  12.180
88164W        W59835  17.580  44.882  11.710
88165W        W59836  20.484  10.440  13.126
88166W        W59837  41.338  21.985   2.396
88167W        W59838  27.742  20.268  12.019
88168W        W59839  19.234  24.967   1.669
88169W        W59840  32.453   3.384  10.809
88170W        W59841  19.417  37.003   1.383
88171W        W59842  43.767   7.392   0.395
88172W        W59843  31.839  23.011   0.528
88173W        W59844   7.431   6.119  13.422
88174W        W59845  14.022  11.204  11.141
88175W        W59846  33.139  22.488   0.154
88176W        W59847  43.219  20.476  14.204
88177W        W59848  12.649  35.363   4.042
88178W        W59849  34.142  37.477   1.346
88179W        W59850  41.755  19.751  12.564
88180W        W59851  18.032  39.635  13.518
88181W        W59852  11.867  31.468  14.253
88182W        W59853  38.535  21.633  10.635
88183W        W59854  28.628  21.531  12.326
88184W        W59855  23.438  11.785   0.036
88185W        W59856  41.266  28.177   5.066
88186W        W59857  31.933   1.884   4.200
88187W        W59858  40.263  41.169   4.972
88188W        W59859  44.421  24.465  13.817
88189W        W59860  18.979  38.592   4.534
88190W        W59861   5.969  16.210   1.748
88191W        W59862  18.569  32.071   3.051
88192W        W59863  33.716  10.915  14.339
88193W        W59864  27.675   2.242   0.465
88194W        W59865  10.129  18.488   1.198
88195W        W59866   5.481  17.330   2.770
88196W        W59867   5.347   6.922  14.038
88197W        W59868  30.059   3.001   2.300
88198W        W59869  40.409  17.346  14.354
88199W        W59870   9.204  16.693   4.403
88200W        W59871   2.240  38.981   1.144
88201W        W59872  14.648  24.106  14.846
88202W        W59873   5.766  44.957   4.742
88203W        W59874  37.374   6.318   3.159
88204W        W59875  39.724  36.073   4.830
88205W        W59876  10.357  19.045   2.123
88206W        W59877  20.151  20.694   3.121
88207W        W59878  24.575  40.136   4.593
88208W        W59879   5.306  38.768   1.485
88209W        W59880   8.172   4.677  14.371
88210W        W59881  28.524  43.699  11.943
88211W        W59882  21.758   6.445  14.073
88212W        W59883  12.518  40.005   3.787
88213W        W59884  18.383  18.730  10.647
88214W        W59885   0.868  42.531   4.745
88215W        W59886   4.788  27.733   1.945
88216W        W59887  25.655  42.488   4.345
88217W        W59888  41.960   9.311  10.738
88218W        W59889  15.225  44.518  12.975
88219W        W59890  20.795  44.342   0.263
88220W        W59891  42.660  36.551   0.273
88221W        W59892  44.307   1.410   3.784
88222W        W59893  42.024   8.229  13.123
88223W        W59894  41.375  24.055   3.188
88224W        W59895  17.973  18.868   3.264
88225W        W59896  42.824  28.949  11.110
88226W        W59897   7.912   4.004   0.948
88227W        W59898  42.816  37.467   3.255
88228W        W59899  12.168   1.298   4.424
88229W        W59900  12.155  16.946   2.339
88230W        W59901  10.369  43.367   2.867
88231W        W59902  26.270  28.639   4.350
88232W        W59903  19.655  18.240   4.094
88233W        W59904  28.261  14.488  14.430
88234W        W59905  17.677  14.026   1.277
88235W        W59906  42.874  25.224   4.162
88236W        W59907   7.536  28.186  13.453
88237W        W59908  30.877  36.410   2.826
88238W        W59909  33.660   5.093   2.375
88239W        W59910  18.439  31.163  14.876
88240W        W59911  31.118  32.482  14.029
88241W        W59912  24.098   4.948  12.501
88242W        W59913  28.180  27.556   4.703
88243W        W59914  40.588   3.391   4.597
88244W        W59915  35.970   6.296   2.407
88245W        W59916  40.837  25.103   0.742
88246W        W59917  38.999  35.812  14.421
88247W        W59918  32.580   6.242   4.254
88248W        W59919  44.700  10.362  11.681
88249W        W59920  26.134  37.766   0.327
88250W        W59921   9.670  29.152   0.839
88251W        W59922  37.813  16.070   1.888
88252W        W59923   5.138  31.073  10.457
88253W        W59924  38.345  33.736   1.713
88254W        W59925  36.936  13.626  10.656
88255W        W59926  42.719  43.456   1.021
88256W        W59927   7.873  17.194   2.376
88257W        W59928  28.238  34.040  11.414
88258W        W59929  40.900  10.398   2.206
88259W        W59930  22.753  44.982   1.903
88260W        W59931  28.982  28.484  13.362
88261W        W59932  36.753  27.557  10.688
88262W        W59933  39.621   1.301   1.240
88263W        W59934  17.070   4.206   1.346
88264W        W59935  33.948  22.240  14.412
88265W        W59936   2.038  12.762   4.513
88266W        W59937  43.079  10.765  14.262
88267W        W59938   5.288   8.061   4.233
88268W        W59939   6.948  24.178   3.342
88269W        W59940  11.703  12.881  12.086
88270W        W59941   5.556  30.271  14.851
88271W        W59942   1.301  32.945  11.099
88272W        W59943  28.583  42.608   4.572
88273W        W59944  14.789  41.822  13.637
88274W        W59945  24.892  43.297  13.892
88275W        W59946  34.531  38.484   3.262
88276W        W59947   0.201   9.427  14.851
88277W        W59948   9.402  31.991  12.570
88278W        W59949   8.435  15.094  14.466
88279W        W59950  22.897   1.939  14.794
88280W        W59951  13.829  34.818   0.307
88281W        W59952  25.029   8.193  13.813
88282W        W59953  37.929  29.328  12.473
88283W        W59954  16.813  37.003   3.297
88284W        W59955  44.789  31.537  11.374
88285W        W59956  26.995  23.487  13.564
88286W        W59957  28.964  11.313   3.400
88287W        W59958  27.757   3.132   0.295
88288W        W59959   2.850   0.949  10.475
88289W        W59960  36.553  12.552  13.405
88290W        W59961  20.581  26.915   0.721
88291W        W59962   5.320  31.578   3.972
88292W        W59963  20.562  18.586  14.413
88293W        W59964  30.384  37.623   3.722
88294W        W59965  44.437  32.714  12.587
88295W        W59966  42.121   2.390  12.942
88296W        W59967  26.020  40.544  14.743
88297W        W59968  18.974  26.242  11.369
88298W        W59969  32.101   4.236  14.830
88299W        W59970  23.694  33.093   2.860
88300W        W59971   0.727  31.564  12.964
88301W        W59972   8.276  39.358  14.429
88302W        W59973   2.445  40.383   0.953
88303W        W59974  13.675  34.679  14.001
88304W        W59975  44.034  36.863   2.366
88305W        W59976  17.464   6.741   0.696
88306W        W59977   6.164  41.099   4.055
88307W        W59978  44.629  35.109   5.040
88308W        W59979   2.992   0.918  10.963
88309W        W59980  20.209  24.152   0.431
88310W        W59981  25.422  42.857  11.233
88311W        W59982  40.826   1.303  11.065
88312W        W59983  38.295  28.540   1.859
88313W        W59984  27.518  25.245  14.853
88314W        W59985  30.951   1.286  10.714
88315W        W59986  21.984   4.371  13.093
88316W        W59987   0.369  39.394   1.667
88317W        W59988  18.440  29.229  14.671
88318W        W59989  16.672   5.858   0.320
88319W        W59990  17.324   1.765  13.364
88320W        W59991  42.027  23.273   1.282
88321W        W59992  44.405  32.363   2.169
88322W        W59993  16.155  19.673   4.092
88323W        W59994  34.133   6.136  10.771
88324W        W59995   2.487  38.514  14.407
88325W        W59996  37.432  32.974  12.099
88326W        W59997  16.925  32.225   3.461
88327W        W59998  15.531  27.069  13.878
88328W        W59999   4.246   2.099  14.855
88329W        W60000  24.191  34.361  12.675
88330W        W60001  25.122  38.689   2.598
88331W        W60002  38.234  10.679   3.894
88332W        W60003  26.622   8.735   1.249
88333W        W60004  37.969  13.756   0.838
88334W        W60005   5.836   9.228  12.924
88335W        W60006  15.208  18.780   1.849
88336W        W60007  11.796   7.352   2.778
88337W        W60008   1.969  18.807   1.811
88338W        W60009  23.280  38.474   2.746
88339W        W60010  15.234   4.404  11.654
88340W        W60011  31.392  30.687  14.293
88341W        W60012  39.889  22.778   3.065
88342W        W60013  10.824  13.529   3.129
88343W        W60014   7.408  37.574  11.854
88344W        W60015   5.757  15.198  13.818
88345W        W60016  38.700  18.242  14.101
88346W        W60017  28.199  31.010  10.719
88347W        W60018  40.778   5.450   3.191
88348W        W60019   6.605  43.905   2.350
88349W        W60020  22.948  44.353  11.021
88350W        W60021  42.686   6.365  11.517
88351W        W60022  41.063  19.693   2.133
88352W        W60023  16.030  31.014  13.751
88353W        W60024   4.073  42.267  13.036
88354W        W60025  35.880  43.448  14.278
88355W        W60026   5.925  34.360  13.997
88356W        W60027  14.385  30.972  10.624
88357W        W60028   9.943  12.362   1.359
88358W        W60029  35.371  30.904  12.991
88359W        W60030   7.246   7.848   3.057
88360W        W60031  13.943  25.539  12.984
88361W        W60032  26.555  10.745  11.403
88362W        W60033  35.674  39.959  13.501
88363W        W60034  37.277  16.689  14.093
88364W        W60035   8.856  23.711  12.454
88365W        W60036  44.899  38.578  14.188
88366W        W60037  27.556  32.860   1.248
88367W        W60038  21.436   4.880  12.871
88368W        W60039  43.329  16.836  13.408
88369W        W60040   5.273  25.156  12.354
88370W        W60041  33.101  15.309  11.995
88371W        W60042  17.875   0.398  13.457
88372W        W60043  39.454   7.042   3.104
88373W        W60044   9.804  21.808   2.284
88374W        W60045  38.772   2.054   5.008
88375W        W60046  35.668  33.507  14.234
88376W        W60047  44.933  24.694   3.697
88377W        W60048  39.703  20.515  12.676
88378W        W60049   6.332  33.404  12.969
88379W        W60050  28.109   5.677   0.337
88380W        W60051   7.032  37.817  11.611
88381W        W60052  33.605  41.312   2.478
88382W        W60053  39.754  31.047   0.824
88383W        W60054  19.152  10.817   3.438
88384W        W60055  23.606  44.263  12.883
88385W        W60056   4.941  10.998  12.386
88386W        W60057  32.201  20.747  11.538
88387W        W60058  15.319  22.300  12.492
88388W        W60059  34.640  12.278  13.817
88389W        W60060  33.851  15.998  13.235
88390W        W60061  34.272  30.100  12.513
88391W        W60062  18.953  20.854  13.111
88392W        W60063  25.007  24.527   2.789
88393W        W60064   7.460   5.791   2.755
88394W        W60065   0.027  26.127  13.590
88395W        W60066  10.316  35.339   4.087
88396W        W60067  39.496   3.910   3.858
88397W        W60068  29.734   1.029  12.562
88398W        W60069  44.499  33.225  12.575
88399W        W60070  23.600   0.779  12.850
88400W        W60071   0.133  34.945  11.182
88401W        W60072  37.108  26.968  13.817
88402W        W60073  40.866  22.451  13.943
88403W        W60074   5.412  27.912   0.763
88404W        W60075  19.078  11.278  12.415
88405W        W60076   1.861  15.580   2.225
88406W        W60077  26.211  16.285  11.126
88407W        W60078   3.388  15.788   3.149
88408W        W60079  11.789  21.113  13.874
88409W        W60080  27.445  41.806  12.134
88410W        W60081  12.747   4.012  13.038
88411W        W60082  37.485  43.420  12.824
88412W        W60083  29.538  26.738  10.648
88413W        W60084  43.418  44.469  10.963
88414W        W60085  26.069  39.929   2.895
88415W        W60086  12.336  40.430   0.304
88416W        W60087   4.898   2.821   2.449
88417W        W60088   9.399  41.345   3.301
88418W        W60089  31.486   0.543   4.679
88419W        W60090  29.032  37.814  13.013
88420W        W60091   9.859  40.479   3.652
88421W        W60092   5.432  10.403   0.818
88422W        W60093   6.155   3.363   0.875
88423W        W60094  43.850  10.070  14.147
88424W        W60095   4.871   6.281   1.909
88425W        W60096  21.805  10.443   2.804
88426W        W60097  22.788  36.854   2.130
88427W        W60098  12.488  10.380  12.055
88428W        W60099   5.148  33.215   3.868
88429W        W60100  38.845  31.392   4.540
88430W        W60101  43.113  40.296   2.914
88431W        W60102  23.311  20.063  14.362
88432W        W60103  23.719  34.581   0.303
88433W        W60104  42.052  42.907   1.442
88434W        W60105  26.613  22.195  13.663
88435W        W60106  41.437  38.672   1.709
88436W        W60107   6.282  32.837   4.583
88437W        W60108   1.964  14.244  13.264
88438W        W60109  18.719  21.280   1.890
88439W        W60110  21.454  37.067   4.200
88440W        W60111  34.712  40.422  11.762
88441W        W60112   5.192  20.335   0.843
88442W        W60113  26.397   8.783  12.389
88443W        W60114  12.137  41.406   1.283
88444W        W60115   7.216   1.661  11.986
88445W        W60116  13.425  42.524  13.523
88446W        W60117  32.997  19.831  12.073
88447W        W60118  13.370  44.386   0.253
88448W        W60119  17.767  12.249   3.755
88449W        W60120  25.232  12.722   0.403
88450W        W60121  30.659  14.716  14.091
88451W        W60122  43.870  36.024   0.203
88452W        W60123  35.574  38.885  12.286
88453W        W60124  12.885  43.396   3.160
88454W        W60125  22.912  14.304  12.977
88455W        W60126  27.895   3.450  14.028
88456W        W60127  28.614  36.500   4.081
88457W        W60128  16.110  24.177  13.795
88458W        W60129  35.085  24.784  13.324
88459W        W60130  31.553  25.982  11.780
88460W        W60131   0.960  35.791  10.271
88461W        W60132  28.691  12.174  12.479
88462W        W60133  28.633  38.084  11.805
88463W        W60134  24.705  29.083  12.207
88464W        W60135  42.242  21.639  13.235
88465W        W60136  15.495  19.779   2.691
88466W        W60137  39.509   7.861   2.731
88467W        W60138   5.690  43.610  13.304
88468W        W60139  28.501  34.473  14.479
88469W        W60140  37.025  19.647   4.426
88470W        W60141  40.779  34.351   3.222
88471W        W60142  14.279  13.698   0.953
88472W        W60143  41.535  38.585  14.994
88473W        W60144   2.485   5.180   0.427
88474W        W60145  19.080   2.039  12.423
88475W        W60146  22.674  26.917  14.686
88476W        W60147  22.010  30.092  10.787
88477W        W60148   7.637   7.201  10.118
88478W        W60149  11.097  16.491   1.015
88479W        W60150  22.739  38.423  14.631
88480W        W60151  25.714  43.594  11.645
88481W        W60152   1.365  11.140   2.700
88482W        W60153  14.560  33.821  12.552
88483W        W60154   0.988  38.005   2.545
88484W        W60155  16.041  17.376  12.408
88485W        W60156  37.661  25.664   3.983
88486W        W60157  39.733   2.510   2.308
88487W        W60158  43.069   9.663  11.320
88488W        W60159  21.666   1.985  11.911
88489W        W60160  44.179  29.252  10.983
88490W        W60161   6.544  17.946  14.854
88491W        W60162  40.543   9.828   1.409
88492W        W60163  10.452  28.411   0.839
88493W        W60164  41.538  41.925  10.663
88494W        W60165  25.542   3.394   0.516
88495W        W60166   9.659  39.923  14.280
88496W        W60167   7.173  38.616   0.998
88497W        W60168  43.817   7.444  12.373
88498W        W60169  12.056  35.956  14.043
88499W        W60170   9.951  16.540  13.101
88500W        W60171  23.638  35.463   3.833
88501W        W60172  37.497  11.321   1.278
88502W        W60173  13.204  19.152   2.872
88503W        W60174  30.918  13.182   2.880
88504W        W60175  36.676  10.829   4.052
88505W        W60176  15.168   1.000  13.348
88506W        W60177  11.257  43.699  11.732
88507W        W60178   7.013  37.243  14.842
88508W        W60179  21.548  11.222  14.526
88509W        W60180   1.321  29.861  10.667
88510W        W60181  18.056  13.125   2.788
88511W        W60182  35.329  12.094   2.701
88512W        W60183  41.246  19.131   0.853
88513W        W60184  42.094  26.684   4.530
88514W        W60185  22.525  44.697   1.299
88515W        W60186   3.315  21.138  14.272
88516W        W60187   4.013   2.349   3.410
88517W        W60188  25.209  41.589   9.767
88518W        W60189  25.953  12.119   4.298
88519W        W60190  37.156  10.770   3.905
88520W        W60191  24.285  11.365   4.058
88521W        W60192  40.289  30.888  12.728
88522W        W60193  29.619  15.105  12.580
88523W        W60194  24.675  41.084   4.364
88524W        W60195  35.599  11.409   3.124
88525W        W60196  44.900  24.127  10.273
88526W        W60197  27.997  28.374   1.738
88527W        W60198  21.314   8.203  11.245
88528W        W60199  41.766  28.021   1.782
88529W        W60200  30.157  36.262   3.713
88530W        W60201  41.608  20.204  12.437
88531W        W60202  33.453  31.569  12.331
88532W        W60203  40.327  42.336   0.376
88533W        W60204  14.214  18.057  13.604
88534W        W60205  37.066  36.432   0.434
88535W        W60206   0.243  37.366  13.600
88536W        W60207  12.279  12.308   0.272
88537W        W60208  15.170  44.024   3.713
88538W        W60209  41.526  21.718   2.826
88539W        W60210  25.741  22.194   0.760
88540W        W60211  34.179  11.304  11.625
88541W        W60212  18.198  35.831  12.002
88542W        W60213   5.941  29.957   0.027
88543W        W60214  37.795  28.422   1.906
88544W        W60215  33.916  33.097   3.417
88545W        W60216  41.591  12.727  10.715
88546W        W60217  40.180  17.062  11.993
88547W        W60218  41.979  37.073  13.084
88548W        W60219  16.408   0.842  14.048
88549W        W60220   9.111  37.494  13.031
88550W        W60221  13.865  34.406  13.491
88551W        W60222  12.786   5.562   0.005
88552W        W60223  39.064  43.463  14.541
88553W        W60224  18.797  32.492  14.924
88554W        W60225  20.786  40.389  10.200
88555W        W60226  40.865  40.594  11.714
88556W        W60227  17.045   4.255   0.013
88557W        W60228  26.576  10.346   3.236
88558W        W60229   3.884   0.857  12.412
88559W        W60230  41.847  28.916  10.443
88560W        W60231  29.115   1.347  11.637
88561W        W60232  35.902  21.113  11.536
88562W        W60233   3.739   6.392   4.744
88563W        W60234  41.805  23.242  11.135
88564W        W60235  37.560  17.542   3.768
88565W        W60236  22.803  26.601  12.081
88566W        W60237  22.220   3.270   2.240
88567W        W60238   6.365  22.834  11.959
88568W        W60239  17.159  33.951  11.940
88569W        W60240  22.674  36.832  11.687
88570W        W60241  35.506  12.815  10.673
88571W        W60242   2.946  10.685   1.893
88572W        W60243   8.901  39.802  14.048
88573W        W60244  31.888  26.144  10.462
88574W        W60245   1.951  35.980  12.019
88575W        W60246  35.787  39.371   4.557
88576W        W60247  22.516   3.442  14.382
88577W        W60248  38.413  27.015   1.793
88578W        W60249  21.002  19.024   0.933
88579W        W60250  20.326  13.462  14.580
88580W        W60251  43.950   3.618   4.992
88581W        W60252   7.370   1.256   2.801
88582W        W60253   0.951  35.214  12.483
88583W        W60254  11.453  36.465   3.338
88584W        W60255  39.589  30.645   2.859
88585W        W60256  39.121   9.014   4.297
88586W        W60257  35.851  25.597   4.051
88587W        W60258  15.499   2.270  13.573
88588W        W60259  15.113  26.072  13.023
88589W        W60260  13.090  27.978   0.821
88590W        W60261  43.903  12.842   4.171
88591W        W60262  14.149   3.062  11.368
88592W        W60263  42.043  39.956  13.246
88593W        W60264   6.315  31.094  13.732
88594W        W60265  26.066   0.009  13.282
88595W        W60266  26.117   8.696  11.973
88596W        W60267  24.919   4.883   2.597
88597W        W60268  17.688   1.307   2.386
88598W        W60269  34.134  18.663  11.890
88599W        W60270  12.859  35.999   0.406
88600W        W60271  13.231  42.273  11.173
88601W        W60272  22.734  21.914   3.903
88602W        W60273  34.895   5.709  14.529
88603W        W60274   5.258  43.291  12.403
88604W        W60275  13.129  14.169   4.136
88605W        W60276  24.742  44.324   4.359
88606W        W60277  26.545  19.748  10.201
88607W        W60278  24.254   8.812  14.869
88608W        W60279  38.502  11.616   2.429
88609W        W60280  10.970  31.045  14.035
88610W        W60281  43.514   9.085  11.484
88611W        W60282  43.399  34.843  14.429
88612W        W60283  19.208  25.136   5.288
88613W        W60284  42.170  19.510   1.766
88614W        W60285  37.560  39.985  10.976
88615W        W60286   9.855  30.932  14.787
88616W        W60287  30.029   0.871  11.544
88617W        W60288  30.506   5.227  12.902
88618W        W60289  28.138  33.961  10.692
88619W        W60290   9.861  42.848   3.360
88620W        W60291  30.881   2.468   1.348
88621W        W60292  32.214   1.764   4.624
88622W        W60293  41.005  41.386   1.435
88623W        W60294   0.610  20.175  12.952
88624W        W60295   0.004   1.829   3.220
88625W        W60296   6.848  30.791   1.779
88626W        W60297   2.933  26.717  11.527
88627W        W60298  40.911  37.348   3.309
88628W        W60299  39.306  43.810  10.409
88629W        W60300  36.143  19.176  11.069
88630W        W60301   5.613  25.937  12.882
88631W        W60302  11.264   2.785  14.850
88632W        W60303  33.087  11.272  12.146
88633W        W60304  14.347  41.879   0.429
88634W        W60305  15.700  22.030   1.263
88635W        W60306  32.572  25.094   3.253
88636W        W60307  18.687   8.949  13.860
88637W        W60308  17.064   3.211   0.830
88638W        W60309  30.210  23.355  11.170
88639W        W60310  31.837  22.865  11.022
88640W        W60311  23.779  12.236   1.792
88641W        W60312  32.703  17.606   2.951
88642W        W60313  10.604  26.999   3.545
88643W        W60314  42.921  13.369  14.783
88644W        W60315  30.887  28.064   3.713
88645W        W60316  24.602  32.600  10.774
88646W        W60317  28.834  42.790   2.735
88647W        W60318  22.963  44.023   1.612
88648W        W60319  15.125   2.953   1.873
88649W        W60320  25.006  29.371   2.540
88650W        W60321  29.300   6.536   4.529
88651W        W60322  22.695  21.095   4.006
88652W        W60323  21.991  27.520   0.536
88653W        W60324   6.065  16.773  10.776
88654W        W60325  31.158  44.935   1.693
88655W        W60326  14.903  42.023  14.097
88656W        W60327  40.910   4.804  14.000
88657W        W60328  40.664  21.618   4.941
88658W        W60329   5.224  37.502  13.968
88659W        W60330  27.983  42.328  11.608
88660W        W60331  13.575  10.162  12.993
88661W        W60332   7.171  17.522  11.201
88662W        W60333  19.852  38.426  11.109
88663W        W60334  22.474  19.827   0.315
88664W        W60335   9.417  37.813  12.727
88665W        W60336  40.037  40.021   2.444
88666W        W60337  11.170  19.527   0.507
88667W        W60338  17.889  28.422  13.972
88668W        W60339  19.773  26.683   0.711
88669W        W60340  36.269  30.688   3.634
88670W        W60341   7.223  32.502  14.226
88671W        W60342  11.233  38.292   3.200
88672W        W60343  14.334   4.644  14.932
88673W        W60344  27.380  24.449  12.019
88674W        W60345  37.147  24.434  12.981
88675W        W60346  44.341   5.209  11.480
88676W        W60347  23.543  35.481  11.166
88677W        W60348  40.036  27.433   0.701
88678W        W60349  17.172   5.292  13.383
88679W        W60350  28.701  40.824  12.934
88680W        W60351   0.908  30.920  12.036
88681W        W60352  18.683  44.770   4.556
88682W        W60353   9.752   9.340   2.610
88683W        W60354  32.900   3.740   1.528
88684W        W60355  29.594   3.890   1.317
88685W        W60356   9.798   9.705  13.903
88686W        W60357  33.558  24.223   0.699
88687W        W60358   1.712  10.616   2.411
88688W        W60359  26.171  37.568   2.946
88689W        W60360  24.091   7.379   4.605
88690W        W60361  26.528  16.215   3.225
88691W        W60362   3.427  21.999  14.374
88692W        W60363  42.248   9.876   2.413
88693W        W60364   8.916  44.438   1.153
88694W        W60365   4.827  37.032   3.525
88695W        W60366  13.232  43.585   2.830
88696W        W60367  41.438   0.966   1.901
88697W        W60368  21.977  15.438  13.429
88698W        W60369   5.886  22.808  13.867
88699W        W60370  32.139  17.355  11.703
88700W        W60371  26.201  17.830  11.063
88701W        W60372  44.830  17.308   3.325
88702W        W60373  42.702  34.716  10.331
88703W        W60374  20.078  42.301  11.570
88704W        W60375   1.691   8.149  12.978
88705W        W60376  39.803  38.399   0.292
88706W        W60377   2.649  35.645   4.438
88707W        W60378  25.305  12.713  13.446
88708W        W60379  16.522  14.031   1.738
88709W        W60380   4.182  14.180   2.314
88710W        W60381  42.473   3.115   4.152
88711W        W60382  20.951  41.654  14.885
88712W        W60383  24.012  24.098   0.197
88713W        W60384  12.446   0.467   3.170
88714W        W60385  39.479   8.199  14.853
88715W        W60386  10.987  10.131  13.072
88716W        W60387  41.773  19.097   0.867
88717W        W60388  16.365   6.776   4.836
88718W        W60389  31.147  33.776  12.869
88719W        W60390  41.882  23.977   3.135
88720W        W60391  35.447  43.377   1.722
88721W        W60392  24.766  19.192   3.181
88722W        W60393  18.789  21.527  11.955
88723W        W60394  35.127  41.875  13.083
88724W        W60395  19.217  34.987   1.292
88725W        W60396  44.811  11.952   4.979
88726W        W60397   2.463  22.775  14.297
88727W        W60398   7.856  36.948   4.514
88728W        W60399  35.446  26.066  11.277
88729W        W60400  33.702  32.162  14.024
88730W        W60401  18.057  35.124  13.840
88731W        W60402  19.221  44.853  13.194
88732W        W60403   8.773  28.928  13.559
88733W        W60404  42.348  24.457   2.881
88734W        W60405  43.233  17.656  12.944
88735W        W60406  39.716  43.761  13.874
88736W        W60407  38.609  17.212  14.765
88737W        W60408  25.186  42.989  11.719
88738W        W60409  28.672  41.397  13.830
88739W        W60410  14.098   2.363   5.036
88740W        W60411  40.756  42.838   0.683
88741W        W60412  41.355   6.864  12.369
88742W        W60413  18.745   7.303   2.455
88743W        W60414  30.925  14.106   3.893
88744W        W60415   8.649  15.178   4.983
88745W        W60416  25.557  34.135   0.129
88746W        W60417  21.957   9.267  13.773
88747W        W60418  12.608  29.091   1.900
88748W        W60419   1.063   5.367   2.898
88749W        W60420  37.424   4.899   0.357
88750W        W60421  15.401  37.968   3.181
88751W        W60422  42.792   5.171  12.083
88752W        W60423   9.443  16.232   1.626
88753W        W60424   6.259  31.612   1.944
88754W        W60425   2.253   2.411   1.048
88755W        W60426  31.713  37.600   0.326
88756W        W60427  35.057   0.990   2.801
88757W        W60428   0.238  19.115  13.702
88758W        W60429  16.028   8.101  14.051
88759W        W60430   5.889  28.730   2.754
88760W        W60431  28.519  39.469   0.389
88761W        W60432  21.638   7.303  11.171
88762W        W60433  24.845  19.207   2.302
88763W        W60434   9.120  29.933   0.028
88764W        W60435  13.746  42.454   1.670
88765W        W60436  35.399  11.807  14.328
88766W        W60437  10.463  30.947   4.124
88767W        W60438  28.000  21.565  13.512
88768W        W60439   7.922  27.621   3.391
88769W        W60440  10.126  16.382  11.657
88770W        W60441  36.472  38.881  12.495
88771W        W60442  14.202  41.488   1.207
88772W        W60443  30.510  35.868   3.152
88773W        W60444  26.707  29.971   3.796
88774W        W60445  24.678   3.496   3.374
88775W        W60446   7.314   7.035   3.664
88776W        W60447  22.724  10.389   4.081
88777W        W60448  23.669  13.820   2.896
88778W        W60449  18.501  31.546  13.026
88779W        W60450  19.988   4.887   4.946
88780W        W60451  19.423  33.373  11.999
88781W        W60452  30.315  43.395  14.407
88782W        W60453   0.886  20.618  13.004
88783W        W60454   8.428  37.958   2.709
88784W        W60455  11.652   8.935   3.576
88785W        W60456  13.344   2.323   0.825
88786W        W60457  40.953  15.338  13.195
88787W        W60458  42.989  10.802  12.365
88788W        W60459  44.585  21.118  14.961
88789W        W60460  37.100   9.234   4.804
88790W        W60461   1.989  36.877  12.110
88791W        W60462  30.392  38.848   0.362
88792W        W60463  22.757   7.666   1.377
88793W        W60464   3.803  21.823   0.295
88794W        W60465  18.168  28.549   0.842
88795W        W60466   2.567   9.148   2.907
88796W        W60467  36.541  33.355   4.354
88797W        W60468  15.732  42.009   2.656
88798W        W60469   6.830  15.797   4.796
88799W        W60470  32.671  33.712  10.714
88800W        W60471  29.952  33.018   3.223
88801W        W60472   7.671  40.494  13.867
88802W        W60473  30.544  23.958   1.216
88803W        W60474  29.770   3.136   0.127
88804W        W60475  32.106  17.379   5.087
88805W        W60476  12.479  11.221  11.947
88806W        W60477   4.098  22.699   0.384
88807W        W60478  36.096  33.555   4.504
88808W        W60479  32.437  39.866  12.278
88809W        W60480  29.198  17.546   4.806
88810W        W60481   6.484  23.816   2.668
88811W        W60482  28.530  20.184   3.834
88812W        W60483  14.733  14.035   1.876
88813W        W60484  24.118  44.945  14.403
88814W        W60485  43.960   0.975  11.963
88815W        W60486   9.015  11.205   2.259
88816W        W60487   0.323  20.081   2.351
88817W        W60488  15.745  36.863  13.530
88818W        W60489  18.584   4.329   4.657
88819W        W60490  17.429  15.869  11.892
88820W        W60491  10.553  40.477  14.978
88821W        W60492  12.209   9.908  13.449
88822W        W60493  18.867   1.691   1.752
88823W        W60494  27.131  19.369   1.705
88824W        W60495   3.702  15.587  10.156
88825W        W60496  17.799   1.908  10.673
88826W        W60497  24.518  26.902   3.665
88827W        W60498  38.539  25.694  10.696
88828W        W60499   8.322  16.601  12.035
88829W        W60500  17.761  19.946   2.216
88830W        W60501  37.173  35.002  13.227
88831W        W60502   3.432   4.145   4.175
88832W        W60503  35.650  12.050  11.136
88833W        W60504   5.068  32.991  13.463
88834W        W60505  41.086  35.065  14.977
88835W        W60506   2.295  12.421  12.956
88836W        W60507  43.984  25.716   3.905
88837W        W60508   2.171  12.237  11.669
88838W        W60509  33.095  17.873   4.724
88839W        W60510   7.871  37.455   0.826
88840W        W60511  31.570  34.093  13.895
88841W        W60512   3.055  27.901   3.730
88842W        W60513   3.701   0.402  12.541
88843W        W60514  25.233  26.167  13.208
88844W        W60515   8.384  36.001  11.163
88845W        W60516  20.911  15.554  10.987
88846W        W60517  15.236  37.929  12.106
88847W        W60518  41.933   7.406   3.808
88848W        W60519  36.288  14.241  14.748
88849W        W60520  37.909   9.431   3.685
88850W        W60521   9.791  15.255  11.898
88851W        W60522  22.077   3.936   4.537
88852W        W60523  43.694  20.693  14.316
88853W        W60524  36.039  13.596   2.318
88854W        W60525  22.614  43.714  11.124
88855W        W60526  40.902  29.545  13.463
88856W        W60527  35.122   7.143  10.737
88857W        W60528  31.877  24.229  12.949
88858W        W60529  33.412  32.289  13.607
88859W        W60530  23.689  34.015  10.823
88860W        W60531  16.027   0.392   3.173
88861W        W60532   0.206   1.434   3.971
88862W        W60533  10.157  43.855   3.183
88863W        W60534  44.951  32.677  14.352
88864W        W60535   3.440  37.762  13.752
88865W        W60536  37.637  43.997  11.611
88866W        W60537  36.146  15.829  14.896
88867W        W60538  29.142  21.873  10.690
88868W        W60539  24.842  35.285  10.993
88869W        W60540  12.354  10.139   1.350
88870W        W60541   0.923  38.589   1.877
88871W        W60542  28.045  13.391  10.618
88872W        W60543  41.581  26.027  13.356
88873W        W60544  30.145  32.694   1.435
88874W        W60545  16.255  25.440  14.770
88875W        W60546   0.721   9.152  12.013
88876W        W60547  11.106  33.023  14.207
88877W        W60548  13.697  29.453  14.020
88878W        W60549  41.873  32.988  14.331
88879W        W60550  28.492  28.919   2.992
88880W        W60551  40.960  18.688   0.712
88881W        W60552  20.599  14.052  13.026
88882W        W60553  20.747   9.153  14.872
88883W        W60554  37.402  18.644   4.587
88884W        W60555   2.565  13.614   4.024
88885W        W60556   5.041  43.350   4.143
88886W        W60557   6.731  15.428  12.574
88887W        W60558  23.454   4.319  10.801
88888W        W60559  26.205   0.779   1.527
88889W        W60560  17.491   9.554  14.052
88890W        W60561  14.924   0.038  14.950
88891W        W60562  33.881   6.931  11.145
88892W        W60563  37.283  13.173   2.275
88893W        W60564  16.495   9.443  12.964
88894W        W60565  32.454   5.392   1.193
88895W        W60566  38.318  37.896  10.827
88896W        W60567  11.316  15.606  11.195
88897W        W60568   9.992   5.929   2.861
88898W        W60569  10.340  24.307  11.074
88899W        W60570  12.952   4.320  14.400
88900W        W60571   9.313  25.461   2.155
88901W        W60572   2.468  42.657   3.145
88902W        W60573  35.846   2.802   1.222
88903W        W60574  39.953  39.301   3.121
88904W        W60575  16.992   0.780   2.812
88905W        W60576   3.881  22.995  10.932
88906W        W60577  29.465  44.526   2.159
88907W        W60578  16.721   6.435  10.244
88908W        W60579  13.393   9.629   1.937
88909W        W60580   5.388   2.851   0.829
88910W        W60581   7.433  34.053   0.187
88911W        W60582  21.970  39.751  14.483
88912W        W60583  37.502  11.167  13.035
88913W        W60584  15.816  18.674  13.980
88914W        W60585  17.144  18.595   3.350
88915W        W60586  31.847  20.581  13.680
88916W        W60587  13.534   7.416   1.506
88917W        W60588  34.131   3.250   2.800
88918W        W60589  26.594  34.390   3.820
88919W        W60590  34.827  18.867   5.010
88920W        W60591  12.925  20.134  14.451
88921W        W60592   3.184  27.346   3.733
88922W        W60593  22.104  25.611  12.733
88923W        W60594  44.455  17.024  13.780
88924W        W60595  44.531  38.591  11.581
88925W        W60596  18.635  17.656   0.083
88926W        W60597  26.613  15.539  12.969
88927W        W60598   0.510  26.097   1.346
88928W        W60599   3.482  38.295  12.638
88929W        W60600  31.825  23.731   3.880
88930W        W60601  22.318  13.746  10.570
88931W        W60602  20.399   7.787   1.188
88932W        W60603  13.624  14.681   2.695
88933W        W60604   1.991  42.972   1.358
88934W        W60605   8.827  16.797  14.346
88935W        W60606  17.663   9.531   0.851
88936W        W60607  33.993   4.198   3.298
88937W        W60608   1.376  39.492   1.410
88938W        W60609   3.819   4.606  14.071
88939W        W60610  21.938  10.347   3.721
88940W        W60611  10.191  43.920   1.336
88941W        W60612  32.540  24.772   1.341
88942W        W60613  37.861  38.125   4.330
88943W        W60614  40.797  44.966  14.946
88944W        W60615  24.409  21.890  14.486
88945W        W60616  32.674  38.857  12.857
88946W        W60617  26.892  31.639  14.583
88947W        W60618  18.098   3.168   2.291
88948W        W60619  38.271  23.732  13.076
88949W        W60620  19.408   2.908   4.953
88950W        W60621  19.045   8.277   3.880
88951W        W60622  20.602  30.420  14.897
88952W        W60623  27.748   9.810   5.109
88953W        W60624   9.738  28.491  14.786
88954W        W60625   4.165  42.347  11.556
88955W        W60626  17.904  19.115  12.406
88956W        W60627  33.549  34.992  11.279
88957W        W60628   8.359  11.153  14.515
88958W        W60629  12.645   3.782  14.056
88959W        W60630   8.213   5.262   3.728
88960W        W60631  32.927  35.894  13.604
88961W        W60632  35.099  14.505  11.992
88962W        W60633  23.227  13.297  11.483
88963W        W60634  22.192  21.497  12.872
88964W        W60635  14.705  28.525   1.263
88965W        W60636  27.024   6.279   1.871
88966W        W60637   0.342   0.449   4.858
88967W        W60638  12.913  41.282  12.014
88968W        W60639  16.063  42.091   2.252
88969W        W60640   4.388  42.461   3.310
88970W        W60641  39.779  35.941   1.800
88971W        W60642  14.104   1.147   1.832
88972W        W60643  35.077   2.869   1.737
88973W        W60644  16.856  16.400  11.550
88974W        W60645  19.873  18.486   1.302
88975W        W60646  15.519  29.112   3.123
88976W        W60647  18.779  41.478  14.371
88977W        W60648  21.498  33.987  12.528
88978W        W60649  32.714  23.726   0.878
88979W        W60650  19.597  33.638   3.234
88980W        W60651  35.360  37.524  13.637
88981W        W60652  44.931   8.918   4.444
88982W        W60653  36.793  23.932   2.356
88983W        W60654   9.803  20.259   4.660
88984W        W60655  11.888  24.249  13.282
88985W        W60656  43.765  14.764  13.985
88986W        W60657  35.523  36.242   4.140
88987W        W60658  40.763  29.936  13.801
88988W        W60659  19.227   6.985   1.325
88989W        W60660  24.216   3.410  12.919
88990W        W60661  19.082  16.704   1.113
88991W        W60662  39.019  41.304  11.212
88992W        W60663   6.708  19.269  13.420
88993W        W60664   1.381  35.807  13.668
88994W        W60665   7.290  35.374   3.881
88995W        W60666   9.799   7.599   0.993
88996W        W60667  36.348  31.768   2.877
88997W        W60668  40.920  44.421  10.575
88998W        W60669  10.669  24.493  10.405
88999W        W60670   4.763  21.652   2.804
89000W        W60671  36.861   3.288  13.409
89001W        W60672  27.682  42.895  14.859
89002W        W60673  35.010  25.515  10.987
89003W        W60674  37.139  29.432   0.702
89004W        W60675  10.720  28.094   3.392
89005W        W60676  10.090  24.534  12.996
89006W        W60677  31.741  31.941  11.461
89007W        W60678  21.532  42.975  10.462
89008W        W60679  11.689  11.847  10.340
89009W        W60680  34.298  24.583  10.736
89010W        W60681  40.711  26.503  12.924
89011W        W60682  31.610  23.049   4.938
89012W        W60683  24.948  35.374  14.894
89013W        W60684  19.373  16.339   2.838
89014W        W60685  19.415  32.541  11.653
89015W        W60686  36.800  36.444  13.799
89016W        W60687  29.028  36.592  12.429
89017W        W60688  24.527  34.673   2.369
89018W        W60689   2.872  30.959  12.824
89019W        W60690  33.993  43.458   4.378
89020W        W60691  34.930   6.212   2.693
89021W        W60692  33.373  43.554  13.489
89022W        W60693  12.116  16.113  12.366
89023W        W60694  18.805  31.128  12.528
89024W        W60695  15.261  43.336   1.852
89025W        W60696  24.670  21.338   0.669
89026W        W60697  38.073  20.062  13.464
89027W        W60698   8.870   1.058  12.013
89028W        W60699  19.663  40.311  10.725
89029W        W60700  29.936  44.481   3.635
89030W        W60701   2.424  33.254   3.717
89031W        W60702   3.596  35.167  13.004
89032W        W60703  43.913  34.704   1.027
89033W        W60704   3.369  25.637   3.346
89034W        W60705  18.552  16.801  14.287
89035W        W60706   9.153  10.743  14.036
89036W        W60707  44.061  22.749   4.099
89037W        W60708  20.281  25.288  11.250
89038W        W60709  19.027   4.900   0.439
89039W        W60710  10.078  33.611   1.379
89040W        W60711  44.462   7.241  11.173
89041W        W60712  20.781  16.427  12.856
89042W        W60713  39.726   6.696   4.034
89043W        W60714  21.065   7.179   0.740
89044W        W60715   1.262   3.725   4.231
89045W        W60716  11.363  20.898   0.508
89046W        W60717  40.533   3.947  14.403
89047W        W60718  40.491  12.880   3.908
89048W        W60719  42.752  31.844   3.106
89049W        W60720  16.269  40.787  11.633
89050W        W60721  19.558   1.757   2.494
89051W        W60722  14.230   4.757  14.313
89052W        W60723  36.396   5.174   0.228
89053W        W60724  41.632  40.155  10.172
89054W        W60725  14.129  31.113  14.015
89055W        W60726  44.295  42.313  14.171
89056W        W60727  28.099  40.600  13.346
89057W        W60728   5.250  12.085   1.920
89058W        W60729  38.618  30.861  14.575
89059W        W60730   6.274  40.213  12.669
89060W        W60731  27.527  41.942   2.429
89061W        W60732  10.332   1.984  14.498
89062W        W60733  26.912  40.939   4.902
89063W        W60734  26.104   9.905  12.877
89064W        W60735   2.706   4.753   3.733
89065W        W60736  26.509  35.019  10.757
89066W        W60737  31.251  32.041   2.594
89067W        W60738  25.774  42.129  14.751
89068W        W60739  36.821  11.262  13.774
89069W        W60740  44.697  23.704  13.503
89070W        W60741  31.645   5.317   4.036
89071W        W60742  44.597  26.304   1.626
89072W        W60743   0.989  27.543  10.648
89073W        W60744  19.026  16.318   3.680
89074W        W60745  24.052  41.056  13.143
89075W        W60746  14.891  39.437  12.575
89076W        W60747  19.429  37.538  11.074
89077W        W60748  24.240  44.834  12.746
89078W        W60749   4.162  26.205   2.599
89079W        W60750   2.502  14.349  11.635
89080W        W60751  16.738  27.672  14.305
89081W        W60752  19.100  27.130   0.154
89082W        W60753  39.341  17.150   0.421
89083W        W60754  44.459  31.503  14.377
89084W        W60755  25.564  32.338   0.951
89085W        W60756  34.533  21.032  13.695
89086W        W60757   6.483  43.523   1.823
89087W        W60758   3.836  31.827  14.427
89088W        W60759  24.057  35.584  11.174
89089W        W60760  18.300   3.920   3.800
89090W        W60761   0.485  18.672  13.521
89091W        W60762  16.665  12.094  11.233
89092W        W60763  10.515   4.590  13.854
89093W        W60764   9.283  12.868   3.871
89094W        W60765  44.244  20.748  14.444
89095W        W60766  13.198  28.669  13.852
89096W        W60767  36.484  21.668   4.144
89097W        W60768   2.780   6.183   1.051
89098W        W60769  33.891  12.804  14.325
89099W        W60770  22.262  13.597  12.722
89100W        W60771  20.704  39.241   5.477
89101W        W60772  39.363  41.823  14.953
89102W        W60773  26.236  15.334   2.860
89103W        W60774   5.307  43.367  14.922
89104W        W60775  31.441  38.750   1.270
89105W        W60776   9.261  34.824   2.792
89106W        W60777  35.405   7.285  11.993
89107W        W60778  13.382  18.635  13.383
89108W        W60779  39.236   2.500   2.432
89109W        W60780  22.427  41.400  14.794
89110W        W60781  22.222  14.061  10.964
89111W        W60782   0.904  22.864   2.971
89112W        W60783  34.515  18.711  12.222
89113W        W60784  30.026  41.787   0.031
89114W        W60785   6.787  21.467   2.180
89115W        W60786  27.966  39.930  14.478
89116W        W60787   6.756  20.238  12.078
89117W        W60788   9.892  17.843  12.101
89118W        W60789  16.664  10.697  13.435
89119W        W60790  10.631  15.111   0.917
89120W        W60791  20.978   5.745  11.181
89121W        W60792  19.781  38.351  12.044
89122W        W60793  17.304  20.545   3.639
89123W        W60794   5.228  19.185  11.949
89124W        W60795  13.349  39.413  14.394
89125W        W60796   7.696  37.987   0.008
89126W        W60797  17.852   0.172   2.100
89127W        W60798  15.728  35.722  10.487
89128W        W60799  44.784  15.654   2.316
89129W        W60800  16.163  32.603   3.122
89130W        W60801   7.665  25.053  13.623
89131W        W60802   2.427  39.597  11.568
89132W        W60803  17.803   8.316   2.127
89133W        W60804  41.487  40.920  13.491
89134W        W60805   9.337  29.478   4.471
89135W        W60806  20.736  29.587   3.625
89136W        W60807  26.421  25.714  10.537
89137W        W60808  39.095  20.198  12.377
89138W        W60809  20.661  33.375   2.680
89139W        W60810  39.600  39.521   3.790
89140W        W60811  30.168  33.086   3.693
89141W        W60812  13.920  40.278   0.366
89142W        W60813  25.393   8.865  12.439
89143W        W60814   8.025  32.048  10.544
89144W        W60815  14.759  13.353   4.535
89145W        W60816  28.227  37.155  10.185
89146W        W60817   2.239  40.156  11.576
89147W        W60818  14.307   8.122   4.023
89148W        W60819  34.902  35.900   1.936
89149W        W60820   1.276  11.760  10.600
89150W        W60821  24.281  35.994   1.895
89151W        W60822   2.395  34.279   0.038
89152W        W60823  24.376  44.770  14.851
89153W        W60824  40.325   0.382   1.585
89154W        W60825  36.958  12.348  12.478
89155W        W60826  15.945  24.559   4.808
89156W        W60827   6.346  42.033   2.308
89157W        W60828  35.324  16.291  14.827
89158W        W60829  39.027  15.816   4.051
89159W        W60830  26.572  35.677  12.485
89160W        W60831  21.278  21.780  12.817
89161W        W60832  25.066   2.508   4.095
89162W        W60833  43.730  26.450  12.069
89163W        W60834  35.095  28.086  10.609
89164W        W60835   0.718  28.344   1.306
89165W        W60836  43.558  22.690  10.731
89166W        W60837  39.819  32.712  13.529
89167W        W60838  40.809   5.874  14.310
89168W        W60839  43.853   5.056  10.720
89169W        W60840  39.977  14.752   0.005
89170W        W60841  18.741  31.575  14.958
89171W        W60842  27.311  33.592   3.034
89172W        W60843  43.860  13.080   0.808
89173W        W60844  34.099  28.333   3.280
89174W        W60845   4.772  30.666   1.901
89175W        W60846  28.578  22.019   0.527
89176W        W60847  18.727  31.904  14.003
89177W        W60848   3.465  22.155   2.571
89178W        W60849  39.363  27.699  13.572
89179W        W60850  36.661  40.977  12.484
89180W        W60851   4.227  19.140   3.061
89181W        W60852  15.206  24.070   2.936
89182W        W60853  13.906  28.996   2.382
89183W        W60854  28.325  10.289  14.404
89184W        W60855  21.218  38.328   4.316
89185W        W60856  39.318  28.568   1.841
89186W        W60857  10.672  30.633  12.460
89187W        W60858   5.942  13.064  13.453
89188W        W60859  18.509   9.687  13.239
89189W        W60860  10.125  15.192   0.830
89190W        W60861  25.654  25.663  14.303
89191W        W60862  18.244  38.339   4.118
89192W        W60863  33.297  30.661  11.501
89193W        W60864  20.144  21.139   0.822
89194W        W60865  25.062  12.180   2.671
89195W        W60866  34.536  43.845   1.831
89196W        W60867  44.526  42.794  11.359
89197W        W60868   0.760  24.251  14.540
89198W        W60869   5.684  18.950  11.977
89199W        W60870  18.357  18.120   4.584
89200W        W60871  20.977  17.979   4.314
89201W        W60872  14.663  35.952  13.415
89202W        W60873  44.318  26.475  12.083
89203W        W60874  17.359  25.498  11.570
89204W        W60875  37.951  22.366   0.997
89205W        W60876  30.635   5.237  13.841
89206W        W60877  27.169  42.789  11.511
89207W        W60878  43.922  44.997   3.300
89208W        W60879  32.024  31.679   4.588
89209W        W60880  39.317  35.447  11.203
89210W        W60881   2.652  29.247  11.134
89211W        W60882  44.158   3.863  14.259
89212W        W60883  43.459   2.996  10.428
89213W        W60884  42.631  22.486   3.739
89214W        W60885  30.982  18.968  11.568
89215W        W60886   1.536  34.840  14.408
89216W        W60887  24.162  12.329  12.626
89217W        W60888   6.315  10.423  12.899
89218W        W60889  21.195  12.819  11.534
89219W        W60890  29.546  30.698   4.624
89220W        W60891   1.294  12.589  14.774
89221W        W60892   6.358   5.210   3.163
89222W        W60893  34.026  31.505  10.715
89223W        W60894   1.936  41.037  14.317
89224W        W60895  28.019  36.056  10.782
89225W        W60896  39.535   6.266  13.882
89226W        W60897  12.032  30.040   0.934
89227W        W60898   1.129  40.433  14.841
89228W        W60899  40.399   3.522  13.930
89229W        W60900  16.157  35.416   4.369
89230W        W60901  33.754  41.170   3.279
89231W        W60902  40.300  30.168  10.018
89232W        W60903  32.457  36.189  12.383
89233W        W60904  42.482   3.380   3.219
89234W        W60905   8.770  25.572   0.917
89235W        W60906   4.812   2.153  12.467
89236W        W60907  36.063  39.227  12.439
89237W        W60908  32.472  34.467  12.986
89238W        W60909  12.379  19.305   0.774
89239W        W60910  30.428  18.724   0.861
89240W        W60911  35.308   8.911   3.190
89241W        W60912  15.547  27.012  12.046
89242W        W60913  44.929  19.664   3.868
89243W        W60914  11.021  28.640   2.610
89244W        W60915  37.317  31.412   1.839
89245W        W60916  43.734  33.747  11.633
89246W        W60917   4.219  44.248   4.855
89247W        W60918   4.405  26.141  13.974
89248W        W60919  17.671   9.330   4.209
89249W        W60920  29.565  19.979   4.298
89250W        W60921   7.193  16.569  13.910
89251W        W60922  25.139  32.063  12.101
89252W        W60923  15.139  36.169  13.379
89253W        W60924  33.462  37.034  11.479
89254W        W60925  19.753  34.876  12.990
89255W        W60926  26.940  21.221  10.698
89256W        W60927  25.656  39.931  10.725
89257W        W60928   6.384  21.064  13.330
89258W        W60929  42.839  34.918  12.476
89259W        W60930   4.881  24.671   1.952
89260W        W60931  43.523   0.747  12.085
89261W        W60932   3.869  12.764  11.389
89262W        W60933  40.407  12.732   4.867
89263W        W60934   0.053  11.148   0.270
89264W        W60935  35.669   0.418   2.608
89265W        W60936  26.290   3.413  13.062
89266W        W60937  44.533   5.413  11.909
89267W        W60938  22.563  38.352   9.551
89268W        W60939  37.522   9.563  10.752
89269W        W60940  40.823  24.404  13.210
89270W        W60941   1.406  14.370  13.028
89271W        W60942  25.936  20.180   1.616
89272W        W60943  24.726  31.372   0.348
89273W        W60944   0.452   2.338   1.067
89274W        W60945   8.237   0.012   4.104
89275W        W60946  21.566  26.936  12.933
89276W        W60947  36.419  21.587   0.710
89277W        W60948  31.927   0.451  13.003
89278W        W60949  37.655  33.747   0.902
89279W        W60950   2.439  38.564   3.607
89280W        W60951   3.904   6.782   4.182
89281W        W60952  39.379  44.523   4.670
89282W        W60953  35.873   8.888   1.362
89283W        W60954   3.125   3.307  14.242
89284W        W60955   6.762  28.528   2.549
89285W        W60956  42.861   2.962  14.797
89286W        W60957  10.643   1.613  12.153
89287W        W60958  26.581   1.001   1.126
89288W        W60959  23.755  31.520   1.142
89289W        W60960  34.637   0.005  14.979
89290W        W60961  39.306   0.323  10.444
89291W        W60962  24.039  15.080   3.104
89292W        W60963   6.768  38.801  11.540
89293W        W60964  15.022   1.332   1.603
89294W        W60965  39.249   7.803  12.606
89295W        W60966   4.281   5.774  10.735
89296W        W60967  24.032  12.291   1.324
89297W        W60968  39.512  29.978  13.366
89298W        W60969   1.943  24.297   4.121
89299W        W60970  22.763  42.948  12.564
89300W        W60971  20.744  33.808   1.160
89301W        W60972  31.471   2.692   2.732
89302W        W60973  33.676  11.216  11.682
89303W        W60974  29.155  43.058   1.265
89304W        W60975   9.344  29.688   4.002
89305W        W60976  10.067   2.772  11.167
89306W        W60977  26.043   5.666  14.736
89307W        W60978   2.998  13.770  13.512
89308W        W60979   8.168  23.567   0.521
89309W        W60980   4.416  28.847   0.980
89310W        W60981  13.706  39.804   2.270
89311W        W60982  10.686   7.365   3.691
89312W        W60983  36.041   0.027   1.824
89313W        W60984   8.309   3.290  13.041
89314W        W60985  39.912  11.446  14.796
89315W        W60986  24.702  24.099  14.938
89316W        W60987   9.412   3.792  14.934
89317W        W60988  23.117  28.959   4.675
89318W        W60989  20.112  14.706   9.936
89319W        W60990  23.093  38.153  13.342
89320W        W60991   7.443  44.746  10.770
89321W        W60992  15.689   5.784   4.189
89322W        W60993  29.260   6.296  10.628
89323W        W60994   0.803  20.282   0.221
89324W        W60995  28.414  17.088  12.009
89325W        W60996  22.983  18.339  13.357
89326W        W60997  21.508   5.422   3.491
89327W        W60998  43.560  29.161   3.347
89328W        W60999  23.525  15.385   4.189
89329W        W61000  22.566  25.152  13.426
89330W        W61001  35.601   2.701  14.870
89331W        W61002   8.130  43.971  12.975
89332W        W61003  29.099   1.810  14.305
89333W        W61004  15.452  24.128  11.929
89334W        W61005  36.650  16.582   4.338
89335W        W61006   6.248   0.741  13.567
89336W        W61007  20.150  30.882  14.378
89337W        W61008  33.186   9.711  14.416
89338W        W61009  19.549   4.264   3.602
89339W        W61010  10.562  34.967  11.243
89340W        W61011  20.998  24.079  14.803
89341W        W61012  42.109  33.438  13.496
89342W        W61013  17.999   9.477  12.951
89343W        W61014  19.848  19.142  11.980
89344W        W61015  40.306  39.740  12.047
89345W        W61016  40.393   6.431   3.737
89346W        W61017  20.907  27.576  12.450
89347W        W61018  20.908  33.496  12.007
89348W        W61019   6.133  36.825   4.762
89349W        W61020  13.830  25.441   4.581
89350W        W61021   7.681   8.033  13.882
89351W        W61022  19.785   2.817   3.119
89352W        W61023  12.099  20.366  12.846
89353W        W61024  37.601   8.572   0.475
89354W        W61025   4.670  31.480  14.923
89355W        W61026  11.515  33.598   3.107
89356W        W61027  44.447  32.161   0.906
89357W        W61028  18.017  15.246   3.750
89358W        W61029  30.485  42.009  14.826
89359W        W61030  44.782  30.018   4.481
89360W        W61031  28.409   7.934   2.698
89361W        W61032   4.560  17.082  12.493
89362W        W61033  19.756  36.595  11.484
89363W        W61034  40.298   8.385   0.445
89364W        W61035  17.111   1.761   4.878
89365W        W61036  22.654  23.547  10.537
89366W        W61037  19.607  20.479   4.292
89367W        W61038  39.534   4.795   4.899
89368W        W61039  43.459  22.036   1.403
89369W        W61040  41.868  41.873   9.778
89370W        W61041  13.100  17.259  11.070
89371W        W61042  39.496  24.103  12.749
89372W        W61043   2.056  29.013  13.831
89373W        W61044  30.321  31.894  12.504
89374W        W61045  35.127  10.888   4.153
89375W        W61046  27.691  40.374   0.503
89376W        W61047  30.817  28.393   1.295
89377W        W61048  35.539   8.057  13.750
89378W        W61049  26.748  33.108   4.595
89379W        W61050   7.794   7.662  13.541
89380W        W61051  29.728   9.812   4.277
89381W        W61052  24.203  27.762   1.891
89382W        W61053   1.809  19.688   0.348
89383W        W61054  30.115  36.582   4.105
89384W        W61055  37.939  23.702   4.573
89385W        W61056  42.832   0.752   4.520
89386W        W61057  30.416   4.206   0.650
89387W        W61058   4.414  10.996  13.952
89388W        W61059   1.000  21.755   2.313
89389W        W61060  28.003  37.257  12.436
89390W        W61061  22.756  17.585  11.958
89391W        W61062  28.492  34.411   2.909
89392W        W61063  33.098  41.664   4.288
89393W        W61064  31.409  25.714   2.750
89394W        W61065  26.070  30.306  14.854
89395W        W61066  36.923  38.123   3.265
89396W        W61067  39.916  41.654   2.053
89397W        W61068  16.792  23.692  13.816
89398W        W61069  38.282  37.870  11.326
89399W        W61070  27.665  27.046  14.808
89400W        W61071  23.268  41.001   4.615
89401W        W61072   8.544  41.051   2.651
89402W        W61073  24.375  32.444  11.211
89403W        W61074  40.931  14.140  12.473
89404W        W61075   4.794  16.629  12.686
89405W        W61076   4.772  39.052   2.856
89406W        W61077  35.968  24.258  14.187
89407W        W61078  30.555  11.218  10.657
89408W        W61079  39.767  44.215   1.963
89409W        W61080  37.644   7.116   3.283
89410W        W61081  25.054  32.305   4.576
89411W        W61082  28.125   2.881  14.962
89412W        W61083  25.705   6.446   1.934
89413W        W61084   1.101  32.208  14.473
89414W        W61085  40.047  14.259  13.108
89415W        W61086  11.087  21.884   0.329
89416W        W61087  15.021   6.372   3.618
89417W        W61088  13.625  24.980  11.214
89418W        W61089  26.317  25.099   2.790
89419W        W61090  38.889  19.185  12.496
89420W        W61091   2.239  26.692   1.834
89421W        W61092  23.376  40.506   3.408
89422W        W61093  44.990  34.413  12.015
89423W        W61094   6.717  30.426   3.754
89424W        W61095   0.848  33.835   1.747
89425W        W61096   9.156  31.068  11.629
89426W        W61097  20.594  31.995  14.975
89427W        W61098  15.808  33.067  13.756
89428W        W61099  31.137  33.381   2.818
89429W        W61100  42.630  32.887  11.360
89430W        W61101  18.345  22.311  12.547
89431W        W61102  16.811  13.596   0.024
89432W        W61103   7.978  34.706  10.654
89433W        W61104  33.161  19.536   0.321
89434W        W61105  42.843   1.511  12.014
89435W        W61106   9.851  14.787   1.120
89436W        W61107   3.748  19.820   4.673
89437W        W61108  14.535   0.792   2.349
89438W        W61109  20.154  13.803   4.585
89439W        W61110  32.836  28.092   0.927
89440W        W61111  32.041  20.234  13.304
89441W        W61112  34.963  30.036   4.540
89442W        W61113   5.798  42.730   2.422
89443W        W61114  20.049  26.066   0.808
89444W        W61115  25.222  31.134   3.604
89445W        W61116   2.724  15.075  12.971
89446W        W61117  23.955  20.536   3.295
89447W        W61118  44.606  20.783  14.069
89448W        W61119   8.845  19.235  11.915
89449W        W61120  23.919  12.074  13.008
89450W        W61121  12.085   5.816  14.014
89451W        W61122  13.757   2.621   3.871
89452W        W61123  38.315  27.490   0.237
89453W        W61124   2.857   1.821  13.170
89454W        W61125   2.854  11.724   2.771
89455W        W61126  34.057  26.446  11.329
89456W        W61127  37.849  33.919   4.577
89457W        W61128  16.957   8.308   0.854
89458W        W61129   9.380  17.759  11.041
89459W        W61130  15.891  36.163  10.732
89460W        W61131  42.759  31.579  10.328
89461W        W61132  28.301  23.802   4.129
89462W        W61133  31.465  28.610  11.956
89463W        W61134   4.911  44.825  11.850
89464W        W61135  10.704   3.636   3.229
89465W        W61136  27.057  16.626   4.889
89466W        W61137  21.091   6.936   2.850
89467W        W61138  15.106  28.240   0.372
89468W        W61139  44.059  13.870   5.750
89469W        W61140   9.437  10.004  10.431
89470W        W61141  27.646  32.676  13.084
89471W        W61142  38.786  33.511  14.983
89472W        W61143  28.770   7.921  14.092
89473W        W61144  36.852  31.632  14.479
89474W        W61145   1.301  36.692   4.228
89475W        W61146  10.723  27.147  14.267
89476W        W61147   5.858   4.257   3.199
89477W        W61148  26.457  27.597  10.578
89478W        W61149  12.423  23.956  12.130
89479W        W61150  11.147  23.796  13.830
89480W        W61151   7.167  40.075   2.115
89481W        W61152  43.278  41.125   2.402
89482W        W61153  27.046   4.353   3.220
89483W        W61154  14.751   1.414   4.640
89484W        W61155  30.179   5.439   2.532
89485W        W61156  33.640  12.616   1.277
89486W        W61157  26.854   9.066   3.219
89487W        W61158  17.131  17.661  11.375
89488W        W61159  15.053   1.032  11.493
89489W        W61160  18.702  33.483  11.209
89490W        W61161   9.429   2.240   2.918
89491W        W61162  42.378  35.006  11.549
89492W        W61163  26.758  32.743  11.144
89493W        W61164   0.650  27.029   0.815
89494W        W61165  15.404  21.690   3.575
89495W        W61166  38.083  28.122  10.565
89496W        W61167  28.471  42.971   0.789
89497W        W61168  38.605  38.364  13.444
89498W        W61169  37.069  11.119  14.795
89499W        W61170  22.453  22.765   2.278
89500W        W61171  37.455  13.890   2.809
89501W        W61172   3.950  18.982   1.772
89502W        W61173  36.401  24.926   3.865
89503W        W61174  39.182   9.693   1.223
89504W        W61175  18.711  21.116   0.925
89505W        W61176  34.521  39.979  11.956
89506W        W61177  39.385   5.272  12.871
89507W        W61178  21.121  26.647  13.697
89508W        W61179  13.565  12.064   0.273
89509W        W61180  20.040   0.852  11.924
89510W        W61181  23.578  22.390   0.436
89511W        W61182  32.744  18.396   1.383
89512W        W61183  12.384  12.156   3.754
89513W        W61184  14.627  23.923  11.581
89514W        W61185  20.130  24.871   1.252
89515W        W61186  14.554  41.826   0.956
89516W        W61187  15.755   8.769   4.570
89517W        W61188  24.965  12.785   4.637
89518W        W61189  24.142  36.008  13.550
89519W        W61190   0.180  37.445  12.100
89520W        W61191  31.188  18.645  11.179
89521W        W61192  12.739  40.506  11.628
89522W        W61193  22.477  22.483   4.586
89523W        W61194  27.158   3.969   4.713
89524W        W61195   4.480   7.576   0.913
89525W        W61196  39.352  39.853  12.072
89526W        W61197  32.929  17.167   2.789
89527W        W61198  27.250   7.235   3.055
89528W        W61199  35.548   8.171   3.064
89529W        W61200  23.498  10.886   1.044
89530W        W61201  26.713  28.561   1.825
89531W        W61202  11.759  23.344   3.087
89532W        W61203   3.239  24.684  10.422
89533W        W61204   1.725  19.306  10.200
89534W        W61205   2.048   4.960  14.659
89535W        W61206  16.294  15.725  13.028
89536W        W61207  28.181  34.703   5.096
89537W        W61208  35.588  13.281  13.903
89538W        W61209  33.395  37.319   1.879
89539W        W61210   5.379  20.516   3.947
89540W        W61211  21.157   4.932  13.300
89541W        W61212  24.549  25.887  11.252
89542W        W61213  29.521  17.086   3.839
89543W        W61214  17.105   3.545   2.495
89544W        W61215  29.602   4.861  12.689
89545W        W61216  44.084  32.009  12.510
89546W        W61217  41.402  39.623   3.219
89547W        W61218  18.732  20.593   4.066
89548W        W61219  20.556  39.396  10.311
89549W        W61220  14.841  15.335   3.120
89550W        W61221  38.341   3.412   0.386
89551W        W61222  44.651  22.658   0.789
89552W        W61223  13.098  39.869  14.456
89553W        W61224  10.782  29.149   3.664
89554W        W61225  34.941  37.294   3.562
89555W        W61226  33.628  21.074   1.487
89556W        W61227   2.609  39.451  13.017
89557W        W61228  16.457  31.539   3.708
89558W        W61229  41.238  10.126  12.025
89559W        W61230  17.165  37.419   9.955
89560W        W61231  16.558  10.613   2.353
89561W        W61232   8.775  28.948   4.797
89562W        W61233  13.303  27.494   0.802
89563W        W61234  30.743  12.208   2.537
89564W        W61235  16.486   5.343  12.122
89565W        W61236  25.196  32.392  12.641
89566W        W61237   9.881   2.188  13.447
89567W        W61238  13.713  23.199   0.982
89568W        W61239  17.044  13.092  12.965
89569W        W61240  14.792  27.900  10.664
89570W        W61241   9.758  25.343   3.760
89571W        W61242  40.441  27.393  11.660
89572W        W61243   5.075  35.781  12.099
89573W        W61244   7.698  22.777  14.425
89574W        W61245  21.788  29.596   3.684
89575W        W61246  28.918   5.278   0.744
89576W        W61247   4.667  10.739  14.796
89577W        W61248  32.604  24.483  14.728
89578W        W61249  37.917  19.186   1.679
89579W        W61250   1.231  19.251   0.859
89580W        W61251  13.676  10.840   3.837
89581W        W61252  42.309  16.834   4.165
89582W        W61253   6.587  15.261  11.164
89583W        W61254  18.628  16.614   2.846
89584W        W61255  20.195   7.911  10.622
89585W        W61256  13.199   8.449  10.063
89586W        W61257  22.432  16.715   4.971
89587W        W61258  16.674  42.412  11.891
89588W        W61259  26.722  36.347   3.683
89589W        W61260  26.956  22.133   4.577
89590W        W61261  11.688  27.417   2.568
89591W        W61262  33.479   3.867   4.808
89592W        W61263  13.349  24.078   1.179
89593W        W61264  27.943  23.207   2.235
89594W        W61265  32.578  28.285   0.269
89595W        W61266  10.459   6.667  12.429
89596W        W61267  17.959  38.048   0.008
89597W        W61268  31.672  29.640   0.792
89598W        W61269  24.278  12.238  13.321
89599W        W61270  26.737  23.239   0.251
89600W        W61271  24.273  23.006   2.767
89601W        W61272   6.348  27.466  14.412
89602W        W61273   7.733   3.548  12.930
89603W        W61274  17.231  35.915  14.070
89604W        W61275  18.691  15.307   0.674
89605W        W61276  14.844  44.985   2.664
89606W        W61277  14.792  12.343  13.030
89607W        W61278  35.422  34.427   0.534
89608W        W61279  24.903  32.713   0.507
89609W        W61280  34.491  28.480   1.713
89610W        W61281  35.563   5.798   2.893
89611W        W61282  32.478  22.724   1.326
89612W        W61283  36.929  14.142   0.382
89613W        W61284  26.063  14.005  11.559
89614W        W61285  25.079  43.401   4.638
89615W        W61286  30.483  42.965   4.029
89616W        W61287  43.967  36.452   4.583
89617W        W61288  21.388  22.129  14.308
89618W        W61289  27.014  33.887  10.908
89619W        W61290  25.125   7.404  14.878
89620W        W61291  29.469  32.041   4.037
89621W        W61292  16.712  21.980   3.563
89622W        W61293  13.834  32.449  13.429
89623W        W61294  25.187  37.968   4.203
89624W        W61295  23.646  29.004   3.840
89625W        W61296  10.810   7.337   0.134
89626W        W61297  44.732  29.112  14.346
89627W        W61298  27.090  15.836   2.828
89628W        W61299   0.718  26.253   3.812
89629W        W61300  16.471  37.924   3.901
89630W        W61301   0.081   6.005  12.988
89631W        W61302  42.832  16.577  14.244
89632W        W61303  26.104  42.480   0.473
89633W        W61304  26.718   6.328   1.284
89634W        W61305  11.859  32.599  14.045
89635W        W61306   5.672   0.762  13.385
89636W        W61307  26.384  36.517   4.555
89637W        W61308  12.205   7.746  12.480
89638W        W61309  42.003  37.455   1.897
89639W        W61310   7.240  42.395   0.420
89640W        W61311  15.689  10.409  14.362
89641W        W61312  18.769  36.779  14.375
89642W        W61313  39.297   0.891   3.320
89643W        W61314  27.293  22.665  14.887
89644W        W61315  11.405  18.294  13.541
89645W        W61316  29.398  18.657   1.847
89646W        W61317  42.824  19.690  10.488
89647W        W61318   9.876  12.816   2.400
89648W        W61319  24.835  23.609  14.069
89649W        W61320  10.529  26.762  14.544
89650W        W61321  24.220  10.601   3.804
89651W        W61322  43.249  32.342  10.734
89652W        W61323   2.785  31.944  10.786
89653W        W61324  15.480  26.620   0.016
89654W        W61325  12.919  11.187  13.812
89655W        W61326  35.103  36.362  14.302
89656W        W61327  33.104  10.309   3.279
89657W        W61328  42.391  31.009  13.396
89658W        W61329   6.179  36.904   2.910
89659W        W61330   8.317  43.285   1.707
89660W        W61331   8.353  10.197  11.527
89661W        W61332  31.063  34.690  13.414
89662W        W61333   4.455   1.928  11.277
89663W        W61334  37.564  14.172  14.493
89664W        W61335  23.481  26.180   4.674
89665W        W61336  26.702   5.864   3.223
89666W        W61337  12.588  20.390  12.468
89667W        W61338  42.260   8.306  14.926
89668W        W61339  28.237  19.415  12.880
89669W        W61340  14.512  37.388  11.752
89670W        W61341  31.200  38.401   0.315
89671W        W61342   3.324  14.295   0.188
89672W        W61343   1.995  20.516   3.183
89673W        W61344   2.928   6.959   2.163
89674W        W61345  11.439  34.913   1.868
89675W        W61346   8.958  24.485  12.056
89676W        W61347   3.451  24.434  13.894
89677W        W61348  41.922  37.849  12.405
89678W        W61349  22.660  34.071  14.444
89679W        W61350  16.207  37.786   4.765
89680W        W61351  37.764   8.261  11.165
89681W        W61352  21.742  26.616  11.313
89682W        W61353  26.251  39.054  13.345
89683W        W61354  18.647  22.604  14.043
89684W        W61355   9.629  23.968   0.915
89685W        W61356  25.143   3.724  13.985
89686W        W61357  25.755  27.702   4.961
89687W        W61358   5.774   2.415   4.479
89688W        W61359   4.946  24.067  10.524
89689W        W61360  35.567  40.334   3.848
89690W        W61361  29.430  38.431  13.445
89691W        W61362  32.578  44.460  14.943
89692W        W61363  33.990  41.425   4.100
89693W        W61364  27.936   8.875  13.751
89694W        W61365  11.193  16.089  11.104
89695W        W61366  36.700  43.982  13.786
89696W        W61367  34.592   4.855  11.467
89697W        W61368  40.859  16.146   2.958
89698W        W61369  40.313   6.647  11.053
89699W        W61370  29.543  32.710  11.260
89700W        W61371  23.822  19.518  11.102
89701W        W61372  31.972  41.793  13.219
89702W        W61373  31.813  19.482  14.516
89703W        W61374  13.178  26.559   2.867
89704W        W61375  14.945   1.479  14.862
89705W        W61376   8.764   4.270  11.161
89706W        W61377  41.799  33.959  13.387
89707W        W61378  25.415  34.488  12.881
89708W        W61379  39.487  39.571   0.174
89709W        W61380  31.991  15.078   2.781
89710W        W61381  13.707  16.257  12.503
89711W        W61382   9.447   2.712  12.772
89712W        W61383   0.358  36.667  12.960
89713W        W61384  42.227  23.725  14.778
89714W        W61385   9.231  36.882  13.795
89715W        W61386   0.534  25.961  11.123
89716W        W61387   0.828   8.815  11.012
89717W        W61388  24.287  27.934   3.256
89718W        W61389  10.871   1.796   3.742
89719W        W61390  39.467  28.104   4.286
89720W        W61391   4.465  20.278  14.897
89721W        W61392  39.052  40.421  11.312
89722W        W61393  40.285   7.399  12.998
89723W        W61394  39.156  37.324   3.684
89724W        W61395  21.079  15.703   0.089
89725W        W61396  18.104  38.601  14.879
89726W        W61397  32.094  14.892  13.981
89727W        W61398   0.219  34.890   0.520
89728W        W61399   1.480   6.649   1.780
89729W        W61400  30.395   2.651  13.257
89730W        W61401  41.469  21.170   4.163
89731W        W61402  32.373  23.190  11.809
89732W        W61403  21.223  11.697  10.670
89733W        W61404  42.775  13.260   3.922
89734W        W61405  14.454  25.513   3.770
89735W        W61406   2.058   9.920   1.647
89736W        W61407  15.673  11.812  11.014
89737W        W61408  16.900  35.004  14.479
89738W        W61409  40.945  32.642   3.251
89739W        W61410  32.452   8.325   3.945
89740W        W61411  24.756   7.601  12.633
89741W        W61412  37.395   1.362   3.897
89742W        W61413   0.953  20.157   1.652
89743W        W61414   9.484  34.875   3.257
89744W        W61415   0.328  10.256   3.629
89745W        W61416  20.156  19.566  12.035
89746W        W61417  34.621   3.465  10.712
89747W        W61418  35.302  11.848   3.966
89748W        W61419  23.134  24.753   2.798
89749W        W61420   1.964   9.279  10.685
89750W        W61421  28.421  29.392   0.207
89751W        W61422  42.967  17.180  12.432
89752W        W61423  44.474  41.393   1.909
89753W        W61424  31.342  26.445  12.682
89754W        W61425  25.946   1.462   0.773
89755W        W61426  44.529  31.982  12.853
89756W        W61427  19.609  30.143   4.210
89757W        W61428  10.165   0.416   3.677
89758W        W61429  39.919  34.054  13.429
89759W        W61430  36.530  25.008  14.720
89760W        W61431  32.538  22.232  13.692
89761W        W61432  32.581   4.626   4.060
89762W        W61433  13.094  19.696   2.855
89763W        W61434  18.316  38.937   1.936
89764W        W61435  25.777   0.530  10.692
89765W        W61436  12.765  28.387  13.793
89766W        W61437  43.552  10.848   2.388
89767W        W61438   0.291  41.307  13.030
89768W        W61439  41.202  28.484  12.622
89769W        W61440   4.972  27.222  10.911
89770W        W61441   5.786  31.072  11.968
89771W        W61442  28.881   9.753   2.860
89772W        W61443  39.876  31.047   2.651
89773W        W61444  43.273  26.644   3.221
89774W        W61445   2.421  16.267   0.321
89775W        W61446  10.176  11.613   2.794
89776W        W61447  40.633   4.451  14.319
89777W        W61448  10.035  32.568  13.342
89778W        W61449  12.629  34.683   0.417
89779W        W61450  44.063  30.122  13.926
89780W        W61451  27.403  31.200  12.820
89781W        W61452  35.452  18.994  14.537
89782W        W61453  30.322  24.763  14.408
89783W        W61454  13.408  12.875  11.183
89784W        W61455  31.456  28.527  10.524
89785W        W61456   4.399  25.630   0.370
89786W        W61457  33.988  12.640   3.708
89787W        W61458  14.058  32.257  13.010
89788W        W61459  14.901  30.677   2.173
89789W        W61460  14.652  17.007  12.586
89790W        W61461  20.176  20.253  11.634
89791W        W61462  32.036  13.075  13.918
89792W        W61463  38.964  32.902   3.284
89793W        W61464  29.934  38.100  13.090
89794W        W61465  13.805   5.792   1.241
89795W        W61466   7.293  31.328   4.022
89796W        W61467   1.846  15.784   2.679
89797W        W61468  21.202  10.753   0.343
89798W        W61469  35.491   7.294   4.809
89799W        W61470  43.255   8.633   5.067
89800W        W61471  44.865   1.678  12.051
89801W        W61472  34.343  26.559  10.558
89802W        W61473   2.846  40.364   1.314
89803W        W61474  42.847  34.183   3.701
89804W        W61475  15.260  11.841   3.680
89805W        W61476   5.234  30.425   1.800
89806W        W61477   9.914   7.653   1.812
89807W        W61478  20.750  15.084   3.690
89808W        W61479  29.470  23.712   2.332
89809W        W61480   1.741  19.414   0.797
89810W        W61481  26.707  18.536   3.214
89811W        W61482  38.379   0.661  11.571
89812W        W61483  30.158  15.305  10.971
89813W        W61484  34.426  33.100   0.896
89814W        W61485   1.241   0.443   3.194
89815W        W61486  40.727  26.505  10.251
89816W        W61487   3.569   1.763  11.053
89817W        W61488  15.534  39.576   1.790
89818W        W61489  15.846  41.355   1.957
89819W        W61490  12.350  34.844  14.469
89820W        W61491  18.704   3.737   4.578
89821W        W61492  26.023   1.739  12.380
89822W        W61493  34.921  36.470  12.937
89823W        W61494   0.239  17.891   4.093
89824W        W61495   0.630   1.618  11.700
89825W        W61496  22.597   6.703   2.846
89826W        W61497  25.618   9.032  11.156
89827W        W61498   9.208  38.779  11.490
89828W        W61499  34.772  27.707  11.419
89829W        W61500  12.245  31.998   3.623
89830W        W61501   9.643  25.925  13.411
89831W        W61502  12.573  34.153  14.548
89832W        W61503  35.396  36.997   3.660
89833W        W61504  31.027   7.192   0.882
89834W        W61505  14.647  34.571  11.224
89835W        W61506  26.565   7.000   1.761
89836W        W61507  43.835  18.232  11.538
89837W        W61508  30.419  24.433  14.808
89838W        W61509  29.415   0.431   1.443
89839W        W61510  16.522  11.670   1.816
89840W        W61511  33.011  27.673  14.057
89841W        W61512   1.758  23.328  11.954
89842W        W61513   5.715  43.019   2.862
89843W        W61514   0.898  40.049   4.302
89844W        W61515  25.024  32.138   3.729
89845W        W61516  42.448  39.304   1.379
89846W        W61517   7.864  18.270  11.945
89847W        W61518  24.070  24.153  12.169
89848W        W61519  32.432  26.698   0.510
89849W        W61520  25.974   8.200   2.157
89850W        W61521  41.346  33.403  14.763
89851W        W61522  10.826  13.436   1.204
89852W        W61523  42.774   9.978  10.469
89853W        W61524  31.097  19.211   1.942
89854W        W61525   2.660  21.045   0.817
89855W        W61526  34.437  17.519   0.952
89856W        W61527  36.322  42.663  11.080
89857W        W61528  11.604  13.908   2.714
89858W        W61529  24.476  17.369  11.550
89859W        W61530  25.886   3.815   3.160
89860W        W61531  12.180  19.447   3.702
89861W        W61532  12.221  16.868  10.723
89862W        W61533  38.496  24.046   4.159
89863W        W61534  32.967   7.719   1.765
89864W        W61535   4.849   0.843   2.281
89865W        W61536  23.774  39.526   3.739
89866W        W61537   3.705  34.295  12.627
89867W        W61538  17.847  20.220   2.811
89868W        W61539   7.295  42.858   4.037
89869W        W61540  28.902  42.980   4.767
89870W        W61541  35.920  16.824  13.090
89871W        W61542  44.586  16.170   3.180
89872W        W61543  41.057   6.114  10.900
89873W        W61544   7.490  41.156  14.594
89874W        W61545  31.931   6.928  13.518
89875W        W61546  30.187  23.411   0.615
89876W        W61547  31.696  10.875   0.141
89877W        W61548  37.381  26.052   3.226
89878W        W61549  14.075  41.840   3.317
89879W        W61550  44.498  42.828  12.822
89880W        W61551  25.723   8.302   4.601
89881W        W61552  13.335  25.124   2.263
89882W        W61553   6.466  31.990  14.476
89883W        W61554  17.957  44.672   1.292
89884W        W61555  36.863  32.506  11.666
89885W        W61556  15.699   5.401   2.202
89886W        W61557  17.732   9.092  14.100
89887W        W61558  38.388  30.672   0.206
89888W        W61559  41.261  25.592  11.170
89889W        W61560  39.914   7.744  13.137
89890W        W61561   5.254   3.261   3.649
89891W        W61562  22.291  18.039   4.310
89892W        W61563  34.772  39.467  10.722
89893W        W61564  19.578   9.151  11.972
89894W        W61565  15.242  11.568   3.213
89895W        W61566  40.932  25.307   3.281
89896W        W61567  44.397  13.836   1.673
89897W        W61568  11.745  29.915  10.817
89898W        W61569  23.293  35.652   0.785
89899W        W61570  39.514   5.271   4.697
89900W        W61571  20.090  17.373   2.447
89901W        W61572   4.445  41.893  11.492
89902W        W61573  18.572   7.819   3.283
89903W        W61574  18.836   2.899   3.372
89904W        W61575  24.123  12.532  14.667
89905W        W61576  19.481  26.618  13.775
89906W        W61577  25.516  25.137  11.199
89907W        W61578  22.662  25.734  11.206
89908W        W61579  43.547  38.072   2.284
89909W        W61580  27.414  18.732  12.384
89910W        W61581   9.639  19.578  13.502
89911W        W61582  24.366  44.807   1.152
89912W        W61583  43.491  35.354  12.005
89913W        W61584  24.238   3.020   0.818
89914W        W61585   4.130   0.197   5.018
89915W        W61586  13.046  30.350  13.534
89916W        W61587  12.326  23.780  11.633
89917W        W61588   4.123   8.427  12.332
89918W        W61589  12.367  10.418  11.262
89919W        W61590   4.815  38.300   3.200
89920W        W61591  30.235   1.830  12.145
89921W        W61592  33.628  14.799   0.136
89922W        W61593  19.331  14.494  12.072
89923W        W61594   8.127  10.674  14.242
89924W        W61595   5.331  40.397   3.367
89925W        W61596   9.351  22.615   2.416
89926W        W61597  40.038  28.769   0.964
89927W        W61598  12.184  31.953   1.808
89928W        W61599  27.915  42.041   1.218
89929W        W61600  16.072  24.990  14.994
89930W        W61601  37.282  21.258   9.885
89931W        W61602   9.416  35.844  14.043
89932W        W61603  43.278  20.247   4.294
89933W        W61604  16.388   6.642   2.177
89934W        W61605  15.489  33.400  13.084
89935W        W61606  14.126   5.704  13.019
89936W        W61607  44.845  26.484  12.006
89937W        W61608  30.592  41.850   0.762
89938W        W61609  11.446  24.711   1.365
89939W        W61610  38.751   3.446  14.572
89940W        W61611  32.813  37.812  13.582
89941W        W61612  28.409   8.739   3.649
89942W        W61613  25.782  41.287  14.397
89943W        W61614  11.661  23.067  12.313
89944W        W61615  44.976   9.859  12.417
89945W        W61616   4.772  12.329  12.073
89946W        W61617   0.891  26.724   3.476
89947W        W61618  21.570  28.520  12.510
89948W        W61619  44.208   6.271  13.452
89949W        W61620   2.008  39.748   4.149
89950W        W61621  17.270  29.694  14.023
89951W        W61622  11.620  38.969  13.799
89952W        W61623  30.617  35.564  12.492
89953W        W61624  39.794  40.794  11.048
89954W        W61625   2.257  34.397   1.431
89955W        W61626  12.930   6.089  14.915
89956W        W61627  35.489  35.520  12.160
89957W        W61628  31.560  10.384   3.172
89958W        W61629  18.663   3.864   2.598
89959W        W61630  37.752   5.437   1.165
89960W        W61631  30.516  11.191  11.546
89961W        W61632  36.320  35.499   2.614
89962W        W61633  14.146   1.038  14.849
89963W        W61634   7.251   8.153  10.734
89964W        W61635  32.001  34.346  10.797
89965W        W61636  10.789  18.956  14.481
89966W        W61637  32.153  16.508   2.785
89967W        W61638  25.717  26.158   1.360
89968W        W61639  10.640  25.247   3.523
89969W        W61640  16.649  31.093  13.432
89970W        W61641  29.406  18.480  11.456
89971W        W61642  30.471  12.218  11.486
89972W        W61643   5.943  12.049   4.342
89973W        W61644  20.986  27.370  11.627
89974W        W61645  42.799   6.292   0.594
89975W        W61646  10.834   6.765  13.927
89976W        W61647  38.829  22.589   1.378
89977W        W61648  41.781  16.839   0.076
89978W        W61649  16.537  27.379  12.811
89979W        W61650  28.992  24.038   2.122
89980W        W61651   9.700   3.465   3.749
89981W        W61652  26.991  29.556  10.942
89982W        W61653  38.825  15.275  13.176
89983W        W61654  11.936  43.548   3.777
89984W        W61655  30.607  25.704   2.041
89985W        W61656  24.730  30.924   3.686
89986W        W61657  36.073  19.613   4.642
89987W        W61658  16.143   7.858   3.726
89988W        W61659  16.834  29.238  12.574
89989W        W61660   8.744   4.920   1.175
89990W        W61661  33.430  33.304  12.060
89991W        W61662  29.075  12.358   0.864
89992W        W61663  28.032   6.117  10.186
89993W        W61664  21.518  18.116   2.580
89994W        W61665  10.730  19.482  14.456
89995W        W61666   3.419   2.730   3.271
89996W        W61667  21.771  34.857  11.155
89997W        W61668  35.851  35.434   0.849
89998W        W61669  26.409  20.292  12.553
89999W        W61670  42.773  13.696   0.456
90000W        W61671  25.929  33.168  11.050
90001W        W61672  16.204   9.452  11.196
90002W        W61673  14.192  44.841   3.289
90003W        W61674  15.219  36.031  11.872
90004W        W61675  12.885   1.449   3.690
90005W        W61676  24.274   4.411  11.480
90006W        W61677  25.282  41.982  14.742
90007W        W61678  30.708  25.077  14.307
90008W        W61679  31.633  23.972   3.453
90009W        W61680  15.239   5.150   5.127
90010W        W61681  37.540  22.358  12.545
90011W        W61682  41.874  32.653   3.084
90012W        W61683   9.912  31.400   1.240
90013W        W61684  18.724   1.140  11.888
90014W        W61685  23.397   0.812  14.979
90015W        W61686  39.743  29.219  13.001
90016W        W61687  34.810  42.446   3.821
90017W        W61688  17.186  30.697  13.819
90018W        W61689  34.901  11.658   2.313
90019W        W61690   1.954  38.741   0.507
90020W        W61691  38.828   5.974   2.703
90021W        W61692  11.045  23.598   4.647
90022W        W61693  29.935  34.199   0.421
90023W        W61694  31.074  30.213   4.659
90024W        W61695  17.305  19.531  13.494
90025W        W61696   1.264   9.329   3.814
90026W        W61697   4.408  41.979   3.525
90027W        W61698  20.554  38.327  13.895
90028W        W61699  23.442  25.771  12.591
90029W        W61700  28.277  35.068   2.878
90030W        W61701   5.193  32.445  13.041
90031W        W61702   5.696   5.853  14.529
90032W        W61703  44.687  32.459   2.598
90033W        W61704  23.287  37.973   3.589
90034W        W61705  42.007  42.813   2.802
90035W        W61706  32.812  14.689  11.041
90036W        W61707  38.487  21.894  12.765
90037W        W61708  17.250  35.155  13.205
90038W        W61709  12.327  44.029  14.489
90039W        W61710  14.858  15.970  12.392
90040W        W61711   9.687   9.608  12.061
90041W        W61712  28.650  40.881  13.944
90042W        W61713   6.166  10.245   5.099
90043W        W61714   6.250  34.019  11.564
90044W        W61715   9.977  34.772   3.148
90045W        W61716  30.637   4.705   3.155
90046W        W61717  12.837   7.814  13.780
90047W        W61718  12.854  22.615  14.108
90048W        W61719  25.428   6.452   1.040
90049W        W61720  36.832   8.764   1.239
90050W        W61721  10.511  21.184  11.816
90051W        W61722   8.894  32.458  12.445
90052W        W61723   4.937   6.196  12.140
90053W        W61724  16.113  32.704   4.500
90054W        W61725  15.679  43.269  10.800
90055W        W61726  31.102  23.700  12.164
90056W        W61727  35.372   9.067  12.526
90057W        W61728  17.261  30.982  10.794
90058W        W61729   5.862  11.130   1.778
90059W        W61730  14.304  23.813   1.134
90060W        W61731  14.232  21.019   3.703
90061W        W61732  10.278  25.661  10.448
90062W        W61733  37.150  33.077   2.376
90063W        W61734  20.127  39.547   3.869
90064W        W61735   7.863  14.201  11.504
90065W        W61736  38.380  43.824   1.361
90066W        W61737  20.896   2.825   0.871
90067W        W61738  31.137  26.107   4.658
90068W        W61739  40.404  33.830  14.864
90069W        W61740  28.199  35.529   3.445
90070W        W61741   8.886  17.463  10.810
90071W        W61742   7.497  32.144  14.489
90072W        W61743  18.595   3.428   0.229
90073W        W61744  39.425  34.876  11.449
90074W        W61745  40.513  12.307  12.506
90075W        W61746  23.067  19.095   1.819
90076W        W61747  32.880  23.386  14.970
90077W        W61748  14.461   0.304  14.409
90078W        W61749  41.900  33.254   3.771
90079W        W61750   8.000  42.445   0.801
90080W        W61751  34.349  33.053  13.934
90081W        W61752  34.493   1.806   3.598
90082W        W61753  15.288  41.422  12.604
90083W        W61754  36.549  36.311   3.166
90084W        W61755   6.172  30.028   3.151
90085W        W61756  40.378  31.557  10.493
90086W        W61757  43.696  32.408  11.962
90087W        W61758  37.885  22.544  10.892
90088W        W61759  17.103  27.611  12.144
90089W        W61760  10.559  26.074   0.800
90090W        W61761  22.633   4.352  10.206
90091W        W61762  39.606  26.010   2.087
90092W        W61763  16.811  25.472  10.669
90093W        W61764   3.956  12.859  10.393
90094W        W61765  28.171  25.947   0.253
90095W        W61766   2.384  25.284  13.886
90096W        W61767  27.374  16.767  12.577
90097W        W61768  35.049  15.987   3.292
90098W        W61769   9.619   1.429   1.388
90099W        W61770  27.829  41.289  12.368
90100W        W61771  42.269  16.699   1.617
90101W        W61772  41.081  41.604  14.075
90102W        W61773  23.829   1.988   3.582
90103W        W61774  30.060   5.390   4.733
90104W        W61775  33.336   8.922  12.066
90105W        W61776  42.269  43.078  12.835
90106W        W61777  43.727   6.342   4.338
90107W        W61778  13.830  19.857  11.451
90108W        W61779  32.801  24.419   4.594
90109W        W61780   3.790  39.818   4.930
90110W        W61781  37.053  40.946   2.816
90111W        W61782  19.368  42.884   2.427
90112W        W61783  22.543  26.664   3.593
90113W        W61784   7.630   8.258  12.335
90114W        W61785  43.512  25.043  10.985
90115W        W61786  19.572  34.112   4.539
90116W        W61787  34.986   2.148   4.852
90117W        W61788  30.541  39.484  14.405
90118W        W61789   0.176  19.339   1.797
90119W        W61790   2.545  32.399  10.981
90120W        W61791  11.776  41.988   1.825
90121W        W61792  28.103   4.806   0.990
90122W        W61793  15.874  15.024   2.326
90123W        W61794  26.852  41.548  13.462
90124W        W61795  39.744  19.033   3.790
90125W        W61796  17.766  15.619   3.162
90126W        W61797  31.483  27.606   1.779
90127W        W61798   4.475  26.176  12.863
90128W        W61799  26.044  22.611   4.089
90129W        W61800  28.230  35.824  12.070
90130W        W61801  20.518  11.414  13.410
90131W        W61802  18.009  17.216   1.829
90132W        W61803  39.756  21.030   2.363
90133W        W61804  13.829  26.209   4.122
90134W        W61805  35.026  19.936  11.126
90135W        W61806  32.861  15.912  12.453
90136W        W61807  29.594  38.867   3.946
90137W        W61808  42.071  25.648   4.156
90138W        W61809  36.572   0.477  10.331
90139W        W61810  38.809  36.050  12.036
90140W        W61811   3.408  16.157  10.633
90141W        W61812  39.814  34.837  14.268
90142W        W61813  17.951  37.091   0.170
90143W        W61814   1.797   9.657   4.221
90144W        W61815   9.174   5.996   3.165
90145W        W61816  18.374  38.181  14.741
90146W        W61817  44.011  24.595  10.655
90147W        W61818  44.640  23.134   0.583
90148W        W61819  42.404   9.408   3.710
90149W        W61820  40.294  11.987  10.873
90150W        W61821  27.036  10.295   2.446
90151W        W61822  12.485   9.374  14.588
90152W        W61823  43.510  14.592   1.245
90153W        W61824  15.718  22.533   1.434
90154W        W61825   9.879  18.596   2.860
90155W        W61826   3.756  15.350   3.837
90156W        W61827   7.386  20.961   4.144
90157W        W61828   4.341  11.600  10.558
90158W        W61829  30.444  11.875   1.758
90159W        W61830  39.042  13.320   1.464
90160W        W61831   3.775   8.207  11.973
90161W        W61832   0.889  44.959   4.346
90162W        W61833  43.938  33.367  14.892
90163W        W61834  42.006   7.264  13.535
90164W        W61835   7.856  15.543  13.353
90165W        W61836  10.205  12.553   3.681
90166W        W61837  19.659  36.828   4.222
90167W        W61838  41.794  38.266   9.846
90168W        W61839  22.486  40.180  14.381
90169W        W61840  33.359  19.183   3.229
90170W        W61841  37.414  31.706   3.309
90171W        W61842  25.259  34.838   2.728
90172W        W61843   3.136  17.985  10.627
90173W        W61844  20.141  33.649  14.987
90174W        W61845  15.373   0.541   2.443
90175W        W61846  19.370  15.142   4.965
90176W        W61847  15.383  35.954   4.357
90177W        W61848   2.488  39.077   3.633
90178W        W61849  29.292  14.922   1.439
90179W        W61850  28.336  37.166   4.181
90180W        W61851  27.910  43.450  10.586
90181W        W61852   5.080   0.999   2.732
90182W        W61853  44.848  18.673   2.913
90183W        W61854  37.932  31.414  14.687
90184W        W61855  32.648  29.076   2.443
90185W        W61856  40.131  37.984  12.491
90186W        W61857  21.540  29.476   3.212
90187W        W61858  36.576  39.551   1.430
90188W        W61859   9.247   5.570  12.067
90189W        W61860  15.580   9.399   3.804
90190W        W61861   2.505  42.846  14.952
90191W        W61862  37.470  21.126  12.441
90192W        W61863  43.480   8.266  13.986
90193W        W61864  30.895  18.063   3.342
90194W        W61865  16.132  23.913  12.197
90195W        W61866  29.248   3.594   3.773
90196W        W61867  23.694  19.735   2.717
90197W        W61868  32.419  16.637   0.512
90198W        W61869  14.523   8.234  11.174
90199W        W61870  17.513   5.389   2.463
90200W        W61871  19.639   1.409  12.570
90201W        W61872  44.971  17.098   2.840
90202W        W61873  38.751  27.642   4.866
90203W        W61874   9.725  28.774  14.352
90204W        W61875  42.771  41.036   3.887
90205W        W61876  16.082   4.027  11.089
90206W        W61877   1.744   2.056   1.768
90207W        W61878  25.157  39.434  12.916
90208W        W61879  43.570  11.234  14.797
90209W        W61880  36.566  12.029  13.341
90210W        W61881  23.587  11.885   4.883
90211W        W61882   1.893  13.635   1.774
90212W        W61883  33.909  13.751   0.852
90213W        W61884   2.764  17.633   1.330
90214W        W61885   7.001  30.609   4.167
90215W        W61886  27.150  31.757   2.915
90216W        W61887  42.326  32.840  12.102
90217W        W61888  43.756  17.656   3.769
90218W        W61889  20.332   9.382   3.370
90219W        W61890  11.622  19.190  13.886
90220W        W61891  38.802   4.271  10.648
90221W        W61892   9.821  20.338  11.520
90222W        W61893   2.426  19.880  10.227
90223W        W61894  41.954   1.317  12.497
90224W        W61895  27.097   9.337   2.679
90225W        W61896  40.776  42.864  14.206
90226W        W61897  34.557  37.321  13.342
90227W        W61898  34.130  32.328  11.475
90228W        W61899  36.509   3.803   2.788
90229W        W61900   3.322  39.534  12.107
90230W        W61901  18.877  33.973   3.554
90231W        W61902  28.143  25.164   2.099
90232W        W61903  11.341   8.824  12.495
90233W        W61904  23.922  18.671  11.444
90234W        W61905  33.211  32.363   3.209
90235W        W61906  23.545  42.485  14.869
90236W        W61907  10.554  16.076  11.528
90237W        W61908  42.530  16.026   3.754
90238W        W61909  40.123  10.451   0.783
90239W        W61910  12.740  13.160   1.689
90240W        W61911  42.385  44.339  12.028
90241W        W61912  16.320  32.555  13.479
90242W        W61913  34.220  20.232   3.765
90243W        W61914  36.909  27.120   0.382
90244W        W61915  32.531   4.584   4.967
90245W        W61916  34.895   8.259   0.804
90246W        W61917  36.333  35.165  14.744
90247W        W61918  13.282  37.344   4.179
90248W        W61919   0.279   2.446  11.182
90249W        W61920   1.411  23.577  10.335
90250W        W61921   7.707  30.107  11.173
90251W        W61922   5.257   1.640   0.496
90252W        W61923  24.432  18.183  12.071
90253W        W61924  18.456  41.802   2.443
90254W        W61925  17.520  35.317  10.744
90255W        W61926   5.156  26.993  11.634
90256W        W61927   5.651  39.309   0.188
90257W        W61928   3.849  15.561   0.968
90258W        W61929  25.596  40.387  14.455
90259W        W61930  12.562  25.219   0.902
90260W        W61931   0.181  13.307   4.879
90261W        W61932  17.147  13.237   3.980
90262W        W61933   2.764  24.131   1.797
90263W        W61934  35.734  34.131  12.147
90264W        W61935  34.883  22.521  12.013
90265W        W61936  29.224  36.592  13.494
90266W        W61937   0.255  41.861   2.250
90267W        W61938  39.550  41.621  12.574
90268W        W61939  23.210   4.882   2.155
90269W        W61940   5.968  38.928  13.998
90270W        W61941  36.327  41.425   0.332
90271W        W61942  15.251   4.587   5.096
90272W        W61943   7.697  13.308   1.384
90273W        W61944   3.509  10.388   1.342
90274W        W61945  27.877   5.196   0.749
90275W        W61946  25.091   3.310   2.704
90276W        W61947  40.507  30.583  11.444
90277W        W61948  14.617  25.113  13.295
90278W        W61949  19.613  19.551   4.671
90279W        W61950  40.291  20.798  13.433
90280W        W61951  27.266  28.165   0.943
90281W        W61952  18.507  15.770   2.738
90282W        W61953  31.667  23.648  13.818
90283W        W61954   2.194   9.617  13.283
90284W        W61955  25.274  28.373  12.402
90285W        W61956   2.366  29.417   3.242
90286W        W61957  11.656  42.940   0.088
90287W        W61958  25.803  33.100  13.387
90288W        W61959  15.787  23.037   2.240
90289W        W61960  19.798   6.221   1.339
90290W        W61961   3.044   2.339  14.481
90291W        W61962  28.569  16.869  11.078
90292W        W61963  29.575  15.408  13.994
90293W        W61964   4.212   3.779   4.165
90294W        W61965   6.989  40.824   3.784
90295W        W61966  25.696  35.178  13.996
90296W        W61967  22.159   5.727  10.927
90297W        W61968   7.867  34.372   3.263
90298W        W61969  18.681  20.800   3.104
90299W        W61970  11.240  38.237   1.854
90300W        W61971  44.270  17.288   1.802
90301W        W61972  43.846  36.411  10.710
90302W        W61973  32.739  14.385   0.932
90303W        W61974  15.061  15.073   2.729
90304W        W61975  34.583  23.188  14.292
90305W        W61976  40.089  34.357  14.409
90306W        W61977  15.801  40.609  14.756
90307W        W61978  22.629  25.292   2.753
90308W        W61979  22.213   5.279  10.692
90309W        W61980  35.717  38.793   0.018
90310W        W61981  10.171  13.508  10.653
90311W        W61982  17.316  10.447   0.808
90312W        W61983  31.508   2.316  13.067
90313W        W61984  27.013   1.396  12.377
90314W        W61985  19.483  29.069  11.555
90315W        W61986  32.509  39.642  13.250
90316W        W61987  36.118  12.785  11.612
90317W        W61988  16.026  36.989  11.819
90318W        W61989  43.430  41.338   1.863
90319W        W61990  37.818  22.494   3.261
90320W        W61991   1.887  29.092   0.166
90321W        W61992  13.652  39.448  11.907
90322W        W61993  30.265  42.295  10.608
90323W        W61994  10.883  22.226   4.766
90324W        W61995  20.021   9.333  12.866
90325W        W61996  12.791  33.167   0.382
90326W        W61997  38.031  26.792   0.767
90327W        W61998  23.959   7.391  13.420
90328W        W61999   0.074  11.712  12.624
90329W        W62000  24.014   0.300  11.940
90330W        W62001  37.689  22.731  12.215
90331W        W62002  18.312  12.898  10.104
90332W        W62003  31.451  20.653   3.825
90333W        W62004   3.543  11.092   0.346
90334W        W62005  21.377   7.746   1.408
90335W        W62006  40.179  37.299  13.243
90336W        W62007  17.002   0.826   4.974
90337W        W62008   0.625  12.157   3.784
90338W        W62009  12.655  33.507  12.825
90339W        W62010  14.649  12.418   4.617
90340W        W62011   6.941  11.777  12.664
90341W        W62012  12.262  24.622  13.405
90342W        W62013  34.582   8.417   0.360
90343W        W62014   2.204  35.897   4.544
90344W        W62015   2.259  37.080   2.780
90345W        W62016   7.555  38.317  12.381
90346W        W62017  15.654  14.222  10.658
90347W        W62018  15.323   5.930   3.435
90348W        W62019  35.988   1.793  14.944
90349W        W62020  17.164  34.627   4.133
90350W        W62021   9.379   1.959  13.503
90351W        W62022  43.926  25.218  14.558
90352W        W62023  29.490  25.237  10.617
90353W        W62024  18.090  33.555   0.367
90354W        W62025   9.471  17.159  13.520
90355W        W62026   6.918  29.124   4.226
90356W        W62027   0.300  44.055  11.500
90357W        W62028  19.527  27.158  10.082
90358W        W62029   3.867  34.825  12.649
90359W        W62030  11.766   5.726   3.884
90360W        W62031  37.384   1.106  14.264
90361W        W62032  12.404  40.857  11.252
90362W        W62033  37.133  26.614  11.507
90363W        W62034  42.449  30.528  13.216
90364W        W62035  12.837  41.027  14.844
90365W        W62036  38.069  23.157   0.276
90366W        W62037  13.194   4.282  13.091
90367W        W62038  31.662   7.650  11.980
90368W        W62039  30.681  38.091   3.756
90369W        W62040  11.284  36.565   2.497
90370W        W62041  39.510  24.580  13.577
90371W        W62042  33.176  20.162  12.430
90372W        W62043  42.538   1.840   2.809
90373W        W62044  44.788   4.655  10.661
90374W        W62045  36.363  27.474   3.768
90375W        W62046  18.199  22.617  13.763
90376W        W62047  32.933  34.438   2.238
90377W        W62048  18.628  44.423   1.923
90378W        W62049   0.821  42.421   1.859
90379W        W62050  31.198  37.657  13.017
90380W        W62051   2.530  30.370  11.660
90381W        W62052  17.222  17.328   2.236
90382W        W62053  28.608  17.569   4.553
90383W        W62054   3.578  26.601   4.838
90384W        W62055  44.910  19.722  13.396
90385W        W62056  40.950  40.546  12.705
90386W        W62057  33.307  26.613  12.537
90387W        W62058  36.033  35.939  13.968
90388W        W62059   6.964   5.759   4.546
90389W        W62060  28.950  10.120   0.041
90390W        W62061  35.907   5.986   0.285
90391W        W62062  19.588  21.105  10.543
90392W        W62063  21.746  27.093   3.200
90393W        W62064  12.650  23.536   2.233
90394W        W62065  17.558   0.474  12.565
90395W        W62066   0.393  13.344  12.695
90396W        W62067  11.850  20.017  13.327
90397W        W62068   5.756  13.629  12.006
90398W        W62069  42.448  24.591  10.758
90399W        W62070   3.427  38.307  14.035
90400W        W62071  11.253  37.487  13.750
90401W        W62072  17.598  36.035  14.987
90402W        W62073  32.966  34.129  14.988
90403W        W62074  21.880  26.475   5.348
90404W        W62075  30.160  12.233   2.663
90405W        W62076  36.555  35.033  12.972
90406W        W62077  44.708  25.181   1.317
90407W        W62078  27.104  44.325  12.054
90408W        W62079  33.878  28.930   0.777
90409W        W62080   9.050  20.808   4.636
90410W        W62081  13.856  32.027   1.819
90411W        W62082  30.165  25.428   1.823
90412W        W62083  14.321  33.946   4.607
90413W        W62084   3.282  29.244  14.829
90414W        W62085  18.203  13.855  13.839
90415W        W62086  12.154  41.890  12.035
90416W        W62087  34.332  24.576  11.669
90417W        W62088  19.109  16.786   2.727
90418W        W62089  42.922  20.246   1.869
90419W        W62090  18.898  18.758  10.648
90420W        W62091  17.158   0.485  11.035
90421W        W62092  30.892  22.459   1.612
90422W        W62093  35.864  38.672  10.610
90423W        W62094  38.338  14.308  13.557
90424W        W62095  24.362  23.769   3.631
90425W        W62096   1.901   1.192   3.752
90426W        W62097  26.610  27.743   2.116
90427W        W62098  31.705  34.252  11.221
90428W        W62099  15.606  31.609   4.197
90429W        W62100  28.172  43.905  10.941
90430W        W62101  16.869  13.238  12.461
90431W        W62102  37.419  43.474   1.166
90432W        W62103  22.714  16.699  13.419
90433W        W62104  39.825  13.071  13.554
90434W        W62105  36.590  20.718  13.414
90435W        W62106  36.185  36.084   2.407
90436W        W62107  40.125  22.618   0.262
90437W        W62108  12.162   8.793  12.327
90438W        W62109  25.032  22.778   4.592
90439W        W62110  33.009   5.652  13.585
90440W        W62111  31.892  26.430   0.425
90441W        W62112   1.827  33.711   4.332
90442W        W62113  34.833  17.752   1.764
90443W        W62114  40.076  11.218  11.162
90444W        W62115  26.562  41.551   4.728
90445W        W62116  28.008  35.568   0.507
90446W        W62117  13.758  39.793  13.483
90447W        W62118  44.288   1.550   2.920
90448W        W62119  38.092  28.411   4.611
90449W        W62120  28.910   4.165   4.491
90450W        W62121   9.646   6.323  11.117
90451W        W62122  11.094   9.342  14.855
90452W        W62123  32.441  39.360  14.229
90453W        W62124  18.526  24.398  11.523
90454W        W62125  38.446  23.254  12.989
90455W        W62126  40.058   5.014  14.040
90456W        W62127   4.760  18.709   2.248
90457W        W62128  11.678  34.139  13.664
90458W        W62129  27.489  18.044  12.145
90459W        W62130  44.011  29.115   3.017
90460W        W62131  32.125  17.836   1.351
90461W        W62132  16.058   4.973   5.478
90462W        W62133  12.546   5.670  10.856
90463W        W62134  44.863  19.242   2.192
90464W        W62135  41.935  42.364  12.589
90465W        W62136  10.289  19.123   3.625
90466W        W62137  11.526  33.741   4.543
90467W        W62138   7.276   2.774  12.856
90468W        W62139   4.463  10.852  12.495
90469W        W62140  33.845  15.686  12.426
90470W        W62141  22.141  22.461   2.558
90471W        W62142  30.046  42.307   3.431
90472W        W62143  42.588  32.680   1.335
90473W        W62144  25.824  26.852   3.084
90474W        W62145   0.394  27.938   1.220
90475W        W62146   6.145   5.682   3.224
90476W        W62147  25.513  11.330   4.242
90477W        W62148  43.874  32.198   2.924
90478W        W62149  44.395  20.354  10.627
90479W        W62150  28.080  43.144   5.126
90480W        W62151   2.003  42.161  11.380
90481W        W62152  31.398  31.878  13.530
90482W        W62153  12.584  40.351  10.557
90483W        W62154  32.136  22.076  13.302
90484W        W62155  26.212  32.647  14.627
90485W        W62156  32.569  35.134  13.301
90486W        W62157  40.142  19.811  14.827
90487W        W62158  37.828  36.156  12.085
90488W        W62159  21.502  36.926  10.615
90489W        W62160  32.349  38.959   4.992
90490W        W62161  16.719  44.016   1.400
90491W        W62162  31.545  16.337   3.354
90492W        W62163  11.851   5.396  13.835
90493W        W62164  24.548   0.842  11.411
90494W        W62165   6.148  22.766  10.744
90495W        W62166   7.169  40.361  10.727
90496W        W62167  16.531   6.559   0.853
90497W        W62168  27.222  31.482  13.195
90498W        W62169  28.605  23.577   1.801
90499W        W62170   1.773  15.330   2.898
90500W        W62171  29.281   1.910  12.250
90501W        W62172   2.298  22.292  12.612
90502W        W62173   7.758  44.977   1.832
90503W        W62174   9.057  32.697   3.944
90504W        W62175  29.371  29.333   4.583
90505W        W62176  11.638   6.249  12.462
90506W        W62177  11.144  18.683   3.579
90507W        W62178  11.680  15.923   4.788
90508W        W62179  39.002  39.904  11.439
90509W        W62180  18.600  24.288   1.361
90510W        W62181  26.506  35.647   4.168
90511W        W62182  20.738  28.279  13.915
90512W        W62183   5.698   1.351  13.869
90513W        W62184  32.518   7.876   2.692
90514W        W62185  41.763  42.071   0.719
90515W        W62186  32.125  38.973  11.146
90516W        W62187   3.227  44.819   3.266
90517W        W62188  29.711   6.423  12.908
90518W        W62189  34.839   9.246  14.735
90519W        W62190  30.912  36.919   1.061
90520W        W62191  16.624  40.429  14.964
90521W        W62192  37.173   7.862   2.130
90522W        W62193  44.529   3.770  13.297
90523W        W62194   8.768  35.662  11.230
90524W        W62195  34.004  40.966   4.373
90525W        W62196  16.071  31.852   1.380
90526W        W62197  39.011  24.147  12.480
90527W        W62198  25.010  11.340  13.754
90528W        W62199  31.597  34.831  13.414
90529W        W62200  37.190  37.831   5.043
90530W        W62201  38.229   2.837  10.742
90531W        W62202  43.781  18.550  13.726
90532W        W62203  44.423  38.253   2.675
90533W        W62204  44.291   8.138  12.072
90534W        W62205   0.972  41.601   1.939
90535W        W62206  44.495  16.629  12.983
90536W        W62207  39.239  16.298   4.191
90537W        W62208   2.310  36.065   3.671
90538W        W62209  10.679  15.299  13.529
90539W        W62210  42.773  31.336   2.232
90540W        W62211  41.961  29.454  14.213
90541W        W62212  19.647  17.588  10.395
90542W        W62213  20.491   4.946   4.850
90543W        W62214  19.593  21.072   1.821
90544W        W62215  44.547  21.541  11.532
90545W        W62216  18.125  26.707   1.267
90546W        W62217   7.425  40.948  14.103
90547W        W62218  27.547  10.181   1.308
90548W        W62219  13.036   9.333  10.618
90549W        W62220  36.923  36.087   2.811
90550W        W62221  40.729   4.147   5.088
90551W        W62222  20.886  37.815  12.975
90552W        W62223   0.036   5.786   0.885
90553W        W62224  39.801  20.865   1.658
90554W        W62225  29.387  22.441  12.521
90555W        W62226  12.961  37.792  11.168
90556W        W62227  27.452  25.429   1.952
90557W        W62228  22.941  43.950  11.708
90558W        W62229  16.567  14.224   5.214
90559W        W62230  23.471  18.186   2.462
90560W        W62231  36.005   6.270   1.825
90561W        W62232  22.912  13.724   0.318
90562W        W62233   2.001  42.354  13.501
90563W        W62234  25.604  18.801   1.417
90564W        W62235  15.142   0.250   1.732
90565W        W62236  42.306   5.343   1.357
90566W        W62237   7.447  13.936   1.828
90567W        W62238  33.335  44.853  12.846
90568W        W62239  17.444  25.818   4.208
90569W        W62240   8.847   2.670   4.567
90570W        W62241  15.740  36.063  13.006
90571W        W62242  14.445   5.160  14.880
90572W        W62243  13.108   8.334  13.812
90573W        W62244  25.127  11.405   3.913
90574W        W62245  27.186  22.334   2.412
90575W        W62246  17.736   2.276   2.286
90576W        W62247  37.499  29.003   1.415
90577W        W62248  22.920  38.361   3.676
90578W        W62249  38.247  10.206  10.852
90579W        W62250  33.456   3.197  14.324
90580W        W62251  18.119   6.916   3.989
90581W        W62252  40.559  30.614  13.983
90582W        W62253  23.530  39.996  14.293
90583W        W62254  43.797  13.033  14.773
90584W        W62255  19.598  44.024   2.474
90585W        W62256  30.600  19.251  13.622
90586W        W62257  24.694  32.588   0.965
90587W        W62258  24.733  24.516  11.088
90588W        W62259  19.676  18.653  14.939
90589W        W62260  26.670  29.260  10.136
90590W        W62261  42.315   9.341  12.027
90591W        W62262  33.084   6.896  13.982
90592W        W62263  17.883  18.588   0.205
90593W        W62264  19.128  23.440   4.288
90594W        W62265  38.122  41.629   3.667
90595W        W62266   4.990  31.889  14.781
90596W        W62267   1.057  31.764   0.805
90597W        W62268   8.915  21.656  14.426
90598W        W62269  10.120   4.634  10.952
90599W        W62270   9.391  13.871   3.707
90600W        W62271   5.200  31.434  14.921
90601W        W62272  19.109   1.940   4.543
90602W        W62273   1.771  42.775   3.709
90603W        W62274  39.350  29.050   1.145
90604W        W62275  31.192  10.922   3.265
90605W        W62276  19.687  20.955   2.360
90606W        W62277  30.547  40.350  10.614
90607W        W62278  32.464  41.282   3.192
90608W        W62279  16.808  31.893   3.867
90609W        W62280  15.601  42.833  12.837
90610W        W62281  43.421  17.196   2.077
90611W        W62282   1.765  31.895  12.604
90612W        W62283  22.308   1.962  12.454
90613W        W62284  40.512  27.028  12.039
90614W        W62285   5.764   3.919  13.799
90615W        W62286  16.628  29.944  14.922
90616W        W62287  22.525  17.688  12.937
90617W        W62288  44.063  11.064  13.944
90618W        W62289   8.830  35.075   2.791
90619W        W62290  18.755   6.862   0.495
90620W        W62291  13.656   9.208  13.051
90621W        W62292  34.356  34.630   3.826
90622W        W62293   0.694  19.286  13.852
90623W        W62294  40.735  43.206   4.335
90624W        W62295   9.644  36.920   0.014
90625W        W62296  37.078  38.618  10.610
90626W        W62297  22.283  11.564  11.156
90627W        W62298  16.227  27.100   2.679
90628W        W62299  30.670  40.403  12.894
90629W        W62300  36.390  42.391   2.338
90630W        W62301   6.903   4.862  13.962
90631W        W62302  34.928   7.658   3.708
90632W        W62303  17.092  27.782  13.100
90633W        W62304  41.813  24.329  14.349
90634W        W62305  17.130  15.744   0.808
90635W        W62306  26.847  37.480  13.967
90636W        W62307  32.203  36.181   2.853
90637W        W62308  35.868  32.862   3.701
90638W        W62309  29.682  12.193  12.614
90639W        W62310  19.221  41.818   4.551
90640W        W62311  20.043  23.477   2.726
90641W        W62312  40.281  30.207  12.203
90642W        W62313   7.864  43.909   1.133
90643W        W62314  29.711  17.007   0.431
90644W        W62315   7.655  33.397   0.855
90645W        W62316  25.781   1.796  14.063
90646W        W62317   2.560  34.044   2.321
90647W        W62318  27.687  44.766  10.726
90648W        W62319   2.766  34.544   2.188
90649W        W62320   0.919  13.516   4.247
90650W        W62321   8.476  31.129  14.849
90651W        W62322   1.378  20.581  12.704
90652W        W62323  31.355  16.372   0.537
90653W        W62324  25.674  13.554  14.314
90654W        W62325  42.500  44.482   3.241
90655W        W62326  34.045  34.396   1.890
90656W        W62327  16.028  13.002   3.205
90657W        W62328  19.162   0.982   4.558
90658W        W62329  17.735  16.110  11.494
90659W        W62330  24.680  42.507   0.895
90660W        W62331   5.254  25.457   1.658
90661W        W62332  15.483  10.358   2.749
90662W        W62333  18.790  30.297   1.368
90663W        W62334  12.212  42.703   2.065
90664W        W62335   8.658   6.171   3.911
90665W        W62336  31.947  10.396  11.207
90666W        W62337   7.806   1.075   4.735
90667W        W62338  34.956  10.551   9.879
90668W        W62339  31.490  31.181  12.136
90669W        W62340   7.291  36.509  12.533
90670W        W62341   1.985  24.505  13.978
90671W        W62342  35.617  37.958  12.357
90672W        W62343  12.287  24.515  11.122
90673W        W62344  17.242  14.659   4.616
90674W        W62345  20.710  20.674  13.537
90675W        W62346  16.306  10.224   4.776
90676W        W62347   9.197  20.470  11.626
90677W        W62348  35.157  12.273  14.296
90678W        W62349  43.537  37.687  11.026
90679W        W62350   0.989  33.050  10.689
90680W        W62351  31.193   4.242   3.257
90681W        W62352  11.938  40.780  13.014
90682W        W62353  37.080  36.500   4.904
90683W        W62354  29.101  28.217   4.044
90684W        W62355  41.379   6.376   0.268
90685W        W62356  28.533   7.737  10.702
90686W        W62357  23.972  39.239  13.364
90687W        W62358  36.132  11.442   3.134
90688W        W62359  38.714  29.035  14.297
90689W        W62360  44.285  43.792  11.146
90690W        W62361  25.659  32.220  11.995
90691W        W62362  28.533  44.351   1.305
90692W        W62363  29.129  37.194   2.094
90693W        W62364  31.804   8.536   5.004
90694W        W62365  37.091  28.727  11.946
90695W        W62366  41.416  13.055  11.941
90696W        W62367  34.099  14.313  14.032
90697W        W62368   4.221  31.906   0.211
90698W        W62369  15.530   6.401   3.646
90699W        W62370  39.295   9.249  10.797
90700W        W62371  34.311   8.847  12.905
90701W        W62372  43.302  38.356   1.902
90702W        W62373  10.638  32.146  11.852
90703W        W62374  34.890   8.243   4.250
90704W        W62375  14.711  23.639  12.043
90705W        W62376  31.052   8.582   1.540
90706W        W62377  28.005  35.933  11.626
90707W        W62378  34.317  36.869  13.126
90708W        W62379  25.698   1.438  13.555
90709W        W62380  32.321  42.905   4.838
90710W        W62381   7.691   2.424   2.357
90711W        W62382   8.577  26.386   0.463
90712W        W62383  19.334  12.820  11.702
90713W        W62384  30.653   0.529   3.329
90714W        W62385  32.623   7.973  14.502
90715W        W62386   4.189  16.492  11.736
90716W        W62387  43.223  33.840  14.489
90717W        W62388  44.746  42.946   4.133
90718W        W62389  42.015  29.134   2.871
90719W        W62390  17.837  33.889   3.067
90720W        W62391  37.057  27.981   2.820
90721W        W62392  19.122   9.209   1.876
90722W        W62393  40.392  27.134   0.432
90723W        W62394  16.286  16.187   3.863
90724W        W62395  14.273  10.526   2.126
90725W        W62396   6.918  22.696  12.372
90726W        W62397   8.232   4.963   3.307
90727W        W62398  37.305  15.868   4.678
90728W        W62399  23.777  13.748  14.288
90729W        W62400  41.137   2.347  11.582
90730W        W62401  32.509  12.704   3.280
90731W        W62402  38.170   4.031  13.973
90732W        W62403  41.366  36.713  11.647
90733W        W62404   5.355   0.704  13.827
90734W        W62405  28.261   3.700  11.103
90735W        W62406  26.149  27.518  12.282
90736W        W62407   9.654  35.940  10.711
90737W        W62408  14.195  23.680  11.435
90738W        W62409  14.279   2.664   1.801
90739W        W62410   7.437  30.994   0.983
90740W        W62411  32.412  17.874  13.375
90741W        W62412  26.580  13.751  12.834
90742W        W62413  25.883  38.250   2.228
90743W        W62414  13.290  33.537   1.475
90744W        W62415  35.347  43.453  12.992
90745W        W62416  41.493  42.985  13.485
90746W        W62417  26.779  23.747   0.336
90747W        W62418  37.863  23.687   0.878
90748W        W62419  40.999  19.102   0.408
90749W        W62420  24.217  31.077   3.677
90750W        W62421   8.500  31.551   3.270
90751W        W62422   2.803  37.936   2.622
90752W        W62423  13.203  10.986   1.695
90753W        W62424  44.962  29.702   4.905
90754W        W62425  44.725   8.859  11.879
90755W        W62426  13.531  43.026  11.608
90756W        W62427  14.576  29.006  13.466
90757W        W62428  20.014  10.826  12.513
90758W        W62429  43.805  41.297  10.515
90759W        W62430  10.728   7.577   2.237
90760W        W62431  24.002  13.201   0.358
90761W        W62432  17.202  15.746  13.995
90762W        W62433  38.847  14.518  10.243
90763W        W62434  24.689  31.445  11.049
90764W        W62435  29.150  11.902   1.098
90765W        W62436  25.500  22.116  13.485
90766W        W62437   0.447  35.821   1.937
90767W        W62438  18.210  21.272  13.888
90768W        W62439  22.654  28.662   4.324
90769W        W62440   5.218  22.352   2.162
90770W        W62441  32.340  30.139   1.856
90771W        W62442  20.717  25.044  14.022
90772W        W62443   9.691  27.514  14.718
90773W        W62444  40.460  14.844   0.892
90774W        W62445   7.913   0.669  13.314
90775W        W62446  19.234  42.364   2.162
90776W        W62447   0.585  16.311   3.235
90777W        W62448  39.413  42.083  12.381
90778W        W62449   2.956  19.205  14.090
90779W        W62450  22.648  34.545   2.817
90780W        W62451  25.948  38.087  13.390
90781W        W62452   1.773  34.547   2.378
90782W        W62453   3.749  26.157   3.991
90783W        W62454   3.651   2.464   2.461
90784W        W62455  25.715   0.220  13.969
90785W        W62456  24.324  35.572  14.147
90786W        W62457  17.190  31.503   0.367
90787W        W62458   4.201  41.933  10.500
90788W        W62459  37.435  38.931   3.871
90789W        W62460  19.346  37.304   2.662
90790W        W62461  43.788  10.780  14.997
90791W        W62462  40.019  21.588   0.944
90792W        W62463  27.367  26.124  13.951
90793W        W62464  21.887  22.234   3.473
90794W        W62465   0.354  24.615   0.727
90795W        W62466   1.084  27.993  12.447
90796W        W62467   2.209  15.739   1.670
90797W        W62468  17.097   7.175   4.772
90798W        W62469  29.497   0.353   3.777
90799W        W62470  25.861  28.976   0.956
90800W        W62471  12.331  12.625  12.178
90801W        W62472   7.843   3.531  14.833
90802W        W62473   9.305  24.685   2.747
90803W        W62474  35.511  16.948  14.378
90804W        W62475  16.125  20.059  11.353
90805W        W62476   6.375  27.561  12.910
90806W        W62477  42.702  43.361   1.688
90807W        W62478  19.520  43.674   0.530
90808W        W62479  13.719  24.730  12.507
90809W        W62480  40.568  10.886  13.499
90810W        W62481  31.626  25.107  12.709
90811W        W62482   2.927  10.255   1.143
90812W        W62483  39.985  35.172   2.284
90813W        W62484  26.258  23.238   2.834
90814W        W62485   3.811  21.040  14.109
90815W        W62486   3.952  32.979  13.452
90816W        W62487  26.694  22.306  13.162
90817W        W62488  10.282  41.441   4.557
90818W        W62489  10.212  13.089   4.685
90819W        W62490   2.117   3.883  12.128
90820W        W62491  27.979  29.515  12.373
90821W        W62492  17.268  36.608  12.623
90822W        W62493   8.179  32.946   2.693
90823W        W62494  35.509  21.050   3.673
90824W        W62495  17.413   8.129  12.049
90825W        W62496  16.560  19.987   4.218
90826W        W62497   6.147  38.354   2.725
90827W        W62498  38.270  25.393  14.546
90828W        W62499  31.987  26.730   0.838
90829W        W62500  44.774   7.895   4.586
90830W        W62501   3.711  32.508   0.758
90831W        W62502  17.758  31.160  13.354
90832W        W62503   1.247   2.403   4.168
90833W        W62504  20.027  23.983   1.424
90834W        W62505  17.085  13.023   4.508
90835W        W62506  34.285  31.075  14.925
90836W        W62507   7.630  24.238  14.304
90837W        W62508  29.086  29.453  10.576
90838W        W62509  17.225  35.491   3.077
90839W        W62510  43.598  25.432   2.054
90840W        W62511  10.845  42.572   4.160
90841W        W62512  29.649  41.123  12.990
90842W        W62513  14.086  21.980   2.172
90843W        W62514  14.321   0.426   0.743
90844W        W62515  27.689  28.983  12.134
90845W        W62516  16.981  17.657   1.434
90846W        W62517  16.688  20.641  10.719
90847W        W62518  25.790  42.895  13.854
90848W        W62519  37.123  14.717  11.571
90849W        W62520  10.150  35.852   1.867
90850W        W62521   1.329   5.258   1.390
90851W        W62522  21.325  39.420   1.160
90852W        W62523  41.418  15.254   2.616
90853W        W62524   6.161  24.181   4.083
90854W        W62525  44.376  15.751  14.476
90855W        W62526   9.009  43.648   4.262
90856W        W62527  36.043  12.492  13.923
90857W        W62528   2.778  14.979  10.794
90858W        W62529  23.097  12.402  12.987
90859W        W62530  26.092  31.476   3.231
90860W        W62531   0.331  42.417   4.686
90861W        W62532  22.209   7.300  14.272
90862W        W62533  28.375  25.266   1.365
90863W        W62534  28.395  23.143   3.015
90864W        W62535  42.519  21.178   1.783
90865W        W62536   1.883  24.334   2.639
90866W        W62537  39.428  44.271  13.943
90867W        W62538  12.614  14.202  12.412
90868W        W62539  17.058  24.930   1.637
90869W        W62540  21.704  20.692  14.954
90870W        W62541   2.811  40.360  10.973
90871W        W62542   9.160  17.917  14.741
90872W        W62543  27.561  34.568   3.212
90873W        W62544  22.099  16.469  14.502
90874W        W62545   8.330  21.109  13.350
90875W        W62546  14.403  28.068   2.199
90876W        W62547   4.800  12.753  12.375
90877W        W62548  39.923  42.697   1.989
90878W        W62549   7.302  21.406  14.260
90879W        W62550  10.593   9.325  13.921
90880W        W62551  12.508  13.779  13.046
90881W        W62552  18.277  41.379  10.800
90882W        W62553  31.869   1.242  10.671
90883W        W62554   9.802  28.639  13.850
90884W        W62555  10.227   0.498   0.374
90885W        W62556  29.585  38.411   2.396
90886W        W62557  37.457  36.556  11.105
90887W        W62558  29.861  13.231   3.696
90888W        W62559   7.207  36.127  12.139
90889W        W62560  12.115  36.793   0.779
90890W        W62561  31.975  18.501  10.710
90891W        W62562  29.459  22.794   2.335
90892W        W62563  15.380  44.310   4.114
90893W        W62564   7.265  13.856  12.827
90894W        W62565  27.442   7.346   1.873
90895W        W62566   5.403  42.900  13.304
90896W        W62567  25.808   2.663   2.749
90897W        W62568  27.190  39.081   0.258
90898W        W62569  27.556  14.588   0.432
90899W        W62570  18.817  42.331   3.824
90900W        W62571  25.571   9.222   1.831
90901W        W62572  20.331  18.187  14.697
90902W        W62573  18.160   2.985   1.798
90903W        W62574  16.300  13.275  10.721
90904W        W62575  16.099  20.113  14.326
90905W        W62576  23.740  23.117   1.133
90906W        W62577  28.221  28.203  14.379
90907W        W62578  32.145  25.098   2.868
90908W        W62579  36.339  23.692  10.199
90909W        W62580  10.816  37.745   2.248
90910W        W62581  32.745  35.946   1.860
90911W        W62582  38.117  36.991  12.487
90912W        W62583   1.369  35.989  13.027
90913W        W62584  19.736  34.579   4.356
90914W        W62585  42.495  29.475   0.705
90915W        W62586  28.244  10.404  11.176
90916W        W62587   0.929  39.088  12.259
90917W        W62588  28.673  44.484  11.586
90918W        W62589  15.347   3.441  10.078
90919W        W62590  15.624   7.797  13.111
90920W        W62591  24.670   8.860  11.144
90921W        W62592  17.831   0.008  10.781
90922W        W62593  23.484  34.044  11.800
90923W        W62594  25.337  34.377  13.741
90924W        W62595   7.209  32.087  10.245
90925W        W62596  34.303  22.493   1.130
90926W        W62597   4.267   9.913   0.282
90927W        W62598   0.427  26.498   4.715
90928W        W62599  19.606  21.589   0.073
90929W        W62600  17.666  13.814  10.662
90930W        W62601   3.358  25.656  14.525
90931W        W62602   3.367  35.859   0.992
90932W        W62603  33.365  13.799   1.029
90933W        W62604  42.456  27.491  12.478
90934W        W62605  23.278  36.569   3.247
90935W        W62606  19.574  13.317   4.167
90936W        W62607  17.308  22.529   0.866
90937W        W62608  42.943  33.323   2.919
90938W        W62609  22.761  27.256   2.864
90939W        W62610  23.678  15.793  13.951
90940W        W62611   7.143  10.822  12.866
90941W        W62612  40.072  12.149   1.261
90942W        W62613  13.765  43.035  12.081
90943W        W62614  35.347  36.060  11.898
90944W        W62615  27.645   5.821   5.524
90945W        W62616  27.588  39.602   3.917
90946W        W62617  15.854   2.387   3.062
90947W        W62618  30.092  12.423  11.209
90948W        W62619   8.385  39.509   4.566
90949W        W62620  30.339  10.074  12.354
90950W        W62621  28.893  29.369  13.550
90951W        W62622  24.754  34.329  12.082
90952W        W62623  42.157  25.500   1.924
90953W        W62624  38.778   9.780   4.216
90954W        W62625   9.762   6.628   4.171
90955W        W62626   9.366  42.283  14.019
90956W        W62627  32.077   2.296  14.094
90957W        W62628  22.662   3.767   2.200
90958W        W62629   0.995  10.131  13.263
90959W        W62630   7.367  12.255   0.938
90960W        W62631  19.193   3.933   4.417
90961W        W62632  33.083   1.836  13.444
90962W        W62633  38.403  36.938   2.726
90963W        W62634  36.775  14.051   5.053
90964W        W62635   1.389   8.652  12.192
90965W        W62636  31.104  29.101   3.699
90966W        W62637  16.708   7.228   2.092
90967W        W62638   2.612   5.700   2.739
90968W        W62639  20.658  15.394  11.614
90969W        W62640  11.052  21.552  11.351
90970W        W62641  32.497  17.036  11.910
90971W        W62642  38.362  10.738   4.408
90972W        W62643  33.228  42.790  13.094
90973W        W62644  10.160  23.068  14.989
90974W        W62645  28.271  11.238   1.743
90975W        W62646   8.620  20.392   0.614
90976W        W62647  32.526   4.976   3.627
90977W        W62648  20.449  28.261   3.750
90978W        W62649  30.028  34.487  13.364
90979W        W62650  22.396   9.739   0.752
90980W        W62651  40.405  22.878   0.737
90981W        W62652  34.626  36.014   2.352
90982W        W62653  12.690  31.510  10.720
90983W        W62654  15.304   9.167  10.701
90984W        W62655  24.536  20.235  11.030
90985W        W62656  15.613  20.188   0.991
90986W        W62657  43.946   4.669   4.647
90987W        W62658  22.288   8.428  11.554
90988W        W62659  31.564  42.360   0.442
90989W        W62660  15.091   1.710   2.433
90990W        W62661   3.129  22.911  12.212
90991W        W62662  40.145   9.385   4.175
90992W        W62663   3.881  38.529  12.378
90993W        W62664  36.777  23.717  14.113
90994W        W62665  35.843  22.022  13.749
90995W        W62666  32.416  34.884  12.038
90996W        W62667  26.050   8.547  13.175
90997W        W62668  33.852  24.774  12.035
90998W        W62669  25.246   5.412  14.012
90999W        W62670  40.395  42.825   3.451
91000W        W62671   8.767  24.979  11.902
91001W        W62672   7.593  33.886   3.200
91002W        W62673  30.457  26.616   2.489
91003W        W62674  13.869  11.247  12.065
91004W        W62675   5.783  11.823  10.305
91005W        W62676  32.463  18.077  11.209
91006W        W62677  23.972  17.758   4.166
91007W        W62678  41.869  34.302   3.677
91008W        W62679  18.080  38.480   1.870
91009W        W62680  24.744   9.386   4.145
91010W        W62681  33.543  34.547  10.082
91011W        W62682  33.134  12.413   1.681
91012W        W62683   5.055  17.630   2.811
91013W        W62684  28.753  14.429   1.413
91014W        W62685  36.970  16.573   2.842
91015W        W62686  27.044  23.551  10.720
91016W        W62687  33.628  11.090   2.612
91017W        W62688  19.191  43.242   1.635
91018W        W62689  32.880  39.999  14.095
91019W        W62690   0.158  37.959  11.379
91020W        W62691  34.328  26.256   3.317
91021W        W62692  40.451  21.524  11.499
91022W        W62693  44.465   4.543   1.677
91023W        W62694  37.288  29.391   5.043
91024W        W62695  17.849  40.398   2.442
91025W        W62696   4.758  14.778   4.117
91026W        W62697  39.106   6.638  12.987
91027W        W62698  12.565   2.484   2.049
91028W        W62699  17.800  32.823   3.870
91029W        W62700  38.898  11.749  14.633
91030W        W62701  22.604  32.176  10.678
91031W        W62702   4.866  30.321  12.293
91032W        W62703  19.118   2.513  13.281
91033W        W62704   9.612  15.625  11.571
91034W        W62705  35.806   6.141  11.058
91035W        W62706  41.601   6.687   4.571
91036W        W62707  14.316   3.542   4.246
91037W        W62708   8.818  39.131   0.312
91038W        W62709  30.448   8.596  10.952
91039W        W62710  34.578  43.264  13.902
91040W        W62711  34.954   4.990   0.446
91041W        W62712  30.528   8.562   0.800
91042W        W62713   6.614  12.735  14.884
91043W        W62714  22.498  36.836   0.243
91044W        W62715  22.661  12.613   4.603
91045W        W62716  44.485  41.924   3.842
91046W        W62717  41.487  22.048  12.873
91047W        W62718  19.252   0.006  12.658
91048W        W62719   3.780  18.135   2.794
91049W        W62720  20.201  31.928  13.589
91050W        W62721  41.100   1.708  13.899
91051W        W62722  18.304  34.050   0.380
91052W        W62723  14.309  23.608  13.792
91053W        W62724  24.518   8.670   2.260
91054W        W62725   4.394  34.659  10.669
91055W        W62726  10.671  39.839   0.458
91056W        W62727  26.518  16.253   4.116
91057W        W62728  22.630  27.692   1.372
91058W        W62729   5.839  27.630  13.635
91059W        W62730   4.196   7.907   2.322
91060W        W62731  37.926  13.404  12.696
91061W        W62732   4.824   9.011  14.300
91062W        W62733   4.839   2.185   1.093
91063W        W62734  12.160  24.653   4.640
91064W        W62735  11.955  31.870  14.624
91065W        W62736  34.515  30.072  13.474
91066W        W62737   3.752  29.515   0.414
91067W        W62738  12.296  26.692  10.983
91068W        W62739  36.975  40.293   1.164
91069W        W62740  20.271  27.339   1.281
91070W        W62741  41.336   9.807  11.597
91071W        W62742   0.750   3.907   3.293
91072W        W62743   0.368  28.561   2.337
91073W        W62744   9.264  33.835  10.750
91074W        W62745  19.956  32.483   1.368
91075W        W62746  29.680  13.095  12.595
91076W        W62747  27.655  30.296   0.094
91077W        W62748   9.489  37.346  11.124
91078W        W62749  21.558  16.014   1.623
91079W        W62750  20.575  14.748   2.535
91080W        W62751  31.451  19.650   1.253
91081W        W62752   0.521   2.791   3.891
91082W        W62753  34.976  25.276   4.985
91083W        W62754  40.251  12.423   3.916
91084W        W62755  33.830  10.792  12.967
91085W        W62756   6.442  16.754  11.146
91086W        W62757  11.758  26.077  11.000
91087W        W62758   3.989  13.350  12.199
91088W        W62759  25.999  12.658  14.464
91089W        W62760  15.165  29.463   2.961
91090W        W62761  35.102  30.367   0.895
91091W        W62762   5.932  22.279  10.663
91092W        W62763  10.226   2.272  11.093
91093W        W62764  25.410   3.972  11.218
91094W        W62765   7.741  17.611   2.130
91095W        W62766   2.152  36.554   3.598
91096W        W62767  37.509  33.963   3.183
91097W        W62768  37.365   3.288   3.672
91098W        W62769   6.173  25.429  11.446
91099W        W62770   6.421  22.475   4.585
91100W        W62771   9.767  38.457  14.358
91101W        W62772   7.976  32.096  12.473
91102W        W62773  16.987   0.898   3.701
91103W        W62774   3.465  33.231   0.305
91104W        W62775  19.176  38.328   0.699
91105W        W62776  21.641  11.853  12.461
91106W        W62777   6.494  21.269   1.768
91107W        W62778  35.931  21.660   2.978
91108W        W62779  37.075  26.239  11.082
91109W        W62780  39.632  17.096   3.676
91110W        W62781   8.205  35.688   1.753
91111W        W62782  39.799  34.144   4.123
91112W        W62783  19.329  19.107   1.886
91113W        W62784  21.285   3.816   0.211
91114W        W62785   8.506   7.107   3.216
91115W        W62786  35.359  19.324   0.400
91116W        W62787  34.825  28.624  11.394
91117W        W62788  15.180  29.144   1.346
91118W        W62789  28.980  38.847  12.107
91119W        W62790  34.580  12.369   4.167
91120W        W62791  22.529  33.918   4.629
91121W        W62792   2.211  25.267   2.807
91122W        W62793  17.714  44.330   3.123
91123W        W62794  16.614   5.211   2.377
91124W        W62795  27.170   6.906   1.832
91125W        W62796  31.053  20.260   0.637
91126W        W62797  43.733  40.262   0.420
91127W        W62798  37.278  44.268   0.284
91128W        W62799   8.731  37.569   2.785
91129W        W62800   5.962  16.058   4.787
91130W        W62801  41.460  21.497   0.366
91131W        W62802  24.583   9.358  11.072
91132W        W62803   7.902  34.869  14.925
91133W        W62804   8.254  25.943   2.222
91134W        W62805  22.940  17.959   0.304
91135W        W62806  41.164  32.941  11.668
91136W        W62807  39.914  28.116  12.575
91137W        W62808  44.756  25.555  10.999
91138W        W62809  38.111  22.602   4.530
91139W        W62810  36.748  43.532  14.566
91140W        W62811  26.123  29.518   0.335
91141W        W62812  11.027  17.132  11.221
91142W        W62813  13.696   2.576   3.351
91143W        W62814  43.332  39.361   0.811
91144W        W62815  20.997  22.692   5.055
91145W        W62816  27.470  40.280  11.007
91146W        W62817  12.688   1.468  11.480
91147W        W62818  43.290  30.896   2.785
91148W        W62819  26.581  29.874   1.310
91149W        W62820  36.125  38.443   1.284
91150W        W62821   4.436  42.783  11.498
91151W        W62822  13.216  41.631   4.694
91152W        W62823  25.128  17.363  13.544
91153W        W62824   2.427  20.223   5.388
91154W        W62825  30.647  40.887   1.179
91155W        W62826  38.130  44.535  11.095
91156W        W62827  14.109   8.454   0.385
91157W        W62828  15.146  41.465   2.904
91158W        W62829  26.049   7.804   3.603
91159W        W62830   8.213  12.595   4.098
91160W        W62831  31.056  16.002   3.280
91161W        W62832  31.181  44.322  14.955
91162W        W62833  40.446   2.872   4.725
91163W        W62834   6.457  41.276  14.869
91164W        W62835  29.568  24.404   4.695
91165W        W62836   7.666  21.508   1.851
91166W        W62837  29.909  11.742  12.616
91167W        W62838  42.729  17.360   0.900
91168W        W62839  26.273  24.664   0.373
91169W        W62840  33.347   8.315   0.803
91170W        W62841   9.662  17.101  11.071
91171W        W62842   2.417  17.139   0.275
91172W        W62843  42.691  33.163  10.313
91173W        W62844  18.513  41.908   3.694
91174W        W62845   6.427   0.956   1.476
91175W        W62846  30.605  37.030   4.650
91176W        W62847   3.779  41.887  10.830
91177W        W62848  42.391  30.793  13.859
91178W        W62849   5.260  18.461   2.055
91179W        W62850  25.780  12.887   4.094
91180W        W62851  21.168  33.481   0.478
91181W        W62852  34.837  28.758  10.521
91182W        W62853  19.201   0.099  14.507
91183W        W62854   7.152   3.677   0.311
91184W        W62855  17.559  24.133  14.023
91185W        W62856   2.902  11.822   4.786
91186W        W62857   5.700  33.875  11.611
91187W        W62858  18.929  12.727  14.794
91188W        W62859  30.209   7.633   3.090
91189W        W62860   0.955  32.685  11.946
91190W        W62861   7.753  15.743   1.625
91191W        W62862  17.819  20.949   2.234
91192W        W62863  38.077  34.405   4.526
91193W        W62864  44.825  37.544   2.317
91194W        W62865  31.828   2.204   3.345
91195W        W62866  12.746  19.573   1.269
91196W        W62867   8.339  42.533  12.488
91197W        W62868  17.024   6.825  14.118
91198W        W62869  10.356  15.323  14.436
91199W        W62870  19.604  30.413   3.732
91200W        W62871  13.402  31.107  10.937
91201W        W62872  40.425  33.284  11.079
91202W        W62873  41.007  15.056  11.509
91203W        W62874  13.904   8.290   2.690
91204W        W62875  44.255  23.174   5.125
91205W        W62876  40.260  38.617   0.401
91206W        W62877   8.216  40.435   1.938
91207W        W62878  25.347  16.587   3.670
91208W        W62879   3.442  14.672   4.973
91209W        W62880  20.985  34.650  10.831
91210W        W62881  13.914  21.077  10.768
91211W        W62882  36.142  19.121   3.755
91212W        W62883   5.837  44.842   3.234
91213W        W62884  36.172  10.145   4.609
91214W        W62885  15.102  14.253   0.905
91215W        W62886  36.118  25.472  13.433
91216W        W62887  15.848  16.602  13.006
91217W        W62888  39.948   3.821  14.315
91218W        W62889   9.097   9.898  14.552
91219W        W62890   3.637  31.202   4.302
91220W        W62891  37.403   2.666   2.482
91221W        W62892   2.958  32.798  14.192
91222W        W62893  37.857  27.434   4.398
91223W        W62894   6.952  39.977   3.910
91224W        W62895  42.979  14.740   4.423
91225W        W62896  15.704  44.528  14.310
91226W        W62897  25.755   6.197   4.182
91227W        W62898  24.599   6.632   0.944
91228W        W62899  30.059  12.264   4.614
91229W        W62900   5.955   7.950  14.397
91230W        W62901  12.317  40.033  10.878
91231W        W62902  31.821  19.783   0.498
91232W        W62903  27.399  26.572  13.096
91233W        W62904  37.767  31.032   0.944
91234W        W62905   8.156  36.044  12.187
91235W        W62906   5.350   1.872  11.049
91236W        W62907  31.862  32.526  12.146
91237W        W62908  14.295  17.621  12.804
91238W        W62909   2.928  39.846  12.024
91239W        W62910  33.061   2.523  12.968
91240W        W62911  15.052  10.517  14.819
91241W        W62912   4.775  41.920  11.097
91242W        W62913   3.118   4.266   1.185
91243W        W62914  25.604   6.194   9.971
91244W        W62915   2.879  24.249  11.058
91245W        W62916  19.669  43.903  12.343
91246W        W62917  44.455  16.154  12.793
91247W        W62918   8.652  14.309   0.599
91248W        W62919  31.464   2.859  12.506
91249W        W62920  32.167  42.890   3.167
91250W        W62921   7.755  11.192   1.896
91251W        W62922   8.003  32.981  12.394
91252W        W62923  21.147  29.511  13.501
91253W        W62924  16.207  24.237   3.615
91254W        W62925  38.458  44.354   1.248
91255W        W62926  18.035  31.114   4.717
91256W        W62927  41.322  14.154  11.922
91257W        W62928  36.900   9.952   3.815
91258W        W62929  30.335  29.061   4.277
91259W        W62930  43.451  36.374   1.847
91260W        W62931  17.784  15.544   4.078
91261W        W62932  27.345  28.898   4.024
91262W        W62933   5.826  26.478   3.230
91263W        W62934  16.564  42.331  14.366
91264W        W62935   6.374  20.500   1.169
91265W        W62936   1.944  25.005  13.978
91266W        W62937  23.287  19.020  12.042
91267W        W62938  43.525  18.098   0.461
91268W        W62939   5.760  27.645   1.797
91269W        W62940  23.572  16.041   1.814
91270W        W62941   7.983  42.901  12.050
91271W        W62942  13.259  14.424   4.595
91272W        W62943  37.473  12.384   3.686
91273W        W62944  37.456  14.116   0.392
91274W        W62945  33.868   1.424  10.832
91275W        W62946   0.363   7.327  12.440
91276W        W62947  38.928  14.089  11.544
91277W        W62948  29.148  39.546  12.887
91278W        W62949   5.874  43.987   2.886
91279W        W62950  38.279  36.260  12.354
91280W        W62951  36.265  22.502   4.085
91281W        W62952  22.533  37.413  13.586
91282W        W62953   9.886  13.258  14.789
91283W        W62954  44.748  17.081  11.463
91284W        W62955  23.115  42.729   2.086
91285W        W62956  41.514  17.650   3.775
91286W        W62957   7.939  43.505  13.007
91287W        W62958  39.563  42.936  12.581
91288W        W62959  13.069  29.408  12.369
91289W        W62960  18.857  28.643   0.219
91290W        W62961  30.667  35.378  13.871
91291W        W62962  28.227   2.163   1.830
91292W        W62963  35.718  31.226  12.559
91293W        W62964  20.157  10.095  13.419
91294W        W62965  18.118  18.630  11.083
91295W        W62966  42.110  21.558   3.557
91296W        W62967  41.433  14.917  10.962
91297W        W62968  21.579  40.291  11.919
91298W        W62969  39.941  10.180   4.226
91299W        W62970  20.181  30.083  10.630
91300W        W62971  35.763  11.486  11.068
91301W        W62972  42.311  19.581  14.945
91302W        W62973  39.554  40.390  11.218
91303W        W62974   9.716   7.887  11.494
91304W        W62975  31.670  44.303   3.259
91305W        W62976  13.608  30.835   3.921
91306W        W62977   2.460  19.117   9.791
91307W        W62978  19.861  14.391   4.967
91308W        W62979   9.310  42.610   4.629
91309W        W62980  11.654  36.562   2.875
91310W        W62981   1.758  37.915  12.077
91311W        W62982  17.359  12.104  12.937
91312W        W62983  40.300  39.025   2.827
91313W        W62984  18.281  25.928   0.779
91314W        W62985  34.460   8.392   3.803
91315W        W62986  24.040  44.478  14.178
91316W        W62987   0.667  34.819   1.748
91317W        W62988  38.602  26.132  12.450
91318W        W62989   2.915  37.172  11.558
91319W        W62990  38.811  19.226   3.709
91320W        W62991  43.966  28.716  12.909
91321W        W62992  10.645  43.178  14.458
91322W        W62993  35.989  30.621   3.182
91323W        W62994  15.054  41.117  11.871
91324W        W62995   9.400   0.281   2.328
91325W        W62996  32.474  30.263  12.344
91326W        W62997  44.199  19.136   1.793
91327W        W62998  16.347  11.800   4.652
91328W        W62999  13.203  28.555   1.827
91329W        W63000  20.588   7.438   0.853
91330W        W63001  35.148  33.331  12.921
91331W        W63002  15.240  37.835  11.210
91332W        W63003   8.006  30.077   0.457
91333W        W63004   5.002  27.736   2.911
91334W        W63005   0.804  34.854   3.872
91335W        W63006   2.778  19.700   2.141
91336W        W63007  22.033  33.384  14.480
91337W        W63008  32.985  40.301  12.861
91338W        W63009  15.198  20.091  14.735
91339W        W63010  25.765  12.590   2.574
91340W        W63011  39.994   6.465  12.850
91341W        W63012   5.847   8.509  12.179
91342W        W63013  35.857   4.224  13.956
91343W        W63014  42.055   7.903  14.230
91344W        W63015  29.913  42.734  13.406
91345W        W63016   0.115   8.581  13.036
91346W        W63017   8.674  41.988   2.744
91347W        W63018  33.186   8.819   0.921
91348W        W63019  37.774  31.866  14.398
91349W        W63020  36.445   8.314   2.717
91350W        W63021  11.263  42.172  14.692
91351W        W63022  17.962   3.200  12.154
91352W        W63023  30.248  16.559  12.878
91353W        W63024  42.378  43.720   3.189
91354W        W63025  25.151   7.949   3.109
91355W        W63026  36.917  13.339   3.105
91356W        W63027  10.119  39.349  13.358
91357W        W63028  25.118   1.967  14.854
91358W        W63029  40.774  17.574  11.499
91359W        W63030  38.452   0.245  14.010
91360W        W63031   9.724  28.984  10.723
91361W        W63032  30.030  42.901  10.837
91362W        W63033   1.499  33.924  14.685
91363W        W63034   7.962  41.332  10.570
91364W        W63035   5.283  31.567   4.510
91365W        W63036  24.465  10.161  12.562
91366W        W63037  40.745  27.782  11.773
91367W        W63038   8.833  43.930  13.485
91368W        W63039   4.516  12.880  10.791
91369W        W63040  40.365   2.280  11.196
91370W        W63041  41.859  36.815   3.635
91371W        W63042  11.236  25.210  14.922
91372W        W63043   6.930   3.160  11.880
91373W        W63044   6.911   5.735  14.409
91374W        W63045  34.806   7.757   1.744
91375W        W63046  20.616  30.633   1.437
91376W        W63047  33.920  28.163  14.884
91377W        W63048  44.957  32.008  11.544
91378W        W63049  40.924  15.734   3.267
91379W        W63050  20.342  22.039  12.955
91380W        W63051   8.945  10.113   1.697
91381W        W63052  12.575  36.418   1.438
91382W        W63053  38.669  15.547   0.758
91383W        W63054  36.997   5.312  14.466
91384W        W63055   7.186   0.734  12.998
91385W        W63056   5.289  29.700  12.439
91386W        W63057   3.972  20.805   4.511
91387W        W63058   4.252  22.601   2.884
91388W        W63059  30.940  20.635   1.751
91389W        W63060  42.473  21.563   2.343
91390W        W63061  14.946  33.445  14.493
91391W        W63062  26.688  44.009   0.582
91392W        W63063  22.628  34.467  10.299
91393W        W63064   2.970  23.442  14.926
91394W        W63065  30.143   3.078  13.560
91395W        W63066  34.878  37.319  11.029
91396W        W63067  24.817   0.815   2.686
91397W        W63068  42.422  24.930   4.698
91398W        W63069  21.227  23.029  14.517
91399W        W63070  40.785   6.436   1.333
91400W        W63071  11.181  42.521   3.445
91401W        W63072  15.884  12.755   3.733
91402W        W63073  39.488   0.819   1.399
91403W        W63074   6.321  10.387   4.638
91404W        W63075  20.840   3.419  12.577
91405W        W63076   8.646   2.863  12.579
91406W        W63077   3.698  33.959  10.989
91407W        W63078  43.676  44.845  14.553
91408W        W63079  21.775   2.427   2.858
91409W        W63080   5.890  29.222   0.574
91410W        W63081  31.103   0.458  14.305
91411W        W63082  34.109  41.058   2.619
91412W        W63083  18.517  41.315  12.494
91413W        W63084   3.424  36.983   3.773
91414W        W63085  32.017  25.006   4.949
91415W        W63086  32.049  16.871  14.008
91416W        W63087  21.291  18.771  11.208
91417W        W63088  18.181   6.431  11.303
91418W        W63089  16.796  30.554   3.746
91419W        W63090  37.563   7.186   0.961
91420W        W63091   3.514  31.787  14.854
91421W        W63092   5.222  30.509   2.835
91422W        W63093  35.287  35.144   3.144
91423W        W63094  16.962  25.914  11.417
91424W        W63095  35.840   2.136  10.735
91425W        W63096  12.746  13.771  14.387
91426W        W63097  14.840   5.596   2.224
91427W        W63098  22.726   9.716  10.281
91428W        W63099   0.945   7.377  11.102
91429W        W63100  19.746   8.482  14.714
91430W        W63101  22.137  24.664   3.708
91431W        W63102  44.955  36.901   1.387
91432W        W63103  14.974  22.695   0.451
91433W        W63104  24.772  24.231   2.387
91434W        W63105  42.066   2.286  12.426
91435W        W63106  12.080  25.661  13.442
91436W        W63107  27.466  11.736  11.399
91437W        W63108  39.289  16.993   2.309
91438W        W63109  42.084  33.868   0.897
91439W        W63110  20.491  38.502   0.313
91440W        W63111  38.286  27.539  12.280
91441W        W63112  28.153  24.281  11.154
91442W        W63113  38.564  10.177  11.770
91443W        W63114  22.939   7.939   3.658
91444W        W63115  44.370  30.154  14.878
91445W        W63116  20.522   6.223  10.610
91446W        W63117  10.790  38.618  11.926
91447W        W63118  10.652  20.283  13.792
91448W        W63119  23.164  37.441   4.904
91449W        W63120  13.962  17.659   2.697
91450W        W63121  17.266  16.323  14.901
91451W        W63122  25.742  29.291   1.372
91452W        W63123  21.628  30.132   2.798
91453W        W63124  25.306   6.248  10.602
91454W        W63125  41.708  38.131   1.113
91455W        W63126  39.695  27.899  10.620
91456W        W63127   3.575  36.328  13.315
91457W        W63128  13.802  44.309   2.705
91458W        W63129  43.445  21.523   3.596
91459W        W63130   6.218  37.288  13.042
91460W        W63131  39.526  15.728   1.926
91461W        W63132  40.382  41.468   4.581
91462W        W63133  17.147  35.886  12.051
91463W        W63134  29.623  20.540   1.740
91464W        W63135  30.571  22.578  14.505
91465W        W63136  24.979  35.044  13.064
91466W        W63137  19.246  37.444   3.236
91467W        W63138  13.952   7.348  11.394
91468W        W63139  39.921  39.107   1.871
91469W        W63140   7.157  37.461   1.664
91470W        W63141   4.703  31.904  14.331
91471W        W63142   3.016  18.620  12.019
91472W        W63143   9.677   6.225   3.216
91473W        W63144  12.846  19.955  11.661
91474W        W63145   0.922   2.499   0.833
91475W        W63146  10.349   4.445  14.353
91476W        W63147  20.463   2.336  13.422
91477W        W63148   9.890   6.506   0.943
91478W        W63149  18.624  14.348   3.176
91479W        W63150  33.078  31.818  10.904
91480W        W63151  35.955  15.387   2.757
91481W        W63152   7.723  33.572   1.384
91482W        W63153  30.890  11.312   0.795
91483W        W63154  15.811  21.385   9.999
91484W        W63155   7.266  25.237  12.406
91485W        W63156  37.632  23.197  14.950
91486W        W63157  26.490  19.540  12.984
91487W        W63158  17.067  11.594  11.593
91488W        W63159  32.665   5.439   2.426
91489W        W63160  13.863  38.285  11.014
91490W        W63161  15.726  10.364   1.474
91491W        W63162  27.268  35.022  14.941
91492W        W63163  30.238   8.242  11.711
91493W        W63164  36.924   0.960  12.008
91494W        W63165  26.185  22.499  13.389
91495W        W63166  18.629  16.688   4.709
91496W        W63167  36.102  23.510   1.427
91497W        W63168  27.024  34.914   3.335
91498W        W63169   7.306  23.956   4.216
91499W        W63170   9.730  34.625   2.726
91500W        W63171  22.011   7.232  11.803
91501W        W63172  30.577  44.863  11.905
91502W        W63173  31.039  15.421  11.135
91503W        W63174  44.703  40.839   0.786
91504W        W63175  26.543  42.090  12.479
91505W        W63176  33.081   4.497  14.367
91506W        W63177  40.463  13.650   0.278
91507W        W63178   4.482  22.165   4.747
91508W        W63179  25.041  26.105  12.201
91509W        W63180  40.852  14.821   1.304
91510W        W63181  37.878  39.887  12.038
91511W        W63182  12.906  15.147  12.653
91512W        W63183  13.570  20.542   2.637
91513W        W63184   8.911  25.716  13.007
91514W        W63185   9.853  20.561  11.063
91515W        W63186  15.278   5.006   9.665
91516W        W63187  25.661  36.344   3.843
91517W        W63188  17.454  35.488   2.310
91518W        W63189  35.099  27.641  12.891
91519W        W63190  41.755  36.214   0.856
91520W        W63191   5.535  11.885   0.679
91521W        W63192   3.027  26.992  13.208
91522W        W63193  27.602  13.656   3.371
91523W        W63194  11.915  26.414   3.737
91524W        W63195   0.469  32.837  14.341
91525W        W63196  13.270  27.417  10.681
91526W        W63197  22.425   3.945   3.092
91527W        W63198   1.213   5.165   0.889
91528W        W63199  13.074  18.273   3.010
91529W        W63200  39.019  12.030  13.378
91530W        W63201  12.712  15.877  11.131
91531W        W63202  14.710  26.935  10.701
91532W        W63203  31.017  44.951  12.189
91533W        W63204  23.032  21.042  11.995
91534W        W63205   1.387   4.985   2.806
91535W        W63206   9.672  12.185  12.973
91536W        W63207  30.599  14.848   4.958
91537W        W63208  32.924   0.209  12.065
91538W        W63209  44.498  15.680  12.963
91539W        W63210  21.095   7.137  12.860
91540W        W63211  41.432   9.943  14.338
91541W        W63212  10.599  19.965  11.879
91542W        W63213   4.926  19.772  14.759
91543W        W63214  38.613  17.612  12.438
91544W        W63215  15.885   3.951   0.969
91545W        W63216  31.646  39.931   0.276
91546W        W63217  22.878  23.276   4.480
91547W        W63218   8.177  17.367   0.557
91548W        W63219  43.192   6.697  14.989
91549W        W63220  22.531  25.216   4.865
91550W        W63221  21.212   2.889  11.292
91551W        W63222   3.396  26.210  12.760
91552W        W63223  34.476  36.843   2.728
91553W        W63224  42.993  21.323  12.200
91554W        W63225   5.271  35.667   0.572
91555W        W63226  39.073  30.546   2.602
91556W        W63227   9.606  21.554   4.478
91557W        W63228  12.669   5.094  14.779
91558W        W63229  16.217  38.839   3.425
91559W        W63230  36.017  14.946  12.058
91560W        W63231  34.949  21.280   1.047
91561W        W63232  34.925  39.412   1.869
91562W        W63233  12.603  14.496  13.423
91563W        W63234   2.814   7.321  11.488
91564W        W63235  35.394  24.792   3.604
91565W        W63236   0.915  13.268  11.943
91566W        W63237  38.079   9.685  14.970
91567W        W63238  40.818   4.694   1.910
91568W        W63239   3.858  27.919  11.117
91569W        W63240   0.332  13.066   1.333
91570W        W63241  26.088   2.791   0.973
91571W        W63242  28.057  16.982  11.075
91572W        W63243  21.076  35.353   0.275
91573W        W63244  18.886  30.914  14.852
91574W        W63245  29.920  35.398  11.638
91575W        W63246  17.114  31.356  13.351
91576W        W63247  32.154  14.566  12.876
91577W        W63248   4.193   5.039  12.475
91578W        W63249  16.585  38.805   2.111
91579W        W63250  24.726  36.911   1.562
91580W        W63251  40.770  12.616   1.623
91581W        W63252  16.993  40.989  12.194
91582W        W63253  23.260  18.169  14.003
91583W        W63254   9.511  43.218   3.257
91584W        W63255   9.329   1.745  11.870
91585W        W63256   2.786  39.694   3.688
91586W        W63257   8.875  35.146   1.818
91587W        W63258  24.939   3.043   4.121
91588W        W63259  39.608  36.108  12.535
91589W        W63260  30.460  26.607   3.014
91590W        W63261  26.752  33.052  13.355
91591W        W63262  26.650  28.367   2.734
91592W        W63263  43.447  14.639   3.096
91593W        W63264  12.083  18.562   2.878
91594W        W63265   1.397  32.588  12.315
91595W        W63266   9.248  33.904  12.891
91596W        W63267   9.481  43.869   2.785
91597W        W63268  17.490  13.708   0.387
91598W        W63269  38.573  23.461  11.248
91599W        W63270  22.730   1.473  14.574
91600W        W63271   8.293  24.958  14.395
91601W        W63272   0.302  26.755  11.980
91602W        W63273  35.192  19.539   2.654
91603W        W63274   2.229   5.484   1.783
91604W        W63275  18.225  30.373  11.634
91605W        W63276  37.464  41.501  11.731
91606W        W63277   2.683   9.391   2.193
91607W        W63278  14.767  35.609   1.900
91608W        W63279  35.877  20.124  13.447
91609W        W63280  40.061  27.732  12.886
91610W        W63281  37.871  12.342   2.426
91611W        W63282  37.769  38.407  11.147
91612W        W63283  20.055  13.712  11.086
91613W        W63284  36.809  17.132  10.519
91614W        W63285  32.554  42.353   0.588
91615W        W63286  43.937   0.214   0.324
91616W        W63287  38.316  19.255   0.488
91617W        W63288  11.315   8.252   2.710
91618W        W63289  23.810  15.297   0.028
91619W        W63290  43.051  26.634   4.141
91620W        W63291  31.633  13.984  12.929
91621W        W63292  17.001  38.888  10.362
91622W        W63293  44.011  16.736  13.868
91623W        W63294  29.049  25.557   1.261
91624W        W63295  29.358  12.860   9.805
91625W        W63296   7.205  22.800  14.776
91626W        W63297  41.753  13.815   4.538
91627W        W63298  29.195  10.344  14.343
91628W        W63299  15.506  27.094   0.263
91629W        W63300  44.326  36.949  14.328
91630W        W63301   1.481  22.594   0.191
91631W        W63302  17.782  44.351   2.604
91632W        W63303  32.993   6.479   1.758
91633W        W63304  37.575  12.749   2.333
91634W        W63305  25.085  38.172   2.687
91635W        W63306  44.356  32.068   2.782
91636W        W63307  24.420  25.993   4.872
91637W        W63308  11.565  24.542   2.812
91638W        W63309   9.508  10.571   3.647
91639W        W63310  12.874  20.562   3.412
91640W        W63311  44.985   5.159  14.271
91641W        W63312  44.729  38.434   0.309
91642W        W63313  18.116  34.575   3.238
91643W        W63314  44.261   1.755  11.594
91644W        W63315  34.959   4.070  12.198
91645W        W63316  39.484   5.710   0.734
91646W        W63317   2.682   3.554   3.143
91647W        W63318   2.391  40.388  12.401
91648W        W63319   6.845  44.395   0.480
91649W        W63320   8.202  30.986  13.026
91650W        W63321  35.350   2.590  11.318
91651W        W63322  16.789   8.417  12.884
91652W        W63323  11.682  16.296  13.432
91653W        W63324   2.960  35.170   0.798
91654W        W63325  28.446   4.913  14.350
91655W        W63326  21.012   0.424  11.224
91656W        W63327  40.370  21.219   0.084
91657W        W63328  37.086  11.228  11.486
91658W        W63329  21.004  27.619   0.167
91659W        W63330  18.515   1.258   4.082
91660W        W63331  17.105  25.748  14.557
91661W        W63332  40.151  40.454  13.863
91662W        W63333  14.759  25.638   0.278
91663W        W63334  27.457  28.382   3.224
91664W        W63335  42.498  39.381   2.359
91665W        W63336  44.329  32.577  13.526
91666W        W63337   5.199  43.409  13.344
91667W        W63338   4.449  43.930  11.162
91668W        W63339  38.603   3.004  14.332
91669W        W63340   4.902  42.377   4.284
91670W        W63341  35.858  23.362  12.482
91671W        W63342   6.343  10.212   3.036
91672W        W63343  22.270  32.310  14.347
91673W        W63344   8.790  33.668  13.059
91674W        W63345  39.955   6.921  11.330
91675W        W63346   2.740  26.115  10.692
91676W        W63347  21.055  12.436  11.085
91677W        W63348  34.340   8.899  12.063
91678W        W63349  34.249  42.557  13.016
91679W        W63350  12.642  15.672   3.701
91680W        W63351  16.661   4.343  14.069
91681W        W63352  44.542  25.838   1.848
91682W        W63353   2.432  17.053  12.478
91683W        W63354  36.285  14.672  12.574
91684W        W63355   0.306  39.622  11.704
91685W        W63356  20.024  42.083  12.378
91686W        W63357  15.401  40.519  11.151
91687W        W63358  28.224   8.243   1.390
91688W        W63359  36.843  34.399   3.130
91689W        W63360  29.143  20.744  12.490
91690W        W63361  17.820  38.389   0.894
91691W        W63362   4.974  12.617   3.690
91692W        W63363  31.512  26.138   4.145
91693W        W63364  20.233  38.614  11.923
91694W        W63365  10.242  37.807  13.832
91695W        W63366   0.698  41.318  12.019
91696W        W63367  44.284  37.584   1.469
91697W        W63368  25.769   6.696  11.232
91698W        W63369  33.490  43.509   0.304
91699W        W63370  30.649  27.169   4.187
91700W        W63371   3.244   5.600   1.712
91701W        W63372   4.325  24.044  12.127
91702W        W63373   4.149  14.511  11.057
91703W        W63374   1.451   9.209  13.538
91704W        W63375  22.060   7.940   3.634
91705W        W63376  19.506   1.831   3.009
91706W        W63377  19.012  33.486   3.721
91707W        W63378  18.219   8.363  11.572
91708W        W63379  30.094  33.612  10.653
91709W        W63380  21.207  12.622  12.045
91710W        W63381   8.196  22.194  11.049
91711W        W63382  27.113  32.815   3.482
91712W        W63383  17.186  37.453  13.564
91713W        W63384  25.731  31.316  12.952
91714W        W63385  15.772  25.885   2.141
91715W        W63386  21.558  20.818  13.853
91716W        W63387  34.887  31.123  14.327
91717W        W63388  14.306  35.897  11.434
91718W        W63389  41.988  31.846   0.213
91719W        W63390  19.237   1.004  15.000
91720W        W63391  36.654  35.884   2.397
91721W        W63392  10.732  21.744  14.917
91722W        W63393  30.006   5.708  12.572
91723W        W63394  15.354   1.922   1.060
91724W        W63395   6.713  18.885  12.496
91725W        W63396   8.231  39.667   3.747
91726W        W63397  16.142  22.768   3.114
91727W        W63398   3.249  31.583   0.845
91728W        W63399   5.856  14.581  11.579
91729W        W63400   2.997  21.135   1.773
91730W        W63401  25.149   0.464   0.046
91731W        W63402  19.118   3.446   0.399
91732W        W63403  41.594  41.553   4.357
91733W        W63404   8.979  39.930  13.087
91734W        W63405  16.113  15.288   1.849
91735W        W63406  33.358  11.104  13.474
91736W        W63407  26.031  32.009   0.351
91737W        W63408  17.643  25.643  14.917
91738W        W63409  21.806   4.523  11.584
91739W        W63410  22.011   0.189  12.785
91740W        W63411  18.182   1.751  14.387
91741W        W63412  29.921  31.988   0.768
91742W        W63413  29.571  28.741   2.230
91743W        W63414   4.521  36.367   2.835
91744W        W63415  27.491   3.382   2.408
91745W        W63416  18.045  26.251  12.558
91746W        W63417  36.675  23.736   0.517
91747W        W63418  26.186  37.609  13.465
91748W        W63419  21.349  28.757   1.882
91749W        W63420  36.954   0.424   0.670
91750W        W63421   4.645  23.186  12.538
91751W        W63422   6.125  26.635   2.254
91752W        W63423   2.296  10.083   2.476
91753W        W63424  21.222   5.741   1.789
91754W        W63425  30.165   0.881   2.190
91755W        W63426  15.749  29.130  10.815
91756W        W63427  14.269  42.707   0.019
91757W        W63428  44.087  33.894   1.369
91758W        W63429  15.751  33.408  10.844
91759W        W63430  21.748   5.711   1.700
91760W        W63431  11.760  40.763   5.082
91761W        W63432  12.452  21.009   4.570
91762W        W63433   1.738  12.769   3.251
91763W        W63434  42.730   2.525  13.603
91764W        W63435   4.645   6.641  12.116
91765W        W63436   7.464   5.051  11.218
91766W        W63437  32.965  22.222  10.606
91767W        W63438  36.968   2.425   0.857
91768W        W63439  11.076  25.856  13.540
91769W        W63440  37.009  42.067  13.435
91770W        W63441  10.933  11.999  10.867
91771W        W63442  36.793  14.387   4.199
91772W        W63443  14.127  40.700  13.356
91773W        W63444   6.311  17.229   2.771
91774W        W63445  29.071  26.120  14.206
91775W        W63446  23.201  11.770  10.493
91776W        W63447   4.397   0.066   3.837
91777W        W63448  31.721  11.418  14.420
91778W        W63449  37.813   1.245  14.883
91779W        W63450  30.617  14.689   3.335
91780W        W63451   7.673  36.928   3.298
91781W        W63452   2.982  16.805  14.326
91782W        W63453  18.596   6.412  12.072
91783W        W63454   6.131  16.065  13.390
91784W        W63455  10.789  44.587   4.322
91785W        W63456  43.200  43.724  11.244
91786W        W63457  11.620  14.344  13.453
91787W        W63458   1.285  37.275   3.088
91788W        W63459  24.789  29.006  14.512
91789W        W63460   4.117  27.559  12.860
91790W        W63461  29.966  27.541  13.804
91791W        W63462   9.433  35.205  14.745
91792W        W63463  41.096   8.226   3.339
91793W        W63464  15.334  11.841   2.756
91794W        W63465  17.078  33.739   3.833
91795W        W63466  29.079  17.573   4.281
91796W        W63467  36.619  19.503   2.654
91797W        W63468  22.680   8.406   4.150
91798W        W63469  41.718  42.883   3.231
91799W        W63470  28.915  21.968  13.885
91800W        W63471  41.763  25.478  11.019
91801W        W63472   8.475  20.004  11.586
91802W        W63473   6.785  17.245   4.396
91803W        W63474  35.030  43.961  14.281
91804W        W63475  42.110  12.067   4.634
91805W        W63476  25.678   3.028   2.381
91806W        W63477  29.905  22.297   0.656
91807W        W63478  19.265   0.776  13.613
91808W        W63479  18.738  18.187  10.968
91809W        W63480  27.404  41.728   0.254
91810W        W63481  31.606  11.176   4.643
91811W        W63482  25.887  19.880   2.947
91812W        W63483  30.410  44.790   1.818
91813W        W63484  23.705   9.833  12.551
91814W        W63485  32.128  27.533  10.175
91815W        W63486  41.783  21.283   2.276
91816W        W63487  44.010   8.619   4.551
91817W        W63488   1.938   5.580  11.214
91818W        W63489  16.742  29.146   1.210
91819W        W63490  16.665   9.807   2.610
91820W        W63491   1.965  27.335   1.865
91821W        W63492  37.425  33.610   4.512
91822W        W63493  14.811  10.172   2.950
91823W        W63494   7.240   0.196  12.127
91824W        W63495  37.415  38.022   1.430
91825W        W63496  29.015  41.809   3.565
91826W        W63497   2.081  41.062   1.475
91827W        W63498  10.946  41.282  12.115
91828W        W63499   5.221  24.234  12.043
91829W        W63500  13.558   3.318   2.599
91830W        W63501  23.662  30.403  10.961
91831W        W63502   0.888  11.711   4.850
91832W        W63503  25.064  13.719  12.558
91833W        W63504  18.433   4.401  13.757
91834W        W63505  13.884  28.146  14.297
91835W        W63506  23.118  39.370   1.751
91836W        W63507   4.166   8.109   3.221
91837W        W63508   8.650  37.473  12.828
91838W        W63509  42.971   8.204   4.691
91839W        W63510  21.101  39.077  13.034
91840W        W63511  31.851  14.572   2.690
91841W        W63512   0.985  28.457  12.245
91842W        W63513   0.505   7.708  13.476
91843W        W63514   6.653  24.470   3.670
91844W        W63515  21.719  29.968   1.315
91845W        W63516   7.794  20.082   3.829
91846W        W63517  19.218  44.942   3.868
91847W        W63518  40.824  12.216   2.761
91848W        W63519   5.433   6.311  12.009
91849W        W63520  42.698  14.644   2.676
91850W        W63521  15.147  28.293   1.951
91851W        W63522  31.968  14.570   1.818
91852W        W63523  24.908  44.941   3.702
91853W        W63524   2.952  21.768   1.189
91854W        W63525   3.712  26.329  13.403
91855W        W63526   7.337   6.187   1.878
91856W        W63527  12.738  29.681   4.189
91857W        W63528  21.516  39.251  12.785
91858W        W63529  39.221  14.116   3.218
91859W        W63530  12.927  29.211   9.802
91860W        W63531  29.574  42.906   4.065
91861W        W63532  24.983  11.029   0.250
91862W        W63533  33.978  42.350   4.116
91863W        W63534  41.170   9.338  11.226
91864W        W63535  40.300  17.025   1.306
91865W        W63536  25.750  36.969   0.328
91866W        W63537  43.752  30.678   2.751
91867W        W63538  28.585  14.228   3.264
91868W        W63539  41.830  12.378  11.459
91869W        W63540   2.486  22.082  10.668
91870W        W63541  22.779   8.904   1.642
91871W        W63542  22.652  14.524   1.233
91872W        W63543  19.698  36.830  10.611
91873W        W63544  22.237  37.734  10.221
91874W        W63545  38.369  20.313  12.133
91875W        W63546  30.235  37.357  11.768
91876W        W63547  44.390  22.007   4.494
91877W        W63548  24.268  40.990   2.321
91878W        W63549  14.859   1.423  11.174
91879W        W63550  33.101  13.790  14.303
91880W        W63551  28.593   7.014   9.560
91881W        W63552  19.742  43.896  13.372
91882W        W63553   9.790  43.093   4.661
91883W        W63554  31.089  11.192   1.772
91884W        W63555   4.791   7.456   2.246
91885W        W63556  42.482  24.221   0.762
91886W        W63557  41.869  40.982  10.248
91887W        W63558   7.198  38.557  11.315
91888W        W63559  28.564  33.040  11.433
91889W        W63560  30.030   5.868   3.293
91890W        W63561  42.140  43.387  12.444
91891W        W63562  41.581  16.321   2.644
91892W        W63563   1.192  26.447   3.800
91893W        W63564   7.550  42.380  14.979
91894W        W63565  38.221  38.640   4.949
91895W        W63566  36.537  26.442  12.079
91896W        W63567  42.972  17.836  14.857
91897W        W63568  22.183  43.961  12.228
91898W        W63569  33.052  18.249  10.955
91899W        W63570  19.156  30.891  14.356
91900W        W63571  35.298  23.735   4.694
91901W        W63572  38.363  17.279   0.203
91902W        W63573  13.304  22.763   3.142
91903W        W63574   1.981  13.372   0.898
91904W        W63575   8.231   1.700   0.880
91905W        W63576  22.655  43.292   0.893
91906W        W63577  20.003  44.504  12.996
91907W        W63578   4.673  22.754  14.285
91908W        W63579   2.847  23.274  11.979
91909W        W63580  21.565  20.607   0.472
91910W        W63581  21.609  24.181  10.138
91911W        W63582   7.416  36.810   0.386
91912W        W63583  26.031  37.433  12.583
91913W        W63584  32.042   5.325  10.787
91914W        W63585   9.715  43.399  13.513
91915W        W63586   4.524   5.428  13.406
91916W        W63587  31.045  40.394   4.734
91917W        W63588  41.599   8.556   2.360
91918W        W63589   4.902  38.410  12.559
91919W        W63590   0.721  42.770   3.693
91920W        W63591  28.467  44.750  14.487
91921W        W63592   9.609   7.903   1.454
91922W        W63593  31.919  43.023  13.494
91923W        W63594  25.740  14.108   2.350
91924W        W63595  20.737   4.711  13.500
91925W        W63596  21.055  34.122  14.339
91926W        W63597  10.672  13.849  11.409
91927W        W63598  15.501   3.813   2.333
91928W        W63599   7.393  39.553   3.116
91929W        W63600  23.279  23.981   3.106
91930W        W63601  26.020  10.572  12.028
91931W        W63602  43.184  13.538   4.079
91932W        W63603  26.035  23.938   4.293
91933W        W63604  43.398  37.108  14.208
91934W        W63605  37.079   2.502   1.348
91935W        W63606   0.900   8.154   3.226
91936W        W63607  34.759  13.932   0.738
91937W        W63608   6.956  40.265  11.987
91938W        W63609  33.904  17.103   4.139
91939W        W63610   2.429  22.996  10.807
91940W        W63611  40.274  26.889  11.103
91941W        W63612  34.001  29.467  11.597
91942W        W63613   9.760  34.642   4.046
91943W        W63614   5.019   5.926   0.231
91944W        W63615  39.900  31.311   1.248
91945W        W63616  37.462  21.225   0.538
91946W        W63617  30.827  41.425  13.898
91947W        W63618  39.614  11.154  12.568
91948W        W63619  42.018   0.430   3.203
91949W        W63620  35.431  42.296  11.966
91950W        W63621  40.614   2.345   1.889
91951W        W63622  43.501  16.476   0.180
91952W        W63623  37.468  33.983   2.610
91953W        W63624   8.021  10.825  13.239
91954W        W63625  30.597  16.813  13.576
91955W        W63626   0.893   8.815  13.915
91956W        W63627  38.998  32.603  14.940
91957W        W63628   7.553   6.249  12.488
91958W        W63629   7.167  31.458  12.280
91959W        W63630   4.502   2.265  12.893
91960W        W63631  40.991   3.957   3.323
91961W        W63632  10.575   1.931   0.961
91962W        W63633  27.938  40.727   4.913
91963W        W63634   1.514  23.687   3.812
91964W        W63635  39.877  17.256  14.408
91965W        W63636   4.252  44.559  13.020
91966W        W63637  33.382   2.055  11.681
91967W        W63638  43.243   7.793  13.883
91968W        W63639  29.128  25.066   4.114
91969W        W63640  42.951  14.265   2.925
91970W        W63641  26.805   6.704   2.135
91971W        W63642   7.821   6.392   4.540
91972W        W63643   8.275  20.050   0.772
91973W        W63644   6.360  13.848  10.690
91974W        W63645   9.278   4.125   1.191
91975W        W63646  30.417  14.578   2.875
91976W        W63647  22.056  40.751   2.187
91977W        W63648  39.386  37.865   2.843
91978W        W63649  40.045  19.991   0.328
91979W        W63650   7.133  38.067  11.187
91980W        W63651  21.040  26.812  14.996
91981W        W63652  14.042  17.013  12.097
91982W        W63653  39.824  32.441  12.667
91983W        W63654  11.840   8.322  14.971
91984W        W63655  42.625  25.206  12.579
91985W        W63656  41.410  18.588  12.903
91986W        W63657  32.928   9.233   4.219
91987W        W63658  36.853   4.795  14.540
91988W        W63659  37.889  14.623   1.841
91989W        W63660   5.508   7.285  12.471
91990W        W63661  38.725  43.433   1.393
91991W        W63662  13.864  20.594  11.000
91992W        W63663  14.813  34.022   4.456
91993W        W63664  15.671  30.916  13.382
91994W        W63665   6.307  24.670  14.794
91995W        W63666   8.900   7.219   0.857
91996W        W63667  11.132   6.333   1.381
91997W        W63668  35.362   2.747   0.339
91998W        W63669  27.147  15.768   3.728
91999W        W63670  39.956  18.571   1.724
92000W        W63671  29.974  25.687   1.376
92001W        W63672  37.481  11.883   3.734
92002W        W63673  19.367  10.920  12.045
92003W        W63674   7.892  13.348   3.432
92004W        W63675  18.196  26.360   1.700
92005W        W63676  28.605   3.783   1.241
92006W        W63677   6.757  22.004  13.651
92007W        W63678  39.494  38.103   0.000
92008W        W63679   5.885  24.623  12.433
92009W        W63680   0.019  10.189  13.491
92010W        W63681  31.611  43.815   2.303
92011W        W63682   7.861   8.841  13.961
92012W        W63683  37.876  10.196  12.618
92013W        W63684  27.516  14.367  13.165
92014W        W63685  21.463  24.944  12.868
92015W        W63686   5.728  26.185   1.971
92016W        W63687  33.287  26.594  14.302
92017W        W63688   5.154  32.785   0.796
92018W        W63689  26.685   7.159  14.073
92019W        W63690  13.312  41.805   0.322
92020W        W63691  24.799  22.156   2.357
92021W        W63692  14.164  34.120   3.534
92022W        W63693  19.862  38.932   4.415
92023W        W63694   2.734  41.679   3.335
92024W        W63695  14.353   3.463  11.649
92025W        W63696   6.287  27.768   5.020
92026W        W63697   5.973  34.141  12.457
92027W        W63698  26.421  39.977   5.061
92028W        W63699   3.462  29.977   0.241
92029W        W63700  14.114  30.958  14.526
92030W        W63701   0.104  24.190   0.379
92031W        W63702  42.396   6.970  14.392
92032W        W63703  20.239  12.838  12.606
92033W        W63704  26.116  17.665  12.762
92034W        W63705  41.929  32.596  11.415
92035W        W63706  34.334  32.912  14.453
92036W        W63707  27.927  10.102  11.539
92037W        W63708   7.431  15.840  13.425
92038W        W63709   0.834  14.338   1.786
92039W        W63710  40.315  43.467   3.210
92040W        W63711  16.679  13.420  11.585
92041W        W63712  29.892  27.952  10.963
92042W        W63713  11.884  30.927  13.336
92043W        W63714  38.159  39.376   4.022
92044W        W63715  44.944   9.383   2.633
92045W        W63716   1.213  21.126  13.444
92046W        W63717   7.242   0.428   3.396
92047W        W63718  14.116   3.356  14.079
92048W        W63719  29.389   9.747   1.767
92049W        W63720   0.548  19.993  14.883
92050W        W63721  42.436  18.818   4.405
92051W        W63722   6.388  13.744   2.870
92052W        W63723  42.752  13.405   0.895
92053W        W63724  27.719  27.918   4.257
92054W        W63725   7.870  39.609   4.553
92055W        W63726  31.064  15.354  12.143
92056W        W63727  37.927  11.219   0.996
92057W        W63728  29.182  27.619   1.761
92058W        W63729  16.667  11.561  14.839
92059W        W63730  16.109  15.253  12.902
92060W        W63731  29.977  25.981   1.797
92061W        W63732  43.028  34.447   1.826
92062W        W63733   0.317  21.020  13.630
92063W        W63734  27.078  34.375  13.577
92064W        W63735  18.524  25.488  13.789
92065W        W63736   1.293  26.272  10.943
92066W        W63737  15.550  20.675   3.786
92067W        W63738  11.373  44.788   4.846
92068W        W63739  39.275  33.082   0.065
92069W        W63740  38.342  36.108  12.954
92070W        W63741   3.929  34.401  13.550
92071W        W63742   3.762  32.930   3.822
92072W        W63743  24.628  34.520   1.354
92073W        W63744  43.202   9.521   2.800
92074W        W63745  23.808  40.120  12.099
92075W        W63746  30.872  34.443   3.807
92076W        W63747  15.065  11.263  11.243
92077W        W63748  16.607   5.874   3.162
92078W        W63749  40.751  11.352  14.378
92079W        W63750   7.169   8.041  14.850
92080W        W63751  21.133  15.994   3.300
92081W        W63752  33.010  32.835  10.744
92082W        W63753  42.172  36.580  13.136
92083W        W63754  29.531  21.219  11.402
92084W        W63755  42.345  37.748  14.432
92085W        W63756  40.384  21.690  13.785
92086W        W63757  27.550  38.750  12.985
92087W        W63758  34.332  12.828  10.953
92088W        W63759  30.020  44.469  11.948
92089W        W63760  24.540  13.364   2.037
92090W        W63761  40.170  43.401  14.365
92091W        W63762  44.499  30.793  12.588
92092W        W63763  20.170  38.292   3.603
92093W        W63764  22.165  35.386  12.459
92094W        W63765  25.751  43.243   0.845
92095W        W63766  10.879  13.068  14.923
92096W        W63767  16.636  17.741  10.661
92097W        W63768  22.223  41.398  12.362
92098W        W63769  21.793  17.219  11.681
92099W        W63770  19.254   9.394  10.749
92100W        W63771  14.053  41.276   2.194
92101W        W63772  33.078   5.421   3.210
92102W        W63773  19.493  13.031   3.724
92103W        W63774   6.761  38.639  14.998
92104W        W63775  38.901  23.673  12.243
92105W        W63776  27.947  36.103   1.358
92106W        W63777  17.061  30.042   0.796
92107W        W63778  33.447  22.124  10.767
92108W        W63779  21.206  23.595  13.035
92109W        W63780  10.963  22.038  11.278
92110W        W63781   3.770  31.593   0.908
92111W        W63782  44.546  32.248  12.417
92112W        W63783  29.431  37.097  13.804
92113W        W63784   5.243  22.224   4.069
92114W        W63785   3.634  40.580  12.896
92115W        W63786  10.292  40.881   0.650
92116W        W63787  37.744  44.548  14.441
92117W        W63788   4.814  12.765   2.009
92118W        W63789  37.805  17.305   4.487
92119W        W63790   4.006  34.827   0.335
92120W        W63791  27.811  29.081  14.307
92121W        W63792  17.804  18.756  13.644
92122W        W63793  34.100  20.943   4.502
92123W        W63794  39.015  12.724   2.400
92124W        W63795  16.728  32.163  14.281
92125W        W63796  24.931   1.156  11.068
92126W        W63797  15.027  39.788  11.470
92127W        W63798   9.834  18.435   3.388
92128W        W63799  19.807  38.553   4.813
92129W        W63800  33.141  10.890   0.492
92130W        W63801  37.812  27.527   3.900
92131W        W63802  33.630  41.420  11.746
92132W        W63803  40.638  25.993  11.211
92133W        W63804  37.559  33.326   1.832
92134W        W63805   6.307  34.481   4.623
92135W        W63806   4.934  41.361   0.965
92136W        W63807  31.540  18.719   3.689
92137W        W63808  44.474  21.741   2.739
92138W        W63809   3.013   5.258   4.523
92139W        W63810  11.629  17.292  13.275
92140W        W63811  17.040  30.612   2.883
92141W        W63812   7.100  29.209   0.717
92142W        W63813  29.191  23.215   0.734
92143W        W63814  42.521  12.585  11.969
92144W        W63815  11.372  44.509  12.702
92145W        W63816  35.890  13.105   4.135
92146W        W63817  13.579  12.571  13.797
92147W        W63818  38.798  36.354  10.623
92148W        W63819  22.733  38.388  11.269
92149W        W63820  11.386  25.233  12.014
92150W        W63821   2.006  34.922   3.294
92151W        W63822   6.598  42.962   0.295
92152W        W63823  13.284  17.007  11.510
92153W        W63824  43.861  41.469  10.033
92154W        W63825  15.313  29.088   4.304
92155W        W63826  40.830   4.196   2.181
92156W        W63827   5.973   9.681  14.937
92157W        W63828  21.232  11.192  10.619
92158W        W63829  18.287  15.875  14.022
92159W        W63830   5.132  40.087  13.948
92160W        W63831  23.279  28.589   2.950
92161W        W63832  13.528   7.625  12.095
92162W        W63833  34.361  35.465   3.188
92163W        W63834  11.837   1.360  12.082
92164W        W63835  14.116   0.993  11.574
92165W        W63836  27.931  26.038  12.122
92166W        W63837  14.031  12.308   3.100
92167W        W63838  13.958  23.053  11.982
92168W        W63839   3.920  31.520   0.423
92169W        W63840  39.315  26.916   3.211
92170W        W63841  36.395  16.048   3.801
92171W        W63842  19.714  12.350  13.120
92172W        W63843  17.619  26.898   4.826
92173W        W63844  44.361   4.905  13.343
92174W        W63845  27.079   0.719   4.757
92175W        W63846  21.651  16.604  11.783
92176W        W63847   9.111  30.932  12.477
92177W        W63848   5.131  21.958   0.426
92178W        W63849  24.949  11.450   0.889
92179W        W63850  16.270  21.290   1.674
92180W        W63851  42.222  26.011   3.726
92181W        W63852   8.720  20.178   1.075
92182W        W63853  21.000   0.447  11.724
92183W        W63854  14.137  13.448  13.473
92184W        W63855  40.944  23.759  12.073
92185W        W63856  22.246   7.551   0.791
92186W        W63857  16.912  11.638   2.710
92187W        W63858  21.104  13.171   1.752
92188W        W63859  38.014  29.542  15.000
92189W        W63860  23.540   2.717  12.938
92190W        W63861  42.008  31.116  14.610
92191W        W63862  15.806  19.199  11.198
92192W        W63863  38.207  18.673  10.645
92193W        W63864  18.666   9.110   1.635
92194W        W63865   3.186  33.175  12.903
92195W        W63866   0.872  38.318   2.923
92196W        W63867   1.282   1.341   1.457
92197W        W63868  33.213  19.671   4.763
92198W        W63869  42.030  16.195  13.071
92199W        W63870  36.474  42.153  11.185
92200W        W63871   9.036  23.649   0.250
92201W        W63872  44.366   8.744  14.727
92202W        W63873   2.124  24.712   1.191
92203W        W63874  31.317  17.468   4.140
92204W        W63875  14.883   4.429   4.141
92205W        W63876  43.243  22.820   2.051
92206W        W63877  18.552   7.832   2.216
92207W        W63878  18.551   5.662   1.776
92208W        W63879  27.971  20.651   4.207
92209W        W63880  12.867   9.575  11.380
92210W        W63881  13.197  25.525   4.373
92211W        W63882  31.063   0.923  11.901
92212W        W63883  11.584  30.440  10.835
92213W        W63884  39.239  29.883  12.459
92214W        W63885  35.076  19.593  11.551
92215W        W63886   0.015  35.180  11.639
92216W        W63887  44.444  37.712   5.010
92217W        W63888   2.528  29.231   1.729
92218W        W63889  14.708   4.848   3.592
92219W        W63890  14.864  15.845   3.165
92220W        W63891  15.783  27.966  11.460
92221W        W63892  11.876  10.761  12.472
92222W        W63893  37.094  20.595  11.500
92223W        W63894  27.544   0.501  14.953
92224W        W63895  35.570  37.911   1.813
92225W        W63896   7.842  34.645   3.794
92226W        W63897  35.389  38.069   3.651
92227W        W63898  39.119  16.328  14.984
92228W        W63899  11.555  22.621   1.930
92229W        W63900  30.499   4.192  12.020
92230W        W63901  19.388  24.824  10.438
92231W        W63902  40.089  18.699   3.214
92232W        W63903   6.227   5.795   1.320
92233W        W63904  38.696  40.567  10.006
92234W        W63905  39.870   7.446   0.432
92235W        W63906  19.608  11.672   0.692
92236W        W63907  29.040  32.365  11.442
92237W        W63908  16.849   6.377  14.293
92238W        W63909  31.533   8.068  10.880
92239W        W63910   2.488  14.819   3.850
92240W        W63911  38.881  29.089  14.795
92241W        W63912  15.236  20.310  14.259
92242W        W63913   4.326  15.083   1.500
92243W        W63914   5.866  11.844  11.341
92244W        W63915  44.220   4.143   4.190
92245W        W63916  44.516  33.411  13.074
92246W        W63917  10.807  19.544  13.389
92247W        W63918   1.797  12.480   1.002
92248W        W63919  15.191  18.688   4.715
92249W        W63920  34.787  21.755   3.733
92250W        W63921  10.893  36.789   4.078
92251W        W63922  21.953  13.650   2.778
92252W        W63923  11.766   4.952  12.563
92253W        W63924  22.296  36.538  14.856
92254W        W63925   8.584  20.618   2.617
92255W        W63926  40.216  36.026   2.463
92256W        W63927  12.126  20.662  10.686
92257W        W63928   4.815   2.581  11.160
92258W        W63929  12.295  26.247   4.099
92259W        W63930  38.603  24.018   1.313
92260W        W63931   9.087  44.463  13.507
92261W        W63932   5.454  26.855   4.121
92262W        W63933  44.847  20.586  10.604
92263W        W63934   0.472  35.005   2.904
92264W        W63935   6.743   6.941  11.984
92265W        W63936  23.696  41.955   4.539
92266W        W63937  38.091  38.240  13.368
92267W        W63938  13.745  40.496  13.062
92268W        W63939   4.023  26.647   1.853
92269W        W63940  29.910  15.316   0.646
92270W        W63941  19.157  36.597   4.913
92271W        W63942   5.930  25.882  13.388
92272W        W63943  31.995  42.403   3.863
92273W        W63944  12.463  13.360  13.336
92274W        W63945   1.882  22.330  12.299
92275W        W63946  23.733   3.258  13.832
92276W        W63947  40.104  21.274  13.918
92277W        W63948   4.752  32.994  14.862
92278W        W63949  29.359  33.523   4.967
92279W        W63950   4.205  27.272   2.965
92280W        W63951  29.916  39.368  13.479
92281W        W63952  36.246  11.002   2.888
92282W        W63953  44.561  12.683  12.074
92283W        W63954  28.497  14.853  14.162
92284W        W63955   5.415  27.464   1.429
92285W        W63956  23.623  37.252  12.456
92286W        W63957  28.985   7.286   4.973
92287W        W63958  27.720  33.390  11.433
92288W        W63959  11.799  16.593   3.229
92289W        W63960   8.633  39.972   4.547
92290W        W63961   7.263  38.737  12.465
92291W        W63962  35.054  22.080  13.080
92292W        W63963  40.394  37.807  14.509
92293W        W63964  17.208  37.608   1.249
92294W        W63965  15.326  11.313  13.635
92295W        W63966  33.515   5.911  14.387
92296W        W63967  33.099  13.088   3.794
92297W        W63968  36.304  21.771  13.877
92298W        W63969   1.410   7.232   3.400
92299W        W63970  22.090  32.799  14.361
92300W        W63971  32.900  20.605   3.456
92301W        W63972  18.824  10.871  12.086
92302W        W63973  34.643  42.818   2.244
92303W        W63974  24.263  12.021   2.160
92304W        W63975  12.076  17.155   3.435
92305W        W63976  37.414   2.407   3.694
92306W        W63977  43.236  18.601  11.286
92307W        W63978  36.074  35.388   3.114
92308W        W63979  30.903  17.740   0.747
92309W        W63980  25.249   7.487  12.894
92310W        W63981  20.510  34.975   4.098
92311W        W63982  15.754  14.001   2.246
92312W        W63983  16.399  10.654  12.072
92313W        W63984   4.253  17.118  13.405
92314W        W63985  44.201   2.720   3.152
92315W        W63986   3.254  24.501  12.974
92316W        W63987  28.977  20.821   1.015
92317W        W63988  17.754   2.548  14.262
92318W        W63989   4.372  39.905  14.851
92319W        W63990  40.764  31.036  12.942
92320W        W63991  19.215   6.231   0.808
92321W        W63992  24.435   3.773  11.475
92322W        W63993  41.993  39.341   4.990
92323W        W63994   4.790  29.525  10.570
92324W        W63995  43.861  35.012  10.837
92325W        W63996  44.818  28.738  13.250
92326W        W63997   2.772  16.338  12.030
92327W        W63998   1.731  20.336   2.782
92328W        W63999  36.326  32.473  13.352
92329W        W64000  15.744   7.879  11.226
92330W        W64001  14.743  24.420  11.660
92331W        W64002  36.019  37.808  11.012
92332W        W64003  22.073   1.249   2.673
92333W        W64004  38.349   1.997  13.087
92334W        W64005  21.529  26.988  13.814
92335W        W64006  40.407  22.241   0.459
92336W        W64007  34.197   5.590   4.589
92337W        W64008   1.356  26.597   0.085
92338W        W64009   9.840  32.449   4.218
92339W        W64010  22.649  15.126   2.703
92340W        W64011  20.503   1.667  11.161
92341W        W64012  42.923  38.892  11.494
92342W        W64013   2.062  39.417   2.320
92343W        W64014   0.736  18.544   0.750
92344W        W64015  23.589  25.491  14.076
92345W        W64016  41.900  30.208  13.605
92346W        W64017  30.927  15.827  11.700
92347W        W64018  25.014   0.986   0.038
92348W        W64019   1.663  38.921  11.560
92349W        W64020  24.798  24.891  14.286
92350W        W64021  24.956  44.563  13.302
92351W        W64022   1.440  18.835   1.807
92352W        W64023   0.425  36.593   1.680
92353W        W64024  28.947  11.371   2.898
92354W        W64025  22.692  17.059  11.071
92355W        W64026  21.009  36.858  10.461
92356W        W64027  44.493  34.848   2.283
92357W        W64028  39.287  22.011  10.608
92358W        W64029  14.136  22.796   0.877
92359W        W64030   3.015   8.903   2.999
92360W        W64031  21.009  33.402   1.374
92361W        W64032  34.760  36.496   4.765
92362W        W64033  39.356  43.955   1.728
92363W        W64034   6.705   7.858  11.993
92364W        W64035  13.240   5.609  13.403
92365W        W64036  35.986   0.945  12.459
92366W        W64037   6.205  18.192  14.520
92367W        W64038  10.884  29.728  13.466
92368W        W64039  26.245  40.343  13.785
92369W        W64040  43.854  26.905  10.725
92370W        W64041   8.697   2.645   3.516
92371W        W64042  31.236   2.324   0.801
92372W        W64043  40.072  44.491   1.457
92373W        W64044   5.321   6.289  11.508
92374W        W64045  35.159  14.898  14.887
92375W        W64046  41.078  31.671  14.784
92376W        W64047   1.776  32.502  12.647
92377W        W64048  14.319  20.016  14.655
92378W        W64049  41.368  26.656   1.959
92379W        W64050  42.547  24.210  11.115
92380W        W64051  17.566  14.692   5.078
92381W        W64052  39.467  18.721  13.856
92382W        W64053   9.643  37.029   0.903
92383W        W64054  26.102  36.947  11.732
92384W        W64055  17.949   5.790  10.089
92385W        W64056  31.917  11.857   0.396
92386W        W64057  38.826  39.641  13.029
92387W        W64058   0.387   9.233   0.347
92388W        W64059  43.622  36.438   3.560
92389W        W64060  17.125   8.210  11.603
92390W        W64061  42.307  10.725  14.780
92391W        W64062  17.983   4.372   2.133
92392W        W64063  28.529   5.589   3.115
92393W        W64064  25.164  37.856  10.623
92394W        W64065  22.961  38.995  14.490
92395W        W64066  21.059  31.159   0.402
92396W        W64067   0.811   5.240  10.921
92397W        W64068  39.589   7.441  13.472
92398W        W64069  44.836  20.247   2.289
92399W        W64070   8.729   4.307  10.647
92400W        W64071  17.754   5.478  11.588
92401W        W64072  15.999  33.843   3.605
92402W        W64073  14.414  34.097  11.069
92403W        W64074  21.969  27.282   3.663
92404W        W64075   6.899  11.768   2.771
92405W        W64076   2.753  10.727   0.976
92406W        W64077  37.111  21.695  11.256
92407W        W64078  13.922  18.326  11.265
92408W        W64079  42.884  17.612  14.404
92409W        W64080   4.817  39.720   2.284
92410W        W64081  11.274  39.881   2.638
92411W        W64082  21.767  38.952  10.880
92412W        W64083  34.455  16.869   0.346
92413W        W64084  38.850  16.616   0.786
92414W        W64085  32.710  18.775  14.813
92415W        W64086  10.617  34.172  10.901
92416W        W64087  18.747  14.205  14.082
92417W        W64088  43.033  10.222  12.897
92418W        W64089  40.729  44.921   4.634
92419W        W64090  17.570  33.710  11.623
92420W        W64091  22.304  24.788   9.869
92421W        W64092  15.918  26.468   0.792
92422W        W64093  31.652  43.564  12.917
92423W        W64094  39.000   7.708   2.075
92424W        W64095  43.425  34.319  11.824
92425W        W64096  38.328  19.995   0.881
92426W        W64097   4.862  18.625  13.565
92427W        W64098   2.894  36.632  11.492
92428W        W64099  32.079  36.147   1.550
92429W        W64100  34.326  31.386   3.228
92430W        W64101   3.183  31.325   4.516
92431W        W64102  24.940  36.837   2.786
92432W        W64103  40.749  11.331   2.736
92433W        W64104  28.086  14.979   1.250
92434W        W64105  32.147  39.083  14.991
92435W        W64106  44.152  18.610  13.272
92436W        W64107  26.142   8.980  10.239
92437W        W64108  23.718  12.724  10.922
92438W        W64109  13.682  33.781  11.549
92439W        W64110  18.787  11.349   1.662
92440W        W64111  23.079   2.057  10.727
92441W        W64112   4.559  41.952  14.812
92442W        W64113  19.655  12.903  10.995
92443W        W64114  33.145  35.094  12.494
92444W        W64115  37.477   0.243   1.859
92445W        W64116   6.612   0.370  10.577
92446W        W64117  27.964   8.660   4.778
92447W        W64118   6.977  14.215  13.476
92448W        W64119  42.942  19.027   2.195
92449W        W64120  13.531   5.407   0.781
92450W        W64121  23.736  33.092  14.868
92451W        W64122  41.802  36.308   3.712
92452W        W64123  13.839  17.580   3.848
92453W        W64124  44.098  32.027   0.040
92454W        W64125  22.613   0.105   4.141
92455W        W64126  23.684  38.712   9.853
92456W        W64127   6.603   2.345  11.824
92457W        W64128   1.978   2.790  10.870
92458W        W64129   4.506  14.268  13.304
92459W        W64130  28.448  35.915   5.143
92460W        W64131  32.579  38.760   1.190
92461W        W64132  31.376   3.714  12.861
92462W        W64133   1.883  19.229   0.048
92463W        W64134   5.990  42.975   4.303
92464W        W64135   2.475  27.537  14.748
92465W        W64136  40.107  19.076   1.797
92466W        W64137  21.956  21.204   2.737
92467W        W64138  36.601   4.743  12.149
92468W        W64139  29.073  28.149   1.772
92469W        W64140  41.883  12.583   2.192
92470W        W64141  40.747  34.573  11.108
92471W        W64142  13.632   7.933  12.495
92472W        W64143  14.596  21.103  13.539
92473W        W64144   7.434  15.470   4.257
92474W        W64145  15.691  16.550  11.375
92475W        W64146  28.981   0.492   4.097
92476W        W64147  42.045  14.295  10.184
92477W        W64148   6.525   1.042  11.410
92478W        W64149  13.366  37.366   0.839
92479W        W64150  23.729  39.050   4.613
92480W        W64151  42.483  30.662   2.595
92481W        W64152  43.989  32.052  10.393
92482W        W64153   4.503  17.344  13.805
92483W        W64154  14.006  23.263  11.172
92484W        W64155  38.272  39.861   3.860
92485W        W64156  32.084  35.953   1.074
92486W        W64157   8.381  14.560   2.824
92487W        W64158  30.756  40.238  10.103
92488W        W64159  29.557  31.615   1.995
92489W        W64160  11.715  38.724  11.986
92490W        W64161   2.859  37.282   4.395
92491W        W64162  26.551  23.243  10.700
92492W        W64163  41.886   6.923  13.888
92493W        W64164  21.247  37.399  13.593
92494W        W64165  12.642  24.596   2.663
92495W        W64166  23.236  32.862   0.736
92496W        W64167  31.378  22.680  13.926
92497W        W64168  40.067   0.852   0.213
92498W        W64169   4.418  15.059  14.383
92499W        W64170  17.157  27.198   2.754
92500W        W64171   6.701  11.108   4.323
92501W        W64172  45.000  13.419  12.290
92502W        W64173   0.437   0.235   4.349
92503W        W64174  19.603  40.544   0.270
92504W        W64175   1.615  40.596   0.832
92505W        W64176  39.288  16.651  10.621
92506W        W64177   7.168  16.642   0.312
92507W        W64178  33.476  27.007   4.008
92508W        W64179  11.295   4.969  12.239
92509W        W64180  11.196  24.698  14.831
92510W        W64181  15.682  14.404  14.896
92511W        W64182  29.473   9.138  13.929
92512W        W64183  15.443  26.711   0.927
92513W        W64184  11.660  14.107   3.798
92514W        W64185  12.338  22.962   0.340
92515W        W64186   3.742  44.155  10.310
92516W        W64187  20.167  30.518   4.590
92517W        W64188  26.268  21.972   0.623
92518W        W64189  44.022   0.965  10.510
92519W        W64190  19.497  39.060   2.222
92520W        W64191  30.100  39.960  14.815
92521W        W64192  44.827  37.075  14.543
92522W        W64193   9.732  26.155   1.529
92523W        W64194  20.814  20.116   1.691
92524W        W64195  23.220  16.288   1.496
92525W        W64196  20.610  28.828   0.778
92526W        W64197  37.971  14.052   0.425
92527W        W64198  32.166  40.739   1.899
92528W        W64199  12.290   0.053  14.939
92529W        W64200  10.166  39.851  10.689
92530W        W64201  25.877  39.866  14.493
92531W        W64202  25.175  30.931   0.730
92532W        W64203  31.703  35.950   2.879
92533W        W64204  40.412  35.604   4.548
92534W        W64205  22.700  35.816   3.614
92535W        W64206  15.365  31.895   0.038
92536W        W64207  25.639  43.357  11.212
92537W        W64208  12.133  24.012  10.641
92538W        W64209  13.258  22.412   1.733
92539W        W64210   7.430  17.250   3.261
92540W        W64211  30.048  15.121   4.519
92541W        W64212   9.789  39.008   0.233
92542W        W64213  11.214   6.355   1.905
92543W        W64214  40.885  23.962  11.593
92544W        W64215  25.184  26.979   2.130
92545W        W64216  44.899   9.872   4.294
92546W        W64217  31.876   7.414  13.336
92547W        W64218  11.269  38.392  12.128
92548W        W64219  22.114  26.114   0.548
92549W        W64220  43.778   6.796  11.437
92550W        W64221  14.535  30.050   2.398
92551W        W64222  16.597  36.371   2.379
92552W        W64223  10.615  30.610   0.283
92553W        W64224  23.245  31.361  11.958
92554W        W64225  30.704   1.108  12.692
92555W        W64226  21.049  23.141  13.308
92556W        W64227  30.059  44.718  12.473
92557W        W64228  31.859  10.255  10.716
92558W        W64229  18.367  37.015   4.567
92559W        W64230  12.382   1.400   2.232
92560W        W64231  12.266  15.312   3.608
92561W        W64232  35.119   0.288  14.202
92562W        W64233  22.295  16.722   0.772
92563W        W64234  31.509   3.831   3.171
92564W        W64235  23.081  38.481   1.260
92565W        W64236  22.082  13.571  11.015
92566W        W64237  38.451  41.976   1.831
92567W        W64238  30.622  15.604  12.038
92568W        W64239  34.344  39.697  10.556
92569W        W64240  18.805  17.265  14.797
92570W        W64241  27.107  38.119   3.139
92571W        W64242   7.810  19.435   1.712
92572W        W64243   7.277  41.718  12.079
92573W        W64244   9.669  31.066   2.778
92574W        W64245  14.660  16.065   0.825
92575W        W64246  20.516  11.989   0.147
92576W        W64247  17.606  30.183  13.436
92577W        W64248  40.388   6.383   4.549
92578W        W64249  44.518   0.261   1.382
92579W        W64250  39.350  14.278  11.310
92580W        W64251   2.661  40.356   4.595
92581W        W64252  11.804  24.712  12.876
92582W        W64253  11.790  11.862  10.840
92583W        W64254  24.153   5.934   0.294
92584W        W64255   5.263  31.147  12.560
92585W        W64256  15.985  19.657  13.421
92586W        W64257  42.071   8.450  11.689
92587W        W64258   6.488  34.364  12.934
92588W        W64259  34.882  18.604  11.267
92589W        W64260  41.316  33.920   1.044
92590W        W64261  41.085  42.930   4.050
92591W        W64262  39.976  23.025  14.983
92592W        W64263  17.841  30.947   0.818
92593W        W64264  33.899  42.201  11.122
92594W        W64265   5.877   5.760  12.763
92595W        W64266  25.934  35.395   1.115
92596W        W64267  11.253  10.914   2.865
92597W        W64268  35.914   8.166  10.679
92598W        W64269  32.219  20.831  10.641
92599W        W64270   0.089   7.393   1.873
92600W        W64271  34.368  21.364  11.352
92601W        W64272  41.700  29.041   1.819
92602W        W64273   5.287   6.473   0.909
92603W        W64274   8.958  24.495  11.128
92604W        W64275  34.563   4.792   4.680
92605W        W64276  31.058  11.715   1.157
92606W        W64277  37.677  44.818  13.959
92607W        W64278  42.512   2.472   3.220
92608W        W64279  33.058  14.266  12.912
92609W        W64280   3.738  33.288   3.096
92610W        W64281  11.309  20.394   0.436
92611W        W64282  21.346   8.661  11.696
92612W        W64283  21.291  20.209   0.314
92613W        W64284  29.919   8.690  14.762
92614W        W64285  14.164  10.787   3.989
92615W        W64286   8.273  28.470   0.999
92616W        W64287   7.368  37.619   0.776
92617W        W64288  26.772  14.113   3.688
92618W        W64289  30.118  41.452   2.300
92619W        W64290  28.897  12.764  13.778
92620W        W64291  35.648  18.776  12.140
92621W        W64292  21.814  31.345  12.015
92622W        W64293  30.967   6.800  11.069
92623W        W64294   1.105  30.891  14.084
92624W        W64295  32.647  36.969   3.137
92625W        W64296  43.487  23.209  12.341
92626W        W64297  34.562   0.686   1.426
92627W        W64298  29.525  16.263   3.358
92628W        W64299  15.180  10.036   4.226
92629W        W64300   6.320   7.570  14.535
92630W        W64301  43.924  11.380   5.481
92631W        W64302   9.664  13.144  12.210
92632W        W64303   8.298   7.472  12.875
92633W        W64304  22.308  14.740  14.812
92634W        W64305  43.475  29.377  10.600
92635W        W64306  25.403  39.893  13.081
92636W        W64307   1.874  23.515   0.459
92637W        W64308  43.790  18.885   0.861
92638W        W64309  15.903   3.076   0.867
92639W        W64310  34.763  19.303   3.298
92640W        W64311   3.376  31.758  11.968
92641W        W64312  14.276  35.479  11.128
92642W        W64313  23.908   7.234  11.219
92643W        W64314  26.535  25.218   3.310
92644W        W64315  24.683   2.398  11.632
92645W        W64316   3.528  26.051  11.389
92646W        W64317  15.363   3.304   2.302
92647W        W64318  32.070  15.868  13.974
92648W        W64319  25.096  39.044   2.999
92649W        W64320  38.112  43.466   4.762
92650W        W64321   7.872  13.840   0.505
92651W        W64322  23.292  35.098   3.665
92652W        W64323  43.405  26.502   3.728
92653W        W64324  23.200  25.455  10.631
92654W        W64325  30.306  24.044  11.683
92655W        W64326   3.265  22.269  14.795
92656W        W64327  33.742  22.526   1.913
92657W        W64328  33.400  15.693  10.186
92658W        W64329   7.770  28.360  12.797
92659W        W64330  23.121  25.948   3.952
92660W        W64331  31.226  34.449   4.180
92661W        W64332   3.896   1.755   0.285
92662W        W64333  11.342  13.376   1.887
92663W        W64334  15.255  24.329  11.064
92664W        W64335  29.891  14.672  13.448
92665W        W64336  30.227   9.783  14.312
92666W        W64337  33.634  27.744   1.813
92667W        W64338  44.971  18.222  11.152
92668W        W64339  19.871  40.988  11.397
92669W        W64340  35.425  22.975  14.823
92670W        W64341  15.301  14.736   0.967
92671W        W64342  20.274  34.041   1.223
92672W        W64343  44.822  41.324   0.935
92673W        W64344  28.814  27.453  12.554
92674W        W64345   1.693  42.294   2.773
92675W        W64346  28.905  42.487  11.222
92676W        W64347  12.522  29.096  14.554
92677W        W64348  17.523  19.680  11.994
92678W        W64349  25.452   5.284  13.559
92679W        W64350  43.038  34.480   2.735
92680W        W64351  35.653  18.937   1.732
92681W        W64352  35.471  34.798   2.783
92682W        W64353  18.983  34.851   1.729
92683W        W64354  13.875  32.910   3.263
92684W        W64355   8.187  11.152  14.015
92685W        W64356  43.943  14.770   0.411
92686W        W64357  31.951  34.451  14.444
92687W        W64358   4.484   9.739  13.845
92688W        W64359  43.037  32.931   1.246
92689W        W64360  25.573  15.824   3.896
92690W        W64361  41.465  10.324  13.333
92691W        W64362  28.146   9.853  12.932
92692W        W64363  36.060  44.604  13.982
92693W        W64364  25.096  16.549  10.604
92694W        W64365   1.138  36.060   1.411
92695W        W64366   2.482  28.158   1.789
92696W        W64367   0.585  11.645  12.508
92697W        W64368  10.165   6.908  13.230
92698W        W64369   6.407  29.792  11.118
92699W        W64370  16.421   1.119   1.833
92700W        W64371  23.459   3.150   2.784
92701W        W64372   7.290  13.813   0.929
92702W        W64373  36.764  28.943   2.541
92703W        W64374  43.225  19.637   0.739
92704W        W64375   4.608  27.023   3.152
92705W        W64376   3.531  35.198  14.320
92706W        W64377  39.328  25.137   0.295
92707W        W64378  24.824  30.530  13.942
92708W        W64379  38.184   5.291   2.155
92709W        W64380  29.361   6.008   3.616
92710W        W64381  39.338  31.764  12.767
92711W        W64382   4.411  26.459   1.580
92712W        W64383  34.056  23.362   2.736
92713W        W64384   8.679   0.030  11.840
92714W        W64385  26.758   2.796   0.413
92715W        W64386  42.592  28.630  13.382
92716W        W64387   6.576  23.707  10.474
92717W        W64388  34.331  41.320  13.355
92718W        W64389  40.024  14.158   2.166
92719W        W64390   9.327  36.093  12.102
92720W        W64391  37.280  28.818   3.665
92721W        W64392  22.651  22.609   1.822
92722W        W64393   5.664  15.518  11.293
92723W        W64394  20.574  43.370   2.802
92724W        W64395  24.849  10.860  14.335
92725W        W64396  34.449   0.867   0.946
92726W        W64397   7.240  32.046  11.536
92727W        W64398   3.361  25.496  10.404
92728W        W64399   0.572   7.218  12.914
92729W        W64400  24.879  25.930  10.546
92730W        W64401  41.685  43.220  14.509
92731W        W64402  33.832  30.565   4.207
92732W        W64403   5.193  41.467   3.356
92733W        W64404  25.784  29.113   4.975
92734W        W64405  19.880  13.768  12.580
92735W        W64406  30.413  16.678  11.585
92736W        W64407   2.941  41.526  12.366
92737W        W64408   3.445   4.956  12.076
92738W        W64409  13.124  35.298   4.234
92739W        W64410   6.416  22.539   2.758
92740W        W64411  41.565  38.975  14.372
92741W        W64412  22.764  41.538  11.591
92742W        W64413   1.403  30.949   3.757
92743W        W64414  27.053  36.374  10.727
92744W        W64415  10.347  35.598  12.702
92745W        W64416  33.659   8.693  12.401
92746W        W64417   9.638  10.324   1.146
92747W        W64418  13.083   8.442   2.222
92748W        W64419   5.419  39.854   2.701
92749W        W64420  16.739  42.929  11.623
92750W        W64421  34.449   0.683  10.427
92751W        W64422  30.641  16.646   2.367
92752W        W64423  33.527  21.703   3.226
92753W        W64424  44.854  35.411   4.222
92754W        W64425  16.215  11.715   0.533
92755W        W64426   3.429  36.028   1.935
92756W        W64427  38.015  27.902   2.849
92757W        W64428  25.738  34.258  10.277
92758W        W64429   6.385  24.458  11.596
92759W        W64430  34.061  28.871   1.266
92760W        W64431   6.779   3.925   1.885
92761W        W64432  43.364  18.095   2.244
92762W        W64433  22.764  35.113  14.472
92763W        W64434  29.059  28.889   4.634
92764W        W64435  21.325  35.301  13.875
92765W        W64436  35.706   2.823  12.271
92766W        W64437   0.316  36.154   3.342
92767W        W64438   5.499   1.202   4.105
92768W        W64439  37.168   1.896   3.835
92769W        W64440  20.150  23.668   9.858
92770W        W64441  27.196  34.927   1.455
92771W        W64442  22.091  34.885  13.925
92772W        W64443  20.002  31.655   0.808
92773W        W64444  23.985  39.402   3.281
92774W        W64445   6.277  28.353   1.820
92775W        W64446   7.732  12.377   3.473
92776W        W64447  41.510  26.168  14.733
92777W        W64448  29.639  17.742   1.606
92778W        W64449   4.884  10.712   2.682
92779W        W64450  13.715  40.917   0.266
92780W        W64451  35.854   8.434   4.171
92781W        W64452  28.058  33.660  12.350
92782W        W64453  42.954  16.274  12.419
92783W        W64454  38.084  30.067  13.801
92784W        W64455  30.545  12.306   3.013
92785W        W64456  10.243  11.765  14.066
92786W        W64457  35.175  35.157  11.995
92787W        W64458   0.996   7.465   1.735
92788W        W64459  15.078  33.845  14.789
92789W        W64460  29.995   7.817   1.491
92790W        W64461  41.393  25.002   4.218
92791W        W64462  36.438  28.685  14.982
92792W        W64463  38.539   1.744   2.016
92793W        W64464  15.204  33.366  10.617
92794W        W64465  20.734  40.775   0.070
92795W        W64466  16.018   2.222   4.027
92796W        W64467   4.816  21.087  11.399
92797W        W64468  13.346  27.041  12.500
92798W        W64469   3.206  37.799   2.331
92799W        W64470  43.395  13.554   2.226
92800W        W64471   5.969  28.188   3.609
92801W        W64472  33.899  24.063  12.894
92802W        W64473  37.472  30.526   4.849
92803W        W64474  29.390  10.816   2.720
92804W        W64475  23.690  37.959   3.170
92805W        W64476  10.858  19.443   1.762
92806W        W64477  10.723  36.318   1.318
92807W        W64478  30.616   5.972  12.396
92808W        W64479   0.465  13.197  10.132
92809W        W64480   2.145  22.285   1.164
92810W        W64481   9.418  15.830  11.135
92811W        W64482   6.270   2.779   4.696
92812W        W64483   6.495  44.968   4.371
92813W        W64484  28.362  23.086   2.520
92814W        W64485  28.073  42.732   3.906
92815W        W64486   3.173   2.490   2.289
92816W        W64487  19.041   3.243   0.910
92817W        W64488  22.662   2.156  11.201
92818W        W64489  21.029  43.596   4.436
92819W        W64490   4.751   6.761  14.794
92820W        W64491  44.336  15.394   3.690
92821W        W64492  12.425  26.396  14.850
92822W        W64493  35.844  20.245  10.591
92823W        W64494   2.174  13.293  13.544
92824W        W64495  18.072  28.523   4.106
92825W        W64496  33.645   8.156   4.929
92826W        W64497  22.551  28.539  12.617
92827W        W64498   7.008  38.734  14.058
92828W        W64499  43.069   2.948  14.333
92829W        W64500   3.605  14.725  11.868
92830W        W64501  37.344   9.760   3.610
92831W        W64502  25.202  24.051  14.830
92832W        W64503  19.165  13.636   4.148
92833W        W64504  33.397  16.719  13.822
92834W        W64505  21.511  39.980   3.143
92835W        W64506  33.022  15.875   0.719
92836W        W64507  27.072  16.309   3.051
92837W        W64508  11.779  42.964   4.901
92838W        W64509  13.750  12.264   3.959
92839W        W64510  11.346  18.086   4.162
92840W        W64511  16.561   3.438   0.192
92841W        W64512  32.617   5.037  14.707
92842W        W64513  10.843  43.767   0.300
92843W        W64514  38.253   9.772  12.632
92844W        W64515  18.754  30.211   3.596
92845W        W64516  26.543  24.515   1.021
92846W        W64517   1.894  15.209  14.963
92847W        W64518  21.705  34.546   2.375
92848W        W64519  11.281   8.973   0.794
92849W        W64520   6.408  15.547   0.444
92850W        W64521  41.024  20.943   1.791
92851W        W64522  36.339  28.379  12.962
92852W        W64523  19.534  31.595  12.852
92853W        W64524   3.041  44.321  13.826
92854W        W64525  32.114   5.996   4.184
92855W        W64526  12.583  15.149   1.780
92856W        W64527  33.722  16.719  11.131
92857W        W64528   7.307  44.867   3.119
92858W        W64529  40.309  35.982   0.899
92859W        W64530  21.722   9.054  11.677
92860W        W64531  12.155  14.846  11.577
92861W        W64532  44.482  19.981   3.667
92862W        W64533  42.378  32.112  14.388
92863W        W64534   2.059  39.513  13.940
92864W        W64535  36.844  32.518  12.179
92865W        W64536   8.861  12.056   1.938
92866W        W64537  39.559  19.496   2.397
92867W        W64538  11.214   2.264   1.425
92868W        W64539  20.571  16.393   0.529
92869W        W64540   4.130  19.868  11.677
92870W        W64541  22.935  19.590  13.271
92871W        W64542  43.052  21.486   5.144
92872W        W64543  18.366  11.850   3.548
92873W        W64544  13.359  21.381   1.786
92874W        W64545  18.839  28.938  10.671
92875W        W64546  41.533   7.605   1.259
92876W        W64547   5.678  38.079  11.957
92877W        W64548  16.210   8.690   2.850
92878W        W64549  26.027   8.140   5.547
92879W        W64550  15.661  14.432  12.916
92880W        W64551  19.711   5.194   0.409
92881W        W64552  43.173  39.007  13.566
92882W        W64553  19.548  16.748  10.881
92883W        W64554  17.073  12.400  11.097
92884W        W64555  28.631  16.815   2.377
92885W        W64556  19.541  39.769   0.615
92886W        W64557  12.825   1.651  12.486
92887W        W64558  13.510  36.300  12.674
92888W        W64559  32.411   7.664  12.492
92889W        W64560  14.375  35.717   1.248
92890W        W64561  14.506  11.927   1.691
92891W        W64562  42.315  38.152   9.836
92892W        W64563  43.929   8.887   1.323
92893W        W64564  19.458  25.149   4.769
92894W        W64565  12.065  24.584   2.715
92895W        W64566  32.406   6.499   2.526
92896W        W64567  39.007   8.460  14.291
92897W        W64568  18.121  34.671  12.584
92898W        W64569   0.797   1.141  14.567
92899W        W64570  29.591  30.840  14.761
92900W        W64571  10.205  27.062  14.271
92901W        W64572   8.666  17.292   0.043
92902W        W64573   2.724  11.419  11.118
92903W        W64574  30.442  34.082  14.485
92904W        W64575  16.084  25.588  13.786
92905W        W64576  27.560  13.183  11.419
92906W        W64577  28.577   8.428   3.272
92907W        W64578  19.615  38.489  13.542
92908W        W64579  37.891  42.931   4.005
92909W        W64580  22.379  39.826  12.965
92910W        W64581  27.181  20.568  11.646
92911W        W64582  14.605  41.495   2.900
92912W        W64583  36.054  37.324   5.459
92913W        W64584  25.547   7.823  11.629
92914W        W64585   2.148  32.495   0.237
92915W        W64586  15.045  10.794   2.127
92916W        W64587  41.623  11.652  10.723
92917W        W64588   3.139  39.035  12.463
92918W        W64589  36.944  26.209   4.001
92919W        W64590   5.975  16.561   3.323
92920W        W64591  25.001  25.023  10.606
92921W        W64592  31.389  28.159   3.633
92922W        W64593  28.381   7.965  11.530
92923W        W64594   3.198  10.193  14.110
92924W        W64595  25.988   6.448  14.733
92925W        W64596  37.299  38.881   4.886
92926W        W64597  25.945  42.996  12.080
92927W        W64598  20.402  28.483  12.846
92928W        W64599  27.057   0.713  13.110
92929W        W64600   4.819  23.985  12.819
92930W        W64601   9.740   9.432  10.855
92931W        W64602  20.405  33.075   3.914
92932W        W64603   8.805  27.721   2.213
92933W        W64604  18.325  24.129   0.394
92934W        W64605  15.735   8.676  13.382
92935W        W64606  23.554   7.457   0.336
92936W        W64607  41.489  14.070  11.456
92937W        W64608   2.824  12.204  14.020
92938W        W64609  41.369   0.778   0.509
92939W        W64610   0.246   3.346  14.928
92940W        W64611  33.462  39.384  13.495
92941W        W64612  12.905  39.051  12.392
92942W        W64613  44.779  17.086   1.806
92943W        W64614   5.305  20.625   3.457
92944W        W64615  18.598  31.523   1.870
92945W        W64616  10.447   0.544   4.113
92946W        W64617  24.601   8.362   1.803
92947W        W64618   5.734  15.190  12.912
92948W        W64619  20.320  40.062   0.873
92949W        W64620  21.510  32.389   0.912
92950W        W64621  12.140  38.398   3.228
92951W        W64622  33.613  34.530  11.088
92952W        W64623  43.016  31.645   4.070
92953W        W64624  43.809   2.393   3.812
92954W        W64625  42.277  26.203   4.208
92955W        W64626  12.849  40.061  14.912
92956W        W64627  42.767  42.956  11.931
92957W        W64628  24.211  36.064  11.178
92958W        W64629  13.796  36.953  11.528
92959W        W64630  35.838  18.683  14.716
92960W        W64631  17.248  21.293  12.988
92961W        W64632  19.439  26.396   4.616
92962W        W64633  23.382  36.530   0.229
92963W        W64634  36.649  19.156  11.041
92964W        W64635  44.864   3.281  10.887
92965W        W64636  31.174  33.458   1.816
92966W        W64637   3.747  18.016   1.805
92967W        W64638   1.898  14.080  13.776
92968W        W64639  26.143  32.553  14.109
92969W        W64640  37.853  35.954   3.880
92970W        W64641  28.037  14.266   2.612
92971W        W64642  28.093  37.696  13.816
92972W        W64643  18.881  21.468  11.156
92973W        W64644  31.551  44.316   0.651
92974W        W64645  41.382   1.824   4.213
92975W        W64646  30.877  29.465   2.735
92976W        W64647  12.799  38.083  12.336
92977W        W64648  14.892   5.758   3.120
92978W        W64649  19.108   3.357   4.628
92979W        W64650  44.169  17.394  13.031
92980W        W64651   4.287   6.431   4.067
92981W        W64652  19.838   0.497   4.234
92982W        W64653  33.265  18.668  13.488
92983W        W64654   4.247  42.404  14.825
92984W        W64655  28.995   8.596   4.477
92985W        W64656  22.090  38.840   3.400
92986W        W64657  19.313  10.947  10.536
92987W        W64658  23.198   6.615  11.085
92988W        W64659  43.404  31.850   1.854
92989W        W64660  11.197  23.075  12.627
92990W        W64661  13.244   9.464  11.063
92991W        W64662  15.876  25.221  11.922
92992W        W64663  33.078   5.815  14.069
92993W        W64664  34.515   6.227  14.464
92994W        W64665  26.701  38.836   3.777
92995W        W64666  14.858  30.057  14.002
92996W        W64667  18.044  37.660   2.321
92997W        W64668   0.404  26.181   0.708
92998W        W64669   8.763  33.105   1.181
92999W        W64670  40.293   5.479   3.363
93000W        W64671  24.398  10.013   2.879
93001W        W64672  19.677  37.869   1.926
93002W        W64673  35.300  22.880   1.129
93003W        W64674   2.424  39.076   9.947
93004W        W64675  39.597  35.078  11.001
93005W        W64676  42.665  15.110   0.441
93006W        W64677  43.623   0.367   0.710
93007W        W64678  11.869  19.256  11.864
93008W        W64679  13.662  18.919  10.384
93009W        W64680  28.459  36.541   2.159
93010W        W64681  36.830  19.601   0.312
93011W        W64682  13.391   4.829  13.775
93012W        W64683   5.030  31.611  13.953
93013W        W64684   9.930  19.665  12.496
93014W        W64685  39.687  22.022  14.944
93015W        W64686  19.316   6.892  12.607
93016W        W64687  15.790  11.785  14.795
93017W        W64688  15.360  38.952  12.028
93018W        W64689  25.437   9.486   0.043
93019W        W64690   1.620  27.938  12.480
93020W        W64691  39.549  23.326  12.473
93021W        W64692   2.193   0.328  12.476
93022W        W64693  31.159  10.428   2.854
93023W        W64694  16.252   9.079  12.065
93024W        W64695  31.311  10.715  12.826
93025W        W64696  30.890  41.466   4.502
93026W        W64697  20.275  15.222   1.218
93027W        W64698  20.748   2.985  11.519
93028W        W64699  22.283  34.274   2.073
93029W        W64700  34.404   0.389   3.673
93030W        W64701   2.418  44.223   0.790
93031W        W64702  21.964  15.706  12.471
93032W        W64703  36.358   5.998  14.487
93033W        W64704  10.538  30.717  13.360
93034W        W64705  17.691  20.897   0.278
93035W        W64706  20.242  35.932   3.703
93036W        W64707  15.205   9.277   0.302
93037W        W64708   9.920  34.259  14.910
93038W        W64709  15.634  38.077   4.126
93039W        W64710  15.733   1.346  11.658
93040W        W64711  29.818  35.660  14.715
93041W        W64712  13.589  10.505  11.605
93042W        W64713  29.153  34.120   1.743
93043W        W64714  35.971  40.432  11.454
93044W        W64715   8.820  39.443  11.900
93045W        W64716  26.174  32.871  10.722
93046W        W64717  17.019  14.604   4.131
93047W        W64718  30.117  19.303   3.894
93048W        W64719  25.130  13.743  12.061
93049W        W64720  25.522   4.710  12.254
93050W        W64721  41.433   3.490  13.289
93051W        W64722   9.145  13.873   2.764
93052W        W64723   3.930   2.728   0.231
93053W        W64724  31.655  33.263   2.693
93054W        W64725  27.122  32.016  11.037
93055W        W64726   6.672  11.836   2.275
93056W        W64727   5.915  22.153   3.778
93057W        W64728  37.811  32.496  12.598
93058W        W64729  16.523  29.493  10.715
93059W        W64730  21.598  32.179  14.773
93060W        W64731  17.269  33.526  14.940
93061W        W64732  40.829  28.609  13.907
93062W        W64733  14.296  31.846  14.958
93063W        W64734  33.135  31.843   3.296
93064W        W64735  27.595  26.179   1.248
93065W        W64736  20.686   0.465   2.979
93066W        W64737  24.237  16.324   2.346
93067W        W64738  38.418   1.721  11.159
93068W        W64739  35.163  13.855   4.803
93069W        W64740  18.259  12.138  11.711
93070W        W64741  31.149  43.477   3.684
93071W        W64742   4.221  13.338  11.399
93072W        W64743  28.701   2.385   0.441
93073W        W64744  22.589   2.273   3.868
93074W        W64745   7.955  10.422   5.325
93075W        W64746  30.173   7.335  10.711
93076W        W64747   2.984  11.965  11.496
93077W        W64748   8.823  33.163   4.072
93078W        W64749   1.282   0.823  13.387
93079W        W64750  20.379  44.009   3.648
93080W        W64751   2.910  34.531  13.528
93081W        W64752  21.301   0.185   4.577
93082W        W64753  44.813   9.306   3.652
93083W        W64754  10.938  20.280  12.073
93084W        W64755  40.378   5.300   4.551
93085W        W64756  33.537  30.106   2.159
93086W        W64757  26.491   5.655  11.068
93087W        W64758   0.732   7.999  14.428
93088W        W64759  34.282   6.866  13.378
93089W        W64760  14.824  18.116   3.630
93090W        W64761  22.695   1.847   1.807
93091W        W64762  20.219  36.538   1.470
93092W        W64763  30.437  27.977  14.815
93093W        W64764   0.461  44.232   4.172
93094W        W64765  43.224  16.715   2.107
93095W        W64766  42.775  40.538   1.908
93096W        W64767  30.910  21.708   4.946
93097W        W64768  14.523  34.052   2.735
93098W        W64769   4.922  40.024   2.695
93099W        W64770  28.097  16.393   1.270
93100W        W64771   4.186  33.651   1.354
93101W        W64772  26.496  20.291  10.339
93102W        W64773  41.316  20.710   2.830
93103W        W64774  24.566  36.061   2.346
93104W        W64775  36.522  34.629   0.827
93105W        W64776  40.508   0.649  12.609
93106W        W64777  39.013  43.374   4.579
93107W        W64778   9.569  21.240  14.052
93108W        W64779  25.166  12.153  12.090
93109W        W64780  35.329   0.483   3.634
93110W        W64781  43.156  19.077   3.545
93111W        W64782  35.377  15.314   0.748
93112W        W64783  21.619  40.995   5.108
93113W        W64784   2.685  22.286  12.004
93114W        W64785   2.539  13.709  12.592
93115W        W64786  27.562  18.038  14.920
93116W        W64787   1.968   6.372   4.875
93117W        W64788   8.806  20.157  12.855
93118W        W64789  32.602   3.281   4.021
93119W        W64790  15.353  16.613   2.167
93120W        W64791  28.726  43.961  11.545
93121W        W64792  27.031  34.374  10.721
93122W        W64793  30.097  28.078   0.187
93123W        W64794   2.939  14.762   2.385
93124W        W64795  24.081  25.765   2.668
93125W        W64796   6.850  34.486   4.639
93126W        W64797  30.710  19.147   0.810
93127W        W64798  39.202  31.928  11.539
93128W        W64799   9.376  19.491  11.246
93129W        W64800  29.748  33.697  13.036
93130W        W64801   2.723  12.923   2.442
93131W        W64802  22.545  35.916  12.890
93132W        W64803  22.187   3.768   2.485
93133W        W64804  44.024   7.833   0.546
93134W        W64805  37.536  16.149  11.143
93135W        W64806  21.636  10.196  12.929
93136W        W64807  15.105  12.789  14.332
93137W        W64808  44.525  24.210  11.145
93138W        W64809   2.948  20.471   2.186
93139W        W64810  39.098  38.427   3.082
93140W        W64811  25.202  36.903  11.545
93141W        W64812   0.737  28.638   3.525
93142W        W64813  41.519  14.180   1.894
93143W        W64814   9.214  13.338   1.889
93144W        W64815   3.355  42.518   4.618
93145W        W64816  10.386   9.349   3.762
93146W        W64817  40.353  44.899  14.170
93147W        W64818  11.291  14.599  14.432
93148W        W64819  38.637   7.794  12.544
93149W        W64820  36.507  27.966  11.982
93150W        W64821  42.955  24.670  13.924
93151W        W64822   2.751  22.319  10.282
93152W        W64823   0.660  23.726   2.775
93153W        W64824  40.549  28.333   2.160
93154W        W64825  14.290  24.935   0.314
93155W        W64826  40.404  28.714   3.665
93156W        W64827  12.652  39.433   1.325
93157W        W64828  43.111  18.145  14.431
93158W        W64829   6.906  36.434  13.540
93159W        W64830  36.601  19.550  14.834
93160W        W64831   7.616  13.720   0.078
93161W        W64832  36.201  24.729   1.974
93162W        W64833   9.258  35.024   2.184
93163W        W64834   2.275  19.176   4.376
93164W        W64835   8.665  39.545  11.434
93165W        W64836  24.303  13.693   1.217
93166W        W64837  15.203  36.196   1.280
93167W        W64838  40.030  38.830   3.354
93168W        W64839  23.894  28.064  10.614
93169W        W64840   8.684  15.086  13.490
93170W        W64841  22.687  43.291  13.563
93171W        W64842  41.317  38.495  10.098
93172W        W64843  30.395  26.164   2.756
93173W        W64844  29.128  42.786   3.178
93174W        W64845  20.894   8.827  12.935
93175W        W64846   1.934  26.626   1.214
93176W        W64847  34.588  31.067  11.139
93177W        W64848  18.563  24.689  11.011
93178W        W64849  38.458  44.886   0.284
93179W        W64850  26.835  42.361  14.843
93180W        W64851  26.971   2.317  11.970
93181W        W64852  30.991  26.067  10.561
93182W        W64853  34.992  23.169  11.604
93183W        W64854  26.651  38.096   1.213
93184W        W64855  19.611  16.845  14.764
93185W        W64856   5.043  32.474   4.245
93186W        W64857  43.900  18.554   3.288
93187W        W64858  30.615  11.284   3.715
93188W        W64859  23.970  25.988  14.723
93189W        W64860  20.141  23.634  13.962
93190W        W64861  30.915  18.180   1.413
93191W        W64862  21.656  14.640  14.326
93192W        W64863  19.999  30.481   4.096
93193W        W64864  44.917  12.651  11.154
93194W        W64865  13.546  31.345   3.827
93195W        W64866  17.218  16.017   3.889
93196W        W64867  44.292  38.965   4.506
93197W        W64868  43.979  31.135   0.345
93198W        W64869  18.090  32.499  12.497
93199W        W64870   3.985  10.778   0.340
93200W        W64871  26.535   5.174  10.886
93201W        W64872  21.224   8.678   4.770
93202W        W64873  21.160  37.273  10.838
93203W        W64874   0.254   1.364  10.784
93204W        W64875   6.027   6.739   3.320
93205W        W64876  41.305  26.288   4.041
93206W        W64877   4.964  30.342   0.574
93207W        W64878  13.656  26.906   4.743
93208W        W64879  18.992  14.889  14.071
93209W        W64880   3.071  38.352   1.177
93210W        W64881  20.284  34.113  11.591
93211W        W64882  13.196  35.271  10.310
93212W        W64883  15.260   0.067  10.803
93213W        W64884  10.814  13.776  12.418
93214W        W64885  21.235  44.577   4.541
93215W        W64886  26.546  14.817   4.425
93216W        W64887  33.008  39.834  10.571
93217W        W64888  21.279  36.517   2.270
93218W        W64889  30.866  22.147   3.685
93219W        W64890  43.979  19.988  14.757
93220W        W64891   5.614  10.372   2.304
93221W        W64892  24.475  43.872   4.182
93222W        W64893   9.351   2.390   4.619
93223W        W64894  12.142  11.236   4.237
93224W        W64895  30.618   9.728  12.589
93225W        W64896   4.316  28.806   5.012
93226W        W64897  37.586   7.921  11.596
93227W        W64898  29.399   7.292  14.006
93228W        W64899   9.364   4.234  13.333
93229W        W64900   0.267   9.127  13.885
93230W        W64901  37.936  22.410  14.891
93231W        W64902  21.240  14.663  10.473
93232W        W64903  36.757  15.650   3.775
93233W        W64904  24.037  17.774   0.778
93234W        W64905  17.583   1.332   4.433
93235W        W64906   1.445  28.517  14.526
93236W        W64907  42.451  27.759   1.911
93237W        W64908   2.737  20.603  10.643
93238W        W64909   1.016   1.208   0.570
93239W        W64910  12.234  19.691  13.414
93240W        W64911  27.525  12.292   3.592
93241W        W64912  42.390  27.131   4.485
93242W        W64913  34.368  26.211   5.037
93243W        W64914  34.027  20.173  12.009
93244W        W64915  33.599  16.940   3.666
93245W        W64916  44.535  29.647   1.056
93246W        W64917  26.169  18.030   4.160
93247W        W64918   4.006  35.776  11.278
93248W        W64919   2.348   3.723  11.000
93249W        W64920   4.702  41.914  13.240
93250W        W64921  33.316  22.536  14.288
93251W        W64922  30.066  22.558  13.021
93252W        W64923   3.634   5.783   1.066
93253W        W64924  35.899  32.543   1.427
93254W        W64925  27.786   0.807  12.430
93255W        W64926  17.593   4.501   1.359
93256W        W64927   2.404  33.981   1.180
93257W        W64928  27.047  30.564  13.305
93258W        W64929   5.373  43.265  14.212
93259W        W64930  24.994  26.219   0.994
93260W        W64931  43.216  34.959  13.953
93261W        W64932  20.330  39.065   3.017
93262W        W64933  40.811  11.813  14.575
93263W        W64934  28.851  21.467  13.934
93264W        W64935  25.957  21.558   0.825
93265W        W64936  21.270   7.411   4.040
93266W        W64937   3.960  23.661   1.329
93267W        W64938  16.612  43.418  14.557
93268W        W64939   5.785  12.260  11.647
93269W        W64940  11.155   0.489  13.575
93270W        W64941  12.791   1.286  13.310
93271W        W64942  32.711  43.946   4.266
93272W        W64943   1.745  12.258  12.584
93273W        W64944  33.362  20.724   1.207
93274W        W64945  24.940  29.964  13.896
93275W        W64946  37.345  40.886   1.764
93276W        W64947  10.690  21.675  11.002
93277W        W64948   3.813   6.238   3.302
93278W        W64949  25.152   4.321  13.238
93279W        W64950  40.263  30.905   1.842
93280W        W64951  39.342  41.443  12.135
93281W        W64952  15.031  33.633   0.946
93282W        W64953  41.873  25.375   3.191
93283W        W64954  27.810  25.066  12.662
93284W        W64955  24.965  29.996   3.242
93285W        W64956  29.328  29.200   0.789
93286W        W64957  26.068  14.717  13.073
93287W        W64958   9.098   0.912  14.790
93288W        W64959  38.912  14.542  11.259
93289W        W64960  24.119  12.577  14.166
93290W        W64961  12.093  38.553   1.319
93291W        W64962  32.681   1.384   1.235
93292W        W64963  40.300  23.212  11.994
93293W        W64964  32.260  30.533  13.083
93294W        W64965  31.443   6.429   3.523
93295W        W64966  13.196  32.509  11.563
93296W        W64967   8.802  19.162   0.976
93297W        W64968  39.489  34.144  13.165
93298W        W64969  21.180  32.408   0.126
93299W        W64970  12.859  12.819   4.162
93300W        W64971  20.585   9.306  11.659
93301W        W64972  26.423  26.845   0.603
93302W        W64973  24.243  16.180  13.867
93303W        W64974   3.872  40.872  12.083
93304W        W64975   5.825  27.209  10.901
93305W        W64976  44.990  44.399   2.804
93306W        W64977  28.504   4.450   4.712
93307W        W64978  14.307   0.188  13.039
93308W        W64979  27.519   8.336  13.119
93309W        W64980  22.631  11.128   0.873
93310W        W64981  34.394   3.341  12.570
93311W        W64982   5.976  33.818   1.294
93312W        W64983   7.486   7.403   0.783
93313W        W64984   5.196  36.819   4.636
93314W        W64985  25.628  23.635   1.745
93315W        W64986   9.461  17.029   2.267
93316W        W64987  25.986  40.970   4.450
93317W        W64988  24.966  12.847  11.143
93318W        W64989  37.376   9.726   3.079
93319W        W64990  20.078  26.591   9.701
93320W        W64991  27.213   2.416   1.884
93321W        W64992   1.272  28.112   2.430
93322W        W64993  41.974  28.431   0.507
93323W        W64994  10.127   0.091  12.899
93324W        W64995  22.575   1.893  10.778
93325W        W64996  19.192  13.930   9.916
93326W        W64997   1.703   0.801   1.389
93327W        W64998  11.904  27.381  14.010
93328W        W64999  24.655  31.824  14.428
93329W        W65000  24.400  10.745   2.418
93330W        W65001  15.127  16.123   1.029
93331W        W65002  20.307  25.531   0.490
93332W        W65003  13.683  10.610   4.836
93333W        W65004  36.884  43.767   3.334
93334W        W65005   9.699  43.088  14.411
93335W        W65006  38.793  33.601  13.468
93336W        W65007   0.761  31.836   5.008
93337W        W65008  27.235   3.929  14.471
93338W        W65009  33.636  35.787   4.335
93339W        W65010   9.934  39.571   1.877
93340W        W65011   8.863  32.811  13.696
93341W        W65012  44.793   1.255   1.120
93342W        W65013   7.192   7.835   3.969
93343W        W65014  19.298  38.896  12.032
93344W        W65015   7.790  10.641   0.526
93345W        W65016  21.605  30.050  10.447
93346W        W65017  15.583  27.130   3.407
93347W        W65018   9.678  21.352  11.659
93348W        W65019  24.043  19.572   4.486
93349W        W65020  14.712  14.657   4.123
93350W        W65021  32.819  33.894  10.214
93351W        W65022  19.651  22.526  13.401
93352W        W65023  28.640  39.696  14.006
93353W        W65024  19.020  32.417   0.387
93354W        W65025  33.848  31.263   3.285
93355W        W65026   1.519  41.468   2.791
93356W        W65027   3.402  16.548  14.491
93357W        W65028  39.915  34.873  11.689
93358W        W65029  39.331  38.985  13.150
93359W        W65030  15.529   2.760  14.282
93360W        W65031  19.485  30.553  10.730
93361W        W65032   5.258  28.355   4.124
93362W        W65033  39.031   0.741  12.002
93363W        W65034  42.873  12.923  10.667
93364W        W65035  24.068   6.011   4.132
93365W        W65036  18.720   5.728  10.676
93366W        W65037   9.989  24.679  11.168
93367W        W65038   9.240  12.873  12.051
93368W        W65039  29.084   8.760   1.280
93369W        W65040   3.707  29.060   3.220
93370W        W65041  12.206  32.308  12.260
93371W        W65042   9.132  20.634  12.099
93372W        W65043  19.576  20.140   0.685
93373W        W65044   4.962  39.865  11.127
93374W        W65045  13.052   3.620  11.735
93375W        W65046  20.609  21.502  14.459
93376W        W65047  27.051  19.553   3.645
93377W        W65048  13.270  31.043  13.263
93378W        W65049  29.709   6.862   4.592
93379W        W65050  27.588  38.884  14.580
93380W        W65051  12.196  14.579  14.352
93381W        W65052  37.635   6.663   1.033
93382W        W65053  31.193   7.280  10.316
93383W        W65054  22.746  21.717  12.573
93384W        W65055  33.210  33.075  11.213
93385W        W65056  36.057  25.191  14.851
93386W        W65057  12.294  16.636   0.809
93387W        W65058  34.843  12.095   3.727
93388W        W65059   2.557   7.376  14.921
93389W        W65060  26.137  34.123  11.919
93390W        W65061  39.780  31.121  14.391
93391W        W65062  11.649   8.799  14.448
93392W        W65063  26.543  11.184  13.013
93393W        W65064   2.651  16.296  11.195
93394W        W65065  14.828   8.061   4.055
93395W        W65066  12.107   6.320   1.423
93396W        W65067  26.920   0.169   0.293
93397W        W65068  13.753   5.875  13.364
93398W        W65069  29.893  14.546   1.974
93399W        W65070  29.719  17.167   3.358
93400W        W65071   0.206  14.800  12.549
93401W        W65072  21.534  23.141  13.497
93402W        W65073  18.814   5.823   4.442
93403W        W65074  18.834  11.672  10.566
93404W        W65075   8.814  35.311   0.971
93405W        W65076  12.491  25.041   3.426
93406W        W65077  22.459  26.064  10.900
93407W        W65078  10.889  38.340  11.513
93408W        W65079  25.059  22.023  11.918
93409W        W65080  32.149   4.636   3.759
93410W        W65081  12.344  27.914  12.596
93411W        W65082  32.006   5.372   1.468
93412W        W65083  32.743  39.469   0.783
93413W        W65084  29.941   6.892   0.743
93414W        W65085  40.567  24.841  13.961
93415W        W65086   0.844  44.325   0.201
93416W        W65087   1.805   2.199   1.233
93417W        W65088  44.753  18.198  13.897
93418W        W65089  29.438   5.140  11.042
93419W        W65090  22.971  26.188  11.206
93420W        W65091  27.547  27.140  10.709
93421W        W65092   7.470  20.250  11.543
93422W        W65093  32.893   7.328   2.108
93423W        W65094  24.565  35.171   4.107
93424W        W65095  39.010   0.803   4.598
93425W        W65096   6.965  42.886  10.612
93426W        W65097  26.750  24.631  14.313
93427W        W65098  16.516  20.505   2.689
93428W        W65099   3.249  40.933  14.608
93429W        W65100   1.367  16.172   2.009
93430W        W65101  18.558  13.182   2.835
93431W        W65102  23.594   5.716   1.911
93432W        W65103  34.521  37.263  11.382
93433W        W65104  30.668   4.612   0.860
93434W        W65105  20.319  27.876  13.964
93435W        W65106  41.449  20.198  13.436
93436W        W65107  25.656  23.724  13.662
93437W        W65108  28.767  37.998   4.202
93438W        W65109  21.802   7.347   0.075
93439W        W65110  44.019   2.969  12.038
93440W        W65111  27.046  39.935   2.933
93441W        W65112  39.897   4.742  14.452
93442W        W65113  22.190   2.713   1.671
93443W        W65114  37.496  36.032   4.543
93444W        W65115  19.844  26.390   5.528
93445W        W65116  32.909  36.816  10.638
93446W        W65117  19.722  19.664   3.698
93447W        W65118  30.878  34.558  10.141
93448W        W65119  34.586   2.825  14.984
93449W        W65120   1.029  12.719  14.330
93450W        W65121  39.526  34.292  10.802
93451W        W65122  24.463  21.033  10.577
93452W        W65123  41.894  12.747   3.133
93453W        W65124  33.126   4.508   1.780
93454W        W65125   4.187  39.678   2.719
93455W        W65126  12.142  10.227  14.977
93456W        W65127   4.430  30.126   1.429
93457W        W65128  17.883  35.059   3.090
93458W        W65129  20.758  44.372   3.609
93459W        W65130  28.255   2.417  11.677
93460W        W65131   6.469  31.016   3.780
93461W        W65132  11.320  22.480   2.780
93462W        W65133   4.210  17.630   4.031
93463W        W65134  10.777  17.104  11.682
93464W        W65135  22.676  27.397  13.887
93465W        W65136   2.852  19.555   9.969
93466W        W65137  34.560  11.784  13.265
93467W        W65138  33.096  40.614   5.113
93468W        W65139  12.103  13.585   2.756
93469W        W65140  30.882  17.586   0.198
93470W        W65141  29.529  10.459  10.781
93471W        W65142  13.212  40.796   0.349
93472W        W65143  32.786  23.111  13.280
93473W        W65144  11.076  30.419  11.578
93474W        W65145   0.298   8.976   3.058
93475W        W65146  34.588  12.320   3.315
93476W        W65147  43.209   7.232  13.594
93477W        W65148  22.080  26.164   0.006
93478W        W65149  25.512  18.042   3.178
93479W        W65150  23.671  15.233  10.723
93480W        W65151  21.186  26.134   4.442
93481W        W65152  13.526  34.550  14.518
93482W        W65153  38.864   8.924  13.175
93483W        W65154   8.468  37.843  10.671
93484W        W65155  43.562  41.386   5.030
93485W        W65156  18.217  39.863  13.977
93486W        W65157   8.144  15.719  12.956
93487W        W65158  20.576  31.257  14.315
93488W        W65159  35.803  27.701  11.580
93489W        W65160  34.970  36.579  13.451
93490W        W65161  26.712  22.635   1.660
93491W        W65162  18.541  35.351  13.826
93492W        W65163  33.621   1.834   1.219
93493W        W65164  13.525  38.381  11.983
93494W        W65165  30.498  36.807   2.781
93495W        W65166  35.464  25.489   4.877
93496W        W65167  26.536   1.712   4.537
93497W        W65168   8.178  22.397   1.147
93498W        W65169  38.502  17.700   4.179
93499W        W65170  21.548  27.611   2.972
93500W        W65171  39.913  35.677   2.222
93501W        W65172  33.623   9.986  14.483
93502W        W65173  27.538   8.469  14.470
93503W        W65174  43.440  10.267   4.552
93504W        W65175  18.077  43.217  14.986
93505W        W65176  15.700  23.468   2.535
93506W        W65177  10.722  21.513   0.412
93507W        W65178  20.750  41.761   0.371
93508W        W65179  36.046  33.352   3.609
93509W        W65180   3.904  33.534  13.136
93510W        W65181  21.046  44.704  14.460
93511W        W65182   6.158   0.774   4.682
93512W        W65183  42.287  41.423   2.960
93513W        W65184  13.928  13.915  13.415
93514W        W65185  35.434  43.867   1.922
93515W        W65186  17.015  10.852   3.336
93516W        W65187   6.354   6.200   1.982
93517W        W65188  15.041  12.320   3.777
93518W        W65189  33.191  28.731  12.629
93519W        W65190  34.849  13.405   2.695
93520W        W65191  36.962  20.129   3.667
93521W        W65192  14.322   5.060  13.404
93522W        W65193  25.061  21.890  10.002
93523W        W65194  12.912   8.516   3.212
93524W        W65195  18.092   2.291  13.338
93525W        W65196  17.004  42.000  11.248
93526W        W65197   9.219  44.258  13.966
93527W        W65198   6.825  20.107  13.557
93528W        W65199  30.119  23.592  12.039
93529W        W65200   8.731  22.805   5.025
93530W        W65201  30.140  20.340  10.628
93531W        W65202   1.510  15.795   0.491
93532W        W65203   2.312  13.171  10.601
93533W        W65204  28.171  39.275  12.633
93534W        W65205  21.023  11.396  10.171
93535W        W65206  31.976  34.932   3.528
93536W        W65207   6.454  16.107  11.590
93537W        W65208  15.405   9.109   1.330
93538W        W65209  11.639  38.492   2.734
93539W        W65210  38.448   4.719   2.732
93540W        W65211  39.886  35.421   0.484
93541W        W65212  19.557  43.757   1.508
93542W        W65213  12.369  31.649  14.336
93543W        W65214   7.304  26.506   0.947
93544W        W65215  33.967   9.874  13.916
93545W        W65216   0.445  40.396   1.754
93546W        W65217   5.800   6.676  13.885
93547W        W65218   6.108   9.871  11.806
93548W        W65219  25.195  35.348   2.873
93549W        W65220   1.045  18.715  10.117
93550W        W65221  10.185  20.441   3.140
93551W        W65222  24.715  29.089   3.753
93552W        W65223   2.447  34.166   1.835
93553W        W65224  24.180  38.015   2.898
93554W        W65225  25.070  41.907  10.956
93555W        W65226  33.896  23.613  14.709
93556W        W65227  13.965   8.684  12.269
93557W        W65228  34.373  41.190   2.198
93558W        W65229  17.235  36.664   2.270
93559W        W65230  26.781   5.333   1.699
93560W        W65231  20.088  13.380   1.992
93561W        W65232   4.996   9.758   3.777
93562W        W65233   9.313   7.872   1.011
93563W        W65234  39.739  41.505   0.172
93564W        W65235  38.985  21.727  12.901
93565W        W65236  25.201  36.857   2.285
93566W        W65237   6.259  37.478   1.951
93567W        W65238  21.472  19.579  14.386
93568W        W65239  38.430  15.970  14.598
93569W        W65240  32.067  15.278  14.880
93570W        W65241  43.559  43.958  12.559
93571W        W65242   8.822  37.566   4.150
93572W        W65243  27.900  29.065   3.873
93573W        W65244  44.200  33.935  12.222
93574W        W65245  26.072   1.355  14.286
93575W        W65246  12.699   0.879   3.777
93576W        W65247  16.692  29.065  11.947
93577W        W65248  37.373   8.849   3.213
93578W        W65249  20.265  40.226   1.694
93579W        W65250  18.888  13.368   4.510
93580W        W65251  29.025  38.102  12.568
93581W        W65252   1.251  30.707  13.629
93582W        W65253  12.847  23.478  11.623
93583W        W65254  25.434  27.668   3.776
93584W        W65255  12.048  39.650  13.248
93585W        W65256  28.488  43.359  12.319
93586W        W65257  35.698  10.179   3.848
93587W        W65258   8.202  28.183  11.615
93588W        W65259  21.527  20.647  11.052
93589W        W65260  29.615  32.416   0.846
93590W        W65261   7.701   4.670   2.415
93591W        W65262   0.569  15.220  11.039
93592W        W65263   6.450  28.447   0.343
93593W        W65264  11.970  29.171   1.201
93594W        W65265  40.789  17.535  13.981
93595W        W65266  15.614  28.098   1.848
93596W        W65267   4.841   3.332   2.221
93597W        W65268  33.865  20.282  13.957
93598W        W65269  15.274   8.789  11.559
93599W        W65270  41.812  41.475   3.237
93600W        W65271  22.324   5.127  12.895
93601W        W65272  35.537  39.009  10.852
93602W        W65273  17.663  35.177  12.039
93603W        W65274  17.555  17.895  11.563
93604W        W65275  13.202  33.132   3.689
93605W        W65276  36.374   7.376   2.362
93606W        W65277  26.111  13.374   1.303
93607W        W65278  13.004  42.922   3.356
93608W        W65279   8.835  12.767  11.030
93609W        W65280  16.699  30.871   1.861
93610W        W65281  38.392  36.381  14.048
93611W        W65282  11.468  18.195  14.079
93612W        W65283  15.149  42.624  13.375
93613W        W65284  32.204  14.053  14.316
93614W        W65285  32.390  17.748  14.841
93615W        W65286  16.640  41.048  12.555
93616W        W65287   9.909   6.251  10.685
93617W        W65288  29.455  24.237   2.301
93618W        W65289  14.294   6.700  14.458
93619W        W65290   6.174  44.402   1.686
93620W        W65291  23.642  43.183  14.306
93621W        W65292   7.293  19.281   4.777
93622W        W65293  22.684  29.202  14.481
93623W        W65294  15.118  39.781  12.890
93624W        W65295   8.642   8.441  10.457
93625W        W65296  39.444  23.093  13.834
93626W        W65297   3.890   4.631   2.279
93627W        W65298  38.123  19.738  11.703
93628W        W65299  13.380   8.904   2.285
93629W        W65300  37.470   5.364   2.932
93630W        W65301  13.104   2.810   3.169
93631W        W65302  20.778  38.021   0.364
93632W        W65303  43.716   6.940  12.411
93633W        W65304  27.707  41.736   4.199
93634W        W65305  15.172  33.455   3.399
93635W        W65306  15.841   8.599   3.378
93636W        W65307  22.600  34.399   0.782
93637W        W65308  32.167  44.042   4.106
93638W        W65309   0.853  40.554  10.713
93639W        W65310  24.034   3.426  12.389
93640W        W65311  20.989  35.487   1.310
93641W        W65312   9.185  18.597   4.042
93642W        W65313  27.128  32.089   1.794
93643W        W65314   7.335  23.175  11.056
93644W        W65315  27.026   9.376   4.604
93645W        W65316  11.450  18.589   4.983
93646W        W65317  28.558   3.962   2.741
93647W        W65318  26.715   8.411  11.494
93648W        W65319  26.295  32.553   0.119
93649W        W65320  31.029  25.310   4.190
93650W        W65321  10.981  26.118   3.121
93651W        W65322   7.906  11.154   0.473
93652W        W65323   3.714  33.131  12.891
93653W        W65324  13.207  11.921  11.103
93654W        W65325  28.098   1.225  12.371
93655W        W65326  44.773  15.971   0.252
93656W        W65327  12.197  19.087   4.059
93657W        W65328  15.191   8.413   0.433
93658W        W65329  31.546  24.652   1.929
93659W        W65330  37.761  24.645   4.779
93660W        W65331  11.682   3.279  13.526
93661W        W65332   6.337  26.805  13.390
93662W        W65333   8.269  39.844  12.653
93663W        W65334  12.056  15.107  13.032
93664W        W65335  43.025  21.415   4.472
93665W        W65336  11.563  19.599  12.107
93666W        W65337  37.654   6.885  10.959
93667W        W65338  21.566   1.777  14.908
93668W        W65339  12.691  10.036  11.371
93669W        W65340  22.800   7.196   2.259
93670W        W65341  30.463  37.313  13.021
93671W        W65342   8.749   6.744   0.708
93672W        W65343  22.473  30.174  14.597
93673W        W65344  14.749  27.436  11.563
93674W        W65345  37.132  23.018  14.858
93675W        W65346  35.394   4.841  12.911
93676W        W65347  36.828  19.561   1.396
93677W        W65348   5.164  14.139   0.871
93678W        W65349  35.030  11.460   4.171
93679W        W65350  27.049   2.716   2.326
93680W        W65351   0.474  40.838  11.913
93681W        W65352  17.961  41.119  14.315
93682W        W65353  40.074  27.296  12.003
93683W        W65354  17.027  38.843   2.399
93684W        W65355   4.301  28.581  11.492
93685W        W65356  10.408  11.600   4.570
93686W        W65357  32.826  25.637   0.701
93687W        W65358  22.014   6.871   1.422
93688W        W65359  37.228  39.963  10.599
93689W        W65360  16.767  36.120   4.088
93690W        W65361  25.666  23.769  10.830
93691W        W65362  28.659  27.103  14.907
93692W        W65363  31.926   4.008   4.342
93693W        W65364  15.007  44.509  11.466
93694W        W65365  12.759  42.212  10.924
93695W        W65366  42.536  28.448  12.860
93696W        W65367  30.439  29.803  14.745
93697W        W65368  41.790   0.408  12.713
93698W        W65369  27.612  32.343  14.336
93699W        W65370   5.751  24.164   1.281
93700W        W65371  36.565  18.673  12.143
93701W        W65372  23.173  17.273   4.188
93702W        W65373  30.483  18.488   0.431
93703W        W65374  26.949  22.833   2.451
93704W        W65375  44.451   6.479  14.299
93705W        W65376   1.209  26.506   0.564
93706W        W65377  42.288  20.600   2.424
93707W        W65378  41.320  23.917  13.317
93708W        W65379  29.091  22.119   1.284
93709W        W65380  17.171  24.907   9.843
93710W        W65381   1.335  12.723   2.413
93711W        W65382  43.190  41.070   3.584
93712W        W65383   2.295   5.650   4.370
93713W        W65384  26.089  42.121  12.049
93714W        W65385  37.847  25.488  12.273
93715W        W65386   0.898  27.733   2.328
93716W        W65387  23.390  10.103  13.282
93717W        W65388  12.090  21.146   3.173
93718W        W65389  17.627  41.191   0.151
93719W        W65390   5.758  33.231  11.120
93720W        W65391  23.588  35.503   1.888
93721W        W65392  28.627  17.617   4.042
93722W        W65393  35.320  39.775   1.186
93723W        W65394  22.739   8.686  11.637
93724W        W65395  21.613  14.708   3.885
93725W        W65396   0.258   2.465  13.536
93726W        W65397  24.972   3.190   4.974
93727W        W65398  43.469   2.324  12.637
93728W        W65399  12.805  42.569   2.161
93729W        W65400  23.143  12.259  11.179
93730W        W65401  39.285   3.279   0.411
93731W        W65402  35.966  28.694  11.731
93732W        W65403  12.626  34.454  11.419
93733W        W65404  26.459  24.856   2.357
93734W        W65405   9.362  16.081  12.062
93735W        W65406  15.143   9.644  14.047
93736W        W65407  28.449   3.824   2.226
93737W        W65408  15.697  38.326   2.251
93738W        W65409   9.911  23.957   1.788
93739W        W65410  10.603  20.140   3.150
93740W        W65411   3.928   0.376  10.539
93741W        W65412  11.586  11.771   1.769
93742W        W65413  10.152  20.270  10.051
93743W        W65414   5.999  20.803  12.721
93744W        W65415  12.669  35.643  12.422
93745W        W65416   7.197  40.442  12.418
93746W        W65417   8.560  13.585  11.668
93747W        W65418  15.645  26.588  12.387
93748W        W65419  10.287  43.924   2.244
93749W        W65420  14.573  17.031   0.317
93750W        W65421  43.790  18.474   4.223
93751W        W65422  26.259  29.185  12.057
93752W        W65423   3.387  16.544  13.383
93753W        W65424  37.175  10.658   0.071
93754W        W65425   7.643  38.048  11.146
93755W        W65426  15.837  27.376  12.280
93756W        W65427  32.606  26.135   4.447
93757W        W65428   7.629  41.215   2.830
93758W        W65429   9.678  41.327   0.919
93759W        W65430  25.116  35.959  13.180
93760W        W65431  20.055  29.089  14.089
93761W        W65432   2.018   5.289   4.644
93762W        W65433  24.169  23.736  13.787
93763W        W65434  14.337  27.602   1.909
93764W        W65435  17.619  15.724   4.550
93765W        W65436  12.330  23.669   0.933
93766W        W65437  18.781  20.980   2.305
93767W        W65438  39.015  23.513  14.777
93768W        W65439  30.843   6.295   1.360
93769W        W65440  38.199  10.264  10.344
93770W        W65441   6.030   6.875  11.369
93771W        W65442  28.817  21.288  14.441
93772W        W65443  27.336  27.494   1.077
93773W        W65444  39.224   7.657  11.734
93774W        W65445  28.325  23.468   4.954
93775W        W65446  21.244  34.619  14.410
93776W        W65447  17.794  22.409  12.510
93777W        W65448   5.380  15.123   3.235
93778W        W65449  26.585  24.477  12.885
93779W        W65450  16.131  41.986  14.260
93780W        W65451  14.029   5.197  12.969
93781W        W65452  10.121  18.242  14.486
93782W        W65453   1.246  13.530   1.690
93783W        W65454  35.972  41.501   2.127
93784W        W65455  27.821  32.588   0.860
93785W        W65456   5.243   2.729   4.436
93786W        W65457   9.701  35.051  10.706
93787W        W65458   7.219  21.036  12.178
93788W        W65459  10.267  28.262  11.641
93789W        W65460  22.593  11.351   3.069
93790W        W65461   1.687  24.741  11.115
93791W        W65462  16.627  19.573   1.437
93792W        W65463  17.713  44.784  14.127
93793W        W65464   5.948   4.671  11.189
93794W        W65465  30.055  14.800   0.728
93795W        W65466  36.819   3.722  12.058
93796W        W65467  37.491  19.013  13.420
93797W        W65468  11.142   8.863   2.590
93798W        W65469   9.786  15.018   2.466
93799W        W65470   2.218  44.084  11.062
93800W        W65471  19.563  42.913  11.960
93801W        W65472  34.047  33.332  12.365
93802W        W65473  26.982   1.387  14.764
93803W        W65474  24.242   7.743  10.443
93804W        W65475  29.123   8.107   4.479
93805W        W65476  17.996   1.535   1.148
93806W        W65477   0.514  30.680   2.293
93807W        W65478  42.265   5.700   1.732
93808W        W65479   8.795   3.413  12.837
93809W        W65480  23.725   6.277   3.755
93810W        W65481  32.497  39.795   0.400
93811W        W65482  43.375  24.502  12.481
93812W        W65483  35.334  10.714  12.066
93813W        W65484  31.192  28.230  13.547
93814W        W65485   7.607  10.742  14.515
93815W        W65486  18.254  25.415   4.997
93816W        W65487  16.099  24.999   4.270
93817W        W65488  20.471  39.514  11.662
93818W        W65489  13.819  13.589   0.171
93819W        W65490  22.436  39.498  10.598
93820W        W65491  26.558  27.173   4.409
93821W        W65492  23.309   1.864   3.640
93822W        W65493  32.896  17.777  11.129
93823W        W65494  28.697  22.050   2.526
93824W        W65495   1.323  36.543   1.346
93825W        W65496   3.832  24.144  11.410
93826W        W65497  21.900  39.974  13.151
93827W        W65498  31.099   0.894  12.445
93828W        W65499  24.728   2.473   0.357
93829W        W65500  36.114  14.114  13.000
93830W        W65501   5.354  10.814   0.450
93831W        W65502  28.456  39.915   1.882
93832W        W65503  19.077  32.630  13.625
93833W        W65504  20.780  12.407   0.030
93834W        W65505  15.778  40.038  10.290
93835W        W65506  26.708  23.543  11.117
93836W        W65507  21.138   1.457   2.207
93837W        W65508  24.982   4.380   1.330
93838W        W65509  13.577  22.495  12.887
93839W        W65510   1.846  18.350  14.509
93840W        W65511  21.919  40.807   4.271
93841W        W65512  43.318   6.393   0.821
93842W        W65513   5.265  21.581  14.063
93843W        W65514  25.914  33.140   2.190
93844W        W65515  20.206   8.635  12.184
93845W        W65516   5.933  28.434   4.392
93846W        W65517  40.845  18.221   3.866
93847W        W65518   9.374  40.575  12.212
93848W        W65519  33.277  37.926   2.397
93849W        W65520   7.764  34.869  11.665
93850W        W65521  19.574  31.976   3.704
93851W        W65522  34.642  10.961  13.364
93852W        W65523  44.870   5.557   4.127
93853W        W65524   8.501  32.813  13.313
93854W        W65525  32.233  32.591   3.484
93855W        W65526  28.324  36.532   2.674
93856W        W65527   5.752  17.706  13.826
93857W        W65528  34.154   0.812  14.498
93858W        W65529   7.261   8.622   1.705
93859W        W65530  17.269  39.789   0.336
93860W        W65531   3.883   9.388   0.815
93861W        W65532  22.748   2.428   4.848
93862W        W65533   6.926  18.097   1.288
93863W        W65534  21.474  11.893  13.342
93864W        W65535  27.038  21.258  13.804
93865W        W65536  33.717  34.755   3.148
93866W        W65537   3.664  31.311  14.923
93867W        W65538  37.559   1.748  12.076
93868W        W65539  11.705  11.115  14.873
93869W        W65540   0.484  41.147   2.888
93870W        W65541  39.355  35.146   4.502
93871W        W65542  25.734  32.269   1.810
93872W        W65543  13.125  37.349  12.104
93873W        W65544  40.991  14.026   1.074
93874W        W65545  44.460  14.354  13.827
93875W        W65546   1.472  21.704  13.329
93876W        W65547  43.021  13.928  11.056
93877W        W65548  32.158  11.407  13.586
93878W        W65549  14.231  16.820   2.661
93879W        W65550  36.915  26.043   0.008
93880W        W65551  30.153   3.208  14.768
93881W        W65552  26.581   8.205  13.807
93882W        W65553  40.297  14.329   3.713
93883W        W65554   6.163  15.737  14.997
93884W        W65555   4.297   9.820   1.507
93885W        W65556  18.732  17.886  13.605
93886W        W65557  12.364  33.849   4.092
93887W        W65558  23.952  27.701   2.753
93888W        W65559  43.875  31.523  12.451
93889W        W65560  38.044   3.387   4.427
93890W        W65561  36.068  42.169  13.900
93891W        W65562   6.510   7.343  12.643
93892W        W65563  14.879  35.028  11.038
93893W        W65564  21.813  39.230   3.606
93894W        W65565   6.267  39.712  11.843
93895W        W65566   1.268   4.679  13.310
93896W        W65567  40.771  18.700  10.705
93897W        W65568   0.629   6.951   2.739
93898W        W65569  17.212  28.479  12.334
93899W        W65570  18.187  33.071   4.932
93900W        W65571   9.143  15.648  14.821
93901W        W65572  10.758   8.111  13.460
93902W        W65573  21.492   4.228   0.446
93903W        W65574  37.589  13.811  11.463
93904W        W65575  16.120  24.628  14.053
93905W        W65576  42.777   5.683  12.111
93906W        W65577   4.246  29.474  13.104
93907W        W65578   5.969   2.875   3.722
93908W        W65579  43.751  12.238  12.418
93909W        W65580   3.850  23.311  13.304
93910W        W65581   9.910   2.194   0.847
93911W        W65582  15.642  11.610   4.199
93912W        W65583  35.586  42.439  13.861
93913W        W65584  30.021  31.872   2.497
93914W        W65585  28.695   9.175   3.727
93915W        W65586  23.235  43.191  10.722
93916W        W65587  35.932  36.509   1.228
93917W        W65588   8.176  36.415  11.372
93918W        W65589  34.427  10.098  10.748
93919W        W65590  22.148   9.787   2.361
93920W        W65591  14.477  34.665  14.816
93921W        W65592  42.537  28.409   3.977
93922W        W65593  13.117   8.169  11.616
93923W        W65594  12.801  23.263   3.394
93924W        W65595  39.205  21.605   2.366
93925W        W65596  11.557  18.264  11.384
93926W        W65597  28.408  10.235  13.886
93927W        W65598  11.186  31.897  11.548
93928W        W65599  15.872  21.063  12.885
93929W        W65600  10.192  40.821   0.159
93930W        W65601   9.023  26.933   2.575
93931W        W65602   3.395  24.845  14.881
93932W        W65603  15.076  42.266  11.201
93933W        W65604  36.804  22.101  11.093
93934W        W65605  17.705  37.333  11.112
93935W        W65606  20.679   0.932  10.752
93936W        W65607  32.384  33.101   0.466
93937W        W65608  18.814  20.092  12.032
93938W        W65609  39.494  24.910   3.349
93939W        W65610  14.230  22.105   1.649
93940W        W65611  42.481   1.954  11.350
93941W        W65612   5.805  41.416   4.538
93942W        W65613  13.711  20.998   2.420
93943W        W65614  29.161  40.373  13.618
93944W        W65615  27.998  33.541   2.257
93945W        W65616  19.624   1.521  11.643
93946W        W65617   6.880   7.194   4.410
93947W        W65618  41.012  32.108  13.894
93948W        W65619  39.137  43.887  12.858
93949W        W65620  25.088  41.605  12.605
93950W        W65621  23.985   9.862   4.258
93951W        W65622  37.052  25.769  11.276
93952W        W65623  42.833  35.893  14.521
93953W        W65624  26.030  27.872  14.132
93954W        W65625  39.249  25.531  12.428
93955W        W65626  16.935   7.754  14.045
93956W        W65627  14.656  39.911   4.346
93957W        W65628   7.710   7.087  12.690
93958W        W65629  21.089   9.131  11.827
93959W        W65630  36.441   8.135   3.724
93960W        W65631   0.793   6.183   1.524
93961W        W65632  28.387  11.878   0.846
93962W        W65633  15.820  27.689   2.120
93963W        W65634  32.957  40.041   0.285
93964W        W65635  26.072  30.754   9.917
93965W        W65636  12.380  32.314   2.773
93966W        W65637  35.104  39.919   2.861
93967W        W65638   4.846  10.229   3.605
93968W        W65639  25.001   2.655  12.031
93969W        W65640  10.163  37.980  11.939
93970W        W65641  32.451   5.684   0.764
93971W        W65642   3.881  36.920   1.627
93972W        W65643  11.437  25.043   2.810
93973W        W65644  42.489  41.477  11.413
93974W        W65645  29.603   3.966   3.753
93975W        W65646   2.455  10.837   1.903
93976W        W65647  32.052   3.413  11.159
93977W        W65648   6.916  30.038  10.586
93978W        W65649  24.577  31.902   2.166
93979W        W65650  27.202  27.314  14.186
93980W        W65651   5.569  16.273   0.682
93981W        W65652   4.039  40.914  13.001
93982W        W65653  19.641  16.739   0.292
93983W        W65654  40.425  18.634   9.979
93984W        W65655  32.336   4.013  13.847
93985W        W65656  43.987  43.466   1.342
93986W        W65657  27.655  37.843  13.122
93987W        W65658   0.701  13.593   3.764
93988W        W65659  33.665  36.581  14.366
93989W        W65660   7.456  35.541  14.422
93990W        W65661  22.670   2.788   3.356
93991W        W65662   0.564  10.204  11.041
93992W        W65663  26.160   8.665  14.548
93993W        W65664   4.480  39.328  12.573
93994W        W65665  37.509   4.165   1.749
93995W        W65666  39.091  23.062  10.617
93996W        W65667  39.373  36.132   0.423
93997W        W65668  39.382  29.417  12.599
93998W        W65669  15.203   2.815  12.829
93999W        W65670  31.473  26.576  11.090
94000W        W65671   3.736  38.863   2.816
94001W        W65672  42.050   5.793   1.244
94002W        W65673   9.811   8.342   0.431
94003W        W65674  44.699  26.364  12.472
94004W        W65675  10.822  18.309  12.984
94005W        W65676   9.053  16.699   0.324
94006W        W65677   6.944  20.970   2.424
94007W        W65678  13.381   4.329   4.166
94008W        W65679   9.553  26.328   0.298
94009W        W65680  44.433  21.198  13.296
94010W        W65681   2.246  34.436  11.145
94011W        W65682  14.305  35.574   3.265
94012W        W65683   7.213  40.591   3.034
94013W        W65684  37.262  43.684   1.750
94014W        W65685  41.537  25.658   1.811
94015W        W65686  23.660  35.332   1.390
94016W        W65687  42.129  26.698  10.441
94017W        W65688   4.390  22.989  11.048
94018W        W65689   6.902  40.370   0.960
94019W        W65690  15.064  38.084  11.648
94020W        W65691  24.130  44.767   4.634
94021W        W65692  41.014  24.783   2.168
94022W        W65693  42.297  28.192  14.260
94023W        W65694  14.203  39.374   0.679
94024W        W65695  44.287   8.748  13.700
94025W        W65696  37.447  16.340  14.477
94026W        W65697  26.690   1.840  10.253
94027W        W65698  16.407   8.191   2.897
94028W        W65699  21.496  22.511  12.094
94029W        W65700   1.827  13.260   3.954
94030W        W65701  36.113   4.923  14.030
94031W        W65702  17.773   5.518   1.541
94032W        W65703  12.852  23.112   0.278
94033W        W65704  17.809  15.054  14.869
94034W        W65705  38.954  25.496   0.324
94035W        W65706   7.846  37.073   0.443
94036W        W65707  20.003  22.727  14.944
94037W        W65708  27.014  28.691  14.092
94038W        W65709  32.413  34.984  14.861
94039W        W65710  33.027  16.549   4.298
94040W        W65711  22.724  13.628  14.430
94041W        W65712  20.069  19.198   2.201
94042W        W65713  16.200  23.647   2.465
94043W        W65714  37.873  21.179  10.603
94044W        W65715   8.745  38.465  12.990
94045W        W65716   5.761   0.978   1.913
94046W        W65717  43.817  44.374  14.333
94047W        W65718  13.658  29.953  13.090
94048W        W65719   5.689  28.073   4.030
94049W        W65720  36.017  20.291  14.442
94050W        W65721  29.868   7.770  10.704
94051W        W65722   2.999  11.578   0.905
94052W        W65723  26.221  39.618   0.791
94053W        W65724  13.276   0.784   1.695
94054W        W65725  26.921   7.812   2.822
94055W        W65726  35.384  39.434  13.007
94056W        W65727  26.064  32.995   2.661
94057W        W65728  18.221  20.151   2.425
94058W        W65729  15.308   7.390   1.666
94059W        W65730  16.367  14.050   1.228
94060W        W65731  37.876  38.503  14.008
94061W        W65732   4.847  18.439   1.732
94062W        W65733  16.695  28.412  11.642
94063W        W65734   5.733  23.114   2.725
94064W        W65735   1.938   1.725  11.112
94065W        W65736  24.435  30.576  12.527
94066W        W65737  42.691  24.435  14.310
94067W        W65738  34.855  40.916   4.369
94068W        W65739   6.367  29.141   4.092
94069W        W65740   0.385   6.616  14.622
94070W        W65741  31.504   8.410  12.925
94071W        W65742   5.376  31.522   2.412
94072W        W65743  19.254  25.458  13.303
94073W        W65744  15.942  17.765  14.941
94074W        W65745   7.887   4.737  11.079
94075W        W65746  22.631  36.425   2.868
94076W        W65747  42.238   9.077   2.744
94077W        W65748  40.876  20.567   1.161
94078W        W65749  33.964   0.001  11.477
94079W        W65750   6.362   4.946   1.200
94080W        W65751  40.395   2.409   3.584
94081W        W65752   9.076  40.453   3.318
94082W        W65753   1.901  20.528  13.959
94083W        W65754  40.732  13.064   1.365
94084W        W65755  12.209   5.885   2.728
94085W        W65756  39.727  14.138   3.132
94086W        W65757  35.952   4.295  14.563
94087W        W65758  10.232  19.214  11.949
94088W        W65759  34.312   2.141  12.471
94089W        W65760  38.978  39.454   0.001
94090W        W65761  26.129  36.925   4.298
94091W        W65762  12.186   7.728   1.325
94092W        W65763  31.498  39.480   4.014
94093W        W65764  38.765   8.188   3.229
94094W        W65765  40.303  13.557   3.233
94095W        W65766  26.393  21.693  12.000
94096W        W65767  13.959  32.470  12.548
94097W        W65768  19.825  13.253   2.925
94098W        W65769  39.344  16.735  12.906
94099W        W65770  26.802  24.547  11.015
94100W        W65771  41.996   8.880   4.469
94101W        W65772   3.920   1.140  14.518
94102W        W65773  28.254  25.147   4.192
94103W        W65774  13.505  23.683   4.664
94104W        W65775  39.602   1.767  12.027
94105W        W65776  33.022  14.801   0.773
94106W        W65777  34.293  10.964   3.156
94107W        W65778  34.717  41.175   5.047
94108W        W65779  21.328   3.219   3.626
94109W        W65780  34.072  19.780   1.849
94110W        W65781   1.944  21.529  11.543
94111W        W65782  32.174   3.852   5.126
94112W        W65783   9.570  21.623  10.420
94113W        W65784   1.304  17.384  12.950
94114W        W65785  19.100  20.676  14.569
94115W        W65786  40.976  39.605  14.527
94116W        W65787  29.044   9.085  10.502
94117W        W65788  15.794  43.705   2.230
94118W        W65789  26.555  13.695   2.796
94119W        W65790  15.923  27.892  10.090
94120W        W65791  36.807   5.157  14.913
94121W        W65792  20.996  36.299  12.049
94122W        W65793  22.573  31.018   0.572
94123W        W65794  29.686  11.660  13.898
94124W        W65795  26.086  29.411   2.285
94125W        W65796  29.587  29.569   4.168
94126W        W65797  34.048  11.683   3.803
94127W        W65798  42.859  21.971   3.029
94128W        W65799  42.972  39.273   2.198
94129W        W65800  13.869   3.133   0.323
94130W        W65801  10.143  40.012   9.993
94131W        W65802   2.490   0.464  11.104
94132W        W65803  14.005  12.952   5.055
94133W        W65804  16.626  18.682   4.423
94134W        W65805  35.538   5.352   0.683
94135W        W65806   9.340  14.273   4.051
94136W        W65807  34.476  40.963  10.719
94137W        W65808  27.012  19.500  13.098
94138W        W65809  40.131  11.227  12.551
94139W        W65810   6.833  35.038   0.464
94140W        W65811   0.692  16.965  11.491
94141W        W65812   4.641  16.715   1.969
94142W        W65813  21.938  27.486  12.569
94143W        W65814   8.068  24.860  10.319
94144W        W65815  44.238  44.816   1.319
94145W        W65816  22.880  30.841   2.781
94146W        W65817  20.502   4.697  12.967
94147W        W65818  10.149  19.720  12.022
94148W        W65819  20.477  38.195   4.026
94149W        W65820  38.131  41.277   1.941
94150W        W65821  42.804  34.054   0.272
94151W        W65822  41.884  31.071   4.407
94152W        W65823  10.278  24.670  10.720
94153W        W65824  42.849  30.415  13.513
94154W        W65825  29.593  22.079  11.549
94155W        W65826  21.087  17.726  12.079
94156W        W65827  27.144   8.532  11.990
94157W        W65828  33.908   9.848  14.905
94158W        W65829  41.125  41.538  11.644
94159W        W65830  31.837  33.559  12.229
94160W        W65831  16.852  13.704   3.976
94161W        W65832  10.632  26.051   3.486
94162W        W65833  42.498  36.998   0.478
94163W        W65834  38.825   8.908   0.138
94164W        W65835  38.306   2.203  13.837
94165W        W65836  20.691  25.251   1.037
94166W        W65837  29.992  38.991   1.688
94167W        W65838  23.851  44.366   1.768
94168W        W65839   3.937  27.916   0.853
94169W        W65840  36.579  44.519  12.424
94170W        W65841  33.154  38.523   4.064
94171W        W65842  35.964   8.180  12.922
94172W        W65843   6.440  30.831  13.013
94173W        W65844  17.095  23.907   0.921
94174W        W65845  12.672  17.579   1.335
94175W        W65846  23.205  43.253   4.468
94176W        W65847   8.298  42.286  12.936
94177W        W65848  21.251  35.395   2.682
94178W        W65849  22.272  14.253   3.386
94179W        W65850  16.552   6.791   5.345
94180W        W65851  14.067  31.084   0.946
94181W        W65852  25.693   2.439  14.337
94182W        W65853   4.809  12.145  11.596
94183W        W65854  17.138  40.556  11.936
94184W        W65855  41.488  21.377  10.733
94185W        W65856  30.345   6.534  12.283
94186W        W65857  11.042   3.736   4.149
94187W        W65858  38.158  38.438   3.281
94188W        W65859  17.612   0.580   0.334
94189W        W65860  31.526  30.740  10.281
94190W        W65861  44.411  15.289  11.795
94191W        W65862  20.505  17.120   3.855
94192W        W65863  23.512  15.825   1.363
94193W        W65864  32.530  36.112   3.238
94194W        W65865  20.589  38.593   0.863
94195W        W65866   1.457   9.266   1.399
94196W        W65867  13.725   3.051   3.558
94197W        W65868  13.801  16.177   0.354
94198W        W65869   2.214  35.684  10.839
94199W        W65870  12.313  39.965   4.296
94200W        W65871  44.027   9.223  10.570
94201W        W65872  42.853   7.730   0.536
94202W        W65873  31.331   9.085  11.048
94203W        W65874  11.824   2.405   4.206
94204W        W65875  17.169  24.464   4.127
94205W        W65876   7.095  22.585   1.758
94206W        W65877  27.210   9.457  14.199
94207W        W65878   3.190   4.222  13.085
94208W        W65879  22.492  40.553   2.401
94209W        W65880  22.268   4.485  12.611
94210W        W65881  44.585  11.065   0.449
94211W        W65882  11.322  25.844   4.092
94212W        W65883  42.767  15.647   1.041
94213W        W65884   1.328  38.774   1.609
94214W        W65885  28.200  33.228  11.081
94215W        W65886  17.612  10.688  14.367
94216W        W65887  11.299  31.518   4.703
94217W        W65888  33.404  31.361   1.032
94218W        W65889   6.237  11.935   1.247
94219W        W65890  13.647   4.789   1.736
94220W        W65891   6.353  17.743   2.839
94221W        W65892  43.715  43.020   3.238
94222W        W65893  17.561  44.748   2.339
94223W        W65894  12.835   8.889   2.266
94224W        W65895  42.707  12.618  13.861
94225W        W65896  16.341  36.403   3.788
94226W        W65897  10.639   9.744   2.378
94227W        W65898  31.114  12.702   3.035
94228W        W65899  35.872  39.465   3.144
94229W        W65900  29.692  19.079   3.669
94230W        W65901   9.792   3.633   0.846
94231W        W65902  38.996  26.301  14.920
94232W        W65903  22.361  30.236  13.048
94233W        W65904   4.309  28.170  14.493
94234W        W65905  37.988  40.874  12.168
94235W        W65906   0.854  35.856   3.281
94236W        W65907  26.480  36.547   2.313
94237W        W65908   3.257  29.217   4.013
94238W        W65909  41.024   1.798   4.634
94239W        W65910   4.830   6.433  12.575
94240W        W65911   4.778  14.220   3.225
94241W        W65912  12.387  23.254  13.886
94242W        W65913   4.011  16.506   3.182
94243W        W65914  32.163  17.145  12.718
94244W        W65915  40.586  32.162  12.978
94245W        W65916  26.106  26.598  14.346
94246W        W65917  28.960  35.560   4.149
94247W        W65918  26.217  20.255   4.151
94248W        W65919  44.543  33.006  14.397
94249W        W65920  32.196   0.485   2.914
94250W        W65921  40.796  14.269   3.873
94251W        W65922  20.649  10.682   1.236
94252W        W65923  37.461  17.387   5.003
94253W        W65924  15.342  39.404   4.320
94254W        W65925  33.849  37.132  10.176
94255W        W65926  27.123   2.784   1.382
94256W        W65927  16.648  16.577   3.768
94257W        W65928  11.145   5.896   4.370
94258W        W65929   0.795  29.136  11.585
94259W        W65930  16.226  43.849   4.484
94260W        W65931  37.964  36.148   1.872
94261W        W65932   0.099  28.191  12.397
94262W        W65933  30.134   6.015  12.116
94263W        W65934  36.722  41.926   1.861
94264W        W65935   0.322   2.642  10.435
94265W        W65936  25.138   8.752   1.183
94266W        W65937   5.883  24.196  14.894
94267W        W65938  14.189  41.378   3.817
94268W        W65939   3.864  34.278   0.399
94269W        W65940   8.748  35.200  12.131
94270W        W65941   4.045   8.746   3.951
94271W        W65942  40.846  37.632  12.822
94272W        W65943  10.941  23.213  14.758
94273W        W65944   2.830  32.154  13.408
94274W        W65945   8.825  31.913  11.583
94275W        W65946  12.071  27.808  11.893
94276W        W65947   4.285  28.167  12.529
94277W        W65948  40.493  22.192  13.664
94278W        W65949  44.809  28.166  13.302
94279W        W65950   4.742   9.069  12.205
94280W        W65951  35.134  44.088  11.038
94281W        W65952   8.646  43.483   1.349
94282W        W65953  25.548  19.946   0.226
94283W        W65954  39.250   8.384   3.230
94284W        W65955   8.869  33.872  12.546
94285W        W65956  21.987  24.943   3.249
94286W        W65957  10.678  24.265   2.821
94287W        W65958  31.394  44.016  14.025
94288W        W65959  38.419   0.158  12.203
94289W        W65960  40.320  22.764   2.768
94290W        W65961  33.447  18.060   2.913
94291W        W65962  22.712  16.906   2.769
94292W        W65963  31.463  36.978  13.552
94293W        W65964  30.687  34.605   0.708
94294W        W65965   1.504  19.086  10.622
94295W        W65966   6.995  21.045  10.417
94296W        W65967   4.597  11.683  11.780
94297W        W65968  17.107   6.126   0.129
94298W        W65969  35.636  23.195  12.924
94299W        W65970  25.524   4.246  12.061
94300W        W65971   1.388   8.262   4.558
94301W        W65972  30.082  23.509   3.870
94302W        W65973   0.448   6.211   4.559
94303W        W65974  19.268   6.734   2.807
94304W        W65975  11.067  19.219  12.199
94305W        W65976   4.233  32.715   4.547
94306W        W65977   6.204  40.901   1.993
94307W        W65978   5.674  41.241   4.073
94308W        W65979  38.068  32.708  13.028
94309W        W65980  28.035  32.371  13.982
94310W        W65981   9.495  24.705  13.902
94311W        W65982  32.700  10.903  11.567
94312W        W65983  11.335   1.493   0.319
94313W        W65984   6.553  16.103   0.896
94314W        W65985   1.465  28.430   1.696
94315W        W65986   5.727  27.533   2.410
94316W        W65987  13.176   8.069   0.618
94317W        W65988  33.990  17.774  12.898
94318W        W65989  22.764  11.269   4.432
94319W        W65990  17.726   7.431  10.673
94320W        W65991  21.524  32.611   1.368
94321W        W65992  37.575  44.263   2.714
94322W        W65993  39.264  19.688   1.438
94323W        W65994  30.439  11.564  14.341
94324W        W65995  33.525  30.555  10.755
94325W        W65996  27.010  40.095  11.125
94326W        W65997   2.989  40.083   1.743
94327W        W65998  14.061   5.733  11.778
94328W        W65999  25.246  39.231  11.169
94329W        W66000  27.738  21.416  14.768
94330W        W66001  11.949  18.205  13.896
94331W        W66002   4.190  35.857   2.367
94332W        W66003  17.060  27.743   1.205
94333W        W66004   3.893   5.907   4.610
94334W        W66005  21.708  39.802   1.200
94335W        W66006  36.299  29.691  11.179
94336W        W66007  44.941  29.057   4.290
94337W        W66008  14.683  11.426   1.789
94338W        W66009  10.020   2.748   3.352
94339W        W66010  21.058  36.419   1.197
94340W        W66011  25.361   6.104   3.372
94341W        W66012  39.008   8.352  11.610
94342W        W66013  26.521  36.111  10.782
94343W        W66014   1.470  40.357  13.869
94344W        W66015   1.266  13.440  13.076
94345W        W66016  22.068  31.406  14.430
94346W        W66017  39.765  18.705  11.728
94347W        W66018  18.303  43.704   2.168
94348W        W66019  12.101  22.909   1.252
94349W        W66020   4.425  16.670   3.740
94350W        W66021  44.770   6.898  10.888
94351W        W66022  38.403  36.919   4.862
94352W        W66023  14.009  43.768   0.208
94353W        W66024  14.069  44.495   3.668
94354W        W66025  41.520  26.943   0.038
94355W        W66026  31.549  11.600  12.817
94356W        W66027  20.095  18.124   0.413
94357W        W66028  19.452  42.007   1.772
94358W        W66029  20.131  21.231  13.993
94359W        W66030  43.427  13.694  14.752
94360W        W66031   7.689  11.539   5.137
94361W        W66032  15.442  19.935  11.682
94362W        W66033   6.465  31.974  12.539
94363W        W66034   2.020  27.994   3.519
94364W        W66035  10.426   6.999  13.658
94365W        W66036  32.888  39.517  13.958
94366W        W66037  21.523  31.670  13.315
94367W        W66038  28.116   4.778   4.611
94368W        W66039  18.471  12.638   2.876
94369W        W66040  39.523  14.553  14.360
94370W        W66041  28.926  26.767   3.872
94371W        W66042  18.777  41.055   2.865
94372W        W66043  44.825  19.791  14.788
94373W        W66044  36.511  42.816   4.212
94374W        W66045  27.329  30.015  11.755
94375W        W66046   3.023  34.118   3.814
94376W        W66047  12.385  36.862  13.940
94377W        W66048   2.250   1.987   3.732
94378W        W66049  44.813  13.607   0.899
94379W        W66050  40.991  28.014  10.945
94380W        W66051  18.023  26.052  11.314
94381W        W66052   0.687  15.821  13.446
94382W        W66053  28.663  12.754  11.315
94383W        W66054  26.222  14.289   2.262
94384W        W66055   7.950  31.533  11.682
94385W        W66056  11.410  33.566   0.968
94386W        W66057  44.752  42.842   3.285
94387W        W66058  25.411   6.563   2.730
94388W        W66059  31.877  38.122  13.999
94389W        W66060  23.175  24.452   0.706
94390W        W66061  37.888  21.342   0.825
94391W        W66062   3.373   0.847  12.622
94392W        W66063   1.034   7.874   2.806
94393W        W66064  12.307  35.545  13.302
94394W        W66065  11.405   3.028  14.412
94395W        W66066  11.612  42.762  13.070
94396W        W66067  33.799  37.993   2.412
94397W        W66068  39.997  39.239   3.662
94398W        W66069  14.922  26.684  13.098
94399W        W66070   8.658  20.104   2.435
94400W        W66071   9.266  34.453   4.208
94401W        W66072   8.324  10.682  12.461
94402W        W66073   8.815  34.071  10.723
94403W        W66074  12.917  42.501  13.418
94404W        W66075  37.385  33.360   4.986
94405W        W66076   8.214  31.940   3.054
94406W        W66077  33.864  44.850   0.310
94407W        W66078  24.540  15.516  13.361
94408W        W66079  24.942  11.321  14.785
94409W        W66080   9.351  14.457   0.334
94410W        W66081   8.097   7.697   4.174
94411W        W66082  27.508  20.753  12.033
94412W        W66083  32.141  26.970  11.422
94413W        W66084  12.792   0.237   1.891
94414W        W66085  41.962  16.588   3.295
94415W        W66086  23.001  14.175  11.459
94416W        W66087  33.544  40.402  12.070
94417W        W66088  18.403  29.477   5.005
94418W        W66089  21.661  35.978   5.091
94419W        W66090  44.372  42.932  13.791
94420W        W66091  44.990  23.777   9.904
94421W        W66092  22.198  37.570  14.868
94422W        W66093  33.977   6.420  13.772
94423W        W66094  33.847   6.308  12.932
94424W        W66095  14.555  30.559   2.529
94425W        W66096  38.295  30.554  11.164
94426W        W66097  31.046  15.523   0.466
94427W        W66098  27.395   8.757   2.758
94428W        W66099   0.010  26.051   2.625
94429W        W66100  43.699  10.850   2.908
94430W        W66101  34.591  33.195  12.036
94431W        W66102   9.208  38.368   1.711
94432W        W66103  42.510  42.800  13.187
94433W        W66104  36.893  14.858  12.006
94434W        W66105   0.677  23.808   4.324
94435W        W66106  39.579  43.439  10.641
94436W        W66107   2.519  44.496  10.973
94437W        W66108  28.119  41.559  14.825
94438W        W66109   5.948  36.049  10.662
94439W        W66110  37.046  14.269  13.411
94440W        W66111   6.176  31.951  14.010
94441W        W66112  39.818  42.450  10.680
94442W        W66113   9.403  25.200  13.025
94443W        W66114  26.950  34.836  10.529
94444W        W66115  28.538  30.347   0.839
94445W        W66116  34.841  29.803   2.187
94446W        W66117  38.510  16.673   4.030
94447W        W66118  20.668  30.297  10.691
94448W        W66119  22.050   4.327   3.677
94449W        W66120  29.540  33.808   2.642
94450W        W66121  33.902  21.658   0.776
94451W        W66122  10.387  26.036  12.941
94452W        W66123  22.877   1.812  13.288
94453W        W66124  30.525  14.255   3.622
94454W        W66125   9.700  38.485   4.891
94455W        W66126  28.813   6.935  14.756
94456W        W66127   2.029  24.045  11.370
94457W        W66128  31.573  28.991   3.512
94458W        W66129  39.006   6.090  11.592
94459W        W66130   8.039  41.556  12.276
94460W        W66131  39.542  41.251   4.212
94461W        W66132   8.879  33.357  12.437
94462W        W66133  27.437  44.688   2.736
94463W        W66134  28.440  15.181  11.198
94464W        W66135  16.127  29.225   2.379
94465W        W66136  35.097   0.809  14.130
94466W        W66137  21.667   8.747  13.396
94467W        W66138  41.562  39.936  14.066
94468W        W66139  18.269   7.970   4.117
94469W        W66140   8.753  17.333  12.031
94470W        W66141  32.608  10.025   4.474
94471W        W66142   0.546  29.977  11.803
94472W        W66143  38.754  31.048   1.627
94473W        W66144  28.542  17.619   3.545
94474W        W66145  28.636  21.069   3.675
94475W        W66146  42.100  12.071  11.149
94476W        W66147  44.077  36.664   3.334
94477W        W66148  26.842  37.551   4.011
94478W        W66149  43.581   9.765   0.920
94479W        W66150  25.073  36.812  13.796
94480W        W66151   5.409  20.127   1.266
94481W        W66152  36.426  28.560  14.032
94482W        W66153  24.138  10.662   1.981
94483W        W66154   4.859  26.534   1.318
94484W        W66155  36.601  29.968   1.756
94485W        W66156  11.679  44.313   4.231
94486W        W66157  41.047  11.746  11.972
94487W        W66158   5.999  43.989   4.781
94488W        W66159  44.416  36.321   4.807
94489W        W66160  18.991  40.030   3.693
94490W        W66161  32.016  18.804   5.004
94491W        W66162  33.922   6.391  11.158
94492W        W66163  39.332   5.260   2.847
94493W        W66164   4.747   2.455  10.644
94494W        W66165  20.035  34.421  14.318
94495W        W66166   1.353   4.649   4.289
94496W        W66167   6.018   1.078  11.606
94497W        W66168   0.724  38.226  13.796
94498W        W66169   2.149  40.755   0.664
94499W        W66170  36.039  24.583   4.094
94500W        W66171  27.662  26.548  13.998
94501W        W66172  24.418  15.803   4.140
94502W        W66173  18.297   7.436   1.479
94503W        W66174  37.468   1.241  10.440
94504W        W66175   0.186  22.225   0.492
94505W        W66176  32.082  26.167  12.439
94506W        W66177   7.815   6.928   1.996
94507W        W66178  30.436  43.716  13.988
94508W        W66179  33.935  31.019  13.380
94509W        W66180   3.130  22.535  13.175
94510W        W66181  36.910   8.089   4.632
94511W        W66182  39.960   0.418   3.315
94512W        W66183  34.535  17.847  14.071
94513W        W66184  10.817  21.500  12.486
94514W        W66185  35.442  34.080  11.143
94515W        W66186   6.750   1.280   1.227
94516W        W66187   4.794   7.724  13.875
94517W        W66188  33.635  17.245   2.202
94518W        W66189   6.768  10.824   4.752
94519W        W66190  39.835  35.501  14.956
94520W        W66191  40.049  31.288   3.314
94521W        W66192  38.237  23.477  11.647
94522W        W66193  16.006  17.646   3.698
94523W        W66194  31.565   2.555   2.105
94524W        W66195  10.135  39.723  14.328
94525W        W66196  38.542  41.439   3.889
94526W        W66197  27.532  44.048  13.992
94527W        W66198  24.147   2.937   3.906
94528W        W66199  11.365  30.195  11.215
94529W        W66200  19.504   0.045   3.379
94530W        W66201  39.819   1.749   3.278
94531W        W66202  40.310  14.764  14.567
94532W        W66203  34.847  44.967  10.486
94533W        W66204  43.360   5.436   0.457
94534W        W66205  37.915  23.697  12.051
94535W        W66206  20.377  42.049   0.169
94536W        W66207  29.960  18.203  13.133
94537W        W66208  17.609  44.452   3.618
94538W        W66209  35.908  21.302   1.130
94539W        W66210  42.750  32.616   3.636
94540W        W66211  15.285  15.883   9.937
94541W        W66212  19.185  31.634   2.586
94542W        W66213  36.789   7.979  12.005
94543W        W66214   6.458  25.046  13.914
94544W        W66215   5.552  14.378  10.548
94545W        W66216  32.111  21.218  13.284
94546W        W66217  20.532   8.493  14.344
94547W        W66218  28.652  29.670  12.947
94548W        W66219  20.079   3.712   2.618
94549W        W66220  29.515  21.573   1.494
94550W        W66221  10.181  12.649  11.158
94551W        W66222  24.643   2.447   1.389
94552W        W66223  30.888  30.185   0.081
94553W        W66224  41.847   4.657  14.265
94554W        W66225  34.829  12.754  14.496
94555W        W66226  43.298   0.892  12.525
94556W        W66227  40.939  27.134   4.204
94557W        W66228   1.906  36.703   2.760
94558W        W66229  35.426   6.154  10.711
94559W        W66230  34.925  16.226  13.039
94560W        W66231  37.007  28.230  11.961
94561W        W66232  14.309   5.963  12.568
94562W        W66233  16.604  15.009   2.715
94563W        W66234   2.880  18.641   2.775
94564W        W66235  41.422  22.282   0.825
94565W        W66236  42.323  41.026   4.602
94566W        W66237  30.475  36.357  13.910
94567W        W66238  30.727   6.942   2.175
94568W        W66239   1.528  37.942  13.441
94569W        W66240  29.630  27.098  12.992
94570W        W66241  40.942   8.537   2.677
94571W        W66242  26.255  18.842   0.174
94572W        W66243  40.883   2.445   1.464
94573W        W66244  18.002  11.845   0.889
94574W        W66245  24.619   4.388  14.389
94575W        W66246  38.046  37.857   2.382
94576W        W66247  27.028  33.014  11.891
94577W        W66248  16.496  36.545  13.961
94578W        W66249  18.054  40.909  10.828
94579W        W66250  27.578  21.816  13.332
94580W        W66251  42.057  17.049   4.577
94581W        W66252   0.707  41.947  14.682
94582W        W66253  35.141  29.482  13.057
94583W        W66254   3.721  22.737   0.750
94584W        W66255  39.409   7.675  13.056
94585W        W66256  37.004  17.878  11.582
94586W        W66257   7.398  40.726  12.883
94587W        W66258   4.310  36.877   2.314
94588W        W66259  31.442   4.877   2.775
94589W        W66260  17.473   3.181   4.662
94590W        W66261   4.475   1.900   2.332
94591W        W66262  34.585   6.662   1.847
94592W        W66263   8.750  17.059  10.522
94593W        W66264  16.708  26.120   3.944
94594W        W66265  30.386   8.277   3.773
94595W        W66266   0.225  19.676  13.967
94596W        W66267  35.500  20.958  14.840
94597W        W66268   4.328  19.238   4.885
94598W        W66269  22.030  37.083  11.058
94599W        W66270   5.793  34.775  11.124
94600W        W66271   2.649  28.067   2.294
94601W        W66272  15.652  16.720   3.692
94602W        W66273   6.795  44.378   2.484
94603W        W66274  10.562  26.178  13.834
94604W        W66275  21.609   1.407   2.421
94605W        W66276   7.175  26.008  12.862
94606W        W66277  11.831  37.825  12.969
94607W        W66278  40.595  31.088   0.455
94608W        W66279  20.854  15.651  14.111
94609W        W66280  43.968  15.381   3.281
94610W        W66281  22.968   5.910  12.949
94611W        W66282  32.252  30.586  11.297
94612W        W66283  37.572  30.434   0.339
94613W        W66284  41.954  22.804  10.329
94614W        W66285  23.524  35.242  13.659
94615W        W66286  17.616  40.907   1.131
94616W        W66287  12.087  13.192  11.005
94617W        W66288  26.194  33.880  13.785
94618W        W66289  23.706  27.534  14.137
94619W        W66290   9.243  33.942   4.265
94620W        W66291   3.886  10.960   1.668
94621W        W66292  44.592  18.359   1.286
94622W        W66293  20.504  40.571  14.468
94623W        W66294   4.962  27.678  13.104
94624W        W66295  33.930   8.928  13.950
94625W        W66296  31.978  26.941   0.371
94626W        W66297  11.142  12.480   3.805
94627W        W66298  26.272  34.705  11.960
94628W        W66299  41.658  34.704  13.760
94629W        W66300  31.897  43.914   0.873
94630W        W66301   4.823  37.662   0.680
94631W        W66302  17.996  44.554  11.406
94632W        W66303  25.956  22.750  12.994
94633W        W66304  26.168   3.225   1.250
94634W        W66305  33.334  19.981  12.905
94635W        W66306  11.633  26.031  14.710
94636W        W66307  10.831   1.225  14.472
94637W        W66308  11.770  25.506  14.833
94638W        W66309  35.800  38.910  14.180
94639W        W66310   7.489   0.007  13.948
94640W        W66311   4.861   0.333  10.651
94641W        W66312  38.041  35.876   0.380
94642W        W66313  32.521  12.783  12.111
94643W        W66314  42.984  21.678  12.589
94644W        W66315  44.047  22.945   4.611
94645W        W66316  30.826  24.590  14.495
94646W        W66317  15.773  37.681  14.815
94647W        W66318  41.862  26.647  12.195
94648W        W66319  11.857  10.707   4.919
94649W        W66320  29.554  29.728   3.286
94650W        W66321  39.991  41.798   4.429
94651W        W66322  34.121  40.328   3.643
94652W        W66323   7.860   0.710  12.451
94653W        W66324  12.694  35.780   4.671
94654W        W66325   1.348  39.421  10.843
94655W        W66326  40.402   3.379  10.928
94656W        W66327  40.045  25.951  12.648
94657W        W66328  42.167   1.013   2.441
94658W        W66329  25.163  16.256   0.770
94659W        W66330  27.097  39.294   1.321
94660W        W66331  19.120   2.010  13.297
94661W        W66332   2.561  35.920  11.247
94662W        W66333   1.545  24.062   2.347
94663W        W66334  40.694  19.982   3.619
94664W        W66335  30.490   6.868  13.361
94665W        W66336  36.087  28.224   0.308
94666W        W66337  40.818  36.864  11.645
94667W        W66338  38.607   8.854   2.402
94668W        W66339  42.039  18.599  13.036
94669W        W66340   6.148   6.405   4.579
94670W        W66341  29.182  36.906   4.669
94671W        W66342   5.281  19.934   1.750
94672W        W66343  33.965   5.156  12.549
94673W        W66344  36.511   2.982   1.229
94674W        W66345  29.649  28.112  14.963
94675W        W66346  33.329  24.765   3.840
94676W        W66347  34.541  43.852   0.863
94677W        W66348  18.079  39.756   3.799
94678W        W66349  23.332  20.649  12.152
94679W        W66350  23.617   3.943   2.346
94680W        W66351  37.084  20.269  11.085
94681W        W66352  28.161  18.527  12.930
94682W        W66353   7.278  36.036  14.402
94683W        W66354  44.212  26.088   3.661
94684W        W66355   8.795   5.830   0.164
94685W        W66356  26.189  27.137  13.076
94686W        W66357  30.854  29.677   0.460
94687W        W66358  23.862  36.022   4.485
94688W        W66359  35.806  31.963  14.081
94689W        W66360   0.710   9.365   1.466
94690W        W66361  16.214  33.718   4.077
94691W        W66362  40.945  34.949  10.767
94692W        W66363   7.582  33.391   4.153
94693W        W66364  23.811  14.726   3.420
94694W        W66365  15.802  13.131  10.736
94695W        W66366  25.024  22.243  14.762
94696W        W66367   0.296  38.901   1.402
94697W        W66368  34.466  27.051  12.401
94698W        W66369  27.503  14.088  11.693
94699W        W66370  31.010  43.042   1.234
94700W        W66371  21.827   8.151  11.179
94701W        W66372   4.546  21.297   1.692
94702W        W66373  42.744  36.049   3.659
94703W        W66374  20.096  20.313  13.862
94704W        W66375  25.487   2.956   3.298
94705W        W66376  37.460  25.421  11.957
94706W        W66377   8.342  18.118  11.791
94707W        W66378  30.368  11.058   1.216
94708W        W66379  36.386  16.216   1.272
94709W        W66380  26.202  12.815  11.176
94710W        W66381   3.301  17.241   4.106
94711W        W66382   5.814  35.843  14.410
94712W        W66383  14.164   9.916  11.171
94713W        W66384  27.780  12.813   4.127
94714W        W66385  18.367  30.148  13.092
94715W        W66386  31.842  29.639  14.371
94716W        W66387   2.372  44.742   3.168
94717W        W66388  35.480  19.827   0.431
94718W        W66389  37.259   5.597  10.098
94719W        W66390  26.395  29.032   4.747
94720W        W66391  41.869   2.167   2.427
94721W        W66392  30.338  36.077  13.481
94722W        W66393  32.010  14.693  10.417
94723W        W66394  33.306  36.554  11.619
94724W        W66395  18.856   0.066  13.463
94725W        W66396  24.979  24.457   0.412
94726W        W66397  39.830  19.490  13.267
94727W        W66398   7.041  18.121  12.020
94728W        W66399  43.436  42.945   0.764
94729W        W66400  26.650   9.545  14.595
94730W        W66401  40.521  37.287  11.508
94731W        W66402   0.869  17.353   3.640
94732W        W66403  30.392  34.399   3.417
94733W        W66404   5.233  38.260  12.164
94734W        W66405  33.584  23.102  11.972
94735W        W66406  11.275  34.553  14.898
94736W        W66407  16.686  37.547   4.692
94737W        W66408  38.169  38.030  14.789
94738W        W66409  37.411   7.281   4.200
94739W        W66410   5.348  25.045   4.134
94740W        W66411  26.438  13.691   3.653
94741W        W66412  14.056  24.011  12.952
94742W        W66413  43.160  23.994   3.722
94743W        W66414  38.810  23.424  10.347
94744W        W66415  37.818  34.308   1.620
94745W        W66416  28.026  39.066  11.861
94746W        W66417  31.420  15.267   2.402
94747W        W66418  33.496  13.605  14.593
94748W        W66419  37.354   9.759   0.200
94749W        W66420  35.607  44.760   1.932
94750W        W66421  42.339  26.681   0.227
94751W        W66422   6.738  42.349   2.293
94752W        W66423  24.412  26.639  12.836
94753W        W66424  12.647  39.873   2.204
94754W        W66425  27.616  33.232  10.436
94755W        W66426  11.176   2.021  10.804
94756W        W66427  25.444  40.496  10.854
94757W        W66428  41.965  15.016  13.551
94758W        W66429   8.841  39.445   0.741
94759W        W66430  30.330  11.823  12.331
94760W        W66431  24.359  25.145   4.502
94761W        W66432  20.499  16.843  11.580
94762W        W66433  42.456  31.024  10.940
94763W        W66434  12.881  33.218  13.594
94764W        W66435   2.861  16.218  10.729
94765W        W66436  43.853  29.239  13.925
94766W        W66437  36.508  15.347  11.164
94767W        W66438  42.549  18.618  12.882
94768W        W66439  23.422   7.066  11.148
94769W        W66440   2.712  14.088  10.866
94770W        W66441  39.975  22.658  12.794
94771W        W66442  22.852  17.172  13.237
94772W        W66443  26.068   0.960  11.585
94773W        W66444  40.748   2.892   3.738
94774W        W66445  24.234  12.145  11.051
94775W        W66446   9.432  21.798   3.159
94776W        W66447  35.581  36.809  10.461
94777W        W66448  11.695  23.483  12.012
94778W        W66449  24.605  26.568  14.910
94779W        W66450  35.418   2.881  13.087
94780W        W66451  41.268  22.072   1.281
94781W        W66452  22.211  14.760  12.161
94782W        W66453  18.143  33.520  10.873
94783W        W66454  18.677  13.730   1.108
94784W        W66455  43.509  11.283  10.986
94785W        W66456   2.701   5.912   4.137
94786W        W66457  24.557  14.311  12.502
94787W        W66458  26.233   7.257  14.341
94788W        W66459  25.695   9.596  10.677
94789W        W66460   0.942  17.141  14.730
94790W        W66461  26.478   2.804   1.936
94791W        W66462  34.407   0.497  12.068
94792W        W66463  35.870  11.191   0.554
94793W        W66464  37.401  38.631   2.638
94794W        W66465  15.002   1.027   3.811
94795W        W66466   0.354  34.397   0.367
94796W        W66467  22.301   6.978  12.622
94797W        W66468  35.896  20.732   2.731
94798W        W66469  25.935  29.920   4.071
94799W        W66470  19.759  37.306  13.355
94800W        W66471  43.816  32.551  13.896
94801W        W66472  31.598  36.608  11.067
94802W        W66473  26.752  14.057  10.217
94803W        W66474  12.142  36.982  12.642
94804W        W66475  15.020  27.278  13.825
94805W        W66476  14.318  38.349   3.851
94806W        W66477  22.128  10.764   1.343
94807W        W66478   9.829   2.385  11.456
94808W        W66479  23.292  32.091   3.163
94809W        W66480  30.813   6.342   0.496
94810W        W66481  25.729  36.079  14.735
94811W        W66482   5.340  13.812  11.748
94812W        W66483  22.684  39.704  11.045
94813W        W66484  30.079   4.019  10.606
94814W        W66485   0.879  44.230   1.173
94815W        W66486  20.565   2.599   1.866
94816W        W66487   0.002  30.617   2.202
94817W        W66488   1.856   3.898   2.819
94818W        W66489   7.720  16.957  14.345
94819W        W66490  40.913  42.804  14.714
94820W        W66491  30.192  21.698   4.042
94821W        W66492  17.545   2.965   2.855
94822W        W66493  33.303  18.766  10.278
94823W        W66494   9.340   3.448   3.361
94824W        W66495   6.070  27.687  11.506
94825W        W66496   7.813  19.531   2.211
94826W        W66497   2.740  16.058  14.867
94827W        W66498   4.735  24.339  11.909
94828W        W66499  30.092  24.314  14.413
94829W        W66500  35.404  38.960  12.770
94830W        W66501   9.120  28.421   0.961
94831W        W66502  37.199   7.341   3.098
94832W        W66503  20.522  35.859   4.139
94833W        W66504  20.982  17.081  13.446
94834W        W66505  25.044   5.345   2.377
94835W        W66506  27.096   4.596  13.461
94836W        W66507  42.584  29.963   3.317
94837W        W66508  21.219  37.493   4.051
94838W        W66509   9.124  35.651   2.230
94839W        W66510  40.732  34.830   4.099
94840W        W66511  27.750  38.153   2.267
94841W        W66512  31.547  27.404   3.366
94842W        W66513   7.767  31.018   2.368
94843W        W66514  19.294  41.430  14.436
94844W        W66515  19.768  11.352   5.029
94845W        W66516   9.800  36.389  10.502
94846W        W66517  35.650  40.692  13.415
94847W        W66518  40.308  22.527  12.413
94848W        W66519  30.506   1.303   1.023
94849W        W66520  17.719  12.336  10.369
94850W        W66521  32.126   5.921  12.151
94851W        W66522   5.883  11.734  11.862
94852W        W66523  25.292  44.230  13.968
94853W        W66524  32.934  44.012   1.868
94854W        W66525  37.864  21.518   2.350
94855W        W66526  35.452   0.287  11.115
94856W        W66527  40.387   2.882  13.006
94857W        W66528  31.056  36.935   0.045
94858W        W66529   2.445  39.371   0.837
94859W        W66530   7.292  30.796  12.542
94860W        W66531  27.619   6.341   3.843
94861W        W66532  27.100  35.724   2.709
94862W        W66533  21.006  40.666  14.665
94863W        W66534  37.821   9.709   4.968
94864W        W66535   2.862   4.814   1.194
94865W        W66536  27.270  11.243  12.107
94866W        W66537  15.847   1.301   2.216
94867W        W66538  31.689  31.495  10.723
94868W        W66539  18.261   5.478   3.755
94869W        W66540  22.608   0.159  12.629
94870W        W66541  31.156  13.217  10.693
94871W        W66542  29.181  41.756   1.766
94872W        W66543  24.895   2.882  11.580
94873W        W66544  29.743  19.582   3.668
94874W        W66545  37.302  43.013   3.320
94875W        W66546  18.377  13.763  11.590
94876W        W66547   0.250   7.588  12.931
94877W        W66548  39.858   3.285   3.164
94878W        W66549  23.071  38.882   3.618
94879W        W66550  10.114  37.549   4.729
94880W        W66551  13.204   0.264  14.591
94881W        W66552  33.053  33.939  11.615
94882W        W66553   6.370  13.732   4.700
94883W        W66554  41.989   4.421  12.861
94884W        W66555  42.112   4.276  14.044
94885W        W66556   3.390  28.708   4.029
94886W        W66557  40.566  32.051  13.483
94887W        W66558   2.655  33.243  12.871
94888W        W66559  34.262  40.338   1.994
94889W        W66560  14.070   7.800   2.756
94890W        W66561  13.793  18.656   1.657
94891W        W66562  11.588  36.909  14.921
94892W        W66563  30.170  25.763  12.551
94893W        W66564  35.624  43.490  12.548
94894W        W66565  40.444  10.920  14.530
94895W        W66566   9.552  42.912  10.287
94896W        W66567  39.466   4.522   3.604
94897W        W66568   8.849  19.046   0.470
94898W        W66569  19.530  27.615   0.244
94899W        W66570   8.454  44.019  11.663
94900W        W66571  21.203  12.834   1.372
94901W        W66572   4.368  11.815   2.851
94902W        W66573  33.903  19.496  13.470
94903W        W66574  43.995  29.674   3.042
94904W        W66575  39.413   0.807  10.695
94905W        W66576  37.549   0.064  14.410
94906W        W66577  29.588  29.550  14.392
94907W        W66578   4.261  40.773   3.725
94908W        W66579  19.694   1.238   3.786
94909W        W66580  15.663  17.570   3.262
94910W        W66581   5.730  35.579   0.815
94911W        W66582  19.274  29.920  13.439
94912W        W66583   7.747  23.369   5.195
94913W        W66584  44.181  19.188  14.829
94914W        W66585  16.691   0.229   2.187
94915W        W66586  31.426  27.993   2.107
94916W        W66587  24.570  20.236   0.269
94917W        W66588  25.457  36.582  14.061
94918W        W66589  29.654  41.025  11.149
94919W        W66590   0.510  34.969   0.978
94920W        W66591  37.556   2.329   1.249
94921W        W66592  23.705  42.275   0.749
94922W        W66593  40.065   8.315  12.484
94923W        W66594   2.367  14.745  12.411
94924W        W66595  14.152  23.503   1.522
94925W        W66596  31.456  31.426  12.569
94926W        W66597  34.068  11.902   1.745
94927W        W66598  10.300  12.934   9.903
94928W        W66599  10.942   9.730  13.389
94929W        W66600  42.835  35.956  14.013
94930W        W66601  12.256  38.424   4.420
94931W        W66602  15.426   7.362  10.193
94932W        W66603  44.374  34.457  14.297
94933W        W66604  36.252  42.089   3.631
94934W        W66605  13.033   8.329   1.487
94935W        W66606  27.462  35.033  13.545
94936W        W66607   7.024  33.917   2.699
94937W        W66608  27.659  23.160   4.614
94938W        W66609   7.173   8.175   1.431
94939W        W66610  26.662  16.481   3.669
94940W        W66611  18.031  12.143   1.322
94941W        W66612  11.022  24.554   1.129
94942W        W66613  18.061  44.667   3.748
94943W        W66614  37.825  17.303  14.445
94944W        W66615   8.220  28.525   1.482
94945W        W66616   5.471  38.969  11.116
94946W        W66617  33.823  31.329  12.632
94947W        W66618  34.176  26.276   4.214
94948W        W66619  30.379  11.306   0.730
94949W        W66620  31.920   6.305  11.852
94950W        W66621  29.947  15.758  14.841
94951W        W66622  33.377  41.872   1.371
94952W        W66623  33.491  17.881   3.818
94953W        W66624   5.450  19.165   1.412
94954W        W66625  24.972  12.827  13.064
94955W        W66626  10.925  17.639  14.335
94956W        W66627  39.035  40.219  12.301
94957W        W66628  29.664  27.658   3.130
94958W        W66629  21.687  33.570  10.724
94959W        W66630  44.969  32.014  13.119
94960W        W66631  16.617  15.293  12.009
94961W        W66632   8.925  18.817  12.842
94962W        W66633  33.208  22.892   0.838
94963W        W66634  34.372   4.589   2.436
94964W        W66635  39.395  35.599  13.702
94965W        W66636  27.097   5.744   1.765
94966W        W66637  21.716  28.871   0.139
94967W        W66638   0.699  41.018  13.781
94968W        W66639  25.299  27.713  13.585
94969W        W66640  29.025  44.674   3.695
94970W        W66641  36.051  36.265   5.395
94971W        W66642   1.240  44.005  13.942
94972W        W66643  41.462  42.862   1.978
94973W        W66644   0.710  12.317   1.029
94974W        W66645  34.129  30.973  12.383
94975W        W66646  40.010  13.310  13.972
94976W        W66647  39.549  14.054   3.934
94977W        W66648   2.993   6.426  11.977
94978W        W66649  10.665  15.107   2.460
94979W        W66650  34.489   6.114   2.331
94980W        W66651  11.382  32.066   3.343
94981W        W66652  17.928  29.416  10.658
94982W        W66653  30.564   1.320  14.031
94983W        W66654  31.343  24.116   0.810
94984W        W66655  37.294  26.664   4.623
94985W        W66656  44.993  11.120   1.310
94986W        W66657  25.295  26.046  11.464
94987W        W66658  11.191  32.590   1.395
94988W        W66659   5.172  33.504  13.355
94989W        W66660  12.676  13.121   1.157
94990W        W66661   3.642  20.889   5.485
94991W        W66662  34.008  44.234  12.110
94992W        W66663  19.184  11.627   0.400
94993W        W66664  39.098   3.373   0.909
94994W        W66665  40.004  44.286  14.839
94995W        W66666  13.102  14.630  13.502
94996W        W66667   1.751  16.835   2.786
94997W        W66668  34.648  25.974   4.083
94998W        W66669  33.354  15.409  11.224
94999W        W66670  28.970  31.649  12.456
95000W        W66671   0.913   8.067  13.393
95001W        W66672   6.848  27.885   5.029
95002W        W66673  24.527  27.464  10.574
95003W        W66674  26.500  14.197   2.706
95004W        W66675  17.146   3.379  14.275
95005W        W66676  41.378  24.552   3.974
95006W        W66677  22.149  17.274   3.863
95007W        W66678  21.048  14.739   3.430
95008W        W66679   0.529   5.365   2.871
95009W        W66680  21.607  30.625   4.373
95010W        W66681  35.303  43.115   3.125
95011W        W66682   5.719  36.835  12.286
95012W        W66683  13.759  31.820  14.379
95013W        W66684  41.531  24.519   5.081
95014W        W66685  12.119   6.485   4.843
95015W        W66686  35.497  17.364  11.922
95016W        W66687  17.015  31.558   1.732
95017W        W66688  18.904  31.047   0.678
95018W        W66689  20.029  34.326   4.720
95019W        W66690   2.664  10.892  13.070
95020W        W66691  25.169  10.787  12.520
95021W        W66692  19.826   3.760  11.161
95022W        W66693   9.281  44.491   1.968
95023W        W66694  12.357  36.349   0.707
95024W        W66695  21.092   5.116   0.993
95025W        W66696  31.570   6.776  14.439
95026W        W66697  21.253  42.668  12.891
95027W        W66698   1.445  13.742  10.686
95028W        W66699  33.364  25.606  14.906
95029W        W66700  16.998   1.771   0.034
95030W        W66701   2.124   6.566  11.076
95031W        W66702  38.182   6.049  10.565
95032W        W66703  44.834  16.581  11.584
95033W        W66704  23.011  22.775   1.317
95034W        W66705  37.042  42.877  11.235
95035W        W66706   2.029  30.076   3.271
95036W        W66707  16.168  33.466   3.285
95037W        W66708  33.899  34.933  11.650
95038W        W66709  13.410  15.401  13.984
95039W        W66710   8.772   0.901   1.198
95040W        W66711  14.247   6.477   0.224
95041W        W66712   8.386  44.884   0.212
95042W        W66713   8.260   9.787   0.399
95043W        W66714  36.978  18.711   3.709
95044W        W66715  15.651  23.989   2.668
95045W        W66716  14.419  32.623  12.289
95046W        W66717   7.651  16.664   0.476
95047W        W66718   7.898   4.679   4.274
95048W        W66719  20.477   5.452   1.849
95049W        W66720   9.697  10.187   3.918
95050W        W66721  40.755  28.031   0.980
95051W        W66722  30.943  41.663  14.342
95052W        W66723  21.393  32.200  13.965
95053W        W66724  25.213  29.409  11.628
95054W        W66725  35.526  24.063   2.018
95055W        W66726   4.269  15.718   1.832
95056W        W66727   0.747  32.209  14.083
95057W        W66728   4.453  12.614   3.792
95058W        W66729  27.476  19.807  12.049
95059W        W66730  20.211  24.702   1.746
95060W        W66731   0.475  16.065   1.351
95061W        W66732   8.937   3.748   2.201
95062W        W66733  23.234  25.664   1.264
95063W        W66734  29.911  39.867  10.742
95064W        W66735   9.039   7.109  13.361
95065W        W66736  18.812   8.231   2.425
95066W        W66737  30.681   8.958   2.726
95067W        W66738  23.136  27.099  14.829
95068W        W66739  27.086  40.734  10.493
95069W        W66740  15.628  43.953  13.482
95070W        W66741  28.570  16.581   1.027
95071W        W66742  10.544  23.852  11.165
95072W        W66743  11.277  41.920   2.714
95073W        W66744  17.246  31.597  12.061
95074W        W66745  42.005  31.179  12.494
95075W        W66746  29.703   5.151  12.260
95076W        W66747  27.594  27.459   1.927
95077W        W66748  20.435  42.863  12.137
95078W        W66749  43.368   7.250   4.167
95079W        W66750  32.384  27.630   1.593
95080W        W66751  12.019  10.126  12.178
95081W        W66752  44.944  28.397   3.597
95082W        W66753   4.334  19.525   2.198
95083W        W66754  33.845  24.166  13.426
95084W        W66755  43.644  36.942   3.236
95085W        W66756   1.927   9.862  12.915
95086W        W66757   8.787   3.868   4.814
95087W        W66758   4.430  16.242  14.723
95088W        W66759  37.038  22.749   3.669
95089W        W66760   4.631  30.742  10.451
95090W        W66761  18.410  32.606   1.710
95091W        W66762  28.131  37.970  11.979
95092W        W66763   0.401  33.189  14.860
95093W        W66764  33.799  13.206   4.573
95094W        W66765   1.858  39.324  12.084
95095W        W66766  40.761   8.273   3.759
95096W        W66767  20.443  12.545   1.907
95097W        W66768  43.661   6.179   0.246
95098W        W66769  44.768  39.319  11.108
95099W        W66770  27.109  44.974   0.742
95100W        W66771  35.501  26.922  12.615
95101W        W66772  15.667  22.161  13.095
95102W        W66773  36.654  39.502   4.256
95103W        W66774   3.004  22.315   3.674
95104W        W66775  33.831  35.301  14.443
95105W        W66776   1.265  43.488   0.986
95106W        W66777  44.325   5.381  14.113
95107W        W66778  23.101   6.937   3.672
95108W        W66779   0.317   7.876  10.741
95109W        W66780   6.480  21.121  10.261
95110W        W66781   6.627  42.391   4.147
95111W        W66782  40.399   1.432  14.923
95112W        W66783  42.975  25.946   4.691
95113W        W66784   4.016  32.638  11.091
95114W        W66785  26.898   8.375   0.290
95115W        W66786  40.990  28.681   3.839
95116W        W66787  31.063   9.789  10.672
95117W        W66788  27.015  11.150  12.544
95118W        W66789  33.116   7.672  14.513
95119W        W66790  30.214   2.604   2.655
95120W        W66791   7.703  16.033  13.030
95121W        W66792  13.602  31.023  14.050
95122W        W66793  19.181   2.522   1.965
95123W        W66794  15.993  27.206   2.243
95124W        W66795  36.464  29.500  10.739
95125W        W66796  20.634  27.549   4.186
95126W        W66797  31.419  40.866   4.623
95127W        W66798  26.473   8.021   2.870
95128W        W66799  35.334  40.936   3.293
95129W        W66800   8.292  38.776   1.339
95130W        W66801   3.604   6.874   4.594
95131W        W66802  20.529  23.600   0.269
95132W        W66803  41.415  21.484  11.533
95133W        W66804  29.038  27.040  14.285
95134W        W66805  38.978   5.907  12.105
95135W        W66806  32.278   9.083   1.874
95136W        W66807  28.490  13.345   4.252
95137W        W66808  43.339  32.191   3.129
95138W        W66809  14.286  15.508   1.326
95139W        W66810  19.172  20.827   0.909
95140W        W66811  35.364  24.014   2.943
95141W        W66812  44.017  21.644   9.628
95142W        W66813  13.213  19.337  14.995
95143W        W66814  26.544   4.217   3.190
95144W        W66815  40.020  17.124   2.758
95145W        W66816  12.791   6.763   1.769
95146W        W66817  29.554  13.024   1.945
95147W        W66818   8.635  23.441   4.491
95148W        W66819  28.319  34.822   4.226
95149W        W66820  34.548  29.909  14.492
95150W        W66821   4.069  22.977   3.244
95151W        W66822   9.446  19.675   2.747
95152W        W66823  34.177  41.019  12.537
95153W        W66824  13.179   1.407   5.007
95154W        W66825  44.508   8.628  10.941
95155W        W66826   3.406  27.117  12.840
95156W        W66827  18.555  20.658  13.841
95157W        W66828  26.736  14.304   2.267
95158W        W66829   1.478   1.737  14.948
95159W        W66830  42.237  11.451  13.499
95160W        W66831   5.493  17.846  12.444
95161W        W66832  35.950  15.716   0.794
95162W        W66833  16.380  26.592   2.411
95163W        W66834  12.810  12.182   3.453
95164W        W66835  37.022  43.685  12.351
95165W        W66836   3.502  28.606  12.138
95166W        W66837  30.412  12.667  12.811
95167W        W66838   1.583  31.858   0.892
95168W        W66839  37.805  26.251  14.612
95169W        W66840  27.206  26.417  12.265
95170W        W66841  13.311  19.532  11.360
95171W        W66842  21.188  40.589  12.909
95172W        W66843  22.158   1.757  12.011
95173W        W66844  27.934  30.557  13.730
95174W        W66845  15.578   6.374  14.830
95175W        W66846  23.594  37.720   5.059
95176W        W66847  37.443  33.870  12.458
95177W        W66848   0.535  44.810  11.103
95178W        W66849  10.378  37.960  12.865
95179W        W66850   9.411  37.479   2.245
95180W        W66851   6.185   2.805  13.528
95181W        W66852  38.873  30.531   1.723
95182W        W66853   3.982  24.430  12.367
95183W        W66854  13.546  13.171   3.679
95184W        W66855   2.365  43.118  10.117
95185W        W66856   2.842  11.280   0.233
95186W        W66857  20.480   4.185  14.675
95187W        W66858  24.490   3.684  14.746
95188W        W66859   6.813  32.528  13.002
95189W        W66860   6.362   7.751  12.367
95190W        W66861   8.992   8.159  12.423
95191W        W66862  36.010  35.039  12.904
95192W        W66863  44.220  35.059   3.193
95193W        W66864   5.668  43.979  13.702
95194W        W66865  33.919  43.226  14.461
95195W        W66866  16.996  17.716   4.671
95196W        W66867  19.091  25.268  13.790
95197W        W66868   8.842  36.111   2.192
95198W        W66869  30.857  33.582   1.417
95199W        W66870  11.772   0.822   0.796
95200W        W66871  19.235  20.204  14.427
95201W        W66872   2.443   4.339  13.467
95202W        W66873  22.731  41.044   4.637
95203W        W66874  25.296   1.016   2.737
95204W        W66875  10.111  35.040  11.481
95205W        W66876  15.844  30.087   3.205
95206W        W66877  16.944   4.442   2.146
95207W        W66878  13.197  15.215   1.582
95208W        W66879   9.275  27.383  10.677
95209W        W66880   8.534  36.432   3.100
95210W        W66881  35.480   4.357  11.079
95211W        W66882  28.533   7.321   4.648
95212W        W66883   9.610  12.708   1.513
95213W        W66884  33.921  29.413   1.355
95214W        W66885  33.107   7.719   1.269
95215W        W66886  40.928  35.558  14.941
95216W        W66887  43.035   9.880  14.417
95217W        W66888   4.964  34.535  11.544
95218W        W66889  25.469   2.835  11.546
95219W        W66890  26.514   3.466   0.926
95220W        W66891   1.355  42.073   0.810
95221W        W66892  44.475  30.642   3.701
95222W        W66893  33.231  38.580  12.501
95223W        W66894   4.295   7.454   0.408
95224W        W66895  42.796  39.041   9.676
95225W        W66896  31.019  37.646  10.664
95226W        W66897  42.857  19.688  14.840
95227W        W66898  34.550  22.587   2.048
95228W        W66899  30.010  20.600   2.921
95229W        W66900  42.279  22.223  13.749
95230W        W66901  38.002   4.860  11.765
95231W        W66902  24.612   7.862   0.981
95232W        W66903  26.824  14.095  13.151
95233W        W66904   1.931   8.647  12.005
95234W        W66905  21.586  43.006   1.890
95235W        W66906  42.716   6.789  11.215
95236W        W66907   5.225  41.703  11.264
95237W        W66908  12.644  33.098  11.141
95238W        W66909  16.621  27.327   3.516
95239W        W66910   3.658  40.983  14.279
95240W        W66911  10.738  11.162   2.397
95241W        W66912  26.160  19.378  12.607
95242W        W66913   8.874  29.644  12.880
95243W        W66914  38.371  36.868   3.778
95244W        W66915  24.047   6.668  11.509
95245W        W66916  37.062  24.079  13.917
95246W        W66917   2.288  41.539   1.412
95247W        W66918  27.285  25.011   3.886
95248W        W66919  11.314  34.667   3.367
95249W        W66920  35.177   9.314  12.977
95250W        W66921  30.140   3.994   3.691
95251W        W66922  25.625  38.817   0.030
95252W        W66923  30.719   0.545   4.207
95253W        W66924  13.962  44.825  11.178
95254W        W66925  44.850  27.680   4.402
95255W        W66926  32.568  12.140  12.567
95256W        W66927  23.404  34.391  14.056
95257W        W66928  40.064  24.502   1.874
95258W        W66929  36.932   1.447   2.328
95259W        W66930   7.994  16.520  14.640
95260W        W66931  28.933   9.368   4.147
95261W        W66932  26.181   2.829   0.446
95262W        W66933  29.849  10.830   4.895
95263W        W66934  21.993  22.726   4.693
95264W        W66935  44.881  18.906   1.725
95265W        W66936  31.550  23.491  13.341
95266W        W66937  38.331  34.628  12.852
95267W        W66938  14.737  27.543  13.041
95268W        W66939  19.101  43.595  13.955
95269W        W66940  25.901   4.578  11.856
95270W        W66941  13.352   3.667  11.309
95271W        W66942  12.554   2.408  11.216
95272W        W66943   7.941  21.866   0.444
95273W        W66944   9.405  43.732   4.601
95274W        W66945  40.493  17.365   0.943
95275W        W66946  22.603  10.527  13.995
95276W        W66947  17.714  38.036  14.068
95277W        W66948  15.648  41.283   3.826
95278W        W66949  34.462  44.790  13.171
95279W        W66950  22.492  29.115   3.410
95280W        W66951   7.631  32.621   1.315
95281W        W66952  43.968  31.615   1.909
95282W        W66953  40.299  33.600   1.775
95283W        W66954  22.445  36.072   4.565
95284W        W66955  27.591  41.888  13.814
95285W        W66956  15.307   9.215   2.296
95286W        W66957  39.815   3.397  14.580
95287W        W66958  19.812   3.783   3.588
95288W        W66959  36.593   6.339  11.372
95289W        W66960  27.486   8.288  11.254
95290W        W66961  24.043  35.608   2.144
95291W        W66962   6.253  28.698  14.909
95292W        W66963  38.866  27.512  13.554
95293W        W66964  28.857   3.940   4.035
95294W        W66965  18.427  19.308  13.032
95295W        W66966  26.607  34.102  13.042
95296W        W66967  27.189   5.628  13.561
95297W        W66968  39.979   7.344  11.003
95298W        W66969  18.174  22.690   0.252
95299W        W66970  33.167  28.915   2.376
95300W        W66971  31.801   4.407  13.297
95301W        W66972  42.990  16.518   0.883
95302W        W66973   1.910  29.841   0.441
95303W        W66974  24.767  24.687   3.247
95304W        W66975   5.436  44.839   1.825
95305W        W66976  18.351   4.521   0.897
95306W        W66977   8.159  37.470   4.063
95307W        W66978  34.921  31.468  11.152
95308W        W66979  36.011  11.425  11.516
95309W        W66980  32.231  31.957   1.691
95310W        W66981  17.259   2.186   4.514
95311W        W66982  11.266  38.950   1.339
95312W        W66983  33.994  23.724  13.725
95313W        W66984  28.747  42.911  11.579
95314W        W66985  13.784  16.720   3.353
95315W        W66986  35.956   8.672   2.363
95316W        W66987  12.306  44.493  10.965
95317W        W66988  22.982  10.312  10.657
95318W        W66989  44.466  25.651   4.411
95319W        W66990  22.095  23.913   4.247
95320W        W66991   4.982  28.710  10.302
95321W        W66992  16.179   2.775   3.188
95322W        W66993  36.463   9.650   0.450
95323W        W66994  44.307  30.942  10.554
95324W        W66995  19.827  11.228  11.184
95325W        W66996   0.318  17.626  12.337
95326W        W66997  19.745   0.970   2.427
95327W        W66998  13.788  12.996  11.828
95328W        W66999  24.131  20.113   1.057
95329W        W67000  15.187  35.576   2.203
95330W        W67001  36.161  29.653   5.163
95331W        W67002  20.217  33.598   2.850
95332W        W67003   9.541  11.582  11.567
95333W        W67004  32.578  41.794   3.298
95334W        W67005  13.649  18.450   3.008
95335W        W67006  10.193   3.677   3.658
95336W        W67007   0.404  13.854   3.422
95337W        W67008  12.906  18.021  14.230
95338W        W67009  22.668  28.987  12.868
95339W        W67010  44.922  23.978  14.931
95340W        W67011   4.429  19.308   0.385
95341W        W67012  22.766   5.357   0.826
95342W        W67013  20.101  32.901  13.640
95343W        W67014  21.120  30.973   2.908
95344W        W67015  25.159  31.534   3.909
95345W        W67016  19.494  32.069  14.213
95346W        W67017  11.521  32.071  14.875
95347W        W67018  29.425  14.687  14.987
95348W        W67019  23.448  33.333   2.284
95349W        W67020   5.705  32.129   4.636
95350W        W67021  39.952  15.648   3.722
95351W        W67022  11.367   5.288  10.840
95352W        W67023  38.088  14.289  10.993
95353W        W67024   3.736  21.674   5.598
95354W        W67025  42.247   6.734  14.826
95355W        W67026  36.897   9.789   3.292
95356W        W67027  20.293  40.843   2.680
95357W        W67028  31.647  18.586  12.043
95358W        W67029  32.448   3.007   2.320
95359W        W67030  17.593  14.809  10.571
95360W        W67031   1.331   1.938   3.299
95361W        W67032  24.636  37.506  14.613
95362W        W67033   5.379  42.446  14.544
95363W        W67034   5.087  38.480   1.905
95364W        W67035  10.465  22.298  10.445
95365W        W67036  41.039  26.821   3.163
95366W        W67037  13.648  21.030  12.082
95367W        W67038  27.484  34.461   2.174
95368W        W67039  35.484  41.743  11.915
95369W        W67040  35.941  17.518  13.983
95370W        W67041  30.725  23.996  11.326
95371W        W67042  36.643   3.368  14.414
95372W        W67043  29.141  13.354   1.854
95373W        W67044  13.138  28.911   4.591
95374W        W67045  43.903   8.390  11.840
95375W        W67046  13.754   1.681  12.600
95376W        W67047  44.985   8.659   1.240
95377W        W67048  30.790  15.303   2.718
95378W        W67049  30.614  39.295   2.183
95379W        W67050  25.035  20.030   0.134
95380W        W67051  11.859  18.250  12.290
95381W        W67052  38.370   3.683   2.721
95382W        W67053  30.553  23.495   4.137
95383W        W67054  17.295  20.513  13.652
95384W        W67055  38.535   9.313  13.026
95385W        W67056   5.791  25.740  13.904
95386W        W67057  18.618  22.571   4.043
95387W        W67058  19.750  22.388  14.063
95388W        W67059  19.566  29.629  12.208
95389W        W67060  23.192  37.586  11.508
95390W        W67061  11.574  35.964   0.852
95391W        W67062  16.106  34.441  13.270
95392W        W67063  11.722  14.003   0.287
95393W        W67064  32.553  30.599   5.107
95394W        W67065  37.338   0.321  10.732
95395W        W67066  17.993  37.924   4.312
95396W        W67067  11.433  34.042  12.992
95397W        W67068   7.252  21.755  13.281
95398W        W67069  44.839  24.302  12.889
95399W        W67070  14.434  17.599  13.750
95400W        W67071  11.322   1.589   1.200
95401W        W67072  25.086   5.259   2.919
95402W        W67073  40.541  43.547   3.706
95403W        W67074  42.515  14.317   2.008
95404W        W67075  22.421  15.613   0.346
95405W        W67076  25.090   5.857   1.723
95406W        W67077  43.287  33.931   1.660
95407W        W67078  31.459  23.955  13.122
95408W        W67079  29.333  24.532  14.351
95409W        W67080   7.262  35.524   1.942
95410W        W67081  33.607  32.445   2.356
95411W        W67082  15.818   1.644   1.836
95412W        W67083   1.270  18.540  12.517
95413W        W67084  19.107  34.979  14.800
95414W        W67085  27.978   7.393   0.948
95415W        W67086  31.525  33.554  10.610
95416W        W67087  19.978  30.599  10.612
95417W        W67088  12.094   6.729   0.609
95418W        W67089  20.476   2.307  14.304
95419W        W67090  19.970  19.450  11.135
95420W        W67091  31.452  16.177  12.054
95421W        W67092  30.626  32.457   4.275
95422W        W67093  16.708  13.277   4.252
95423W        W67094   5.179  25.989  10.657
95424W        W67095  18.222  41.475   3.808
95425W        W67096   0.546  31.330   2.028
95426W        W67097  13.111  44.926  13.805
95427W        W67098  12.805   7.376  13.011
95428W        W67099  30.387  28.555  11.535
95429W        W67100  40.069  32.857  13.955
95430W        W67101  21.077  13.436  10.991
95431W        W67102   3.226  12.037  13.151
95432W        W67103   9.125   9.595   3.816
95433W        W67104   2.929  12.680   1.850
95434W        W67105  23.079   1.058  14.077
95435W        W67106   3.927   1.331   4.195
95436W        W67107  20.107  43.312   1.329
95437W        W67108  19.172  31.412   3.068
95438W        W67109  27.119  27.546  13.338
95439W        W67110  29.905  17.537  12.765
95440W        W67111  39.536  15.579   4.631
95441W        W67112  16.869  36.423   1.810
95442W        W67113  39.268  15.124   3.778
95443W        W67114   5.441  28.580  11.712
95444W        W67115  38.328  41.060  13.374
95445W        W67116   5.839   3.925  12.916
95446W        W67117  40.940   5.275  13.747
95447W        W67118  19.077  35.119   0.800
95448W        W67119  18.587   2.013  14.609
95449W        W67120  18.796  25.181  11.024
95450W        W67121   3.850  12.284  11.609
95451W        W67122   5.396  35.445  13.642
95452W        W67123  42.880   0.293   2.212
95453W        W67124  21.995  15.720   1.361
95454W        W67125   4.223  22.799  10.578
95455W        W67126   9.202  21.213   4.350
95456W        W67127  42.800  24.348   2.126
95457W        W67128  14.803  31.216  14.868
95458W        W67129  12.695  32.644   4.574
95459W        W67130  14.786  20.206   3.669
95460W        W67131  44.395  20.869  10.607
95461W        W67132  44.654   2.231   4.579
95462W        W67133  26.603  18.236  13.360
95463W        W67134  24.139  14.617  13.369
95464W        W67135  14.763  10.993  11.702
95465W        W67136  28.575   7.714  12.503
95466W        W67137  22.051  36.521   0.737
95467W        W67138  20.083   1.526  10.721
95468W        W67139  33.386  19.596  13.477
95469W        W67140   1.897  18.483   0.857
95470W        W67141   2.293   4.790   4.627
95471W        W67142   8.441  26.528  14.281
95472W        W67143  20.292   0.238   0.296
95473W        W67144  37.346  35.546  13.745
95474W        W67145   9.389   4.206   2.812
95475W        W67146  30.432  20.355  11.374
95476W        W67147  18.317   8.363   2.354
95477W        W67148  44.574  21.514   1.882
95478W        W67149  32.589   7.458   3.694
95479W        W67150  18.822  37.391  12.483
95480W        W67151  29.237  30.074  12.265
95481W        W67152  28.587   2.303  10.878
95482W        W67153   1.727  38.448   2.256
95483W        W67154   3.285  44.484   3.697
95484W        W67155  42.959  39.892  11.548
95485W        W67156   5.796  35.447  10.526
95486W        W67157  35.380  40.065   5.050
95487W        W67158   4.767   7.670   5.055
95488W        W67159  14.602  19.601  10.723
95489W        W67160  29.381   1.956  12.777
95490W        W67161   4.231   4.233  12.083
95491W        W67162   6.225  37.794   0.814
95492W        W67163  32.566   5.708   4.153
95493W        W67164  13.859  29.278   4.766
95494W        W67165  41.898  23.086  14.033
95495W        W67166  38.166  15.692   0.793
95496W        W67167   9.434   1.628  11.053
95497W        W67168  31.365  41.226   2.031
95498W        W67169  34.924  38.057   9.907
95499W        W67170   2.713  31.401   1.876
95500W        W67171   3.477  43.448  14.032
95501W        W67172   1.747   6.246   2.141
95502W        W67173  30.403   2.003   1.292
95503W        W67174  13.158  18.830   3.778
95504W        W67175  19.437  25.660  13.772
95505W        W67176   3.134   7.434  11.108
95506W        W67177   5.938  19.129  14.434
95507W        W67178  15.740  24.523  10.723
95508W        W67179   3.226  27.559   0.497
95509W        W67180  41.207  20.709   3.343
95510W        W67181  36.798   5.306   1.435
95511W        W67182  31.903  25.269  14.189
95512W        W67183  36.517   9.541  10.834
95513W        W67184  44.635   7.269   1.623
95514W        W67185  24.462  20.784  12.904
95515W        W67186  34.697  23.236  11.190
95516W        W67187  37.370  37.106  12.034
95517W        W67188  43.424  22.186  12.885
95518W        W67189  32.980  39.569  12.061
95519W        W67190   7.958   1.852   1.695
95520W        W67191  32.073   2.346   1.964
95521W        W67192   7.969  37.353   1.360
95522W        W67193  17.545   6.160   4.242
95523W        W67194  38.515  26.611   4.740
95524W        W67195  16.648  25.480  14.415
95525W        W67196  19.246   9.950   1.165
95526W        W67197  43.130  32.625  12.408
95527W        W67198  28.045  23.702  11.992
95528W        W67199   1.766  44.061  13.876
95529W        W67200  14.429  17.155  13.029
95530W        W67201  25.569   3.713   4.491
95531W        W67202  38.357  21.784   4.381
95532W        W67203  20.091  11.729   0.954
95533W        W67204  44.511  31.575  10.089
95534W        W67205   3.974  17.465  10.035
95535W        W67206  18.145   4.843  13.648
95536W        W67207  22.737   9.411   1.744
95537W        W67208   4.870   0.775  10.369
95538W        W67209  14.682  34.672  11.732
95539W        W67210  27.176  16.755   1.381
95540W        W67211  44.052   4.363   3.754
95541W        W67212  25.158  23.948  13.339
95542W        W67213  20.551  36.485   1.865
95543W        W67214  22.629  41.000   0.043
95544W        W67215  39.288  35.418   2.910
95545W        W67216  33.276   5.894   1.897
95546W        W67217   0.465   3.224   0.412
95547W        W67218  41.357  36.197  10.491
95548W        W67219  13.146  30.184  14.012
95549W        W67220  40.313  43.674  13.135
95550W        W67221  20.253  17.680   4.572
95551W        W67222  33.278   2.944  13.899
95552W        W67223  37.311  28.953  11.548
95553W        W67224  34.430  37.330  12.846
95554W        W67225  37.801   7.971   4.674
95555W        W67226   2.310  20.447   0.238
95556W        W67227   2.763   1.438  10.695
95557W        W67228  10.840  13.238   1.717
95558W        W67229  42.705  30.661  11.177
95559W        W67230  30.509  44.362  11.722
95560W        W67231  38.666  44.340  11.171
95561W        W67232  44.992  29.015  13.885
95562W        W67233  30.222  12.753   1.324
95563W        W67234  38.854   7.216  10.634
95564W        W67235  17.298  36.515   4.118
95565W        W67236  38.619  21.619  10.126
95566W        W67237  42.450  16.587   3.132
95567W        W67238  30.726  38.836   2.952
95568W        W67239  25.673  13.296  11.998
95569W        W67240  41.526  20.527  11.627
95570W        W67241  16.705  13.006   0.874
95571W        W67242  15.135  15.239   0.813
95572W        W67243   0.913  30.161   0.818
95573W        W67244   7.800  42.682   1.204
95574W        W67245  44.447  44.426   5.340
95575W        W67246   8.691  32.963   1.662
95576W        W67247  40.061  12.258  14.058
95577W        W67248  28.751  29.937   1.782
95578W        W67249   3.377  34.975   2.078
95579W        W67250  15.705   0.316  12.986
95580W        W67251  40.761  35.621  12.051
95581W        W67252  22.447  31.587  13.422
95582W        W67253   9.922  17.307  13.785
95583W        W67254  30.974  23.530   3.368
95584W        W67255  44.711  29.669   1.716
95585W        W67256  22.451  40.491   1.273
95586W        W67257  10.383  31.789  13.035
95587W        W67258  19.188  18.332  10.661
95588W        W67259  17.358   0.676  10.244
95589W        W67260   3.088   1.783  14.178
95590W        W67261  18.016  22.766   2.782
95591W        W67262  12.339  28.022   0.004
95592W        W67263  17.677  14.992  12.938
95593W        W67264  27.570  22.317   4.000
95594W        W67265  16.496  13.574   1.490
95595W        W67266  28.006  43.451   1.607
95596W        W67267  33.644  22.410   4.516
95597W        W67268  20.286  37.400  12.191
95598W        W67269  22.644  21.328   1.381
95599W        W67270  26.507   4.893  11.353
95600W        W67271   1.332  27.155  13.444
95601W        W67272   3.337   4.542  11.533
95602W        W67273   2.816  44.907  13.821
95603W        W67274   1.454   0.981  10.777
95604W        W67275  20.657   7.869   0.560
95605W        W67276  40.820  19.483  12.467
95606W        W67277  32.150  44.995   0.276
95607W        W67278  29.920   1.834   1.487
95608W        W67279  23.101  32.744  10.926
95609W        W67280   5.794   3.351   2.160
95610W        W67281  13.251   8.653  11.525
95611W        W67282   5.229  30.612   5.038
95612W        W67283  14.704  16.510   0.372
95613W        W67284  43.466  21.226   4.965
95614W        W67285  34.594  14.522  14.134
95615W        W67286  20.129  31.962   1.452
95616W        W67287  40.901  16.945   2.433
95617W        W67288  14.353   3.375   0.064
95618W        W67289  11.722  42.640   0.917
95619W        W67290  27.720  39.316   0.648
95620W        W67291  38.330  32.063   4.136
95621W        W67292  35.379  36.056   0.519
95622W        W67293  21.125  37.045  11.417
95623W        W67294  18.267  19.904  11.483
95624W        W67295  25.065  13.783  13.083
95625W        W67296  28.929   7.279   2.897
95626W        W67297   7.839  14.364   4.316
95627W        W67298  13.860  12.117   4.970
95628W        W67299   3.814   7.979  10.701
95629W        W67300  19.117  34.332   4.801
95630W        W67301  21.677  24.123  13.402
95631W        W67302  23.088   4.521   0.342
95632W        W67303   7.282  18.188  10.814
95633W        W67304  19.232  21.007  14.181
95634W        W67305   1.334  11.319  11.522
95635W        W67306   6.804  29.855  13.938
95636W        W67307  22.491  33.892   0.830
95637W        W67308  13.144  35.500  14.417
95638W        W67309   7.843  25.770   2.861
95639W        W67310  40.102  14.349   1.227
95640W        W67311  27.199  14.849   2.563
95641W        W67312  37.965  20.791  14.913
95642W        W67313   7.540   1.879  13.939
95643W        W67314  44.806  41.258  13.212
95644W        W67315  31.851  44.322  13.860
95645W        W67316  32.851  12.243   1.240
95646W        W67317  10.853  25.949   0.186
95647W        W67318  36.896  12.986  11.238
95648W        W67319  39.023  15.984  13.551
95649W        W67320  18.293  22.405   3.117
95650W        W67321  26.530  43.851   0.094
95651W        W67322  11.356  13.753  11.944
95652W        W67323  34.127   8.793  11.626
95653W        W67324  21.090  13.178  13.275
95654W        W67325  34.672   9.675  10.572
95655W        W67326  25.566  34.491   3.681
95656W        W67327   1.726  36.305  11.480
95657W        W67328  35.713  14.146  12.693
95658W        W67329   7.426  44.803  14.421
95659W        W67330  33.926   2.436   0.114
95660W        W67331  25.212  39.908   2.048
95661W        W67332  33.623  28.115   0.306
95662W        W67333  24.405   2.548   2.882
95663W        W67334   2.971   3.988   3.083
95664W        W67335  31.645  10.874   1.090
95665W        W67336   8.374  42.142   4.501
95666W        W67337  39.469  31.088  11.060
95667W        W67338  33.961  13.898   1.374
95668W        W67339  13.036   2.434  14.454
95669W        W67340  34.081  17.714  13.834
95670W        W67341  16.251   1.270   3.557
95671W        W67342  19.042  21.764  13.557
95672W        W67343  13.511  28.150  11.584
95673W        W67344  26.969  40.477  11.904
95674W        W67345   2.958  25.641  10.696
95675W        W67346  22.720  43.282   0.368
95676W        W67347  16.260   1.020   2.333
95677W        W67348  35.334  19.614   4.424
95678W        W67349  40.345   8.308  14.059
95679W        W67350  27.608   8.844  12.875
95680W        W67351   5.648  13.340  13.124
95681W        W67352  33.920  29.773   3.836
95682W        W67353  21.603  40.766  10.696
95683W        W67354  21.539   9.645   2.099
95684W        W67355  35.640  35.288   2.787
95685W        W67356  40.314  41.794  11.218
95686W        W67357  16.830  15.682  14.358
95687W        W67358  43.383   9.088  12.363
95688W        W67359  33.081  25.946   0.359
95689W        W67360   1.287  19.717   3.685
95690W        W67361  11.637  36.937   0.867
95691W        W67362  44.943  13.529   5.758
95692W        W67363  29.390  27.350   0.378
95693W        W67364  18.949  31.324  14.536
95694W        W67365  43.926  42.346  11.828
95695W        W67366  11.565  36.454  13.998
95696W        W67367  25.967  40.224   5.062
95697W        W67368  30.753   3.218   3.298
95698W        W67369  23.101  34.145   2.281
95699W        W67370  11.771  42.475   2.248
95700W        W67371  15.125  42.960  12.981
95701W        W67372   7.867  38.914  10.852
95702W        W67373  11.264   8.462   0.665
95703W        W67374  40.009  15.561  13.210
95704W        W67375  32.599  36.169  13.311
95705W        W67376  37.038   4.323  14.436
95706W        W67377  31.929  16.384  12.057
95707W        W67378  14.284  29.700   3.430
95708W        W67379   8.692  41.544  11.200
95709W        W67380   2.193  19.586   1.261
95710W        W67381  31.017  33.395   0.429
95711W        W67382  10.414  14.260  11.584
95712W        W67383  44.587  27.715  14.951
95713W        W67384   1.207   7.392  14.473
95714W        W67385  18.707  35.587   1.917
95715W        W67386  14.805  13.351   3.178
95716W        W67387  31.482  15.882  14.815
95717W        W67388   9.440  21.478  10.953
95718W        W67389  26.209   8.305   4.743
95719W        W67390  33.408  38.560  13.056
95720W        W67391  26.673  29.506   3.998
95721W        W67392  25.051   4.329  11.146
95722W        W67393   1.537  10.691  11.486
95723W        W67394  34.914  11.990   1.284
95724W        W67395  33.825  37.589  13.499
95725W        W67396  18.606  38.359  10.660
95726W        W67397  33.997   0.202  13.920
95727W        W67398  20.094  10.599  13.508
95728W        W67399  22.145  13.350   0.475
95729W        W67400  11.797  42.260   1.311
95730W        W67401  29.348   7.790   0.835
95731W        W67402  27.084  28.170   2.923
95732W        W67403  30.413  33.545  13.270
95733W        W67404  19.347  37.868  14.945
95734W        W67405   4.614  21.313   3.173
95735W        W67406  44.707  36.986  11.031
95736W        W67407  20.696  38.286   4.492
95737W        W67408  31.372  11.652   4.728
95738W        W67409  29.045  38.691  10.382
95739W        W67410  19.480  13.991  12.340
95740W        W67411  40.768  17.601   1.793
95741W        W67412   0.379  13.100  11.212
95742W        W67413  41.477  14.077   4.079
95743W        W67414  23.973  34.147  13.231
95744W        W67415  19.059  17.968  13.059
95745W        W67416  42.390  27.996  14.895
95746W        W67417  10.713  32.092   0.486
95747W        W67418  27.890  33.178  14.429
95748W        W67419  11.196  34.448   0.413
95749W        W67420   0.355  37.979   3.722
95750W        W67421   4.819  21.197  14.838
95751W        W67422  38.542  18.049  12.827
95752W        W67423  10.466  28.923   1.038
95753W        W67424  37.103  34.573  13.565
95754W        W67425  23.878   0.109   3.634
95755W        W67426  43.962  14.308  10.988
95756W        W67427  41.557  22.948  13.377
95757W        W67428  36.635   4.714   1.723
95758W        W67429  28.112   1.255  10.325
95759W        W67430  10.391   0.978   0.416
95760W        W67431  19.013  39.780   0.729
95761W        W67432  26.655  12.703  13.732
95762W        W67433  30.694   0.012   2.374
95763W        W67434  44.926   5.909   2.372
95764W        W67435  10.697  42.718  14.241
95765W        W67436  43.789  23.182  10.713
95766W        W67437   9.952  38.464  12.802
95767W        W67438  24.149  26.811  14.792
95768W        W67439   4.434  23.089   2.898
95769W        W67440  28.673  17.636  13.100
95770W        W67441  19.849  36.042  11.172
95771W        W67442  24.463  18.721   2.927
95772W        W67443  14.604  10.820   2.400
95773W        W67444   6.779  32.978   3.038
95774W        W67445   8.668  35.426  12.589
95775W        W67446  41.733  38.902  12.981
95776W        W67447  14.303  27.453   4.180
95777W        W67448  36.552  35.838  12.512
95778W        W67449   0.876  39.820   2.707
95779W        W67450  42.218  43.519   1.593
95780W        W67451  42.916  44.081   4.528
95781W        W67452   3.916  29.548  14.031
95782W        W67453  20.764  27.296   1.834
95783W        W67454  26.995  18.000  12.897
95784W        W67455  16.168  25.434   0.284
95785W        W67456  26.237  31.954   3.368
95786W        W67457  43.276  31.177   3.255
95787W        W67458  32.221  15.677  11.765
95788W        W67459  32.428  11.806   2.803
95789W        W67460  20.555  35.852  13.027
95790W        W67461  34.471  38.561   3.762
95791W        W67462  16.565  10.409  13.017
95792W        W67463  21.789   9.693  11.086
95793W        W67464  40.403  35.549  14.754
95794W        W67465  39.787   0.495  10.915
95795W        W67466  26.540  11.824  11.884
95796W        W67467  17.025  37.500   2.188
95797W        W67468  20.440  33.931   3.675
95798W        W67469   7.814  13.316   0.421
95799W        W67470  43.124   0.777   3.850
95800W        W67471  22.540  26.013  14.748
95801W        W67472  23.961  37.340   1.723
95802W        W67473  40.943   9.316   0.493
95803W        W67474  30.651  33.000  11.965
95804W        W67475  19.690  15.788   3.371
95805W        W67476  27.785   3.907   1.832
95806W        W67477  14.806   4.711  12.060
95807W        W67478   2.779   5.953  12.454
95808W        W67479   2.954   0.390  10.854
95809W        W67480   8.171  17.607   2.484
95810W        W67481  37.929   0.359  11.540
95811W        W67482  12.097  16.918  14.493
95812W        W67483  39.549  31.572  13.912
95813W        W67484  25.291   8.289   1.740
95814W        W67485  14.386  43.735   3.272
95815W        W67486  15.522  22.878   5.065
95816W        W67487  30.933  21.493  12.451
95817W        W67488  34.199  40.363   0.261
95818W        W67489  34.393   8.690  14.866
95819W        W67490   2.499  37.270   9.707
95820W        W67491  21.673  25.654   3.159
95821W        W67492   1.714  38.522  13.919
95822W        W67493  11.853  38.626  11.492
95823W        W67494  41.261  13.943   4.529
95824W        W67495  19.824   0.566  14.249
95825W        W67496  11.013  38.221   2.325
95826W        W67497   9.364  12.919   2.893
95827W        W67498  29.453  20.625  14.778
95828W        W67499  22.244   0.207   0.415
95829W        W67500  34.165   6.909   0.725
95830W        W67501  33.796  40.920   0.837
95831W        W67502  35.387  30.554   0.477
95832W        W67503  39.116   4.462   4.556
95833W        W67504   4.412  21.323  11.624
95834W        W67505  43.169   2.012  10.155
95835W        W67506  38.532  10.098  14.041
95836W        W67507  18.122  27.480  14.357
95837W        W67508  11.627  20.817  11.599
95838W        W67509  17.685  37.003  13.844
95839W        W67510  37.394  20.207  10.673
95840W        W67511  35.510  28.189   1.335
95841W        W67512  41.589  25.485  13.282
95842W        W67513  40.962  36.016  12.734
95843W        W67514  18.072  18.714  14.732
95844W        W67515  18.513   9.798   2.883
95845W        W67516  33.609   4.373  13.538
95846W        W67517  15.717  19.560   3.135
95847W        W67518  30.562  26.255  11.979
95848W        W67519   6.755  39.493  11.075
95849W        W67520   5.036   5.145   1.320
95850W        W67521   4.372  31.666   4.030
95851W        W67522  23.439  19.571   1.336
95852W        W67523  30.621  26.622   0.982
95853W        W67524  38.540  21.609  13.705
95854W        W67525   3.429  24.481   1.244
95855W        W67526  33.596  33.427   3.667
95856W        W67527  26.561   0.729   5.262
95857W        W67528   7.009   1.146   0.760
95858W        W67529  24.681  22.741  12.578
95859W        W67530  12.733  37.015   1.250
95860W        W67531  39.835   5.264  14.887
95861W        W67532  23.131  32.112   3.646
95862W        W67533  26.241  40.914   4.018
95863W        W67534   2.841  17.275   4.310
95864W        W67535  37.991  41.263   0.020
95865W        W67536  20.144  41.105  10.762
95866W        W67537  26.681   4.945   0.258
95867W        W67538  40.481  43.750   2.182
95868W        W67539  12.896  38.052   0.285
95869W        W67540  29.154  41.384   2.145
95870W        W67541  14.577   8.481  14.599
95871W        W67542  43.451  15.666  13.023
95872W        W67543  28.957  28.465  14.906
95873W        W67544  26.710   5.825  13.977
95874W        W67545  14.421  31.098   3.242
95875W        W67546  25.770  34.676   4.127
95876W        W67547  43.433  27.450  14.383
95877W        W67548  26.845  14.756  14.100
95878W        W67549  34.884  16.287  11.575
95879W        W67550   8.838  20.731   0.274
95880W        W67551  34.292   5.118  12.106
95881W        W67552  34.875  12.380   2.714
95882W        W67553   3.167  26.030  11.003
95883W        W67554  16.076  19.739   0.242
95884W        W67555  26.120  39.865   1.388
95885W        W67556   9.301   9.822   3.366
95886W        W67557  43.417  42.997   3.673
95887W        W67558  21.238  29.175   2.865
95888W        W67559  35.050   6.755  11.605
95889W        W67560  21.638   3.464  10.744
95890W        W67561  37.104  39.955   3.223
95891W        W67562  35.604   0.236  14.433
95892W        W67563   4.792  13.425  13.974
95893W        W67564  42.951  40.430  13.898
95894W        W67565   4.332   5.897   1.320
95895W        W67566  17.597  22.959  11.137
95896W        W67567   1.243  19.849  13.958
95897W        W67568   9.249   1.260  12.682
95898W        W67569  37.107  24.539  12.097
95899W        W67570   3.987  11.170   1.170
95900W        W67571  14.165  29.321  13.431
95901W        W67572   3.831  27.066   3.251
95902W        W67573   9.253  27.170   4.093
95903W        W67574  12.297  15.516   0.868
95904W        W67575  12.270  20.415   0.279
95905W        W67576  26.668  39.260  13.050
95906W        W67577  37.323  32.837   1.934
95907W        W67578  37.458  24.652   3.911
95908W        W67579  33.694  34.998   0.397
95909W        W67580   0.503   0.800  12.859
95910W        W67581  32.658   0.690  14.330
95911W        W67582   4.753  33.934   4.173
95912W        W67583  18.163   2.619   2.324
95913W        W67584  31.492  21.708  11.298
95914W        W67585   6.952  29.455   4.659
95915W        W67586   3.180   0.513   3.474
95916W        W67587  31.033  44.740   3.117
95917W        W67588  13.182  10.155  11.632
95918W        W67589  35.905  37.956  14.263
95919W        W67590  40.008  27.072   2.522
95920W        W67591  22.625  24.019  11.494
95921W        W67592  34.475  22.262  14.293
95922W        W67593  29.562  12.238   0.162
95923W        W67594  32.362  42.348   2.356
95924W        W67595   5.884  22.441  12.395
95925W        W67596  33.624   3.071   0.707
95926W        W67597  41.715  43.996   0.812
95927W        W67598  28.114  36.830   1.898
95928W        W67599  21.725   4.267  14.978
95929W        W67600  38.922  19.899  14.504
95930W        W67601  23.117  17.003  10.312
95931W        W67602  17.150  23.255  10.443
95932W        W67603  36.936  36.881   9.625
95933W        W67604  27.408  11.357   3.224
95934W        W67605  14.838  10.176   3.887
95935W        W67606   7.755   2.514  12.979
95936W        W67607  22.451  27.400  11.651
95937W        W67608  13.102  28.494  13.359
95938W        W67609  42.441  23.981  12.866
95939W        W67610   8.229  35.743  13.575
95940W        W67611  15.661  25.169  11.461
95941W        W67612  13.084   3.365   9.933
95942W        W67613  15.252  39.031   0.875
95943W        W67614  20.417  42.425   4.419
95944W        W67615  38.990  18.615   0.547
95945W        W67616  18.722  43.093   1.858
95946W        W67617   6.899  25.961   2.170
95947W        W67618  39.446  29.516  13.593
95948W        W67619  33.896  40.958  14.082
95949W        W67620  27.662   5.920   4.505
95950W        W67621  13.904  44.892   3.932
95951W        W67622  21.283  33.401   1.891
95952W        W67623  31.579  24.319   2.383
95953W        W67624   0.896  16.472   0.329
95954W        W67625   2.906  42.473  12.491
95955W        W67626  11.813  25.103  14.500
95956W        W67627  31.571   6.775  12.958
95957W        W67628  26.464   4.966   4.949
95958W        W67629  10.558  29.313  13.369
95959W        W67630  26.125   8.210  13.556
95960W        W67631  44.453  42.447   3.850
95961W        W67632  13.072   8.729  14.450
95962W        W67633   7.991  11.313   2.349
95963W        W67634  31.124  26.007  11.060
95964W        W67635  10.580  37.606   1.733
95965W        W67636  36.034   1.425  14.426
95966W        W67637  21.725  12.768   4.656
95967W        W67638  12.120   7.883   0.429
95968W        W67639  14.836  23.706   0.453
95969W        W67640  34.195   2.750   2.788
95970W        W67641  41.971  37.759   4.176
95971W        W67642  29.294  12.801  10.513
95972W        W67643  36.278  13.622  11.481
95973W        W67644  25.122  34.328   3.900
95974W        W67645  38.045  21.484   1.295
95975W        W67646  40.957  24.538   3.656
95976W        W67647  31.185  40.115  10.795
95977W        W67648  10.074  41.421  12.811
95978W        W67649  17.658   4.163  11.083
95979W        W67650  33.750   3.974   1.247
95980W        W67651  13.034  17.333  13.730
95981W        W67652  32.068  28.673   3.320
95982W        W67653   3.347  19.289  11.804
95983W        W67654  24.625  44.578  12.534
95984W        W67655   7.078  15.392   4.594
95985W        W67656  11.094  10.762  11.526
95986W        W67657  26.293   7.760  11.060
95987W        W67658   2.787  37.476  12.510
95988W        W67659  16.794   5.523   1.749
95989W        W67660  41.551   5.854   2.144
95990W        W67661  22.512  42.342   0.697
95991W        W67662   7.417  43.434   4.260
95992W        W67663  44.374  41.607   0.890
95993W        W67664  41.837  13.059   0.814
95994W        W67665  44.566  27.837   0.911
95995W        W67666   7.186  42.037  12.490
95996W        W67667  35.491   1.923   2.579
95997W        W67668  20.225  11.245   9.776
95998W        W67669   8.307   1.000  12.550
95999W        W67670  36.606  18.255   1.441
96000W        W67671   4.027  23.540   3.642
96001W        W67672  37.907  35.215  14.413
96002W        W67673  36.815  35.444  13.530
96003W        W67674  40.660  44.668  11.782
96004W        W67675  16.680  41.415   1.367
96005W        W67676   8.893  11.770  12.832
96006W        W67677   0.799  23.729  14.437
96007W        W67678   3.836  38.845   4.348
96008W        W67679  35.005  23.191   1.420
96009W        W67680  35.986  37.347  12.828
96010W        W67681   2.904  29.564  11.682
96011W        W67682  10.835  27.615   3.186
96012W        W67683  42.955   7.883  11.021
96013W        W67684   7.897  12.267   4.491
96014W        W67685   6.337  28.550  13.048
96015W        W67686  44.775   9.140  11.030
96016W        W67687  36.096  10.251  12.840
96017W        W67688  13.115  25.578  12.639
96018W        W67689  21.453  26.638  12.510
96019W        W67690   3.283  11.247  11.170
96020W        W67691  21.728  37.323   3.202
96021W        W67692  31.708   3.063   1.824
96022W        W67693  21.960  15.392   0.971
96023W        W67694  15.377  37.882  14.233
96024W        W67695  32.880  25.992   1.860
96025W        W67696  14.918  31.701  14.842
96026W        W67697   7.907  27.587   1.817
96027W        W67698   1.514  16.179   2.764
96028W        W67699  26.789   5.352  13.782
96029W        W67700  40.860  12.477  10.361
96030W        W67701  35.254  42.770   3.803
96031W        W67702  21.945   4.811   4.405
96032W        W67703  36.420  33.714  12.737
96033W        W67704   8.102  19.172  11.564
96034W        W67705  33.678  33.970   0.459
96035W        W67706  17.509  11.847  11.568
96036W        W67707  33.561  26.058   2.620
96037W        W67708  12.682  30.076   1.702
96038W        W67709  16.002  17.836   4.550
96039W        W67710  40.604  40.278   3.292
96040W        W67711  37.537  32.908  11.189
96041W        W67712  36.874  12.120  10.676
96042W        W67713  44.823  19.010  10.709
96043W        W67714  15.839  13.108  14.399
96044W        W67715  43.692  25.770   2.903
96045W        W67716   5.421  14.617   3.462
96046W        W67717  24.079  32.441  10.556
96047W        W67718   0.460  31.327  13.391
96048W        W67719  19.201  43.556   3.945
96049W        W67720   2.664  17.973   1.727
96050W        W67721  33.911  10.947   1.830
96051W        W67722  11.932   8.659   3.245
96052W        W67723  24.517   3.889   0.224
96053W        W67724  44.671  31.535  11.891
96054W        W67725  40.909  38.874  12.135
96055W        W67726  39.487  23.054   2.791
96056W        W67727   4.718   8.469  13.525
96057W        W67728  33.047  13.259   2.153
96058W        W67729  33.419  33.889  14.899
96059W        W67730  16.183  16.051  10.247
96060W        W67731  26.471  26.580  14.711
96061W        W67732  35.848  12.769  14.342
96062W        W67733  42.586   9.535  12.441
96063W        W67734   4.691  24.456   2.376
96064W        W67735   4.305  12.071  14.856
96065W        W67736   5.277  14.219  12.053
96066W        W67737  28.467  41.867  13.896
96067W        W67738  26.916  18.343   1.938
96068W        W67739   4.369   0.795   1.933
96069W        W67740  18.780  10.367   0.300
96070W        W67741  10.502  27.054  13.815
96071W        W67742   8.640  23.475   3.291
96072W        W67743  38.447   6.891  10.680
96073W        W67744   9.806   2.091   0.367
96074W        W67745   5.353  21.281  14.918
96075W        W67746  10.911   8.228  14.800
96076W        W67747  33.510  21.128   2.842
96077W        W67748  19.754   3.024   4.561
96078W        W67749  32.382  38.659  14.735
96079W        W67750   4.009   8.746  14.851
96080W        W67751  15.709  27.765  10.925
96081W        W67752  38.959   5.210  10.515
96082W        W67753  37.018  21.972  14.690
96083W        W67754  37.104  14.251   1.756
96084W        W67755  17.981  38.270   4.704
96085W        W67756  13.180  17.560   4.157
96086W        W67757  20.115  20.493   2.104
96087W        W67758   5.479  25.270  13.924
96088W        W67759  21.478  41.471  14.081
96089W        W67760  16.309  42.483   3.716
96090W        W67761   1.469  31.006  12.044
96091W        W67762  16.849  42.356  14.818
96092W        W67763   1.483  43.836  14.733
96093W        W67764  24.516  20.916   1.796
96094W        W67765  23.954   7.826   2.174
96095W        W67766  28.402   6.662  12.455
96096W        W67767  33.007   3.271  12.028
96097W        W67768   1.055  40.382  12.005
96098W        W67769   2.296  36.941  14.081
96099W        W67770   6.797  12.552   0.823
96100W        W67771  38.588  40.989   1.823
96101W        W67772   4.670   0.666  12.425
96102W        W67773  34.366  28.433  14.961
96103W        W67774  33.027  28.029  11.684
96104W        W67775   3.204   2.487  10.755
96105W        W67776  27.661  13.283  14.862
96106W        W67777   5.447  19.851  13.480
96107W        W67778  35.676   5.801  13.896
96108W        W67779   2.694  14.782  14.324
96109W        W67780  28.426  31.066  12.919
96110W        W67781  18.706   2.546   0.439
96111W        W67782  34.000  24.458  12.520
96112W        W67783   0.804  10.967  11.143
96113W        W67784  24.453  23.163  14.816
96114W        W67785  20.013  25.668  11.531
96115W        W67786  27.411  39.774  13.039
96116W        W67787  34.572  37.336   0.480
96117W        W67788  20.704  12.303   0.533
96118W        W67789   7.910   6.331   3.144
96119W        W67790  23.640  14.304  14.880
96120W        W67791  23.709   4.293   0.715
96121W        W67792  27.456  11.741  10.883
96122W        W67793   2.407  20.639  11.775
96123W        W67794  12.162  39.149  10.796
96124W        W67795   7.221  43.036   2.666
96125W        W67796  42.319  16.021  11.713
96126W        W67797  44.715   9.774   2.876
96127W        W67798   0.938  31.922  13.702
96128W        W67799  11.655  26.186  11.999
96129W        W67800   0.065  15.325  11.033
96130W        W67801  14.346  42.888  13.923
96131W        W67802   6.481   9.744   4.342
96132W        W67803  44.306   4.680   2.457
96133W        W67804  26.527   0.246  11.168
96134W        W67805  15.178   7.920   4.502
96135W        W67806  10.911  21.170   4.507
96136W        W67807  30.690  21.493   2.172
96137W        W67808   6.481  19.602   4.584
96138W        W67809  23.198   1.402  13.272
96139W        W67810  36.529  20.299   2.856
96140W        W67811   5.377  11.468  11.908
96141W        W67812  25.527  35.977  12.830
96142W        W67813  33.979  24.387   4.533
96143W        W67814   0.908  27.715   4.314
96144W        W67815  38.282   7.129   4.591
96145W        W67816  44.932  32.970  13.469
96146W        W67817  11.836  18.128  13.307
96147W        W67818  11.610  17.463   1.532
96148W        W67819  31.413   6.177   3.089
96149W        W67820  15.872   7.717   0.278
96150W        W67821   4.816  33.671  11.468
96151W        W67822  13.047   7.151  12.595
96152W        W67823  35.496  17.091   2.042
96153W        W67824  41.951  19.843   5.121
96154W        W67825  23.142   5.428  12.391
96155W        W67826  35.802  15.073   4.528
96156W        W67827   4.333  27.792   3.413
96157W        W67828   5.472  17.023   1.864
96158W        W67829  26.913  24.570   0.037
96159W        W67830  15.160  41.035   3.724
96160W        W67831  43.876  32.438   2.279
96161W        W67832   2.008   1.883   4.163
96162W        W67833  11.170  31.047   2.537
96163W        W67834   7.243   1.452   3.282
96164W        W67835  22.184   1.902  11.133
96165W        W67836  20.173  23.219  11.799
96166W        W67837  28.739  34.145   3.820
96167W        W67838  18.821  31.629  13.540
96168W        W67839  27.272  29.506  12.377
96169W        W67840  41.070   9.895   1.546
96170W        W67841  21.362  30.021  13.311
96171W        W67842  44.242  36.821   1.032
96172W        W67843  32.091  30.105   4.701
96173W        W67844  28.542   5.699  10.789
96174W        W67845   9.937  36.946  12.126
96175W        W67846  23.592   5.411  11.570
96176W        W67847  35.041  44.509   1.485
96177W        W67848  17.281  15.125   1.901
96178W        W67849   1.438   9.978  12.624
96179W        W67850   2.981  25.991   3.360
96180W        W67851  32.398  13.709  12.607
96181W        W67852   2.500  44.027  14.814
96182W        W67853  16.147  44.692  11.980
96183W        W67854  24.772  40.974  10.709
96184W        W67855   0.320  13.512   9.726
96185W        W67856  13.625  32.717   1.498
96186W        W67857  34.165  15.155  13.322
96187W        W67858   4.197  16.356   0.186
96188W        W67859  38.090   0.202   4.270
96189W        W67860   5.963  33.182  12.628
96190W        W67861   6.769  17.104   3.894
96191W        W67862   6.860  30.520  12.619
96192W        W67863  27.672   9.409   1.660
96193W        W67864  16.377   7.484   1.387
96194W        W67865  19.746   3.329  10.743
96195W        W67866  36.949  30.914  14.894
96196W        W67867  37.634  43.470   4.537
96197W        W67868  15.379  31.040   0.527
96198W        W67869  27.285  32.506  11.163
96199W        W67870  28.141   0.719   3.840
96200W        W67871  24.585  31.647  12.519
96201W        W67872   7.404   0.332  13.531
96202W        W67873  40.082  15.149   2.176
96203W        W67874  23.368  44.209   1.919
96204W        W67875   7.979   8.214   1.925
96205W        W67876  12.305   3.725   3.673
96206W        W67877  16.594  23.022  13.007
96207W        W67878  26.019  42.468   0.968
96208W        W67879  30.112   8.918   0.950
96209W        W67880  39.872  10.241  12.121
96210W        W67881  12.707  23.675   3.099
96211W        W67882   9.731  22.462   1.876
96212W        W67883  42.250  35.644  11.956
96213W        W67884  20.060  17.807  10.647
96214W        W67885  37.586  12.549   4.531
96215W        W67886  37.807  22.715   4.107
96216W        W67887  23.060  44.609   0.690
96217W        W67888  34.506  30.431  11.688
96218W        W67889  18.120  13.520   1.830
96219W        W67890  12.582   1.829   0.051
96220W        W67891   0.012  38.745  10.604
96221W        W67892  15.691  21.714   2.785
96222W        W67893  10.590  38.321   0.421
96223W        W67894  18.333  37.844  12.001
96224W        W67895   6.611  37.138   2.153
96225W        W67896  21.473  29.927  12.819
96226W        W67897  35.082  18.888  13.007
96227W        W67898   1.053  30.638   2.301
96228W        W67899  38.124   6.593   0.841
96229W        W67900  23.192  17.508  14.568
96230W        W67901  14.752  17.169  10.726
96231W        W67902   4.751   4.282  12.176
96232W        W67903  14.406  15.877  13.529
96233W        W67904  36.962  17.959  13.831
96234W        W67905   5.691  39.861   2.181
96235W        W67906  16.283  15.591   4.219
96236W        W67907   8.807  30.657   4.095
96237W        W67908  24.788  12.942  12.444
96238W        W67909  27.858  30.445   3.146
96239W        W67910  29.529  15.530   9.895
96240W        W67911  24.694  30.190  13.033
96241W        W67912  34.938  10.185   1.832
96242W        W67913   7.839  27.731  10.780
96243W        W67914  22.678  38.617   4.677
96244W        W67915  30.672   2.355  11.203
96245W        W67916  39.368   1.258   0.319
96246W        W67917  18.561  31.574  12.489
96247W        W67918  14.852  40.468  12.427
96248W        W67919  43.787  18.723   1.352
96249W        W67920   4.323  18.365  12.938
96250W        W67921  10.067  29.059   9.862
96251W        W67922   8.175  20.707   2.277
96252W        W67923  41.005   1.248   1.348
96253W        W67924  31.426  29.554   3.773
96254W        W67925   0.776   7.922   2.350
96255W        W67926  37.744  44.897  14.851
96256W        W67927   3.755  10.559   4.524
96257W        W67928   8.681  33.980   1.861
96258W        W67929  41.912  26.321   1.422
96259W        W67930  34.885  13.889  10.411
96260W        W67931  12.853  15.642  10.108
96261W        W67932  18.574  18.319   3.626
96262W        W67933  19.549  25.325   4.261
96263W        W67934  19.726   2.270  12.068
96264W        W67935  34.511  22.730   1.552
96265W        W67936  20.035   9.082   0.367
96266W        W67937  36.899   9.922   0.386
96267W        W67938  20.529  10.139  14.912
96268W        W67939  31.152  27.751   3.385
96269W        W67940  19.583  11.515   3.802
96270W        W67941  10.691  35.845  12.414
96271W        W67942  25.230  32.516   2.681
96272W        W67943  28.221  34.476   9.984
96273W        W67944  34.728   6.828  14.850
96274W        W67945   4.355  39.568  13.480
96275W        W67946  23.499  23.541  14.947
96276W        W67947  28.421  13.075  10.436
96277W        W67948  44.373  23.722   0.295
96278W        W67949  32.565   4.162   4.318
96279W        W67950  13.293  42.437   2.009
96280W        W67951  12.726  27.350   4.639
96281W        W67952   6.369  29.038  10.498
96282W        W67953  44.330  33.015  14.861
96283W        W67954  34.125  29.412   0.884
96284W        W67955  37.089  25.225  12.515
96285W        W67956  16.740   5.835  11.578
96286W        W67957  41.236   6.597  11.084
96287W        W67958  31.012   3.472   2.893
96288W        W67959  29.543  38.898  10.612
96289W        W67960  24.498  24.106  10.368
96290W        W67961  24.658  42.900  12.485
96291W        W67962  23.551  28.879  12.521
96292W        W67963  35.179  24.714  13.849
96293W        W67964  41.380  16.512  14.374
96294W        W67965  31.634  29.410  11.542
96295W        W67966   2.748  27.983   2.843
96296W        W67967   8.627  14.826  14.891
96297W        W67968  22.755  20.553  14.870
96298W        W67969  14.870   5.239  12.627
96299W        W67970  15.149   7.109   2.394
96300W        W67971  17.212  10.006  10.143
96301W        W67972  43.406  36.896  14.834
96302W        W67973   8.109  43.486   1.259
96303W        W67974  32.636   8.226   1.271
96304W        W67975  32.356  23.567   4.532
96305W        W67976  32.891  15.225   0.205
96306W        W67977  35.430  36.787   9.971
96307W        W67978   8.765  13.683  14.449
96308W        W67979  17.682  17.213   3.205
96309W        W67980  15.186  14.635  14.973
96310W        W67981  23.268  24.057   4.331
96311W        W67982  36.640  43.726   0.050
96312W        W67983  17.100   8.368   0.090
96313W        W67984  25.616  17.242  13.376
96314W        W67985  14.336   8.735   0.009
96315W        W67986   6.973  31.497  10.712
96316W        W67987  32.426  28.681  12.926
96317W        W67988   4.867  35.329   4.209
96318W        W67989  40.248  10.418   2.776
96319W        W67990  19.610  30.447  11.221
96320W        W67991  21.087   4.826   0.260
96321W        W67992   4.461  21.111   2.160
96322W        W67993  12.282  37.334  14.712
96323W        W67994  23.951  33.878   3.603
96324W        W67995  43.474   3.012  11.439
96325W        W67996  31.014  13.644   3.175
96326W        W67997  34.006   0.546  10.684
96327W        W67998   8.528  24.394   3.147
96328W        W67999  29.919  34.415   3.670
96329W        W68000  27.447   3.693   3.311
96330W        W68001  19.883  18.169  14.950
96331W        W68002  15.158  23.525   2.513
96332W        W68003  36.446  38.278  13.107
96333W        W68004  43.456  43.634   1.354
96334W        W68005  34.903  17.597  11.208
96335W        W68006  29.434  35.602  14.368
96336W        W68007  13.699   8.794   0.330
96337W        W68008  18.421  24.950   4.891
96338W        W68009  20.364  41.980   3.713
96339W        W68010   5.455  19.199  14.272
96340W        W68011  12.797  12.263  14.071
96341W        W68012  16.330  36.344   0.354
96342W        W68013  44.488  23.101   1.123
96343W        W68014  25.692  22.657  12.560
96344W        W68015  31.264   1.173   4.067
96345W        W68016  42.593  41.370  13.811
96346W        W68017  22.194  43.435   4.505
96347W        W68018  18.940  16.024  13.661
96348W        W68019  25.195  37.460   4.187
96349W        W68020  11.872  43.969  10.567
96350W        W68021  14.263  29.089  14.364
96351W        W68022   0.083  21.208  14.848
96352W        W68023  39.013  21.835   4.176
96353W        W68024  14.610  43.901   1.860
96354W        W68025  21.014  38.519   0.289
96355W        W68026   8.772  21.850   0.826
96356W        W68027  44.932  33.615   1.849
96357W        W68028  11.084  32.543  14.785
96358W        W68029  31.430  34.332  13.446
96359W        W68030  23.652  41.516   1.427
96360W        W68031   2.529  43.164   3.163
96361W        W68032  34.080  31.790   4.093
96362W        W68033  36.862  44.196   1.425
96363W        W68034  33.431  25.626  14.385
96364W        W68035  19.368   9.739  11.099
96365W        W68036  30.742  24.611   0.248
96366W        W68037  23.557  33.999   1.678
96367W        W68038  20.994   5.637   3.572
96368W        W68039  16.137  20.150   1.880
96369W        W68040   7.164  44.065  11.619
96370W        W68041  29.912  28.101   2.814
96371W        W68042   8.867  11.242  13.470
96372W        W68043  41.362  26.594  14.406
96373W        W68044   7.808  11.586  12.799
96374W        W68045  10.600  19.187  11.260
96375W        W68046  36.927  27.972  13.889
96376W        W68047   2.206  38.538   2.408
96377W        W68048  24.076   3.968   2.836
96378W        W68049  34.031  39.447   0.018
96379W        W68050  32.637  18.712  12.015
96380W        W68051  11.556  10.833  12.064
96381W        W68052  25.013  23.573  12.041
96382W        W68053  29.083  10.742  11.526
96383W        W68054  17.875  30.357  13.009
96384W        W68055  31.304  20.007  12.394
96385W        W68056  19.924   3.903   4.960
96386W        W68057   9.429  13.765   3.191
96387W        W68058  41.042  38.708   0.868
96388W        W68059  15.139  16.649  13.858
96389W        W68060  11.453  11.964   3.758
96390W        W68061  41.330  14.650   1.311
96391W        W68062  29.814  38.646   2.845
96392W        W68063  24.712  13.549   2.984
96393W        W68064  21.967   5.623   0.844
96394W        W68065   2.922   4.167   4.821
96395W        W68066  31.850  11.228  10.741
96396W        W68067  22.256  28.002   4.136
96397W        W68068   0.899   7.204   1.276
96398W        W68069  37.578  17.135  13.972
96399W        W68070   5.181  42.572  13.657
96400W        W68071  15.792  25.144   0.450
96401W        W68072  23.747  23.155   4.300
96402W        W68073   6.705   7.326   0.333
96403W        W68074  28.955  40.092  14.819
96404W        W68075  35.166  14.084   0.354
96405W        W68076  23.498  11.005  11.952
96406W        W68077  14.766   5.228   3.202
96407W        W68078  24.199  40.752   3.666
96408W        W68079   1.554   7.620   0.843
96409W        W68080   3.721  34.871  13.453
96410W        W68081  26.450  19.127  12.015
96411W        W68082  22.519  40.923   2.015
96412W        W68083  40.388  31.066  10.692
96413W        W68084  12.884  35.563   0.080
96414W        W68085  23.773  37.937   3.787
96415W        W68086  14.858  14.826   3.132
96416W        W68087   8.798  16.454  11.140
96417W        W68088  23.960  33.968  11.976
96418W        W68089  17.569   7.252  12.306
96419W        W68090   8.621  31.570  14.092
96420W        W68091  14.086  41.885  13.070
96421W        W68092   1.523   0.925   3.239
96422W        W68093  21.266  24.190   5.095
96423W        W68094   0.204  16.696   4.590
96424W        W68095  41.694  18.305   2.724
96425W        W68096  21.197  14.143   0.641
96426W        W68097  26.065  23.759   0.821
96427W        W68098  13.758   1.552   3.124
96428W        W68099  15.399  16.550   4.100
96429W        W68100   8.784  12.351   2.947
96430W        W68101  11.033  25.016   5.030
96431W        W68102  29.445  44.394   4.092
96432W        W68103   2.464   0.663  11.659
96433W        W68104  33.013  42.795   0.002
96434W        W68105  35.809   0.257  10.757
96435W        W68106  19.000  34.627  11.624
96436W        W68107  25.532  36.904   0.789
96437W        W68108  44.897  27.238   4.688
96438W        W68109  12.078  43.654  14.246
96439W        W68110  43.948  22.676   2.616
96440W        W68111   6.329  41.457   4.556
96441W        W68112  38.340   4.178  11.368
96442W        W68113   1.413  17.723   2.850
96443W        W68114  38.082  29.483   0.518
96444W        W68115  22.090  12.806  12.082
96445W        W68116  28.413  40.992  11.664
96446W        W68117  34.176  27.851   1.312
96447W        W68118  40.330  22.581  13.960
96448W        W68119  40.292  38.304  11.584
96449W        W68120  42.521  39.442  12.048
96450W        W68121  28.186   8.019   4.034
96451W        W68122  40.988   1.126   0.487
96452W        W68123  27.952  29.118   2.431
96453W        W68124  25.053  44.934  10.703
96454W        W68125  31.994  34.140   2.957
96455W        W68126  20.232  41.360   1.919
96456W        W68127  22.941   7.420   3.732
96457W        W68128   3.429  26.645  13.069
96458W        W68129  36.047  38.465  14.259
96459W        W68130  34.936  38.532  13.494
96460W        W68131  41.495  35.321  14.127
96461W        W68132  13.741  18.211  12.504
96462W        W68133  15.058  15.145  10.559
96463W        W68134  15.122   4.884   4.709
96464W        W68135  38.763  17.697  14.220
96465W        W68136  12.651  15.366  12.274
96466W        W68137   9.814  24.204  11.079
96467W        W68138  21.301  34.775  12.079
96468W        W68139  44.635  39.785  12.121
96469W        W68140  35.027   0.006  10.980
96470W        W68141  21.280  18.926   1.334
96471W        W68142   4.025  15.139   0.760
96472W        W68143  44.244   1.478   1.746
96473W        W68144   7.108  18.738   2.526
96474W        W68145  19.505  27.020  13.452
96475W        W68146  27.955   6.347   0.804
96476W        W68147  15.613   0.763   1.483
96477W        W68148   6.455  19.430   3.651
96478W        W68149   3.140  16.289   3.245
96479W        W68150  23.596  38.498  12.937
96480W        W68151  21.146  22.760   2.267
96481W        W68152   1.401   6.904  12.101
96482W        W68153   5.142   2.735  11.522
96483W        W68154  28.575  27.599   3.747
96484W        W68155  33.892  27.623   0.459
96485W        W68156  42.665  19.061   3.601
96486W        W68157   3.985   0.326   4.114
96487W        W68158  22.404   2.433  11.590
96488W        W68159  21.339  23.353   5.501
96489W        W68160  25.565  35.968   0.250
96490W        W68161  19.192  41.592   3.164
96491W        W68162  41.486  21.975  14.435
96492W        W68163  27.950   9.712   1.981
96493W        W68164   7.221  34.838  12.531
96494W        W68165   4.998  38.516   0.873
96495W        W68166   1.691  14.629   1.788
96496W        W68167  37.397  40.227  13.019
96497W        W68168  31.014  31.684  12.659
96498W        W68169  27.398  26.982   1.845
96499W        W68170   3.624  42.867  11.994
96500W        W68171   0.817  43.396  12.696
96501W        W68172  43.558   3.811   3.807
96502W        W68173  17.378  15.654   1.965
96503W        W68174  15.009  36.465   2.297
96504W        W68175  36.429  38.367  12.588
96505W        W68176  42.072  32.441   2.639
96506W        W68177   8.763  36.175  14.262
96507W        W68178  31.910   7.093   3.258
96508W        W68179  41.436  19.015  13.986
96509W        W68180  35.123  31.426   2.621
96510W        W68181   2.018  11.261  11.668
96511W        W68182  12.860  24.177   1.637
96512W        W68183  29.439   7.568   5.021
96513W        W68184  22.977  43.139  11.847
96514W        W68185  34.590  31.823   4.162
96515W        W68186  11.868   0.812  14.385
96516W        W68187  26.594   9.838   3.236
96517W        W68188  36.440  28.015   9.982
96518W        W68189  12.733  20.151   3.104
96519W        W68190  25.124  13.750  11.563
96520W        W68191  16.164   1.523  13.467
96521W        W68192   8.799  10.675   3.201
96522W        W68193   6.130  37.896  14.853
96523W        W68194  33.541  29.402  14.019
96524W        W68195  13.623  30.588   0.299
96525W        W68196  14.733   8.451  14.107
96526W        W68197  35.957  42.527   3.605
96527W        W68198   3.333  32.873   4.580
96528W        W68199   4.482   2.522   1.266
96529W        W68200  34.915   1.806  11.729
96530W        W68201  38.753   1.012  11.653
96531W        W68202  36.941   6.717  14.365
96532W        W68203  18.771   2.725  12.953
96533W        W68204  14.204  30.895   1.416
96534W        W68205  15.623  23.802  14.496
96535W        W68206  12.796  20.833  12.283
96536W        W68207  39.050   6.200   4.179
96537W        W68208  39.946  27.049   1.997
96538W        W68209  32.474  10.557   2.142
96539W        W68210  16.213  37.977  12.299
96540W        W68211   6.784  28.628  13.285
96541W        W68212   5.329  33.825   0.929
96542W        W68213  36.078   5.595  12.074
96543W        W68214  43.236  26.342   0.446
96544W        W68215  25.515  18.599  12.876
96545W        W68216  18.737  13.399   3.307
96546W        W68217  10.894   6.894  14.875
96547W        W68218  21.552   0.390  12.922
96548W        W68219  16.805  10.608   4.186
96549W        W68220  25.120   4.623  10.736
96550W        W68221  22.583  33.051   1.327
96551W        W68222  22.947  19.623   0.330
96552W        W68223  32.748  12.312  13.737
96553W        W68224  31.980  38.905   2.471
96554W        W68225  35.482  34.552  11.410
96555W        W68226  25.515  44.054  12.575
96556W        W68227  33.129  15.879  13.826
96557W        W68228  16.684  36.795  14.469
96558W        W68229  14.618  40.417   0.891
96559W        W68230  31.915  25.004   0.035
96560W        W68231  36.032   4.944   4.544
96561W        W68232   6.775  35.877   4.834
96562W        W68233  43.338   9.832   0.443
96563W        W68234  25.503   6.760   4.375
96564W        W68235  10.694  20.716   2.321
96565W        W68236  14.067   2.997   3.162
96566W        W68237  13.441  25.625  14.728
96567W        W68238   9.840  38.314  14.973
96568W        W68239  14.926  32.860   1.917
96569W        W68240  21.122  28.324  11.916
96570W        W68241  34.930  23.722   4.345
96571W        W68242  24.535  33.478  13.129
96572W        W68243  30.738  39.527  13.104
96573W        W68244   2.025   5.211   2.222
96574W        W68245  19.920  24.037  10.129
96575W        W68246   6.392  24.742  13.424
96576W        W68247  17.313   2.840  14.295
96577W        W68248  40.016   2.567   0.443
96578W        W68249  36.507  37.618  14.560
96579W        W68250   5.465   9.896   2.441
96580W        W68251  12.337  16.097  11.916
96581W        W68252  34.053  42.044  14.890
96582W        W68253  25.944  28.190  14.524
96583W        W68254  18.818  23.041  12.808
96584W        W68255  32.393  36.910  10.632
96585W        W68256  38.777  10.687   2.753
96586W        W68257  39.375  22.708   0.760
96587W        W68258  23.978  14.538   4.426
96588W        W68259  16.770   1.860  11.930
96589W        W68260   4.349  11.136   3.275
96590W        W68261  33.597  33.984   1.429
96591W        W68262  23.672  16.305   1.269
96592W        W68263  30.579  35.248   0.187
96593W        W68264  29.389   5.477   2.695
96594W        W68265   6.683   8.900   0.975
96595W        W68266   1.015  38.645   4.908
96596W        W68267  14.820  15.600   4.134
96597W        W68268  30.460  25.735   1.048
96598W        W68269  34.335  33.650  14.928
96599W        W68270   3.397  26.104   3.046
96600W        W68271  36.435  16.592  10.521
96601W        W68272  23.027  33.119  12.927
96602W        W68273  34.645  31.308   0.772
96603W        W68274  14.249  27.662  11.470
96604W        W68275  30.994  10.582  11.940
96605W        W68276  40.129  25.008  10.685
96606W        W68277  38.604  39.331   1.225
96607W        W68278  36.076  44.376   4.046
96608W        W68279  38.502  38.041  13.055
96609W        W68280  34.495  38.057   3.639
96610W        W68281  34.071  12.266  14.946
96611W        W68282  10.834  33.839   3.779
96612W        W68283  44.243  36.965  13.804
96613W        W68284   1.119  38.508  14.019
96614W        W68285  27.052  11.828  10.582
96615W        W68286  16.874  40.522  10.875
96616W        W68287  27.598  10.911   4.415
96617W        W68288  42.426   2.716  14.868
96618W        W68289  33.113  42.685   2.520
96619W        W68290  44.016  44.545  13.858
96620W        W68291  17.193  34.350   2.686
96621W        W68292   7.691  42.734   2.602
96622W        W68293  42.802  31.651  11.237
96623W        W68294   3.030  31.906   5.085
96624W        W68295  15.555  30.274  12.838
96625W        W68296  11.696  23.702  10.669
96626W        W68297  25.931   7.538  12.931
96627W        W68298  35.554  14.693   1.141
96628W        W68299   2.044  27.732  10.380
96629W        W68300  25.185   7.524  14.376
96630W        W68301  35.995  37.056  14.015
96631W        W68302  24.126  14.584  14.766
96632W        W68303   9.848  14.547   2.663
96633W        W68304   4.368  28.618   0.331
96634W        W68305  43.050  11.858  10.583
96635W        W68306   8.162  41.373  11.741
96636W        W68307  18.899  15.073  10.261
96637W        W68308  40.308  16.832  14.324
96638W        W68309  22.521  20.346   3.280
96639W        W68310  14.262   7.682  11.663
96640W        W68311   3.810  15.609   3.403
96641W        W68312  40.331   4.070  11.491
96642W        W68313  16.166   3.126   2.774
96643W        W68314  21.723  29.181   2.683
96644W        W68315  42.959  31.139   3.840
96645W        W68316  25.637   6.997   2.814
96646W        W68317  22.468  19.654   3.346
96647W        W68318  25.632  17.216   4.822
96648W        W68319  11.454  29.465   4.227
96649W        W68320   2.819  24.233   2.696
96650W        W68321  41.353   7.147   4.501
96651W        W68322  40.377  22.254   3.412
96652W        W68323  24.445  12.500   2.269
96653W        W68324  31.592  17.126  12.014
96654W        W68325  40.497   9.726  12.384
96655W        W68326  32.487  44.903   1.401
96656W        W68327  27.969  41.299  14.291
96657W        W68328  28.290  32.529  10.690
96658W        W68329  18.222  32.622   0.810
96659W        W68330  37.050  39.187   2.576
96660W        W68331  11.655  25.916   4.637
96661W        W68332  16.052  12.352   2.210
96662W        W68333  10.718  34.333   0.260
96663W        W68334  11.062  19.919   3.218
96664W        W68335  32.335  28.523   3.762
96665W        W68336   6.972   4.088  11.146
96666W        W68337  40.230  31.769   4.171
96667W        W68338  14.098  42.524  14.553
96668W        W68339   1.711   9.540   4.736
96669W        W68340  20.927  24.125  12.322
96670W        W68341  15.264  25.679   4.708
96671W        W68342  38.022  39.255   2.689
96672W        W68343  41.503   7.381  10.671
96673W        W68344  36.493  18.158  12.029
96674W        W68345  38.766   2.646   0.765
96675W        W68346   8.719  23.572  11.094
96676W        W68347  32.185  16.600  14.455
96677W        W68348  17.700  26.426  11.470
96678W        W68349   9.663   7.327   3.706
96679W        W68350  24.609  32.032   2.787
96680W        W68351   8.920   6.613   3.864
96681W        W68352  36.698   8.584   3.696
96682W        W68353   2.455  20.819  14.351
96683W        W68354  24.000  11.863   4.555
96684W        W68355  40.355   0.976  14.187
96685W        W68356  43.370  42.419   1.728
96686W        W68357  11.795  17.419  11.803
96687W        W68358  14.694  20.202  11.387
96688W        W68359  23.144  11.561   3.603
96689W        W68360   5.812  21.580  13.908
96690W        W68361  33.104  36.903  13.536
96691W        W68362  32.605  29.496  13.964
96692W        W68363  30.515   1.219   1.925
96693W        W68364  14.253  29.712  11.485
96694W        W68365  25.101  42.483   4.488
96695W        W68366  23.962  39.726  10.958
96696W        W68367  10.416  11.397   0.504
96697W        W68368  43.392  37.512  14.536
96698W        W68369   7.265  14.332  13.031
96699W        W68370  34.699  10.975  14.388
96700W        W68371  10.296  20.183   4.497
96701W        W68372  29.425  38.965   3.086
96702W        W68373  17.362  34.811  13.573
96703W        W68374  20.688  12.345   1.484
96704W        W68375   1.907   7.989   3.201
96705W        W68376  38.523  16.884   1.792
96706W        W68377  23.555  21.799   1.230
96707W        W68378   8.079  37.350   4.769
96708W        W68379  35.470  14.564   3.235
96709W        W68380   0.414  16.846  13.046
96710W        W68381  39.931  16.502  13.635
96711W        W68382  11.867  12.763  11.189
96712W        W68383  37.303   2.512  14.663
96713W        W68384   3.851  24.943  14.265
96714W        W68385  15.720  21.269  14.820
96715W        W68386  43.289  35.845  13.440
96716W        W68387   7.698  14.776   3.023
96717W        W68388  12.280  22.747  14.872
96718W        W68389  15.112   7.739  14.713
96719W        W68390  17.193  18.181   2.199
96720W        W68391  17.569  42.412   1.182
96721W        W68392  14.790  21.534  10.815
96722W        W68393  25.385  40.051  11.149
96723W        W68394  30.928  43.382  12.677
96724W        W68395   6.733   7.598   2.301
96725W        W68396  25.522  13.563   5.316
96726W        W68397  32.381   7.402  11.597
96727W        W68398   1.633   7.393  12.204
96728W        W68399  40.185  17.064   3.673
96729W        W68400  10.788   3.497   1.375
96730W        W68401  28.040  26.812   3.529
96731W        W68402  13.163  28.221   0.368
96732W        W68403  13.230  10.095  14.495
96733W        W68404  24.954   8.271   1.340
96734W        W68405  27.122  27.247  11.023
96735W        W68406   8.607  27.114   1.667
96736W        W68407  25.139  21.098  10.207
96737W        W68408  42.955  14.217  12.616
96738W        W68409  11.279  22.167  14.886
96739W        W68410  33.320  37.773   3.351
96740W        W68411  27.953  18.623  13.810
96741W        W68412  16.602  44.925   3.042
96742W        W68413  39.384  28.943  12.266
96743W        W68414  44.781  18.840   1.187
96744W        W68415  41.099  24.143  11.170
96745W        W68416  12.317  19.520  12.560
96746W        W68417  37.153  37.423   2.323
96747W        W68418  36.291   4.837  13.147
96748W        W68419   8.462  39.934  13.108
96749W        W68420  28.782   3.874  12.414
96750W        W68421  41.859   5.813   4.043
96751W        W68422  11.518  16.009  11.495
96752W        W68423   3.719   9.168  12.172
96753W        W68424  37.598  40.828   0.784
96754W        W68425  15.884  10.419   4.544
96755W        W68426  23.061  14.245   4.882
96756W        W68427   8.350   3.825   3.903
96757W        W68428  13.100  33.012   0.762
96758W        W68429  23.167  11.222  14.229
96759W        W68430  36.001  17.460  12.125
96760W        W68431  39.516  23.249  14.768
96761W        W68432  14.788  21.617   2.808
96762W        W68433  15.926  12.486   3.241
96763W        W68434   3.725  17.491   1.800
96764W        W68435  29.274  29.507  11.457
96765W        W68436  11.122   9.786   3.931
96766W        W68437  21.065   3.904   1.463
96767W        W68438  29.127  16.068   2.173
96768W        W68439  28.596  28.735  10.746
96769W        W68440  30.686  37.141  11.113
96770W        W68441  35.866  21.494  13.743
96771W        W68442   2.781   5.632  12.030
96772W        W68443   6.121   9.854   2.296
96773W        W68444  14.271  35.050   3.148
96774W        W68445  27.243   5.010  12.985
96775W        W68446  12.170   4.192   3.163
96776W        W68447  36.929  38.118  10.593
96777W        W68448   9.894  16.581   1.669
96778W        W68449  10.729   2.741   0.485
96779W        W68450  25.303   7.401   2.820
96780W        W68451  10.830  14.614  14.731
96781W        W68452  14.065   5.736   4.018
96782W        W68453   4.219   7.256   2.851
96783W        W68454   5.023  34.791  13.784
96784W        W68455  41.242  31.820   4.164
96785W        W68456   3.490  30.988   4.801
96786W        W68457  17.968  17.014  12.475
96787W        W68458  17.451  16.704  12.098
96788W        W68459   6.173  27.272   2.264
96789W        W68460   4.812  19.588   4.616
96790W        W68461  15.663  30.957  14.743
96791W        W68462   2.424  36.671  10.816
96792W        W68463  34.555  13.803   2.583
96793W        W68464  36.578  13.578   4.191
96794W        W68465  34.548  37.978  13.869
96795W        W68466  34.093  27.226   2.260
96796W        W68467  16.582  39.021   4.548
96797W        W68468  10.222  33.788  14.868
96798W        W68469  33.698  39.010  12.942
96799W        W68470  15.690  31.164   0.951
96800W        W68471  18.504  11.396   3.328
96801W        W68472  11.814  35.469  14.062
96802W        W68473  39.974  23.564   3.456
96803W        W68474  31.110  37.228  14.258
96804W        W68475  28.947  33.100   4.379
96805W        W68476  25.430  41.873   3.097
96806W        W68477  30.768  21.056  14.064
96807W        W68478  11.840   1.524   1.127
96808W        W68479  43.037  17.073   0.134
96809W        W68480  37.878  18.661   5.055
96810W        W68481  35.813   5.423   3.621
96811W        W68482  43.825  40.361  13.552
96812W        W68483   3.227  42.591  10.764
96813W        W68484  30.998  21.062   0.494
96814W        W68485   9.588  16.907  13.084
96815W        W68486  43.036   7.830   1.481
96816W        W68487   1.429  21.239   4.476
96817W        W68488  18.830  10.461   0.822
96818W        W68489  42.556  28.893   4.181
96819W        W68490  11.172  41.246  10.792
96820W        W68491  19.592  26.226   0.983
96821W        W68492  30.402  40.357   2.387
96822W        W68493  37.878   1.951   3.217
96823W        W68494  31.902  20.118   4.458
96824W        W68495  20.202  33.007  10.483
96825W        W68496  40.339  36.472  14.930
96826W        W68497  44.371  35.923   0.007
96827W        W68498  24.263  41.870  14.774
96828W        W68499   7.656  16.681   4.103
96829W        W68500   3.207   1.369  12.487
96830W        W68501  42.282  42.258   0.308
96831W        W68502  28.925   2.318   3.285
96832W        W68503  20.003   1.013  11.446
96833W        W68504  21.911   3.606  14.453
96834W        W68505  40.268  40.500  14.951
96835W        W68506  20.033  15.858   5.029
96836W        W68507  42.829  14.576   9.963
96837W        W68508  16.813  41.415   3.763
96838W        W68509  25.675  40.926   2.665
96839W        W68510  28.114   9.309  10.248
96840W        W68511  25.945  11.277  14.138
96841W        W68512   7.288  24.192  12.528
96842W        W68513  14.038   4.214   3.590
96843W        W68514   2.708   0.942  13.753
96844W        W68515  25.134  16.347  12.038
96845W        W68516  30.696   3.383  11.600
96846W        W68517   5.830  37.585   0.218
96847W        W68518  14.969  34.981  13.734
96848W        W68519  22.506  11.878   1.904
96849W        W68520  36.880  13.329  12.862
96850W        W68521  17.250  12.351   3.694
96851W        W68522  43.826  14.860   3.434
96852W        W68523  17.032  43.325  13.766
96853W        W68524  27.603  33.787  12.578
96854W        W68525  34.084  42.432   1.652
96855W        W68526  29.383   2.843  11.090
96856W        W68527  35.136  31.627  13.465
96857W        W68528  14.505   1.623   1.171
96858W        W68529   0.291  22.658  10.998
96859W        W68530  26.652  43.396  12.944
96860W        W68531   1.362  19.285  14.923
96861W        W68532  14.897   2.053  10.528
96862W        W68533  37.058  19.166   4.651
96863W        W68534  42.497  37.172  11.534
96864W        W68535  22.873  26.420  14.722
96865W        W68536  44.588  32.195   0.052
96866W        W68537   9.185   7.566   1.450
96867W        W68538  26.770   1.207   3.599
96868W        W68539  16.980  22.524   2.734
96869W        W68540  13.744  41.069  11.255
96870W        W68541   9.180   1.314   2.407
96871W        W68542  15.697  23.786  11.650
96872W        W68543  24.043  18.276  14.996
96873W        W68544  35.851   5.648   2.008
96874W        W68545   0.095  25.536   0.238
96875W        W68546  43.158  43.924   9.988
96876W        W68547   8.447  40.866  13.869
96877W        W68548  37.672   9.029  11.906
96878W        W68549   1.233  38.085  12.147
96879W        W68550  41.207  38.955   1.313
96880W        W68551  44.283  27.974  12.476
96881W        W68552   0.227  34.965   1.449
96882W        W68553   0.003  40.509   3.749
96883W        W68554   7.308   0.347   2.899
96884W        W68555  43.290  28.467   3.173
96885W        W68556  29.301  29.000   4.179
96886W        W68557   7.408   5.212   1.498
96887W        W68558  41.937  27.107  14.091
96888W        W68559  38.447  30.476   4.759
96889W        W68560  39.280   8.393   1.260
96890W        W68561  31.672  40.429   3.827
96891W        W68562  15.638  40.348   0.777
96892W        W68563  35.742  23.228   3.230
96893W        W68564  19.595  16.697   4.836
96894W        W68565  36.320  30.196   1.391
96895W        W68566   1.209   7.421   4.769
96896W        W68567   7.018   6.743  11.572
96897W        W68568  19.002  14.220  13.600
96898W        W68569  25.765  25.843  11.501
96899W        W68570  20.073  18.933   3.092
96900W        W68571   6.107  10.344  12.055
96901W        W68572   9.442  26.165   2.628
96902W        W68573  15.590  38.792  12.466
96903W        W68574   3.045  34.583   1.710
96904W        W68575  28.565  17.321  14.650
96905W        W68576  26.938  40.160   4.224
96906W        W68577  26.995  13.003   1.296
96907W        W68578  40.204  16.129   1.238
96908W        W68579  18.064  36.908   2.746
96909W        W68580  11.788   1.419  12.972
96910W        W68581  32.920  41.038   3.233
96911W        W68582  44.434  21.224   1.247
96912W        W68583   3.689   5.748   1.924
96913W        W68584  43.840  22.200   0.290
96914W        W68585  43.587   2.062  14.336
96915W        W68586  22.675  14.689  12.540
96916W        W68587  36.037  36.776   5.433
96917W        W68588  26.921  42.138   1.768
96918W        W68589   9.314  44.994   0.290
96919W        W68590  23.260  44.801  11.143
96920W        W68591  13.062  33.995  10.711
96921W        W68592  14.406   8.641   2.248
96922W        W68593  12.363   0.940  14.561
96923W        W68594  30.080   3.582  13.413
96924W        W68595  13.758  21.944  11.183
96925W        W68596  23.999  27.184   2.787
96926W        W68597   0.822  30.628  13.323
96927W        W68598  11.781  38.188  13.355
96928W        W68599   4.481  44.910  11.590
96929W        W68600  14.215  15.765   2.324
96930W        W68601  30.484  19.316  13.140
96931W        W68602  17.345  12.743  12.499
96932W        W68603   0.034  20.644   3.678
96933W        W68604  20.186   9.346   3.857
96934W        W68605   5.114  17.666   4.103
96935W        W68606   4.873  41.387  11.880
96936W        W68607  38.983  15.380   4.802
96937W        W68608  10.950  17.673   0.272
96938W        W68609   0.481  41.744  13.434
96939W        W68610  31.805   3.401   3.254
96940W        W68611  40.538  21.117  13.104
96941W        W68612  35.903  13.204   4.676
96942W        W68613  18.645  20.789  14.323
96943W        W68614  19.561   3.943   4.012
96944W        W68615   1.857  10.871   4.253
96945W        W68616   6.508  19.170   2.757
96946W        W68617   2.891  40.568   0.343
96947W        W68618  27.013  27.434  12.447
96948W        W68619  20.259  36.897   4.679
96949W        W68620   4.554  37.507  12.687
96950W        W68621  28.731   9.851   1.369
96951W        W68622  40.768  35.550  11.255
96952W        W68623  21.113  31.387  13.517
96953W        W68624  15.833   4.118  10.454
96954W        W68625  36.027  31.271  10.428
96955W        W68626  43.597  12.634  14.493
96956W        W68627  10.244  25.166   3.175
96957W        W68628  42.865  39.443  13.411
96958W        W68629  31.890  15.538  13.103
96959W        W68630  27.945  41.871   2.027
96960W        W68631  39.906  10.418   4.676
96961W        W68632  21.550  17.710  11.091
96962W        W68633   6.159   7.410  10.721
96963W        W68634  15.827  13.422   4.237
96964W        W68635  37.312  28.059   0.593
96965W        W68636  12.946  13.511   2.523
96966W        W68637  29.010  18.531  12.386
96967W        W68638  42.411  19.734   1.356
96968W        W68639  22.729   5.409   4.236
96969W        W68640  25.685  36.607   3.410
96970W        W68641  28.240  20.246   1.345
96971W        W68642   1.972  20.176  10.265
96972W        W68643  26.972  28.604   3.169
96973W        W68644  32.137  29.354  11.367
96974W        W68645   2.275  12.260   0.861
96975W        W68646  20.240   5.459   1.399
96976W        W68647  44.840  37.070  11.514
96977W        W68648  35.974   9.974  11.572
96978W        W68649  10.638  30.113  11.591
96979W        W68650  37.323   9.626  13.061
96980W        W68651  43.926  16.220   4.748
96981W        W68652  11.902  14.837   2.898
96982W        W68653  22.560  27.912   1.850
96983W        W68654  44.735  16.559   4.731
96984W        W68655  39.456   0.481   0.969
96985W        W68656  44.533  12.129  10.798
96986W        W68657  31.844  28.466   5.101
96987W        W68658  36.984  22.955   4.946
96988W        W68659  29.194  40.495   4.652
96989W        W68660  42.345  22.490  14.763
96990W        W68661  43.365   7.105   0.245
96991W        W68662  35.893  39.626  14.821
96992W        W68663   3.370  11.410   1.215
96993W        W68664  20.573  39.770   3.733
96994W        W68665   6.152   7.637   3.377
96995W        W68666  22.143   3.975  12.796
96996W        W68667  35.092   9.883  11.329
96997W        W68668  23.269  36.086  13.334
96998W        W68669   8.704  11.171  11.987
96999W        W68670  27.055  37.799   1.375
97000W        W68671   6.160  26.599   3.647
97001W        W68672  16.100  21.075  11.225
97002W        W68673  21.740  40.097  11.468
97003W        W68674  23.533  15.092  11.625
97004W        W68675  43.522  33.267  12.169
97005W        W68676  17.119  32.097  13.926
97006W        W68677  37.844  24.203   1.728
97007W        W68678  33.989  19.655  12.076
97008W        W68679  31.654  38.609  14.419
97009W        W68680  41.724  34.971   1.322
97010W        W68681  37.997  37.922   0.315
97011W        W68682  17.890  40.426  10.960
97012W        W68683  31.553   3.714   2.672
97013W        W68684  16.111  10.224   1.865
97014W        W68685  16.590  43.577   3.199
97015W        W68686  37.642  29.219  13.980
97016W        W68687  33.810  29.721   4.678
97017W        W68688  44.387  44.409   0.685
97018W        W68689   0.444  18.705   4.591
97019W        W68690   1.803  21.768   5.075
97020W        W68691  33.086  42.808   3.637
97021W        W68692  36.351  10.645  13.064
97022W        W68693  32.478  43.031   1.363
97023W        W68694  35.131   1.434   4.112
97024W        W68695   6.932  14.889   1.320
97025W        W68696  31.504  18.621  14.334
97026W        W68697  37.467  17.336   0.254
97027W        W68698  39.961   8.825  14.558
97028W        W68699   9.495   7.270  14.732
97029W        W68700  42.043  17.456  12.340
97030W        W68701  38.909  28.933   2.958
97031W        W68702  21.657  25.425  13.015
97032W        W68703  28.197  20.819   3.238
97033W        W68704  29.991  25.631   3.315
97034W        W68705   6.411  23.529   1.376
97035W        W68706   0.307  43.678  14.125
97036W        W68707   1.715  35.619   1.142
97037W        W68708  21.713   6.861  11.391
97038W        W68709   9.019  19.727  13.545
97039W        W68710  36.980  38.845   4.079
97040W        W68711   6.857  33.358   3.415
97041W        W68712  25.936   0.688  14.041
97042W        W68713  13.051  27.644  12.089
97043W        W68714  31.236  22.560   1.190
97044W        W68715  41.065  25.647  12.045
97045W        W68716   8.519   9.271   3.335
97046W        W68717  14.163  10.899   3.067
97047W        W68718   0.315  16.853   1.923
97048W        W68719  36.869  27.881  14.745
97049W        W68720  25.161  13.280  11.367
97050W        W68721   9.356  19.180   1.797
97051W        W68722  36.874  34.880   3.317
97052W        W68723  32.884  24.529   3.646
97053W        W68724  27.613   9.217   2.656
97054W        W68725   9.427   7.294   3.245
97055W        W68726  27.929   1.741   0.255
97056W        W68727  20.764   9.383   2.715
97057W        W68728  37.348   8.762   4.636
97058W        W68729   8.217  33.818  12.141
97059W        W68730  21.543  12.089   2.317
97060W        W68731  37.829  28.201  14.786
97061W        W68732  41.862   8.756   1.951
97062W        W68733   5.501  18.439   3.803
97063W        W68734  34.791  18.233   1.009
97064W        W68735  24.791  44.782  11.136
97065W        W68736  15.346  24.429   0.350
97066W        W68737  22.107  23.878  13.243
97067W        W68738  43.802  22.000  14.795
97068W        W68739  43.085  12.238   4.711
97069W        W68740   1.331  41.442  13.840
97070W        W68741  28.947  30.848   1.491
97071W        W68742  10.936  30.366  12.907
97072W        W68743   0.037  11.555   4.112
97073W        W68744   2.218   9.087   3.736
97074W        W68745   2.670   0.263   0.395
97075W        W68746  21.422  33.876  13.907
97076W        W68747  26.069  13.896   2.712
97077W        W68748  21.880   0.934   3.184
97078W        W68749   9.268  34.748  11.095
97079W        W68750  37.128  21.026   4.714
97080W        W68751   2.917   2.692   1.773
97081W        W68752  16.905   4.328   4.189
97082W        W68753   0.514  24.093  13.051
97083W        W68754  12.167  13.091  11.927
97084W        W68755  40.926  25.808   3.193
97085W        W68756  38.802  14.429   4.010
97086W        W68757  31.890  20.096  14.813
97087W        W68758  26.266  16.282   4.574
97088W        W68759  27.789  14.231   4.995
97089W        W68760  36.909  37.884  10.142
97090W        W68761  17.350  15.760  14.890
97091W        W68762  15.753  38.578   4.244
97092W        W68763  11.267   0.820  12.496
97093W        W68764  14.215   2.752   0.379
97094W        W68765   4.245  35.397   2.010
97095W        W68766  17.138  27.695   2.658
97096W        W68767  32.502  22.152  14.600
97097W        W68768  15.037  22.727  12.539
97098W        W68769  20.976  10.296   2.475
97099W        W68770   1.462  37.313   3.580
97100W        W68771  18.503  30.375   5.134
97101W        W68772  24.720   2.958  14.346
97102W        W68773  39.565  30.157   1.902
97103W        W68774   9.016   9.406   3.324
97104W        W68775  29.329  32.438   2.386
97105W        W68776  37.581  25.129   4.661
97106W        W68777  31.598  18.111   4.664
97107W        W68778  17.328  12.887  14.992
97108W        W68779   6.908   2.646   0.962
97109W        W68780  35.294  44.375  12.385
97110W        W68781  18.344  22.203   0.331
97111W        W68782  37.307  23.740   2.751
97112W        W68783  12.078   1.816  12.800
97113W        W68784   9.011  12.618   2.590
97114W        W68785  14.928  31.196   3.354
97115W        W68786   7.363  27.112   3.896
97116W        W68787  24.742  28.584   4.242
97117W        W68788   1.185   7.580   2.240
97118W        W68789  35.821   8.692  14.675
97119W        W68790  26.266   7.737  10.166
97120W        W68791  25.858  30.311   0.749
97121W        W68792  44.865  10.114   0.401
97122W        W68793  17.757   7.486  13.791
97123W        W68794  33.573  13.855   2.435
97124W        W68795  15.829  16.219  12.627
97125W        W68796  22.360  16.299   0.422
97126W        W68797  37.921  37.099  11.507
97127W        W68798  20.026  23.114  14.155
97128W        W68799   9.293  20.329   4.629
97129W        W68800  26.228   7.366   3.799
97130W        W68801  43.509  33.993   0.844
97131W        W68802  37.385   9.670   4.617
97132W        W68803  15.711  34.125   2.247
97133W        W68804  19.601  21.303   3.008
97134W        W68805   7.323  18.199  12.492
97135W        W68806  12.778  37.736   1.651
97136W        W68807  34.330  18.226   2.839
97137W        W68808   6.898  32.157   2.388
97138W        W68809   1.716   2.673   4.876
97139W        W68810  30.606  12.877   1.691
97140W        W68811  11.238  31.983  13.569
97141W        W68812  41.557  14.916   4.567
97142W        W68813   9.139   2.251   2.432
97143W        W68814  27.216   3.818   3.780
97144W        W68815  26.771  39.043  11.150
97145W        W68816  39.424  31.937  12.025
97146W        W68817   4.602  18.886   4.061
97147W        W68818  25.587  29.246   2.192
97148W        W68819  41.395  40.706  10.209
97149W        W68820  13.336   6.266  11.759
97150W        W68821  14.878  28.447  11.619
97151W        W68822  34.852   3.180   5.042
97152W        W68823   1.643  20.780   4.587
97153W        W68824   6.598  30.671   1.354
97154W        W68825  12.945  37.595  12.550
97155W        W68826  44.820   8.280   2.753
97156W        W68827  21.604  23.757   2.696
97157W        W68828  17.169  26.486  13.632
97158W        W68829  39.718  26.419   1.772
97159W        W68830  11.782  12.674  13.399
97160W        W68831  39.540  44.086  14.768
97161W        W68832  30.231  39.594   3.043
97162W        W68833  43.343  33.053  12.596
97163W        W68834  32.162   1.415  14.016
97164W        W68835  26.194  26.998  11.138
97165W        W68836   2.302  30.272  13.004
97166W        W68837   0.452   1.706   3.596
97167W        W68838   7.893  43.904  11.887
97168W        W68839   5.113  10.338   2.406
97169W        W68840   6.972  13.728  12.411
97170W        W68841  13.339  25.484   0.558
97171W        W68842   8.403  16.165  10.928
97172W        W68843  13.206  19.660   1.519
97173W        W68844   4.453  37.394   3.294
97174W        W68845   2.884  39.860  14.871
97175W        W68846  43.428  25.235  14.371
97176W        W68847  26.799  39.314  11.937
97177W        W68848   0.475   4.789   1.222
97178W        W68849  39.450  38.376   1.440
97179W        W68850  34.608  23.622  11.894
97180W        W68851  17.957  35.497  11.676
97181W        W68852   4.131  35.804  13.238
97182W        W68853  17.240  16.058   0.345
97183W        W68854  25.382  39.955  14.649
97184W        W68855  28.564   5.916   4.578
97185W        W68856  11.114  14.593   4.547
97186W        W68857   7.762  17.766  13.464
97187W        W68858  22.556  26.708  14.249
97188W        W68859   3.609   7.788   4.657
97189W        W68860  36.747  22.687   4.090
97190W        W68861  32.959  10.940  11.135
97191W        W68862  11.595   1.812   3.089
97192W        W68863  14.235  26.069  12.954
97193W        W68864  36.035  24.967  13.300
97194W        W68865  40.177  44.777  12.037
97195W        W68866   2.271  17.510   2.288
97196W        W68867   0.876  16.729   0.795
97197W        W68868  23.778  27.948   3.243
97198W        W68869  22.177  26.750   4.519
97199W        W68870  20.159  11.426  13.053
97200W        W68871  44.273   7.269   3.048
97201W        W68872   5.700  38.925  11.568
97202W        W68873   9.137   7.822   0.513
97203W        W68874  19.810  43.368   1.758
97204W        W68875  28.987  11.592  14.596
97205W        W68876  18.645  39.103  13.835
97206W        W68877  30.933  18.692   0.668
97207W        W68878  39.567  27.682   4.613
97208W        W68879  34.404   7.847  13.545
97209W        W68880   4.397  37.099  10.909
97210W        W68881  21.070  23.183   1.443
97211W        W68882  29.405  23.193   0.241
97212W        W68883  36.442  21.685   4.652
97213W        W68884  22.222  42.888   0.658
97214W        W68885  35.045  16.026  11.998
97215W        W68886  33.821  20.024   2.824
97216W        W68887  43.332   3.910  11.452
97217W        W68888  44.835  29.662  14.252
97218W        W68889   6.710   2.466   4.712
97219W        W68890   7.821  28.854   3.886
97220W        W68891  28.412  26.904  11.174
97221W        W68892  10.327  37.086  13.010
97222W        W68893   1.357  11.652   4.099
97223W        W68894  18.752  25.705   4.335
97224W        W68895  38.551  37.824  14.011
97225W        W68896  43.907  15.139   0.914
97226W        W68897  24.989  29.002  10.852
97227W        W68898   9.673   9.818   0.254
97228W        W68899  12.244  10.130  11.677
97229W        W68900  16.563  34.684   3.258
97230W        W68901  35.899   5.794   2.512
97231W        W68902  15.036  22.534   2.266
97232W        W68903  20.628   1.313  14.753
97233W        W68904  15.063  43.140  11.599
97234W        W68905  19.307   4.833  11.220
97235W        W68906  41.812  33.674  11.204
97236W        W68907   9.307  35.364   3.106
97237W        W68908  16.723  41.410  11.922
97238W        W68909   7.591  20.990   0.327
97239W        W68910  42.300  37.292   4.642
97240W        W68911  44.872  15.875   1.210
97241W        W68912  28.602   6.508   1.832
97242W        W68913  39.384  29.644   1.933
97243W        W68914  36.404   6.283   4.475
97244W        W68915  27.488  23.221  10.682
97245W        W68916  20.252  26.548   0.876
97246W        W68917  13.827  32.063  14.835
97247W        W68918  17.139  37.992  10.623
97248W        W68919  44.032  34.318   2.385
97249W        W68920  17.782  42.137  14.827
97250W        W68921  33.648  23.987   4.566
97251W        W68922   0.820  40.978   0.650
97252W        W68923  42.880  30.779  10.702
97253W        W68924  13.920  40.273   2.280
97254W        W68925  33.937  30.147   4.927
97255W        W68926  35.370  44.869  12.424
97256W        W68927  38.788  27.143  11.202
97257W        W68928   3.393  27.677   2.085
97258W        W68929  23.041  35.038  12.539
97259W        W68930   7.824  18.081   4.681
97260W        W68931  30.909  21.588   2.638
97261W        W68932   4.584   3.928  14.352
97262W        W68933  21.718  38.963  11.402
97263W        W68934   0.021   4.322  11.553
97264W        W68935  15.657  25.737  11.028
97265W        W68936  21.743  29.970   3.302
97266W        W68937   4.943  14.173  12.436
97267W        W68938  16.806  40.514  13.843
97268W        W68939  13.612   9.605   4.255
97269W        W68940  20.550   1.864   2.728
97270W        W68941  16.557  23.671  11.234
97271W        W68942  43.559  21.260  11.674
97272W        W68943   3.118   4.711  10.618
97273W        W68944   7.801  26.224  11.631
97274W        W68945  19.200  36.479  14.426
97275W        W68946   1.186   5.118   4.184
97276W        W68947   3.408  34.369  10.658
97277W        W68948  17.723  25.166   0.816
97278W        W68949   8.251  16.226  12.927
97279W        W68950  34.783  14.081  11.904
97280W        W68951  18.811  34.393   1.886
97281W        W68952   0.705  23.643  13.288
97282W        W68953  10.981   7.357  12.982
97283W        W68954  10.673  16.302   3.672
97284W        W68955  12.292  36.921   3.107
97285W        W68956  24.653  18.654  12.164
97286W        W68957  42.463  35.789  11.512
97287W        W68958  23.697   9.888   1.667
97288W        W68959   8.388  16.808  12.501
97289W        W68960  21.683  27.477  10.720
97290W        W68961  22.608  26.988   2.093
97291W        W68962   8.326  27.467  14.358
97292W        W68963   0.426   8.348  12.549
97293W        W68964  17.668  36.645  12.022
97294W        W68965  19.501  40.882   3.573
97295W        W68966   6.687  37.792   3.296
97296W        W68967  28.961  30.587  11.073
97297W        W68968  36.907  37.157  12.390
97298W        W68969  43.068  12.155  14.106
97299W        W68970  14.818  42.014  14.764
97300W        W68971  12.791  22.725  12.632
97301W        W68972  21.710  10.228  11.056
97302W        W68973  24.834   1.308   3.310
97303W        W68974   2.751  42.518   0.814
97304W        W68975  42.471  34.374   0.041
97305W        W68976   7.405   3.276  11.658
97306W        W68977  33.160  32.557   0.955
97307W        W68978  34.384   8.927   1.898
97308W        W68979  16.098  22.797  13.978
97309W        W68980  28.491  42.451  12.420
97310W        W68981  31.096  33.100  11.735
97311W        W68982  44.746  35.837  13.785
97312W        W68983  19.528   6.119   4.082
97313W        W68984  28.610  34.411  12.002
97314W        W68985  23.326  17.815   1.266
97315W        W68986  34.187   5.413  13.056
97316W        W68987  16.836  42.448   0.798
97317W        W68988  28.882  11.147  12.813
97318W        W68989  25.600  18.822   4.888
97319W        W68990   7.491  41.380  10.752
97320W        W68991   9.752  17.834   4.638
97321W        W68992   0.171  30.103   3.895
97322W        W68993  14.606   1.895  11.278
97323W        W68994   2.519   7.842   3.657
97324W        W68995  18.818  30.164  12.814
97325W        W68996   1.392  22.513  12.780
97326W        W68997  25.988  13.424   3.592
97327W        W68998  29.327  13.752  13.021
97328W        W68999  13.743  35.144  11.223
97329W        W69000  37.095  11.619  14.974
97330W        W69001  11.890  43.836  13.389
97331W        W69002   6.783  38.912  10.658
97332W        W69003  18.518  33.428   2.776
97333W        W69004  43.857  43.029   2.361
97334W        W69005  15.288  23.273   3.382
97335W        W69006  28.085   7.105   2.350
97336W        W69007  19.135  36.071   4.115
97337W        W69008  15.798  33.850  14.266
97338W        W69009  39.547  31.457   2.662
97339W        W69010  42.663   3.299  13.518
97340W        W69011  13.269  26.353  11.487
97341W        W69012  25.740  19.000   0.183
97342W        W69013   1.350  11.525  11.060
97343W        W69014  15.220  17.065  12.014
97344W        W69015   8.809  12.261  11.909
97345W        W69016  42.269  10.143   4.182
97346W        W69017  32.447  29.056   4.670
97347W        W69018  16.001  13.350   2.371
97348W        W69019  43.850  42.190  12.890
97349W        W69020  19.269  12.844   1.270
97350W        W69021   7.558   0.312  14.548
97351W        W69022   3.726  40.810   1.845
97352W        W69023   8.326  13.397   2.098
97353W        W69024  32.304  25.508  13.402
97354W        W69025  14.542  40.924  12.486
97355W        W69026  35.076  42.800   4.388
97356W        W69027   4.251   4.763  14.320
97357W        W69028  19.657   2.844   0.093
97358W        W69029  42.615  17.826   4.942
97359W        W69030  18.111   6.327  11.809
97360W        W69031   2.341  41.111  14.689
97361W        W69032  17.263  16.822   1.547
97362W        W69033  29.724  15.031   1.739
97363W        W69034  25.630   7.856   1.945
97364W        W69035  18.834  33.432   4.241
97365W        W69036   2.574  12.827   4.505
97366W        W69037   9.326  10.363  14.371
97367W        W69038  41.374  12.177   0.930
97368W        W69039   3.070  23.134  10.357
97369W        W69040  13.649  12.317  14.293
97370W        W69041  34.581  18.308   1.497
97371W        W69042  41.800   7.902   1.740
97372W        W69043  41.812  28.212  12.505
97373W        W69044   3.195  22.805   3.836
97374W        W69045  10.294  15.335  11.126
97375W        W69046  19.153  42.738   3.768
97376W        W69047  20.284   1.128  10.462
97377W        W69048  16.115  22.725   1.116
97378W        W69049  24.878  33.842   1.586
97379W        W69050   0.353  22.199  14.637
97380W        W69051  32.406   7.108  13.567
97381W        W69052   2.303  17.305  11.154
97382W        W69053  42.058   5.976  13.032
97383W        W69054  17.172  21.750   0.382
97384W        W69055  28.078   0.272   2.912
97385W        W69056  38.997   5.670   3.617
97386W        W69057   5.721  40.024  10.690
97387W        W69058  32.561  39.919  11.335
97388W        W69059  39.276  21.041   4.113
97389W        W69060  10.255  17.292   3.324
97390W        W69061  18.568  14.661   2.774
97391W        W69062  18.453  14.789   1.375
97392W        W69063   0.560  28.522  14.422
97393W        W69064  40.828  31.705  12.921
97394W        W69065  22.293  10.964  14.012
97395W        W69066  16.114  13.776   0.169
97396W        W69067  15.812  39.867   2.159
97397W        W69068  12.442  16.507   2.667
97398W        W69069  20.063  28.579   0.820
97399W        W69070  18.857  13.793  12.866
97400W        W69071  21.578  37.986  11.285
97401W        W69072   6.973  15.184   3.295
97402W        W69073   4.503  42.973   2.012
97403W        W69074  31.701   6.367   5.011
97404W        W69075  25.360  23.590  14.094
97405W        W69076  27.513  26.229   2.384
97406W        W69077  26.999  29.178   0.270
97407W        W69078  34.903  42.156  13.520
97408W        W69079  20.740  43.899  13.583
97409W        W69080  23.096  25.068  13.595
97410W        W69081  27.557  44.938   3.732
97411W        W69082   8.790  26.655   0.855
97412W        W69083   3.940  22.619   5.041
97413W        W69084  24.460  42.944   1.154
97414W        W69085  14.083  23.568   0.210
97415W        W69086  30.451   7.350  13.584
97416W        W69087  18.188  38.026  14.292
97417W        W69088  43.921  15.640  10.536
97418W        W69089  11.631   0.499  12.895
97419W        W69090  43.436  42.310   0.346
97420W        W69091  13.856  40.404   1.445
97421W        W69092   8.215  12.592   0.457
97422W        W69093  19.553  27.175   2.454
97423W        W69094   4.617  41.979   4.463
97424W        W69095  14.764  26.689   2.892
97425W        W69096  10.680   1.972  13.952
97426W        W69097  24.133  24.129   1.796
97427W        W69098  44.406  27.708  13.399
97428W        W69099   7.258   9.862  14.506
97429W        W69100   8.101  10.258  10.507
97430W        W69101  41.549  16.576   3.627
97431W        W69102  20.772  16.188  13.890
97432W        W69103  34.312  35.858  11.068
97433W        W69104  20.050   6.755  13.282
97434W        W69105  40.982  41.080  14.030
97435W        W69106   0.575  13.274   2.673
97436W        W69107  17.165  39.513   1.718
97437W        W69108  15.816  27.250  10.873
97438W        W69109  35.664  36.063   2.408
97439W        W69110   7.218  31.702   4.701
97440W        W69111  39.102  13.996  12.074
97441W        W69112  26.303  10.578  14.738
97442W        W69113   5.816  28.140   1.684
97443W        W69114   2.260  21.647   3.837
97444W        W69115   6.342  31.925   4.992
97445W        W69116  26.970  29.235   1.788
97446W        W69117  33.328  27.122   3.496
97447W        W69118  25.514  43.771   1.427
97448W        W69119  34.661  37.212   5.361
97449W        W69120  37.355  31.181   3.295
97450W        W69121  40.255  24.981   2.703
97451W        W69122  44.184  22.411   0.673
97452W        W69123   1.239  41.988  11.074
97453W        W69124  33.699  17.615   3.129
97454W        W69125  23.782  29.489   4.671
97455W        W69126  12.423   4.629  11.405
97456W        W69127  37.469  31.427   4.926
97457W        W69128  26.948  27.540   0.730
97458W        W69129  11.302  32.676  12.901
97459W        W69130  12.138   9.729  10.723
97460W        W69131  22.074  14.671   4.148
97461W        W69132  35.033  44.090   1.144
97462W        W69133  35.256   9.909   3.026
97463W        W69134  11.631  13.697   4.473
97464W        W69135  43.667  37.772   2.690
97465W        W69136  24.159  43.016  11.160
97466W        W69137   7.637  10.176  10.705
97467W        W69138  16.232  26.735  12.102
97468W        W69139  28.245  24.045   2.806
97469W        W69140  31.244  19.434  11.604
97470W        W69141   6.722  18.717   2.897
97471W        W69142  10.230  25.170   3.861
97472W        W69143  23.164  12.624  13.476
97473W        W69144   3.990  25.423   4.893
97474W        W69145  17.960  15.732   1.423
97475W        W69146  26.507   1.301  11.656
97476W        W69147   0.935   7.667  14.843
97477W        W69148  33.107  39.983   2.202
97478W        W69149  39.500  37.621   3.293
97479W        W69150  27.730  23.743   4.998
97480W        W69151  13.056  26.357   4.529
97481W        W69152  11.215  15.275   4.261
97482W        W69153  24.500  39.366  11.597
97483W        W69154  33.587  22.320   2.383
97484W        W69155  32.073   2.449   2.541
97485W        W69156  17.240  37.410  10.461
97486W        W69157   9.549  41.033  12.351
97487W        W69158  26.510  11.698   3.449
97488W        W69159  37.849  25.047   1.957
97489W        W69160   1.295   4.251  14.761
97490W        W69161  25.438  17.320   4.331
97491W        W69162  14.380  38.228   4.687
97492W        W69163  15.225  39.864  14.697
97493W        W69164  29.542  31.704  10.633
97494W        W69165   1.178  23.340   3.632
97495W        W69166  21.298  16.495  12.564
97496W        W69167  42.324  34.044  11.605
97497W        W69168  41.524  28.490   1.649
97498W        W69169  31.644  25.958   2.253
97499W        W69170  30.959   9.344   2.295
97500W        W69171  31.264  17.252   0.350
97501W        W69172   6.521  27.515   3.808
97502W        W69173  27.423  10.166  12.395
97503W        W69174  44.152  24.095   1.272
97504W        W69175   8.215  11.619  14.213
97505W        W69176  21.391  37.559   0.416
97506W        W69177  11.214   4.888  12.942
97507W        W69178   6.672  13.339   0.260
97508W        W69179  12.093  34.801   2.891
97509W        W69180  20.523  24.438   4.993
97510W        W69181  26.088  13.529  10.650
97511W        W69182  15.062  19.543   1.730
97512W        W69183  17.928   6.333  13.177
97513W        W69184  24.241  13.666   0.687
97514W        W69185  24.461   0.784   4.558
97515W        W69186  23.641   8.205  14.946
97516W        W69187  34.624  43.377   3.668
97517W        W69188  18.320  14.238   2.239
97518W        W69189  16.267  12.656   2.873
97519W        W69190  15.081  36.792   0.378
97520W        W69191  27.945   2.869   3.353
97521W        W69192  40.474  37.298   1.849
97522W        W69193  43.344  25.232  13.391
97523W        W69194  32.566  39.103   2.608
97524W        W69195  33.069  10.140   0.910
97525W        W69196  39.781  15.261   1.733
97526W        W69197  14.462  37.996   1.145
97527W        W69198  18.744  43.781  14.764
97528W        W69199  23.616   3.990  11.170
97529W        W69200  24.981  40.665  12.333
97530W        W69201   9.783  11.867   3.166
97531W        W69202  34.624  23.527   0.425
97532W        W69203   0.515  20.928  12.846
97533W        W69204  43.059  31.539  11.688
97534W        W69205  15.780  36.282  14.392
97535W        W69206  40.787  42.322   2.654
97536W        W69207  25.984   0.936   4.716
97537W        W69208  18.631  38.988   0.765
97538W        W69209  40.292   9.200  10.968
97539W        W69210  23.045  23.539  13.035
97540W        W69211  22.219  22.721  11.476
97541W        W69212  28.954  14.859  13.448
97542W        W69213  33.917   3.864  11.519
97543W        W69214   9.594  23.743   1.430
97544W        W69215   0.568   5.685  10.992
97545W        W69216  11.434  39.246   1.734
97546W        W69217  17.112  42.346  12.221
97547W        W69218  35.075  43.494  14.051
97548W        W69219  22.634  41.831   1.502
97549W        W69220   6.362  19.410  13.830
97550W        W69221  31.318  15.623   2.028
97551W        W69222  44.993  33.591  11.862
97552W        W69223  20.503   2.295   2.280
97553W        W69224  29.376  22.628   5.122
97554W        W69225  41.743  21.211  11.142
97555W        W69226   0.381  44.218  12.532
97556W        W69227  33.839  41.196  14.533
97557W        W69228   9.221  11.651   4.865
97558W        W69229   3.340   6.407   3.099
97559W        W69230  15.293  31.182   4.184
97560W        W69231  39.856   1.120  10.757
97561W        W69232  24.728  20.566  13.859
97562W        W69233   8.074  42.214   2.322
97563W        W69234  34.613  33.126  14.929
97564W        W69235  29.094  40.349  11.780
97565W        W69236  41.464  26.393  11.548
97566W        W69237  42.539  41.526   5.415
97567W        W69238   9.748  16.215   0.287
97568W        W69239  17.106   3.492   5.295
97569W        W69240  40.324  22.986  13.023
97570W        W69241   5.777  30.569  12.017
97571W        W69242   3.333  24.947  12.063
97572W        W69243   6.433   5.227  13.594
97573W        W69244   7.745   7.672   3.254
97574W        W69245  26.752  38.609  14.515
97575W        W69246  16.538  44.158   0.216
97576W        W69247  41.762  35.458   4.358
97577W        W69248  33.540  26.505   1.413
97578W        W69249  13.563  28.100   4.116
97579W        W69250  42.530  41.820  10.510
97580W        W69251  18.357  21.407  12.354
97581W        W69252  31.630   4.782   1.703
97582W        W69253  40.035  28.867   4.280
97583W        W69254   4.427   4.275  12.583
97584W        W69255   0.497  16.852   0.406
97585W        W69256  42.805  26.584  12.154
97586W        W69257  13.244  16.570   2.635
97587W        W69258  38.020  35.022   2.872
97588W        W69259  36.716  20.816  12.466
97589W        W69260  39.084   6.935   0.849
97590W        W69261  23.501   9.866   4.057
97591W        W69262   1.820  18.053   4.097
97592W        W69263  39.061  23.407  14.231
97593W        W69264   0.055  22.624  10.530
97594W        W69265  13.338  35.119   3.352
97595W        W69266  17.045  41.433  12.453
97596W        W69267  32.746  30.638  11.493
97597W        W69268  44.312  23.583   1.704
97598W        W69269  22.575  39.047   3.406
97599W        W69270  39.381   5.266  11.863
97600W        W69271  35.057  32.427   2.844
97601W        W69272   3.464  36.847   0.793
97602W        W69273  26.061  44.025  13.323
97603W        W69274  38.820  39.119  13.103
97604W        W69275   8.904  28.704  14.022
97605W        W69276  21.548  42.963   3.299
97606W        W69277  38.450  43.993  13.495
97607W        W69278  39.990   8.718   3.606
97608W        W69279  37.805   3.163   0.984
97609W        W69280   7.971   9.290  12.458
97610W        W69281  29.147  10.551   2.332
97611W        W69282  14.621  10.357  14.530
97612W        W69283  36.490   6.895   2.258
97613W        W69284   2.208  19.585   3.648
97614W        W69285  36.050  27.029   2.286
97615W        W69286  43.452  11.119   1.167
97616W        W69287   1.952  13.795  14.853
97617W        W69288  27.095  29.949   4.154
97618W        W69289  36.782  41.060   0.434
97619W        W69290  28.168  22.344  12.361
97620W        W69291  40.782  18.071  12.625
97621W        W69292  18.799  13.150  14.489
97622W        W69293  22.325  40.007   5.240
97623W        W69294  38.883  29.442  12.463
97624W        W69295  30.549  17.343   0.789
97625W        W69296  44.966  43.525  13.786
97626W        W69297  31.014  38.834  13.570
97627W        W69298  38.307  13.848   3.313
97628W        W69299  37.341  30.166  12.454
97629W        W69300  43.106  15.361  12.649
97630W        W69301  12.166  30.526   1.331
97631W        W69302  38.043  36.557  13.105
97632W        W69303  42.513  31.558  11.655
97633W        W69304  20.056  13.593   1.342
97634W        W69305   8.798  38.680  11.199
97635W        W69306  37.870   6.681  11.840
97636W        W69307  38.045  36.991  13.405
97637W        W69308  29.903  20.846  13.927
97638W        W69309  38.905  17.146  12.499
97639W        W69310   8.225  36.944   4.147
97640W        W69311  22.334  16.985   1.355
97641W        W69312  37.300  15.291  13.479
97642W        W69313  19.299   7.064   4.126
97643W        W69314  33.448  13.202   4.194
97644W        W69315  22.764   7.902  13.189
97645W        W69316   7.984  26.310  10.120
97646W        W69317  39.466  21.134  14.447
97647W        W69318  28.226  25.527  14.897
97648W        W69319  19.145   7.814  10.746
97649W        W69320   1.750  28.088   1.403
97650W        W69321  33.370  43.011   1.546
97651W        W69322  16.767  36.841  11.091
97652W        W69323   9.583  30.715  11.660
97653W        W69324  11.692  37.789  12.473
97654W        W69325  18.760  31.992   2.590
97655W        W69326  36.657  35.487   0.472
97656W        W69327  15.547   5.307  13.820
97657W        W69328  16.552  12.064   2.276
97658W        W69329  22.559  21.667   1.834
97659W        W69330  22.745  38.446  14.114
97660W        W69331  40.917  34.172  12.893
97661W        W69332  14.258  11.652  11.179
97662W        W69333  44.399  36.822   3.712
97663W        W69334  11.251  20.681  13.295
97664W        W69335  26.763  12.241   1.821
97665W        W69336  16.768  27.304   4.022
97666W        W69337   9.366  16.147  10.691
97667W        W69338  40.585   2.917  14.952
97668W        W69339  14.879  41.972   1.431
97669W        W69340  37.318  24.170   1.793
97670W        W69341  35.457  35.374  14.778
97671W        W69342  36.425   3.100   1.895
97672W        W69343  26.756  26.649  10.537
97673W        W69344  16.376  15.723  14.093
97674W        W69345  33.945  15.035   4.313
97675W        W69346  42.602   3.745   0.770
97676W        W69347  22.240  27.969  13.632
97677W        W69348  31.747  26.063   9.969
97678W        W69349  28.392   0.980   3.319
97679W        W69350  28.632  40.112   3.813
97680W        W69351  35.182  27.578   0.708
97681W        W69352  37.516  21.662  14.546
97682W        W69353  21.175   9.201   5.032
97683W        W69354  34.269  19.350   3.474
97684W        W69355  34.662  39.030   1.654
97685W        W69356  36.857   8.332   0.452
97686W        W69357   0.689  34.203   0.023
97687W        W69358  14.819  41.593  11.187
97688W        W69359  22.097  37.629  12.403
97689W        W69360  39.958  35.825   4.408
97690W        W69361  17.399  11.226  10.670
97691W        W69362  29.041   7.893  12.697
97692W        W69363  26.432   3.794  11.496
97693W        W69364  23.191   0.396  12.861
97694W        W69365  44.863  41.822  14.797
97695W        W69366  10.034   4.761   1.541
97696W        W69367  18.165  41.469   1.603
97697W        W69368  26.495  19.054   0.967
97698W        W69369  10.708  12.536  12.907
97699W        W69370  34.559   0.895  11.433
97700W        W69371  25.258   7.601   3.748
97701W        W69372  16.507  25.044  13.343
97702W        W69373  18.511   6.359   0.525
97703W        W69374  42.349  43.199  10.673
97704W        W69375  14.213  33.696   2.541
97705W        W69376   1.118  21.053  10.577
97706W        W69377  33.163  13.262  11.165
97707W        W69378  21.756  12.683   3.151
97708W        W69379  14.833  12.140  10.382
97709W        W69380  30.004   0.639   0.642
97710W        W69381  41.492   9.662   1.324
97711W        W69382   6.969  44.443  12.508
97712W        W69383  20.812  38.597   4.096
97713W        W69384  17.263   3.357  11.907
97714W        W69385  40.288  35.123  11.992
97715W        W69386  21.716  12.729  14.504
97716W        W69387  10.300  23.228  12.531
97717W        W69388  10.455  44.937  12.539
97718W        W69389  38.420  13.789   1.092
97719W        W69390  28.052  17.488  11.023
97720W        W69391  41.789  26.283  12.969
97721W        W69392  15.084  21.169  12.464
97722W        W69393  23.025  11.639  12.489
97723W        W69394  43.263  36.597  11.462
97724W        W69395  16.737  13.580   3.487
97725W        W69396   6.819  24.202   4.138
97726W        W69397  11.345   9.208  14.415
97727W        W69398   1.293   8.822   2.154
97728W        W69399  42.327  42.327   3.664
97729W        W69400  18.553   3.250  14.178
97730W        W69401  13.641   1.177   2.733
97731W        W69402   0.715  32.025   1.326
97732W        W69403  37.330   5.213   1.385
97733W        W69404  22.046   0.259   2.397
97734W        W69405  14.312  11.188   2.186
97735W        W69406  33.042   0.690  14.717
97736W        W69407  43.969  27.065   2.715
97737W        W69408   0.390  42.412  10.513
97738W        W69409   0.956  39.152   5.072
97739W        W69410  40.427  13.115   0.222
97740W        W69411  44.220  18.183   4.221
97741W        W69412  28.513  22.007  10.692
97742W        W69413   8.431  10.892  12.930
97743W        W69414   4.641  11.864  12.264
97744W        W69415   7.708  27.409   4.650
97745W        W69416  44.233  21.948  11.652
97746W        W69417  31.960  24.070   2.155
97747W        W69418  27.706  25.692  13.256
97748W        W69419   5.516   0.957   1.180
97749W        W69420  38.849  22.086   3.667
97750W        W69421  33.554  14.630   3.248
97751W        W69422   4.357  31.192   3.096
97752W        W69423  36.751   5.331   1.959
97753W        W69424  35.984   0.589  11.974
97754W        W69425  13.760  24.932   3.276
97755W        W69426  40.537   7.698   2.224
97756W        W69427  42.504  16.045   2.390
97757W        W69428  38.074   2.443  13.392
97758W        W69429  40.290   4.673   1.828
97759W        W69430  25.438   9.346  13.146
97760W        W69431  26.401  26.159  10.767
97761W        W69432   1.040  41.384  14.310
97762W        W69433   7.177  20.532   2.640
97763W        W69434  19.666  29.934  12.654
97764W        W69435  28.755  16.162  12.529
97765W        W69436  30.139  26.996  13.080
97766W        W69437   3.690  27.934   1.329
97767W        W69438  37.817   6.282  11.236
97768W        W69439   5.956  20.777   1.035
97769W        W69440   3.795  26.720  10.580
97770W        W69441  38.570  21.725   3.916
97771W        W69442  20.142  29.983   4.136
97772W        W69443  20.590  23.360   9.895
97773W        W69444  44.499  34.138   0.663
97774W        W69445  17.555  37.009   2.578
97775W        W69446  23.128  29.948  12.094
97776W        W69447   9.174  24.953   3.153
97777W        W69448  29.345  14.561  13.604
97778W        W69449   5.938   2.026  12.446
97779W        W69450  35.567  23.690   3.280
97780W        W69451  12.040  18.958   3.589
97781W        W69452  28.060   7.444   3.214
97782W        W69453  18.750  36.452   4.001
97783W        W69454  29.375  32.441   4.353
97784W        W69455  29.683  26.530   2.053
97785W        W69456  26.447   2.871  13.049
97786W        W69457   8.276  30.963   2.201
97787W        W69458  25.148  11.759  11.268
97788W        W69459   8.199  13.259   0.765
97789W        W69460   2.509  22.157   3.742
97790W        W69461   5.682  28.162  14.511
97791W        W69462  44.700  20.056  11.522
97792W        W69463  13.266  37.756   2.583
97793W        W69464  42.335  17.520  14.570
97794W        W69465  29.665  31.097   2.132
97795W        W69466  10.870  32.692  13.838
97796W        W69467  30.013  12.868  14.310
97797W        W69468  30.145   1.665  14.963
97798W        W69469  39.772   9.083   2.883
97799W        W69470  34.716   1.274   4.865
97800W        W69471   7.684   1.024   1.943
97801W        W69472  30.214   0.358   1.892
97802W        W69473  10.357   6.461  12.909
97803W        W69474  10.045  21.608   2.758
97804W        W69475   7.704   8.481   1.483
97805W        W69476  35.609  15.918  10.415
97806W        W69477  19.498   7.762   3.542
97807W        W69478   5.500  34.928   1.750
97808W        W69479  32.435  20.844   4.691
97809W        W69480   8.715   9.032   0.118
97810W        W69481   9.312  19.290   0.461
97811W        W69482   9.451  10.165  14.848
97812W        W69483   9.620   8.488  10.772
97813W        W69484   7.592  38.482   4.040
97814W        W69485  43.211   4.713  13.430
97815W        W69486  20.608  42.917  14.413
97816W        W69487  24.223  44.648   0.676
97817W        W69488  35.974  17.202  13.572
97818W        W69489   2.264  44.272  10.575
97819W        W69490  11.562  30.486   4.590
97820W        W69491  20.284  27.852   1.294
97821W        W69492  44.989  10.319   4.560
97822W        W69493  40.256   0.979  12.906
97823W        W69494   5.288  36.446   3.362
97824W        W69495  14.353  11.332  10.756
97825W        W69496  43.832   2.284   1.742
97826W        W69497   7.932   5.185  13.483
97827W        W69498  39.540  12.364  11.240
97828W        W69499  12.292   5.170  13.572
97829W        W69500   7.953  12.546   1.818
97830W        W69501  35.308  24.448  14.833
97831W        W69502  13.583   2.232  11.092
97832W        W69503  42.052   5.977   5.002
97833W        W69504  19.715  36.363  14.409
97834W        W69505  19.020  26.967   4.279
97835W        W69506  24.722  29.004   2.268
97836W        W69507  21.649  28.442  13.869
97837W        W69508  12.368  43.767   1.310
97838W        W69509  17.044  20.511   2.740
97839W        W69510  14.734  30.031  11.496
97840W        W69511  42.499  32.564   4.112
97841W        W69512  30.956  44.474  11.971
97842W        W69513  32.258  26.052  14.019
97843W        W69514  33.607  23.193   1.024
97844W        W69515  31.097  10.685  10.735
97845W        W69516  30.302  35.517  14.851
97846W        W69517  13.371  34.606  12.018
97847W        W69518  34.484  25.551  10.818
97848W        W69519  25.785   0.567   1.804
97849W        W69520   2.924  32.668   4.833
97850W        W69521  28.529  14.075  10.451
97851W        W69522  17.689  14.616   0.281
97852W        W69523  25.599   5.422   4.109
97853W        W69524   5.828  44.045   3.836
97854W        W69525   9.708  34.179   4.323
97855W        W69526  21.556  43.637   3.614
97856W        W69527  44.189  31.323   3.159
97857W        W69528  14.838  10.273  13.499
97858W        W69529  34.169  20.229   1.011
97859W        W69530   1.563  42.431   3.368
97860W        W69531  20.789  22.772  12.539
97861W        W69532  27.470  39.354  11.217
97862W        W69533   3.449   2.247  11.133
97863W        W69534  21.107  39.241  11.059
97864W        W69535  16.338   8.811  12.538
97865W        W69536  40.865  17.241  13.035
97866W        W69537  27.716  35.484   3.583
97867W        W69538  44.882  35.432   0.933
97868W        W69539  12.285  39.428   4.778
97869W        W69540  19.676  38.397  13.047
97870W        W69541   4.189  34.520   3.892
97871W        W69542   0.004   2.714  12.095
97872W        W69543   4.831  36.709  11.931
97873W        W69544  17.373  31.477   2.462
97874W        W69545  13.776  36.310  14.481
97875W        W69546   0.483  26.260  11.947
97876W        W69547   3.892  29.880   2.176
97877W        W69548  19.241  17.199  12.059
97878W        W69549  16.957  19.131   1.695
97879W        W69550  32.560   8.298   2.327
97880W        W69551   5.048   1.488  10.304
97881W        W69552  44.663  17.153  14.420
97882W        W69553  25.664   7.194  10.774
97883W        W69554  30.747   0.300   2.875
97884W        W69555  29.229  31.912   2.250
97885W        W69556   6.285  30.880  11.170
97886W        W69557  16.908  26.458  10.309
97887W        W69558  42.814  25.974  14.382
97888W        W69559  12.168  42.358  13.870
97889W        W69560  41.960  24.700   4.824
97890W        W69561  31.898   4.454  12.045
97891W        W69562  39.304  39.060   4.515
97892W        W69563  26.676  18.093  11.116
97893W        W69564  13.821   6.057   1.700
97894W        W69565  37.566  14.867  10.652
97895W        W69566  19.369  38.933  13.396
97896W        W69567  33.612  32.963   1.922
97897W        W69568   7.800  11.913   4.108
97898W        W69569  37.958  36.288   2.388
97899W        W69570  40.509  37.826  11.508
97900W        W69571  16.150   2.771  13.965
97901W        W69572  35.862   0.939  11.024
97902W        W69573  17.778  32.037   4.281
97903W        W69574  10.836  29.109  11.600
97904W        W69575  44.078  23.582   9.950
97905W        W69576  37.514  32.382  11.136
97906W        W69577   7.420  40.037  12.041
97907W        W69578  30.502  40.113   4.865
97908W        W69579  15.874  38.780  13.353
97909W        W69580  22.229  31.966  12.495
97910W        W69581  19.000  43.550  12.359
97911W        W69582  21.551  20.343   1.129
97912W        W69583  16.727   4.374  13.153
97913W        W69584  38.189  39.869   3.341
97914W        W69585   8.695  21.171  14.412
97915W        W69586  21.718  38.414   3.199
97916W        W69587   0.825   8.960   2.299
97917W        W69588  30.579  22.616  13.077
97918W        W69589  29.696  26.524   4.157
97919W        W69590  18.917  39.968   4.573
97920W        W69591  31.223   2.754  11.745
97921W        W69592   6.027  16.193  12.552
97922W        W69593   1.711  35.702  14.048
97923W        W69594  24.014  15.129  12.365
97924W        W69595  37.559  25.006  12.841
97925W        W69596  40.863   6.825  14.281
97926W        W69597  36.464  33.897  14.090
97927W        W69598  32.051   7.376   4.219
97928W        W69599  17.850   6.145  11.024
97929W        W69600  17.760  27.427  11.599
97930W        W69601   1.244  19.598   2.292
97931W        W69602   1.765   3.494  12.077
97932W        W69603   6.263  39.338  11.099
97933W        W69604  33.437  42.872   4.554
97934W        W69605  26.990  37.791   2.707
97935W        W69606  43.386  37.821   3.130
97936W        W69607  26.231  19.191   1.434
97937W        W69608   5.668  44.695   2.300
97938W        W69609  19.660   4.744   4.594
97939W        W69610  37.164   5.833   3.170
97940W        W69611  26.998  41.723   2.213
97941W        W69612  42.052  25.465  11.993
97942W        W69613   6.548  16.899  10.619
97943W        W69614  34.603  44.373   0.934
97944W        W69615   9.332  12.098   5.139
97945W        W69616   9.396  17.970  13.143
97946W        W69617  15.471  43.704  12.560
97947W        W69618  30.888  14.215  14.676
97948W        W69619  36.865  30.479   4.133
97949W        W69620  13.126  31.201  13.853
97950W        W69621  35.434  27.120   4.403
97951W        W69622  15.857  37.461  10.084
97952W        W69623  29.663  19.708   5.189
97953W        W69624  20.089  34.707  10.971
97954W        W69625   8.164   3.066   4.797
97955W        W69626   6.966  28.458   3.574
97956W        W69627   9.201  21.549  13.437
97957W        W69628  34.530  11.334  12.012
97958W        W69629  34.525  20.307  13.570
97959W        W69630  29.080   8.327  12.389
97960W        W69631  18.680   5.469   0.779
97961W        W69632   0.569   3.513   1.475
97962W        W69633  31.107   6.144  13.375
97963W        W69634  28.870  27.438  13.972
97964W        W69635   1.928   6.452   3.149
97965W        W69636  24.931  42.980  11.281
97966W        W69637  28.668   7.822   2.065
97967W        W69638  10.630  10.318   0.902
97968W        W69639  36.474  15.780   0.833
97969W        W69640  19.136  13.398   3.682
97970W        W69641  19.516  22.477  11.992
97971W        W69642  38.105  36.041   1.315
97972W        W69643  41.744  31.881   4.197
97973W        W69644  42.756   2.422  10.454
97974W        W69645  24.840  26.688   1.813
97975W        W69646   6.813  33.924   1.038
97976W        W69647  25.094  38.316   1.322
97977W        W69648  15.342  14.820  14.009
97978W        W69649  28.495   2.758   0.701
97979W        W69650  15.007  35.527   2.682
97980W        W69651   0.075  10.310  10.807
97981W        W69652  16.331  10.810  11.588
97982W        W69653  14.998  32.936  12.729
97983W        W69654   2.266  25.103  11.238
97984W        W69655   6.474  14.172  13.476
97985W        W69656   4.904  26.237  14.854
97986W        W69657  43.400  30.694   4.691
97987W        W69658  18.698  35.632  11.979
97988W        W69659  44.466   9.313   2.427
97989W        W69660  41.853   3.630   2.716
97990W        W69661  20.707  23.838   2.535
97991W        W69662   0.868  22.261   5.113
97992W        W69663  23.445  41.958  13.438
97993W        W69664  41.662  17.585   2.263
97994W        W69665   6.393   5.139  13.086
97995W        W69666   5.193   8.446   3.415
97996W        W69667  42.759   8.957  10.693
97997W        W69668  40.747  44.340  13.511
97998W        W69669  16.675  33.949   1.818
97999W        W69670   0.757   4.597  13.313
98000W        W69671  39.949  13.043  14.447
98001W        W69672  14.738   8.760   4.590
98002W        W69673  32.390  19.624   1.198
98003W        W69674  22.724  19.409   4.578
98004W        W69675  20.571  32.510  14.845
98005W        W69676  30.146  24.081  13.944
98006W        W69677   8.978   0.329  11.513
98007W        W69678  34.840  20.061   4.628
98008W        W69679  22.064  30.687  12.039
98009W        W69680  30.521  13.299  13.508
98010W        W69681  13.448  23.011  11.946
98011W        W69682  42.262  41.043   1.346
98012W        W69683  19.817  15.771   0.269
98013W        W69684   5.310  12.831  13.424
98014W        W69685   2.980  42.851  13.954
98015W        W69686  42.873  18.515  13.510
98016W        W69687  32.445  10.930   4.269
98017W        W69688  11.855   0.890   4.173
98018W        W69689  28.690  35.816  13.764
98019W        W69690  14.067   7.341  14.763
98020W        W69691  42.569   9.372  11.573
98021W        W69692   9.009  30.522   3.323
98022W        W69693  10.424   2.367   0.265
98023W        W69694  12.097  19.166   1.249
98024W        W69695  43.620   0.669   2.814
98025W        W69696  33.698   8.850   0.918
98026W        W69697  11.720  42.905  13.558
98027W        W69698  23.165  21.510   2.786
98028W        W69699  25.090   2.637   3.136
98029W        W69700  42.413   5.217  14.950
98030W        W69701  17.288  44.381   2.817
98031W        W69702  43.672   0.498   4.039
98032W        W69703  14.666   1.148   1.273
98033W        W69704  23.775   5.624   0.053
98034W        W69705  28.072  15.341   3.355
98035W        W69706   2.221   9.312  14.021
98036W        W69707  20.202  27.595   0.844
98037W        W69708  44.457  25.534  14.805
98038W        W69709  35.447  38.878  13.811
98039W        W69710  19.305  36.189   4.613
98040W        W69711   1.765  32.222  12.190
98041W        W69712  38.993  29.175  12.014
98042W        W69713  37.111  26.043  12.665
98043W        W69714  33.871  23.650  10.886
98044W        W69715  35.565   8.586  12.362
98045W        W69716  23.070   1.376   3.648
98046W        W69717  22.514  29.591  13.885
98047W        W69718   7.930  44.749  10.960
98048W        W69719  39.927  11.107   3.769
98049W        W69720  37.001  37.598  11.476
98050W        W69721   4.110  17.274   1.393
98051W        W69722   9.223  31.511  12.403
98052W        W69723  43.476  14.933   2.641
98053W        W69724  26.672  33.075  11.515
98054W        W69725  41.112  12.452  14.890
98055W        W69726  20.809  42.284  12.907
98056W        W69727  16.012   2.547   1.657
98057W        W69728  12.260  26.579   2.433
98058W        W69729  21.731   9.349  12.115
98059W        W69730  37.621  38.066   5.168
98060W        W69731  27.956   0.997   1.209
98061W        W69732  42.604  13.525   4.737
98062W        W69733  29.632  23.601   1.853
98063W        W69734  22.003  15.560   3.719
98064W        W69735  24.091  27.556  13.473
98065W        W69736   7.273  15.250  12.996
98066W        W69737  16.918   7.002   1.678
98067W        W69738  21.030   5.356   4.586
98068W        W69739  24.939  11.674  12.632
98069W        W69740  22.937  44.257   3.316
98070W        W69741   0.967  31.993  13.180
98071W        W69742  30.937  11.727  14.338
98072W        W69743  22.455  39.457   4.158
98073W        W69744  12.877   8.548  14.904
98074W        W69745  36.890  14.718   3.781
98075W        W69746  10.667   5.808  10.888
98076W        W69747   4.398  37.166   1.174
98077W        W69748  37.005  40.941  10.747
98078W        W69749  12.420  22.725  13.843
98079W        W69750  18.195  28.453  12.087
98080W        W69751   8.678   1.353  13.502
98081W        W69752   2.654  38.538  13.049
98082W        W69753  38.588  44.038   2.236
98083W        W69754  13.900  20.667   3.306
98084W        W69755   2.957  26.763  12.040
98085W        W69756   9.127  28.491   1.862
98086W        W69757  33.496  37.586   4.985
98087W        W69758  32.208  40.236   1.855
98088W        W69759   7.211  10.393  14.478
98089W        W69760  29.402   5.441   0.912
98090W        W69761  36.130   8.735   2.859
98091W        W69762  27.174  24.989   0.790
98092W        W69763  25.002  36.056  14.589
98093W        W69764  40.790  38.007  13.144
98094W        W69765  16.489  26.515  14.879
98095W        W69766  24.475  36.971   3.028
98096W        W69767  35.838  12.612  12.053
98097W        W69768  39.961   0.312  10.452
98098W        W69769  11.530  32.195  13.966
98099W        W69770  42.042  27.002  11.399
98100W        W69771  36.098  38.971   3.188
98101W        W69772   3.657   8.635   2.431
98102W        W69773   8.487  42.516   2.220
98103W        W69774  36.869  17.557   0.525
98104W        W69775  28.680   3.699  13.724
98105W        W69776   2.315  37.556   3.735
98106W        W69777   4.741  36.275   0.004
98107W        W69778   8.604  22.496  14.810
98108W        W69779  15.051  31.008   4.604
98109W        W69780  44.444  36.368   9.955
98110W        W69781  32.031  17.816  11.485
98111W        W69782   0.206  44.408   2.295
98112W        W69783  28.938   5.426   1.665
98113W        W69784  44.169  36.069   4.135
98114W        W69785  33.009   2.394   2.629
98115W        W69786  36.605   2.957   4.613
98116W        W69787   7.927  10.356  12.479
98117W        W69788  43.289  29.607  11.014
98118W        W69789   3.390  14.317  13.702
98119W        W69790   5.753   5.343  10.756
98120W        W69791   4.403  19.133  13.969
98121W        W69792  42.779  36.624   3.177
98122W        W69793  22.483  42.300   1.261
98123W        W69794  24.450   5.416  10.673
98124W        W69795  20.691   0.203   2.055
98125W        W69796  33.436  18.490  11.190
98126W        W69797  13.298  18.311  14.057
98127W        W69798  42.238  37.342   2.341
98128W        W69799  12.622   5.769  14.076
98129W        W69800   8.368  23.708  12.604
98130W        W69801  32.783  22.738  14.385
98131W        W69802   3.717  39.632   1.381
98132W        W69803  27.204   2.819  14.267
98133W        W69804  42.818  27.996  12.588
98134W        W69805   8.509  43.026  14.142
98135W        W69806   9.183  42.154   4.891
98136W        W69807   6.128  25.045  12.169
98137W        W69808   1.449  10.760  14.318
98138W        W69809  38.129  17.858   1.418
98139W        W69810  23.522  14.102   0.781
98140W        W69811  17.352  38.474  13.369
98141W        W69812  18.663  34.917  10.424
98142W        W69813   8.884  42.922   4.725
98143W        W69814  44.418  26.610  14.854
98144W        W69815  16.069  29.704  12.512
98145W        W69816  25.097  30.119  13.411
98146W        W69817  35.839  19.587  11.150
98147W        W69818  16.700  32.589   2.250
98148W        W69819   8.602  27.183  10.613
98149W        W69820  14.899  28.955  11.461
98150W        W69821   1.162  20.519  13.426
98151W        W69822  41.025   7.833   3.674
98152W        W69823  34.869  39.811   0.296
98153W        W69824  37.107  25.798  11.901
98154W        W69825  26.016  21.329   2.234
98155W        W69826  43.577  15.549  11.396
98156W        W69827  32.482   8.999   0.366
98157W        W69828  24.313  31.091   1.715
98158W        W69829  40.785  41.514   0.467
98159W        W69830  23.051  26.535   1.199
98160W        W69831   3.321   3.051  11.921
98161W        W69832   7.331  44.668  12.162
98162W        W69833  41.713  18.584  11.167
98163W        W69834  14.192  14.532   4.443
98164W        W69835  41.604  33.981   1.960
98165W        W69836  12.340  10.210  14.493
98166W        W69837  37.997  36.943  13.946
98167W        W69838  20.725   5.157   2.827
98168W        W69839   2.140  39.930  12.468
98169W        W69840   6.840   3.701   0.958
98170W        W69841  16.772   7.946   3.351
98171W        W69842   1.013   1.767   1.296
98172W        W69843  13.549  25.237  10.794
98173W        W69844   8.228  34.220   1.792
98174W        W69845  24.197   5.907  13.388
98175W        W69846  38.862   2.655  12.799
98176W        W69847  12.437  39.007  13.344
98177W        W69848  22.517   2.330   0.902
98178W        W69849   7.748  12.184  10.667
98179W        W69850  34.231  13.082  14.615
98180W        W69851   7.197   1.918   3.055
98181W        W69852  34.952  41.331  11.152
98182W        W69853   5.258  24.477   0.025
98183W        W69854  34.240  42.072   2.039
98184W        W69855  15.897  13.162   1.485
98185W        W69856   8.395   5.271  12.126
98186W        W69857  23.624  23.822  12.084
98187W        W69858  30.461  37.467  12.215
98188W        W69859  25.080   2.530  14.941
98189W        W69860   7.713  38.605  10.058
98190W        W69861  40.509  31.645   3.089
98191W        W69862  10.586  39.105  11.252
98192W        W69863  22.017  29.477   1.436
98193W        W69864   1.472  24.076   1.425
98194W        W69865   4.753  18.195   2.201
98195W        W69866   7.355  28.090   3.715
98196W        W69867  37.507  19.597   4.230
98197W        W69868  18.349  11.093   1.838
98198W        W69869   9.688  37.718   9.846
98199W        W69870  30.465  44.999  10.516
98200W        W69871   2.440  24.929   2.389
98201W        W69872  44.743  13.874   2.764
98202W        W69873  32.796  22.634  12.037
98203W        W69874   6.224  38.523  14.864
98204W        W69875  25.514  35.657   4.136
98205W        W69876  20.552  21.964  12.242
98206W        W69877  19.571  13.450  10.988
98207W        W69878   8.463  16.121   1.917
98208W        W69879   0.869  40.636   1.590
98209W        W69880  31.188  10.776   4.233
98210W        W69881  44.062  12.762  14.338
98211W        W69882  33.539  11.638  10.859
98212W        W69883  24.056  23.546  14.672
98213W        W69884   1.908  22.894   3.366
98214W        W69885  21.622  28.099  14.285
98215W        W69886  44.489  32.477  14.492
98216W        W69887  14.035  10.257  12.167
98217W        W69888  18.653   3.513  12.845
98218W        W69889  44.845  23.707  11.730
98219W        W69890  16.217  40.507   2.397
98220W        W69891  31.618  12.599  12.568
98221W        W69892  11.971  16.846  10.260
98222W        W69893   1.821   0.943  14.718
98223W        W69894  43.775  35.098   0.737
98224W        W69895  34.349  26.026  13.642
98225W        W69896  10.876  27.145  12.504
98226W        W69897  40.917   6.789  14.797
98227W        W69898   4.011  40.014  12.519
98228W        W69899  40.273  24.983  11.196
98229W        W69900  24.096   4.340   1.056
98230W        W69901   1.450  34.886   2.146
98231W        W69902  22.400   1.126  14.788
98232W        W69903  22.246  41.340   0.394
98233W        W69904  26.913  36.997  13.822
98234W        W69905  25.757  42.900   0.386
98235W        W69906   9.642   3.974  12.978
98236W        W69907  44.733   4.763  11.579
98237W        W69908  35.752   8.396   1.334
98238W        W69909   3.436  14.335   2.679
98239W        W69910  15.590   4.401  12.483
98240W        W69911  35.543  39.016   4.850
98241W        W69912  32.087  37.572   1.581
98242W        W69913  30.079  40.509  14.059
98243W        W69914   7.829  18.660   1.181
98244W        W69915  12.172   3.734   2.389
98245W        W69916  27.400   9.666  12.458
98246W        W69917  21.153  24.559   3.836
98247W        W69918  13.053  31.915   1.348
98248W        W69919   4.898  28.420   1.126
98249W        W69920  39.886  16.976   3.237
98250W        W69921  18.048  14.812   9.710
98251W        W69922  22.482  16.100  14.531
98252W        W69923  17.100  21.519   1.391
98253W        W69924  26.254  21.979  13.335
98254W        W69925  34.719  19.167   1.279
98255W        W69926   0.361   6.329   4.082
98256W        W69927  33.322   4.033   0.967
98257W        W69928  37.092   4.635  12.087
98258W        W69929  33.603  12.118  12.469
98259W        W69930   0.525  38.948   2.327
98260W        W69931   9.485   6.837  10.922
98261W        W69932  20.572  43.531   3.729
98262W        W69933  19.624   8.612   1.317
98263W        W69934   9.333  32.302   3.737
98264W        W69935  27.536  37.176  14.410
98265W        W69936  13.842   9.988  13.960
98266W        W69937  28.818   9.624   0.903
98267W        W69938  41.104  33.364  13.370
98268W        W69939  14.423  41.042   1.933
98269W        W69940  12.160   7.148  14.299
98270W        W69941  21.034  20.544  14.331
98271W        W69942  20.795  15.261  12.572
98272W        W69943  22.122   4.914  11.489
98273W        W69944  35.116  36.803   5.393
98274W        W69945  25.043   9.347  14.532
98275W        W69946  26.118   0.445  12.913
98276W        W69947  22.916  19.193   0.900
98277W        W69948  13.193   1.754   9.832
98278W        W69949  31.775   0.171  13.438
98279W        W69950  16.082  36.350   4.765
98280W        W69951   5.216  28.689   3.735
98281W        W69952  39.255   8.326  11.159
98282W        W69953   6.891  44.258   4.442
98283W        W69954   4.806  15.265  13.402
98284W        W69955  22.048  25.919   4.132
98285W        W69956   1.278  18.319  14.733
98286W        W69957  16.886  15.147  11.104
98287W        W69958  22.451  43.966  13.363
98288W        W69959  27.977  25.140  11.637
98289W        W69960  42.021  34.685   1.903
98290W        W69961  30.901   6.812   3.539
98291W        W69962  14.816  35.715  12.625
98292W        W69963  28.180   3.518  13.021
98293W        W69964   7.663  28.076   0.449
98294W        W69965   0.162  30.105  14.968
98295W        W69966  25.548   7.826  13.125
98296W        W69967   3.242  35.111   1.607
98297W        W69968   4.010   1.831   1.148
98298W        W69969  40.169  37.497   5.136
98299W        W69970  31.105   2.921   3.030
98300W        W69971  41.109  34.730   0.434
98301W        W69972  22.734  41.812  14.834
98302W        W69973  17.235  25.027  11.730
98303W        W69974  11.254  22.250   3.339
98304W        W69975  21.636  40.471   5.020
98305W        W69976  14.493  38.590   4.312
98306W        W69977  12.598  13.183  11.005
98307W        W69978  34.268  10.632   2.331
98308W        W69979  27.432  21.035  14.063
98309W        W69980  13.869   4.380  14.328
98310W        W69981   8.153  25.183  13.429
98311W        W69982  28.676  25.158   3.893
98312W        W69983  32.864  18.417  13.750
98313W        W69984   7.851  40.468  12.864
98314W        W69985  44.885  44.917   1.240
98315W        W69986   9.381  17.714  12.071
98316W        W69987  21.780  13.803  14.923
98317W        W69988  10.777   7.658   3.203
98318W        W69989   2.964  32.603   4.291
98319W        W69990   3.604  31.731  11.166
98320W        W69991  18.974   3.565  13.342
98321W        W69992   1.974   4.234   4.554
98322W        W69993  23.396  37.397   0.384
98323W        W69994  30.735  43.329   2.147
98324W        W69995   6.345  25.176   2.439
98325W        W69996  15.550   9.920  14.227
98326W        W69997  19.584   3.738   2.732
98327W        W69998  42.709  40.145   1.243
98328W        W69999  26.160  43.854   4.086
98329W        W70000   9.314  18.531  13.109
98330W        W70001  43.035  23.609   4.947
98331W        W70002   6.306  20.211  13.489
98332W        W70003  21.780  28.035  12.391
98333W        W70004  31.998  24.500   0.336
98334W        W70005  36.192  26.433   0.511
98335W        W70006  44.189   0.660   1.320
98336W        W70007  30.812  38.602   1.696
98337W        W70008   5.241   0.475  12.091
98338W        W70009  31.275  12.103  12.135
98339W        W70010   6.303  20.798   1.886
98340W        W70011  26.825  40.040   0.230
98341W        W70012  12.524  30.679   4.418
98342W        W70013  38.799   5.303   4.444
98343W        W70014  30.983  24.763  11.575
98344W        W70015  34.594   6.455  13.403
98345W        W70016   6.736  28.841   0.553
98346W        W70017   6.230  29.008  12.810
98347W        W70018   1.325  27.492   4.519
98348W        W70019   5.655  23.055   3.795
98349W        W70020  27.153  19.124  13.543
98350W        W70021  28.664   1.091  11.592
98351W        W70022  29.495  25.810  14.154
98352W        W70023  14.712   3.768   0.005
98353W        W70024  28.391   3.700   4.042
98354W        W70025  32.557  29.178  11.114
98355W        W70026  35.081  13.648  11.082
98356W        W70027  13.392   3.715   4.720
98357W        W70028  36.404  27.619  14.972
98358W        W70029  33.435  15.145   3.328
98359W        W70030  39.851  33.348  10.750
98360W        W70031  31.564  19.206   1.686
98361W        W70032  44.917   6.288  12.026
98362W        W70033  17.981  43.550  12.422
98363W        W70034  44.758  18.595  14.243
98364W        W70035  23.855  12.705  12.388
98365W        W70036   4.296  23.553  13.362
98366W        W70037  21.590  18.760   4.246
98367W        W70038  34.416   1.608   4.603
98368W        W70039  20.828   7.287  14.146
98369W        W70040  11.757  14.550  11.440
98370W        W70041  11.137  41.904  11.992
98371W        W70042  39.079  22.307   3.241
98372W        W70043  10.654  34.393  12.606
98373W        W70044  11.014  12.198  11.356
98374W        W70045   5.592  37.938  14.825
98375W        W70046  10.226  29.007  10.904
98376W        W70047  19.531  31.832   0.988
98377W        W70048   2.240  19.672  11.628
98378W        W70049  14.271  42.743   1.063
98379W        W70050  19.243   1.227  12.858
98380W        W70051  19.512  14.521   3.326
98381W        W70052  24.477  10.849   3.195
98382W        W70053  42.001  25.527  14.039
98383W        W70054  11.131  38.516   2.743
98384W        W70055  34.889  21.629  12.903
98385W        W70056  27.540  30.571   1.621
98386W        W70057  36.450  20.111  13.344
98387W        W70058   5.763  41.152   1.270
98388W        W70059   7.658  21.835  13.623
98389W        W70060  32.425   5.542   3.702
98390W        W70061  12.607   4.134   1.942
98391W        W70062  43.591  38.884  11.473
98392W        W70063   4.934  23.871  11.833
98393W        W70064  43.403  24.052   1.012
98394W        W70065  17.767  40.928   3.101
98395W        W70066  43.502   3.473  11.186
98396W        W70067  34.691  37.423   4.619
98397W        W70068  33.815  24.443  10.653
98398W        W70069   8.259  38.549   2.273
98399W        W70070  35.904  28.057   0.759
98400W        W70071  38.420  41.788   2.339
98401W        W70072   6.432  22.003   3.222
98402W        W70073   4.805   0.371   4.583
98403W        W70074   2.967   8.058  13.626
98404W        W70075   4.693  39.402  12.040
98405W        W70076  40.477  11.787  13.374
98406W        W70077   9.774  25.266   2.365
98407W        W70078   0.231   0.354  11.095
98408W        W70079  24.623  15.585   3.699
98409W        W70080   2.469  21.183   1.712
98410W        W70081  23.072  27.468   1.200
98411W        W70082   0.029  17.506  11.470
98412W        W70083  35.610  30.453  13.151
98413W        W70084  14.106  17.670  12.333
98414W        W70085   5.258   3.590  10.565
98415W        W70086  28.380  24.131   1.396
98416W        W70087   3.928  29.545   1.773
98417W        W70088  13.392  24.656   4.279
98418W        W70089  40.547  21.205  13.615
98419W        W70090  21.024  14.207  10.639
98420W        W70091  28.217  18.764  13.389
98421W        W70092  22.278  14.120   2.894
98422W        W70093  38.545  11.175   2.693
98423W        W70094  42.994  12.650   1.349
98424W        W70095  29.544  43.350   4.890
98425W        W70096  33.920  35.900  10.738
98426W        W70097   1.799  11.118  12.125
98427W        W70098  28.302  12.695   4.133
98428W        W70099  24.434   9.783   3.979
98429W        W70100  13.633  17.170   0.926
98430W        W70101  37.786  14.535   0.346
98431W        W70102   2.305   6.931  13.960
98432W        W70103  31.293  43.036   1.698
98433W        W70104  35.804  11.740   1.187
98434W        W70105  35.614  36.156   3.275
98435W        W70106  32.882  29.037  13.025
98436W        W70107  12.485  24.784   5.111
98437W        W70108   7.324  17.557   1.821
98438W        W70109  39.536  24.551   3.703
98439W        W70110   7.728  18.476   2.184
98440W        W70111  42.396  44.229   0.937
98441W        W70112  20.796  23.645   5.573
98442W        W70113   3.015   2.460   1.251
98443W        W70114  42.878  33.835  13.298
98444W        W70115  33.502  44.543   3.202
98445W        W70116  17.835   4.238   2.635
98446W        W70117   1.723  30.831  13.455
98447W        W70118  40.026  37.817   4.152
98448W        W70119  32.365  25.291  11.127
98449W        W70120   5.763  10.336   4.774
98450W        W70121  16.707   7.125  12.889
98451W        W70122   1.195  44.222  10.516
98452W        W70123  23.790  21.728   0.003
98453W        W70124  32.487  15.094  12.577
98454W        W70125  32.664   8.329   3.418
98455W        W70126  21.156   3.254   4.700
98456W        W70127   1.873  27.897  10.829
98457W        W70128  23.737  43.842  13.893
98458W        W70129   7.747  25.489  12.395
98459W        W70130  26.728   0.815  11.638
98460W        W70131   7.642   3.239   1.236
98461W        W70132  23.334  18.115  12.995
98462W        W70133  26.520  24.111  14.319
98463W        W70134  41.526  31.398  11.184
98464W        W70135   4.255  17.582  10.876
98465W        W70136  27.847  32.554   0.334
98466W        W70137  26.025  39.875   4.682
98467W        W70138  44.316  32.705   0.830
98468W        W70139  34.745  18.590  11.760
98469W        W70140  37.134  28.688   1.140
98470W        W70141  22.068  14.584   4.661
98471W        W70142  40.857   0.367   4.894
98472W        W70143   7.694   4.816  14.464
98473W        W70144   0.231  36.345   4.622
98474W        W70145  16.703  35.063  14.969
98475W        W70146   7.629   0.279   1.385
98476W        W70147  26.562  23.201   2.403
98477W        W70148  18.125  42.565  14.439
98478W        W70149   2.497  20.745   2.300
98479W        W70150  11.301  25.000  13.596
98480W        W70151  37.441  36.180   2.674
98481W        W70152  29.606  13.508  13.914
98482W        W70153  30.123  43.206  11.645
98483W        W70154  38.403  35.607   3.212
98484W        W70155  24.509  17.132  12.016
98485W        W70156  22.938  33.159   3.755
98486W        W70157  10.381  23.709  12.306
98487W        W70158   6.449  14.183   0.689
98488W        W70159  16.174  44.760   1.806
98489W        W70160  25.296  11.765  13.743
98490W        W70161  36.458  34.060   3.684
98491W        W70162  22.208  32.621  10.944
98492W        W70163  37.900   9.353   2.593
98493W        W70164  36.982  19.249  11.408
98494W        W70165   7.634  15.151   2.154
98495W        W70166  23.877   0.957  13.697
98496W        W70167  23.908  22.635   2.350
98497W        W70168  40.558  43.492  10.340
98498W        W70169  32.113   8.845   0.970
98499W        W70170  17.331  14.346   2.421
98500W        W70171  17.555  28.063   3.344
98501W        W70172  43.376  40.963  14.869
98502W        W70173   7.871   1.318   0.947
98503W        W70174  27.855  33.962   3.422
98504W        W70175  30.523  10.414   1.048
98505W        W70176  20.472  32.510   1.251
98506W        W70177  15.484  33.534  12.578
98507W        W70178  33.055  43.910   2.653
98508W        W70179  37.121  12.273   1.202
98509W        W70180   8.271  23.127   3.738
98510W        W70181  19.732  35.529  11.159
98511W        W70182   3.168  43.922  11.635
98512W        W70183  18.074  42.579  12.504
98513W        W70184  43.807  13.221  10.965
98514W        W70185  39.476   1.962  13.797
98515W        W70186  21.473   3.516   2.324
98516W        W70187  25.211  26.570   4.366
98517W        W70188  37.178  32.518  14.552
98518W        W70189  20.706  13.416  13.617
98519W        W70190  15.737  18.343  14.380
98520W        W70191  17.945  19.226   2.664
98521W        W70192   0.671  24.978  13.084
98522W        W70193  21.292  35.382   4.363
98523W        W70194   8.833  34.497  11.008
98524W        W70195  21.690  25.156  13.491
98525W        W70196  39.966  29.010   3.282
98526W        W70197  36.446   1.083   3.729
98527W        W70198  24.194  13.724   2.823
98528W        W70199  35.404  34.933   1.719
98529W        W70200  24.072  42.257  10.718
98530W        W70201   7.774   9.591   0.239
98531W        W70202  42.823  22.923   0.932
98532W        W70203   5.488  16.217   1.890
98533W        W70204  20.260   0.153   3.073
98534W        W70205  15.783  40.439   4.790
98535W        W70206  36.437  36.865   4.285
98536W        W70207  37.696   5.908   0.386
98537W        W70208   4.770   0.251  12.138
98538W        W70209  32.893  11.291   3.636
98539W        W70210  28.664   2.013  12.758
98540W        W70211   1.772   6.963  11.729
98541W        W70212  35.829  39.810   1.225
98542W        W70213   9.824  37.819   1.376
98543W        W70214   6.245  33.222  10.572
98544W        W70215  17.279   9.215   0.654
98545W        W70216  40.381  36.431   1.843
98546W        W70217  42.943  41.028  14.018
98547W        W70218   0.314  11.193   0.877
98548W        W70219   0.259  25.995   4.595
98549W        W70220  19.205  21.985   3.292
98550W        W70221  23.465  43.661  14.294
98551W        W70222  42.942   9.578   0.237
98552W        W70223  38.016  31.207  12.049
98553W        W70224  25.434  16.641   1.487
98554W        W70225   5.412   9.665  11.061
98555W        W70226  38.018  11.809   4.161
98556W        W70227   4.844   1.651  14.365
98557W        W70228  35.321   8.186   1.116
98558W        W70229  20.842   8.904  14.406
98559W        W70230  24.183  21.871   4.920
98560W        W70231  41.105  30.763  13.899
98561W        W70232  23.580   5.941  11.558
98562W        W70233  24.998  13.307   4.122
98563W        W70234  25.163   2.118   3.198
98564W        W70235  27.426  36.446  12.859
98565W        W70236   9.975  32.611   3.133
98566W        W70237  10.653  18.746   3.730
98567W        W70238  22.442  38.340   0.870
98568W        W70239  18.870  25.353  10.158
98569W        W70240  34.898   3.400   1.701
98570W        W70241   5.253  14.854   1.938
98571W        W70242  18.282  44.309  12.052
98572W        W70243  14.042  15.242  10.665
98573W        W70244  38.998  17.785   1.201
98574W        W70245  24.221  11.512  12.076
98575W        W70246   2.826  33.896   4.229
98576W        W70247  18.433   2.551   3.893
98577W        W70248  39.066  28.567   0.854
98578W        W70249  24.627  43.991   3.684
98579W        W70250  34.087  44.972   3.525
98580W        W70251  25.945  25.516   2.684
98581W        W70252  29.420  43.448   0.811
98582W        W70253  37.035  24.465  14.262
98583W        W70254  40.609  34.357  14.475
98584W        W70255  33.578   9.642   3.654
98585W        W70256  18.026  43.435   3.390
98586W        W70257  14.591  22.826   2.226
98587W        W70258  24.449  30.960  13.857
98588W        W70259  44.756  34.945   3.203
98589W        W70260   6.632  26.736   9.957
98590W        W70261  33.762  25.537   4.847
98591W        W70262  17.235  26.688   4.040
98592W        W70263  24.010  13.868   3.671
98593W        W70264   8.602  11.643   4.627
98594W        W70265  35.861  18.592   0.225
98595W        W70266   5.590  24.576  12.951
98596W        W70267   6.235  32.166   2.861
98597W        W70268  34.997  28.903   2.424
98598W        W70269   1.444  27.608   1.240
98599W        W70270  28.719   8.215  13.359
98600W        W70271   3.192  43.110  11.906
98601W        W70272  39.887  34.840  12.732
98602W        W70273   5.753  43.045   3.838
98603W        W70274  12.246  17.956   2.255
98604W        W70275  22.228   2.666   2.191
98605W        W70276  15.641  13.436  11.886
98606W        W70277   1.856  36.039  10.737
98607W        W70278  27.320  34.035   3.814
98608W        W70279  11.834   8.447  11.080
98609W        W70280  21.923  43.438  12.859
98610W        W70281   1.308   1.773   1.832
98611W        W70282  38.570   1.856  12.222
98612W        W70283  22.795  26.598   4.097
98613W        W70284  24.530  26.421   0.866
98614W        W70285  31.078  15.154   3.756
98615W        W70286  33.500  23.140   4.935
98616W        W70287  43.578  37.114   2.298
98617W        W70288  14.011  24.897   4.103
98618W        W70289   8.749  36.131   4.564
98619W        W70290  33.806  10.336  12.523
98620W        W70291  30.069   4.263  11.673
98621W        W70292   1.861  31.994  11.285
98622W        W70293  39.380  30.590   1.655
98623W        W70294  17.374  30.503  12.947
98624W        W70295  38.341  44.322   2.631
98625W        W70296   3.677  11.910  12.916
98626W        W70297  14.841   4.817  14.964
98627W        W70298   5.628   3.898   4.706
98628W        W70299  12.767  43.456   1.167
98629W        W70300  35.435  31.417  11.034
98630W        W70301  26.418  38.051   4.455
98631W        W70302  43.329  32.939   1.699
98632W        W70303  35.173  12.189  14.802
98633W        W70304  41.845  41.430   2.693
98634W        W70305   5.746  33.927  10.579
98635W        W70306   8.118  11.336  13.123
98636W        W70307  36.440  22.666   4.532
98637W        W70308  16.206  44.261  13.561
98638W        W70309  35.429  25.098   0.281
98639W        W70310  27.717  24.174   4.612
98640W        W70311  16.040   3.781   3.317
98641W        W70312  31.408  36.339  11.458
98642W        W70313  32.515  44.404   4.163
98643W        W70314  35.934  26.971  11.068
98644W        W70315   2.151   0.956   2.689
98645W        W70316  15.596  35.286  14.259
98646W        W70317  36.586  23.547  12.197
98647W        W70318  14.105  36.515  13.808
98648W        W70319  19.793  41.493  10.656
98649W        W70320  37.007  27.157   4.669
98650W        W70321  30.749  11.810  10.783
98651W        W70322  22.673  26.208  14.280
98652W        W70323  11.657  43.446   3.174
98653W        W70324   7.258  28.061   4.278
98654W        W70325  38.356  40.515   1.793
98655W        W70326  24.972  23.005  12.209
98656W        W70327  28.053  38.576  11.004
98657W        W70328  27.909   8.706   3.643
98658W        W70329  25.762  17.679  13.148
98659W        W70330  24.222  15.162  14.770
98660W        W70331   7.793  40.328   2.882
98661W        W70332  42.361   8.631  12.943
98662W        W70333  37.546  20.604  13.399
98663W        W70334   9.153   2.017  10.794
98664W        W70335  10.890  33.184   1.354
98665W        W70336  18.240  32.091   1.702
98666W        W70337   8.693  17.722   4.255
98667W        W70338   1.149   1.216  14.181
98668W        W70339  37.496  11.424   2.384
98669W        W70340   6.868  40.820  10.752
98670W        W70341   0.825  12.152   4.632
98671W        W70342  26.420  24.288   3.241
98672W        W70343  40.111  42.211  14.922
98673W        W70344  27.187  34.023   2.793
98674W        W70345  24.393  25.617   1.770
98675W        W70346  40.470  10.561  13.074
98676W        W70347  41.046  27.607   0.832
98677W        W70348  24.152  28.139  11.084
98678W        W70349  36.060  28.527   4.181
98679W        W70350  32.007  41.968   2.413
98680W        W70351  26.592  13.660  13.343
98681W        W70352  32.812  24.992  13.978
98682W        W70353  44.382   0.298   0.580
98683W        W70354  35.150  37.608  14.139
98684W        W70355  24.082  14.040  14.807
98685W        W70356   6.226  21.179   0.843
98686W        W70357  29.409  33.115  10.497
98687W        W70358  34.081  13.758  13.357
98688W        W70359  26.664  13.047  12.488
98689W        W70360  37.104   2.847   0.000
98690W        W70361  17.266  37.963   3.183
98691W        W70362  41.316   0.276  12.004
98692W        W70363  18.528   1.486  11.504
98693W        W70364   8.710  42.948  13.129
98694W        W70365  11.866  23.040  14.706
98695W        W70366  19.223  27.173   2.860
98696W        W70367   0.175  43.574  14.955
98697W        W70368  44.037   2.436  12.056
98698W        W70369  16.718  36.967  11.934
98699W        W70370   5.231  17.336  10.561
98700W        W70371  16.998  13.398  11.200
98701W        W70372  11.770  43.967   0.456
98702W        W70373  21.509  27.991  11.922
98703W        W70374  27.915  19.806  11.118
98704W        W70375   7.808  29.802  10.757
98705W        W70376  36.980  26.269   4.513
98706W        W70377  21.717  18.611   0.323
98707W        W70378   5.417  21.790   0.822
98708W        W70379   7.419  29.065   1.685
98709W        W70380  17.849  19.617  11.603
98710W        W70381  17.684  34.844  10.567
98711W        W70382  22.867  35.460   2.808
98712W        W70383  30.666  17.640  13.827
98713W        W70384  31.612  40.963   0.736
98714W        W70385  33.127   6.821   4.681
98715W        W70386  38.016  30.172  12.039
98716W        W70387  34.464  25.152   2.379
98717W        W70388  42.720  10.887   4.242
98718W        W70389  40.975  40.393  12.204
98719W        W70390  15.070   5.737  14.384
98720W        W70391  16.254  20.080   2.830
98721W        W70392  31.914  35.016  13.786
98722W        W70393  16.798  38.912   4.076
98723W        W70394  23.842  13.212  12.032
98724W        W70395  13.186  15.297  12.175
98725W        W70396  10.142  10.413  10.183
98726W        W70397  25.057   2.008  13.392
98727W        W70398  16.546  40.086  12.117
98728W        W70399  26.942  17.099  10.551
98729W        W70400  26.478  11.132  10.672
98730W        W70401  34.994  22.024  13.995
98731W        W70402  40.944  18.885   2.038
98732W        W70403  12.559  16.235  11.485
98733W        W70404  37.561  21.190  11.937
98734W        W70405  16.953  37.903  14.825
98735W        W70406   0.692  26.998  14.824
98736W        W70407  21.699   4.799  13.828
98737W        W70408  25.703   6.199   1.453
98738W        W70409  36.792  17.909   2.071
98739W        W70410  23.234  23.303  13.461
98740W        W70411  25.335  35.872   2.786
98741W        W70412  17.248  25.168  10.711
98742W        W70413  32.948  21.817   2.789
98743W        W70414  17.713  28.559   4.524
98744W        W70415  11.422   1.720  11.154
98745W        W70416  44.387  19.679   0.942
98746W        W70417  13.701  32.759   2.339
98747W        W70418   8.670  19.762  13.186
98748W        W70419  11.636   9.658  14.378
98749W        W70420   6.675  37.323   0.216
98750W        W70421  24.134   8.128   1.773
98751W        W70422  11.108   8.556  11.583
98752W        W70423  34.114   5.353   2.316
98753W        W70424  32.026  27.480   3.146
98754W        W70425  35.405  13.278  11.561
98755W        W70426  29.744   9.933  13.603
98756W        W70427  40.552  15.999   0.372
98757W        W70428  10.040   2.870   4.279
98758W        W70429  42.861  11.904   2.614
98759W        W70430  18.930  12.867   2.710
98760W        W70431  43.126  32.929   3.775
98761W        W70432  11.203  34.616  12.862
98762W        W70433  11.637  19.242  11.400
98763W        W70434  39.423  19.241   3.407
98764W        W70435  17.514  37.610  11.990
98765W        W70436  41.383  43.523   4.550
98766W        W70437  36.515  34.870  11.347
98767W        W70438  19.056  40.788  13.558
98768W        W70439  42.819  26.176   4.237
98769W        W70440  11.716  23.720  12.998
98770W        W70441  18.349  19.203  12.150
98771W        W70442   3.208  28.093   0.526
98772W        W70443  10.399  35.445   1.668
98773W        W70444  12.131  29.198  11.881
98774W        W70445  34.374  17.718   2.627
98775W        W70446  12.413  14.784   3.031
98776W        W70447  43.024   2.530  14.035
98777W        W70448  31.866  36.432   3.136
98778W        W70449   5.777  21.609   3.620
98779W        W70450  28.676  28.025   4.253
98780W        W70451  12.426  23.680   4.781
98781W        W70452  29.981  24.464  13.034
98782W        W70453  19.367   2.789  12.916
98783W        W70454  27.560  15.188   3.167
98784W        W70455  11.766  16.173   1.242
98785W        W70456  13.136  26.842   2.203
98786W        W70457   1.267   8.067   1.471
98787W        W70458  21.273  19.388  13.775
98788W        W70459  36.614  19.688  11.663
98789W        W70460   7.807  13.325   3.926
98790W        W70461  22.419  42.279  13.499
98791W        W70462  11.264  41.628   4.516
98792W        W70463   3.425  20.458   5.703
98793W        W70464  24.126   2.663  11.143
98794W        W70465  29.116  42.334   3.414
98795W        W70466  25.434  16.661  10.981
98796W        W70467  42.898  16.552   2.856
98797W        W70468  38.425  23.063  10.908
98798W        W70469  39.065  28.679   1.384
98799W        W70470  37.815  23.186  11.534
98800W        W70471   7.834  12.137   5.018
98801W        W70472   2.023  37.794  13.467
98802W        W70473   5.824   8.737  11.616
98803W        W70474  22.052  25.262  12.335
98804W        W70475  29.666  43.602   0.247
98805W        W70476  44.936   5.253   3.701
98806W        W70477  15.773   8.453  14.789
98807W        W70478  28.089  15.432   3.880
98808W        W70479  39.325  31.370   0.808
98809W        W70480  31.680  19.127   3.343
98810W        W70481  14.564  25.272  10.264
98811W        W70482   7.318  37.043  14.478
98812W        W70483  10.252  14.815   5.120
98813W        W70484  35.139  28.423   0.527
98814W        W70485  32.023  19.604  11.213
98815W        W70486  36.364  28.623   3.718
98816W        W70487  21.599  38.708   4.513
98817W        W70488  21.828  11.616   4.198
98818W        W70489  39.677  31.985   1.787
98819W        W70490  25.144  44.279  12.911
98820W        W70491   7.187  35.357  14.839
98821W        W70492  30.942  17.137  13.918
98822W        W70493  14.241  24.741  12.495
98823W        W70494  36.638  15.609  10.456
98824W        W70495  29.797  37.933   3.174
98825W        W70496  26.069  28.360  10.924
98826W        W70497  42.243  14.693   1.773
98827W        W70498  43.055  11.787   1.797
98828W        W70499  36.051  37.930   1.406
98829W        W70500  37.466  28.477  11.677
98830W        W70501  18.882  17.206   4.752
98831W        W70502  37.455  16.062   0.371
98832W        W70503  21.070  30.034   2.640
98833W        W70504  25.234   9.199   4.384
98834W        W70505   4.654  40.333  14.879
98835W        W70506  19.413  19.110  14.875
98836W        W70507  34.443   3.796   4.876
98837W        W70508  30.493  26.680  12.870
98838W        W70509  33.531  30.741  13.546
98839W        W70510   8.182  37.714   5.146
98840W        W70511   5.947  44.844   0.017
98841W        W70512  23.478  24.241   3.701
98842W        W70513   0.903  44.255  12.418
98843W        W70514   4.266  29.042   2.316
98844W        W70515  11.654   8.883   2.856
98845W        W70516   8.721   9.435  13.705
98846W        W70517  31.820  15.663  13.585
98847W        W70518  17.331  28.265  10.297
98848W        W70519  38.758   8.258   1.343
98849W        W70520  11.860  30.699   3.608
98850W        W70521  36.002  30.022  13.814
98851W        W70522  23.666   8.917   4.172
98852W        W70523  44.550  28.531  11.694
98853W        W70524  26.708  25.460  11.526
98854W        W70525   0.771  14.275  11.894
98855W        W70526  34.392   5.439   3.750
98856W        W70527  19.126  11.111  14.358
98857W        W70528  37.456   0.533   0.717
98858W        W70529   4.840  25.178   3.802
98859W        W70530   8.438  43.898   3.779
98860W        W70531  44.982  30.548   3.613
98861W        W70532  42.861  22.544  12.473
98862W        W70533  20.217  25.253  14.308
98863W        W70534  28.797  12.394  14.762
98864W        W70535  13.855  13.233  10.469
98865W        W70536  26.892   7.773   1.417
98866W        W70537  22.420  13.663   1.963
98867W        W70538   7.898  22.985   3.148
98868W        W70539   8.610  38.373  12.480
98869W        W70540  36.322   3.888  12.119
98870W        W70541  44.830  34.679  14.309
98871W        W70542  33.906  10.852  11.962
98872W        W70543  18.161   3.861   2.783
98873W        W70544  36.018  38.079  11.437
98874W        W70545  22.447  31.171   4.058
98875W        W70546  31.920  36.820   0.907
98876W        W70547  38.827   4.309   2.251
98877W        W70548  38.344  33.134  11.451
98878W        W70549  25.079  30.535  14.411
98879W        W70550  27.680  31.601  11.976
98880W        W70551  21.910   6.837  12.978
98881W        W70552   1.848   3.010   0.725
98882W        W70553  20.556   0.206  11.604
98883W        W70554   9.313  27.839   2.342
98884W        W70555  12.767  31.550   5.006
98885W        W70556  12.750  39.878  13.515
98886W        W70557   5.006  39.022   3.334
98887W        W70558   4.366  35.887   0.820
98888W        W70559  32.503   0.336  10.765
98889W        W70560  13.846  20.563   2.200
98890W        W70561  11.288  29.014   3.768
98891W        W70562  10.726  17.990   2.910
98892W        W70563  27.062   1.636   4.323
98893W        W70564  42.838   0.806   3.414
98894W        W70565  29.056   5.234   3.669
98895W        W70566  39.750  19.557  14.192
98896W        W70567   5.654  26.462  14.523
98897W        W70568  30.695  42.389   4.868
98898W        W70569   2.906  37.581  14.303
98899W        W70570  26.094   5.288   3.322
98900W        W70571  27.829  17.265   4.089
98901W        W70572  28.013  34.417   1.306
98902W        W70573   5.906   7.166   2.582
98903W        W70574  29.066  12.291   2.396
98904W        W70575  29.073  18.164   0.645
98905W        W70576  10.451  22.212   0.862
98906W        W70577  12.686  43.349  12.131
98907W        W70578  28.167  41.150   1.353
98908W        W70579  11.389  10.714  14.835
98909W        W70580  44.878  43.772   3.160
98910W        W70581   2.763  26.048   4.886
98911W        W70582  27.429   9.850   9.611
98912W        W70583  17.052   4.845   0.161
98913W        W70584   9.928  18.061   2.268
98914W        W70585   4.169   9.724   2.005
98915W        W70586  12.579  34.897   3.805
98916W        W70587   0.819  18.712  11.044
98917W        W70588  13.276  44.374  12.571
98918W        W70589  12.302   5.958   4.563
98919W        W70590  30.566  28.082   0.411
98920W        W70591  35.546  36.663   3.203
98921W        W70592  26.095   2.438   1.916
98922W        W70593   1.343  43.781   4.193
98923W        W70594  40.476  25.963   1.289
98924W        W70595   9.322  32.627   4.769
98925W        W70596  42.814  11.309  14.340
98926W        W70597  31.116   2.293   2.959
98927W        W70598  18.359  12.516  11.348
98928W        W70599  12.573   2.435  14.234
98929W        W70600  22.208  28.974   0.339
98930W        W70601  42.265   4.390  13.298
98931W        W70602  32.781   6.741   4.244
98932W        W70603  24.637  44.944  14.436
98933W        W70604  30.068  22.171  13.388
98934W        W70605  44.323  39.499  13.368
98935W        W70606  16.332   8.563  14.947
98936W        W70607  23.747  13.325  11.536
98937W        W70608  44.002  36.524   0.272
98938W        W70609   1.789  36.182   3.625
98939W        W70610   1.748  32.888   1.151
98940W        W70611  44.295  37.631   0.571
98941W        W70612  39.868   0.088  11.228
98942W        W70613  37.185   9.195  11.925
98943W        W70614  33.010  10.115  11.645
98944W        W70615  27.618  32.675   3.405
98945W        W70616  22.565  12.130   4.716
98946W        W70617  25.680  33.168   4.135
98947W        W70618  43.447  10.390  14.166
98948W        W70619  21.576  34.471  13.007
98949W        W70620  33.012  16.889   0.572
98950W        W70621   8.529  13.352  14.009
98951W        W70622  18.585  30.915   0.303
98952W        W70623  42.367  34.072   3.908
98953W        W70624  20.678   4.754  11.384
98954W        W70625  44.508  12.533  14.428
98955W        W70626  17.541  28.162  12.088
98956W        W70627  14.354   8.403   1.783
98957W        W70628  42.152   7.404  13.063
98958W        W70629   4.501  14.262  10.755
98959W        W70630  20.736  26.286  12.984
98960W        W70631  37.228  29.521   4.218
98961W        W70632   4.142  26.352   3.714
98962W        W70633   7.918  31.348   0.397
98963W        W70634   6.001  19.705   3.574
98964W        W70635  15.649   3.884   0.493
98965W        W70636  35.133  37.987  13.539
98966W        W70637  10.854  34.999  14.465
98967W        W70638   4.271   0.710   0.967
98968W        W70639  28.434  37.908   1.468
98969W        W70640  36.019  22.980  11.289
98970W        W70641  24.269  17.090  13.390
98971W        W70642  16.383  11.726   2.854
98972W        W70643   3.851  13.195   0.997
98973W        W70644  41.965  24.776   2.181
98974W        W70645  31.759  12.257  12.213
98975W        W70646  10.240  40.949  11.694
98976W        W70647   6.101  34.682   4.140
98977W        W70648   0.818  29.143  13.434
98978W        W70649  22.106  41.540  11.866
98979W        W70650   6.357  40.824  10.713
98980W        W70651  41.436  40.013   2.613
98981W        W70652   6.467  15.928   9.936
98982W        W70653   5.883   3.503  10.585
98983W        W70654  31.112   7.271  10.826
98984W        W70655  31.789  14.030   0.789
98985W        W70656  22.592  18.188  10.149
98986W        W70657  39.471  39.162   3.222
98987W        W70658  22.486  43.334  12.774
98988W        W70659  30.638  15.642  14.405
98989W        W70660  38.079  33.549  14.064
98990W        W70661  29.835  13.893  11.178
98991W        W70662   8.897  42.294   3.094
98992W        W70663  22.816   0.119  14.047
98993W        W70664  36.495  43.403  11.572
98994W        W70665  21.148   0.343  12.576
98995W        W70666  33.069  34.625  11.807
98996W        W70667  36.105   7.195   1.884
98997W        W70668   0.390   9.750   3.820
98998W        W70669  34.650  33.578   3.687
98999W        W70670  11.817  30.581  12.022
99000W        W70671  21.311   6.347   2.935
99001W        W70672  22.929   4.672  11.537
99002W        W70673   0.498   8.110   4.587
99003W        W70674  11.306  11.504   0.753
99004W        W70675  30.435  41.711  12.006
99005W        W70676  41.519  40.800  14.566
99006W        W70677   1.345  15.280  13.781
99007W        W70678   0.917  36.102   3.712
99008W        W70679  10.466   9.978   5.152
99009W        W70680  40.359  19.402  13.317
99010W        W70681  21.424   7.776   2.336
99011W        W70682  15.821  42.446   1.804
99012W        W70683  11.816  32.058  11.537
99013W        W70684  39.403  23.303  11.036
99014W        W70685  40.314  17.320   3.209
99015W        W70686  36.760  37.179   1.468
99016W        W70687  32.809  41.478   0.810
99017W        W70688  35.742  36.528  12.970
99018W        W70689  33.159  43.682  14.650
99019W        W70690  44.530  20.131  10.182
99020W        W70691  20.764  43.040   3.665
99021W        W70692   8.069  27.003  11.305
99022W        W70693  30.850   5.151   1.980
99023W        W70694  17.169   4.030  10.960
99024W        W70695  28.753   3.346  11.738
99025W        W70696  43.864  10.554   4.734
99026W        W70697   2.413  11.816  12.974
99027W        W70698  10.471  30.991  13.948
99028W        W70699   6.308  32.839  13.848
99029W        W70700  27.478  20.229   2.586
99030W        W70701  23.772  32.515   4.126
99031W        W70702  44.992  41.267   3.312
99032W        W70703  28.212   5.749  13.585
99033W        W70704   1.170  42.762  13.422
99034W        W70705   4.821  41.260   4.259
99035W        W70706  37.518  39.319  11.466
99036W        W70707   7.161  43.567  11.561
99037W        W70708  18.671  40.477   2.792
99038W        W70709  33.114  26.227  11.542
99039W        W70710  24.053  31.599   1.956
99040W        W70711  35.592  39.332   1.209
99041W        W70712  16.359  14.616   2.383
99042W        W70713  15.523  30.709  12.568
99043W        W70714   6.839  19.379   4.997
99044W        W70715  33.121  40.027   2.725
99045W        W70716   4.141  11.626  11.028
99046W        W70717  21.615  30.355  12.022
99047W        W70718  14.825   3.282  10.272
99048W        W70719  18.385  20.480  11.165
99049W        W70720  24.979   2.137  11.210
99050W        W70721  30.981  31.988  14.811
99051W        W70722  26.761  39.379  10.514
99052W        W70723   6.907  21.346  14.599
99053W        W70724  17.628  17.350   4.259
99054W        W70725  15.090  31.774   1.384
99055W        W70726   1.992  43.849  11.951
99056W        W70727  16.338  22.225  11.183
99057W        W70728   2.749  38.143   1.585
99058W        W70729  32.696  34.234  10.624
99059W        W70730  18.585  25.052  10.589
99060W        W70731  33.353  14.259   2.227
99061W        W70732  44.847  20.673  12.812
99062W        W70733  12.249  11.752  13.100
99063W        W70734  22.126  27.184  10.724
99064W        W70735  12.133  36.316   1.173
99065W        W70736  11.393  26.364   3.931
99066W        W70737  43.540  30.634  12.302
99067W        W70738  36.308   6.205   5.001
99068W        W70739  12.828  21.701  10.588
99069W        W70740  42.403   4.213   0.804
99070W        W70741  28.934  10.797   3.665
99071W        W70742  30.511  14.120   2.635
99072W        W70743  12.568   2.190   1.644
99073W        W70744   3.918  31.192   1.587
99074W        W70745  32.411  29.504   4.386
99075W        W70746  14.942  32.101   3.613
99076W        W70747  11.247  43.764  13.975
99077W        W70748  22.583   0.633  14.761
99078W        W70749  23.728   1.490  12.352
99079W        W70750  34.914  10.276   2.826
99080W        W70751  34.711   5.550  13.000
99081W        W70752  33.184  38.986  12.865
99082W        W70753   3.400   3.912   0.901
99083W        W70754  33.380   1.495  11.613
99084W        W70755   7.349  12.079  11.447
99085W        W70756  40.752   5.720   0.747
99086W        W70757  24.083   4.603   3.111
99087W        W70758  11.686   4.175  13.782
99088W        W70759   2.417  38.294   0.470
99089W        W70760  18.141   8.142  13.850
99090W        W70761  19.903  17.062  11.178
99091W        W70762  33.872  40.575  12.787
99092W        W70763  43.387  20.988  12.115
99093W        W70764  25.646  30.133  13.050
99094W        W70765  10.316  21.480   3.200
99095W        W70766  11.738   0.277  14.836
99096W        W70767  23.306  23.217  12.514
99097W        W70768  40.617  36.430   0.373
99098W        W70769  16.544  37.416  12.064
99099W        W70770  20.100  42.011   3.246
99100W        W70771  18.235   0.457   1.893
99101W        W70772   2.320   0.879  14.934
99102W        W70773  13.775   6.132   3.160
99103W        W70774  19.302  36.934   0.860
99104W        W70775  22.437   8.170   0.531
99105W        W70776  14.342  35.319   0.768
99106W        W70777   5.591  21.451   1.644
99107W        W70778  34.497  34.104   1.635
99108W        W70779  18.574  17.793  13.128
99109W        W70780  44.993  26.585  10.714
99110W        W70781  19.692  14.684   2.859
99111W        W70782  22.753  36.333  14.739
99112W        W70783  12.612  44.324   3.560
99113W        W70784  32.692   9.705   2.417
99114W        W70785   4.274   2.678  13.084
99115W        W70786   4.600  11.164   2.712
99116W        W70787  34.053   4.961   2.673
99117W        W70788  29.207  26.405  10.452
99118W        W70789   3.671  43.415   5.425
99119W        W70790   7.524  34.902   2.687
99120W        W70791  40.235  14.034   3.055
99121W        W70792  14.044  14.797   1.819
99122W        W70793  19.365  13.652   5.127
99123W        W70794   2.498   0.973   2.313
99124W        W70795  21.915  41.924   5.070
99125W        W70796  19.914  41.865   0.294
99126W        W70797   2.945  34.101   1.961
99127W        W70798   3.519  33.504  14.860
99128W        W70799  15.308  41.314   1.860
99129W        W70800  23.986   7.825  14.784
99130W        W70801  27.114  33.287   0.588
99131W        W70802  40.962  16.567   2.053
99132W        W70803  35.398   6.744   0.206
99133W        W70804  14.538  37.215  12.245
99134W        W70805  14.553   7.274   9.766
99135W        W70806   6.295   8.222   4.224
99136W        W70807  41.456  12.044   4.340
99137W        W70808  28.248  16.501  14.570
99138W        W70809  14.565  42.739   3.350
99139W        W70810   8.735  30.166  14.739
99140W        W70811   9.827  11.182  14.216
99141W        W70812  12.777   5.284  14.267
99142W        W70813   5.612   2.332  13.881
99143W        W70814   9.519   1.621   4.163
99144W        W70815  13.636   1.191  11.586
99145W        W70816  17.251  32.450   4.560
99146W        W70817  14.182  28.419  11.011
99147W        W70818  37.195  21.452  11.703
99148W        W70819  25.036  39.757  14.281
99149W        W70820  36.986  11.256   4.672
99150W        W70821  44.830  33.310  10.709
99151W        W70822  15.329  29.475   4.653
99152W        W70823  17.104  41.091   0.220
99153W        W70824   1.055  20.246  14.781
99154W        W70825   2.377  17.781  13.876
99155W        W70826  37.122  43.985   3.743
99156W        W70827   8.274  31.917   1.213
99157W        W70828  24.155  21.580  11.015
99158W        W70829  34.381  17.638  12.579
99159W        W70830   8.815  22.735  13.481
99160W        W70831  13.691  10.740  13.021
99161W        W70832   6.714  32.023  12.998
99162W        W70833  32.979   2.984  13.458
99163W        W70834  14.562  17.414  14.426
99164W        W70835  12.558  41.374  12.815
99165W        W70836  14.463  32.680   1.846
99166W        W70837   6.266  27.383  11.105
99167W        W70838  44.187  11.660   2.739
99168W        W70839  14.090   0.731  11.145
99169W        W70840   9.145  23.651   3.382
99170W        W70841  26.460   6.775  14.380
99171W        W70842  10.202  23.038   2.494
99172W        W70843  38.341  13.258  13.678
99173W        W70844   8.905   9.019   4.645
99174W        W70845  28.104  20.991   3.732
99175W        W70846  16.358  10.848   3.957
99176W        W70847  10.446  35.861  13.117
99177W        W70848   1.956  12.749  12.451
99178W        W70849  17.241  26.044  13.925
99179W        W70850  27.481   9.343  14.799
99180W        W70851  17.912  42.271  11.561
99181W        W70852  23.164   7.066   4.164
99182W        W70853   4.680  11.841   3.260
99183W        W70854  43.294  26.254   1.449
99184W        W70855  35.888   3.740   2.288
99185W        W70856   3.376  19.701   3.611
99186W        W70857  15.914   7.632  12.701
99187W        W70858   8.687  23.987  11.939
99188W        W70859  41.152  17.183   4.945
99189W        W70860  30.404  24.279   2.811
99190W        W70861  39.280  18.525  14.329
99191W        W70862  28.011  30.176   0.469
99192W        W70863  34.241   2.904   4.127
99193W        W70864  43.536  31.026  12.628
99194W        W70865  17.157  28.445  14.745
99195W        W70866  23.119  23.339   2.166
99196W        W70867  39.321  43.984   4.516
99197W        W70868   2.533  34.946   3.390
99198W        W70869  19.291   0.298   2.702
99199W        W70870  12.599  43.443  10.785
99200W        W70871  17.865  42.979   3.105
99201W        W70872   7.458  29.384  12.077
99202W        W70873  24.209  12.750   4.102
99203W        W70874  20.289  32.595   3.653
99204W        W70875   6.636   7.599  10.575
99205W        W70876  25.649   8.443  13.515
99206W        W70877  39.957   1.364  13.632
99207W        W70878  26.609   5.668  10.582
99208W        W70879  16.421  38.538  14.474
99209W        W70880  19.339  37.172  11.458
99210W        W70881  29.627  41.192   2.239
99211W        W70882  39.642  26.308  11.414
99212W        W70883  19.431  40.663  11.025
99213W        W70884   2.295  40.360  11.109
99214W        W70885  22.417  32.892   0.385
99215W        W70886  25.324  15.329   3.214
99216W        W70887  16.201  12.174   2.671
99217W        W70888  35.449  35.712  13.783
99218W        W70889  34.653  34.577  10.923
99219W        W70890  11.061  34.923  10.559
99220W        W70891   7.942  43.221   2.073
99221W        W70892  37.781  35.613   4.467
99222W        W70893   1.839   5.919   4.519
99223W        W70894  39.868  35.986  10.813
99224W        W70895  25.599   6.424  13.922
99225W        W70896   8.345  41.937  10.479
99226W        W70897  26.135  25.088   4.603
99227W        W70898  20.965  28.611   2.246
99228W        W70899  13.378  36.045   0.411
99229W        W70900  26.090   3.854  14.907
99230W        W70901   1.028  30.460   1.674
99231W        W70902   6.806  37.078  10.660
99232W        W70903  41.608   5.271   0.487
99233W        W70904  39.812   9.435  11.009
99234W        W70905  11.333  28.754  13.360
99235W        W70906  41.768  17.159  12.011
99236W        W70907  33.277  24.031   4.236
99237W        W70908  23.542  44.497  12.401
99238W        W70909  36.317   8.950  12.909
99239W        W70910  33.698  19.551   4.903
99240W        W70911   3.953  38.021  10.623
99241W        W70912  40.322  37.820   2.380
99242W        W70913   3.187   8.420  13.341
99243W        W70914  31.602  33.372  11.081
99244W        W70915  10.038   1.487  12.986
99245W        W70916   9.480  34.311  13.403
99246W        W70917  41.594  11.191  10.992
99247W        W70918  36.148  28.523   0.765
99248W        W70919  14.325  23.262  14.250
99249W        W70920   4.813  42.579   0.372
99250W        W70921  35.590  31.505  14.781
99251W        W70922  26.962  22.776  13.102
99252W        W70923  18.250  30.297   4.272
99253W        W70924   3.720  29.091   4.231
99254W        W70925  37.432  15.303   2.584
99255W        W70926  13.089  26.499   1.361
99256W        W70927  37.976   1.270   3.687
99257W        W70928  27.032  14.175   0.406
99258W        W70929  16.940  12.936   2.225
99259W        W70930  25.839  29.006   3.601
99260W        W70931   6.366  41.578   3.173
99261W        W70932  10.648  18.887   4.865
99262W        W70933  17.867  40.914  11.702
99263W        W70934  28.766  34.623   0.926
99264W        W70935  11.122  35.312  11.756
99265W        W70936   6.426   5.526  10.158
99266W        W70937   3.282  43.577   2.323
99267W        W70938   2.875  17.686  13.740
99268W        W70939  43.835  28.077   0.306
99269W        W70940  21.463   5.795  14.533
99270W        W70941  27.501  34.229  13.919
99271W        W70942  40.959  43.236  11.123
99272W        W70943  18.800  33.186   5.143
99273W        W70944  21.457  32.989  13.817
99274W        W70945  11.768  29.811  12.498
99275W        W70946   5.516  11.831   0.165
99276W        W70947  10.890  24.072   1.350
99277W        W70948  23.062  22.599   3.404
99278W        W70949  25.581  36.599  14.985
99279W        W70950  40.544  24.718  10.475
99280W        W70951  16.497  33.478  12.348
99281W        W70952  29.552  22.122   4.539
99282W        W70953  13.195  16.151  12.465
99283W        W70954   3.816  30.538  12.069
99284W        W70955  23.507  15.610   4.651
99285W        W70956  35.340  26.122  13.251
99286W        W70957   9.512  38.017   1.026
99287W        W70958  12.826  12.137  14.956
99288W        W70959  37.656   2.167  10.843
99289W        W70960  34.485   0.247  11.231
99290W        W70961  13.071  13.514   3.020
99291W        W70962  34.894  13.897   1.264
99292W        W70963  41.431  27.418  11.568
99293W        W70964  43.875  13.689  14.042
99294W        W70965  42.023  13.265  13.488
99295W        W70966  43.426  24.172  14.711
99296W        W70967   6.717   9.062  14.545
99297W        W70968  25.920  44.738  10.623
99298W        W70969  21.688  21.591  13.087
99299W        W70970  44.560  10.337  10.701
99300W        W70971  41.753   4.960   4.988
99301W        W70972  43.815  25.605   3.383
99302W        W70973  34.526  15.063   4.101
99303W        W70974  22.488  38.125  11.618
99304W        W70975  19.785  28.543  10.615
99305W        W70976  13.335  10.579   0.405
99306W        W70977  24.465  23.254   2.350
99307W        W70978  34.762  40.838   3.377
99308W        W70979  37.574  34.890  13.577
99309W        W70980  43.901   9.383  13.424
99310W        W70981   6.246   3.102   0.412
99311W        W70982   5.695   1.254  14.960
99312W        W70983  16.369  42.808  14.445
99313W        W70984  11.400  27.905  14.011
99314W        W70985   3.863  30.120  12.495
99315W        W70986  38.322  11.629   1.395
99316W        W70987   3.423  18.768  11.601
99317W        W70988  19.912  40.865  12.418
99318W        W70989  14.847   0.940  11.977
99319W        W70990  16.058   2.714   3.781
99320W        W70991  42.833  30.108   3.826
99321W        W70992   5.827  11.786  10.836
99322W        W70993  35.981  22.908  12.681
99323W        W70994  26.497  21.517   0.831
99324W        W70995  44.290  19.242  11.515
99325W        W70996  42.068  35.084  11.106
99326W        W70997  21.963   6.838   2.260
99327W        W70998  19.652  13.283  12.804
99328W        W70999   1.729  32.822   1.699
99329W        W71000   3.465  31.983   2.960
99330W        W71001   7.933  35.236   5.008
99331W        W71002  29.091   5.401   0.268
99332W        W71003   9.256  16.596  14.543
99333W        W71004  20.070  22.106   0.961
99334W        W71005  31.148   7.189   2.752
99335W        W71006  12.678  40.893  13.509
99336W        W71007  42.910  23.396   1.472
99337W        W71008  44.233  23.430   0.709
99338W        W71009  10.887  42.742  13.761
99339W        W71010   4.849  30.894  14.364
99340W        W71011  30.243  35.053   1.850
99341W        W71012  29.228   9.355  12.577
99342W        W71013  31.034  28.882  12.968
99343W        W71014   0.156  19.786  11.599
99344W        W71015  44.097  20.105  13.827
99345W        W71016   0.061  20.729   2.338
99346W        W71017  38.313  21.740  12.215
99347W        W71018   0.863  18.823  12.731
99348W        W71019  35.773  18.319  11.073
99349W        W71020  36.381  13.662  10.647
99350W        W71021  42.308  18.546   1.654
99351W        W71022  24.077  12.305   4.327
99352W        W71023  39.435   0.458  11.298
99353W        W71024  26.944  21.627   1.862
99354W        W71025  24.113  29.870   4.449
99355W        W71026   6.412   2.701   3.070
99356W        W71027  37.485  10.186  13.912
99357W        W71028  25.162  44.479   3.730
99358W        W71029  12.825  32.628   0.375
99359W        W71030   7.852  14.312   3.806
99360W        W71031  32.129   4.128   3.855
99361W        W71032  20.579   0.268  14.832
99362W        W71033  27.941  21.605  12.995
99363W        W71034  12.714  20.095  13.993
99364W        W71035  22.039   6.368   1.317
99365W        W71036  44.833  35.534   3.299
99366W        W71037  43.690  22.254   0.855
99367W        W71038  27.417   9.574  13.470
99368W        W71039  40.933  18.722   2.521
99369W        W71040  38.464  32.576   0.258
99370W        W71041  24.111  30.454  10.428
99371W        W71042  30.179   1.245   4.086
99372W        W71043   1.192  24.608  11.056
99373W        W71044  18.375  35.125  14.260
99374W        W71045  44.722  44.495   4.522
99375W        W71046  20.358  28.554  11.597
99376W        W71047   7.831   9.753   0.747
99377W        W71048  32.453  40.367  13.982
99378W        W71049  35.918  34.574   0.980
99379W        W71050  19.196  24.857  12.046
99380W        W71051   7.185   2.030  14.878
99381W        W71052   0.681  30.471   4.220
99382W        W71053  12.156  38.531   2.714
99383W        W71054  28.098  35.557  14.960
99384W        W71055  41.008  33.112   4.827
99385W        W71056  14.916   2.103   3.168
99386W        W71057  12.533  29.102   3.232
99387W        W71058  42.914  14.749   4.937
99388W        W71059  28.402  44.714   1.809
99389W        W71060  23.508   6.692  14.550
99390W        W71061  18.323  36.029  14.287
99391W        W71062   6.940  33.451  14.494
99392W        W71063  25.629  29.710   0.425
99393W        W71064  38.902  18.531   3.158
99394W        W71065  30.583  38.461   1.245
99395W        W71066   7.677  12.624   4.819
99396W        W71067  21.665  24.263   2.670
99397W        W71068   0.732  41.073   4.800
99398W        W71069  24.180  21.492  11.897
99399W        W71070   0.203   0.014  10.723
99400W        W71071  10.819  27.031   4.589
99401W        W71072  39.316  11.163  14.474
99402W        W71073  16.726  18.767  12.688
99403W        W71074   4.803  25.533  14.413
99404W        W71075  14.337  27.979   3.644
99405W        W71076  24.254  11.833   1.306
99406W        W71077   7.018  36.149  13.961
99407W        W71078   6.781  36.589  12.684
99408W        W71079  39.986   3.639   1.682
99409W        W71080  14.207  39.799   2.096
99410W        W71081  21.279   9.198  14.272
99411W        W71082   3.856   4.112  14.865
99412W        W71083  21.588  22.455   2.482
99413W        W71084  25.552  18.865   5.418
99414W        W71085  25.605  28.221  14.036
99415W        W71086   3.321  35.787  10.668
99416W        W71087   9.856  18.083   2.982
99417W        W71088  31.153  22.209   3.274
99418W        W71089  19.205   7.319   1.717
99419W        W71090  12.275  11.280   4.718
99420W        W71091   2.414  39.979   3.901
99421W        W71092  42.351  16.426   0.795
99422W        W71093  16.754  23.006  10.689
99423W        W71094  29.977  37.173   1.717
99424W        W71095  25.662  15.173  14.358
99425W        W71096  10.359  11.195  14.324
99426W        W71097  21.302  38.924   1.306
99427W        W71098  24.033   5.885   3.202
99428W        W71099   3.356   3.875  13.938
99429W        W71100  40.949  21.939  14.888
99430W        W71101  34.291   2.100  13.420
99431W        W71102   5.827  33.398  13.076
99432W        W71103   9.736   0.296  14.584
99433W        W71104  12.311  40.096  14.872
99434W        W71105  26.216  44.550  14.996
99435W        W71106  29.940  30.059  10.324
99436W        W71107  13.409   8.838   4.085
99437W        W71108  14.057   0.405   2.649
99438W        W71109  22.519  34.259  11.414
99439W        W71110  34.894   5.206   1.813
99440W        W71111   0.260   2.182  10.729
99441W        W71112  43.975   9.099   2.187
99442W        W71113   2.635  22.118   0.888
99443W        W71114  20.301  14.642   5.020
99444W        W71115  21.704  29.366   0.301
99445W        W71116   6.855  36.356  11.719
99446W        W71117  35.343  32.601  13.352
99447W        W71118  40.597   0.849  10.917
99448W        W71119  40.787  23.936  10.818
99449W        W71120  24.090  42.457  11.566
99450W        W71121  36.564  31.299   2.853
99451W        W71122   5.198   9.307   3.662
99452W        W71123   9.275  40.932   3.619
99453W        W71124  34.539  44.080  14.403
99454W        W71125  36.488  10.647   2.364
99455W        W71126  43.340   7.958   1.991
99456W        W71127  20.887   7.868   5.153
99457W        W71128  38.065  11.192  11.770
99458W        W71129  43.289  28.475   1.421
99459W        W71130  42.964  42.580   4.322
99460W        W71131   6.038  32.091   1.821
99461W        W71132   4.683  17.352   4.157
99462W        W71133  15.374  27.514  12.111
99463W        W71134  37.720  22.934   3.633
99464W        W71135   3.537  15.678   4.181
99465W        W71136   8.179   7.811   3.678
99466W        W71137  25.411  12.900   2.355
99467W        W71138   3.368  38.511  13.550
99468W        W71139  22.068   3.893   3.990
99469W        W71140  23.198  14.547   0.022
99470W        W71141  30.536  30.673  13.483
99471W        W71142  16.144  21.519  12.870
99472W        W71143  33.924   5.301   1.774
99473W        W71144  43.028  12.159   0.496
99474W        W71145   8.571  43.934   0.522
99475W        W71146  25.198  22.716   0.742
99476W        W71147   7.678  39.429   4.108
99477W        W71148  42.063  41.878   2.715
99478W        W71149  37.049  12.680   3.675
99479W        W71150   3.838  11.805  12.461
99480W        W71151  40.499  23.047   4.081
99481W        W71152  43.426  38.315   5.533
99482W        W71153  41.540  31.891   1.464
99483W        W71154  38.031  13.693  12.243
99484W        W71155  36.976  14.867   0.794
99485W        W71156  31.439   8.433   4.635
99486W        W71157  39.279  20.977   0.887
99487W        W71158  32.141  42.491  13.785
99488W        W71159   7.327  28.550   4.514
99489W        W71160  16.031   6.561  10.612
99490W        W71161  17.434   0.457  14.823
99491W        W71162  20.993   5.984   3.975
99492W        W71163  41.793  25.624  11.522
99493W        W71164  17.637  38.961  13.282
99494W        W71165  43.037  14.838   1.260
99495W        W71166   2.243  16.299  14.009
99496W        W71167  37.277  29.665  12.292
99497W        W71168  15.190  25.940   2.874
99498W        W71169   7.195  24.944  11.941
99499W        W71170  23.998  19.219   0.906
99500W        W71171  26.394  23.415  12.426
99501W        W71172  29.356  34.526   2.410
99502W        W71173   9.217  26.417  13.687
99503W        W71174  26.790  30.401   4.088
99504W        W71175  16.899  19.448  11.119
99505W        W71176   0.969  16.968  10.147
99506W        W71177  11.671  23.254  12.783
99507W        W71178   9.755  42.424  12.423
99508W        W71179  38.603  23.098   1.298
99509W        W71180  32.715  32.798  11.153
99510W        W71181   4.606  26.432   2.177
99511W        W71182  34.110  35.357   0.430
99512W        W71183  39.903  34.445  13.928
99513W        W71184  22.056  12.321  12.861
99514W        W71185   9.420  44.787  13.757
99515W        W71186  12.693  12.067   1.030
99516W        W71187  27.555  33.708  13.969
99517W        W71188  38.867  38.902   2.246
99518W        W71189  24.013  17.336   2.732
99519W        W71190   3.203   6.419   2.544
99520W        W71191   0.184  18.090   3.296
99521W        W71192   7.702  19.787  11.990
99522W        W71193  36.782  13.293   0.738
99523W        W71194  42.804  15.527  14.288
99524W        W71195   9.799  24.108  14.975
99525W        W71196   0.320  34.438   1.828
99526W        W71197  43.351   5.307   4.634
99527W        W71198  28.906  37.324   3.238
99528W        W71199   9.838   1.182  13.445
99529W        W71200  44.279  26.567  13.913
99530W        W71201  37.665   9.228  13.082
99531W        W71202  34.791  13.874  11.439
99532W        W71203   9.157  12.788  10.597
99533W        W71204  44.462  24.078   3.296
99534W        W71205  44.251  43.527   4.632
99535W        W71206   1.155  27.049  11.879
99536W        W71207   8.554  27.264  12.128
99537W        W71208  34.096   9.399  14.038
99538W        W71209  24.630  13.749  11.746
99539W        W71210  18.224  33.039   3.212
99540W        W71211   6.877  15.334   1.738
99541W        W71212  31.305  15.058   2.853
99542W        W71213  35.944  19.584   0.454
99543W        W71214  43.780  27.619   2.055
99544W        W71215   9.772   4.753  14.812
99545W        W71216  43.029  25.875   1.664
99546W        W71217  15.023  17.418   3.845
99547W        W71218  10.366   5.115  11.948
99548W        W71219  37.945  11.727   1.737
99549W        W71220  22.077  14.698   3.597
99550W        W71221  16.643  16.211  13.409
99551W        W71222  24.091   4.961  14.570
99552W        W71223   7.513   0.853  11.656
99553W        W71224  44.419  29.082  14.776
99554W        W71225  40.073  18.162  14.326
99555W        W71226   1.348   2.358   2.793
99556W        W71227   4.941  40.503  10.690
99557W        W71228  31.173   0.873   2.331
99558W        W71229  15.431  21.125  14.427
99559W        W71230  30.206  43.879   1.160
99560W        W71231  41.348   6.869   0.067
99561W        W71232  43.087  24.261   0.248
99562W        W71233  33.285   7.268  12.072
99563W        W71234  25.019  13.631   1.893
99564W        W71235   8.639  28.519   1.768
99565W        W71236  41.718  38.997   9.850
99566W        W71237  22.041   0.326   1.878
99567W        W71238  27.291  11.220   4.156
99568W        W71239  14.278  25.661   3.287
99569W        W71240   0.030  42.532   2.974
99570W        W71241  23.022  41.342  12.867
99571W        W71242  25.051  34.910   0.589
99572W        W71243  11.807   3.835   3.699
99573W        W71244  14.150  27.135   3.361
99574W        W71245  19.741  43.168  11.041
99575W        W71246  26.478  20.277  13.443
99576W        W71247  12.364  41.928   2.043
99577W        W71248   9.584   6.463   0.508
99578W        W71249  40.322  11.733  12.513
99579W        W71250   8.262  28.564  12.855
99580W        W71251  37.920  38.624  11.585
99581W        W71252  33.502  41.835  13.227
99582W        W71253  40.550   8.813   0.247
99583W        W71254  16.480  13.837   0.554
99584W        W71255   7.416  11.692  12.422
99585W        W71256  12.926  28.619  10.991
99586W        W71257  40.415  39.289   0.945
99587W        W71258   6.849  19.119   0.354
99588W        W71259   8.538  22.464  10.774
99589W        W71260  33.750  18.622  11.568
99590W        W71261   3.693  41.938   1.722
99591W        W71262  19.819  31.875   4.144
99592W        W71263  25.443  35.024   3.602
99593W        W71264   7.064   0.318  14.362
99594W        W71265  42.015  23.276  10.631
99595W        W71266  14.340  36.372  12.070
99596W        W71267   7.435  10.322   2.113
99597W        W71268  18.636  27.517   2.870
99598W        W71269  16.248  34.888   2.619
99599W        W71270  19.018  20.522  14.068
99600W        W71271   9.487  13.846  12.025
99601W        W71272  16.339  41.821   1.398
99602W        W71273  32.201  24.523  12.646
99603W        W71274  40.030  20.681   2.619
99604W        W71275  25.477   6.944   3.629
99605W        W71276  30.475  17.543  11.511
99606W        W71277  29.108   2.550   4.255
99607W        W71278  23.402   9.489   0.754
99608W        W71279  16.544  31.481   2.696
99609W        W71280  30.032   4.187   1.965
99610W        W71281   2.124  11.669   3.229
99611W        W71282  16.209  14.807   3.688
99612W        W71283  12.268  38.461  12.264
99613W        W71284  19.610  22.790   3.829
99614W        W71285  39.967   3.641   0.866
99615W        W71286  18.121   1.606   2.314
99616W        W71287  14.366   2.516  12.534
99617W        W71288   9.053  42.474  13.639
99618W        W71289  35.046  32.604   4.282
99619W        W71290  40.462  39.570   0.253
99620W        W71291  20.821   2.994   3.311
99621W        W71292   3.844  40.756  14.706
99622W        W71293  44.223   9.715  14.199
99623W        W71294  28.786  42.207   3.796
99624W        W71295  28.276  38.170   5.009
99625W        W71296  39.308  44.823  10.043
99626W        W71297   7.262   1.451  12.460
99627W        W71298  19.511  35.522   3.534
99628W        W71299  13.306  43.986   0.990
99629W        W71300   5.732  28.029  12.182
99630W        W71301  18.035  10.358  14.369
99631W        W71302  32.934  44.917   1.655
99632W        W71303   9.657  40.348  14.569
99633W        W71304  14.155  36.581   0.369
99634W        W71305  19.055  29.411   1.446
99635W        W71306  29.159   9.677  11.962
99636W        W71307   0.450   0.732   4.444
99637W        W71308  16.224  27.447   1.638
99638W        W71309  42.906  22.138  12.890
99639W        W71310  12.453  44.814   0.420
99640W        W71311  19.084  30.399   0.004
99641W        W71312  25.806  18.505   0.432
99642W        W71313  28.422  11.700  11.023
99643W        W71314   2.665  28.384  14.057
99644W        W71315  41.998  11.661   2.623
99645W        W71316  12.023  30.557   5.019
99646W        W71317  25.500  24.316   4.931
99647W        W71318  25.179   1.479  13.461
99648W        W71319  43.938   1.959   4.070
99649W        W71320  25.290   1.263   3.521
99650W        W71321   6.875  39.451   1.368
99651W        W71322   3.558  37.459  12.947
99652W        W71323  30.642  18.146   4.588
99653W        W71324  20.088   0.041  12.918
99654W        W71325  26.485  34.065   4.484
99655W        W71326   8.768  30.882   5.043
99656W        W71327  43.397  38.838  14.891
99657W        W71328  19.815  10.409  11.542
99658W        W71329  33.917   5.836   3.839
99659W        W71330  15.384   3.890  10.382
99660W        W71331  23.178  42.465   3.482
99661W        W71332  20.074  10.401  14.892
99662W        W71333  26.409  41.572   3.907
99663W        W71334  39.959  43.635  11.010
99664W        W71335   4.482  40.058   4.324
99665W        W71336  22.331  30.966  14.314
99666W        W71337  43.211  42.033  11.078
99667W        W71338  25.955  33.957   3.749
99668W        W71339  28.093   4.709   0.483
99669W        W71340  15.330  31.667  12.947
99670W        W71341  12.477   0.724  12.079
99671W        W71342  31.044  22.580  14.726
99672W        W71343  43.003   4.900   4.209
99673W        W71344  33.511   1.170   9.989
99674W        W71345   1.770  19.916   3.785
99675W        W71346  29.613   5.378  12.756
99676W        W71347  40.992   2.740  13.752
99677W        W71348  20.897   2.386  10.702
99678W        W71349  42.717  11.137  10.164
99679W        W71350  35.997   3.053  11.919
99680W        W71351  26.515  44.730   1.907
99681W        W71352  12.996  14.932  11.212
99682W        W71353  33.894  22.315  13.446
99683W        W71354   3.852  25.707  11.701
99684W        W71355   7.629  31.536   4.401
99685W        W71356  12.266  27.017   2.143
99686W        W71357  16.724  11.195  11.694
99687W        W71358  19.814   5.689   0.397
99688W        W71359   1.448  25.196  13.966
99689W        W71360  36.333  25.643   0.466
99690W        W71361  28.044   2.985   1.562
99691W        W71362   8.832  20.448  13.864
99692W        W71363  30.526  28.207   4.041
99693W        W71364  20.789   6.846  14.806
99694W        W71365  25.604   1.454  14.468
99695W        W71366   5.279  20.747   2.958
99696W        W71367  35.581  14.615   2.699
99697W        W71368  31.031  16.354  12.462
99698W        W71369  42.266  18.456  14.299
99699W        W71370  28.973  23.560   2.341
99700W        W71371  43.911  41.954   1.490
99701W        W71372   0.320   8.181   4.119
99702W        W71373   5.190  27.135  12.136
99703W        W71374  35.078  27.099  10.693
99704W        W71375  19.462  26.391  14.275
99705W        W71376  18.827  16.194   4.612
99706W        W71377  38.870   6.359   3.182
99707W        W71378  16.217  18.153   3.707
99708W        W71379  23.582   5.208   2.740
99709W        W71380  22.812   4.062   0.247
99710W        W71381  21.155  40.735   1.028
99711W        W71382  40.493   5.019  13.773
99712W        W71383  35.812  31.971   3.721
99713W        W71384  27.855  24.571  12.269
99714W        W71385  32.109   5.479   4.228
99715W        W71386  23.999  43.493  11.133
99716W        W71387  15.847   8.254  13.108
99717W        W71388  15.167  29.238   2.326
99718W        W71389  28.505  39.127  11.458
99719W        W71390  22.155  23.617   5.173
99720W        W71391   7.311  24.093   1.541
99721W        W71392  22.221  38.505  13.863
99722W        W71393  31.390  42.922   3.775
99723W        W71394  20.098  18.578  11.075
99724W        W71395  10.594  13.219   2.234
99725W        W71396  12.508  33.481  14.286
99726W        W71397   8.255  34.565  13.971
99727W        W71398  11.400   9.746   1.353
99728W        W71399   3.517  12.818  13.369
99729W        W71400  30.684  11.529  12.586
99730W        W71401   0.857  40.767   2.896
99731W        W71402  33.086   3.982   1.958
99732W        W71403  38.806  10.610  11.949
99733W        W71404  10.845   2.429   4.321
99734W        W71405  38.788  38.420  12.491
99735W        W71406  12.677  12.175   2.950
99736W        W71407  33.919  26.696  10.894
99737W        W71408   2.305  35.262   3.010
99738W        W71409  37.388  12.067  10.731
99739W        W71410  40.324  23.005  11.541
99740W        W71411  16.594  36.759  13.484
99741W        W71412   6.648  24.123   0.919
99742W        W71413  20.997  16.204   0.249
99743W        W71414  36.389   9.731  11.864
99744W        W71415  31.038  25.256  11.499
99745W        W71416  14.326  14.696   3.797
99746W        W71417   7.353  36.288  11.619
99747W        W71418  41.040   6.770   2.281
99748W        W71419  36.075  36.828  13.539
99749W        W71420  20.066  44.832  12.018
99750W        W71421  31.150  18.778   4.954
99751W        W71422   5.359  16.855   4.652
99752W        W71423  38.869   4.000  13.849
99753W        W71424  35.500  25.964   4.643
99754W        W71425  36.691   1.990   3.685
99755W        W71426  25.970  32.188   2.984
99756W        W71427  38.379   0.905   2.711
99757W        W71428   3.347   7.209  10.330
99758W        W71429  17.441  44.732   1.349
99759W        W71430  10.793  32.115   0.988
99760W        W71431  39.022   4.907  10.088
99761W        W71432   6.360  34.641   3.248
99762W        W71433  34.098   5.023   3.627
99763W        W71434  19.666  18.191   3.179
99764W        W71435  21.882   7.821  10.686
99765W        W71436  28.444  37.393  11.054
99766W        W71437  43.924  27.512  14.221
99767W        W71438  18.721  25.550  10.617
99768W        W71439  10.836  18.174   1.209
99769W        W71440   9.144   4.261   0.168
99770W        W71441   2.788   3.726   2.666
99771W        W71442  20.958   2.724  13.830
99772W        W71443  26.793  28.528  14.551
99773W        W71444  32.999   7.012   3.064
99774W        W71445  21.251  23.419  10.574
99775W        W71446  37.990   5.847  11.045
99776W        W71447  34.408  40.465  12.749
99777W        W71448   4.464  10.338  13.387
99778W        W71449  37.315  19.350   0.317
99779W        W71450  36.008  37.047   2.051
99780W        W71451  29.416  35.532  11.617
99781W        W71452   2.995   9.839   0.833
99782W        W71453  43.685  12.324  11.919
99783W        W71454  17.362  26.424   0.964
99784W        W71455  40.334  12.340  10.503
99785W        W71456  25.588  22.039   1.242
99786W        W71457  43.618  24.276   4.604
99787W        W71458  43.795  38.217   1.778
99788W        W71459  10.343  32.316  12.977
99789W        W71460  44.251  20.206  12.960
99790W        W71461  18.455  12.871   2.425
99791W        W71462  30.554   9.589   4.091
99792W        W71463   0.689   5.323  10.433
99793W        W71464   3.295  39.641   3.808
99794W        W71465  14.698   6.248   0.306
99795W        W71466  37.066   4.441   1.748
99796W        W71467  14.187  25.361  13.475
99797W        W71468  31.688   6.789  13.950
99798W        W71469   7.378   4.349  14.206
99799W        W71470  23.976   6.399  13.380
99800W        W71471   2.868  26.598  10.606
99801W        W71472   7.149   3.426   5.000
99802W        W71473   6.400   5.736  14.213
99803W        W71474   0.307  13.878   2.922
99804W        W71475  36.545   7.619  11.700
99805W        W71476   2.456  28.030  14.985
99806W        W71477   2.694  16.220   0.756
99807W        W71478  18.628  11.299  14.378
99808W        W71479  23.718  43.552   1.182
99809W        W71480   7.281  19.239   4.233
99810W        W71481   7.634  32.702  14.507
99811W        W71482   6.468  34.499  11.648
99812W        W71483  18.291  16.691   3.805
99813W        W71484  31.108   1.209  14.866
99814W        W71485  25.479  27.452  14.889
99815W        W71486   8.567  43.033   2.752
99816W        W71487  30.889  43.781   4.318
99817W        W71488   6.280  16.369  12.996
99818W        W71489  42.275  34.360   0.934
99819W        W71490  26.157   2.506   4.311
99820W        W71491  23.489  39.906   0.760
99821W        W71492  34.527   8.858  13.385
99822W        W71493  20.395   8.962  12.808
99823W        W71494  11.632  27.443  10.823
99824W        W71495  30.940  40.730  14.513
99825W        W71496  36.427   6.110   3.144
99826W        W71497  39.914  44.532   3.650
99827W        W71498  16.988  12.405   2.259
99828W        W71499  27.032  31.047  14.514
99829W        W71500  12.609   9.904  12.838
99830W        W71501  39.605  14.059  12.166
99831W        W71502  14.338   8.837  11.942
99832W        W71503  31.445  43.369  10.772
99833W        W71504  42.457   5.837  11.188
99834W        W71505  12.505  23.194   3.827
99835W        W71506  22.069   4.711   1.857
99836W        W71507  44.303  29.374  12.640
99837W        W71508  17.659   1.114   0.336
99838W        W71509  26.337  43.584  12.559
99839W        W71510  42.069  12.053  14.000
99840W        W71511  13.563  19.529  13.993
99841W        W71512   8.809   0.764   3.710
99842W        W71513  23.790  30.663   2.695
99843W        W71514  41.161  36.365   0.459
99844W        W71515  37.253   3.786  12.792
99845W        W71516  16.219   8.785   3.697
99846W        W71517  15.571  21.007   1.395
99847W        W71518  12.579   9.745  10.981
99848W        W71519  25.693  34.644  13.977
99849W        W71520  29.191  18.765   0.007
99850W        W71521   4.679  12.701   0.382
99851W        W71522  42.831  39.327   4.117
99852W        W71523  42.288  13.091   3.827
99853W        W71524  12.583  30.525  11.585
99854W        W71525   1.604  32.105  14.413
99855W        W71526   4.091  11.012   2.378
99856W        W71527  28.974  43.602  13.569
99857W        W71528  32.234  12.318  13.488
99858W        W71529   0.204  12.314   0.867
99859W        W71530  13.741  15.367   4.970
99860W        W71531  10.448  25.482  13.849
99861W        W71532  44.340  14.683   2.202
99862W        W71533  31.436  21.591  12.711
99863W        W71534  25.270  22.653  13.947
99864W        W71535  18.090  42.442   1.174
99865W        W71536   0.163   7.658   4.217
99866W        W71537  14.271  19.587   3.311
99867W        W71538  18.535   7.640  13.543
99868W        W71539  40.548  31.923  12.516
99869W        W71540  22.648  17.978   3.593
99870W        W71541  12.000  37.736  13.483
99871W        W71542  10.152  11.090  11.015
99872W        W71543  34.427  26.933  11.429
99873W        W71544  35.021  35.661   0.526
99874W        W71545  28.987  18.550  10.488
99875W        W71546   4.438  38.341   3.571
99876W        W71547   3.885  32.586  12.496
99877W        W71548   0.889  26.449   2.017
99878W        W71549  41.530  12.920   3.429
99879W        W71550  17.265  21.360   4.446
99880W        W71551  31.997  26.908   1.720
99881W        W71552  16.164   8.332  13.496
99882W        W71553  16.852  30.176   0.339
99883W        W71554  30.501  42.009   4.174
99884W        W71555  17.144   6.523   4.281
99885W        W71556   8.713  21.739  11.571
99886W        W71557  32.535  16.082   1.416
99887W        W71558   4.925  33.654  14.188
99888W        W71559  41.861  28.367  14.469
99889W        W71560   4.881  37.243  13.383
99890W        W71561   0.789   3.458   4.166
99891W        W71562  28.528  23.184   1.006
99892W        W71563   3.872  27.337  12.455
99893W        W71564  20.743  44.461   2.712
99894W        W71565   6.387   1.250   3.291
99895W        W71566  34.403   1.260  14.520
99896W        W71567  15.833   2.089   0.900
99897W        W71568  13.510  29.167   3.220
99898W        W71569  35.038   7.332   0.899
99899W        W71570  14.025  44.772  12.845
99900W        W71571  24.003  16.773  11.079
99901W        W71572  40.386  43.251  12.841
99902W        W71573  13.812  23.482  13.048
99903W        W71574  23.197   5.106  11.545
99904W        W71575   2.537  17.561  12.467
99905W        W71576  14.176  28.923  11.016
99906W        W71577  29.675  21.944  10.680
99907W        W71578  22.246  27.543  12.127
99908W        W71579  31.025  39.587   2.310
99909W        W71580   9.693  30.990  12.915
99910W        W71581  13.324  32.424  13.534
99911W        W71582  30.413  22.148   3.923
99912W        W71583  16.705  19.005   2.145
99913W        W71584  15.325  13.503   4.322
99914W        W71585  43.802  41.926   0.268
99915W        W71586   3.619  38.461   1.897
99916W        W71587  19.990  19.707   0.465
99917W        W71588  42.859  26.085  12.442
99918W        W71589  23.874  34.468  10.693
99919W        W71590  26.586  43.831  14.017
99920W        W71591   7.400  23.134   0.120
99921W        W71592   5.747  40.804   2.282
99922W        W71593  44.887  36.632   0.368
99923W        W71594  34.427  23.764   0.833
99924W        W71595  26.054  16.072  11.571
99925W        W71596   2.251  18.964  12.545
99926W        W71597  16.108   3.720  12.388
99927W        W71598  22.756  24.760   3.572
99928W        W71599   5.190  33.991  13.075
99929W        W71600  23.422  14.697   2.644
99930W        W71601   2.208   7.786   2.208
99931W        W71602  13.207  10.869  14.832
99932W        W71603   8.848  17.641   1.752
99933W        W71604  40.499  30.722   2.868
99934W        W71605  27.542   8.236   1.878
99935W        W71606  35.703  24.489   0.177
99936W        W71607   9.315  38.806  10.497
99937W        W71608   3.674  12.559   3.136
99938W        W71609  37.969  10.286   2.607
99939W        W71610   8.742  39.616   1.227
99940W        W71611  11.253  43.192  14.813
99941W        W71612  31.859  21.725  12.990
99942W        W71613   8.344   9.597  14.906
99943W        W71614  18.286  14.527   1.811
99944W        W71615  17.240   6.458  13.804
99945W        W71616  11.266   7.680   9.881
99946W        W71617  19.624  16.564  13.652
99947W        W71618  36.289   6.998   4.180
99948W        W71619  42.224  25.868  11.747
99949W        W71620  39.074  19.575   0.453
99950W        W71621  28.736  37.063   4.910
99951W        W71622  27.502  12.369  12.694
99952W        W71623  16.298   2.173  10.604
99953W        W71624   7.389  41.405   1.629
99954W        W71625  26.016  16.105   0.314
99955W        W71626   7.356  39.833  11.545
99956W        W71627   4.432   9.400  10.714
99957W        W71628   6.711  25.640   4.377
99958W        W71629  31.168   9.243  11.615
99959W        W71630  12.122  12.386  14.267
99960W        W71631   7.899  22.803   1.461
99961W        W71632  12.708  38.989   2.366
99962W        W71633  18.640  36.097   3.640
99963W        W71634   8.292  28.549   0.514
99964W        W71635  10.433  39.942  13.942
99965W        W71636  22.067   9.069   4.168
99966W        W71637   9.988   1.855   4.242
99967W        W71638  35.489  29.485  10.724
99968W        W71639  24.564  16.512   0.728
99969W        W71640   9.301  27.713   0.485
99970W        W71641  42.230  13.901   4.932
99971W        W71642  42.048  31.976   2.349
99972W        W71643  23.994  34.627  13.088
99973W        W71644  15.361  34.161  10.918
99974W        W71645  27.062  22.469  13.535
99975W        W71646  36.552  39.884  14.970
99976W        W71647  11.782  38.230   4.590
99977W        W71648  39.600  42.218  11.087
99978W        W71649  28.076  27.177  14.465
99979W        W71650  20.648  42.848   1.751
99980W        W71651  36.356  28.938  14.482
99981W        W71652  16.186  28.288  13.871
99982W        W71653  35.885  22.169  13.249
99983W        W71654  10.395   2.898  14.076
99984W        W71655  27.443  27.532  13.754
99985W        W71656  39.395   3.001  13.871
99986W        W71657  16.178  42.391   3.222
99987W        W71658  29.511  36.912   3.788
99988W        W71659  40.056   2.812  14.974
99989W        W71660   4.232  17.097   0.899
99990W        W71661   3.863  42.949  12.471
99991W        W71662  22.440  19.838  12.536
99992W        W71663  30.949  34.418  11.795
99993W        W71664  28.021  39.369   0.215
99994W        W71665  23.194   8.863  14.218
99995W        W71666  30.374  22.421  11.265
99996W        W71667  30.430  19.774  10.732
99997W        W71668  42.587   8.180   0.769
99998W        W71669  26.919  44.564  13.383
99999W        W71670  18.024  27.617  13.861
    0W        W71671  10.728  40.925   1.487
    1W        W71672  13.551  17.672   4.789
    2W        W71673  31.484  11.900  14.384
    3W        W71674  15.221  17.586  13.110
    4W        W71675  18.607   3.239   1.877
    5W        W71676  19.685  23.401  13.835
    6W        W71677  18.851  23.169  11.174
    7W        W71678  42.831   7.676   1.040
    8W        W71679  25.078  16.054  10.724
    9W        W71680  20.163  13.217   3.311
   10W        W71681  13.248   7.767  10.722
   11W        W71682  29.590  22.839  11.646
   12W        W71683  17.762  20.280   3.729
   13W        W71684  24.584  36.455   2.798
   14W        W71685  22.162  18.724  13.949
   15W        W71686   5.859  41.477  12.627
   16W        W71687  28.903  15.121  14.350
   17W        W71688  22.421  23.676   5.602
   18W        W71689  35.265  42.041  11.545
   19W        W71690  34.072   1.860   4.896
   20W        W71691  31.312  17.968   2.121
   21W        W71692   1.949  34.819  11.494
   22W        W71693  35.565  40.708   1.478
   23W        W71694  33.331  34.459  14.234
   24W        W71695  25.625  15.479  13.944
   25W        W71696  25.248  13.207   4.564
   26W        W71697  36.912  18.612  14.758
   27W        W71698   9.282  30.552  12.066
   28W        W71699   6.880  38.598   2.260
   29W        W71700  39.956  16.726   4.400
   30W        W71701   7.643   1.372  13.855
   31W        W71702   0.026  37.572   1.803
   32W        W71703   3.231   9.241  14.847
   33W        W71704  19.730  13.230  13.306
   34W        W71705  42.338   3.342   0.959
   35W        W71706  30.114  14.070   3.341
   36W        W71707  43.131  43.406  14.019
   37W        W71708  22.681   2.302  12.453
   38W        W71709  14.653  35.940  12.112
   39W        W71710  25.177  19.852  11.206
   40W        W71711  13.184  21.082   2.178
   41W        W71712   8.440  34.962  14.716
   42W        W71713   0.769  37.590  10.544
   43W        W71714  20.529  32.590   4.120
   44W        W71715  25.630  24.587   1.246
   45W        W71716   5.805  41.749  13.071
   46W        W71717  39.895   2.559   3.697
   47W        W71718  44.290  32.461  10.571
   48W        W71719  23.888  18.513   1.565
   49W        W71720  26.056  24.596  12.768
   50W        W71721  16.096  27.504  13.094
   51W        W71722  38.462  32.630   3.552
   52W        W71723   6.593  12.904  13.936
   53W        W71724  20.086  37.804   0.777
   54W        W71725  40.766  21.609  11.919
   55W        W71726   4.733  17.600  14.529
   56W        W71727  44.473  33.965  14.412
   57W        W71728  30.473  37.631  14.887
   58W        W71729   1.925  25.007   2.323
   59W        W71730  26.565  21.088   5.143
   60W        W71731  35.601  29.449   0.972
   61W        W71732  30.559   2.823  12.463
   62W        W71733  29.489  26.348  12.325
   63W        W71734  11.026   2.357  13.995
   64W        W71735  22.541   3.078   0.242
   65W        W71736   1.061  41.338  10.348
   66W        W71737  16.316   9.241   1.511
   67W        W71738   2.293  44.790  10.587
   68W        W71739   0.002   2.635  13.971
   69W        W71740  10.639  39.490  12.089
   70W        W71741  16.662   1.531   4.215
   71W        W71742  22.222  38.008  10.649
   72W        W71743  17.308  28.575   0.834
   73W        W71744  22.572  12.340  12.876
   74W        W71745  10.937  24.614   0.505
   75W        W71746  42.782  10.884   2.642
   76W        W71747   7.231  30.983  13.251
   77W        W71748  34.145  20.975   1.362
   78W        W71749  25.069  10.904  12.003
   79W        W71750   7.728   5.050  12.003
   80W        W71751  11.840  25.477   3.844
   81W        W71752  30.341  42.833   2.760
   82W        W71753  13.211   6.674   2.042
   83W        W71754   2.125  44.247  13.002
   84W        W71755   5.931  23.719   4.040
   85W        W71756  28.211  13.760   4.380
   86W        W71757  41.751  31.555   2.268
   87W        W71758   4.463  13.584  12.254
   88W        W71759   7.051   4.833  11.001
   89W        W71760  20.501  41.338  11.118
   90W        W71761  18.315  30.461  14.488
   91W        W71762  23.521   6.124   0.963
   92W        W71763  16.606  34.306  13.359
   93W        W71764  43.567  30.816  11.819
   94W        W71765  11.957  20.034   1.612
   95W        W71766  19.589   3.402   0.919
   96W        W71767  42.115  44.552   4.634
   97W        W71768   8.841  19.071   3.494
   98W        W71769  30.869  30.205  10.769
   99W        W71770  15.201  29.136   0.810
  100W        W71771  11.162  11.412   2.506
  101W        W71772  40.746  35.345   4.182
  102W        W71773  33.960  42.081  12.443
  103W        W71774  34.693   7.240   2.825
  104W        W71775  18.391  13.276  12.622
  105W        W71776   6.367   8.636   4.506
  106W        W71777  14.188  41.017   0.444
  107W        W71778  36.680  25.887   4.319
  108W        W71779   7.239  19.260   3.268
  109W        W71780  27.665  19.258  13.986
  110W        W71781  24.999  20.314   0.600
  111W        W71782   4.374  24.372  13.956
  112W        W71783   3.352  20.786  12.791
  113W        W71784  22.266  34.399  14.247
  114W        W71785  33.532  24.313  12.347
  115W        W71786  18.507  27.001   4.202
  116W        W71787  26.675   0.376   0.724
  117W        W71788  37.395  12.551  11.891
  118W        W71789  10.783  44.775   3.406
  119W        W71790  42.460   4.936  10.638
  120W        W71791  43.966  23.585   3.818
  121W        W71792  39.355  42.142   0.953
  122W        W71793  41.001  26.124   4.522
  123W        W71794   8.867  25.182   4.858
  124W        W71795  15.806   4.396  10.881
  125W        W71796  27.977  32.329   3.530
  126W        W71797  23.495  36.108   3.181
  127W        W71798   5.883   2.762  11.111
  128W        W71799  14.261  39.842  13.362
  129W        W71800  17.622  20.121  10.716
  130W        W71801  38.214  33.525   4.513
  131W        W71802   0.444  17.049  14.859
  132W        W71803  35.775  14.646  12.448
  133W        W71804   4.313  30.739  14.410
  134W        W71805  14.241  21.983  13.132
  135W        W71806  29.203  22.781   1.860
  136W        W71807  33.035   0.918   0.688
  137W        W71808  33.577  38.113  14.001
  138W        W71809   2.346  21.097  12.685
  139W        W71810  31.097  19.103   1.429
  140W        W71811   0.268   6.441   3.592
  141W        W71812  44.317   1.982   4.959
  142W        W71813  19.533   8.811  13.293
  143W        W71814   7.283   7.558   3.534
  144W        W71815  27.065  35.126  14.254
  145W        W71816  10.109  23.240  14.066
  146W        W71817   0.726  29.878  14.471
  147W        W71818  15.187  11.011  14.989
  148W        W71819  20.271  28.370   1.284
  149W        W71820   3.153  20.642  12.320
  150W        W71821  34.338   5.435   0.435
  151W        W71822  32.045   2.784  12.480
  152W        W71823  23.162   2.398  12.627
  153W        W71824  43.418  24.406  13.861
  154W        W71825   6.038   5.985  13.223
  155W        W71826  35.093  22.030   1.469
  156W        W71827  31.610  27.302   0.432
  157W        W71828  42.980  13.133  11.118
  158W        W71829  17.558  23.423   1.261
  159W        W71830  29.721  31.330  14.950
  160W        W71831  29.541  29.520   5.040
  161W        W71832  25.685   3.273  11.742
  162W        W71833  15.066  42.732   4.257
  163W        W71834  32.420  28.518   4.650
  164W        W71835  23.304  26.620  14.961
  165W        W71836  28.473   3.874  12.818
  166W        W71837  25.476   0.356  13.266
  167W        W71838  27.601  32.021  12.489
  168W        W71839   6.916  40.561  13.355
  169W        W71840  14.561  26.590  14.884
  170W        W71841  33.015  29.970   3.920
  171W        W71842  38.394  22.483  10.613
  172W        W71843   1.908  40.712  14.740
  173W        W71844  37.798  15.766   4.743
  174W        W71845  23.138  30.189   1.984
  175W        W71846   4.011   7.295  12.939
  176W        W71847  14.323  38.552   1.861
  177W        W71848  34.328  21.199   3.227
  178W        W71849  28.539  16.153   4.884
  179W        W71850   3.268  25.066   1.793
  180W        W71851   5.665  13.193   1.806
  181W        W71852  19.753  31.601   1.413
  182W        W71853   3.914  13.323   1.492
  183W        W71854  14.766   7.640   4.493
  184W        W71855  35.600   4.474   2.483
  185W        W71856  27.545  11.103   2.327
  186W        W71857   9.981  38.701   2.256
  187W        W71858   1.576  37.874   4.199
  188W        W71859   8.253   0.749   2.665
  189W        W71860   4.879  42.315   1.333
  190W        W71861  30.131   6.695   3.395
  191W        W71862  39.281  35.823   0.850
  192W        W71863   2.373  36.444  14.272
  193W        W71864  24.174  15.658   0.029
  194W        W71865  20.164   6.163   2.298
  195W        W71866   1.305  44.801   4.086
  196W        W71867  23.437  37.012  13.031
  197W        W71868  29.668  12.587   4.751
  198W        W71869  33.306  21.519  14.379
  199W        W71870   0.085  24.935  12.542
  200W        W71871   3.295  28.545  11.149
  201W        W71872  30.399  33.472  12.367
  202W        W71873   6.693  44.406  11.171
  203W        W71874  40.932  30.854  11.636
  204W        W71875  30.541  44.975  12.428
  205W        W71876  41.928  36.089  14.011
  206W        W71877  29.676   1.071  10.775
  207W        W71878  21.502  26.188   9.755
  208W        W71879  19.267   4.430   1.266
  209W        W71880  41.330  25.792   0.438
  210W        W71881  19.843  33.563  10.564
  211W        W71882  35.016   8.087  11.665
  212W        W71883   8.298  14.575   3.773
  213W        W71884  36.655  21.665  13.483
  214W        W71885  41.456  10.376   2.360
  215W        W71886  10.625  16.871   3.669
  216W        W71887  22.097  18.545  11.561
  217W        W71888  11.092  22.664   1.225
  218W        W71889  27.481  44.969   3.192
  219W        W71890  26.167  24.454  13.797
  220W        W71891  34.403  20.807   2.070
  221W        W71892  32.043  44.173   2.895
  222W        W71893  10.924  17.281   2.317
  223W        W71894  43.947  17.011  10.560
  224W        W71895  22.568   3.172  11.163
  225W        W71896  13.101  25.090   3.728
  226W        W71897   6.469  38.418  11.704
  227W        W71898  34.565   9.947   0.705
  228W        W71899  39.017  24.617   1.803
  229W        W71900  21.083  16.226  14.305
  230W        W71901   3.248   8.290   2.208
  231W        W71902   1.695  41.986  10.587
  232W        W71903   0.783  16.039  12.953
  233W        W71904   6.634  33.707  13.546
  234W        W71905  34.486   6.631   2.352
  235W        W71906  13.671  26.469  11.169
  236W        W71907   3.718  39.996   0.998
  237W        W71908  32.813  36.547   2.313
  238W        W71909  23.614  34.928  10.659
  239W        W71910  16.243  33.354   1.359
  240W        W71911  13.318  21.713  10.825
  241W        W71912  42.034  38.442  13.068
  242W        W71913  33.338  18.944  11.589
  243W        W71914  43.244  17.286   1.581
  244W        W71915  11.286  36.143  10.915
  245W        W71916   5.236   5.120   4.138
  246W        W71917  11.892   1.887   4.127
  247W        W71918   0.359  20.570   4.130
  248W        W71919   7.932  23.166   0.780
  249W        W71920   2.440  26.642  11.992
  250W        W71921   3.966   1.834   1.647
  251W        W71922  22.063  22.114  12.348
  252W        W71923  33.385  38.547  11.206
  253W        W71924  43.315  42.359  11.637
  254W        W71925   4.921  13.999   2.759
  255W        W71926  25.979  44.383   1.899
  256W        W71927  19.581  42.551  13.381
  257W        W71928  14.640  29.959   1.377
  258W        W71929  16.328  31.942  12.699
  259W        W71930  28.658  23.159   4.702
  260W        W71931  19.895  40.912   0.482
  261W        W71932   9.899  13.541  11.978
  262W        W71933  35.958  24.863  14.419
  263W        W71934  17.069  44.588  13.442
  264W        W71935  14.014  20.684  12.918
  265W        W71936  35.844   1.444  12.483
  266W        W71937  44.458  25.334   1.752
  267W        W71938  30.206  42.495   4.696
  268W        W71939  28.816  42.764  13.528
  269W        W71940  11.642  13.634  11.548
  270W        W71941  20.156  20.780  12.483
  271W        W71942  31.641  13.247   0.189
  272W        W71943  29.658   2.664   1.406
  273W        W71944  14.087  43.106  12.478
  274W        W71945  37.973  18.635  11.918
  275W        W71946  33.477  29.712   1.273
  276W        W71947  42.948  43.278  12.302
  277W        W71948  36.022  38.326  10.965
  278W        W71949  36.508   4.902   1.235
  279W        W71950  35.256  28.122  12.563
  280W        W71951  31.861   7.663   1.470
  281W        W71952   0.665  24.196   1.266
  282W        W71953  30.200   7.836   3.575
  283W        W71954   2.329  44.366  12.530
  284W        W71955   2.792  10.191  10.698
  285W        W71956  25.958  38.889  10.724
  286W        W71957   6.223   1.236   1.874
  287W        W71958  12.671  25.443   4.432
  288W        W71959  18.118  16.753   4.841
  289W        W71960  26.612  25.984   1.918
  290W        W71961   9.565   9.395  14.876
  291W        W71962  19.112  22.696  13.126
  292W        W71963  14.287  23.942   2.564
  293W        W71964  33.992  15.341   4.724
  294W        W71965  42.741  42.458   1.039
  295W        W71966  11.193  11.872   2.744
  296W        W71967   7.416   4.901  14.888
  297W        W71968   2.794   2.143  12.549
  298W        W71969  11.758  35.784   3.677
  299W        W71970  32.328  25.462   0.626
  300W        W71971   9.854   1.440   2.944
  301W        W71972  27.026  43.078   0.424
  302W        W71973   9.133  10.716   1.932
  303W        W71974   8.271  12.759  10.264
  304W        W71975  43.174   3.404   4.597
  305W        W71976  36.681  17.962  14.264
  306W        W71977  23.455  31.468   4.582
  307W        W71978   4.312  36.357   2.353
  308W        W71979  19.115  19.051  13.489
  309W        W71980   6.329  20.609  11.104
  310W        W71981  32.020  39.506   4.232
  311W        W71982   0.764  25.697  10.520
  312W        W71983  40.865  31.054  12.096
  313W        W71984  43.745  31.080   0.893
  314W        W71985  37.094  24.097   0.477
  315W        W71986  30.424  43.493   4.280
  316W        W71987   6.723  27.220  10.883
  317W        W71988  28.036  32.555   2.087
  318W        W71989  12.945  32.711  13.357
  319W        W71990  39.943  44.266   0.814
  320W        W71991  17.223   4.331   5.097
  321W        W71992   0.124  10.010  12.989
  322W        W71993  24.635  11.881  10.823
  323W        W71994  21.968  43.903  13.138
  324W        W71995  30.207  13.073  12.522
  325W        W71996  13.368  34.449  13.611
  326W        W71997  13.728  23.304  13.529
  327W        W71998  35.583   1.159   0.657
  328W        W71999  11.814  22.098   4.036
  329W        W72000  39.962  19.405   1.354
  330W        W72001  11.923  28.869  13.981
  331W        W72002   8.713  15.961   4.545
  332W        W72003  30.565   2.919   2.441
  333W        W72004  16.563  14.127  11.131
  334W        W72005  44.884  38.033   3.922
  335W        W72006  29.039  19.554  10.513
  336W        W72007   5.677  12.334   0.418
  337W        W72008  33.600   8.446  14.401
  338W        W72009  31.609  26.648   2.909
  339W        W72010  30.563  25.058  11.504
  340W        W72011  36.192  24.967  10.664
  341W        W72012  42.365  12.175  10.711
  342W        W72013  26.712   2.233   2.762
  343W        W72014   9.147  36.527   2.274
  344W        W72015  16.292  30.587  13.904
  345W        W72016  16.472  21.250   2.245
  346W        W72017  41.892  30.797  12.130
  347W        W72018  16.759  31.820  12.935
  348W        W72019  42.915   8.388  11.070
  349W        W72020  27.634  10.380  11.886
  350W        W72021   7.597  19.057   0.736
  351W        W72022  18.520   7.970  14.230
  352W        W72023   5.190  28.134   2.595
  353W        W72024  14.288  25.413  10.704
  354W        W72025  33.779  26.186  10.991
  355W        W72026  18.243   1.513  13.901
  356W        W72027  16.655   3.007  12.409
  357W        W72028  19.770  16.034   2.939
  358W        W72029  27.534  14.676   2.925
  359W        W72030   2.524  39.254   4.119
  360W        W72031  10.790   8.178   3.189
  361W        W72032  14.784  19.562  14.437
  362W        W72033  32.652  30.506  10.979
  363W        W72034   1.423  11.288   1.422
  364W        W72035   3.905  44.214  13.891
  365W        W72036  16.810  22.948   3.638
  366W        W72037  31.106  25.176  10.094
  367W        W72038  14.643  33.979   3.730
  368W        W72039  33.153  32.082  11.655
  369W        W72040  21.016  12.681   3.624
  370W        W72041  26.642   5.965   2.681
  371W        W72042  10.194  33.779   4.319
  372W        W72043  34.631   9.383   1.978
  373W        W72044  24.373  20.397   1.782
  374W        W72045  31.542  14.642  11.162
  375W        W72046   1.897  29.641  12.580
  376W        W72047  15.340   1.970   2.846
  377W        W72048  11.884  21.633   3.805
  378W        W72049   1.375  20.292   4.562
  379W        W72050   4.196  26.239  14.449
  380W        W72051  42.328  40.191   0.514
  381W        W72052  34.526   1.964  12.885
  382W        W72053  14.156  38.027   3.496
  383W        W72054   5.987  19.178   3.559
  384W        W72055  15.872  21.171   4.935
  385W        W72056  44.483  13.665   4.067
  386W        W72057  23.783  42.360  13.531
  387W        W72058   8.820  38.910   4.320
  388W        W72059  23.014  12.787  11.165
  389W        W72060  12.928  40.801   4.663
  390W        W72061  44.356  24.943  10.451
  391W        W72062   1.508  42.010  11.501
  392W        W72063   3.527   0.002   1.347
  393W        W72064  24.048  34.200  11.132
  394W        W72065  37.375  43.531   3.268
  395W        W72066  23.433  17.618  11.071
  396W        W72067  12.719  31.759   3.753
  397W        W72068  24.772  37.641   0.090
  398W        W72069  36.422  40.363  11.228
  399W        W72070  23.585  40.085  11.651
  400W        W72071  44.791  16.064  11.682
  401W        W72072   8.655  29.358  11.586
  402W        W72073  26.647   4.230  10.675
  403W        W72074  30.130  10.835   3.202
  404W        W72075  33.916   3.023   4.583
  405W        W72076  34.408   6.735  14.383
  406W        W72077  21.343  27.622  13.979
  407W        W72078  44.882  13.414   3.808
  408W        W72079  31.885  29.424   3.577
  409W        W72080  28.829   4.072   1.937
  410W        W72081  29.545  42.428  11.944
  411W        W72082   4.326  15.099  13.587
  412W        W72083  24.261   5.355   1.824
  413W        W72084  34.878  21.254   4.125
  414W        W72085  27.978  29.571  14.496
  415W        W72086  13.593  16.834  11.135
  416W        W72087  26.117  41.015  11.127
  417W        W72088   6.708  28.954   0.022
  418W        W72089  40.013  33.516   0.489
  419W        W72090  23.214  25.049  14.091
  420W        W72091  20.863  36.961   1.820
  421W        W72092  25.704   9.375  12.415
  422W        W72093  16.173  37.473   0.070
  423W        W72094  19.626  25.236  10.679
  424W        W72095  13.123  34.634  11.134
  425W        W72096  14.407  26.294   2.246
  426W        W72097  34.475  11.657  14.853
  427W        W72098  23.023  21.109   1.010
  428W        W72099   1.684  18.228  13.497
  429W        W72100   7.384  28.242   0.882
  430W        W72101  36.393   1.681   2.535
  431W        W72102  36.490  40.063   5.044
  432W        W72103  35.062  29.227   2.813
  433W        W72104   2.306  26.778  11.330
  434W        W72105   6.819  18.203   2.343
  435W        W72106  36.847   4.270  13.937
  436W        W72107   3.358  11.839  12.278
  437W        W72108  43.469   7.846   4.720
  438W        W72109  12.215  39.463   0.992
  439W        W72110  44.858  38.216   2.935
  440W        W72111   0.877   1.263   5.146
  441W        W72112  34.750  16.202   0.519
  442W        W72113  15.929  15.819  14.971
  443W        W72114  26.622   3.039   1.496
  444W        W72115  19.565  43.750  11.419
  445W        W72116  35.522  17.243   3.606
  446W        W72117  10.894  28.095  12.873
  447W        W72118  36.600  12.265  12.131
  448W        W72119  11.596   2.020   4.534
  449W        W72120  27.191  17.218   3.608
  450W        W72121   3.938  33.961  12.307
  451W        W72122  29.598  19.786  13.343
  452W        W72123   3.659   5.307  12.941
  453W        W72124   7.147  36.787   4.619
  454W        W72125   6.820  28.112  10.690
  455W        W72126  13.120   7.395  14.847
  456W        W72127  42.535  35.012  14.751
  457W        W72128  33.042  28.455  13.602
  458W        W72129   1.285  13.393   4.652
  459W        W72130  11.209  44.794   1.231
  460W        W72131  18.763   7.677  12.108
  461W        W72132  42.545  12.775   4.267
  462W        W72133  21.822  42.554   3.479
  463W        W72134  19.112  23.705   4.733
  464W        W72135  30.312  26.995  13.577
  465W        W72136   9.272   0.290  12.881
  466W        W72137  14.056  13.093   1.238
  467W        W72138   0.058  21.649   9.694
  468W        W72139  29.639  14.216  13.379
  469W        W72140  42.983  43.049   2.882
  470W        W72141   9.899  42.710   2.206
  471W        W72142  20.505  29.944  11.026
  472W        W72143  11.454  19.707  11.618
  473W        W72144  31.171  31.568  10.778
  474W        W72145  15.600  44.616   3.737
  475W        W72146  28.485   9.162  12.076
  476W        W72147  22.543  26.441  13.795
  477W        W72148  12.222   5.408   0.965
  478W        W72149  27.499  34.537  11.101
  479W        W72150   9.210  31.540  11.437
  480W        W72151  12.319  35.550   2.181
  481W        W72152  37.235  15.774   3.869
  482W        W72153   7.189  26.705  11.024
  483W        W72154  39.659  30.484  12.087
  484W        W72155  44.508  17.555   2.164
  485W        W72156  23.942  39.998  10.500
  486W        W72157  17.229  24.474  11.965
  487W        W72158  40.370  44.052   4.857
  488W        W72159  26.000   8.659   3.345
  489W        W72160  19.130  35.325  12.060
  490W        W72161  22.639  26.815   2.578
  491W        W72162  27.536   0.780  14.514
  492W        W72163  17.040  26.779  11.501
  493W        W72164   4.877  16.258  10.179
  494W        W72165  31.617  24.260   1.207
  495W        W72166  41.418  33.464   0.795
  496W        W72167   4.163  30.989   0.315
  497W        W72168  15.248  34.556  12.868
  498W        W72169   4.966  36.088   0.735
  499W        W72170   1.036  29.000   1.823
  500W        W72171  33.582  26.132  13.387
  501W        W72172  10.797  26.548  14.928
  502W        W72173  34.380  24.089  12.693
  503W        W72174  12.629  41.100  12.391
  504W        W72175  14.125  43.622  12.384
  505W        W72176  33.826  29.606   2.295
  506W        W72177  38.632  34.460  11.993
  507W        W72178  16.127   7.822  13.259
  508W        W72179  28.238   0.614  10.837
  509W        W72180  33.460  22.801   2.269
  510W        W72181  41.252   4.779  11.062
  511W        W72182   5.161  25.938  14.434
  512W        W72183  34.828  35.997   0.180
  513W        W72184  37.357  28.437   0.247
  514W        W72185  36.057  23.030  14.090
  515W        W72186   6.723  21.603  13.962
  516W        W72187   4.950   4.090  12.615
  517W        W72188  42.784  29.568   0.276
  518W        W72189  10.614  20.291  12.901
  519W        W72190   0.375  24.256  14.927
  520W        W72191  17.412   5.662   4.192
  521W        W72192  28.987  22.545   2.282
  522W        W72193  34.874  23.472  13.970
  523W        W72194   3.847  29.007   3.725
  524W        W72195  42.154  18.072   0.778
  525W        W72196  41.836  33.000   0.472
  526W        W72197  15.363  29.058   1.828
  527W        W72198   1.918  35.694   3.709
  528W        W72199   9.566   9.738  11.235
  529W        W72200  31.174  22.944   1.529
  530W        W72201   4.647   5.474  11.644
  531W        W72202  24.212  13.585  13.423
  532W        W72203  10.302   4.414   4.029
  533W        W72204  30.683  34.530  14.822
  534W        W72205  21.645  14.205   4.593
  535W        W72206  38.395  42.973   0.295
  536W        W72207   0.338   3.392  11.025
  537W        W72208  34.681  33.651   4.638
  538W        W72209   9.225  33.345  12.057
  539W        W72210   5.298  30.100   0.261
  540W        W72211  20.722  19.348   0.047
  541W        W72212  42.397   3.985   3.155
  542W        W72213  43.526  27.924  14.184
  543W        W72214  27.641  27.480  13.266
  544W        W72215   5.264  28.494   0.562
  545W        W72216   3.032  10.814  14.370
  546W        W72217  42.070  37.621  14.014
  547W        W72218  42.468  23.610   1.231
  548W        W72219  21.847  27.711  13.349
  549W        W72220  13.666  29.742   0.878
  550W        W72221  37.965   0.228   3.749
  551W        W72222  13.855  21.130   4.486
  552W        W72223  40.500  33.151  13.937
  553W        W72224  29.362  18.033   3.342
  554W        W72225  26.133  34.887  12.484
  555W        W72226  29.050  29.113   3.724
  556W        W72227  37.613  43.475  11.498
  557W        W72228  28.709  16.557   2.841
  558W        W72229  33.843  18.669   3.634
  559W        W72230  10.748   7.432   4.561
  560W        W72231   3.623   1.515   2.938
  561W        W72232  43.672  40.040  14.274
  562W        W72233  32.293  25.705  12.493
  563W        W72234   0.961   3.872  12.194
  564W        W72235   2.860   5.677   3.192
  565W        W72236  39.791   7.286   3.434
  566W        W72237  14.586  35.172  14.027
  567W        W72238  19.470  28.538  11.045
  568W        W72239  22.333   1.950   1.413
  569W        W72240  20.562  10.348   0.796
  570W        W72241  20.249  40.037   3.303
  571W        W72242  28.176   9.816   5.448
  572W        W72243  28.370   8.656  12.196
  573W        W72244  29.897  14.784   3.754
  574W        W72245  33.057  24.994   3.437
  575W        W72246  44.395  36.067   1.411
  576W        W72247  16.127  24.590  14.576
  577W        W72248  18.023   0.865   2.725
  578W        W72249  39.372  12.476  11.818
  579W        W72250  16.197  18.886  12.604
  580W        W72251  13.950  26.191   1.336
  581W        W72252  14.238  32.443  14.809
  582W        W72253   4.145  25.780   3.977
  583W        W72254   1.278  37.823   4.832
  584W        W72255  23.264  44.763  14.069
  585W        W72256  13.717  23.279  11.587
  586W        W72257   2.412  41.386   3.935
  587W        W72258  40.866  16.706   1.558
  588W        W72259  41.553   9.670  11.146
  589W        W72260  40.429   9.227   0.564
  590W        W72261   1.020  15.163  11.265
  591W        W72262  43.788   1.058   4.605
  592W        W72263  29.347  29.496   1.220
  593W        W72264  10.374  32.810  14.024
  594W        W72265  43.777  30.431  11.480
  595W        W72266  17.628  13.271  11.744
  596W        W72267   1.385  28.056  10.718
  597W        W72268  21.061  12.379  14.326
  598W        W72269  38.487   8.264   4.132
  599W        W72270   0.834   6.174   2.736
  600W        W72271  32.466  44.372   1.417
  601W        W72272   2.840  20.087   1.780
  602W        W72273   3.364   5.352   3.160
  603W        W72274  34.020  27.112   0.325
  604W        W72275  23.169   2.914  12.607
  605W        W72276  38.292  18.236  11.138
  606W        W72277  27.064  21.763  10.704
  607W        W72278  13.130  44.955  12.806
  608W        W72279  18.142  15.433   2.863
  609W        W72280  16.177  12.051  14.078
  610W        W72281   2.335  22.065  11.674
  611W        W72282  27.383  16.183  13.808
  612W        W72283  44.125  15.331   4.653
  613W        W72284  27.063  14.657   0.635
  614W        W72285  34.182  38.096  11.012
  615W        W72286  44.017   2.988   2.314
  616W        W72287  36.078  18.751   0.803
  617W        W72288  19.639  14.859  10.733
  618W        W72289  36.380  14.823   0.612
  619W        W72290  27.095  41.947  11.398
  620W        W72291  40.712   1.523   0.338
  621W        W72292  28.117   7.369  14.925
  622W        W72293  21.177  18.724  14.983
  623W        W72294  17.677   9.369   1.947
  624W        W72295   5.740  29.583  13.795
  625W        W72296  17.599  44.654  12.163
  626W        W72297  12.050  26.818   0.611
  627W        W72298  23.198  34.613  10.698
  628W        W72299  21.498  40.000  14.513
  629W        W72300  20.220  14.250  13.958
  630W        W72301   8.736  34.733  14.321
  631W        W72302  16.965  35.351  11.433
  632W        W72303  39.578  19.781   0.416
  633W        W72304  44.986   0.838   0.791
  634W        W72305  20.720  40.314   3.284
  635W        W72306  24.997  40.085  13.381
  636W        W72307  15.318  35.070   1.290
  637W        W72308  17.318  41.945   2.792
  638W        W72309  19.101  13.205  14.926
  639W        W72310  40.384  32.717   4.562
  640W        W72311  22.960  31.045   4.080
  641W        W72312  29.392  11.695   3.320
  642W        W72313  19.066  30.132  11.563
  643W        W72314  25.574  25.171   0.375
  644W        W72315  10.810  40.897  14.811
  645W        W72316  20.515  39.962   0.301
  646W        W72317  21.295   7.652   0.736
  647W        W72318  44.378  14.276  12.040
  648W        W72319  36.636  38.969   2.323
  649W        W72320  34.076  34.441  13.768
  650W        W72321   4.984  20.270   4.205
  651W        W72322  22.377  34.049  10.510
  652W        W72323  41.040  22.232  11.726
  653W        W72324  25.721  19.308   1.392
  654W        W72325  41.402  39.546  14.845
  655W        W72326  21.270  16.116  14.805
  656W        W72327  17.301  11.813  12.508
  657W        W72328  25.882  44.010  11.876
  658W        W72329  39.850  27.964   1.438
  659W        W72330  13.378  22.064  13.153
  660W        W72331  43.521  20.423   3.744
  661W        W72332  40.616  39.099   4.640
  662W        W72333  19.011   9.848  13.814
  663W        W72334  37.122  41.405  14.859
  664W        W72335  25.664   6.291  13.418
  665W        W72336  23.716  27.011   0.818
  666W        W72337  11.825   9.643   0.744
  667W        W72338  14.035   3.293   4.604
  668W        W72339  44.846  30.188  14.257
  669W        W72340   1.023  20.117   2.201
  670W        W72341  34.587  11.307   0.699
  671W        W72342  38.348  15.385   1.689
  672W        W72343  18.555  23.191  10.725
  673W        W72344  38.104   1.114  13.186
  674W        W72345  40.926  38.060   2.135
  675W        W72346  14.343   9.040  12.414
  676W        W72347   5.240  11.568   4.098
  677W        W72348  27.591  36.616   2.700
  678W        W72349  21.221  34.529   3.897
  679W        W72350   2.036  26.443  11.630
  680W        W72351  15.729  41.074   1.551
  681W        W72352  17.799   5.681  13.535
  682W        W72353  40.351  25.383   3.792
  683W        W72354  22.044   8.308  10.683
  684W        W72355   6.501   1.521  11.147
  685W        W72356  40.565  29.030  11.114
  686W        W72357   6.230   4.412   1.239
  687W        W72358   5.384  24.962  11.602
  688W        W72359  20.682  24.503  11.065
  689W        W72360  38.309  24.641  14.032
  690W        W72361  43.578   2.268   3.204
  691W        W72362  24.606  25.379  11.205
  692W        W72363  13.382   4.149  11.048
  693W        W72364  38.374   4.505  13.851
  694W        W72365   8.246  29.730  14.907
  695W        W72366  28.129  15.213   1.740
  696W        W72367  29.016  30.997   0.507
  697W        W72368  26.614  40.869  13.132
  698W        W72369  37.399  11.769   0.374
  699W        W72370  33.471   1.774   4.209
  700W        W72371  29.347  24.715   2.138
  701W        W72372  23.449   2.781   4.528
  702W        W72373  19.631  36.328  10.509
  703W        W72374  32.303  19.683   0.664
  704W        W72375  11.331  37.696   4.173
  705W        W72376  26.266  42.719   4.966
  706W        W72377   2.386   6.638  10.654
  707W        W72378  37.124  43.470   4.445
  708W        W72379   7.628  23.634   4.763
  709W        W72380   8.008  20.023  10.735
  710W        W72381  13.734  18.006   0.824
  711W        W72382  20.974   4.511  13.078
  712W        W72383  24.737  21.028  14.799
  713W        W72384  34.080  43.481  10.984
  714W        W72385  29.953  34.669   0.206
  715W        W72386  24.013   3.239  14.328
  716W        W72387  22.763   7.173   0.457
  717W        W72388  12.887  36.879  13.909
  718W        W72389   0.825   3.693   0.383
  719W        W72390  44.900  10.836   3.847
  720W        W72391   6.634  41.464  12.346
  721W        W72392  23.571   9.103  14.570
  722W        W72393  21.651  31.148  12.451
  723W        W72394  40.852   9.622  11.537
  724W        W72395   8.453  43.450  13.841
  725W        W72396  31.889  22.556  14.395
  726W        W72397   2.280  31.991   1.423
  727W        W72398  11.815  42.545  11.668
  728W        W72399  17.829  30.143  12.520
  729W        W72400  16.599  11.314   0.312
  730W        W72401  31.056   2.787   2.125
  731W        W72402  39.037  36.971  13.770
  732W        W72403  31.456  20.266  11.432
  733W        W72404   1.166  27.121   0.796
  734W        W72405  40.026  30.823   3.102
  735W        W72406  14.034  42.027   4.174
  736W        W72407  43.713  35.569   4.136
  737W        W72408  30.492  32.121  12.038
  738W        W72409   1.779  31.133   0.689
  739W        W72410  19.976  12.741  10.168
  740W        W72411  32.422  43.934  11.497
  741W        W72412  19.747  18.779   4.242
  742W        W72413  10.939  27.629  14.009
  743W        W72414  33.225  35.092  11.648
  744W        W72415  30.363  34.014  13.526
  745W        W72416  38.409  11.713   3.667
  746W        W72417  22.619  33.668   4.169
  747W        W72418  36.839   0.442  10.774
  748W        W72419  40.201   5.023   4.121
  749W        W72420  36.397  25.762  14.396
  750W        W72421  33.599  31.832  10.710
  751W        W72422   4.305  39.766   4.743
  752W        W72423  19.115   4.253   3.335
  753W        W72424  32.686  36.401   4.225
  754W        W72425  11.717  18.023  10.555
  755W        W72426  38.326  15.725  12.052
  756W        W72427  42.814  19.619   1.059
  757W        W72428  25.155   9.703   4.296
  758W        W72429   9.198  25.699  14.693
  759W        W72430  43.250  38.093  11.160
  760W        W72431  15.295  33.184   1.802
  761W        W72432  31.888   5.163   1.955
  762W        W72433  42.893  44.439  13.815
  763W        W72434  28.921   4.700   1.315
  764W        W72435  18.218   8.810   0.857
  765W        W72436  23.119  13.781   4.521
  766W        W72437   4.773  18.334  11.140
  767W        W72438   9.327  25.247   4.588
  768W        W72439   8.419  42.469  11.029
  769W        W72440  16.277   1.318  13.939
  770W        W72441  22.775  10.800   0.452
  771W        W72442  39.798  11.911  14.996
  772W        W72443  25.755  23.068  14.353
  773W        W72444  26.989  13.936   2.627
  774W        W72445  44.439   2.913   2.742
  775W        W72446  15.178  29.124   0.294
  776W        W72447  37.487  42.826   5.088
  777W        W72448  37.351  38.352  14.539
  778W        W72449  28.148  35.239  11.125
  779W        W72450   9.990   0.817   4.203
  780W        W72451   6.993  24.140   4.621
  781W        W72452   4.748  29.613   2.749
  782W        W72453   6.897  31.652   1.230
  783W        W72454  38.506  20.206   1.354
  784W        W72455  22.361  36.019  11.510
  785W        W72456  32.166  21.181  10.235
  786W        W72457  31.619  25.863   3.685
  787W        W72458  15.816  11.236  10.675
  788W        W72459   8.601  23.280  12.325
  789W        W72460   9.351  15.377   3.207
  790W        W72461   8.291  27.495  10.903
  791W        W72462   3.661   4.281   1.136
  792W        W72463   4.399  40.437  13.964
  793W        W72464  14.653   5.022  11.672
  794W        W72465  36.832  11.249  14.336
  795W        W72466  41.860  35.797   2.290
  796W        W72467  25.336  40.156   0.689
  797W        W72468   0.708  33.039  12.838
  798W        W72469  23.236  15.315   2.418
  799W        W72470   0.904  39.994  13.324
  800W        W72471  24.392  39.957  10.761
  801W        W72472  20.100  25.209   1.752
  802W        W72473  22.510   7.099   3.697
  803W        W72474   8.751  31.422  12.582
  804W        W72475  26.135  20.837  14.990
  805W        W72476  18.254   8.223   0.458
  806W        W72477  41.904  26.824   3.368
  807W        W72478  44.027  28.734  10.954
  808W        W72479  38.053   9.530  13.751
  809W        W72480   5.973  23.437  11.151
  810W        W72481  21.080  22.262  11.418
  811W        W72482  42.466  12.719   1.390
  812W        W72483  22.426  30.572   1.756
  813W        W72484  19.405  43.431   4.941
  814W        W72485  34.654  31.842  11.375
  815W        W72486  19.872  24.008  11.110
  816W        W72487  14.323   3.225   0.562
  817W        W72488   2.262  10.746  10.685
  818W        W72489  20.457  39.681   9.818
  819W        W72490  43.412  16.746  14.740
  820W        W72491  23.537  31.188   3.256
  821W        W72492  21.303   0.775   0.833
  822W        W72493  24.739  26.430   4.576
  823W        W72494  44.250  39.070   3.993
  824W        W72495  33.442  39.897  11.373
  825W        W72496   6.379  30.597  11.600
  826W        W72497  26.524  25.269  12.478
  827W        W72498  25.968  16.570  10.763
  828W        W72499  38.121  17.009  11.101
  829W        W72500   9.857  23.275  11.905
  830W        W72501  34.800   3.492   3.674
  831W        W72502  19.970  27.440  12.576
  832W        W72503  10.525  12.295  13.298
  833W        W72504  40.036  37.587   1.896
  834W        W72505  44.696  33.648   0.419
  835W        W72506   5.472  39.553  10.717
  836W        W72507   6.419  10.902   1.312
  837W        W72508  27.157  37.861  11.956
  838W        W72509  17.955   7.146   0.764
  839W        W72510  28.904  39.539   2.914
  840W        W72511  28.481  26.234   1.439
  841W        W72512   0.476  20.315   3.703
  842W        W72513  14.922  12.020  11.629
  843W        W72514  26.615  19.537  14.822
  844W        W72515  16.259  35.828   1.603
  845W        W72516  25.077  16.981  14.430
  846W        W72517  38.417  22.092   0.926
  847W        W72518  30.898  32.990   1.823
  848W        W72519  16.582  27.635  13.254
  849W        W72520   2.482  14.329  14.118
  850W        W72521  14.762  29.419   0.204
  851W        W72522  34.549  14.114   4.406
  852W        W72523  33.815  33.072   4.630
  853W        W72524   0.367  28.287  11.453
  854W        W72525  21.728   3.468   3.885
  855W        W72526  10.337  14.718  13.381
  856W        W72527   1.652  10.536   4.579
  857W        W72528  16.012   9.139   2.630
  858W        W72529  22.272  39.573  12.364
  859W        W72530  13.671  19.671   4.578
  860W        W72531  30.749  35.094  13.436
  861W        W72532   9.919  19.486   2.826
  862W        W72533  41.720  33.416  12.436
  863W        W72534   4.483  18.462   1.365
  864W        W72535   5.459  32.228  12.651
  865W        W72536  20.340  15.306   3.335
  866W        W72537  29.044  17.360   1.249
  867W        W72538  18.047  41.135  13.402
  868W        W72539  15.237  41.901   2.469
  869W        W72540  10.765  27.715   3.753
  870W        W72541  27.402   6.274   4.794
  871W        W72542  30.468  14.489  14.518
  872W        W72543  38.620  40.993  12.906
  873W        W72544  10.750  33.031   2.877
  874W        W72545  12.794  40.366  13.063
  875W        W72546  33.691  41.700   3.160
  876W        W72547   7.174  21.484   4.053
  877W        W72548  15.328  10.655   0.382
  878W        W72549  29.718  24.919  13.799
  879W        W72550  28.315  36.210  13.746
  880W        W72551  36.452  10.390  14.757
  881W        W72552  43.376  31.225   4.176
  882W        W72553  27.256  13.899  13.896
  883W        W72554  44.609  18.745  11.964
  884W        W72555  34.859  27.211  11.556
  885W        W72556   1.191   9.707  10.725
  886W        W72557  38.818  22.124  14.835
  887W        W72558  31.046  22.591  13.336
  888W        W72559  18.381  40.916  11.692
  889W        W72560  21.716  23.517   1.227
  890W        W72561  14.747  19.755  12.665
  891W        W72562   3.836  31.898   2.603
  892W        W72563  18.282  31.654  14.024
  893W        W72564  36.890  41.534   4.833
  894W        W72565  18.755  41.834   3.258
  895W        W72566   4.253  11.921   1.293
  896W        W72567  22.092  17.185   0.730
  897W        W72568   8.679  13.829  14.942
  898W        W72569  13.663   7.487  14.463
  899W        W72570  19.452  23.697   5.102
  900W        W72571  30.352  35.561   1.873
  901W        W72572  43.822  37.517   3.105
  902W        W72573  29.652   8.466  14.365
  903W        W72574  33.500  37.507  10.053
  904W        W72575  36.654   1.236   1.362
  905W        W72576  24.499  29.539   3.639
  906W        W72577  42.506  33.792  11.201
  907W        W72578   6.198  10.147   0.379
  908W        W72579  22.765  30.214   0.018
  909W        W72580   9.878  35.498   3.733
  910W        W72581  30.703  11.589   0.369
  911W        W72582  21.490   6.626   2.165
  912W        W72583  16.112  40.945   0.452
  913W        W72584   1.239  11.214  14.564
  914W        W72585   4.322  23.109  13.048
  915W        W72586  16.247   9.965  11.148
  916W        W72587  23.298   1.020   0.750
  917W        W72588  34.108  27.518   1.782
  918W        W72589  40.683  23.816  13.277
  919W        W72590  29.489  27.004   4.220
  920W        W72591  44.427  41.586  10.655
  921W        W72592   5.663  18.090   0.351
  922W        W72593  12.806   0.536  11.640
  923W        W72594   4.241  41.733  13.070
  924W        W72595  19.079  20.930   1.819
  925W        W72596  26.957  19.670   4.160
  926W        W72597  12.211  37.262  11.987
  927W        W72598   0.813  13.187   0.901
  928W        W72599  36.878  22.749   1.347
  929W        W72600  31.585  11.198   1.968
  930W        W72601  35.280  32.171   5.037
  931W        W72602  40.433  27.088   1.480
  932W        W72603  43.220  15.364  14.025
  933W        W72604   6.874  41.494   3.256
  934W        W72605  41.616  28.799   2.838
  935W        W72606  41.824  12.817  11.210
  936W        W72607  33.452  14.792  12.617
  937W        W72608   1.364  31.875  10.597
  938W        W72609  31.167  10.698   1.903
  939W        W72610  42.288  14.461   3.709
  940W        W72611  36.363   1.604   3.758
  941W        W72612  27.632   9.190   0.782
  942W        W72613  42.321  24.074  14.387
  943W        W72614   3.303  43.405   4.097
  944W        W72615  30.439   1.435  11.019
  945W        W72616   1.434  13.119   3.668
  946W        W72617  35.219  42.117   1.695
  947W        W72618  36.383  31.865   4.156
  948W        W72619   5.403  39.621   1.808
  949W        W72620  32.022   4.270  14.238
  950W        W72621  32.518  12.336   4.255
  951W        W72622  16.771  11.740  14.358
  952W        W72623   3.902  34.556  14.899
  953W        W72624  39.878   0.209   2.820
  954W        W72625  25.905  43.421  14.384
  955W        W72626  40.831  21.035   0.881
  956W        W72627   1.026  27.170  11.020
  957W        W72628  25.104  16.219   0.022
  958W        W72629  13.072  27.529   2.866
  959W        W72630  13.373  42.369  13.009
  960W        W72631  42.393  30.606  10.640
  961W        W72632  23.267  24.591   3.348
  962W        W72633  39.963  29.396  14.729
  963W        W72634  23.707   9.965   0.237
  964W        W72635  27.929  32.089   2.384
  965W        W72636  35.352  14.729  12.831
  966W        W72637  36.865  14.938  13.817
  967W        W72638  42.326  41.422   1.927
  968W        W72639  28.632  35.528  14.202
  969W        W72640  36.620  28.042  14.304
  970W        W72641  35.609  10.543   1.235
  971W        W72642  13.076  31.359  11.777
  972W        W72643  30.121  19.077  13.464
  973W        W72644  23.305  19.941  13.210
  974W        W72645  16.965  35.582   1.227
  975W        W72646  19.792  28.713   4.081
  976W        W72647  43.911  31.176   3.628
  977W        W72648  43.085   4.390   1.927
  978W        W72649  12.020  16.188  11.520
  979W        W72650  32.540  17.153   4.432
  980W        W72651  43.442  11.805   3.299
  981W        W72652  20.332  15.033  11.412
  982W        W72653   8.462  29.619   1.304
  983W        W72654  41.583   2.612  11.609
  984W        W72655  12.641  24.748  12.060
  985W        W72656  36.561  25.932  12.034
  986W        W72657  11.764   5.122  14.848
  987W        W72658   1.920  16.286  14.426
  988W        W72659  44.282  36.458  10.439
  989W        W72660   0.859   2.859   4.722
  990W        W72661  39.485  25.109   3.846
  991W        W72662   4.608  13.559   3.795
  992W        W72663  21.657   3.293  14.119
  993W        W72664   9.710   8.528   2.240
  994W        W72665  41.958  43.023   4.555
  995W        W72666   9.970  29.552  13.840
  996W        W72667   4.930  23.086   1.400
  997W        W72668  21.572  29.109   4.953
  998W        W72669  25.362  18.484  11.095
  999W        W72670   2.865   9.596   3.735
 1000W        W72671  30.494  26.509  11.506
 1001W        W72672  33.076  31.551   3.752
 1002W        W72673  41.578  17.992  14.389
 1003W        W72674  16.224  23.514  12.498
 1004W        W72675  30.338  43.852  11.202
 1005W        W72676  26.631   0.258   4.598
 1006W        W72677  44.383  43.214  11.629
 1007W        W72678  17.309  41.878  12.104
 1008W        W72679   6.552  44.845   3.852
 1009W        W72680  10.612   8.943   1.809
 1010W        W72681  42.449  10.458  13.496
 1011W        W72682   3.425  32.984  10.569
 1012W        W72683  18.924  30.116   1.868
 1013W        W72684  21.971  44.912  14.565
 1014W        W72685  38.339   1.546  13.373
 1015W        W72686   2.991  21.189  13.879
 1016W        W72687  18.377  36.912  10.472
 1017W        W72688  16.583  13.153  12.036
 1018W        W72689  30.799  15.693   1.979
 1019W        W72690  42.538  36.795  14.500
 1020W        W72691   8.446  16.189   4.132
 1021W        W72692   8.401  30.289   0.165
 1022W        W72693  31.361  15.171   4.663
 1023W        W72694   2.512  15.765   0.231
 1024W        W72695  23.359  15.459  14.562
 1025W        W72696  11.750  10.151   5.046
 1026W        W72697   4.908  17.054  10.873
 1027W        W72698   2.661   9.216  13.025
 1028W        W72699  31.057  38.620  11.006
 1029W        W72700  15.048  15.062   3.546
 1030W        W72701  29.537  36.799  12.503
 1031W        W72702  11.828   9.253   4.536
 1032W        W72703  34.783  41.083   2.490
 1033W        W72704   3.403  36.461   1.404
 1034W        W72705  34.899  38.898  14.667
 1035W        W72706  12.266   5.802   1.336
 1036W        W72707   5.708  29.574  10.551
 1037W        W72708   8.875   5.246   2.825
 1038W        W72709   3.507   7.877   1.006
 1039W        W72710  15.785  22.133   2.290
 1040W        W72711  13.832  39.232   0.340
 1041W        W72712  29.944  37.605  12.123
 1042W        W72713  29.079  39.962   2.631
 1043W        W72714   4.040   5.885   0.159
 1044W        W72715  26.417  20.552  13.886
 1045W        W72716  40.615  17.355   4.546
 1046W        W72717   8.887   2.507   0.023
 1047W        W72718   3.398  24.975  13.951
 1048W        W72719  43.358  19.558  11.536
 1049W        W72720  11.621  10.256  14.957
 1050W        W72721  26.288   9.878  11.061
 1051W        W72722  38.354  32.049   0.278
 1052W        W72723  37.344   0.813   4.637
 1053W        W72724  14.821   9.835   3.524
 1054W        W72725   8.221   4.473  11.397
 1055W        W72726  23.352   7.727   4.646
 1056W        W72727  12.294  22.730   3.647
 1057W        W72728  22.353  29.014   1.764
 1058W        W72729  21.713  24.775   2.642
 1059W        W72730  24.025  11.118  14.268
 1060W        W72731   6.405  18.292  13.559
 1061W        W72732  18.168  10.843  13.123
 1062W        W72733  36.076  40.454   0.549
 1063W        W72734  25.073  32.256   0.778
 1064W        W72735  30.159  44.245   3.224
 1065W        W72736  14.874  12.219  10.883
 1066W        W72737  24.208  41.837  11.614
 1067W        W72738  35.498  13.311  12.928
 1068W        W72739  21.882  15.608  11.930
 1069W        W72740  32.701   6.143   0.761
 1070W        W72741  31.446  16.056  12.561
 1071W        W72742   2.507  32.650   4.525
 1072W        W72743  12.337   7.872  13.838
 1073W        W72744  29.715  13.011  13.916
 1074W        W72745  41.714  18.044   3.184
 1075W        W72746   7.397  44.030   2.779
 1076W        W72747  30.231  23.428  12.519
 1077W        W72748  29.260  37.448  14.335
 1078W        W72749   6.740  32.019  13.914
 1079W        W72750  21.909  18.922  13.391
 1080W        W72751   9.817   2.438   2.631
 1081W        W72752  35.036  37.093  13.574
 1082W        W72753   1.749  44.311   2.476
 1083W        W72754  15.663  37.457  14.365
 1084W        W72755  36.234  14.197  12.378
 1085W        W72756  25.733  27.943   1.821
 1086W        W72757  38.522   8.405   0.897
 1087W        W72758  39.955  43.272  14.813
 1088W        W72759  13.708  42.419  11.017
 1089W        W72760  41.236  31.658   0.736
 1090W        W72761  19.853  21.533  11.978
 1091W        W72762  42.082  41.873  10.251
 1092W        W72763  14.108  40.859  11.982
 1093W        W72764  31.131  35.054  10.769
 1094W        W72765  24.234   6.342  11.118
 1095W        W72766  15.442  12.397   3.062
 1096W        W72767  16.321  16.862   4.051
 1097W        W72768   0.447  40.313   0.296
 1098W        W72769  28.014  31.833  14.107
 1099W        W72770   0.785   0.853   4.841
 1100W        W72771   1.529  19.926   9.722
 1101W        W72772  35.485  28.690   2.270
 1102W        W72773  16.337   9.664   3.930
 1103W        W72774  35.087   3.811   1.964
 1104W        W72775  43.495  38.510   2.626
 1105W        W72776  31.026  41.112  11.868
 1106W        W72777  11.421   0.082   1.607
 1107W        W72778  17.815  17.883  14.188
 1108W        W72779  16.836  19.595   3.982
 1109W        W72780  24.368  35.986   4.459
 1110W        W72781  27.831  15.014   0.245
 1111W        W72782  42.141   5.446  14.590
 1112W        W72783  14.208  29.145   1.346
 1113W        W72784  44.900  40.739   3.310
 1114W        W72785  40.951  26.365   1.831
 1115W        W72786  22.700  22.504  10.587
 1116W        W72787  13.647  19.606   1.764
 1117W        W72788  34.914   3.114   4.533
 1118W        W72789  23.893  14.946   1.123
 1119W        W72790  31.988  39.502   4.743
 1120W        W72791  38.089   1.761   4.805
 1121W        W72792   2.060  30.980  13.863
 1122W        W72793  18.810  16.002  11.925
 1123W        W72794  37.773  39.532  11.077
 1124W        W72795  10.103  16.987  12.921
 1125W        W72796  35.838  18.565  12.581
 1126W        W72797  18.046   3.981   1.704
 1127W        W72798  11.190  21.284   3.198
 1128W        W72799   9.810   9.450  14.396
 1129W        W72800  30.444  31.076  10.678
 1130W        W72801  29.904  13.153   2.828
 1131W        W72802  28.395   1.318  12.906
 1132W        W72803  17.151  25.388  12.091
 1133W        W72804  26.474  36.062  13.757
 1134W        W72805  41.318  16.605   1.323
 1135W        W72806  35.905  26.973   3.196
 1136W        W72807   5.042  42.315  11.280
 1137W        W72808  16.314  27.526   3.050
 1138W        W72809   9.194  35.095  11.482
 1139W        W72810   5.218  25.637  13.062
 1140W        W72811  37.993  39.839   1.485
 1141W        W72812   3.909  20.183  12.606
 1142W        W72813   5.757  42.026   3.812
 1143W        W72814   6.428  32.457   2.291
 1144W        W72815   9.803  22.304   2.357
 1145W        W72816  17.315  30.163  12.538
 1146W        W72817  44.671  11.331  14.944
 1147W        W72818  32.896  44.873   2.187
 1148W        W72819  24.857  22.598   3.583
 1149W        W72820   2.183  12.839   0.853
 1150W        W72821  28.041  10.809   3.139
 1151W        W72822  25.508  19.355  11.524
 1152W        W72823  10.441  39.492   1.856
 1153W        W72824  23.939  39.519   2.330
 1154W        W72825  38.161   7.397   5.046
 1155W        W72826   5.908  28.000  10.207
 1156W        W72827  18.094  24.372   3.658
 1157W        W72828  32.394  33.593   1.290
 1158W        W72829  42.243  42.885  11.965
 1159W        W72830  20.980  23.183  11.818
 1160W        W72831  19.707  20.785  10.926
 1161W        W72832  39.602  33.610   3.050
 1162W        W72833  39.052  38.620  13.419
 1163W        W72834   6.365   7.871   3.840
 1164W        W72835  14.820  40.791   1.187
 1165W        W72836  19.444   9.685  12.910
 1166W        W72837  16.077  18.245  13.832
 1167W        W72838  41.809   8.013  14.898
 1168W        W72839  39.526   8.211   0.825
 1169W        W72840  21.352  10.856  13.173
 1170W        W72841  34.379  29.327  11.939
 1171W        W72842  18.609   6.969   3.177
 1172W        W72843   7.667  43.442   3.793
 1173W        W72844  22.515   5.736  14.316
 1174W        W72845  18.785   9.284   3.128
 1175W        W72846   5.972  17.755  13.052
 1176W        W72847  22.988   1.618  12.820
 1177W        W72848  10.047  13.399   0.288
 1178W        W72849  34.657  34.067   3.342
 1179W        W72850  29.912  19.900  10.759
 1180W        W72851  43.097   3.153   2.362
 1181W        W72852   1.078   5.675  13.956
 1182W        W72853  11.565  26.157  13.789
 1183W        W72854  19.730  29.886   0.963
 1184W        W72855  18.384  25.143   2.357
 1185W        W72856  27.484  31.400   4.662
 1186W        W72857   1.377  34.353   4.508
 1187W        W72858  37.471   1.687  12.994
 1188W        W72859   8.302  23.951  11.575
 1189W        W72860  22.167  27.180   1.912
 1190W        W72861  21.187  18.066  12.436
 1191W        W72862  38.476   2.879   1.238
 1192W        W72863  40.900  23.029   4.443
 1193W        W72864   1.184   8.313  13.014
 1194W        W72865  17.550  10.121   2.881
 1195W        W72866  44.464  37.107   1.451
 1196W        W72867  40.307  13.726  13.082
 1197W        W72868  26.929  16.312   1.206
 1198W        W72869  36.921  39.901  12.154
 1199W        W72870   4.475  32.899   3.234
 1200W        W72871  41.736  27.028   4.709
 1201W        W72872  27.701  35.118  11.901
 1202W        W72873   8.787  26.877   0.373
 1203W        W72874   6.177   2.021   1.352
 1204W        W72875  19.660  29.054  14.973
 1205W        W72876  31.943  39.936  12.525
 1206W        W72877   6.858  10.371  14.858
 1207W        W72878  22.417   1.774  14.865
 1208W        W72879  35.320  36.902  14.721
 1209W        W72880  27.055  16.766  10.955
 1210W        W72881   8.363  33.584  14.473
 1211W        W72882   9.312   3.401  10.359
 1212W        W72883   6.279  23.739  12.374
 1213W        W72884   3.277  24.155   1.622
 1214W        W72885   2.745  37.719   3.115
 1215W        W72886  23.930  27.002  11.176
 1216W        W72887   8.848  33.485  13.553
 1217W        W72888   4.196  28.921  11.896
 1218W        W72889   4.982  10.757   4.049
 1219W        W72890  25.265   1.453   3.012
 1220W        W72891   3.845  35.135   2.259
 1221W        W72892   4.294   8.939  13.499
 1222W        W72893  12.663  16.062   3.333
 1223W        W72894  22.154  15.701  14.845
 1224W        W72895  21.033   0.002   1.304
 1225W        W72896  14.788  25.154  14.202
 1226W        W72897  32.889  24.540  12.082
 1227W        W72898  20.294  34.870  14.396
 1228W        W72899  21.735   3.029   3.269
 1229W        W72900   7.221  10.686  10.438
 1230W        W72901  41.835  32.644  12.923
 1231W        W72902  44.245  29.080  10.505
 1232W        W72903  11.905   4.493  11.476
 1233W        W72904   0.708  11.361   1.965
 1234W        W72905  17.969  17.618   1.506
 1235W        W72906  40.659  10.300  10.065
 1236W        W72907   7.896  29.031   3.146
 1237W        W72908   0.215  31.907   1.416
 1238W        W72909  12.003  30.673   2.259
 1239W        W72910  22.302  31.958  11.545
 1240W        W72911   8.711   9.860  12.005
 1241W        W72912  14.726  13.250   2.199
 1242W        W72913  16.696  25.705  14.894
 1243W        W72914  31.766   3.999   4.854
 1244W        W72915  16.463  21.619   3.916
 1245W        W72916  10.665  27.023  11.615
 1246W        W72917  26.081  39.338  12.535
 1247W        W72918  24.833   7.695   0.211
 1248W        W72919  19.641  41.782   1.340
 1249W        W72920   8.750  37.844  11.127
 1250W        W72921   6.868  43.699  14.208
 1251W        W72922  19.734  14.595  10.291
 1252W        W72923  21.810  21.770   3.705
 1253W        W72924  42.088  40.967   1.831
 1254W        W72925  27.988  18.232  11.712
 1255W        W72926  31.957  20.602  14.984
 1256W        W72927  16.193  29.106   4.624
 1257W        W72928  11.176  34.356  11.564
 1258W        W72929  23.708  28.307   2.869
 1259W        W72930  16.569  26.169   1.648
 1260W        W72931   1.504  10.207   4.944
 1261W        W72932  38.380  33.449  11.862
 1262W        W72933  43.941  19.743   2.947
 1263W        W72934  25.659  13.085   2.789
 1264W        W72935   4.030  33.391  11.120
 1265W        W72936  11.850  41.425   1.730
 1266W        W72937  29.159  35.683  11.177
 1267W        W72938  13.933  22.040  14.113
 1268W        W72939   0.147  14.701  14.508
 1269W        W72940  13.249   4.002   0.335
 1270W        W72941  11.859  17.585  10.811
 1271W        W72942  17.503  30.591   0.644
 1272W        W72943  20.101  33.640  11.632
 1273W        W72944  24.802  10.635   0.714
 1274W        W72945   1.319   0.165   1.906
 1275W        W72946   7.638  35.409  10.455
 1276W        W72947   5.904  31.508  10.529
 1277W        W72948  41.058   1.897  12.520
 1278W        W72949  27.805  28.490  14.271
 1279W        W72950  36.812   2.369  13.914
 1280W        W72951  27.760  20.211  12.927
 1281W        W72952  21.272  25.258   4.190
 1282W        W72953   2.759  32.963   1.970
 1283W        W72954  30.980  28.919  11.979
 1284W        W72955  18.290  11.748  12.662
 1285W        W72956  33.602  21.965  11.241
 1286W        W72957   1.783  24.493  14.822
 1287W        W72958  28.657   6.091   0.606
 1288W        W72959   3.514  19.911   0.039
 1289W        W72960  27.830  20.020   1.678
 1290W        W72961  36.930  18.472  12.968
 1291W        W72962  18.582  31.358  11.300
 1292W        W72963   7.931   9.827   4.679
 1293W        W72964  21.964  24.341   4.537
 1294W        W72965  33.644  10.409   3.160
 1295W        W72966  20.395  33.495   1.848
 1296W        W72967  15.288  25.788   2.366
 1297W        W72968   1.283  22.142  11.514
 1298W        W72969  37.818   0.675  13.096
 1299W        W72970  23.138  23.161  14.367
 1300W        W72971  10.434  22.259   3.717
 1301W        W72972   9.166  31.996  11.185
 1302W        W72973  25.126  33.960  10.838
 1303W        W72974  33.662  43.187  10.275
 1304W        W72975  10.670  22.667   4.434
 1305W        W72976  38.138   9.144  14.406
 1306W        W72977  40.051  34.484   1.771
 1307W        W72978  30.449  21.034  14.463
 1308W        W72979  28.671  39.465  10.585
 1309W        W72980  21.973  25.080  12.816
 1310W        W72981  14.642  40.048  12.845
 1311W        W72982  38.506  41.177   4.330
 1312W        W72983  35.150  22.928  11.179
 1313W        W72984  23.200  33.091  13.756
 1314W        W72985  13.782   1.847  13.417
 1315W        W72986  18.027   0.460   4.191
 1316W        W72987  20.001   2.429   2.300
 1317W        W72988  19.744  41.427   3.855
 1318W        W72989  11.364  33.102   0.236
 1319W        W72990  31.159  24.817   4.336
 1320W        W72991  26.272  24.567  11.081
 1321W        W72992  16.227  27.620  11.540
 1322W        W72993   4.897  12.706  14.339
 1323W        W72994  32.692  30.710  13.926
 1324W        W72995   8.611  38.444   4.175
 1325W        W72996  34.236  31.856   2.197
 1326W        W72997   3.050   3.320   4.431
 1327W        W72998  34.680  20.790   4.010
 1328W        W72999   7.270  16.189   1.287
 1329W        W73000  36.729   7.215  12.061
 1330W        W73001   8.639  19.065  14.977
 1331W        W73002  27.995  13.145  13.457
 1332W        W73003  37.824  20.828   0.803
 1333W        W73004  10.981  14.221  11.553
 1334W        W73005  19.901  21.975   2.207
 1335W        W73006  28.848  37.089  14.320
 1336W        W73007  16.834  12.505   0.899
 1337W        W73008   9.293  23.201  11.714
 1338W        W73009   1.915  29.198  13.357
 1339W        W73010  42.093  27.975  13.830
 1340W        W73011  17.111  36.080  13.598
 1341W        W73012  39.490  43.896  10.952
 1342W        W73013  22.686  39.280   2.921
 1343W        W73014  44.320  34.565   3.242
 1344W        W73015   5.277  29.915   1.775
 1345W        W73016   8.304  29.026  10.798
 1346W        W73017  14.148  20.047  12.561
 1347W        W73018  40.103  35.920   1.395
 1348W        W73019  24.727  44.210   0.740
 1349W        W73020   9.927  30.925  13.868
 1350W        W73021  34.070  15.799  11.992
 1351W        W73022  37.644   3.403  13.599
 1352W        W73023  41.993   5.715   3.090
 1353W        W73024  34.201  29.584  12.560
 1354W        W73025  41.872  24.550   1.701
 1355W        W73026  26.743  20.013  12.974
 1356W        W73027   6.592  11.574  11.056
 1357W        W73028   0.525   8.827  12.396
 1358W        W73029  24.515  17.997   1.018
 1359W        W73030  37.466  44.037   3.191
 1360W        W73031   2.468  24.977  14.892
 1361W        W73032  29.553  30.629   1.896
 1362W        W73033  32.399  41.255  14.326
 1363W        W73034  44.540  24.221  12.044
 1364W        W73035   5.531  24.568   4.493
 1365W        W73036  37.147  40.408   2.329
 1366W        W73037   6.193  25.123  14.523
 1367W        W73038  30.870  14.951  13.669
 1368W        W73039   3.032  11.351  13.489
 1369W        W73040  31.888  15.055  14.440
 1370W        W73041  26.948  31.412  12.704
 1371W        W73042  37.924  38.632   4.519
 1372W        W73043  26.726   2.783  11.123
 1373W        W73044  26.542  39.046  13.957
 1374W        W73045  34.421  10.079   4.088
 1375W        W73046  24.195  16.295  12.017
 1376W        W73047  36.576  11.488   1.609
 1377W        W73048   7.207   9.293   3.246
 1378W        W73049  34.338  22.531   0.204
 1379W        W73050  23.277  14.945   1.359
 1380W        W73051  22.629  27.233   1.101
 1381W        W73052   8.356  20.821  11.531
 1382W        W73053  43.401  18.836   3.916
 1383W        W73054  37.493   3.786   2.742
 1384W        W73055  23.838  20.281  11.540
 1385W        W73056  16.339   4.052  11.538
 1386W        W73057  23.977  23.343   2.999
 1387W        W73058   6.618  10.531  12.086
 1388W        W73059  23.584  18.698   1.165
 1389W        W73060   1.802  22.467   1.996
 1390W        W73061  19.725   5.403  14.931
 1391W        W73062   9.921  43.881   1.810
 1392W        W73063  44.218   5.440  14.622
 1393W        W73064   1.904  28.876  14.330
 1394W        W73065  43.872  22.119  10.723
 1395W        W73066   7.715  18.830  13.811
 1396W        W73067  18.755  15.086   4.105
 1397W        W73068  38.307  25.979   0.432
 1398W        W73069  21.462   9.974  14.846
 1399W        W73070  33.084   3.196   0.827
 1400W        W73071  41.897  34.613  11.173
 1401W        W73072  44.516  28.234   3.287
 1402W        W73073  36.404   2.499  14.777
 1403W        W73074  44.711  21.620  10.993
 1404W        W73075   2.354  15.083  10.528
 1405W        W73076   8.353  15.494  13.414
 1406W        W73077  34.374   3.249   1.132
 1407W        W73078  19.328  11.161  11.030
 1408W        W73079  10.813  13.561   4.159
 1409W        W73080  17.782  33.870   1.071
 1410W        W73081  35.798  16.338  11.142
 1411W        W73082  12.773  22.168   0.891
 1412W        W73083  27.172  15.311  10.395
 1413W        W73084  11.278  31.913   2.150
 1414W        W73085  12.194  40.367   3.973
 1415W        W73086  13.282  17.497   3.637
 1416W        W73087  41.253  23.472  12.510
 1417W        W73088  21.937   9.376   3.801
 1418W        W73089  36.566  34.800  10.693
 1419W        W73090  27.030   1.611  12.949
 1420W        W73091  31.005   6.717  13.385
 1421W        W73092  40.271  25.509  12.512
 1422W        W73093  17.229  38.814   1.056
 1423W        W73094  35.417  22.584   3.831
 1424W        W73095  19.207  24.160   3.171
 1425W        W73096  43.718  41.128   9.683
 1426W        W73097   7.164  43.977  12.591
 1427W        W73098  24.024  42.319   2.747
 1428W        W73099  12.107  12.317   2.292
 1429W        W73100   5.978   6.238   1.353
 1430W        W73101  13.191   5.215  10.685
 1431W        W73102   9.301  37.810  11.301
 1432W        W73103  43.557  23.546   4.115
 1433W        W73104  43.717  20.693   2.873
 1434W        W73105  23.788  11.813  14.065
 1435W        W73106  25.329  27.054   3.099
 1436W        W73107  36.120  30.470   1.012
 1437W        W73108  30.913   1.228   3.091
 1438W        W73109  31.810  15.798   3.724
 1439W        W73110   1.080  13.766   1.249
 1440W        W73111  19.275  22.915  13.537
 1441W        W73112  37.145  12.007  14.354
 1442W        W73113   9.138  18.959   0.002
 1443W        W73114  28.217  25.087   3.655
 1444W        W73115  20.092  18.165   4.593
 1445W        W73116  40.378  11.892   0.904
 1446W        W73117  32.920  15.594  11.563
 1447W        W73118  29.419  41.823  10.731
 1448W        W73119  14.644  27.708  11.139
 1449W        W73120   2.763   8.265   3.818
 1450W        W73121  17.405  31.400   3.453
 1451W        W73122  21.518  39.701  10.557
 1452W        W73123   1.514  15.456  10.595
 1453W        W73124  20.231  34.137   2.870
 1454W        W73125   3.429  32.387   1.204
 1455W        W73126  10.207  14.577   3.667
 1456W        W73127  37.314   5.077  13.092
 1457W        W73128  31.843  25.475   3.119
 1458W        W73129   6.134  24.575   0.270
 1459W        W73130  19.904  44.772   3.173
 1460W        W73131  30.220   9.762  13.814
 1461W        W73132  25.785  17.671   2.961
 1462W        W73133  17.743   9.458  14.932
 1463W        W73134  11.027  28.847   3.326
 1464W        W73135  15.844   0.391  10.241
 1465W        W73136  11.691  35.401  12.444
 1466W        W73137  38.982   9.206   5.021
 1467W        W73138  34.544  21.657   4.179
 1468W        W73139  16.215  11.788   1.027
 1469W        W73140   7.165  10.548   3.575
 1470W        W73141   5.734  10.689  11.870
 1471W        W73142  32.829  10.917  13.961
 1472W        W73143  29.499   4.201   1.793
 1473W        W73144   0.982   7.069   3.146
 1474W        W73145   2.273  24.289  12.445
 1475W        W73146  31.558  41.576  10.628
 1476W        W73147   3.826  23.980   2.228
 1477W        W73148  43.215  23.524   5.421
 1478W        W73149  21.415  38.911   0.329
 1479W        W73150  35.249  36.359   4.928
 1480W        W73151  10.061   9.254  13.950
 1481W        W73152   8.707  15.884  14.660
 1482W        W73153  24.592  23.612   4.055
 1483W        W73154  21.655  37.876  12.567
 1484W        W73155  42.920  17.510   4.649
 1485W        W73156  44.453  37.847  12.735
 1486W        W73157  30.583  26.142   0.745
 1487W        W73158  41.188  22.659   3.584
 1488W        W73159  28.971  12.527  12.903
 1489W        W73160   2.379  24.789  11.644
 1490W        W73161  37.165  34.067   0.373
 1491W        W73162  17.845  36.156   1.847
 1492W        W73163  25.979  22.210  14.731
 1493W        W73164  39.836  40.300   0.183
 1494W        W73165  10.097  11.192   0.832
 1495W        W73166  17.801  23.062   4.261
 1496W        W73167  19.225  21.329  13.766
 1497W        W73168   1.463  30.635   1.957
 1498W        W73169  39.797  12.760   4.601
 1499W        W73170  18.140  18.373   3.267
 1500W        W73171  44.570  32.375  11.469
 1501W        W73172  37.432  19.014   2.936
 1502W        W73173  12.693  28.594   1.696
 1503W        W73174  23.724   7.347   2.300
 1504W        W73175   5.359   8.377   2.942
 1505W        W73176   0.733  42.509  13.531
 1506W        W73177  28.681  22.415  11.836
 1507W        W73178  26.140  36.115   4.778
 1508W        W73179  31.650  42.179   1.806
 1509W        W73180  30.960  17.087   2.314
 1510W        W73181  33.799   1.426  11.331
 1511W        W73182  21.111  29.223   1.042
 1512W        W73183  28.955   2.433  10.486
 1513W        W73184  27.110  39.305  14.772
 1514W        W73185  17.295  23.972   3.161
 1515W        W73186  19.772  30.516   4.966
 1516W        W73187  26.937   4.113  13.257
 1517W        W73188  44.260  42.312  11.440
 1518W        W73189   5.284   0.368  11.588
 1519W        W73190   9.251  28.222   1.425
 1520W        W73191   4.649  19.956  13.030
 1521W        W73192  23.425  27.098  11.434
 1522W        W73193  41.240  39.093  13.959
 1523W        W73194   5.910  35.429  13.829
 1524W        W73195  21.653  30.800  13.872
 1525W        W73196  42.474  23.554  10.224
 1526W        W73197  34.730  28.254   3.970
 1527W        W73198   6.013  36.063  14.926
 1528W        W73199   0.346  33.913   1.784
 1529W        W73200  40.860  34.604  14.976
 1530W        W73201  33.802  22.735  14.261
 1531W        W73202   1.763   9.136  13.113
 1532W        W73203  29.686  19.566  11.115
 1533W        W73204  10.823  14.862  13.260
 1534W        W73205  25.207  29.387   0.464
 1535W        W73206  12.133  28.991   0.371
 1536W        W73207  40.093   6.281   4.126
 1537W        W73208   5.651  26.169   2.777
 1538W        W73209  25.438   0.930   1.863
 1539W        W73210  17.117  34.855  14.039
 1540W        W73211   6.232  33.012  11.072
 1541W        W73212  38.151   3.166   2.495
 1542W        W73213  37.815   2.985   4.732
 1543W        W73214   8.225  37.863  13.550
 1544W        W73215  35.052  28.641  11.866
 1545W        W73216  22.342  27.772  12.641
 1546W        W73217  38.896  18.356   2.309
 1547W        W73218  14.745  12.712  12.624
 1548W        W73219  19.146  39.573   4.859
 1549W        W73220   9.234  22.310   4.049
 1550W        W73221  23.444  19.654   0.488
 1551W        W73222  19.147  33.702   0.324
 1552W        W73223  35.931  24.005  13.336
 1553W        W73224  31.635  40.871   1.750
 1554W        W73225   5.417   7.146   4.400
 1555W        W73226  33.517  29.214   2.146
 1556W        W73227  34.983   5.080  13.186
 1557W        W73228  44.979  20.146   3.741
 1558W        W73229  26.217  33.858  13.274
 1559W        W73230  24.749  10.871   2.768
 1560W        W73231  17.155   9.305   4.375
 1561W        W73232   1.292  29.611   2.858
 1562W        W73233  42.832  37.415  10.685
 1563W        W73234  30.140  18.788   4.586
 1564W        W73235  24.130   6.709   1.134
 1565W        W73236  41.461  24.584   3.458
 1566W        W73237  24.103   0.531   1.135
 1567W        W73238  14.008   0.494   1.174
 1568W        W73239  28.654  42.875   1.277
 1569W        W73240  24.160   3.824   3.691
 1570W        W73241  14.545  17.097   4.554
 1571W        W73242  34.591  25.950  12.173
 1572W        W73243  33.183   4.986  14.367
 1573W        W73244  22.622  37.570  14.070
 1574W        W73245  24.957  39.417   0.647
 1575W        W73246  44.643  19.377   1.745
 1576W        W73247  30.795   4.421   3.553
 1577W        W73248  25.405  42.476  11.574
 1578W        W73249  17.443   8.855   4.341
 1579W        W73250  22.653  31.314   2.661
 1580W        W73251  10.177   2.000   4.715
 1581W        W73252   7.403  43.972   3.656
 1582W        W73253  21.100  26.160   1.717
 1583W        W73254  41.129  28.445   0.444
 1584W        W73255  38.868  42.809   3.929
 1585W        W73256  18.672  37.534   4.646
 1586W        W73257   0.964  38.804  11.224
 1587W        W73258  21.586  31.564  10.686
 1588W        W73259  43.473  35.955  14.816
 1589W        W73260   1.193   9.894   0.291
 1590W        W73261   3.993  43.672  11.095
 1591W        W73262  23.672  39.295   4.176
 1592W        W73263   1.409  15.574  14.614
 1593W        W73264  10.956  11.530  11.976
 1594W        W73265  38.646  34.310  13.093
 1595W        W73266  37.001  34.069   1.355
 1596W        W73267  21.772  17.525   4.738
 1597W        W73268  15.312  22.798  12.061
 1598W        W73269   7.395  31.216   4.737
 1599W        W73270  31.185   8.562  13.338
 1600W        W73271   0.949   8.288  11.673
 1601W        W73272  13.135  29.574   1.999
 1602W        W73273  26.121  31.148  10.754
 1603W        W73274   6.106  14.748   0.034
 1604W        W73275  24.753  35.307   0.724
 1605W        W73276  40.526  24.995  12.680
 1606W        W73277  29.006  12.576  12.327
 1607W        W73278  20.219  17.943  12.461
 1608W        W73279  20.168  27.910  12.049
 1609W        W73280   2.251  36.160  11.660
 1610W        W73281  37.836  13.393  13.615
 1611W        W73282  21.810  35.821  12.472
 1612W        W73283  10.310  10.812   4.096
 1613W        W73284  38.915  34.349   2.265
 1614W        W73285   2.420  38.949  14.741
 1615W        W73286  12.611   9.115  11.564
 1616W        W73287  11.485   7.564  13.902
 1617W        W73288  20.609  20.687   3.385
 1618W        W73289  28.889   6.201   3.698
 1619W        W73290  24.609  31.611   0.804
 1620W        W73291  29.127  44.978   4.120
 1621W        W73292   2.351  34.477   0.936
 1622W        W73293  18.044  11.841  14.545
 1623W        W73294   1.432  17.320  13.838
 1624W        W73295   7.351  12.945  13.048
 1625W        W73296  21.307  15.210  12.654
 1626W        W73297   8.987  34.420  13.394
 1627W        W73298  33.431   1.996  14.897
 1628W        W73299  20.601  36.406   0.976
 1629W        W73300  25.899   9.887   2.687
 1630W        W73301  30.082  35.559  12.523
 1631W        W73302   2.239  10.734  14.784
 1632W        W73303  27.211  36.829   3.640
 1633W        W73304  22.050  36.630  13.127
 1634W        W73305   0.931  43.252   0.384
 1635W        W73306  16.192  34.141  11.295
 1636W        W73307  10.738  10.808   0.657
 1637W        W73308  28.532  32.875   4.164
 1638W        W73309   4.409  17.794   3.017
 1639W        W73310  44.301   7.737   4.349
 1640W        W73311  34.483   2.224  11.186
 1641W        W73312   4.935   7.823   1.836
 1642W        W73313   7.692  19.803   1.358
 1643W        W73314  12.523  28.095   4.232
 1644W        W73315  21.713  10.914  14.918
 1645W        W73316  14.729   7.099   4.482
 1646W        W73317  42.128  17.760  11.919
 1647W        W73318  24.392  32.116  10.825
 1648W        W73319  41.556  28.609   0.192
 1649W        W73320  37.804  42.073   4.890
 1650W        W73321  44.950   0.222   0.793
 1651W        W73322  27.960  19.537   3.670
 1652W        W73323  39.451  19.218  12.939
 1653W        W73324  20.652  12.665   0.924
 1654W        W73325  17.747  39.360   1.147
 1655W        W73326  30.407  38.488  13.783
 1656W        W73327  11.060  41.619  11.116
 1657W        W73328   8.281   6.148   1.805
 1658W        W73329  41.824  17.069  13.338
 1659W        W73330  24.463   6.716   4.253
 1660W        W73331  43.829  44.847  13.169
 1661W        W73332   4.260   3.493   3.738
 1662W        W73333  40.334  15.906  13.449
 1663W        W73334   8.887  23.432  13.834
 1664W        W73335  40.847  44.400   4.609
 1665W        W73336   2.318  31.939  11.075
 1666W        W73337   4.360  19.783   1.740
 1667W        W73338  39.803   4.659   2.689
 1668W        W73339  32.425  16.567  11.162
 1669W        W73340   1.229  36.424  11.173
 1670W        W73341  13.766   7.129   9.841
 1671W        W73342   5.211   7.197  11.479
 1672W        W73343  40.441  32.160  11.938
 1673W        W73344   2.061   0.898  12.960
 1674W        W73345   1.679  34.667  11.083
 1675W        W73346   7.249  31.172  14.192
 1676W        W73347   9.779  16.362  14.392
 1677W        W73348  44.401   2.848   1.420
 1678W        W73349  32.953  19.008   2.807
 1679W        W73350  21.385  11.745  10.034
 1680W        W73351   6.182  34.168  10.716
 1681W        W73352   8.693  37.266   2.367
 1682W        W73353  11.471  10.761  12.816
 1683W        W73354  37.499  34.875   2.179
 1684W        W73355  22.272  18.171  10.602
 1685W        W73356  30.052  27.108  14.514
 1686W        W73357  20.698   5.274  11.916
 1687W        W73358  19.952  42.206   4.268
 1688W        W73359  44.975  22.212  12.629
 1689W        W73360  18.666  40.940  12.161
 1690W        W73361  10.149  21.673  14.740
 1691W        W73362  17.029  41.480   4.511
 1692W        W73363   4.217  37.549   0.038
 1693W        W73364  32.542  32.462  13.135
 1694W        W73365  39.936  35.645  14.455
 1695W        W73366  19.189  11.727   1.381
 1696W        W73367   9.282  40.199   1.797
 1697W        W73368  44.667   5.069  13.847
 1698W        W73369  42.332  21.464   5.075
 1699W        W73370  22.535  36.570   4.688
 1700W        W73371   1.672   1.911  14.466
 1701W        W73372  28.922  40.017  11.429
 1702W        W73373  38.751  13.149  11.155
 1703W        W73374  22.204  38.579   4.060
 1704W        W73375  41.437   0.767  10.702
 1705W        W73376  35.992   8.577  13.515
 1706W        W73377  15.753   5.851  11.688
 1707W        W73378   3.802  22.110  14.736
 1708W        W73379  24.370   7.254  10.289
 1709W        W73380  12.628  18.980  13.857
 1710W        W73381  17.268  14.265   5.089
 1711W        W73382  38.365   5.409  13.969
 1712W        W73383  22.461  42.595  14.872
 1713W        W73384  29.006   1.286   2.124
 1714W        W73385  32.067  40.761  12.125
 1715W        W73386  13.298   1.830   5.325
 1716W        W73387   8.217   4.841  13.165
 1717W        W73388  32.839   5.163  13.593
 1718W        W73389  10.850  42.008   0.750
 1719W        W73390  44.289  10.720  10.936
 1720W        W73391   9.846  10.559   0.728
 1721W        W73392  34.081  22.950   0.930
 1722W        W73393  39.949  10.775  12.863
 1723W        W73394  22.557  41.274   5.060
 1724W        W73395  42.436  39.780  10.652
 1725W        W73396   3.446  37.901  11.574
 1726W        W73397  14.073  44.710  12.279
 1727W        W73398  21.456  37.592  12.127
 1728W        W73399   2.492   6.232  12.103
 1729W        W73400   0.393   7.632   0.309
 1730W        W73401  41.851   0.189   1.430
 1731W        W73402  32.892  42.007   1.056
 1732W        W73403  16.850   4.210   0.832
 1733W        W73404  12.684  16.337  12.469
 1734W        W73405  33.473  40.798   1.229
 1735W        W73406  16.705  18.073  12.095
 1736W        W73407  44.487  11.792   0.792
 1737W        W73408  33.064  34.927  13.403
 1738W        W73409  22.469  40.450   4.607
 1739W        W73410  24.470  26.814  10.188
 1740W        W73411  33.447  40.982  11.937
 1741W        W73412  34.615  28.170   1.252
 1742W        W73413  18.952   7.644   0.744
 1743W        W73414  37.843  14.387  10.543
 1744W        W73415  41.659  39.619   1.143
 1745W        W73416   7.806  28.676   1.198
 1746W        W73417  19.828   1.058  10.686
 1747W        W73418  27.284  33.517  11.154
 1748W        W73419  39.106  40.092   3.604
 1749W        W73420   3.480  20.503   3.358
 1750W        W73421  23.488  30.468  13.146
 1751W        W73422  29.552  12.568   3.766
 1752W        W73423  34.538  34.676  12.497
 1753W        W73424   5.029  24.019   0.749
 1754W        W73425  29.532  42.618  14.024
 1755W        W73426  26.201  38.788  12.530
 1756W        W73427  42.741  25.245   2.634
 1757W        W73428  29.549  39.614   0.435
 1758W        W73429  34.086  17.092   3.642
 1759W        W73430  43.376  23.578   1.255
 1760W        W73431  35.982  11.762  13.385
 1761W        W73432   6.930   8.872   3.327
 1762W        W73433  23.438  28.392  12.397
 1763W        W73434  12.769  20.909   2.471
 1764W        W73435  18.515  35.394  10.676
 1765W        W73436   9.432  40.402   0.469
 1766W        W73437   8.213  37.074   2.260
 1767W        W73438   5.914  14.891   4.154
 1768W        W73439  41.171  12.307   1.809
 1769W        W73440   4.714  17.326  13.254
 1770W        W73441  44.258  40.264   0.284
 1771W        W73442  43.268  28.626   4.681
 1772W        W73443   4.887  42.944  12.402
 1773W        W73444  25.478  25.679   0.278
 1774W        W73445  22.439  22.041   4.312
 1775W        W73446  22.484   8.907   1.133
 1776W        W73447  39.806  27.566   4.177
 1777W        W73448  16.104  15.621   9.960
 1778W        W73449  23.523  12.295   1.266
 1779W        W73450  10.196  23.539   2.359
 1780W        W73451   7.275   9.837   0.361
 1781W        W73452  10.658  15.599   1.883
 1782W        W73453   8.201  27.970   3.118
 1783W        W73454  16.721  43.280  12.985
 1784W        W73455  31.881  32.051   4.258
 1785W        W73456  23.057  21.283  13.312
 1786W        W73457  12.214  15.596  13.024
 1787W        W73458  17.565   2.886  11.658
 1788W        W73459  23.284  42.374   1.682
 1789W        W73460  10.827  26.235   2.634
 1790W        W73461  15.770  35.712  12.611
 1791W        W73462  24.596  36.068  11.553
 1792W        W73463  33.172  24.585   2.743
 1793W        W73464  18.330  38.073   2.536
 1794W        W73465  21.335  30.331  12.483
 1795W        W73466  25.750   5.266  12.521
 1796W        W73467  23.487   1.128  10.663
 1797W        W73468  12.628  10.036   4.115
 1798W        W73469  37.081  23.605  11.113
 1799W        W73470   7.829   8.238  14.684
 1800W        W73471  32.008  33.398   2.302
 1801W        W73472   8.361  16.065   0.392
 1802W        W73473  26.680  31.254   2.377
 1803W        W73474  15.592  40.404  11.999
 1804W        W73475  23.028   8.665   2.158
 1805W        W73476  15.838  22.102   0.335
 1806W        W73477   6.265  40.848  11.724
 1807W        W73478   6.268  34.406   2.781
 1808W        W73479  19.101  36.013  11.951
 1809W        W73480  29.449  35.019  10.884
 1810W        W73481   6.475  40.033  14.343
 1811W        W73482  42.067   8.111   0.716
 1812W        W73483  19.166  36.582   3.216
 1813W        W73484   4.890  21.608   0.140
 1814W        W73485   6.733  32.522   1.029
 1815W        W73486   0.012  30.761  12.842
 1816W        W73487   3.416  22.493  13.639
 1817W        W73488  25.418  41.574  13.030
 1818W        W73489  23.330  30.802  11.968
 1819W        W73490  36.265  38.398   3.901
 1820W        W73491  42.331  32.445   3.233
 1821W        W73492  36.014   8.231   1.763
 1822W        W73493  24.501  24.128   0.423
 1823W        W73494  12.879  32.758  11.887
 1824W        W73495   5.974  28.525  12.391
 1825W        W73496  43.983  26.402  10.718
 1826W        W73497  17.371  29.054   1.753
 1827W        W73498   2.112  20.663  11.332
 1828W        W73499  39.008  40.151   2.330
 1829W        W73500  40.369  25.885   3.717
 1830W        W73501  39.353  22.078   3.621
 1831W        W73502  24.848  15.500   4.204
 1832W        W73503  29.799   0.008   2.987
 1833W        W73504  40.119  37.664  11.120
 1834W        W73505  42.137  43.574  12.966
 1835W        W73506  42.931  42.381   2.068
 1836W        W73507   3.482   5.821  11.270
 1837W        W73508   5.968  11.619   1.579
 1838W        W73509  17.762  18.400   0.702
 1839W        W73510  32.629  43.418   4.164
 1840W        W73511  32.627  11.710   3.703
 1841W        W73512   7.899  24.037   0.719
 1842W        W73513  33.881  13.214  10.095
 1843W        W73514  19.091  26.703  10.645
 1844W        W73515   5.136  20.548   0.382
 1845W        W73516  40.485  27.063   1.997
 1846W        W73517  36.497  19.832   3.098
 1847W        W73518  10.838  34.497  11.934
 1848W        W73519  26.075  11.346   1.784
 1849W        W73520  21.546   6.244  12.625
 1850W        W73521   6.841  26.535   2.260
 1851W        W73522  40.809  35.980   0.530
 1852W        W73523  42.441  36.410   4.596
 1853W        W73524  22.757  21.533   0.899
 1854W        W73525  31.568  28.490   3.266
 1855W        W73526  40.477  42.653  12.916
 1856W        W73527  24.494  33.300  14.772
 1857W        W73528  39.050  43.456  10.766
 1858W        W73529  14.045  10.853   0.754
 1859W        W73530  13.959  25.723   3.701
 1860W        W73531   7.556   9.758  11.404
 1861W        W73532  37.022  19.752   2.399
 1862W        W73533  37.381  13.109   3.228
 1863W        W73534  38.755  39.538   3.311
 1864W        W73535  37.463  15.354  10.816
 1865W        W73536  22.142  16.784   4.077
 1866W        W73537  35.414   9.920   3.520
 1867W        W73538   0.403  16.063  11.406
 1868W        W73539  37.501  20.655   3.691
 1869W        W73540   7.700  42.184   0.446
 1870W        W73541  26.596   9.877   5.016
 1871W        W73542   9.873  41.426  13.343
 1872W        W73543  39.655   4.354   4.635
 1873W        W73544  35.907   8.911  13.904
 1874W        W73545  42.342  42.501   1.367
 1875W        W73546  41.463   5.213  11.418
 1876W        W73547  36.890   6.639   2.756
 1877W        W73548  10.809  39.587  13.993
 1878W        W73549  42.122  32.008  12.928
 1879W        W73550  44.724  32.404   1.719
 1880W        W73551  21.024   7.864  14.692
 1881W        W73552   8.831  32.518   1.863
 1882W        W73553  11.335  41.435  11.821
 1883W        W73554  23.528   2.368  14.337
 1884W        W73555  16.061   4.001  14.518
 1885W        W73556  33.548  38.823   0.805
 1886W        W73557   6.637  42.224  14.819
 1887W        W73558   7.766  19.251   3.241
 1888W        W73559  33.664  29.601  14.880
 1889W        W73560  25.297  31.024  12.915
 1890W        W73561  43.358  44.725  11.407
 1891W        W73562  11.210  38.897  11.922
 1892W        W73563  37.780   8.281  14.195
 1893W        W73564  31.856  21.556   3.055
 1894W        W73565  30.643  32.620   1.494
 1895W        W73566  17.632  32.832  13.967
 1896W        W73567  22.542  35.960  11.994
 1897W        W73568  15.585  23.302  14.838
 1898W        W73569   8.533  36.624  14.323
 1899W        W73570   5.660  40.927  13.406
 1900W        W73571  32.930  39.390  13.452
 1901W        W73572  24.042  38.992  10.623
 1902W        W73573  28.265  34.905  14.810
 1903W        W73574  14.180  15.300   1.807
 1904W        W73575  43.901  32.535   4.321
 1905W        W73576  17.421  12.766   2.325
 1906W        W73577   3.854   0.505   1.846
 1907W        W73578  20.685  41.986   1.356
 1908W        W73579  43.239   9.440  14.626
 1909W        W73580   5.302   6.408  14.072
 1910W        W73581  20.557  32.983  12.408
 1911W        W73582  43.833  10.111  11.114
 1912W        W73583  26.178  28.626  11.366
 1913W        W73584  35.143  15.823   1.495
 1914W        W73585  10.730  36.557  12.933
 1915W        W73586  24.188   7.686  11.955
 1916W        W73587  39.764  29.150   0.735
 1917W        W73588  42.694  17.736  11.188
 1918W        W73589  16.039  14.205  11.646
 1919W        W73590   6.849  37.560   2.643
 1920W        W73591  23.536  26.717   1.218
 1921W        W73592  41.566  25.754  13.802
 1922W        W73593  13.684  20.612   0.209
 1923W        W73594  26.498   0.068   1.500
 1924W        W73595  33.509  18.640   1.180
 1925W        W73596  27.638  11.597   2.813
 1926W        W73597  44.241  22.565  13.831
 1927W        W73598  40.555  42.109   1.793
 1928W        W73599  13.337  30.027   3.718
 1929W        W73600  44.309  35.559   3.270
 1930W        W73601  12.860  38.954   1.489
 1931W        W73602  43.955  11.263   4.978
 1932W        W73603  27.713  17.617   1.847
 1933W        W73604  44.379  13.557  14.384
 1934W        W73605  37.603   4.691  14.874
 1935W        W73606  29.141  41.798  12.560
 1936W        W73607  37.814  12.405  11.632
 1937W        W73608  13.139  35.859  12.420
 1938W        W73609  40.832  21.430  13.989
 1939W        W73610  21.572  18.894   2.867
 1940W        W73611  24.572  33.221   2.667
 1941W        W73612   7.863   1.715   3.632
 1942W        W73613  44.738  37.879  10.513
 1943W        W73614  33.618   2.445  12.969
 1944W        W73615  28.331  33.466  14.404
 1945W        W73616  42.907  19.077   1.268
 1946W        W73617  38.930   9.922  11.124
 1947W        W73618   6.795   4.745  11.856
 1948W        W73619  16.813   2.725   2.247
 1949W        W73620   1.357  20.252   3.673
 1950W        W73621  26.186   1.998   4.241
 1951W        W73622  15.869  26.990   3.871
 1952W        W73623  17.700  14.216  12.431
 1953W        W73624  39.267  27.496  11.905
 1954W        W73625  30.775   2.927   0.318
 1955W        W73626   5.812  34.590   4.537
 1956W        W73627   3.476  28.982   2.753
 1957W        W73628  28.769  44.708   0.486
 1958W        W73629  23.432  15.903  11.410
 1959W        W73630  16.944  21.878   1.762
 1960W        W73631   2.735  11.134   4.583
 1961W        W73632  19.058   2.193  10.949
 1962W        W73633   4.635  10.102  12.144
 1963W        W73634  13.643  30.556  12.435
 1964W        W73635   7.597   8.721   0.703
 1965W        W73636  37.030  15.618   5.402
 1966W        W73637  19.323   3.459  13.971
 1967W        W73638  23.627  20.815  12.604
 1968W        W73639   5.233  29.740   3.501
 1969W        W73640   4.652   4.214   1.351
 1970W        W73641   0.895  24.161  12.502
 1971W        W73642  13.065  10.505   1.777
 1972W        W73643   2.340   1.008   3.538
 1973W        W73644  37.417  36.234  14.833
 1974W        W73645   3.662   5.934  12.506
 1975W        W73646  20.152  19.250  12.430
 1976W        W73647  20.241  44.269   4.498
 1977W        W73648  10.662  41.396  10.737
 1978W        W73649  24.580   4.507   3.697
 1979W        W73650  23.510  14.470   4.671
 1980W        W73651  25.488  23.498   3.693
 1981W        W73652  25.738   1.829   2.881
 1982W        W73653  16.123  34.094  14.623
 1983W        W73654  37.983   8.295  11.616
 1984W        W73655   5.841  43.494   0.037
 1985W        W73656   1.757  14.622  12.637
 1986W        W73657  23.138  44.217   2.807
 1987W        W73658   5.732   3.802   1.202
 1988W        W73659  27.800  10.718  11.115
 1989W        W73660  43.239  11.652   0.832
 1990W        W73661  36.688  27.450   0.947
 1991W        W73662  34.543  32.555   1.735
 1992W        W73663  40.546  23.314  13.412
 1993W        W73664  24.785  37.928   0.520
 1994W        W73665  17.699   6.367   2.396
 1995W        W73666  27.751   6.121  14.237
 1996W        W73667  32.977  38.868  13.331
 1997W        W73668  33.404  16.233  13.564
 1998W        W73669   3.537  25.646   4.789
 1999W        W73670   3.161  18.120  14.974
 2000W        W73671  31.346  33.862  11.137
 2001W        W73672  10.671  17.567  12.546
 2002W        W73673  38.890  22.047   1.352
 2003W        W73674   8.114  16.861   0.444
 2004W        W73675  15.277   9.867  11.006
 2005W        W73676  29.510  33.812  14.797
 2006W        W73677  24.765  30.079   1.900
 2007W        W73678  29.133  22.276   2.755
 2008W        W73679  41.756  10.685  13.943
 2009W        W73680  33.063   5.092  10.657
 2010W        W73681  14.775  41.896  12.635
 2011W        W73682  38.964   1.890  13.921
 2012W        W73683   9.658  24.559   0.980
 2013W        W73684  31.519  27.695   4.351
 2014W        W73685  27.164  40.827   4.420
 2015W        W73686  18.361   3.836  13.995
 2016W        W73687  28.655  19.077   3.271
 2017W        W73688  21.205  43.989  14.995
 2018W        W73689  22.631  19.803  10.146
 2019W        W73690  28.621  36.526   0.815
 2020W        W73691  10.302  31.375   1.778
 2021W        W73692  20.103  22.816   0.875
 2022W        W73693  13.194  36.848   4.065
 2023W        W73694  15.268  25.589   4.166
 2024W        W73695  39.140  16.256  12.975
 2025W        W73696  12.284  26.586   3.398
 2026W        W73697  15.124  31.992  11.746
 2027W        W73698  22.662   5.737   3.010
 2028W        W73699  39.579  23.679   2.039
 2029W        W73700  13.375   5.402   4.289
 2030W        W73701   5.885  42.787  13.141
 2031W        W73702  17.065  38.840   4.488
 2032W        W73703  11.359  37.574   2.214
 2033W        W73704  28.826  23.797   4.048
 2034W        W73705   9.478   6.610   2.386
 2035W        W73706  23.573  22.614   0.921
 2036W        W73707  35.661  21.490  12.419
 2037W        W73708  29.619  42.423   2.639
 2038W        W73709  27.083  13.223  13.386
 2039W        W73710   4.208  21.225  10.686
 2040W        W73711  31.192  17.812  11.365
 2041W        W73712  44.438  43.409   1.061
 2042W        W73713  39.336  24.536  13.017
 2043W        W73714  27.688  11.967   4.873
 2044W        W73715  15.220  33.379  14.964
 2045W        W73716  30.232   2.744   1.464
 2046W        W73717  37.164   1.767  12.569
 2047W        W73718  29.098  44.191   4.401
 2048W        W73719  17.038  24.216   2.756
 2049W        W73720  41.475  42.798  14.310
 2050W        W73721   7.338  16.090  10.470
 2051W        W73722  21.026   6.132   3.327
 2052W        W73723   7.257  13.524  13.665
 2053W        W73724   2.804  32.081   0.912
 2054W        W73725   0.125  41.942   4.669
 2055W        W73726  15.365  43.424  14.847
 2056W        W73727  23.955  41.754   3.621
 2057W        W73728  14.171  13.075  10.831
 2058W        W73729  10.284  17.470   1.227
 2059W        W73730  17.711   3.804   3.087
 2060W        W73731   2.307   2.810  10.483
 2061W        W73732   9.942  41.933  12.546
 2062W        W73733  17.081  28.714   2.366
 2063W        W73734  13.295   2.773  11.388
 2064W        W73735   8.844  16.565  12.468
 2065W        W73736  15.074   2.990  14.399
 2066W        W73737  38.369  22.186  11.921
 2067W        W73738  41.272  36.004   0.821
 2068W        W73739  30.627  34.778   1.590
 2069W        W73740  42.338  29.523   3.165
 2070W        W73741  34.537  33.392   0.426
 2071W        W73742  30.555  33.334   4.051
 2072W        W73743  14.175  28.683   3.259
 2073W        W73744  12.654  10.134   0.902
 2074W        W73745   5.664   2.600  14.663
 2075W        W73746  38.088  19.233  14.943
 2076W        W73747   9.283  20.581   0.060
 2077W        W73748  38.503  43.454   4.397
 2078W        W73749  43.816  20.942   2.425
 2079W        W73750  14.433  13.212   4.149
 2080W        W73751  11.381  43.151   2.864
 2081W        W73752  12.398  33.341  13.698
 2082W        W73753  22.087  33.575   0.918
 2083W        W73754  43.327  17.536   2.868
 2084W        W73755  37.676   1.852  12.559
 2085W        W73756   9.704  19.741  14.750
 2086W        W73757  16.140  41.061   2.344
 2087W        W73758  16.844  22.845   4.479
 2088W        W73759  19.167  44.526  12.817
 2089W        W73760  28.660  12.584   1.686
 2090W        W73761  40.897  34.119  14.842
 2091W        W73762  20.576  35.781  13.585
 2092W        W73763  16.767  12.084  12.108
 2093W        W73764  35.582  44.920   2.804
 2094W        W73765  34.540  28.680   1.226
 2095W        W73766  27.689  33.300  10.939
 2096W        W73767  15.914  21.695   1.779
 2097W        W73768  28.998  17.160   3.210
 2098W        W73769  18.352  21.569   0.803
 2099W        W73770  41.050  36.866   0.420
 2100W        W73771  25.126   4.099   0.909
 2101W        W73772  34.567  40.316  10.277
 2102W        W73773  16.065  20.666   1.830
 2103W        W73774   8.300   6.629   0.384
 2104W        W73775   4.814  13.823   4.183
 2105W        W73776  25.458   6.867  13.394
 2106W        W73777  21.638  37.876   1.329
 2107W        W73778  32.171  37.991  11.628
 2108W        W73779  35.718   4.064   2.785
 2109W        W73780  42.358  18.234   3.729
 2110W        W73781  38.845  34.248   3.161
 2111W        W73782  36.280  21.071   1.425
 2112W        W73783  18.076   2.308  12.464
 2113W        W73784  24.128   2.826   3.287
 2114W        W73785  26.220  26.933  13.982
 2115W        W73786  17.751  19.548   4.069
 2116W        W73787   1.280  11.778  14.368
 2117W        W73788  44.595   2.986  13.819
 2118W        W73789  44.576  20.989   3.803
 2119W        W73790  32.515  23.330   2.301
 2120W        W73791   3.010  36.579   0.826
 2121W        W73792  19.217  34.349   3.648
 2122W        W73793  19.311  11.762  14.165
 2123W        W73794  21.328  32.682  14.209
 2124W        W73795   6.183  28.999  12.293
 2125W        W73796  21.551  27.546  14.976
 2126W        W73797   9.985  22.041   1.763
 2127W        W73798  18.026   9.623  13.960
 2128W        W73799  38.664  13.887   1.997
 2129W        W73800  21.714  34.624   1.370
 2130W        W73801   7.125  28.852  12.630
 2131W        W73802  36.165   4.152  13.394
 2132W        W73803  19.590  13.959  11.035
 2133W        W73804  28.397  39.942  10.209
 2134W        W73805   9.451   7.400   1.902
 2135W        W73806   1.015  11.782   0.752
 2136W        W73807  35.409  44.710   3.364
 2137W        W73808  34.937   7.912   3.285
 2138W        W73809  37.877   7.588   0.788
 2139W        W73810  23.604  38.025   5.505
 2140W        W73811  21.464  38.017  11.771
 2141W        W73812  30.014  34.657  12.133
 2142W        W73813  21.119   1.890   1.874
 2143W        W73814  25.568  35.192  10.775
 2144W        W73815  36.657  15.531  12.995
 2145W        W73816   7.867  11.112   4.578
 2146W        W73817  15.660  21.237   4.433
 2147W        W73818  22.293  40.001   3.835
 2148W        W73819  23.607  36.352   2.255
 2149W        W73820   4.841  25.107   4.313
 2150W        W73821  27.467  30.265  14.593
 2151W        W73822  27.742  16.679  14.456
 2152W        W73823  15.089  25.255  13.497
 2153W        W73824   3.476  29.706   4.025
 2154W        W73825  29.235  37.744   3.287
 2155W        W73826  13.185   6.715   2.571
 2156W        W73827  26.304   2.546   2.797
 2157W        W73828  27.059  43.957   4.666
 2158W        W73829  37.328  23.669  14.053
 2159W        W73830   7.334  21.855  12.766
 2160W        W73831  35.368  24.700  14.393
 2161W        W73832  41.258  27.258   4.594
 2162W        W73833  11.279   3.970  14.954
 2163W        W73834  37.708  19.599   5.185
 2164W        W73835  26.504  23.757   2.336
 2165W        W73836  29.403  32.566  14.251
 2166W        W73837  22.454  44.915  11.547
 2167W        W73838  44.834  16.391  14.920
 2168W        W73839   1.717   3.241   4.590
 2169W        W73840   0.266   4.730  14.416
 2170W        W73841  35.627  43.887  13.015
 2171W        W73842  22.746  40.433   4.183
 2172W        W73843  22.043  41.024  13.029
 2173W        W73844  36.593   3.876   0.025
 2174W        W73845  17.691   8.762   3.430
 2175W        W73846  25.209   5.830   2.215
 2176W        W73847   9.408   8.642  13.884
 2177W        W73848  41.594  15.068   1.267
 2178W        W73849  38.850  26.634  11.002
 2179W        W73850  21.738  33.334   4.161
 2180W        W73851  36.173  37.852  13.245
 2181W        W73852  13.838  41.869   1.418
 2182W        W73853  24.618  25.432   0.670
 2183W        W73854  40.327  22.758   1.737
 2184W        W73855   4.757  27.359  13.451
 2185W        W73856   0.874  29.464  14.198
 2186W        W73857  15.070  43.538   3.763
 2187W        W73858  38.108  25.567   0.807
 2188W        W73859  15.189  26.917   2.703
 2189W        W73860  31.112  43.762  11.943
 2190W        W73861   6.770  17.397  12.556
 2191W        W73862  35.983  38.441   1.787
 2192W        W73863  25.040  23.694  11.214
 2193W        W73864  19.139  16.606   4.556
 2194W        W73865  39.971  36.964  13.644
 2195W        W73866   7.697  44.984  11.960
 2196W        W73867  16.353  29.871   4.004
 2197W        W73868  25.204  34.332   2.912
 2198W        W73869   7.802  15.806  10.346
 2199W        W73870  13.879  31.963   4.579
 2200W        W73871  41.823  40.013  11.892
 2201W        W73872  44.379  20.682  13.122
 2202W        W73873  35.554  39.029   0.476
 2203W        W73874   0.911  34.076  10.737
 2204W        W73875  25.623  39.593  11.177
 2205W        W73876  19.688  22.550   1.387
 2206W        W73877   3.950   1.886  10.724
 2207W        W73878   3.598  32.026   1.585
 2208W        W73879  41.897  15.859  11.473
 2209W        W73880  22.715  36.191   5.002
 2210W        W73881  33.867  28.050   0.820
 2211W        W73882  20.933  30.652   4.161
 2212W        W73883  42.760  24.356  13.542
 2213W        W73884  28.211   6.566   5.058
 2214W        W73885  41.963  31.864   3.732
 2215W        W73886  18.086  33.629   1.806
 2216W        W73887  34.968  20.750  14.441
 2217W        W73888   1.226  21.507   4.053
 2218W        W73889  22.115  38.756  10.201
 2219W        W73890  19.187  19.177  12.591
 2220W        W73891  34.634  24.562   0.345
 2221W        W73892  29.134  29.669   0.757
 2222W        W73893  29.214  33.529   4.445
 2223W        W73894  29.869  33.035  12.881
 2224W        W73895   3.718  17.690  13.021
 2225W        W73896  31.910  31.171  11.096
 2226W        W73897  24.214  31.044  14.482
 2227W        W73898   6.308  24.695  14.277
 2228W        W73899  43.368   4.802  14.472
 2229W        W73900   7.085  43.945   1.427
 2230W        W73901  37.872   6.217  12.136
 2231W        W73902   0.972  23.509  10.616
 2232W        W73903  37.886  34.520  10.371
 2233W        W73904  30.665  18.608  11.138
 2234W        W73905  34.953  24.778  12.558
 2235W        W73906  13.415  21.590  12.925
 2236W        W73907  38.593   5.175  14.388
 2237W        W73908  20.591   5.879  14.969
 2238W        W73909  23.620  40.569  11.485
 2239W        W73910   2.251  43.226   2.209
 2240W        W73911  29.617  38.533  14.477
 2241W        W73912  14.343  24.236  14.408
 2242W        W73913   6.269  31.897  11.263
 2243W        W73914  12.874  30.001   1.224
 2244W        W73915   6.910   1.288  14.336
 2245W        W73916   3.308  44.555   4.615
 2246W        W73917  38.594  35.490  14.386
 2247W        W73918  21.732  44.926  13.130
 2248W        W73919  27.261  41.278   0.019
 2249W        W73920  22.804  23.214   1.118
 2250W        W73921   4.391  14.854  11.404
 2251W        W73922  14.561  27.212   4.622
 2252W        W73923  20.256  19.610   3.705
 2253W        W73924   8.387  24.712  13.402
 2254W        W73925  42.429  24.983  11.535
 2255W        W73926  18.178   1.877  11.435
 2256W        W73927   2.873  22.046  11.570
 2257W        W73928  43.408  39.268   3.742
 2258W        W73929  22.945  22.437  11.030
 2259W        W73930  15.215  16.618   1.225
 2260W        W73931  39.087  44.358  12.021
 2261W        W73932  27.947  26.909  12.519
 2262W        W73933  44.040  12.666  12.111
 2263W        W73934   9.639   8.319   3.621
 2264W        W73935  17.765   8.098  13.017
 2265W        W73936  31.624  21.130  13.507
 2266W        W73937   9.184  23.055   2.681
 2267W        W73938  44.794  14.619   1.921
 2268W        W73939   5.338  37.628  13.394
 2269W        W73940   2.033  10.670   0.246
 2270W        W73941  32.573  42.717   0.955
 2271W        W73942  27.544   2.831   1.732
 2272W        W73943  23.540  30.356   0.354
 2273W        W73944  24.498  20.390   0.769
 2274W        W73945  34.619  25.471  11.310
 2275W        W73946  42.424  35.545   3.803
 2276W        W73947   4.779   7.482  10.769
 2277W        W73948  32.055  31.669  11.092
 2278W        W73949   0.812  20.085  13.453
 2279W        W73950  40.044  42.836  12.735
 2280W        W73951  34.411  11.169  14.003
 2281W        W73952  11.820  32.016   4.176
 2282W        W73953  12.717  32.252   3.639
 2283W        W73954  22.554  41.251  11.995
 2284W        W73955   9.465  40.483  10.727
 2285W        W73956   4.972  44.109   3.817
 2286W        W73957  43.440  24.396   9.675
 2287W        W73958  29.995  17.492   1.880
 2288W        W73959   7.376  13.320   3.185
 2289W        W73960  23.248  17.674  12.089
 2290W        W73961  13.607   7.985  14.339
 2291W        W73962  38.596  16.870  11.159
 2292W        W73963  34.115   7.725  14.969
 2293W        W73964  15.136  26.532   3.603
 2294W        W73965  19.075   0.724   1.808
 2295W        W73966  36.968  24.065  11.939
 2296W        W73967  10.714  13.043  12.929
 2297W        W73968  17.576  29.953  12.117
 2298W        W73969  37.533  40.918  12.430
 2299W        W73970   9.705  19.607  10.398
 2300W        W73971   0.942  21.859  12.386
 2301W        W73972  38.478  12.539   1.367
 2302W        W73973   7.705   9.861  14.779
 2303W        W73974  13.843  16.414   2.068
 2304W        W73975  22.261  39.027  13.905
 2305W        W73976  41.035  31.152  14.755
 2306W        W73977  14.673   9.365   3.316
 2307W        W73978  15.846  27.867   3.790
 2308W        W73979  36.801  33.778   1.949
 2309W        W73980   6.157   9.692   0.620
 2310W        W73981  39.004  22.210   4.546
 2311W        W73982   1.645  23.124  10.211
 2312W        W73983  34.847  15.794   4.713
 2313W        W73984   9.647  15.008   4.140
 2314W        W73985   3.777  14.718   4.572
 2315W        W73986  36.993  33.533  14.545
 2316W        W73987  15.115   1.229   3.338
 2317W        W73988   9.466   3.454  11.208
 2318W        W73989  10.863   3.322  11.665
 2319W        W73990   7.339  16.554  12.058
 2320W        W73991  10.748  43.282   0.517
 2321W        W73992   8.464  42.730  12.041
 2322W        W73993  12.833  18.346   4.652
 2323W        W73994   7.983  22.457  11.442
 2324W        W73995   3.272  10.141  12.305
 2325W        W73996  25.170  18.568   1.594
 2326W        W73997  18.324   2.831  11.176
 2327W        W73998  36.187   0.904   1.988
 2328W        W73999   4.336  24.443   2.751
 2329W        W74000  22.721  28.631  10.410
 2330W        W74001  30.293  35.939   4.539
 2331W        W74002  13.682  34.180  13.954
 2332W        W74003   5.324  44.713   4.939
 2333W        W74004  18.266  27.220  11.500
 2334W        W74005   8.597   0.279  12.293
 2335W        W74006  26.150  29.884   0.753
 2336W        W74007  20.166  38.409   2.614
 2337W        W74008  41.333  39.225   0.318
 2338W        W74009  15.847  20.303  11.684
 2339W        W74010   0.637   2.461   3.490
 2340W        W74011   5.915  41.828   3.090
 2341W        W74012  35.893  16.701   0.842
 2342W        W74013  27.127   8.390   0.775
 2343W        W74014   9.841  23.631  13.489
 2344W        W74015  44.865  36.056   4.876
 2345W        W74016   9.592  18.153  14.551
 2346W        W74017  35.589  11.290   1.342
 2347W        W74018  36.133  37.733   0.379
 2348W        W74019  12.429  25.645   0.636
 2349W        W74020  36.975  20.540   4.594
 2350W        W74021  25.490   7.595   0.793
 2351W        W74022  17.745  31.879   0.857
 2352W        W74023  15.787  26.590  11.867
 2353W        W74024  29.249   7.430  12.028
 2354W        W74025   9.317  15.302   1.616
 2355W        W74026  25.969   7.451   4.956
 2356W        W74027   4.181  33.112   3.604
 2357W        W74028  26.730  17.986  13.833
 2358W        W74029  18.613  32.502   1.243
 2359W        W74030  18.843  28.019  14.111
 2360W        W74031   1.755  27.154   1.063
 2361W        W74032  25.477  27.024   0.812
 2362W        W74033  11.205  40.214  11.638
 2363W        W74034  34.408  16.327  12.906
 2364W        W74035  14.605  24.325   3.224
 2365W        W74036  25.750  29.416  12.448
 2366W        W74037  31.410   0.398  13.081
 2367W        W74038   3.966   1.236  12.050
 2368W        W74039   8.516  43.908  14.479
 2369W        W74040  43.380  22.211  10.964
 2370W        W74041  34.016   9.129   3.527
 2371W        W74042  26.871  15.271  14.971
 2372W        W74043  44.887  16.961   4.251
 2373W        W74044  31.913  24.087   0.725
 2374W        W74045  12.302  34.681  11.085
 2375W        W74046  23.705  12.337  14.420
 2376W        W74047  31.053   7.556  12.972
 2377W        W74048  22.611   7.160  13.608
 2378W        W74049   6.332  43.023  11.390
 2379W        W74050   5.187  13.681   3.122
 2380W        W74051  39.857   1.296   0.050
 2381W        W74052  36.512  17.574  10.531
 2382W        W74053  42.870  14.785  11.480
 2383W        W74054  14.675  11.752  13.021
 2384W        W74055   1.903   4.739   0.655
 2385W        W74056  40.464   8.329   2.776
 2386W        W74057  29.120  18.306   1.139
 2387W        W74058  16.960   8.099  13.624
 2388W        W74059  42.492  34.826   4.562
 2389W        W74060  27.667  15.155  12.911
 2390W        W74061   0.847  42.600  10.656
 2391W        W74062  14.296  10.871  11.459
 2392W        W74063  14.361  30.976  14.996
 2393W        W74064  44.754  38.387  11.991
 2394W        W74065  13.383   1.518   2.391
 2395W        W74066  15.406  38.879  13.535
 2396W        W74067  25.002   5.308   4.890
 2397W        W74068  38.332  42.603  14.342
 2398W        W74069  10.112   9.148   1.886
 2399W        W74070  41.860  36.339  13.542
 2400W        W74071   6.427   5.672   4.522
 2401W        W74072   7.995  44.341   1.471
 2402W        W74073  27.040  13.179  11.511
 2403W        W74074   1.750  42.473  13.044
 2404W        W74075   1.231  44.796  10.573
 2405W        W74076  21.524   7.282  11.701
 2406W        W74077   0.813  40.596   5.017
 2407W        W74078  19.453  11.163   4.164
 2408W        W74079  18.131  12.848   0.688
 2409W        W74080  28.862  29.637   0.322
 2410W        W74081  39.985   2.254   0.876
 2411W        W74082  26.023  12.907   3.622
 2412W        W74083  31.303  10.192  12.665
 2413W        W74084  35.427   2.468  12.637
 2414W        W74085  22.598   6.412   4.266
 2415W        W74086  31.895  41.483   3.869
 2416W        W74087  18.798  38.813   4.087
 2417W        W74088  12.186  35.009  11.992
 2418W        W74089  36.567   6.548   4.059
 2419W        W74090  34.253   5.680   0.923
 2420W        W74091  32.471  18.716   2.141
 2421W        W74092  12.844  25.444   3.457
 2422W        W74093  29.897  43.264  12.499
 2423W        W74094  18.681  42.458   2.864
 2424W        W74095  23.425  33.869   3.612
 2425W        W74096  33.411  40.544   0.036
 2426W        W74097  23.571  33.702   4.068
 2427W        W74098  41.309   4.861   1.750
 2428W        W74099  30.140  26.357  10.205
 2429W        W74100  10.773  40.380  14.516
 2430W        W74101  43.674  10.572   4.241
 2431W        W74102   3.019  41.570   0.181
 2432W        W74103   9.915  44.466  11.950
 2433W        W74104   9.354  39.058  13.588
 2434W        W74105  24.574  16.739   1.198
 2435W        W74106   0.271  14.155  11.802
 2436W        W74107  32.379  29.433   1.301
 2437W        W74108  35.772  23.722   4.461
 2438W        W74109  33.701  39.340   0.984
 2439W        W74110  24.014  41.976   1.822
 2440W        W74111  30.406   7.783  10.765
 2441W        W74112  35.082  11.441   3.105
 2442W        W74113  13.268  17.756   0.395
 2443W        W74114  22.557  13.398   0.151
 2444W        W74115  40.466  23.469  14.386
 2445W        W74116  24.656  12.659  11.932
 2446W        W74117  10.532  11.822   4.107
 2447W        W74118  27.417   4.189   0.773
 2448W        W74119  26.356  10.304   5.171
 2449W        W74120  13.824  15.065  14.905
 2450W        W74121  40.667  28.262  10.598
 2451W        W74122  41.837  21.508   0.768
 2452W        W74123  19.020  27.559   0.406
 2453W        W74124   4.248  40.575   2.925
 2454W        W74125  35.105  41.240   4.690
 2455W        W74126  34.085  30.081  14.357
 2456W        W74127  13.232  24.075  11.251
 2457W        W74128  24.459  22.719   2.375
 2458W        W74129  38.320  33.962  14.288
 2459W        W74130  37.557  20.345   4.137
 2460W        W74131  43.654  14.209   2.212
 2461W        W74132  10.367  19.241  14.779
 2462W        W74133  19.522  36.080   2.280
 2463W        W74134  30.496  23.247  11.905
 2464W        W74135  19.249  10.197   2.740
 2465W        W74136  33.221  14.300   0.006
 2466W        W74137  34.791  20.929   2.468
 2467W        W74138  19.988  34.961   4.090
 2468W        W74139  34.539  15.748  14.695
 2469W        W74140  10.506  28.427  13.542
 2470W        W74141  28.660  35.941   3.302
 2471W        W74142  27.900   4.328   0.902
 2472W        W74143   4.956  42.792  11.516
 2473W        W74144  19.325  32.492  14.983
 2474W        W74145  43.322   2.541  11.606
 2475W        W74146  14.524   7.323  14.525
 2476W        W74147   0.284  16.507   2.308
 2477W        W74148  38.116  35.076  12.982
 2478W        W74149  42.127   0.310   0.852
 2479W        W74150  20.706   9.308   0.752
 2480W        W74151  27.554  16.544  14.967
 2481W        W74152  35.452  15.847   0.697
 2482W        W74153  24.118  20.118  12.600
 2483W        W74154  44.021  17.164  12.488
 2484W        W74155  39.202   0.145   2.176
 2485W        W74156  42.527  42.767   2.777
 2486W        W74157   4.489  39.605   1.856
 2487W        W74158  11.652  42.358   3.624
 2488W        W74159   7.836  34.397  12.908
 2489W        W74160   7.902  29.702   4.499
 2490W        W74161   2.659  31.453   0.016
 2491W        W74162  38.115   9.537  13.245
 2492W        W74163  24.806  25.940   1.389
 2493W        W74164  20.948  10.966  13.913
 2494W        W74165  39.176  38.010   1.692
 2495W        W74166   7.697  30.446  11.564
 2496W        W74167  38.827  24.532  14.949
 2497W        W74168  37.615  30.697   1.318
 2498W        W74169   6.323  29.665  13.910
 2499W        W74170  12.639  26.074   0.823
 2500W        W74171  25.184  37.364  12.508
 2501W        W74172  40.821   7.426  11.054
 2502W        W74173  18.095  30.639  10.949
 2503W        W74174   4.934  35.990   1.849
 2504W        W74175   0.795  42.077  10.633
 2505W        W74176  11.294  19.770   2.769
 2506W        W74177  24.668  42.259  13.003
 2507W        W74178   5.478   9.538   0.889
 2508W        W74179  36.439  27.170   1.978
 2509W        W74180  33.363  21.507  11.183
 2510W        W74181  13.460  33.420  14.450
 2511W        W74182  38.336  26.549   1.593
 2512W        W74183  31.315  30.710   4.104
 2513W        W74184  18.047  42.685  11.279
 2514W        W74185  16.141   5.908   3.378
 2515W        W74186  12.365  11.679   4.116
 2516W        W74187  42.991  28.132   4.002
 2517W        W74188  32.027   7.060  12.929
 2518W        W74189  11.822  29.575   2.325
 2519W        W74190  36.013  38.039  10.535
 2520W        W74191  35.866  26.021   1.161
 2521W        W74192  10.943   6.708  12.574
 2522W        W74193  42.398  28.436  13.835
 2523W        W74194  34.920  17.137   2.740
 2524W        W74195   6.150   7.312  11.632
 2525W        W74196   7.412   7.457  12.877
 2526W        W74197  14.691  14.647   0.269
 2527W        W74198   5.046  22.450   0.253
 2528W        W74199  32.505  16.565   3.205
 2529W        W74200  16.931   6.752   2.128
 2530W        W74201  30.928  30.684   3.766
 2531W        W74202  37.935  41.593   2.339
 2532W        W74203  41.541   9.304  13.849
 2533W        W74204  16.295  12.973  14.171
 2534W        W74205   8.673  21.722  13.467
 2535W        W74206   4.473  32.426  13.668
 2536W        W74207  19.764  34.155  14.789
 2537W        W74208  30.407  31.138   2.865
 2538W        W74209   6.207  20.598   2.360
 2539W        W74210  41.921  15.146  10.655
 2540W        W74211  36.340  36.021  11.088
 2541W        W74212  25.543   7.862   1.429
 2542W        W74213  31.945  20.754  12.393
 2543W        W74214  33.429   9.814  11.794
 2544W        W74215  24.468   2.746  12.913
 2545W        W74216  37.381  29.129  12.418
 2546W        W74217  18.454  15.625   1.445
 2547W        W74218  37.981  35.308  11.197
 2548W        W74219  34.573  21.040   0.280
 2549W        W74220   1.430  39.937  13.457
 2550W        W74221  31.417  31.463   0.405
 2551W        W74222  30.940  42.040   2.203
 2552W        W74223  33.788  32.364  10.624
 2553W        W74224  41.943  24.074  12.604
 2554W        W74225   2.476  40.968  12.057
 2555W        W74226   3.205  11.132   1.647
 2556W        W74227   1.663  19.586   1.295
 2557W        W74228  38.457   9.465   1.720
 2558W        W74229  44.867   8.434   2.226
 2559W        W74230  32.609  11.241   4.656
 2560W        W74231  28.657   3.405  11.249
 2561W        W74232  39.059   7.673   2.564
 2562W        W74233  42.370  32.543  11.680
 2563W        W74234  13.818   4.527  13.835
 2564W        W74235  21.762  26.217  14.318
 2565W        W74236  40.962  44.580  13.120
 2566W        W74237  20.942  11.662   2.821
 2567W        W74238  32.903  44.892  12.522
 2568W        W74239  22.256  39.058   3.838
 2569W        W74240  17.657  13.174   3.793
 2570W        W74241   2.696   3.713   0.514
 2571W        W74242  32.613   3.920   0.158
 2572W        W74243   7.796  18.694  11.640
 2573W        W74244  17.096   9.705   2.191
 2574W        W74245  14.452  13.983  13.396
 2575W        W74246   6.376   2.021  12.172
 2576W        W74247   4.483  34.065   4.667
 2577W        W74248   5.327  33.870   3.282
 2578W        W74249  13.412   6.381  13.101
 2579W        W74250   1.508  26.924   0.459
 2580W        W74251  18.667  39.523  11.951
 2581W        W74252  21.819  39.321   0.283
 2582W        W74253  31.312  15.621   3.700
 2583W        W74254   4.188  34.120  12.765
 2584W        W74255   4.435  40.333  12.456
 2585W        W74256   5.275  43.949   1.966
 2586W        W74257  21.981  18.340  12.022
 2587W        W74258   1.918  36.027  14.909
 2588W        W74259  25.703  26.572   4.637
 2589W        W74260  38.523  31.478  10.947
 2590W        W74261  28.542  37.602   0.789
 2591W        W74262  15.562  26.979   4.734
 2592W        W74263  44.725  37.953   1.565
 2593W        W74264  12.300  16.213   0.471
 2594W        W74265  36.152   1.881   0.943
 2595W        W74266  33.265  29.463   3.303
 2596W        W74267  33.283  30.373   9.841
 2597W        W74268  34.217  42.978  12.591
 2598W        W74269  19.535   9.123  12.859
 2599W        W74270  26.848   5.221   0.785
 2600W        W74271  40.952  22.075   0.866
 2601W        W74272  34.836  43.271   2.704
 2602W        W74273   1.731   1.106  13.306
 2603W        W74274  11.689  31.005   1.725
 2604W        W74275  14.723  27.674   4.393
 2605W        W74276  23.227  41.154  12.427
 2606W        W74277   7.351   0.910   3.189
 2607W        W74278  32.002   0.047   0.762
 2608W        W74279  20.047  22.498   4.578
 2609W        W74280  27.453  31.186  11.183
 2610W        W74281  23.553  10.889  13.710
 2611W        W74282  23.080  37.594   0.758
 2612W        W74283  26.357  43.901  12.070
 2613W        W74284  14.882  16.784  11.172
 2614W        W74285  12.204  36.504   2.805
 2615W        W74286  27.415  43.771  14.447
 2616W        W74287  38.705  42.517  12.442
 2617W        W74288  23.749  13.827  13.321
 2618W        W74289  27.073  28.490  12.605
 2619W        W74290  31.188  35.050  12.999
 2620W        W74291  31.732  42.636  12.952
 2621W        W74292   8.169  42.022  12.461
 2622W        W74293   7.976  16.568  10.761
 2623W        W74294  44.163   6.876  14.694
 2624W        W74295  39.617  19.114  11.986
 2625W        W74296  10.839  28.418  10.601
 2626W        W74297  35.569  29.487   2.859
 2627W        W74298  37.399   2.721  12.267
 2628W        W74299   4.476   9.384  12.552
 2629W        W74300  15.558  18.860   1.478
 2630W        W74301   2.985  14.204   0.880
 2631W        W74302  44.088  13.411   0.451
 2632W        W74303  35.777  41.645  10.996
 2633W        W74304  16.552  20.743   4.566
 2634W        W74305  15.255  40.499   1.341
 2635W        W74306  27.560  29.382  13.391
 2636W        W74307  12.436  18.121  14.034
 2637W        W74308  41.994   2.411   3.283
 2638W        W74309  29.195  35.841  13.004
 2639W        W74310  17.117  43.768   4.170
 2640W        W74311   8.609   6.495  11.107
 2641W        W74312   2.900  30.124   2.306
 2642W        W74313   8.249   2.797  14.733
 2643W        W74314  44.869  16.575   1.996
 2644W        W74315  27.320  27.339   3.166
 2645W        W74316  39.245   1.866  12.926
 2646W        W74317   6.729  16.245  11.162
 2647W        W74318  38.424   0.488  14.465
 2648W        W74319  42.818  11.402   9.742
 2649W        W74320  22.142  37.601  13.892
 2650W        W74321  44.207  35.139  13.792
 2651W        W74322  43.399  26.782  13.118
 2652W        W74323  18.211  26.501  11.125
 2653W        W74324   6.999  34.508  12.929
 2654W        W74325   4.684  21.781  13.446
 2655W        W74326  40.635  39.621   5.135
 2656W        W74327   5.196   3.342  11.004
 2657W        W74328  11.575  41.589  10.917
 2658W        W74329  32.178  14.060  12.902
 2659W        W74330  22.831  17.674   1.238
 2660W        W74331   3.247  21.009   1.350
 2661W        W74332  35.980  34.445   4.694
 2662W        W74333  32.455   3.442   5.036
 2663W        W74334  18.538  32.376  11.157
 2664W        W74335   9.798  10.369  12.567
 2665W        W74336  13.193  17.484  12.411
 2666W        W74337  10.858   9.427  14.382
 2667W        W74338   6.251   3.067   1.303
 2668W        W74339  39.016  33.462   0.439
 2669W        W74340  11.410  40.941   3.969
 2670W        W74341  25.035  43.866  12.606
 2671W        W74342  39.472   3.289   3.774
 2672W        W74343  21.754  31.525   1.482
 2673W        W74344  32.377  25.626   2.466
 2674W        W74345   7.912  21.137  10.794
 2675W        W74346  38.734  27.671  11.689
 2676W        W74347  22.523  18.598  10.728
 2677W        W74348  24.393   0.018   3.649
 2678W        W74349  18.107  24.113  11.601
 2679W        W74350   1.409  43.261  10.946
 2680W        W74351  23.523  44.761  10.675
 2681W        W74352  35.341  19.815   3.953
 2682W        W74353  16.280  25.079  14.288
 2683W        W74354  44.269   5.837   2.941
 2684W        W74355  31.834  43.063  10.895
 2685W        W74356  36.388  19.627  11.169
 2686W        W74357  15.220  34.767  13.344
 2687W        W74358  35.640   7.441  11.157
 2688W        W74359  17.766  17.100   1.132
 2689W        W74360  14.507  38.787   3.704
 2690W        W74361   5.838  31.763   2.660
 2691W        W74362  35.641  19.662  13.600
 2692W        W74363  25.613   1.398   1.197
 2693W        W74364  22.042  16.845   2.273
 2694W        W74365  13.321  28.598  11.994
 2695W        W74366  39.004  22.590  12.474
 2696W        W74367  44.259  15.270  12.793
 2697W        W74368   9.381  14.632  10.979
 2698W        W74369   3.716  10.199  10.681
 2699W        W74370  21.618  33.387   0.814
 2700W        W74371   0.429   9.088  10.782
 2701W        W74372   8.212  33.563  14.980
 2702W        W74373  29.655  19.206  12.453
 2703W        W74374  31.952  27.932   3.996
 2704W        W74375   7.236  18.513   1.403
 2705W        W74376  36.818  12.680   2.816
 2706W        W74377  11.359   5.794   4.865
 2707W        W74378  12.713  11.859  10.721
 2708W        W74379   1.823  26.679   4.226
 2709W        W74380  21.175  26.823  10.058
 2710W        W74381  36.893  35.917   1.892
 2711W        W74382  30.021  21.586   3.559
 2712W        W74383  37.431   7.339  11.615
 2713W        W74384   4.977   9.373   0.832
 2714W        W74385  13.822  33.191  12.161
 2715W        W74386  10.869   0.469  12.499
 2716W        W74387  31.538  28.552  12.469
 2717W        W74388  36.541  26.848   2.378
 2718W        W74389   0.607  28.561  12.596
 2719W        W74390   8.148  37.469  12.831
 2720W        W74391   5.548   1.044   3.606
 2721W        W74392  41.960  33.661  13.008
 2722W        W74393  10.188   0.217  14.904
 2723W        W74394  33.298  23.479  10.231
 2724W        W74395  24.710  17.764  12.219
 2725W        W74396  38.079   7.183  13.597
 2726W        W74397  32.095   2.866  11.983
 2727W        W74398  43.991  28.817   4.210
 2728W        W74399  37.993   5.480   3.822
 2729W        W74400  38.587   9.339  11.526
 2730W        W74401  27.485   9.879   1.768
 2731W        W74402  11.960  38.276  11.869
 2732W        W74403   9.896  36.430  13.360
 2733W        W74404  18.821  28.483   2.186
 2734W        W74405  22.187  38.492   2.672
 2735W        W74406  15.125  33.027  13.210
 2736W        W74407  30.029  18.283   2.349
 2737W        W74408  15.811  26.173   0.340
 2738W        W74409  13.337  37.930  12.577
 2739W        W74410  29.849  13.584  12.501
 2740W        W74411  15.374  32.144  12.745
 2741W        W74412  18.356  34.619   1.892
 2742W        W74413  14.503  34.343  14.389
 2743W        W74414  15.726  38.614  13.849
 2744W        W74415  21.160  37.535   4.981
 2745W        W74416  37.545  41.292   4.845
 2746W        W74417  17.742  11.914  13.768
 2747W        W74418  39.222  12.327   3.833
 2748W        W74419  38.305  14.157  14.873
 2749W        W74420  23.629  15.773   0.127
 2750W        W74421  16.014   3.171  10.805
 2751W        W74422   4.278   0.521   4.618
 2752W        W74423   4.376  20.519   1.272
 2753W        W74424   6.479  31.165   1.768
 2754W        W74425  30.678  20.494   4.177
 2755W        W74426  39.422   3.668   4.704
 2756W        W74427  13.667   9.173  11.109
 2757W        W74428  20.344  17.237  14.389
 2758W        W74429   5.215  43.081  13.746
 2759W        W74430  15.339  26.332   2.570
 2760W        W74431  11.212  17.862   1.455
 2761W        W74432   2.254  33.350  11.114
 2762W        W74433  34.443  16.154  10.944
 2763W        W74434  11.772  30.990   4.837
 2764W        W74435  10.386  38.448  13.091
 2765W        W74436  38.566   6.413   4.089
 2766W        W74437  34.940  25.495   2.457
 2767W        W74438  27.071  35.858  13.672
 2768W        W74439   2.783  14.667   1.863
 2769W        W74440   2.169  34.982   4.268
 2770W        W74441  41.379  38.939   3.855
 2771W        W74442  17.605  35.374   4.373
 2772W        W74443  29.092  26.649  12.148
 2773W        W74444  15.067  42.430   1.309
 2774W        W74445  22.218  35.105  12.026
 2775W        W74446   1.412  33.507   1.580
 2776W        W74447  14.776  30.063   3.354
 2777W        W74448  28.124  14.113   9.960
 2778W        W74449  42.248  13.352   0.989
 2779W        W74450  43.045  11.084  11.009
 2780W        W74451  43.029  29.079   4.245
 2781W        W74452   3.645  43.462   2.694
 2782W        W74453  43.212  28.239  11.530
 2783W        W74454  26.535  42.938  14.600
 2784W        W74455  28.354  34.857  13.496
 2785W        W74456  28.481   9.204  14.803
 2786W        W74457  43.818  37.366   1.384
 2787W        W74458   7.826  13.328   2.928
 2788W        W74459  16.011   6.193   0.955
 2789W        W74460   2.247  41.804  11.046
 2790W        W74461  43.535  36.352   0.473
 2791W        W74462  25.710   0.338   3.621
 2792W        W74463  18.211  35.680  11.210
 2793W        W74464   1.204  40.983  12.489
 2794W        W74465   3.186  44.014   0.366
 2795W        W74466  33.117  29.142   2.874
 2796W        W74467  15.292  36.588   3.605
 2797W        W74468  27.045  43.550  11.592
 2798W        W74469   4.208  11.589  12.173
 2799W        W74470  36.253   7.371  14.569
 2800W        W74471  40.532  13.608   2.685
 2801W        W74472  12.609  42.826  12.068
 2802W        W74473   0.508   5.845   0.665
 2803W        W74474  16.580  31.537  12.501
 2804W        W74475  29.422  28.676   3.322
 2805W        W74476  17.667  12.210   5.523
 2806W        W74477  15.592   1.373  13.374
 2807W        W74478  18.566  38.998  12.641
 2808W        W74479   3.153   3.521  10.779
 2809W        W74480  44.793   4.720  12.435
 2810W        W74481  33.573   7.961  11.762
 2811W        W74482  25.727  28.625   0.417
 2812W        W74483  37.348  21.569  12.188
 2813W        W74484  13.325  11.246   2.132
 2814W        W74485   2.611  14.104  10.353
 2815W        W74486   0.397   2.596   1.497
 2816W        W74487  14.843   7.811   1.353
 2817W        W74488  24.458  22.601  13.068
 2818W        W74489  34.505  29.034   3.606
 2819W        W74490  18.664  33.003  10.694
 2820W        W74491  16.655  10.816   0.527
 2821W        W74492  29.930   4.814   3.331
 2822W        W74493   0.789  23.411   0.831
 2823W        W74494  23.664   2.364  11.910
 2824W        W74495  32.609   0.510   3.300
 2825W        W74496   6.673   3.174  12.801
 2826W        W74497  14.773  38.350  13.813
 2827W        W74498  30.566  26.038  10.268
 2828W        W74499  14.278  23.077  11.560
 2829W        W74500   9.541  18.281  12.449
 2830W        W74501   4.817  38.922   5.069
 2831W        W74502  22.184   6.441   2.640
 2832W        W74503  17.621  28.862  14.036
 2833W        W74504  11.136  44.180  11.536
 2834W        W74505  26.639  35.161   4.149
 2835W        W74506  29.057  37.377  14.809
 2836W        W74507  11.200   2.918   1.809
 2837W        W74508  36.064  30.792   1.399
 2838W        W74509  45.000  12.163  14.851
 2839W        W74510   0.280  40.960   4.519
 2840W        W74511   9.366   1.821   0.263
 2841W        W74512  24.685   9.798  10.424
 2842W        W74513  31.276  24.398   1.571
 2843W        W74514  24.855  43.221   3.153
 2844W        W74515  30.976  32.186  13.604
 2845W        W74516  39.556  15.806  11.433
 2846W        W74517   0.920   6.194  13.915
 2847W        W74518  18.566  11.288  11.984
 2848W        W74519   9.614   1.004  14.836
 2849W        W74520  13.531  28.243  13.123
 2850W        W74521  31.536  14.177   2.842
 2851W        W74522  35.685  41.316   3.462
 2852W        W74523  39.479  36.374   4.505
 2853W        W74524  35.421  24.543   3.128
 2854W        W74525  32.878  39.580   2.614
 2855W        W74526  21.048  36.116  13.577
 2856W        W74527   6.166  35.201  10.814
 2857W        W74528  16.624  11.232   2.883
 2858W        W74529  36.710  13.866  14.562
 2859W        W74530   3.938  42.701   2.341
 2860W        W74531  21.717  20.055  13.033
 2861W        W74532  19.967  44.435  14.910
 2862W        W74533  16.665  34.440   0.732
 2863W        W74534   5.337  31.354  12.105
 2864W        W74535  39.467  16.608  13.825
 2865W        W74536  17.243  11.347   0.979
 2866W        W74537   4.185  25.718  12.156
 2867W        W74538   7.834  30.036  12.451
 2868W        W74539  13.507  22.186   3.072
 2869W        W74540   8.360  22.119  13.676
 2870W        W74541  39.762  11.163  13.524
 2871W        W74542  34.580  30.376   0.982
 2872W        W74543  35.597  42.188   3.424
 2873W        W74544  29.038  28.415  10.672
 2874W        W74545   0.387  22.240  10.683
 2875W        W74546  44.427   8.312  13.995
 2876W        W74547  28.879  11.820   0.656
 2877W        W74548  34.106  17.284  12.859
 2878W        W74549  28.053  18.001  10.959
 2879W        W74550  16.813  12.871   0.362
 2880W        W74551  32.109  19.887  14.394
 2881W        W74552  24.513  20.605   1.312
 2882W        W74553  11.709  34.978   0.793
 2883W        W74554   8.349   0.411   2.289
 2884W        W74555  14.165  27.256  13.854
 2885W        W74556  36.508  25.555   0.941
 2886W        W74557  36.538  16.015   5.004
 2887W        W74558  13.356  43.035  12.713
 2888W        W74559   5.247  17.348   0.879
 2889W        W74560  26.937  44.300  11.024
 2890W        W74561  25.626  31.865   0.072
 2891W        W74562  25.568  40.499   1.361
 2892W        W74563  25.867  43.390   1.441
 2893W        W74564  27.617   5.487   0.409
 2894W        W74565  12.126  31.461  14.889
 2895W        W74566  22.661  16.210   4.776
 2896W        W74567   2.177   9.185   1.967
 2897W        W74568  41.523  28.592  12.256
 2898W        W74569  25.010  18.212   1.075
 2899W        W74570  21.133  34.423  11.681
 2900W        W74571  35.872  44.942   2.363
 2901W        W74572  25.046  17.700  13.929
 2902W        W74573  14.036  20.547   3.789
 2903W        W74574  23.746  41.990  14.937
 2904W        W74575  29.583  21.991  13.282
 2905W        W74576  33.129  15.733   5.015
 2906W        W74577  15.931  41.929  12.078
 2907W        W74578   5.920  17.287   1.819
 2908W        W74579  18.997   5.800  14.517
 2909W        W74580   6.339   0.976   2.343
 2910W        W74581  25.819  11.702   4.572
 2911W        W74582  31.114   3.967   2.820
 2912W        W74583   9.750  30.612   2.014
 2913W        W74584  17.602  29.900   4.206
 2914W        W74585  40.826   9.817  11.997
 2915W        W74586   8.190  20.629  13.488
 2916W        W74587  22.534  22.794  11.004
 2917W        W74588  40.924  12.604  12.614
 2918W        W74589  32.630   7.466   1.291
 2919W        W74590  17.248  13.593   4.329
 2920W        W74591  33.441  34.542   2.144
 2921W        W74592  31.680   7.281   2.793
 2922W        W74593  16.771  13.089  14.897
 2923W        W74594   7.685  20.637   2.494
 2924W        W74595  39.218  10.356  14.567
 2925W        W74596   7.710  22.363  13.532
 2926W        W74597  31.564  34.098  12.991
 2927W        W74598  14.642   4.370   2.647
 2928W        W74599  16.240  13.327   4.500
 2929W        W74600  23.784  21.514   2.497
 2930W        W74601   9.841   2.407  14.555
 2931W        W74602  13.102  23.803   2.212
 2932W        W74603   8.458  18.001   1.725
 2933W        W74604  16.716  37.265  13.420
 2934W        W74605  32.772  38.364  14.985
 2935W        W74606  32.302  41.407   0.999
 2936W        W74607  15.565  44.373   4.623
 2937W        W74608  12.409   6.459   3.355
 2938W        W74609  39.952  15.314   5.203
 2939W        W74610  19.107   3.101   1.800
 2940W        W74611  29.098  32.107  14.264
 2941W        W74612  22.463   0.520   3.855
 2942W        W74613  24.653   7.961   4.197
 2943W        W74614  43.086  35.454   0.825
 2944W        W74615  35.408   4.275  12.017
 2945W        W74616   2.634  20.256   3.643
 2946W        W74617  10.228  15.077  10.674
 2947W        W74618  42.872   2.295  11.483
 2948W        W74619  12.675   0.539   1.438
 2949W        W74620  22.532  19.990  10.674
 2950W        W74621  38.273  31.714   3.748
 2951W        W74622   2.986  32.293  14.223
 2952W        W74623  29.035  40.930  13.591
 2953W        W74624  44.814  30.531   0.198
 2954W        W74625  17.816  16.158   0.993
 2955W        W74626  36.034  14.487   3.723
 2956W        W74627  11.799  26.479   0.969
 2957W        W74628  26.327  19.568  11.119
 2958W        W74629   4.410  19.736  14.724
 2959W        W74630  14.321   3.791  13.373
 2960W        W74631  35.551  30.136   3.685
 2961W        W74632  43.819  40.789   0.527
 2962W        W74633   5.242  23.970  13.489
 2963W        W74634  10.810  35.126   1.714
 2964W        W74635  38.807  13.938  13.417
 2965W        W74636  12.445  44.993  10.838
 2966W        W74637  20.943  18.530   3.463
 2967W        W74638   8.631   3.224   1.738
 2968W        W74639  15.063  11.383   2.745
 2969W        W74640  12.184   8.676  12.817
 2970W        W74641  15.180  18.766  12.450
 2971W        W74642  25.772  12.347   0.720
 2972W        W74643  37.455   0.416   3.677
 2973W        W74644  27.069  26.554   4.301
 2974W        W74645  28.194   5.361   2.137
 2975W        W74646  32.317  15.368   5.003
 2976W        W74647  22.466  27.844   5.025
 2977W        W74648  25.574  10.244   1.783
 2978W        W74649  14.151  20.623   4.717
 2979W        W74650   5.966   4.789   2.530
 2980W        W74651  38.932   0.440   1.828
 2981W        W74652  44.872   5.919  11.173
 2982W        W74653   1.780  21.270  14.243
 2983W        W74654  33.231  30.656  14.019
 2984W        W74655  30.159  18.306   3.741
 2985W        W74656  43.949   1.806  14.585
 2986W        W74657  34.648  14.837  14.979
 2987W        W74658  32.541  25.229  13.045
 2988W        W74659  11.638  40.190  12.023
 2989W        W74660  30.735  13.136  12.473
 2990W        W74661  14.664   8.541   4.113
 2991W        W74662   0.386  10.161   1.408
 2992W        W74663   3.169  26.472   3.424
 2993W        W74664  22.568  12.510   3.690
 2994W        W74665   6.323  40.070   4.250
 2995W        W74666  39.389  23.229  13.342
 2996W        W74667  38.883  34.371  12.429
 2997W        W74668  18.994  26.869  13.436
 2998W        W74669  28.885  25.963  11.208
 2999W        W74670  29.918   6.357   2.562
 3000W        W74671  31.985  19.976  12.823
 3001W        W74672  30.368  34.962   3.324
 3002W        W74673  39.542  12.204  13.439
 3003W        W74674  26.614  13.299   1.032
 3004W        W74675  12.284   7.071  13.742
 3005W        W74676  41.224  24.974   3.712
 3006W        W74677  22.745  19.016  12.045
 3007W        W74678  36.500  37.056   4.759
 3008W        W74679   1.369  18.578  10.623
 3009W        W74680  31.109   0.469   0.968
 3010W        W74681  20.550  14.742  10.642
 3011W        W74682  44.456  19.008  14.393
 3012W        W74683  14.588  26.265   0.959
 3013W        W74684  15.103  38.896   2.342
 3014W        W74685  33.968  17.670   1.214
 3015W        W74686   2.726  30.049   4.333
 3016W        W74687  11.242  12.389   2.301
 3017W        W74688  17.839  27.043  13.068
 3018W        W74689   2.525  41.260  12.483
 3019W        W74690   1.835  13.438   0.190
 3020W        W74691   9.790  22.808   2.258
 3021W        W74692  33.405   8.201   1.739
 3022W        W74693   6.946  39.114  14.926
 3023W        W74694  14.231  18.691   1.372
 3024W        W74695  43.463  28.429  14.131
 3025W        W74696  33.962  41.592   2.711
 3026W        W74697  26.410  32.115   3.841
 3027W        W74698   8.728   7.609   1.190
 3028W        W74699  35.899  17.937   1.927
 3029W        W74700  44.838   4.729   4.576
 3030W        W74701  37.407  19.098  10.643
 3031W        W74702  43.940  23.796  11.483
 3032W        W74703  32.115  26.632   3.689
 3033W        W74704   5.287  27.482   1.951
 3034W        W74705  36.922  21.907   2.394
 3035W        W74706  13.262  11.080   3.593
 3036W        W74707  23.156  37.031  12.452
 3037W        W74708  31.883  19.590  14.018
 3038W        W74709   6.474   1.473  12.083
 3039W        W74710  26.982  36.305  14.826
 3040W        W74711  44.905  17.723   2.494
 3041W        W74712  19.241  29.991   0.325
 3042W        W74713  21.414  13.319  11.584
 3043W        W74714  38.630  41.291  11.542
 3044W        W74715  10.926  32.504  12.108
 3045W        W74716   8.267  29.553  10.753
 3046W        W74717  29.947   5.029   3.802
 3047W        W74718  37.909  13.132   3.418
 3048W        W74719  19.524  40.281   2.802
 3049W        W74720   7.552  39.160  12.512
 3050W        W74721  19.600  26.810  14.537
 3051W        W74722   9.280  39.584  14.421
 3052W        W74723  22.081   1.778   2.833
 3053W        W74724  44.228   4.425  11.185
 3054W        W74725  35.632  34.915  11.056
 3055W        W74726  39.704  31.849  11.544
 3056W        W74727  10.017  31.412  12.992
 3057W        W74728  42.198  12.638   4.622
 3058W        W74729  37.094  13.400  11.898
 3059W        W74730   0.435  12.469   4.720
 3060W        W74731  39.850  36.006  12.089
 3061W        W74732  33.080  10.193   4.293
 3062W        W74733  26.705  29.473   4.521
 3063W        W74734  33.674   9.584   1.741
 3064W        W74735   2.970  24.700   3.892
 3065W        W74736  16.310  30.544   0.746
 3066W        W74737   3.081   2.940   3.718
 3067W        W74738  17.937  13.356   4.576
 3068W        W74739   2.226   8.824  10.668
 3069W        W74740  44.271  29.742  12.002
 3070W        W74741   9.853  32.493   0.760
 3071W        W74742   5.514  22.807  12.468
 3072W        W74743  16.161  16.836   2.736
 3073W        W74744  18.050  33.278   3.796
 3074W        W74745   4.843  14.030   3.713
 3075W        W74746  15.741  11.571   0.308
 3076W        W74747   2.762  34.093  12.972
 3077W        W74748  18.027  14.291  14.984
 3078W        W74749  31.945  17.079  10.635
 3079W        W74750   4.091  28.709  10.498
 3080W        W74751  29.697  44.035   3.323
 3081W        W74752  44.177   6.373   4.081
 3082W        W74753  13.280  16.077   2.731
 3083W        W74754   9.083   4.907  11.704
 3084W        W74755  38.388  35.000  14.317
 3085W        W74756  10.612  15.132  11.908
 3086W        W74757  40.718   5.932   1.219
 3087W        W74758  25.757  44.441   0.939
 3088W        W74759  37.226  21.237   4.268
 3089W        W74760   4.474   0.524  12.868
 3090W        W74761   1.081  11.725  12.512
 3091W        W74762  11.850  39.668  11.955
 3092W        W74763  10.545  27.951  13.841
 3093W        W74764  12.335  26.504   0.916
 3094W        W74765  37.761  38.115   3.820
 3095W        W74766  25.339  23.754   5.028
 3096W        W74767  17.683   1.668  12.151
 3097W        W74768  42.934  22.563  11.545
 3098W        W74769  38.037  12.564   0.293
 3099W        W74770  41.723  36.650  12.882
 3100W        W74771   5.256   2.328  10.731
 3101W        W74772  18.585  37.551  13.026
 3102W        W74773  20.056   2.716  11.661
 3103W        W74774  36.333  30.454  11.376
 3104W        W74775  38.041  30.250   2.795
 3105W        W74776  21.563   5.701   2.197
 3106W        W74777  23.369  17.333  13.350
 3107W        W74778  23.487  30.316  12.160
 3108W        W74779  17.493   8.279   3.669
 3109W        W74780   3.681  29.485   2.906
 3110W        W74781  38.784  28.130   0.881
 3111W        W74782   6.124  27.874  11.026
 3112W        W74783  27.650   9.221  12.501
 3113W        W74784  20.023  43.364  10.594
 3114W        W74785  36.567   5.144   0.716
 3115W        W74786  20.965  26.786   4.978
 3116W        W74787  40.500  21.003  14.093
 3117W        W74788  35.524  29.975  10.574
 3118W        W74789  41.863  38.293   5.039
 3119W        W74790   1.989  40.258   0.750
 3120W        W74791  34.279  27.657   2.616
 3121W        W74792  11.432   1.263   0.784
 3122W        W74793  42.030   4.910   2.773
 3123W        W74794  43.098  43.672  12.602
 3124W        W74795  25.190   0.554   4.266
 3125W        W74796  22.488   4.402   1.423
 3126W        W74797  38.069  34.880  12.498
 3127W        W74798   5.706  41.696   1.270
 3128W        W74799  20.990  29.914  14.763
 3129W        W74800   4.199  20.278  13.084
 3130W        W74801  20.460  20.645  13.092
 3131W        W74802  20.060  11.186  10.261
 3132W        W74803   6.332  23.071   0.148
 3133W        W74804  37.113  35.373   3.899
 3134W        W74805  38.434  20.412  13.888
 3135W        W74806  18.978  35.094  12.494
 3136W        W74807  27.874  20.117  13.850
 3137W        W74808  18.149  21.214   3.858
 3138W        W74809  40.325  31.202   2.867
 3139W        W74810   0.480  23.193  13.549
 3140W        W74811  10.773  28.483   3.031
 3141W        W74812  37.858  37.637  10.621
 3142W        W74813  13.662  32.032   2.737
 3143W        W74814  41.487  14.530   3.856
 3144W        W74815   2.644  36.573   3.797
 3145W        W74816  30.017  32.066  13.799
 3146W        W74817  38.602   5.764   1.893
 3147W        W74818  30.749   9.606   1.428
 3148W        W74819  20.851  34.374   3.280
 3149W        W74820  30.346  37.452  13.512
 3150W        W74821  35.374   5.707   1.745
 3151W        W74822  21.870  43.612  13.562
 3152W        W74823  32.053  12.142  10.628
 3153W        W74824  25.749  20.861  10.630
 3154W        W74825  39.893  22.017   2.231
 3155W        W74826  14.852   1.907   3.646
 3156W        W74827  42.420  29.226  14.237
 3157W        W74828  12.797  44.820   2.255
 3158W        W74829  19.126  33.120   1.016
 3159W        W74830  20.014  17.021   4.960
 3160W        W74831   3.369  31.073   2.992
 3161W        W74832  25.137  23.758   2.283
 3162W        W74833  31.140  38.415   2.254
 3163W        W74834  32.464  18.568   4.169
 3164W        W74835   8.744  27.701  14.119
 3165W        W74836  37.415  39.585   2.684
 3166W        W74837   3.841  24.142   1.192
 3167W        W74838   1.409  21.097   0.027
 3168W        W74839  33.903  10.629   3.825
 3169W        W74840  31.527  36.873  11.508
 3170W        W74841  33.392  26.783  10.135
 3171W        W74842  29.459  43.495  13.762
 3172W        W74843  35.131  41.243  12.929
 3173W        W74844  20.292  24.230  11.411
 3174W        W74845   1.241  24.560   3.132
 3175W        W74846  32.687  38.119  11.592
 3176W        W74847  37.010  36.082   3.333
 3177W        W74848  11.724  38.447   1.759
 3178W        W74849  16.742  10.175  13.509
 3179W        W74850  19.803  18.609   5.048
 3180W        W74851  18.216   8.276  11.049
 3181W        W74852   1.906  33.809   0.459
 3182W        W74853  28.680  32.173   1.125
 3183W        W74854  39.471   9.932  12.208
 3184W        W74855   2.805  21.197  14.405
 3185W        W74856   8.118  10.751  14.745
 3186W        W74857  18.710   8.734   1.259
 3187W        W74858   1.994  39.214   4.063
 3188W        W74859  21.265   0.464   0.401
 3189W        W74860   2.658  10.719   3.886
 3190W        W74861  15.189  38.528   1.047
 3191W        W74862  27.483  37.555  11.101
 3192W        W74863  25.987  38.254  14.294
 3193W        W74864   8.200  21.240  13.821
 3194W        W74865  10.542  35.425   1.178
 3195W        W74866  37.062  43.984  13.345
 3196W        W74867  39.085  38.093  11.750
 3197W        W74868  12.441  25.484   3.086
 3198W        W74869   1.507  10.501  10.222
 3199W        W74870  37.448  16.781  13.585
 3200W        W74871  30.847  37.909   4.219
 3201W        W74872  41.234  25.214   1.930
 3202W        W74873   3.893  13.167  14.442
 3203W        W74874  33.373  39.462  13.005
 3204W        W74875  44.446  32.865   2.321
 3205W        W74876  12.140   0.312   0.405
 3206W        W74877  11.823  33.119  13.062
 3207W        W74878  23.179  11.696  14.561
 3208W        W74879   0.450  20.691   0.691
 3209W        W74880  30.044  33.393   0.877
 3210W        W74881  41.241   7.832  11.538
 3211W        W74882  41.295  20.668  13.573
 3212W        W74883  42.718   6.610   0.191
 3213W        W74884  20.958  39.478   2.125
 3214W        W74885   8.675   2.122   3.340
 3215W        W74886  39.062  38.015  12.273
 3216W        W74887  25.572  23.334  10.573
 3217W        W74888  24.666  37.133  13.558
 3218W        W74889  41.416  32.516   0.401
 3219W        W74890   5.321  29.200   0.016
 3220W        W74891  33.021  42.531  12.614
 3221W        W74892  40.499   1.351   3.243
 3222W        W74893  35.834   1.750  11.670
 3223W        W74894  21.268   0.480  13.557
 3224W        W74895   1.494  24.684  13.930
 3225W        W74896   8.378  43.271   0.872
 3226W        W74897  42.989  17.022   2.439
 3227W        W74898   8.471  16.273  13.825
 3228W        W74899  25.278  30.068   1.890
 3229W        W74900  42.702   8.717  14.056
 3230W        W74901  23.605  38.357  11.072
 3231W        W74902  23.116  43.806   0.385
 3232W        W74903  21.088  43.204  10.622
 3233W        W74904  42.928  41.494   3.700
 3234W        W74905  36.351  36.998   5.788
 3235W        W74906  33.481  30.108  13.991
 3236W        W74907  21.513   2.525   4.179
 3237W        W74908  22.589  22.712   4.134
 3238W        W74909  33.878  36.488   1.356
 3239W        W74910  13.066  36.772   2.811
 3240W        W74911  25.455  20.497  10.972
 3241W        W74912  38.642   5.928   3.318
 3242W        W74913  23.175   0.746   4.825
 3243W        W74914  14.590  25.740   0.807
 3244W        W74915  43.491  39.550  14.335
 3245W        W74916  12.263  16.223  13.758
 3246W        W74917   2.987  38.823   2.331
 3247W        W74918  22.438   8.718   2.479
 3248W        W74919  23.449  11.198  12.429
 3249W        W74920   2.973   7.802   0.993
 3250W        W74921  35.455  22.269  13.988
 3251W        W74922  36.625  32.179   0.031
 3252W        W74923  35.910  17.188  14.930
 3253W        W74924  17.209  29.253   0.324
 3254W        W74925  42.411  28.690   0.677
 3255W        W74926  36.231  21.769   3.383
 3256W        W74927  19.494  29.622   0.578
 3257W        W74928  12.786  19.426  11.481
 3258W        W74929   3.648  15.537  12.911
 3259W        W74930  23.569  34.824  13.358
 3260W        W74931  18.596  18.585   0.799
 3261W        W74932   1.390  24.178  13.904
 3262W        W74933  35.546  39.716  14.441
 3263W        W74934  17.792  18.232  13.445
 3264W        W74935  42.329  13.850  10.166
 3265W        W74936  18.970  37.096  14.746
 3266W        W74937  43.220  16.088   1.310
 3267W        W74938  11.647  19.844   4.877
 3268W        W74939  27.819   0.163  13.092
 3269W        W74940   1.348  19.217  14.394
 3270W        W74941  11.892   0.187  12.559
 3271W        W74942   7.134  32.760   1.241
 3272W        W74943  29.672  34.074  10.953
 3273W        W74944  37.003   9.211   1.966
 3274W        W74945  34.417   9.244  11.652
 3275W        W74946  32.398  32.562   4.848
 3276W        W74947  36.645  12.782   4.667
 3277W        W74948  15.566  23.651   1.641
 3278W        W74949  37.557   5.986   1.302
 3279W        W74950  43.182  30.477  11.943
 3280W        W74951  31.639   9.820   0.961
 3281W        W74952  42.467   9.411   1.784
 3282W        W74953  27.167   3.919  14.993
 3283W        W74954  39.063   2.691  14.238
 3284W        W74955   5.318  30.855  11.980
 3285W        W74956   9.313  38.059  12.280
 3286W        W74957  30.085  40.747  11.120
 3287W        W74958  30.539  34.636   2.955
 3288W        W74959  32.986   2.724  11.420
 3289W        W74960  36.999  15.229  11.009
 3290W        W74961  44.017  30.188  12.951
 3291W        W74962  38.402  22.038  13.284
 3292W        W74963   4.720  36.501  11.470
 3293W        W74964  33.455  39.532  10.561
 3294W        W74965  12.396  24.038   4.151
 3295W        W74966  38.091  28.549  13.433
 3296W        W74967  21.804  42.458  10.551
 3297W        W74968  22.088  37.207  13.375
 3298W        W74969  13.785  33.630  14.833
 3299W        W74970  34.366   3.213   3.615
 3300W        W74971  43.855   7.559   4.548
 3301W        W74972  25.517  17.674  13.676
 3302W        W74973  25.259  40.527   3.377
 3303W        W74974  43.687   1.512   4.859
 3304W        W74975   2.959  25.598  11.210
 3305W        W74976  14.273  24.938  14.353
 3306W        W74977  26.576  36.333   0.924
 3307W        W74978  20.062  16.675  14.957
 3308W        W74979  25.489  31.498   1.394
 3309W        W74980  38.410  33.859  13.773
 3310W        W74981  44.018  10.343   3.329
 3311W        W74982  25.157  16.110   3.634
 3312W        W74983  33.893  38.867  10.593
 3313W        W74984  16.761  40.598   4.715
 3314W        W74985  25.700  21.569  11.574
 3315W        W74986  31.053  26.845  12.879
 3316W        W74987  27.638  40.195  10.542
 3317W        W74988  37.871  25.060  11.969
 3318W        W74989  17.914   6.815   2.177
 3319W        W74990  41.000   7.288  14.534
 3320W        W74991  13.860   5.037  13.680
 3321W        W74992  40.837  30.388   1.751
 3322W        W74993  43.271  32.510  13.898
 3323W        W74994  38.363   1.240  14.975
 3324W        W74995  16.618  25.228   0.101
 3325W        W74996  11.080  18.110  14.419
 3326W        W74997  44.675  10.647   4.289
 3327W        W74998  40.040  25.602  11.999
 3328W        W74999  25.758  14.384   0.075
 3329W        W75000   1.951  21.483   1.698
 3330W        W75001  40.494   1.329  11.454
 3331W        W75002  10.644  12.545  11.619
 3332W        W75003   7.173  21.060   0.703
 3333W        W75004   6.536  35.390   4.590
 3334W        W75005  38.405  14.362  11.579
 3335W        W75006   4.034  16.293   3.684
 3336W        W75007   7.165  12.680   4.628
 3337W        W75008  10.078  32.619   2.251
 3338W        W75009  22.486  24.938   3.164
 3339W        W75010  29.700  39.960   1.091
 3340W        W75011  32.626  24.587   2.681
 3341W        W75012  36.842  43.241  14.992
 3342W        W75013  22.726  24.417   4.489
 3343W        W75014   6.971  34.565   3.828
 3344W        W75015  24.994  11.116  10.688
 3345W        W75016  41.875  21.190   0.366
 3346W        W75017  35.083  33.869  11.534
 3347W        W75018  37.299  38.991  14.899
 3348W        W75019   2.266  15.545  14.813
 3349W        W75020  41.352  12.814  12.436
 3350W        W75021  37.816  11.873  10.523
 3351W        W75022  25.239  18.051   1.626
 3352W        W75023  44.380  14.208   5.425
 3353W        W75024  23.123  40.625  12.520
 3354W        W75025  15.046   2.209  11.687
 3355W        W75026  40.187   1.196   2.836
 3356W        W75027  43.323  34.027   4.416
 3357W        W75028   9.184  30.174  13.926
 3358W        W75029   3.363  43.313   3.606
 3359W        W75030  14.896   9.195   1.399
 3360W        W75031  15.788  24.133   0.369
 3361W        W75032  14.620  13.311  12.965
 3362W        W75033   6.688  17.672  11.217
 3363W        W75034   2.478  29.093   3.628
 3364W        W75035   7.022  28.055  12.502
 3365W        W75036   1.265  32.796   0.992
 3366W        W75037  41.453  36.425   0.036
 3367W        W75038  25.029  19.156   4.597
 3368W        W75039   4.279   6.333   2.569
 3369W        W75040  43.326   3.258  13.142
 3370W        W75041  30.268  11.668  10.626
 3371W        W75042  34.977  11.293  11.331
 3372W        W75043   7.249  42.099   1.229
 3373W        W75044  26.971  12.474   1.372
 3374W        W75045   8.212  21.077   0.904
 3375W        W75046  22.505  20.732   1.808
 3376W        W75047  34.367  21.547   0.241
 3377W        W75048  29.485   8.789   3.724
 3378W        W75049  39.491   5.440   3.837
 3379W        W75050  42.933  10.113   2.188
 3380W        W75051  25.153  16.320   4.538
 3381W        W75052  23.542  37.816   2.661
 3382W        W75053  23.663  41.155  14.422
 3383W        W75054  19.471  31.813   3.223
 3384W        W75055  38.613  22.528  13.386
 3385W        W75056   9.768  44.018  14.048
 3386W        W75057  12.755  30.361   2.714
 3387W        W75058  42.721  19.618   3.365
 3388W        W75059  11.166  36.057   1.789
 3389W        W75060  34.587  39.615  12.552
 3390W        W75061  17.852  13.121  10.867
 3391W        W75062  36.620  10.247  12.894
 3392W        W75063  27.576  39.025  12.110
 3393W        W75064  40.576  20.484  12.489
 3394W        W75065  18.784   7.951   4.256
 3395W        W75066  22.006  14.797  11.140
 3396W        W75067  15.709  26.408   1.263
 3397W        W75068  11.199   7.758  12.192
 3398W        W75069   8.177  32.747  14.429
 3399W        W75070   1.779   6.933  11.223
 3400W        W75071  22.436   1.462   2.059
 3401W        W75072  39.051  41.552   1.730
 3402W        W75073  26.075  43.449  10.981
 3403W        W75074  39.085   6.600  14.350
 3404W        W75075   6.741  25.671  14.863
 3405W        W75076  38.760  14.231   4.960
 3406W        W75077  29.587  23.281  14.776
 3407W        W75078  35.779   2.780   4.194
 3408W        W75079   2.873  44.257  12.427
 3409W        W75080  28.807  15.357   0.481
 3410W        W75081  19.364  11.011   5.630
 3411W        W75082  32.624  29.136   0.273
 3412W        W75083  13.130  37.033  14.783
 3413W        W75084  34.064   3.751  12.580
 3414W        W75085  20.518  18.701   3.246
 3415W        W75086  28.144  42.039   0.682
 3416W        W75087  26.290  43.070   1.480
 3417W        W75088   1.758  24.561   3.132
 3418W        W75089  11.329  10.288  14.532
 3419W        W75090   8.108  17.938   2.870
 3420W        W75091   7.973  12.030   3.179
 3421W        W75092  24.811   6.321  11.963
 3422W        W75093  24.536  23.683  11.140
 3423W        W75094  40.631  15.823   1.847
 3424W        W75095   1.284  35.532   0.790
 3425W        W75096  35.573   8.707   0.124
 3426W        W75097   3.262  13.517   2.811
 3427W        W75098   1.757  13.714   3.751
 3428W        W75099  44.972  43.924   2.321
 3429W        W75100  20.049  21.309  10.724
 3430W        W75101  15.224  37.250   1.822
 3431W        W75102  22.403  27.235  14.332
 3432W        W75103   8.798  16.308  12.016
 3433W        W75104  39.907  38.487  13.845
 3434W        W75105  14.819  21.585  12.434
 3435W        W75106   4.822  30.433   2.354
 3436W        W75107  39.378  18.343  11.075
 3437W        W75108  27.428  18.994   0.019
 3438W        W75109  36.732   4.432  11.640
 3439W        W75110  35.799  39.380   2.140
 3440W        W75111  34.880  44.386  12.087
 3441W        W75112  34.065  39.822   1.919
 3442W        W75113  23.627   3.262   4.265
 3443W        W75114  15.786  29.635   2.299
 3444W        W75115  15.616  17.017   4.626
 3445W        W75116   4.116   5.943   4.140
 3446W        W75117   7.577  11.066   0.858
 3447W        W75118   8.814   4.312  12.671
 3448W        W75119  37.545  38.794  14.375
 3449W        W75120  18.508  40.007  11.706
 3450W        W75121  34.691  28.545  13.210
 3451W        W75122  39.057  44.871  14.373
 3452W        W75123  43.893   1.964   4.630
 3453W        W75124   8.212  17.558   4.082
 3454W        W75125  38.756  25.636  12.541
 3455W        W75126  33.406  10.706  14.671
 3456W        W75127  15.799   6.701   0.367
 3457W        W75128  21.587  39.047  13.306
 3458W        W75129  36.346  36.633   4.997
 3459W        W75130  10.920  31.758   1.356
 3460W        W75131  39.826  38.911   0.416
 3461W        W75132  44.470  25.084  10.946
 3462W        W75133  15.191   9.232  14.773
 3463W        W75134  20.069   9.253  13.981
 3464W        W75135  21.093  35.094  14.803
 3465W        W75136  43.848  16.772   2.772
 3466W        W75137  24.742  31.604   3.102
 3467W        W75138  24.109  35.420   4.034
 3468W        W75139   2.165  22.190  14.874
 3469W        W75140  24.764  25.154   3.615
 3470W        W75141  15.748  39.908   4.018
 3471W        W75142   8.298  18.687  11.875
 3472W        W75143  10.635  29.864   1.021
 3473W        W75144  30.605  19.874  12.926
 3474W        W75145  26.261  33.642   1.363
 3475W        W75146  27.410  29.115   0.572
 3476W        W75147  20.267  34.938  11.866
 3477W        W75148  16.066   1.677   5.018
 3478W        W75149  43.046  31.550   2.729
 3479W        W75150  12.388  10.798   3.539
 3480W        W75151  14.758  35.107   2.870
 3481W        W75152  29.456  17.573   3.599
 3482W        W75153  27.682  25.694  10.702
 3483W        W75154  23.080   9.798  11.569
 3484W        W75155  24.551  13.827  14.907
 3485W        W75156  20.976  39.547   2.688
 3486W        W75157  37.727  25.742  14.855
 3487W        W75158  30.239   6.387  10.665
 3488W        W75159   1.976  19.799   9.503
 3489W        W75160  34.461  18.647   1.112
 3490W        W75161  41.536  31.551   3.800
 3491W        W75162  35.002  15.850   4.222
 3492W        W75163   0.842  13.113  12.548
 3493W        W75164  22.146  13.267  13.422
 3494W        W75165   0.862  27.279  13.647
 3495W        W75166  29.947  12.330   1.464
 3496W        W75167  19.182  34.121  11.631
 3497W        W75168  29.997  35.837  13.207
 3498W        W75169  24.102   3.351   2.187
 3499W        W75170  24.842   9.329  10.636
 3500W        W75171  10.548   0.388  13.039
 3501W        W75172   7.395   5.452  12.137
 3502W        W75173  24.488  24.618  13.981
 3503W        W75174  27.035  31.556  11.246
 3504W        W75175  17.109  44.418   3.769
 3505W        W75176  41.018  12.259  12.188
 3506W        W75177  44.819   9.479   1.631
 3507W        W75178   9.665  27.163   4.418
 3508W        W75179  34.198  37.351   4.559
 3509W        W75180  11.585  21.073   1.407
 3510W        W75181  31.046  29.911  11.173
 3511W        W75182   2.530  42.393   0.333
 3512W        W75183  16.664  23.753   1.184
 3513W        W75184   9.754  16.832  14.016
 3514W        W75185  24.196  22.256   1.708
 3515W        W75186  36.528   5.012  10.689
 3516W        W75187   4.808   7.126  12.092
 3517W        W75188  22.061  36.460   1.262
 3518W        W75189  15.633  41.215  10.466
 3519W        W75190  36.539  44.993   4.608
 3520W        W75191  32.490  43.017  11.965
 3521W        W75192   0.345   4.879  13.500
 3522W        W75193  11.773   0.669  12.423
 3523W        W75194  20.080  14.118   1.362
 3524W        W75195  31.385  35.025  11.214
 3525W        W75196  28.177   7.455   2.703
 3526W        W75197  33.596  38.627  13.930
 3527W        W75198  30.485  44.277   1.888
 3528W        W75199  35.772   6.303   4.957
 3529W        W75200   7.875  17.501   1.644
 3530W        W75201  37.875  38.957   4.134
 3531W        W75202  19.203  42.661  11.691
 3532W        W75203   3.482  42.230  11.083
 3533W        W75204  23.506  17.974   2.961
 3534W        W75205  30.448  25.784   1.564
 3535W        W75206  10.096  33.023   3.667
 3536W        W75207  44.271  43.515  10.705
 3537W        W75208  40.177  39.631  14.451
 3538W        W75209   9.568  12.476  10.598
 3539W        W75210  16.841   6.863   0.539
 3540W        W75211  15.193  35.351   1.715
 3541W        W75212  25.994  34.804   0.264
 3542W        W75213  29.625  37.840  10.573
 3543W        W75214  11.382  39.685   4.604
 3544W        W75215  44.248  16.688   3.825
 3545W        W75216  20.709  12.637  14.581
 3546W        W75217  10.076  27.153  12.294
 3547W        W75218  35.665  30.143   0.311
 3548W        W75219  33.692  10.306  13.778
 3549W        W75220   2.246   2.521  11.766
 3550W        W75221  20.499  38.996   0.530
 3551W        W75222  25.405  22.539   3.524
 3552W        W75223  21.257  35.068  10.663
 3553W        W75224  13.249  32.472  14.057
 3554W        W75225  32.981  29.742  11.024
 3555W        W75226  26.458  13.832   2.308
 3556W        W75227  23.540   4.381   1.203
 3557W        W75228  32.591   2.825   1.857
 3558W        W75229  42.496   1.443  11.582
 3559W        W75230   9.646  22.631   1.372
 3560W        W75231   6.128   1.273  12.426
 3561W        W75232   7.628  21.345   3.861
 3562W        W75233  13.356  23.632  13.318
 3563W        W75234  32.117  39.685   5.216
 3564W        W75235  21.722   3.360  10.247
 3565W        W75236  30.376  16.114  11.176
 3566W        W75237   8.169  24.555  10.755
 3567W        W75238  10.244  29.082  13.926
 3568W        W75239   7.180  16.282  14.917
 3569W        W75240  38.494   8.985   1.912
 3570W        W75241  23.713  26.951   4.150
 3571W        W75242  15.976   0.792   3.698
 3572W        W75243  22.885  39.880  12.954
 3573W        W75244   1.393  31.655  13.213
 3574W        W75245  31.502  10.703   0.600
 3575W        W75246  13.823  20.064  10.986
 3576W        W75247  36.828  30.204  13.455
 3577W        W75248  42.466  18.590  13.830
 3578W        W75249   3.835  18.717   3.316
 3579W        W75250  20.978  21.119   4.665
 3580W        W75251  40.462  34.743  10.712
 3581W        W75252  24.816   6.667  12.418
 3582W        W75253  25.230  17.747   1.211
 3583W        W75254  31.552  42.447   3.625
 3584W        W75255  33.078   2.950   3.503
 3585W        W75256   3.710  17.550   4.083
 3586W        W75257  23.151  38.870  10.565
 3587W        W75258  11.269  25.011  14.430
 3588W        W75259  32.087  42.424   4.867
 3589W        W75260   9.414  34.151  14.920
 3590W        W75261   6.321   5.027  10.259
 3591W        W75262  30.376  25.531  11.562
 3592W        W75263  21.873  39.294  10.500
 3593W        W75264  35.115  44.404   2.010
 3594W        W75265  38.947  30.719  11.903
 3595W        W75266   0.173   3.365  14.416
 3596W        W75267  21.051  21.754  11.478
 3597W        W75268  39.139  18.834   2.791
 3598W        W75269   7.510   2.223  11.618
 3599W        W75270  43.757  21.944  11.204
 3600W        W75271   4.873  20.270  12.409
 3601W        W75272  28.658  36.079   2.019
 3602W        W75273  31.597  26.100  11.267
 3603W        W75274  37.371   2.195   4.680
 3604W        W75275  15.031   1.279   0.342
 3605W        W75276   7.011   0.939  11.577
 3606W        W75277  36.075  42.620   2.893
 3607W        W75278   1.339  34.344  10.857
 3608W        W75279  15.829  14.526   2.318
 3609W        W75280  37.562  43.843  13.492
 3610W        W75281   3.487  26.146   4.563
 3611W        W75282  44.872  24.217  11.620
 3612W        W75283  34.381  13.819   1.066
 3613W        W75284  10.689  41.202   3.655
 3614W        W75285   4.882  32.045  10.295
 3615W        W75286  26.551  42.348   4.258
 3616W        W75287  32.423  26.410   1.003
 3617W        W75288   7.050  18.050  11.242
 3618W        W75289  11.960  22.141   9.916
 3619W        W75290  21.576  11.311   1.876
 3620W        W75291  15.311  28.665   0.598
 3621W        W75292  12.314  21.654  10.663
 3622W        W75293  15.552  33.789   1.845
 3623W        W75294  36.303  14.886  11.120
 3624W        W75295  22.270  17.188   0.233
 3625W        W75296   8.339  16.052  11.962
 3626W        W75297  13.417  11.315  13.839
 3627W        W75298   1.979  16.765   1.519
 3628W        W75299  31.644   7.247   4.593
 3629W        W75300  14.757  23.974  12.480
 3630W        W75301  22.291  33.923  14.936
 3631W        W75302  21.683  10.135  14.391
 3632W        W75303  22.688  25.685  14.308
 3633W        W75304  14.621  43.499  11.033
 3634W        W75305  40.338   9.644   2.307
 3635W        W75306   3.980  39.860   1.780
 3636W        W75307  34.999  13.992  14.013
 3637W        W75308  15.258  43.933  14.759
 3638W        W75309  33.053   0.062   3.862
 3639W        W75310   8.733  29.325  10.747
 3640W        W75311  36.385  21.066  11.653
 3641W        W75312  26.977  43.794   2.330
 3642W        W75313  19.077  19.681  11.241
 3643W        W75314   7.265  35.833   1.338
 3644W        W75315  28.975  28.900   3.237
 3645W        W75316  36.860  26.914  12.969
 3646W        W75317  25.039  42.321  14.409
 3647W        W75318   5.751   1.522  11.626
 3648W        W75319  23.185  23.963  12.369
 3649W        W75320  23.227  30.730   1.327
 3650W        W75321  13.398  18.318   3.434
 3651W        W75322  41.061  23.511   4.523
 3652W        W75323  39.883  10.642   1.794
 3653W        W75324  38.861  31.968  14.265
 3654W        W75325  21.948  39.942   1.713
 3655W        W75326  15.069  20.582  12.897
 3656W        W75327  36.784   5.745  14.675
 3657W        W75328  16.819  40.997   2.747
 3658W        W75329   9.288  36.316   0.505
 3659W        W75330  29.161  21.461  11.060
 3660W        W75331  26.139  41.859   4.695
 3661W        W75332   8.710  42.536   2.692
 3662W        W75333  19.658   5.957   0.865
 3663W        W75334  35.254   0.978   3.671
 3664W        W75335  25.263  29.655   2.199
 3665W        W75336   0.853  28.046  10.605
 3666W        W75337  18.358  35.941   1.180
 3667W        W75338  42.787  23.440   4.524
 3668W        W75339  39.073   9.597  12.087
 3669W        W75340  26.662  43.232   1.789
 3670W        W75341   2.434  25.991  14.759
 3671W        W75342  26.656  43.241   2.784
 3672W        W75343  17.724  38.651  10.723
 3673W        W75344  34.680  34.876  14.487
 3674W        W75345  38.480  33.079   3.802
 3675W        W75346   8.835  24.928  11.396
 3676W        W75347   2.190  33.439  14.443
 3677W        W75348  32.145  18.989   2.410
 3678W        W75349  29.158  44.332   2.560
 3679W        W75350  10.105   9.775   3.718
 3680W        W75351  28.896  20.375   4.145
 3681W        W75352  10.811  15.168  14.662
 3682W        W75353   3.853  20.672   3.675
 3683W        W75354  24.280  26.006  11.666
 3684W        W75355  34.793  30.550   3.815
 3685W        W75356  44.332  44.902  10.363
 3686W        W75357  38.790   0.272   3.348
 3687W        W75358  25.379  30.716   0.303
 3688W        W75359  18.208  41.685  11.213
 3689W        W75360  23.093  15.270   4.474
 3690W        W75361  10.757  22.377  11.605
 3691W        W75362   2.882  40.600   4.189
 3692W        W75363  24.112  21.607  12.534
 3693W        W75364   9.655  13.334   0.698
 3694W        W75365  32.925  31.897   2.220
 3695W        W75366  34.826  31.436   3.917
 3696W        W75367  14.155  35.225   1.249
 3697W        W75368  14.367  20.211  13.004
 3698W        W75369   4.192  10.627  11.104
 3699W        W75370  21.732  37.314  14.031
 3700W        W75371  22.586  34.351  14.901
 3701W        W75372  33.318  13.437   0.076
 3702W        W75373  44.985  26.374   4.410
 3703W        W75374  42.532  33.648  14.343
 3704W        W75375  13.622  44.962  12.145
 3705W        W75376  44.062  16.825   1.893
 3706W        W75377   6.906  23.734   2.372
 3707W        W75378  25.613  39.999   2.685
 3708W        W75379  35.938  40.026  10.134
 3709W        W75380   2.195   1.846   2.763
 3710W        W75381  42.276  23.343   4.070
 3711W        W75382  30.561   6.248  11.935
 3712W        W75383  44.900  25.113  14.335
 3713W        W75384  17.226  16.620  13.087
 3714W        W75385  17.079  42.922   0.870
 3715W        W75386   7.836  16.848   1.537
 3716W        W75387  37.916   3.251  10.769
 3717W        W75388  34.886  22.485  11.178
 3718W        W75389  13.736  33.558   0.733
 3719W        W75390   0.320   2.832  12.790
 3720W        W75391   0.090  17.801  13.933
 3721W        W75392  33.354   4.354   0.130
 3722W        W75393  40.938  20.660   2.217
 3723W        W75394  38.984  27.081  10.701
 3724W        W75395  32.547  27.959  14.780
 3725W        W75396  43.032  36.059  13.007
 3726W        W75397  40.550  16.858   4.614
 3727W        W75398  35.331   0.652   4.492
 3728W        W75399  43.870  27.266   0.695
 3729W        W75400  38.039  32.592   1.526
 3730W        W75401  30.310  38.438   1.700
 3731W        W75402  12.139  38.668  10.632
 3732W        W75403  23.434   2.395   1.911
 3733W        W75404   0.765  16.216   0.926
 3734W        W75405   9.910  12.370   0.405
 3735W        W75406  20.824  23.036   1.900
 3736W        W75407  30.753  32.080  14.360
 3737W        W75408  35.058  38.071   4.033
 3738W        W75409  31.317  16.130   3.778
 3739W        W75410  27.905  26.049   1.645
 3740W        W75411   2.175  37.567   4.745
 3741W        W75412  13.576  15.040  11.967
 3742W        W75413  26.661  29.852  12.873
 3743W        W75414  44.231  19.181   0.793
 3744W        W75415  10.658  10.886   0.170
 3745W        W75416  17.210  24.606  11.457
 3746W        W75417  18.701  26.477  10.363
 3747W        W75418   7.079  39.364  10.695
 3748W        W75419   3.819   4.543   0.168
 3749W        W75420   1.436  20.468   3.205
 3750W        W75421   7.795  22.688   0.961
 3751W        W75422  15.233  44.296   1.556
 3752W        W75423   0.269  21.683  14.759
 3753W        W75424  35.758  24.154   3.252
 3754W        W75425  21.540  31.567   0.214
 3755W        W75426  30.606   3.758   0.826
 3756W        W75427  36.378  10.670   3.666
 3757W        W75428  18.525  25.465  12.898
 3758W        W75429  35.582  14.129   2.903
 3759W        W75430  18.315  35.852  13.254
 3760W        W75431  18.202   0.593   0.731
 3761W        W75432  26.089  10.782   3.703
 3762W        W75433  13.924  41.404  10.918
 3763W        W75434  23.183  43.082  12.308
 3764W        W75435  24.980  10.150  10.670
 3765W        W75436   7.023  28.168  13.376
 3766W        W75437  37.551   4.399  14.428
 3767W        W75438  25.710  30.672   2.330
 3768W        W75439  19.043  10.165  11.091
 3769W        W75440  43.471   9.798   1.820
 3770W        W75441  28.496  10.718   2.876
 3771W        W75442   8.618  28.906  12.668
 3772W        W75443  25.435   3.944   4.044
 3773W        W75444  25.554  33.969  14.463
 3774W        W75445   9.969  31.097   0.832
 3775W        W75446   2.433   9.793  12.404
 3776W        W75447   2.230  35.014  12.655
 3777W        W75448  26.778   5.122   2.171
 3778W        W75449   4.038  31.137   0.792
 3779W        W75450  41.005   0.477  13.743
 3780W        W75451   2.045  42.384   1.781
 3781W        W75452  30.194  31.366  13.144
 3782W        W75453   9.788   4.911   4.635
 3783W        W75454  34.912  37.121   2.697
 3784W        W75455  23.896  15.615  14.566
 3785W        W75456  31.709  13.356   4.331
 3786W        W75457  20.669   4.326   1.660
 3787W        W75458  32.820  19.516   2.064
 3788W        W75459  14.313  28.944   1.851
 3789W        W75460  34.664  41.440  11.588
 3790W        W75461  18.740  24.449   2.107
 3791W        W75462  34.970  30.533   9.996
 3792W        W75463  12.399  13.034   4.096
 3793W        W75464  29.584   2.306  12.448
 3794W        W75465   4.290  23.654   4.649
 3795W        W75466   8.348  32.115   4.079
 3796W        W75467  38.488  16.353  11.235
 3797W        W75468  15.113  36.104   3.861
 3798W        W75469  41.134  20.599  11.282
 3799W        W75470  12.141  35.895   3.310
 3800W        W75471  14.314  25.588   0.003
 3801W        W75472  15.561  32.939  10.716
 3802W        W75473  36.279  36.460  12.815
 3803W        W75474  16.276  21.594   0.785
 3804W        W75475   4.524   8.609  11.118
 3805W        W75476   3.997   7.384  14.940
 3806W        W75477   7.078  31.589  11.760
 3807W        W75478  30.497  23.759   2.606
 3808W        W75479  13.613  35.104   1.242
 3809W        W75480   0.048  16.355   1.141
 3810W        W75481  15.191  40.847   3.213
 3811W        W75482  14.119  32.433  10.552
 3812W        W75483   1.009  19.580   4.232
 3813W        W75484  17.800  38.574   4.271
 3814W        W75485  10.610  39.556  10.619
 3815W        W75486  28.604   1.113  12.160
 3816W        W75487   3.521  27.108   0.430
 3817W        W75488  31.622  32.417   2.791
 3818W        W75489  10.296   7.043  11.485
 3819W        W75490  11.781  43.150   1.046
 3820W        W75491  33.493  32.883  14.663
 3821W        W75492  34.807   3.919  14.463
 3822W        W75493  20.660   7.146  13.134
 3823W        W75494  43.973  32.832  10.781
 3824W        W75495   4.777  19.488  12.140
 3825W        W75496  40.311  15.416   0.280
 3826W        W75497  19.304   5.133   0.063
 3827W        W75498  37.631  43.892  12.985
 3828W        W75499  26.232  42.892   2.801
 3829W        W75500  16.895   7.345  11.608
 3830W        W75501  13.629  14.271   3.343
 3831W        W75502  26.247   4.757  14.437
 3832W        W75503  24.736  32.104  12.955
 3833W        W75504  39.235   7.259   2.237
 3834W        W75505  34.829   5.741  11.183
 3835W        W75506  13.990  30.478  11.004
 3836W        W75507  38.291  27.126  11.200
 3837W        W75508  13.003   0.764   0.931
 3838W        W75509   9.253   9.815   2.001
 3839W        W75510  36.007  23.961   0.409
 3840W        W75511   5.205  19.171   3.163
 3841W        W75512   0.023  21.233  12.659
 3842W        W75513  23.587  28.084   3.715
 3843W        W75514  20.192  38.245  12.364
 3844W        W75515  42.830  23.160   3.188
 3845W        W75516  23.458  19.788  12.408
 3846W        W75517  22.069  24.388  14.151
 3847W        W75518   8.620  40.579   5.198
 3848W        W75519   9.879   6.003  12.100
 3849W        W75520   9.601  18.813  14.854
 3850W        W75521  33.841  42.078   1.344
 3851W        W75522  26.544   8.336  13.261
 3852W        W75523  34.018  41.844  14.052
 3853W        W75524  32.085  28.686  12.504
 3854W        W75525  42.732  26.737  11.131
 3855W        W75526  30.640  43.924   0.256
 3856W        W75527  20.618  40.306  14.919
 3857W        W75528  20.213  24.967  12.941
 3858W        W75529  20.331  18.030  11.057
 3859W        W75530   7.174   4.806  13.104
 3860W        W75531   4.162  34.885   1.262
 3861W        W75532   5.830  26.493  12.198
 3862W        W75533  44.756   0.134  11.157
 3863W        W75534   1.661  26.652   3.647
 3864W        W75535  33.116  37.489  12.933
 3865W        W75536  16.846  41.427  10.978
 3866W        W75537  19.749  34.774  13.504
 3867W        W75538  39.360  11.683   2.250
 3868W        W75539   8.827  18.164  14.417
 3869W        W75540  12.801   8.750  14.010
 3870W        W75541  20.443  23.067   4.058
 3871W        W75542  24.970  10.282  14.790
 3872W        W75543  33.971  40.197   1.568
 3873W        W75544  37.311  28.676  12.635
 3874W        W75545  15.095   9.973   1.757
 3875W        W75546  35.973  40.422  12.475
 3876W        W75547  20.559  42.422  14.250
 3877W        W75548   1.266  23.007  14.546
 3878W        W75549  41.144  31.840  12.524
 3879W        W75550  25.391  34.925  12.098
 3880W        W75551  35.592  35.557  11.444
 3881W        W75552  13.789  43.160   3.561
 3882W        W75553  40.990  21.746   2.741
 3883W        W75554  40.108  17.392   2.158
 3884W        W75555  41.832  34.239  14.715
 3885W        W75556  30.400  10.379  11.046
 3886W        W75557  29.814  15.508   1.872
 3887W        W75558  32.915  21.481   0.868
 3888W        W75559  43.931  44.260   4.290
 3889W        W75560  41.018   7.996  11.063
 3890W        W75561  40.984   0.546  14.525
 3891W        W75562  12.952  29.493  11.478
 3892W        W75563  14.937  15.898  13.460
 3893W        W75564  15.050  21.482  12.893
 3894W        W75565  38.871   6.415  11.998
 3895W        W75566  40.404  11.248   3.211
 3896W        W75567   9.700  44.857   4.021
 3897W        W75568  35.381  10.849   0.397
 3898W        W75569  19.676  26.681  11.028
 3899W        W75570   8.264  29.108  13.581
 3900W        W75571  20.526  26.718  12.258
 3901W        W75572  31.144   4.736   3.213
 3902W        W75573  44.310  30.778  12.102
 3903W        W75574   8.773  22.819  12.976
 3904W        W75575   5.212  35.957   3.175
 3905W        W75576  43.829  30.670  14.387
 3906W        W75577  24.469  32.815   2.217
 3907W        W75578  16.686   6.381   0.384
 3908W        W75579  17.885   5.187   2.991
 3909W        W75580   3.870  30.910  11.021
 3910W        W75581  33.084   1.781  10.900
 3911W        W75582  26.553   6.111  12.132
 3912W        W75583  17.469   5.508   2.999
 3913W        W75584  39.336  38.036  10.770
 3914W        W75585  20.380   5.241  12.796
 3915W        W75586  41.551   6.297   2.873
 3916W        W75587  42.448  27.289   1.682
 3917W        W75588  14.737  16.838   1.306
 3918W        W75589  44.819  21.193   9.648
 3919W        W75590  24.120   8.319  14.823
 3920W        W75591   6.263   9.353   2.405
 3921W        W75592  20.819  15.809   4.116
 3922W        W75593  38.793  37.033   3.413
 3923W        W75594  43.084  43.253   1.367
 3924W        W75595  25.639  30.334   1.263
 3925W        W75596  24.616  39.488  12.985
 3926W        W75597   4.796  11.864  14.848
 3927W        W75598  13.054  28.203  12.933
 3928W        W75599  36.565  26.498   0.888
 3929W        W75600   3.488  41.479  10.686
 3930W        W75601  13.599  20.608  14.241
 3931W        W75602  28.086   6.879   0.942
 3932W        W75603  42.857  23.621   2.933
 3933W        W75604  44.695  38.317  12.697
 3934W        W75605  25.490  44.675   0.540
 3935W        W75606  20.593  13.441  10.224
 3936W        W75607  17.747  44.061  14.874
 3937W        W75608  16.299  36.778   2.444
 3938W        W75609  10.217  26.292   1.743
 3939W        W75610  39.107  10.931  11.006
 3940W        W75611   9.305  22.002   0.193
 3941W        W75612  43.083   9.914   3.606
 3942W        W75613  29.262   7.080   4.601
 3943W        W75614  21.317   2.425   2.578
 3944W        W75615  41.637  31.961  12.551
 3945W        W75616  35.659  40.198  12.131
 3946W        W75617  25.253  44.980  14.872
 3947W        W75618  24.663  18.163   3.178
 3948W        W75619  41.865   2.388   4.801
 3949W        W75620  25.558  12.180   2.854
 3950W        W75621   5.958   2.561  12.585
 3951W        W75622   7.022  21.907   3.215
 3952W        W75623  16.607   5.818   4.256
 3953W        W75624  25.605  12.692   1.684
 3954W        W75625   6.963  31.916   3.852
 3955W        W75626   1.974  34.502  10.696
 3956W        W75627  10.430  20.100  13.333
 3957W        W75628  26.677  25.705   3.314
 3958W        W75629  28.712  24.684  11.620
 3959W        W75630  17.184  18.607   2.851
 3960W        W75631  39.979  29.620   0.768
 3961W        W75632   3.166  25.188  13.294
 3962W        W75633  25.270  40.807  13.798
 3963W        W75634  36.429  40.408  10.723
 3964W        W75635  22.994  32.990   4.622
 3965W        W75636  12.677   6.403   0.575
 3966W        W75637  12.151   9.834   3.742
 3967W        W75638  13.138  39.780   4.639
 3968W        W75639   3.794  18.205  13.130
 3969W        W75640  17.228  28.869  14.413
 3970W        W75641  27.142  21.716  14.036
 3971W        W75642  36.021  31.122  13.005
 3972W        W75643  28.199  31.435  13.826
 3973W        W75644  12.577   1.932  12.857
 3974W        W75645   8.385  37.046  13.006
 3975W        W75646  20.296  11.927  10.572
 3976W        W75647  19.383  18.513   1.466
 3977W        W75648  41.776  30.691   0.931
 3978W        W75649  28.102   5.178   0.298
 3979W        W75650  31.927  39.785  12.028
 3980W        W75651   9.359   9.884   4.195
 3981W        W75652  14.001  25.455  11.134
 3982W        W75653  29.754  38.547   1.596
 3983W        W75654  10.616  44.542   0.862
 3984W        W75655   2.417  26.331  13.750
 3985W        W75656  40.481  23.582   3.329
 3986W        W75657  31.379  21.530  14.780
 3987W        W75658  29.615   1.302   3.432
 3988W        W75659   1.238  15.204   0.763
 3989W        W75660  38.158  34.521   2.685
 3990W        W75661  24.851  20.378   4.312
 3991W        W75662   0.837  39.569  12.404
 3992W        W75663  16.808   2.152   0.610
 3993W        W75664  28.711  16.597  13.925
 3994W        W75665  15.861  30.060  11.413
 3995W        W75666  25.764   5.363  13.972
 3996W        W75667  27.875  17.108  11.959
 3997W        W75668   0.591  22.581   9.743
 3998W        W75669  13.221  23.276  13.975
 3999W        W75670  37.383  33.638  11.926
 4000W        W75671  11.184  32.118   1.644
 4001W        W75672  41.312  13.095  14.399
 4002W        W75673  44.980  22.669  12.862
 4003W        W75674  43.456  28.323  12.703
 4004W        W75675  14.205  39.017   3.141
 4005W        W75676  38.607  18.672   1.507
 4006W        W75677  18.759  43.161  11.173
 4007W        W75678  18.197  44.366  12.881
 4008W        W75679   3.957   2.349   4.311
 4009W        W75680   1.324  31.169  13.408
 4010W        W75681  26.029  28.138   4.897
 4011W        W75682  22.172  21.907  11.896
 4012W        W75683  37.933   1.943  13.412
 4013W        W75684   2.805  21.278   1.272
 4014W        W75685  36.914  39.559  14.687
 4015W        W75686  14.587   3.978   1.406
 4016W        W75687   3.221  39.936   2.925
 4017W        W75688  33.477  26.612   3.364
 4018W        W75689   4.658  18.465   0.444
 4019W        W75690  12.630  32.269   1.398
 4020W        W75691  13.185  12.574   3.502
 4021W        W75692  10.283   4.173   3.587
 4022W        W75693  18.164  30.154  11.096
 4023W        W75694   8.219   8.837  14.359
 4024W        W75695   8.487  37.962   4.042
 4025W        W75696  12.341  27.008  10.568
 4026W        W75697  34.672  36.841  11.070
 4027W        W75698   2.762   0.278   3.652
 4028W        W75699  33.040  35.097   4.130
 4029W        W75700  14.378   0.361  10.531
 4030W        W75701  21.085  32.986   0.547
 4031W        W75702  42.267   3.476  14.351
 4032W        W75703  43.702  22.537  14.877
 4033W        W75704  20.195  43.619   2.032
 4034W        W75705  21.554  10.229  13.861
 4035W        W75706  28.348  18.316   2.336
 4036W        W75707  31.494  37.404   1.723
 4037W        W75708  41.298  20.365  12.090
 4038W        W75709  23.700  22.715   4.607
 4039W        W75710  35.547  28.932  10.971
 4040W        W75711  31.099  20.830   4.176
 4041W        W75712  24.066  41.817   2.731
 4042W        W75713  25.791  21.705  13.390
 4043W        W75714  36.384  30.541  10.873
 4044W        W75715  18.779  14.674   1.789
 4045W        W75716  31.407  33.151  12.983
 4046W        W75717  14.712  30.002  10.973
 4047W        W75718  42.017  34.167   2.672
 4048W        W75719  31.605   8.834   0.782
 4049W        W75720  42.277  42.802   0.945
 4050W        W75721  14.207  31.596   4.840
 4051W        W75722  41.543   8.821  12.478
 4052W        W75723  43.115   2.207   1.362
 4053W        W75724  33.401  12.128   0.385
 4054W        W75725   7.863  26.725   1.861
 4055W        W75726   0.536   4.393  11.553
 4056W        W75727  42.832  39.182   1.696
 4057W        W75728  42.504  25.241  14.869
 4058W        W75729   1.598   0.836  12.056
 4059W        W75730  17.173  14.193   1.254
 4060W        W75731  12.902  15.543  13.886
 4061W        W75732   2.980  32.509  11.237
 4062W        W75733  13.704  40.225  12.632
 4063W        W75734  28.943  37.751  11.603
 4064W        W75735  44.788  21.131  13.707
 4065W        W75736   5.038  24.566  11.546
 4066W        W75737  44.945   8.912   2.408
 4067W        W75738  39.337  32.070   4.230
 4068W        W75739  20.573  21.671  13.974
 4069W        W75740  10.812   3.100  14.888
 4070W        W75741  10.310   1.393  13.412
 4071W        W75742  12.988  42.996   5.083
 4072W        W75743  43.243   5.373   4.137
 4073W        W75744  22.168  37.450   0.889
 4074W        W75745   6.377  19.629   2.561
 4075W        W75746  28.938   2.277   0.910
 4076W        W75747  33.103  26.773   1.389
 4077W        W75748  22.273  24.415   4.151
 4078W        W75749  39.755   2.318   4.754
 4079W        W75750  28.675  17.519   1.913
 4080W        W75751  32.138  28.043   0.195
 4081W        W75752  18.273  35.362   0.005
 4082W        W75753  29.230  31.695   4.373
 4083W        W75754  42.856  38.462  12.455
 4084W        W75755   6.858  32.155   5.101
 4085W        W75756  37.155  30.054  11.119
 4086W        W75757  14.637  13.314  12.448
 4087W        W75758  41.226   8.689  12.876
 4088W        W75759   2.467   4.422  10.742
 4089W        W75760  13.189  11.927  13.481
 4090W        W75761  14.832  18.217  11.157
 4091W        W75762  35.929   2.860   2.005
 4092W        W75763  16.647   0.305  12.992
 4093W        W75764   8.355  33.675   4.535
 4094W        W75765  41.452  16.626   2.235
 4095W        W75766  10.073   0.999  11.170
 4096W        W75767  44.650  30.464  13.870
 4097W        W75768   3.464  27.883  13.953
 4098W        W75769  36.357  29.189  13.509
 4099W        W75770  43.987   7.415   1.351
 4100W        W75771   3.726  37.558  10.525
 4101W        W75772   7.729  33.847  13.344
 4102W        W75773  16.964   2.993   1.799
 4103W        W75774  33.955   5.890  13.687
 4104W        W75775  28.348  13.062   1.217
 4105W        W75776   1.251  18.055  12.343
 4106W        W75777   1.745  21.572   0.808
 4107W        W75778  22.610  22.181   0.410
 4108W        W75779   7.360  33.563  10.610
 4109W        W75780  34.829  11.628   4.619
 4110W        W75781  32.409   1.416  10.973
 4111W        W75782  12.391  41.285   4.175
 4112W        W75783  29.968  29.507  14.784
 4113W        W75784  30.096  24.984   4.634
 4114W        W75785   3.330  30.600   1.849
 4115W        W75786  14.948   4.768   1.775
 4116W        W75787  41.877  22.449  14.032
 4117W        W75788  16.580   4.795  13.841
 4118W        W75789  29.237  24.935  13.413
 4119W        W75790  21.072  27.473   2.221
 4120W        W75791  42.866  13.215   3.058
 4121W        W75792  27.076  13.529   1.179
 4122W        W75793  14.526  22.130  14.819
 4123W        W75794  39.214  31.843   2.523
 4124W        W75795  28.735  13.571   0.362
 4125W        W75796  22.943  29.014   3.092
 4126W        W75797   1.004  42.443   3.366
 4127W        W75798  38.496  38.042   3.291
 4128W        W75799  33.535   9.320   1.243
 4129W        W75800  30.034   8.035   5.375
 4130W        W75801   4.708  39.990  10.664
 4131W        W75802  16.301  41.552  14.520
 4132W        W75803  36.590   4.698  14.076
 4133W        W75804   2.874  43.976   3.170
 4134W        W75805  35.052   3.375   4.126
 4135W        W75806  33.843  32.887  10.651
 4136W        W75807  26.961  25.607   1.431
 4137W        W75808  29.400  10.239  10.324
 4138W        W75809  14.534  13.407  13.985
 4139W        W75810   5.872  29.034  13.148
 4140W        W75811  36.778   4.633  11.182
 4141W        W75812  23.146  31.135  11.067
 4142W        W75813  21.972  16.505  10.894
 4143W        W75814  32.624  39.460  11.548
 4144W        W75815  44.416  22.741   0.289
 4145W        W75816  23.681  43.349   1.684
 4146W        W75817  42.970  13.435  10.711
 4147W        W75818   1.687  32.616  11.218
 4148W        W75819  10.702  35.502   3.141
 4149W        W75820  18.269  21.124   2.417
 4150W        W75821  13.394  42.034  12.574
 4151W        W75822  23.242  21.182  14.381
 4152W        W75823  40.121  14.140  11.362
 4153W        W75824  12.290  44.900   2.322
 4154W        W75825  31.327   6.342  14.599
 4155W        W75826  23.478  18.862  11.568
 4156W        W75827   1.949  26.144  12.968
 4157W        W75828   3.803  44.794  13.091
 4158W        W75829  12.109  44.822   3.674
 4159W        W75830   0.914  36.479  12.350
 4160W        W75831  43.961  24.678   5.012
 4161W        W75832  43.564  36.069  13.039
 4162W        W75833  31.959  21.730  11.510
 4163W        W75834  18.079   1.287  13.478
 4164W        W75835  19.547  38.929   3.774
 4165W        W75836   2.450  26.130   3.536
 4166W        W75837  44.707  27.887  11.094
 4167W        W75838  17.847  32.142   0.412
 4168W        W75839  36.146   7.714   0.707
 4169W        W75840   5.821  36.533   0.712
 4170W        W75841  12.964  28.127   2.018
 4171W        W75842  36.777  39.511  11.047
 4172W        W75843  12.652  43.477  13.407
 4173W        W75844  31.541  31.493   4.756
 4174W        W75845   5.647  39.698  14.797
 4175W        W75846   4.922   3.873   4.749
 4176W        W75847  27.077  13.918   3.136
 4177W        W75848  22.542  26.139   4.231
 4178W        W75849   4.387   3.547   2.090
 4179W        W75850   9.841  32.539   1.808
 4180W        W75851  32.076  24.492   2.650
 4181W        W75852  11.770  36.292   3.719
 4182W        W75853   2.424  11.836  14.025
 4183W        W75854  31.384  44.810  13.601
 4184W        W75855  23.668   3.177   4.791
 4185W        W75856   8.757  33.162  11.963
 4186W        W75857  13.286  21.594   0.308
 4187W        W75858  11.648  42.316  13.852
 4188W        W75859  26.596  19.232  14.275
 4189W        W75860  26.322  27.919  11.498
 4190W        W75861  34.940  11.908  14.013
 4191W        W75862  44.380  12.030   1.402
 4192W        W75863   1.873  20.437   1.610
 4193W        W75864   1.369  21.147  14.500
 4194W        W75865   5.179  25.408  14.986
 4195W        W75866  24.863  26.170  14.615
 4196W        W75867  31.670  27.612  10.430
 4197W        W75868  31.163   9.189   2.852
 4198W        W75869  12.066  41.682  10.728
 4199W        W75870  25.968   5.981  12.985
 4200W        W75871  24.041  22.521   0.622
 4201W        W75872  10.190   2.428  12.094
 4202W        W75873  43.754  14.784  10.928
 4203W        W75874  37.113   4.746  14.971
 4204W        W75875   0.271  40.325   3.329
 4205W        W75876  10.789  30.696   0.777
 4206W        W75877  19.876  12.254  10.547
 4207W        W75878  17.593  12.901   2.817
 4208W        W75879  14.668  28.214  11.055
 4209W        W75880  37.463  33.044  13.141
 4210W        W75881  15.514   2.484   2.697
 4211W        W75882  44.517   6.933   4.781
 4212W        W75883  32.384  14.921  14.427
 4213W        W75884  16.841   5.192   1.005
 4214W        W75885   7.169   3.395   3.426
 4215W        W75886  27.512  19.176  11.625
 4216W        W75887  11.787  14.341   1.352
 4217W        W75888  29.112  15.725   0.275
 4218W        W75889  17.172   6.014  14.102
 4219W        W75890  25.374   0.924  10.980
 4220W        W75891  31.922  13.711  10.741
 4221W        W75892   1.753  22.413   3.409
 4222W        W75893  39.615  19.814   4.981
 4223W        W75894  35.735  39.355  11.182
 4224W        W75895   2.440  13.641   4.537
 4225W        W75896  35.460  23.510   2.723
 4226W        W75897  13.391  18.715   1.275
 4227W        W75898  36.572  27.457  11.816
 4228W        W75899  35.476  30.893  12.205
 4229W        W75900  32.550  40.019   0.861
 4230W        W75901  34.605  17.741  10.763
 4231W        W75902   4.301  26.255   3.175
 4232W        W75903  43.824  26.177   4.657
 4233W        W75904  40.466  12.053   3.619
 4234W        W75905  33.149   0.916  10.976
 4235W        W75906  22.760  41.040   3.345
 4236W        W75907  26.766  29.030  14.395
 4237W        W75908  41.782  14.851   2.578
 4238W        W75909  31.921  12.435   3.891
 4239W        W75910  30.342   2.114  13.103
 4240W        W75911  39.956  31.790   3.382
 4241W        W75912  36.645  20.699   1.384
 4242W        W75913   9.799  43.542  12.239
 4243W        W75914   0.465  41.420   3.617
 4244W        W75915  29.671  32.981  12.096
 4245W        W75916  21.282   9.715  14.420
 4246W        W75917   5.280  41.287   2.846
 4247W        W75918   9.419  15.712   0.747
 4248W        W75919  16.743   5.281  13.099
 4249W        W75920  30.433  17.054  11.191
 4250W        W75921  28.606  14.303  10.906
 4251W        W75922   3.261  14.603  12.240
 4252W        W75923   6.713  18.571   1.441
 4253W        W75924  42.252  13.780  11.450
 4254W        W75925  14.248  20.043  10.658
 4255W        W75926  16.617  22.738   1.338
 4256W        W75927   9.272  33.664   4.724
 4257W        W75928   2.223  20.754   0.806
 4258W        W75929  32.508  17.167   3.142
 4259W        W75930  15.207  38.982  10.405
 4260W        W75931  40.330  12.463  11.006
 4261W        W75932   8.147  14.300   0.740
 4262W        W75933  40.353  22.935  14.368
 4263W        W75934  29.379  22.070  11.097
 4264W        W75935   0.880  43.337   1.754
 4265W        W75936  29.925  21.612  12.182
 4266W        W75937  37.216  26.419   3.559
 4267W        W75938   2.067  19.142   3.381
 4268W        W75939  44.760  39.350  14.809
 4269W        W75940   4.328  43.546  10.717
 4270W        W75941  35.662  15.082   3.250
 4271W        W75942   2.679   2.198   1.881
 4272W        W75943   7.259  19.750  12.557
 4273W        W75944   5.860  22.074   0.879
 4274W        W75945  39.549  16.105   4.638
 4275W        W75946  11.716  25.543   1.267
 4276W        W75947   5.638  20.850   4.220
 4277W        W75948  14.757  26.757   3.901
 4278W        W75949  38.651  20.344   3.267
 4279W        W75950  21.787   6.433   0.526
 4280W        W75951  23.135  38.949  11.587
 4281W        W75952  10.285   3.437   1.879
 4282W        W75953  34.565  12.258  11.974
 4283W        W75954  39.047  15.970   2.036
 4284W        W75955  27.627  11.627  13.830
 4285W        W75956  43.553  37.318   1.821
 4286W        W75957  24.369  28.598   2.319
 4287W        W75958  38.920  39.179   4.862
 4288W        W75959  11.868  16.332   4.512
 4289W        W75960   4.280  11.708  12.749
 4290W        W75961  31.954   1.773   1.223
 4291W        W75962   0.778  38.011   3.320
 4292W        W75963   5.310  15.807   0.725
 4293W        W75964  30.071  21.156   9.992
 4294W        W75965  41.848  35.931  12.154
 4295W        W75966  28.772   3.249   0.411
 4296W        W75967  21.932  20.886  11.266
 4297W        W75968  30.533  21.516  10.404
 4298W        W75969  35.333  20.153  10.480
 4299W        W75970  13.393  38.831  13.169
 4300W        W75971   6.096  19.573   2.121
 4301W        W75972  32.485  12.123  14.981
 4302W        W75973  42.475  32.418  11.196
 4303W        W75974   7.296  17.366  14.487
 4304W        W75975  14.665  30.258   4.744
 4305W        W75976  43.790   8.847   2.658
 4306W        W75977  32.444  24.170   0.715
 4307W        W75978  32.483  42.507  13.386
 4308W        W75979  23.673   9.782   2.163
 4309W        W75980  31.999  32.848   2.749
 4310W        W75981  26.964   6.826   1.365
 4311W        W75982   2.756  22.011  12.467
 4312W        W75983  38.290  42.086   3.529
 4313W        W75984   1.637  28.939  11.083
 4314W        W75985   9.108   1.474   3.239
 4315W        W75986   1.807  22.206  12.792
 4316W        W75987  11.654  21.234   2.292
 4317W        W75988  39.105  33.528  12.110
 4318W        W75989  25.079  31.708  13.456
 4319W        W75990   7.058  14.515  14.584
 4320W        W75991   3.815  29.609  13.536
 4321W        W75992  25.965   2.416  12.032
 4322W        W75993   3.814  11.656   1.178
 4323W        W75994  24.649  21.439   2.790
 4324W        W75995  36.371   8.481   4.095
 4325W        W75996   5.835  35.514   4.643
 4326W        W75997   5.619   6.350   4.711
 4327W        W75998   7.355  31.479  13.358
 4328W        W75999   7.362  22.446   0.783
 4329W        W76000  31.863  37.273   3.579
 4330W        W76001  38.007   8.780  14.752
 4331W        W76002  33.228  43.930  11.773
 4332W        W76003  12.820   8.791   1.707
 4333W        W76004  37.730  10.680   1.777
 4334W        W76005  43.419  44.925   4.863
 4335W        W76006  17.196  38.821   4.965
 4336W        W76007  19.058  16.552  10.688
 4337W        W76008   4.786   5.084   3.204
 4338W        W76009  10.161  42.486  11.562
 4339W        W76010  33.427  25.575   2.457
 4340W        W76011  41.062  30.657   2.161
 4341W        W76012  22.811  41.840   1.024
 4342W        W76013  10.601  24.278   0.974
 4343W        W76014   8.863   6.623   2.898
 4344W        W76015  36.943  33.448   4.692
 4345W        W76016  16.034   9.243   4.034
 4346W        W76017   8.609  27.924  11.080
 4347W        W76018  30.078   8.479  12.131
 4348W        W76019  43.279  28.096   3.575
 4349W        W76020  44.427  29.686   3.329
 4350W        W76021  41.880  30.732   0.022
 4351W        W76022  39.891   5.953   4.522
 4352W        W76023  26.678  37.822   0.778
 4353W        W76024   8.349  43.733  12.092
 4354W        W76025  19.753  34.535   0.279
 4355W        W76026  30.388  29.668  12.142
 4356W        W76027  35.160  40.252  11.977
 4357W        W76028   2.001  28.896   3.717
 4358W        W76029   7.596  44.475   3.766
 4359W        W76030  23.715  44.250   3.660
 4360W        W76031  19.308  25.672  12.511
 4361W        W76032  40.739  33.368  10.683
 4362W        W76033  30.939  23.183   1.142
 4363W        W76034   0.442  11.189   4.133
 4364W        W76035  34.507   2.914  12.287
 4365W        W76036   2.695   5.392   4.147
 4366W        W76037  27.106   2.289  14.039
 4367W        W76038  16.701  23.561   2.257
 4368W        W76039  11.095  29.237  13.414
 4369W        W76040  17.628  32.281  10.979
 4370W        W76041  25.543  20.523  13.791
 4371W        W76042  39.194  21.812   0.009
 4372W        W76043   8.713  28.378   1.277
 4373W        W76044  23.212  29.859  13.595
 4374W        W76045  32.432   2.986  11.158
 4375W        W76046  27.207  16.744  14.311
 4376W        W76047  24.468   6.791   2.893
 4377W        W76048  24.755  11.031  12.792
 4378W        W76049  18.825  29.109  14.997
 4379W        W76050  12.298  14.636  10.682
 4380W        W76051  23.195  13.237   0.776
 4381W        W76052   3.948   4.933   0.484
 4382W        W76053   1.296  42.591   2.965
 4383W        W76054  13.596  17.155  12.548
 4384W        W76055  40.482  41.977  12.500
 4385W        W76056  36.031   9.314  12.589
 4386W        W76057   9.887  29.868   3.202
 4387W        W76058  25.636  10.345   2.667
 4388W        W76059  10.924   8.921  13.845
 4389W        W76060  44.746  43.299  10.646
 4390W        W76061  29.680   9.757  11.926
 4391W        W76062  31.439  38.785   3.357
 4392W        W76063  41.072   9.888  11.146
 4393W        W76064   7.574  42.511   4.332
 4394W        W76065   3.430  40.622   4.146
 4395W        W76066  12.670   5.385  13.247
 4396W        W76067  36.098  28.134   3.838
 4397W        W76068  35.480  38.947  11.368
 4398W        W76069  15.586  29.627  10.315
 4399W        W76070  44.997   0.506   4.279
 4400W        W76071  13.853  23.331   4.592
 4401W        W76072  33.963  23.148   4.168
 4402W        W76073  30.183  40.395   0.489
 4403W        W76074  33.125   2.826  14.941
 4404W        W76075  40.004  12.124  12.567
 4405W        W76076   0.228  36.132  14.434
 4406W        W76077  39.546  44.428   1.524
 4407W        W76078   4.830  44.281  13.788
 4408W        W76079   7.781  23.641   2.024
 4409W        W76080  28.215  26.477   3.161
 4410W        W76081   7.114  36.003   3.418
 4411W        W76082  34.480  32.436  11.080
 4412W        W76083   8.325  26.166  11.504
 4413W        W76084   0.341  34.563  14.841
 4414W        W76085  24.109  16.401   0.504
 4415W        W76086  24.129  14.671  10.328
 4416W        W76087  33.511  31.678   4.589
 4417W        W76088  21.882   2.628  10.775
 4418W        W76089  44.713   1.449   4.126
 4419W        W76090   4.923  36.753  13.543
 4420W        W76091  19.543  33.919  13.001
 4421W        W76092  29.045  16.201   3.095
 4422W        W76093  13.396  14.776  14.969
 4423W        W76094   9.066  38.263   1.198
 4424W        W76095  28.377  26.714   2.283
 4425W        W76096  15.326  41.958   2.978
 4426W        W76097  30.554  24.465   1.924
 4427W        W76098  16.206  35.229   1.170
 4428W        W76099  15.295   5.057  12.847
 4429W        W76100  40.690  18.984  13.417
 4430W        W76101  27.064  43.499  12.555
 4431W        W76102  13.126  38.546   0.427
 4432W        W76103  13.633   5.520  13.739
 4433W        W76104  29.497  32.617   3.874
 4434W        W76105  44.487   1.201   3.261
 4435W        W76106   0.944   4.481  13.944
 4436W        W76107  30.589   8.447  12.109
 4437W        W76108   6.165  12.827   3.302
 4438W        W76109  14.595  26.787   3.399
 4439W        W76110  37.542   8.302   0.932
 4440W        W76111  13.323  29.610   2.974
 4441W        W76112  20.298  41.014  13.108
 4442W        W76113  42.749  28.019   4.442
 4443W        W76114  27.987  37.772  12.416
 4444W        W76115  42.964  27.241  10.459
 4445W        W76116  34.037  34.407  11.535
 4446W        W76117   1.028   9.734   1.709
 4447W        W76118  20.058  13.221  10.947
 4448W        W76119  11.823  13.110   4.139
 4449W        W76120  41.752   9.150   2.927
 4450W        W76121  36.202  10.769  14.109
 4451W        W76122  23.913  29.714  12.889
 4452W        W76123  39.587   0.787   0.506
 4453W        W76124  21.692  24.449  12.854
 4454W        W76125   6.918   5.279  13.086
 4455W        W76126  30.892  44.298  12.483
 4456W        W76127   5.457   4.209   0.734
 4457W        W76128   4.975  35.065  11.567
 4458W        W76129  23.038  33.863  13.272
 4459W        W76130  41.297  30.575  10.796
 4460W        W76131  33.693  21.962   1.761
 4461W        W76132  39.551   2.951  14.388
 4462W        W76133  44.357  19.282  10.655
 4463W        W76134   8.633  26.790   3.686
 4464W        W76135  19.119  32.272   1.292
 4465W        W76136   8.013  15.432   3.611
 4466W        W76137  10.863  38.058   2.857
 4467W        W76138  34.976   5.437  12.566
 4468W        W76139  32.916   7.411  14.922
 4469W        W76140  10.696  39.296   0.556
 4470W        W76141  37.078  40.733  12.697
 4471W        W76142  25.636  13.547  10.933
 4472W        W76143   4.064  35.063   4.685
 4473W        W76144  10.788   4.890   3.753
 4474W        W76145  23.946  34.479   1.469
 4475W        W76146  23.158  42.835  14.873
 4476W        W76147  20.485  12.858  13.625
 4477W        W76148   6.845  30.369  11.601
 4478W        W76149  32.370  12.734   4.747
 4479W        W76150  23.102  20.060  11.321
 4480W        W76151   0.832  24.305   3.923
 4481W        W76152  28.205  36.007   4.679
 4482W        W76153   0.732   9.700  11.912
 4483W        W76154  27.977   4.300  13.296
 4484W        W76155   9.337  31.142  13.872
 4485W        W76156   6.678  31.697   2.254
 4486W        W76157  36.172  26.584  11.291
 4487W        W76158  13.621  36.154  14.960
 4488W        W76159  11.638  18.532  10.646
 4489W        W76160  38.055  33.305   1.708
 4490W        W76161  28.282  17.795  13.411
 4491W        W76162   4.879  35.338   0.345
 4492W        W76163  18.079  43.919   0.869
 4493W        W76164   6.839  11.896  13.984
 4494W        W76165  23.559   0.214  11.033
 4495W        W76166   8.266  22.263  12.763
 4496W        W76167  19.142  28.045  13.146
 4497W        W76168  33.845   9.007  12.057
 4498W        W76169  27.632  17.553  13.944
 4499W        W76170  28.009  10.623   4.613
 4500W        W76171  44.781  13.646  13.897
 4501W        W76172   4.914  36.056  13.065
 4502W        W76173  37.984  40.822  12.679
 4503W        W76174  38.119  16.977  14.728
 4504W        W76175   5.013  43.839  14.922
 4505W        W76176   8.324   6.399  12.988
 4506W        W76177  21.240  30.325  10.108
 4507W        W76178   2.974   6.276  14.691
 4508W        W76179  13.161   8.809  12.389
 4509W        W76180   6.542  16.266  12.542
 4510W        W76181  28.166  39.090   0.832
 4511W        W76182  24.088   8.115  12.970
 4512W        W76183  35.491   8.963   0.556
 4513W        W76184   8.395  17.044  11.471
 4514W        W76185   1.330   2.612   1.220
 4515W        W76186  12.878  37.238   1.712
 4516W        W76187   9.597   5.403  11.286
 4517W        W76188  15.602  15.282  13.986
 4518W        W76189   1.870  35.212   1.473
 4519W        W76190  29.085  13.804  11.597
 4520W        W76191   6.244  38.028   3.117
 4521W        W76192  30.469   2.309   3.618
 4522W        W76193  21.299  22.757  12.521
 4523W        W76194  10.608  14.869   3.794
 4524W        W76195   2.801  42.009  12.351
 4525W        W76196  21.330  41.969  14.784
 4526W        W76197  33.512  38.319   2.129
 4527W        W76198  15.042  35.912  10.910
 4528W        W76199  36.879   2.242  13.406
 4529W        W76200  31.544  32.154  13.959
 4530W        W76201  24.024  39.983  11.408
 4531W        W76202  39.275  35.870  10.902
 4532W        W76203  12.693  24.146  12.889
 4533W        W76204   4.887  41.483  13.458
 4534W        W76205  34.363  43.563   0.210
 4535W        W76206  37.477  31.039   2.444
 4536W        W76207  28.080  11.357   0.902
 4537W        W76208  41.129  19.264  11.190
 4538W        W76209  18.647   5.446   2.268
 4539W        W76210   3.901   3.186   2.366
 4540W        W76211  44.776   9.888   4.820
 4541W        W76212  18.828  39.678   0.233
 4542W        W76213  25.456  15.246   1.693
 4543W        W76214  22.768  43.391   3.789
 4544W        W76215   1.101  18.296   0.201
 4545W        W76216   5.410   4.290  11.326
 4546W        W76217  33.055  43.129   2.235
 4547W        W76218   8.945  33.350   0.445
 4548W        W76219   3.947  28.078   4.115
 4549W        W76220  10.781   8.351   0.279
 4550W        W76221  19.555  44.830  11.861
 4551W        W76222  36.389  29.868  14.324
 4552W        W76223  21.799   6.166   2.874
 4553W        W76224  11.695   2.838   0.844
 4554W        W76225  21.242  41.125  12.937
 4555W        W76226  11.860  44.410   0.786
 4556W        W76227  44.335  28.657  13.533
 4557W        W76228  23.496   0.072   2.359
 4558W        W76229  16.323   2.270   3.556
 4559W        W76230  16.934  27.814   4.070
 4560W        W76231  38.096  40.913  14.095
 4561W        W76232  44.078  25.750   0.913
 4562W        W76233   4.670  42.442   2.537
 4563W        W76234  20.307  17.183  10.616
 4564W        W76235  10.204  37.567   9.991
 4565W        W76236  27.878   9.381  13.800
 4566W        W76237   5.236   7.974  13.078
 4567W        W76238  14.610  42.382   2.624
 4568W        W76239  18.352   9.678   0.740
 4569W        W76240   2.336  20.658   3.540
 4570W        W76241  38.011  16.489  11.060
 4571W        W76242   5.569  40.344  13.251
 4572W        W76243  41.865  39.588   2.963
 4573W        W76244   5.785   1.222  12.039
 4574W        W76245  12.083  39.741   3.884
 4575W        W76246   4.983  40.925  14.257
 4576W        W76247  44.294  28.004   3.702
 4577W        W76248  14.747   4.435   4.980
 4578W        W76249   8.327  10.292   4.117
 4579W        W76250  24.819  40.248   1.343
 4580W        W76251   8.815  21.635  12.058
 4581W        W76252   9.916   2.940  12.903
 4582W        W76253  28.135  31.324   1.478
 4583W        W76254  29.458   8.125  12.952
 4584W        W76255  26.070  11.863  12.680
 4585W        W76256  20.648  14.009   4.656
 4586W        W76257  40.329  15.155  13.926
 4587W        W76258  23.161   3.673   0.332
 4588W        W76259  28.278  41.914   9.868
 4589W        W76260  36.471  21.484   2.294
 4590W        W76261  26.896  18.746   3.652
 4591W        W76262  10.606  27.207  12.928
 4592W        W76263  28.978  32.764   2.113
 4593W        W76264  19.643  38.108  14.358
 4594W        W76265  28.529  16.864   0.596
 4595W        W76266  32.983  13.672  10.828
 4596W        W76267  27.481  21.187  12.512
 4597W        W76268  28.684  37.451   2.157
 4598W        W76269   6.446  21.082   2.295
 4599W        W76270  21.026  20.547  11.250
 4600W        W76271   5.507  19.185  11.120
 4601W        W76272  27.943  16.705  13.556
 4602W        W76273  26.103   1.743   2.401
 4603W        W76274  23.459  32.542  11.680
 4604W        W76275  20.502  18.933   0.990
 4605W        W76276  20.024  36.370   1.002
 4606W        W76277  43.487  14.044   4.469
 4607W        W76278   3.325  20.823   3.002
 4608W        W76279  24.007  13.508  14.718
 4609W        W76280  17.505  35.942  11.423
 4610W        W76281  35.755  19.691   3.185
 4611W        W76282  19.844  44.963   1.592
 4612W        W76283  19.096   8.400   2.837
 4613W        W76284  26.780  12.305  14.415
 4614W        W76285  39.932  21.685   1.833
 4615W        W76286   1.341  38.589   3.664
 4616W        W76287  26.098  35.751   2.872
 4617W        W76288  38.925   4.411   1.743
 4618W        W76289  15.403  21.597  13.697
 4619W        W76290   6.756  26.589  13.613
 4620W        W76291  11.240   3.951   1.931
 4621W        W76292  28.695  11.173  12.078
 4622W        W76293  31.170  34.026   3.659
 4623W        W76294  44.339  31.348  11.539
 4624W        W76295  44.957  13.758   4.776
 4625W        W76296  12.274  28.507   4.019
 4626W        W76297  33.487  39.465  11.642
 4627W        W76298  11.320   3.305   4.219
 4628W        W76299  22.064  34.880  12.475
 4629W        W76300  13.360  25.019   2.790
 4630W        W76301  31.143  20.304   4.111
 4631W        W76302  23.962   5.547   2.790
 4632W        W76303  37.429  12.581  10.807
 4633W        W76304   1.501  33.785  13.170
 4634W        W76305  34.957  32.666   3.307
 4635W        W76306  14.388  29.568  13.052
 4636W        W76307  29.472  17.768   0.167
 4637W        W76308  30.151  30.975   1.956
 4638W        W76309   3.431   7.315   1.183
 4639W        W76310   9.811   4.113  13.537
 4640W        W76311   2.487   6.859   2.438
 4641W        W76312  36.989   1.034   2.932
 4642W        W76313   7.145  11.594   1.460
 4643W        W76314  12.828  41.925   1.173
 4644W        W76315  14.432   3.784   3.578
 4645W        W76316  16.351  39.773  14.056
 4646W        W76317  14.202   2.907  14.375
 4647W        W76318   1.168  16.780   4.151
 4648W        W76319  18.643   3.818  14.460
 4649W        W76320  22.217  17.725  13.364
 4650W        W76321  21.810  43.955   0.945
 4651W        W76322  34.054  19.122  12.176
 4652W        W76323  20.749  28.116  12.595
 4653W        W76324  31.629  41.453   2.442
 4654W        W76325   7.791  16.767   5.033
 4655W        W76326  39.529  40.303   1.318
 4656W        W76327   3.145  25.534   3.810
 4657W        W76328  21.580   3.379   4.387
 4658W        W76329  16.216  12.799   4.574
 4659W        W76330  29.570  34.224  13.316
 4660W        W76331  27.724   1.874  11.940
 4661W        W76332  22.254  17.186   2.825
 4662W        W76333  10.149  39.975  13.357
 4663W        W76334  27.534  30.093   1.409
 4664W        W76335   0.779  40.471   3.532
 4665W        W76336   2.554  11.174  10.708
 4666W        W76337  44.335   9.191   0.021
 4667W        W76338  33.809  36.312  13.955
 4668W        W76339  27.715  39.746   2.388
 4669W        W76340  12.822  14.881   1.381
 4670W        W76341  27.482  32.343   1.190
 4671W        W76342  15.745   7.189  12.466
 4672W        W76343  40.351  11.011  10.720
 4673W        W76344  13.671  20.247  12.519
 4674W        W76345   9.338  30.617  10.760
 4675W        W76346   0.384  43.313   0.372
 4676W        W76347  18.270  16.346   0.765
 4677W        W76348  24.933  28.055  14.502
 4678W        W76349  24.231  39.871   3.099
 4679W        W76350   7.395  10.203   3.062
 4680W        W76351  10.701  31.495  13.985
 4681W        W76352  24.564  27.912   1.276
 4682W        W76353   8.124  41.371   2.833
 4683W        W76354   7.423  24.282   2.021
 4684W        W76355  33.672   6.707   0.704
 4685W        W76356  13.656   9.071   1.861
 4686W        W76357  22.384  18.985  13.097
 4687W        W76358  42.326   2.527   0.340
 4688W        W76359  16.484  27.718   3.806
 4689W        W76360  30.888   8.430  12.950
 4690W        W76361   4.298  23.767   4.123
 4691W        W76362  15.773  27.967  13.846
 4692W        W76363  21.524  29.063  12.564
 4693W        W76364   1.947  15.182   3.785
 4694W        W76365  36.870  32.537  13.212
 4695W        W76366  16.129  27.383  14.410
 4696W        W76367  14.798  20.110   0.384
 4697W        W76368   2.243  14.112   1.327
 4698W        W76369  34.511  17.034  10.929
 4699W        W76370  34.408   5.767  14.229
 4700W        W76371   4.490  28.314   4.618
 4701W        W76372  15.058  32.112  13.152
 4702W        W76373  40.360  16.215   2.793
 4703W        W76374  38.974  40.213   0.558
 4704W        W76375  23.080  32.201   2.265
 4705W        W76376   1.181  16.641   1.926
 4706W        W76377   4.524  40.741  12.911
 4707W        W76378   6.679  36.120  12.528
 4708W        W76379  28.363  17.020  13.816
 4709W        W76380   2.844  25.536   3.148
 4710W        W76381  41.895  34.844  14.535
 4711W        W76382  11.196  14.295  11.071
 4712W        W76383  11.220  17.255  14.062
 4713W        W76384  37.073  34.449  10.639
 4714W        W76385  40.150   7.543  14.534
 4715W        W76386  23.108   8.301  11.579
 4716W        W76387   4.438  29.406   4.129
 4717W        W76388  39.269  13.642  13.463
 4718W        W76389   8.169  29.659   3.881
 4719W        W76390  40.695  17.315   0.467
 4720W        W76391  27.688  19.104  12.578
 4721W        W76392   8.453  24.943   3.189
 4722W        W76393   6.114  26.105  10.734
 4723W        W76394  16.122  38.545   2.057
 4724W        W76395  27.407  41.304   4.216
 4725W        W76396   8.780   0.965  12.878
 4726W        W76397   1.231  17.637   1.764
 4727W        W76398   7.268  21.258  13.428
 4728W        W76399   0.383  16.526   0.790
 4729W        W76400  32.202  11.336   2.823
 4730W        W76401  29.954  14.907  12.971
 4731W        W76402  14.557  32.139  13.041
 4732W        W76403  16.525  18.245   0.341
 4733W        W76404   5.238   1.448   3.701
 4734W        W76405  11.767  20.595  12.038
 4735W        W76406  15.255  11.877   1.323
 4736W        W76407  12.803  19.134   4.591
 4737W        W76408  38.160   6.258  12.597
 4738W        W76409  36.365  42.018   1.491
 4739W        W76410   8.861   6.572  11.562
 4740W        W76411  34.724  30.956   4.106
 4741W        W76412  12.598  22.814   1.529
 4742W        W76413  37.496   4.038   4.884
 4743W        W76414  32.115  23.729  12.418
 4744W        W76415  17.284   7.488  14.795
 4745W        W76416  21.529   5.170  10.974
 4746W        W76417  40.638   3.120  11.564
 4747W        W76418  20.117   7.457   2.790
 4748W        W76419  36.097   6.254  11.439
 4749W        W76420   0.427  40.840   0.325
 4750W        W76421  32.362   6.214  13.289
 4751W        W76422  35.497  20.039  12.810
 4752W        W76423  19.021  33.896  14.814
 4753W        W76424  12.792  38.036  10.713
 4754W        W76425  29.797   8.668  10.187
 4755W        W76426   8.981  10.606   3.682
 4756W        W76427  19.559   0.011   4.654
 4757W        W76428  43.429  30.851   1.309
 4758W        W76429   9.143  18.211  11.140
 4759W        W76430  18.773  12.288   1.832
 4760W        W76431  35.304  25.654  12.560
 4761W        W76432  39.678  14.098   4.432
 4762W        W76433   0.807  32.037   0.406
 4763W        W76434  29.475  23.806  11.439
 4764W        W76435  29.127  37.692   1.929
 4765W        W76436  38.586  28.552  13.590
 4766W        W76437  23.935  19.526   2.277
 4767W        W76438   5.977   9.138  14.020
 4768W        W76439   2.919  33.638   0.740
 4769W        W76440  17.064   0.138   4.150
 4770W        W76441  28.608   5.134   0.288
 4771W        W76442  36.613   2.202  11.479
 4772W        W76443  25.598  18.803   1.956
 4773W        W76444  34.514  12.734  13.598
 4774W        W76445  22.203   1.800   4.864
 4775W        W76446   4.452   9.697   5.057
 4776W        W76447  36.438  25.501   2.461
 4777W        W76448   3.305  18.451  14.556
 4778W        W76449  39.122   0.821  11.112
 4779W        W76450   6.483  15.271   1.360
 4780W        W76451  23.219  43.020   3.671
 4781W        W76452   0.790   8.631  12.009
 4782W        W76453  15.540  18.622  12.074
 4783W        W76454  43.676  22.488   2.214
 4784W        W76455  41.112  18.670   4.136
 4785W        W76456  33.897  37.607   0.893
 4786W        W76457  28.708   9.392   4.942
 4787W        W76458  19.355  15.152  11.621
 4788W        W76459   6.876  12.298   2.346
 4789W        W76460  23.065  37.419  14.289
 4790W        W76461   8.339  33.164   4.605
 4791W        W76462  23.406   5.507   0.409
 4792W        W76463  16.668  43.055   1.791
 4793W        W76464  28.312  29.395   4.616
 4794W        W76465   3.496  36.874  12.467
 4795W        W76466  33.912  18.542   4.598
 4796W        W76467  32.597  13.065   0.403
 4797W        W76468  20.240   7.781   4.683
 4798W        W76469  36.324  32.146   0.493
 4799W        W76470  24.575  18.279  14.281
 4800W        W76471  27.003  41.620   1.699
 4801W        W76472  26.585  27.988   3.138
 4802W        W76473  34.953  20.629  13.512
 4803W        W76474  31.357   7.544  13.393
 4804W        W76475  11.935  39.152  13.371
 4805W        W76476  43.318  33.367   0.333
 4806W        W76477  26.141   3.054   2.752
 4807W        W76478  36.549  41.094   2.774
 4808W        W76479  31.422  26.492  11.593
 4809W        W76480  30.167  16.283  10.734
 4810W        W76481  10.930  31.537  14.451
 4811W        W76482  18.043  26.950   3.586
 4812W        W76483  29.643  23.791  10.584
 4813W        W76484  19.596   7.878  11.671
 4814W        W76485  44.909  14.067  10.456
 4815W        W76486  20.842  39.583  11.323
 4816W        W76487  24.608  39.535   4.382
 4817W        W76488  27.408   3.211   0.919
 4818W        W76489  22.089  26.981   4.062
 4819W        W76490  13.716   6.455   1.385
 4820W        W76491  12.387  12.712  11.134
 4821W        W76492  38.440  32.207  12.629
 4822W        W76493  28.412  44.353  13.279
 4823W        W76494  18.443  30.080  13.715
 4824W        W76495  37.363  41.337  10.783
 4825W        W76496   3.464   2.209   3.429
 4826W        W76497   7.824  16.831   0.012
 4827W        W76498  23.033   9.935   4.271
 4828W        W76499  20.373  13.068   4.992
 4829W        W76500  31.733   8.875  14.211
 4830W        W76501  12.450  12.736   4.569
 4831W        W76502  26.146  10.351   4.014
 4832W        W76503  30.915   4.940   2.813
 4833W        W76504  10.839  11.874  12.356
 4834W        W76505   8.588  16.575  11.595
 4835W        W76506   9.200  24.198   3.720
 4836W        W76507  16.673  27.508  11.856
 4837W        W76508  23.550  34.831   0.735
 4838W        W76509  34.358  13.618  11.460
 4839W        W76510  38.396   6.186  12.065
 4840W        W76511  44.030  40.303  13.061
 4841W        W76512  22.682   3.425   4.529
 4842W        W76513   0.024   6.062   3.288
 4843W        W76514  29.409  10.186  12.040
 4844W        W76515  16.878  10.980   3.846
 4845W        W76516  37.618  41.880   1.434
 4846W        W76517  15.754  36.246   0.810
 4847W        W76518   0.010   0.908  10.705
 4848W        W76519   8.134   1.232  13.974
 4849W        W76520  17.274   1.978  12.007
 4850W        W76521   0.849  38.775  10.297
 4851W        W76522  19.745  35.040   4.905
 4852W        W76523   4.019  33.147   4.789
 4853W        W76524  25.219  21.334  13.874
 4854W        W76525   4.203  32.630   2.858
 4855W        W76526  24.565  38.435  11.051
 4856W        W76527  16.177  17.323   4.168
 4857W        W76528  20.472   9.345   0.273
 4858W        W76529   5.691  11.197   1.291
 4859W        W76530   1.989  37.003   4.185
 4860W        W76531  22.901  12.256   4.293
 4861W        W76532   7.175  23.620   0.223
 4862W        W76533  25.745  12.230   1.928
 4863W        W76534  16.830  13.281  13.413
 4864W        W76535  28.831  33.830   4.248
 4865W        W76536  23.123  35.300  12.087
 4866W        W76537  15.098  21.817  13.356
 4867W        W76538  14.132  12.665  10.448
 4868W        W76539  34.914  36.990   4.958
 4869W        W76540  21.744  32.560  13.824
 4870W        W76541  15.360  12.752   3.829
 4871W        W76542  21.270   8.928   0.600
 4872W        W76543  38.869  36.299  14.287
 4873W        W76544  42.443   0.003   4.789
 4874W        W76545  18.509  12.355   1.310
 4875W        W76546   6.332   1.715   5.104
 4876W        W76547  29.421   2.869   1.811
 4877W        W76548   0.581  17.543  14.730
 4878W        W76549  22.314  44.879   0.818
 4879W        W76550   6.151  12.204  14.018
 4880W        W76551  20.221  28.032  14.474
 4881W        W76552  36.398   3.605  11.230
 4882W        W76553  28.654  23.871   1.012
 4883W        W76554  39.546  18.267   4.206
 4884W        W76555  32.189  29.951   4.223
 4885W        W76556   7.834  16.839  11.189
 4886W        W76557  39.492  18.373   1.934
 4887W        W76558  20.513  40.916   1.831
 4888W        W76559   6.467  36.965   1.265
 4889W        W76560  42.279  19.612  11.247
 4890W        W76561   0.381  29.066   2.442
 4891W        W76562  36.022  11.324   4.422
 4892W        W76563  40.746  24.770  11.184
 4893W        W76564  13.235   5.902  12.967
 4894W        W76565   6.801  22.382   0.478
 4895W        W76566  17.279  31.858   2.144
 4896W        W76567  30.840  34.693   3.375
 4897W        W76568  36.049  11.851  12.514
 4898W        W76569   6.546  28.571  10.628
 4899W        W76570  39.579  21.006  12.070
 4900W        W76571   4.623  26.092   0.283
 4901W        W76572  20.706   0.363   1.564
 4902W        W76573  16.634  26.625  11.777
 4903W        W76574  13.334   8.786  14.954
 4904W        W76575  10.371   9.602  12.526
 4905W        W76576  39.448  41.120  12.613
 4906W        W76577  22.397  39.525  13.844
 4907W        W76578  44.871  23.704   0.417
 4908W        W76579  27.946   2.208  14.417
 4909W        W76580  12.200  33.939  11.543
 4910W        W76581  44.213  33.846   2.227
 4911W        W76582   3.659  31.429  13.356
 4912W        W76583  10.372  13.553  14.896
 4913W        W76584  22.204  44.764   3.126
 4914W        W76585  28.149  37.581   0.149
 4915W        W76586  34.981  22.976  14.524
 4916W        W76587   3.811  17.376  13.445
 4917W        W76588  24.483  15.122  13.019
 4918W        W76589  16.342  12.209  13.014
 4919W        W76590  20.743  24.491  11.565
 4920W        W76591   0.847  18.641   3.582
 4921W        W76592  25.136  13.830   2.874
 4922W        W76593   6.915  41.739   2.815
 4923W        W76594   2.732  14.670   2.881
 4924W        W76595  43.880  24.145   3.284
 4925W        W76596  38.372   2.259   2.058
 4926W        W76597  24.699  15.680  11.442
 4927W        W76598  37.907  22.086   4.561
 4928W        W76599  41.207   0.749   4.202
 4929W        W76600  24.014   6.763  10.608
 4930W        W76601  43.923   0.694  12.412
 4931W        W76602  37.557  29.365   0.309
 4932W        W76603  15.888  18.969   2.473
 4933W        W76604  22.196  34.699   0.648
 4934W        W76605  34.322  12.239   3.750
 4935W        W76606  36.870   1.464   3.794
 4936W        W76607  25.711  19.442  13.491
 4937W        W76608  27.088  11.447   3.735
 4938W        W76609  17.774  41.364   4.702
 4939W        W76610  26.052   3.395  14.259
 4940W        W76611   2.458  20.944   0.355
 4941W        W76612  17.785  13.691   0.872
 4942W        W76613  43.997  34.841   2.759
 4943W        W76614  20.202   4.373   1.377
 4944W        W76615  29.513   4.682   0.396
 4945W        W76616  20.528  14.155  10.701
 4946W        W76617  11.891  23.561   1.876
 4947W        W76618  28.702  18.693  11.965
 4948W        W76619  33.553   6.438   1.227
 4949W        W76620  36.111  35.844  13.444
 4950W        W76621  28.540   6.938  11.519
 4951W        W76622  30.161   6.305   0.820
 4952W        W76623  20.857  14.579   0.853
 4953W        W76624   9.838  14.056   4.312
 4954W        W76625   3.276  36.380   2.322
 4955W        W76626   3.431   1.985  14.496
 4956W        W76627  33.534  26.588   2.832
 4957W        W76628  40.961  41.406  13.619
 4958W        W76629  37.964  22.598  11.421
 4959W        W76630   5.278   7.026   1.771
 4960W        W76631  40.422  38.383  13.980
 4961W        W76632  33.291  13.733   2.003
 4962W        W76633  22.214  22.090   0.873
 4963W        W76634   5.714  43.825   3.347
 4964W        W76635  21.190   1.293  12.914
 4965W        W76636  32.505  30.416   4.618
 4966W        W76637   8.115  44.358   3.726
 4967W        W76638  29.112  14.688  14.571
 4968W        W76639   6.623   2.701  10.711
 4969W        W76640  40.606  27.056   3.308
 4970W        W76641  44.448  15.870  10.568
 4971W        W76642  33.625  11.348   2.180
 4972W        W76643  36.202  37.892  14.903
 4973W        W76644   6.152  20.105  11.120
 4974W        W76645  14.088  34.030  10.660
 4975W        W76646  16.448  21.106   4.171
 4976W        W76647  34.934   9.400  12.529
 4977W        W76648  30.513  12.610  14.393
 4978W        W76649  33.140  31.072   1.405
 4979W        W76650  17.293  26.590   4.556
 4980W        W76651  30.217  18.762   0.096
 4981W        W76652  14.176  17.065  14.342
 4982W        W76653   7.748  44.338  12.108
 4983W        W76654  40.123  16.773   4.895
 4984W        W76655  41.335  17.275  13.319
 4985W        W76656   2.502  35.383   1.014
 4986W        W76657  17.407   0.827  11.849
 4987W        W76658  17.761  40.974  13.876
 4988W        W76659  12.507  39.433  13.065
 4989W        W76660  30.021  38.088   1.443
 4990W        W76661   5.718   2.258   1.422
 4991W        W76662   4.977  34.076   2.936
 4992W        W76663  22.141  38.098  14.815
 4993W        W76664  18.484  16.777  12.018
 4994W        W76665  12.364  15.561   2.086
 4995W        W76666  28.168  10.100   4.994
 4996W        W76667   6.759  32.540  13.958
 4997W        W76668  38.444  36.303  14.980
 4998W        W76669  28.014  25.678  14.046
 4999W        W76670  40.771   4.647  10.830
 5000W        W76671  39.244  30.303   3.017
 5001W        W76672  25.116  44.741   3.267
 5002W        W76673  22.316  42.613   3.523
 5003W        W76674   1.641  27.216  13.878
 5004W        W76675   9.867  33.713   2.829
 5005W        W76676   0.729  43.341  12.184
 5006W        W76677  18.876  36.434  13.507
 5007W        W76678  32.175  34.113   3.976
 5008W        W76679  30.863  43.314   4.106
 5009W        W76680  28.424   9.673  13.390
 5010W        W76681  22.643  15.274  13.000
 5011W        W76682  43.287  29.908   3.684
 5012W        W76683  30.473   9.237   4.477
 5013W        W76684  31.226  19.032   0.934
 5014W        W76685  40.387   9.197  12.345
 5015W        W76686   9.736  43.207   2.295
 5016W        W76687  31.302  15.624  13.473
 5017W        W76688  35.590   1.437  12.929
 5018W        W76689  40.340   5.248  14.987
 5019W        W76690  32.610  16.785   4.064
 5020W        W76691  24.411  14.139  11.008
 5021W        W76692  31.217  27.046  13.399
 5022W        W76693  24.155  41.992   0.804
 5023W        W76694  21.376  18.077  13.314
 5024W        W76695  27.763  23.731   0.807
 5025W        W76696  20.823  11.554  13.793
 5026W        W76697  40.238  23.725  11.994
 5027W        W76698   0.651  24.475   2.120
 5028W        W76699  16.233  31.610   2.302
 5029W        W76700  12.440   8.452   1.646
 5030W        W76701  28.101  23.136  13.781
 5031W        W76702  28.488  22.484   4.176
 5032W        W76703  42.075   9.807  12.397
 5033W        W76704   1.135  20.908   3.214
 5034W        W76705  20.294   5.306  10.648
 5035W        W76706  26.479  24.931  13.970
 5036W        W76707  42.398  17.532  12.719
 5037W        W76708   7.239  34.435   1.479
 5038W        W76709   2.622  27.075  11.777
 5039W        W76710  13.523   8.429  12.421
 5040W        W76711  15.489  25.250  10.985
 5041W        W76712  32.462  40.825  11.591
 5042W        W76713  16.331  36.886   4.221
 5043W        W76714  22.289  38.326  14.355
 5044W        W76715  41.911  33.431  11.629
 5045W        W76716  33.050  32.407   1.833
 5046W        W76717  40.862   1.488  12.243
 5047W        W76718   0.961  11.729   3.692
 5048W        W76719  13.694  10.110   1.102
 5049W        W76720  37.466  11.500  12.452
 5050W        W76721   7.169   9.041   1.414
 5051W        W76722  13.625  15.174   3.324
 5052W        W76723  20.949  24.614   0.487
 5053W        W76724  18.665  24.442  12.744
 5054W        W76725  44.759  13.589   0.004
 5055W        W76726  12.594  10.735   2.675
 5056W        W76727  33.575  41.976   4.080
 5057W        W76728  27.109  13.110  14.861
 5058W        W76729  11.122  22.448  12.007
 5059W        W76730  41.260  22.432  10.757
 5060W        W76731  14.025   3.819   3.920
 5061W        W76732  15.198  23.697  11.927
 5062W        W76733  38.229  21.704   2.026
 5063W        W76734   3.926  19.223   0.426
 5064W        W76735  23.209  35.910  14.352
 5065W        W76736  29.752  28.961  11.658
 5066W        W76737  12.224   8.741   1.272
 5067W        W76738  12.211  20.231  14.790
 5068W        W76739  43.792  35.556  14.992
 5069W        W76740  29.078  25.967   3.618
 5070W        W76741  33.836  35.869   1.826
 5071W        W76742  15.222  30.169  13.640
 5072W        W76743  40.795  34.589  14.045
 5073W        W76744  17.173  13.847  14.716
 5074W        W76745   5.463  12.610   2.775
 5075W        W76746  20.211  10.581   4.185
 5076W        W76747  39.854  16.159   0.839
 5077W        W76748  34.936  13.074   0.718
 5078W        W76749   1.637  12.867  11.097
 5079W        W76750  40.449  18.046  13.114
 5080W        W76751   2.363  26.164  12.145
 5081W        W76752  18.292  44.019  14.030
 5082W        W76753  13.708  43.402   0.506
 5083W        W76754  28.212  28.488   1.250
 5084W        W76755  36.865  19.676   1.907
 5085W        W76756  18.110  21.607  14.250
 5086W        W76757  23.175  36.305  12.066
 5087W        W76758  17.324  19.455   3.265
 5088W        W76759  12.978  30.766   0.420
 5089W        W76760   8.884   4.198   1.895
 5090W        W76761  39.073   5.500   4.832
 5091W        W76762   7.853  36.073  11.111
 5092W        W76763  44.087  15.788   4.974
 5093W        W76764  44.253  26.058  14.029
 5094W        W76765  22.668  13.844  11.173
 5095W        W76766  21.475  11.339  12.444
 5096W        W76767  44.962  40.919   1.278
 5097W        W76768  13.479  44.854  10.989
 5098W        W76769  39.597  30.150   0.288
 5099W        W76770   5.848   0.886   3.224
 5100W        W76771  28.411  35.703  10.721
 5101W        W76772  26.248   8.053   1.739
 5102W        W76773  21.616  20.859  12.389
 5103W        W76774  40.400  18.318   0.346
 5104W        W76775  40.972  12.210   4.296
 5105W        W76776  36.878  23.464  14.944
 5106W        W76777  18.018  24.690   5.167
 5107W        W76778   9.867  25.392   4.531
 5108W        W76779   1.094  44.977   1.423
 5109W        W76780  16.576   8.296  10.646
 5110W        W76781  44.480  34.719  10.322
 5111W        W76782   1.417  39.972   3.741
 5112W        W76783  37.940  18.314  11.519
 5113W        W76784  39.750  26.722  14.072
 5114W        W76785  27.532  31.388  13.592
 5115W        W76786   8.858  22.047  14.937
 5116W        W76787  18.507  39.526  11.473
 5117W        W76788  44.893  28.128  11.505
 5118W        W76789  40.648  38.943  13.119
 5119W        W76790  23.275  20.822   2.345
 5120W        W76791  32.540   0.553   4.612
 5121W        W76792  42.214  28.257   2.741
 5122W        W76793   9.283  15.741  12.455
 5123W        W76794   3.165  24.446   5.022
 5124W        W76795  15.469   7.644  12.420
 5125W        W76796  10.555   1.185  11.889
 5126W        W76797  14.256  20.714   1.953
 5127W        W76798  14.836  17.274  13.340
 5128W        W76799  27.261  35.908  14.552
 5129W        W76800  30.199  12.703  14.775
 5130W        W76801  22.184  15.533  12.921
 5131W        W76802  23.144  17.187  11.868
 5132W        W76803  19.722  31.384   3.360
 5133W        W76804  30.354  32.436  11.166
 5134W        W76805   9.561   6.769   3.237
 5135W        W76806   7.820  31.757  13.433
 5136W        W76807  22.282  25.679  12.130
 5137W        W76808  41.388   8.309  12.543
 5138W        W76809  38.997  35.266   3.877
 5139W        W76810  12.257  26.151   3.108
 5140W        W76811  23.916  42.875  13.975
 5141W        W76812  24.439  23.212   0.824
 5142W        W76813  35.048   0.870   1.029
 5143W        W76814  38.711  27.873   1.328
 5144W        W76815  18.711  34.723  14.361
 5145W        W76816  42.032   9.316  11.584
 5146W        W76817  44.001  28.255   3.186
 5147W        W76818  21.023   9.225  13.790
 5148W        W76819  23.353   9.598   4.497
 5149W        W76820  21.446  38.517   0.970
 5150W        W76821  14.568  15.164   3.970
 5151W        W76822  27.603   4.760   0.831
 5152W        W76823  15.606  40.798   4.023
 5153W        W76824  24.159  39.463   2.797
 5154W        W76825  21.773   9.467   2.529
 5155W        W76826  22.764  32.032   1.910
 5156W        W76827  16.169  16.332   0.360
 5157W        W76828   4.862  22.570   4.155
 5158W        W76829  34.016  39.033   2.390
 5159W        W76830  32.550  40.242   3.339
 5160W        W76831  29.104   0.428   3.207
 5161W        W76832   3.573  17.788  11.502
 5162W        W76833  32.871   8.746  11.221
 5163W        W76834  41.738  16.116   3.311
 5164W        W76835  19.237  15.200   1.417
 5165W        W76836  20.140  30.404   1.248
 5166W        W76837  44.891  19.966   2.856
 5167W        W76838  35.724  20.630  12.410
 5168W        W76839  34.886  19.058  11.543
 5169W        W76840  10.303  23.107   2.986
 5170W        W76841  18.980   4.653  10.414
 5171W        W76842  12.380   7.116  13.204
 5172W        W76843   0.634   1.547   0.690
 5173W        W76844  33.929  11.381  11.177
 5174W        W76845  33.516  31.103  14.093
 5175W        W76846   5.723  16.369  14.306
 5176W        W76847  41.770  28.928  11.976
 5177W        W76848  41.763   3.239   3.059
 5178W        W76849  39.768   2.908   4.102
 5179W        W76850  12.636  11.885   0.443
 5180W        W76851  14.786  38.564   4.729
 5181W        W76852  12.273  44.277   1.702
 5182W        W76853  19.068   2.407  14.585
 5183W        W76854  34.886  38.579   9.717
 5184W        W76855  21.641  15.503   1.680
 5185W        W76856  40.513  16.828   0.727
 5186W        W76857  28.112  27.024   4.262
 5187W        W76858   3.267  21.545   1.937
 5188W        W76859  24.602  41.604   0.233
 5189W        W76860  11.081  33.647  12.983
 5190W        W76861  14.702  26.206  14.488
 5191W        W76862  18.658  12.557  12.410
 5192W        W76863  15.670  19.722  14.444
 5193W        W76864   9.880  39.973   4.138
 5194W        W76865  41.726  38.473  12.112
 5195W        W76866  10.847  31.961  12.293
 5196W        W76867  31.551  10.592  10.966
 5197W        W76868  39.639  15.874  14.244
 5198W        W76869  11.130   0.482  12.995
 5199W        W76870   8.845   8.913   1.062
 5200W        W76871  12.932  22.442   2.938
 5201W        W76872  33.936  33.546   0.273
 5202W        W76873  30.089  26.073  12.137
 5203W        W76874   6.325  32.707  10.662
 5204W        W76875  22.590  16.535   1.403
 5205W        W76876   5.046   3.668  13.517
 5206W        W76877  38.885  29.958   3.745
 5207W        W76878   2.142  21.047   3.177
 5208W        W76879  15.771  24.021   1.334
 5209W        W76880  14.293  13.706  11.715
 5210W        W76881   7.938  24.937  14.028
 5211W        W76882  33.604  36.293   4.245
 5212W        W76883  26.918  35.765   1.368
 5213W        W76884   3.847  17.830   3.631
 5214W        W76885  42.572  43.351  13.147
 5215W        W76886  27.699  31.616   2.436
 5216W        W76887  12.239  32.507   4.811
 5217W        W76888  19.624  22.850  12.986
 5218W        W76889  44.036  13.145   9.947
 5219W        W76890   9.678  21.315  13.553
 5220W        W76891  10.703  38.584  14.016
 5221W        W76892  20.960   4.997  14.793
 5222W        W76893   6.240  33.659  12.481
 5223W        W76894  10.286   7.141  12.261
 5224W        W76895  26.121   3.300   2.278
 5225W        W76896   0.827  12.196  11.109
 5226W        W76897  16.180  10.211   3.832
 5227W        W76898  33.052  19.154   3.668
 5228W        W76899  29.739  40.526  11.981
 5229W        W76900  35.962  14.818   2.311
 5230W        W76901  44.237   1.153  12.443
 5231W        W76902  16.191   7.189   3.364
 5232W        W76903   3.721   2.089   5.366
 5233W        W76904  40.052  21.797   2.681
 5234W        W76905   3.993   7.780   2.788
 5235W        W76906  29.876   5.460  10.872
 5236W        W76907  13.390  34.907   1.678
 5237W        W76908  21.731  18.801  12.229
 5238W        W76909  25.764  32.052  10.332
 5239W        W76910  19.506   4.274  11.040
 5240W        W76911  14.174  35.869  11.953
 5241W        W76912  33.299  35.357   0.675
 5242W        W76913  34.548  19.985   0.305
 5243W        W76914  13.899  11.095  13.827
 5244W        W76915  38.774   3.873  12.872
 5245W        W76916   2.339  39.377   1.865
 5246W        W76917  10.121  31.087  11.487
 5247W        W76918  42.607  35.530   2.026
 5248W        W76919  39.763   8.314   2.218
 5249W        W76920  17.767  41.529   0.614
 5250W        W76921  33.994  32.602  11.040
 5251W        W76922  16.703  41.930   1.905
 5252W        W76923  34.928  10.640   3.709
 5253W        W76924  40.021  17.948   0.430
 5254W        W76925  35.339  17.130  10.531
 5255W        W76926   6.126   3.719   4.671
 5256W        W76927  15.813  36.586  12.992
 5257W        W76928  30.232   4.718  14.923
 5258W        W76929  44.623  12.897  12.895
 5259W        W76930  12.887  43.795   4.057
 5260W        W76931  10.009   9.264   4.131
 5261W        W76932  31.149   2.895   1.209
 5262W        W76933  25.282  41.415   3.284
 5263W        W76934  27.836   0.672  11.131
 5264W        W76935   6.181  36.322  11.512
 5265W        W76936   5.991  12.706  12.924
 5266W        W76937  11.927  18.591  13.542
 5267W        W76938  31.498  43.711  11.587
 5268W        W76939   1.898  23.649   1.445
 5269W        W76940  22.253  39.532   3.686
 5270W        W76941   6.302   6.384  12.973
 5271W        W76942  28.059   6.919  13.589
 5272W        W76943  14.587  28.681  14.442
 5273W        W76944  21.937  44.944  11.425
 5274W        W76945  30.901   7.197  12.577
 5275W        W76946  20.428  21.957  13.489
 5276W        W76947  17.981  44.455  12.429
 5277W        W76948   0.062  37.951   0.541
 5278W        W76949   2.330  31.129   4.547
 5279W        W76950  20.256   9.707  13.766
 5280W        W76951   5.645  37.903   2.322
 5281W        W76952  29.634  28.370   0.432
 5282W        W76953  15.176  42.428  12.097
 5283W        W76954  28.967  29.185   2.807
 5284W        W76955  18.613  11.879   4.736
 5285W        W76956  20.628   1.925  12.524
 5286W        W76957  37.482  44.589   3.137
 5287W        W76958  14.520  27.488  13.529
 5288W        W76959  40.005  28.418   3.588
 5289W        W76960  38.323  25.147   1.791
 5290W        W76961  22.764   0.711  12.075
 5291W        W76962  44.684  14.984   3.715
 5292W        W76963   0.494  14.901   4.173
 5293W        W76964  23.951  33.438  13.973
 5294W        W76965  26.037  27.152   2.711
 5295W        W76966  44.894  22.037   4.277
 5296W        W76967   1.734   5.473  13.356
 5297W        W76968  42.232  10.331   2.692
 5298W        W76969  29.453  24.519   0.786
 5299W        W76970   8.364   4.233   1.858
 5300W        W76971   9.923  41.765   0.818
 5301W        W76972   2.845  27.576  12.536
 5302W        W76973  28.641  18.259   1.385
 5303W        W76974   1.202  43.431  14.984
 5304W        W76975  11.172   6.762   1.099
 5305W        W76976  42.028  36.396  11.984
 5306W        W76977  35.677  33.494  10.963
 5307W        W76978  26.645  20.949  11.054
 5308W        W76979  18.515  29.663  11.107
 5309W        W76980  27.758  28.409   1.020
 5310W        W76981   8.067  12.528   3.102
 5311W        W76982  11.731  37.701  10.654
 5312W        W76983  21.565  27.917  11.001
 5313W        W76984  14.297  18.299  14.058
 5314W        W76985  17.743  21.301  11.707
 5315W        W76986  43.630  19.870   0.497
 5316W        W76987   2.318  32.065  10.583
 5317W        W76988  17.781  30.479   4.127
 5318W        W76989  27.695  14.275  10.811
 5319W        W76990  42.482  14.857  11.110
 5320W        W76991  27.737  44.871  13.525
 5321W        W76992  28.532  30.545   4.547
 5322W        W76993  13.793  13.908   2.297
 5323W        W76994  28.298  31.467   3.997
 5324W        W76995  12.060  31.537  11.571
 5325W        W76996  41.292  27.473   2.570
 5326W        W76997  11.873  38.108   1.393
 5327W        W76998   6.483   8.207   0.466
 5328W        W76999  44.775   9.808   2.355
 5329W        W77000  43.046  21.806  11.132
 5330W        W77001  13.586   3.470  14.002
 5331W        W77002  41.465  19.530   3.897
 5332W        W77003  33.398   5.177   2.836
 5333W        W77004  22.654  23.762  11.037
 5334W        W77005  37.061  22.735  11.576
 5335W        W77006   4.457   5.499  12.489
 5336W        W77007  34.303   8.481  11.246
 5337W        W77008  44.773  41.123   4.513
 5338W        W77009  16.073  40.904  13.396
 5339W        W77010   8.311  25.429   2.204
 5340W        W77011  39.251  26.285   4.243
 5341W        W77012  28.126  34.115  14.494
 5342W        W77013  36.763  21.552   0.304
 5343W        W77014   9.540   7.818   3.630
 5344W        W77015  28.023  13.335   3.346
 5345W        W77016  42.373  30.955   0.786
 5346W        W77017  43.740  22.750   1.778
 5347W        W77018  27.504  32.848  14.376
 5348W        W77019  25.100  14.597   3.657
 5349W        W77020   7.537  38.497  10.929
 5350W        W77021  14.016   7.647   4.156
 5351W        W77022   9.342  36.936   1.336
 5352W        W77023  20.578  20.780   2.240
 5353W        W77024  20.152   1.909   4.056
 5354W        W77025  14.398  36.460   1.026
 5355W        W77026  22.593  31.601   1.657
 5356W        W77027  44.757  41.155  10.597
 5357W        W77028  23.429  18.653   3.112
 5358W        W77029  26.106  15.633   2.164
 5359W        W77030   1.864  44.967   2.897
 5360W        W77031   6.973   3.578  12.713
 5361W        W77032  20.055   6.729   3.192
 5362W        W77033   5.560  43.370   4.185
 5363W        W77034  33.541  14.882  13.448
 5364W        W77035   6.318  17.189  12.661
 5365W        W77036   7.618  24.941   1.177
 5366W        W77037  21.986  23.556   3.192
 5367W        W77038  25.241  23.754   3.199
 5368W        W77039  20.166  34.632   3.005
 5369W        W77040  41.987   6.324   0.835
 5370W        W77041   4.166  34.143  11.878
 5371W        W77042   7.778  43.023  12.990
 5372W        W77043  20.800   4.353  11.670
 5373W        W77044  33.353   7.073   9.878
 5374W        W77045   1.780  19.353   4.539
 5375W        W77046  20.595  35.847  10.509
 5376W        W77047  19.254  27.637   2.611
 5377W        W77048   4.878  43.959   1.191
 5378W        W77049  12.675  35.250   4.542
 5379W        W77050   2.563  36.332   0.646
 5380W        W77051  16.542   3.927   4.157
 5381W        W77052  38.091  25.863  13.890
 5382W        W77053   8.349  36.827   4.654
 5383W        W77054  35.448  43.828   1.401
 5384W        W77055  35.488  35.411  10.415
 5385W        W77056  23.426  28.954  13.415
 5386W        W77057  19.129   3.198  11.530
 5387W        W77058  31.625   0.760   2.079
 5388W        W77059   6.600  21.769   1.766
 5389W        W77060  44.309  28.164  13.588
 5390W        W77061  30.040  27.977   3.318
 5391W        W77062   8.672  19.335  12.415
 5392W        W77063  11.703  35.288  11.107
 5393W        W77064   8.022  31.847  12.938
 5394W        W77065  17.691   3.354   3.865
 5395W        W77066  13.107  42.753  14.337
 5396W        W77067  44.353  23.648   3.029
 5397W        W77068  41.368   2.923  11.997
 5398W        W77069  29.036  42.022  14.987
 5399W        W77070  28.990  40.604  14.803
 5400W        W77071  19.610  39.007   3.248
 5401W        W77072  38.368  31.573   0.002
 5402W        W77073   5.459  30.470  11.603
 5403W        W77074  25.374   5.380  11.660
 5404W        W77075   4.878  37.972   1.911
 5405W        W77076  34.368  24.965  12.021
 5406W        W77077  14.532  14.149  12.032
 5407W        W77078  44.477   3.860   1.076
 5408W        W77079  16.199  20.706   3.201
 5409W        W77080  41.920  20.047   2.973
 5410W        W77081  13.735  17.750  14.037
 5411W        W77082  25.126   0.552  13.617
 5412W        W77083  11.820   5.024  10.813
 5413W        W77084   4.749   8.011  10.698
 5414W        W77085  41.049  32.478   1.376
 5415W        W77086   6.969  19.034   1.474
 5416W        W77087  10.696  31.759  11.514
 5417W        W77088  23.568  25.728  14.525
 5418W        W77089  44.485  20.148  14.977
 5419W        W77090  28.234   7.749   4.464
 5420W        W77091  22.554  36.008   3.158
 5421W        W77092  32.628  14.602  12.648
 5422W        W77093  40.788   4.472   4.669
 5423W        W77094  38.499   4.438   3.323
 5424W        W77095  42.356  15.545   2.309
 5425W        W77096   4.486  22.085  12.860
 5426W        W77097  22.760  37.054  13.873
 5427W        W77098  13.850  25.867  12.149
 5428W        W77099  44.291  19.260   4.232
 5429W        W77100  23.433  31.598  11.551
 5430W        W77101   8.215   7.884   0.878
 5431W        W77102  23.899   7.666   3.782
 5432W        W77103   8.148  41.035   4.550
 5433W        W77104  25.478  10.281  14.838
 5434W        W77105   8.421  18.868  13.081
 5435W        W77106  22.626  35.421   2.349
 5436W        W77107  10.515   1.092  14.049
 5437W        W77108  19.345  12.454   0.893
 5438W        W77109  16.283   8.822  11.608
 5439W        W77110  13.468  44.221   2.343
 5440W        W77111  21.544  36.260  13.790
 5441W        W77112  29.645  43.878   4.899
 5442W        W77113  25.619  33.413   3.688
 5443W        W77114  27.568  13.196  10.381
 5444W        W77115  15.856  27.945   4.698
 5445W        W77116  18.712  19.305  14.402
 5446W        W77117   2.202  17.113  13.438
 5447W        W77118  22.689  15.321   3.197
 5448W        W77119   4.421  15.041   3.164
 5449W        W77120  41.073  22.687  11.991
 5450W        W77121   2.844   0.229   1.798
 5451W        W77122   0.240  15.801  11.839
 5452W        W77123  22.052   0.434   3.336
 5453W        W77124   7.434  42.906  14.939
 5454W        W77125   5.267  11.621  14.748
 5455W        W77126  29.214  32.145  12.408
 5456W        W77127  26.909  17.648   0.349
 5457W        W77128  38.001  41.136   4.609
 5458W        W77129  33.630  22.208  13.024
 5459W        W77130   5.727   3.232  11.867
 5460W        W77131  28.435  16.013  11.375
 5461W        W77132  39.545  35.485  10.677
 5462W        W77133  29.509  20.320  13.385
 5463W        W77134  24.437  35.363  14.846
 5464W        W77135   3.524  28.633  12.934
 5465W        W77136   4.661  13.680   0.362
 5466W        W77137  26.213  30.981   0.604
 5467W        W77138  39.526  38.808  12.097
 5468W        W77139  35.819  28.591  10.692
 5469W        W77140  41.369  24.944  13.339
 5470W        W77141  41.371  23.500   0.332
 5471W        W77142  33.483  10.838  10.296
 5472W        W77143  16.534   9.225   4.234
 5473W        W77144   9.719   8.459   4.530
 5474W        W77145   2.499  40.447  13.768
 5475W        W77146  39.371   8.815   3.526
 5476W        W77147  31.660  43.891   1.348
 5477W        W77148  10.742  29.650   3.427
 5478W        W77149  44.807   7.586  11.497
 5479W        W77150  10.224   4.123  12.097
 5480W        W77151   6.929  30.974   1.078
 5481W        W77152  24.963   4.807  12.960
 5482W        W77153  16.205  11.262  14.890
 5483W        W77154   2.290  17.833   1.385
 5484W        W77155  30.081  43.331  10.576
 5485W        W77156  41.408  41.720   0.261
 5486W        W77157  13.172   1.427  11.667
 5487W        W77158  42.896  29.870   4.272
 5488W        W77159   7.483  24.420   0.701
 5489W        W77160  44.404   7.236  13.029
 5490W        W77161  17.206  10.153  10.670
 5491W        W77162  42.200  17.333   0.053
 5492W        W77163   7.803  27.952   4.806
 5493W        W77164   7.947   1.561  12.064
 5494W        W77165  24.222  22.460   2.751
 5495W        W77166  43.222  11.096   9.886
 5496W        W77167  16.714   7.292  14.862
 5497W        W77168  25.078  21.035   1.916
 5498W        W77169  12.895  19.449   4.987
 5499W        W77170  34.094  19.112  14.832
 5500W        W77171  43.785  11.309  13.359
 5501W        W77172  15.954  42.825  12.465
 5502W        W77173  42.210  43.758  14.891
 5503W        W77174  33.450  12.099   2.618
 5504W        W77175  39.245   4.843  12.172
 5505W        W77176  33.309  21.496   9.942
 5506W        W77177  21.594  36.552  12.871
 5507W        W77178  38.887  24.848   2.254
 5508W        W77179  18.773  13.878   0.627
 5509W        W77180  23.106  27.457   4.330
 5510W        W77181   6.498  15.118  13.321
 5511W        W77182  36.519  15.799  10.918
 5512W        W77183  44.484  35.381   4.598
 5513W        W77184  29.981  23.283  13.506
 5514W        W77185   6.971  13.071  14.721
 5515W        W77186  29.365   1.807   0.257
 5516W        W77187   4.733  14.997   2.750
 5517W        W77188  39.187   1.982  14.762
 5518W        W77189   2.742  17.573   0.309
 5519W        W77190  23.986  31.285  11.899
 5520W        W77191  23.773   7.811  10.717
 5521W        W77192   4.902  13.627  11.509
 5522W        W77193  38.059  39.109   4.623
 5523W        W77194  27.672  21.966   0.874
 5524W        W77195  43.322  37.763  12.114
 5525W        W77196  28.936   4.659   3.135
 5526W        W77197  23.479  44.697  13.592
 5527W        W77198  27.160   6.406  12.366
 5528W        W77199   6.133   3.941  10.794
 5529W        W77200  37.066  37.862   0.439
 5530W        W77201  36.033  19.268   1.883
 5531W        W77202  20.941  37.495  11.254
 5532W        W77203  22.625   0.283  13.579
 5533W        W77204   7.691  11.554   0.790
 5534W        W77205  17.753  33.929   4.560
 5535W        W77206  13.287  30.827   4.536
 5536W        W77207  44.573   7.397  10.266
 5537W        W77208  44.388  16.767   0.660
 5538W        W77209  15.946  13.442  12.514
 5539W        W77210  12.878   5.378   4.396
 5540W        W77211  15.761  32.893  11.953
 5541W        W77212   3.714  10.162  13.975
 5542W        W77213   2.968  10.406  11.711
 5543W        W77214  44.599   4.995  12.860
 5544W        W77215  25.750  24.668  11.136
 5545W        W77216  40.509  25.247  13.128
 5546W        W77217   6.551  40.385  14.996
 5547W        W77218   5.777   0.443  10.459
 5548W        W77219   2.887  39.246   3.325
 5549W        W77220  29.423  44.770  11.216
 5550W        W77221  32.997  44.515   0.684
 5551W        W77222  15.872  32.663   1.893
 5552W        W77223  30.828  39.029  11.479
 5553W        W77224  19.489  36.445   0.919
 5554W        W77225  22.289  41.933   0.962
 5555W        W77226  44.033  26.039  12.110
 5556W        W77227   8.632  44.032   4.261
 5557W        W77228  41.755  13.104   5.077
 5558W        W77229  26.606   2.722  10.628
 5559W        W77230   5.699  31.536   3.629
 5560W        W77231  31.100  28.035   1.687
 5561W        W77232   9.194  27.739   2.832
 5562W        W77233  16.369  25.013   4.745
 5563W        W77234   6.814  33.366  11.732
 5564W        W77235  14.085  20.998  13.527
 5565W        W77236  26.713  23.013   3.649
 5566W        W77237  20.693  39.898  13.902
 5567W        W77238  23.146   8.164   1.947
 5568W        W77239  16.597  44.657   0.388
 5569W        W77240   8.141  17.229  11.071
 5570W        W77241  33.556   3.748   3.766
 5571W        W77242  23.724  37.056   1.362
 5572W        W77243   1.539  18.256  11.936
 5573W        W77244  39.855  28.279   0.513
 5574W        W77245  41.428  19.477   4.414
 5575W        W77246   3.835   8.326  12.789
 5576W        W77247  23.105  33.287  12.108
 5577W        W77248  28.378  18.093   3.350
 5578W        W77249  35.970  25.655  12.075
 5579W        W77250   7.795  29.340   3.670
 5580W        W77251   7.604  35.553   0.637
 5581W        W77252  20.005   7.651  13.289
 5582W        W77253  25.441  44.564  12.632
 5583W        W77254  23.959  38.486   0.407
 5584W        W77255  37.633  32.626   0.753
 5585W        W77256  37.871  14.882  14.460
 5586W        W77257   5.384  32.988   3.378
 5587W        W77258   6.193  34.609  12.597
 5588W        W77259  20.770  23.520   4.687
 5589W        W77260  14.947  19.787  13.447
 5590W        W77261  35.844  31.870   0.416
 5591W        W77262   4.776  32.915   0.402
 5592W        W77263  15.763  29.259   3.557
 5593W        W77264  21.046  43.930   3.144
 5594W        W77265  26.079  32.445  10.470
 5595W        W77266   8.188  27.206   3.527
 5596W        W77267  42.922  36.594   2.110
 5597W        W77268  23.998   5.317   2.310
 5598W        W77269  10.083  36.515  14.253
 5599W        W77270  33.474  12.022  11.601
 5600W        W77271   2.697   0.357  12.612
 5601W        W77272  10.235  30.482   4.187
 5602W        W77273  25.077  12.250  13.940
 5603W        W77274  14.057  21.590   4.646
 5604W        W77275   0.253  15.405   0.780
 5605W        W77276  24.416  37.180  10.791
 5606W        W77277  19.937   1.870  11.849
 5607W        W77278  11.965  17.836  14.309
 5608W        W77279  31.435  41.276   3.959
 5609W        W77280   4.904  38.080  12.966
 5610W        W77281   8.306  13.782   0.776
 5611W        W77282   3.752  43.454  12.609
 5612W        W77283  22.284  19.062  10.594
 5613W        W77284  41.755  27.124  13.311
 5614W        W77285   0.787  14.101  13.802
 5615W        W77286   1.372  40.013   1.463
 5616W        W77287  25.206  25.383   1.332
 5617W        W77288  19.042   4.791   2.394
 5618W        W77289  35.327  36.655   0.291
 5619W        W77290   1.529  31.433  12.353
 5620W        W77291   5.726  34.850   2.214
 5621W        W77292  11.353  37.849   4.672
 5622W        W77293  10.641  42.354   0.018
 5623W        W77294  33.993  14.217  12.428
 5624W        W77295  10.637  22.809  14.871
 5625W        W77296   4.409   9.179   0.881
 5626W        W77297  26.142  38.625   1.953
 5627W        W77298  13.191  17.984   1.922
 5628W        W77299  42.931  12.776  13.427
 5629W        W77300  41.037  40.515   3.136
 5630W        W77301  22.481  23.019  13.833
 5631W        W77302  32.195   3.191   4.322
 5632W        W77303  39.780  23.457   1.105
 5633W        W77304  16.897  15.887  11.529
 5634W        W77305  44.091  18.046  14.344
 5635W        W77306   8.618  11.410  13.909
 5636W        W77307   0.471   2.511   4.800
 5637W        W77308   7.966  13.211  11.781
 5638W        W77309  35.509  44.788  10.928
 5639W        W77310  44.969   8.921   0.326
 5640W        W77311   6.801   1.428  11.626
 5641W        W77312   6.614  18.160  11.032
 5642W        W77313  36.424  19.734  12.956
 5643W        W77314  43.756  14.243   4.043
 5644W        W77315  38.007  30.688  12.049
 5645W        W77316  11.667  32.338   1.434
 5646W        W77317  29.445  44.277  12.113
 5647W        W77318  41.289  17.110   1.286
 5648W        W77319   2.440   1.601   3.156
 5649W        W77320  42.268  27.496  13.977
 5650W        W77321  11.661  31.798   1.323
 5651W        W77322  19.174  27.121   0.666
 5652W        W77323   1.498   9.652  13.844
 5653W        W77324  36.438  15.219   2.243
 5654W        W77325  38.058   8.075  10.756
 5655W        W77326  22.208  33.579  10.665
 5656W        W77327  24.705  10.192  12.123
 5657W        W77328   4.375  19.050  11.376
 5658W        W77329  25.772   8.478  11.203
 5659W        W77330  23.747   3.058   3.608
 5660W        W77331  42.049  11.540  12.990
 5661W        W77332  30.478  37.970   0.265
 5662W        W77333  11.100   4.137   4.623
 5663W        W77334  15.135  36.486  11.562
 5664W        W77335  25.510  32.510   4.637
 5665W        W77336  43.742  41.924   3.293
 5666W        W77337   4.991  32.841  10.547
 5667W        W77338  26.538  19.654  12.028
 5668W        W77339  26.556  30.297   4.575
 5669W        W77340   2.640   1.677  12.718
 5670W        W77341  10.332   5.799  14.540
 5671W        W77342  32.535   7.945   0.368
 5672W        W77343  10.585  41.788  11.192
 5673W        W77344  22.595  40.228  11.134
 5674W        W77345  38.436  19.158   2.316
 5675W        W77346  18.794  27.148  13.820
 5676W        W77347   7.351  13.382   1.856
 5677W        W77348  15.668  43.210  14.022
 5678W        W77349  43.240  27.113  12.224
 5679W        W77350  10.182  19.980   1.380
 5680W        W77351  27.173  25.015   2.151
 5681W        W77352  26.574  40.753  11.174
 5682W        W77353   6.952  44.514  11.696
 5683W        W77354  39.337  12.849   1.615
 5684W        W77355   8.421  43.023   0.136
 5685W        W77356  32.719   5.744   2.959
 5686W        W77357  44.219   3.939  10.421
 5687W        W77358  31.081   1.471  12.656
 5688W        W77359  35.312  30.452   2.575
 5689W        W77360  43.760  40.854  12.661
 5690W        W77361   8.162  13.125   4.276
 5691W        W77362  24.804  11.681   0.434
 5692W        W77363  13.341  18.091  10.195
 5693W        W77364  24.696  34.467   4.568
 5694W        W77365   5.919  17.209  12.977
 5695W        W77366   0.499   0.719  14.526
 5696W        W77367  13.272  41.563  13.458
 5697W        W77368  19.680  38.034   1.432
 5698W        W77369   7.860  11.137  10.826
 5699W        W77370  36.494  16.381   1.770
 5700W        W77371  38.421  18.104   2.355
 5701W        W77372  29.101  34.916  14.720
 5702W        W77373   7.285  27.736  13.514
 5703W        W77374  25.877  40.501   0.905
 5704W        W77375  37.795   6.674   1.778
 5705W        W77376   1.236  31.983   1.249
 5706W        W77377   4.054   6.262  12.946
 5707W        W77378  25.693  18.541   3.371
 5708W        W77379   2.668  17.185   1.060
 5709W        W77380  15.557  36.986  12.074
 5710W        W77381  29.130  19.026   0.452
 5711W        W77382  19.559   6.762  13.097
 5712W        W77383  10.455  17.674   0.337
 5713W        W77384  42.297  41.799   0.022
 5714W        W77385   7.755  25.993   2.377
 5715W        W77386  27.546  28.182  12.595
 5716W        W77387  44.165  37.965  14.727
 5717W        W77388  33.465  16.516   0.750
 5718W        W77389   6.592   9.785  11.598
 5719W        W77390   9.708  12.760  11.374
 5720W        W77391  34.908  13.675   3.349
 5721W        W77392  22.573  10.209  11.495
 5722W        W77393   5.532  28.561   3.354
 5723W        W77394  27.786  12.717  12.952
 5724W        W77395   2.665   8.899   1.993
 5725W        W77396   4.793   9.030   0.217
 5726W        W77397  33.620  15.699  13.737
 5727W        W77398  34.512   7.228  14.568
 5728W        W77399  17.316   6.309  11.071
 5729W        W77400  32.356  29.527   4.912
 5730W        W77401   7.442  20.141   4.231
 5731W        W77402  20.206   1.599  14.741
 5732W        W77403  30.609   2.788   2.953
 5733W        W77404  41.809  37.380  12.145
 5734W        W77405   1.450  37.391   0.249
 5735W        W77406  39.750  31.537  11.126
 5736W        W77407  18.277  25.746   4.582
 5737W        W77408  10.378  16.113  13.851
 5738W        W77409  38.029  34.066  10.625
 5739W        W77410  31.917  42.515  14.268
 5740W        W77411  14.799  20.283   4.730
 5741W        W77412  14.394  32.037   3.134
 5742W        W77413  12.536   6.621   1.356
 5743W        W77414  44.403  10.574   0.335
 5744W        W77415   6.046  39.643  12.865
 5745W        W77416  39.518  20.142   4.163
 5746W        W77417  42.028  13.185   3.342
 5747W        W77418  20.132  17.297   1.919
 5748W        W77419  21.418  14.207  14.429
 5749W        W77420  40.800   5.865  13.365
 5750W        W77421  17.895  21.942   1.271
 5751W        W77422  38.135   8.654  14.261
 5752W        W77423  30.611  12.244  11.000
 5753W        W77424   0.809  37.524  12.021
 5754W        W77425  16.860   1.218  13.098
 5755W        W77426   4.882   9.364   4.169
 5756W        W77427  30.962  11.743   2.563
 5757W        W77428  13.615  38.067   4.280
 5758W        W77429   0.691  22.619  13.481
 5759W        W77430  17.555  16.671   4.862
 5760W        W77431  41.303   3.991   2.256
 5761W        W77432  19.062  21.770  11.587
 5762W        W77433  41.374   0.562  12.424
 5763W        W77434  13.287  15.797  12.020
 5764W        W77435  25.251  28.078  11.019
 5765W        W77436   7.208  37.800   3.728
 5766W        W77437  30.512  36.910  11.566
 5767W        W77438   3.815  16.639  11.424
 5768W        W77439  40.341  43.008  10.480
 5769W        W77440  42.545  10.230  13.054
 5770W        W77441  11.332  35.511   4.875
 5771W        W77442  36.171  34.012   0.292
 5772W        W77443  20.056  11.123  13.485
 5773W        W77444  42.251  41.350  10.488
 5774W        W77445  41.593  21.320   4.635
 5775W        W77446  32.077  23.604   2.304
 5776W        W77447  23.513  40.924  11.876
 5777W        W77448  22.278  40.428  10.238
 5778W        W77449   1.717  26.424   0.397
 5779W        W77450  16.354  20.605  14.847
 5780W        W77451   0.986  18.009  14.116
 5781W        W77452   7.697  16.648  13.920
 5782W        W77453  43.527   8.332   0.275
 5783W        W77454   9.735  22.342  13.955
 5784W        W77455  19.925  20.154   4.526
 5785W        W77456  32.952  40.564   3.429
 5786W        W77457  22.537  14.121  11.690
 5787W        W77458  32.706  24.677   0.342
 5788W        W77459  42.921  27.091   2.188
 5789W        W77460  24.744  37.721   4.136
 5790W        W77461   1.922  26.776   0.716
 5791W        W77462  38.446   0.001   3.772
 5792W        W77463  13.514  37.420   0.343
 5793W        W77464  36.434  16.701  12.343
 5794W        W77465  20.911   1.974   3.407
 5795W        W77466  15.729  20.187   3.797
 5796W        W77467  15.844  13.666   3.781
 5797W        W77468  35.911  22.262   0.968
 5798W        W77469   0.068   1.068   4.323
 5799W        W77470  42.875  24.189   4.114
 5800W        W77471  13.147  44.404  13.883
 5801W        W77472  31.411  40.033   4.023
 5802W        W77473  26.909  20.283   0.603
 5803W        W77474  32.301  18.446  12.564
 5804W        W77475  21.067  13.116  11.931
 5805W        W77476  39.903  25.656   2.351
 5806W        W77477  22.902  34.545  11.632
 5807W        W77478  20.031  26.671  10.618
 5808W        W77479  26.689  30.441   2.655
 5809W        W77480   7.834  40.722   1.327
 5810W        W77481   9.652   0.154  11.134
 5811W        W77482  17.578  12.804  10.560
 5812W        W77483  26.599  12.628  10.309
 5813W        W77484   2.652  32.175   4.203
 5814W        W77485  24.319  17.340  13.934
 5815W        W77486   7.093   6.673  10.797
 5816W        W77487   3.628  29.392  13.124
 5817W        W77488  18.696  29.649   1.905
 5818W        W77489  43.147  17.947   4.905
 5819W        W77490   8.665  16.302   2.898
 5820W        W77491   2.910  33.842  11.506
 5821W        W77492  23.515   0.010  12.481
 5822W        W77493  44.277  38.059   1.759
 5823W        W77494  14.838  14.244   4.922
 5824W        W77495  32.367  11.041  13.309
 5825W        W77496  43.776  26.562   3.382
 5826W        W77497   5.738  25.181  11.206
 5827W        W77498  44.350  17.303  10.337
 5828W        W77499  17.238  42.901  13.995
 5829W        W77500  40.980  32.996   2.299
 5830W        W77501  41.586  23.397  11.600
 5831W        W77502  37.268  16.918  11.650
 5832W        W77503  15.773  18.037   3.415
 5833W        W77504   2.372   6.212  13.130
 5834W        W77505  10.174  43.480  10.955
 5835W        W77506  20.120  21.590   3.110
 5836W        W77507  43.496  21.749  10.775
 5837W        W77508   3.789  15.287   1.446
 5838W        W77509   3.997  11.796  14.318
 5839W        W77510   4.759  22.597   3.651
 5840W        W77511  37.042  12.647  14.995
 5841W        W77512  42.104  37.984   3.343
 5842W        W77513  35.615  44.386   4.897
 5843W        W77514   1.223   6.238  13.476
 5844W        W77515  40.115  16.463  12.704
 5845W        W77516  34.600  24.923   3.189
 5846W        W77517  36.041  43.189  13.862
 5847W        W77518  18.354  26.119   3.245
 5848W        W77519  23.778  42.697  14.454
 5849W        W77520  14.322  16.686  12.838
 5850W        W77521  12.918  35.491   0.969
 5851W        W77522   2.836  26.416  11.110
 5852W        W77523  32.485  21.051   4.230
 5853W        W77524  40.422  20.613   1.447
 5854W        W77525  42.352  21.926  11.414
 5855W        W77526  25.092  14.224   4.888
 5856W        W77527  22.183  33.792  11.929
 5857W        W77528  16.705  15.702   3.321
 5858W        W77529   3.571  15.272   2.812
 5859W        W77530  29.767  43.037   1.790
 5860W        W77531  39.275  36.003   3.183
 5861W        W77532  14.562  18.860  13.173
 5862W        W77533  33.750  28.584  11.882
 5863W        W77534  23.999  17.577  11.397
 5864W        W77535   4.100  38.515   1.729
 5865W        W77536  12.171   2.999  12.017
 5866W        W77537  11.360  40.923  13.875
 5867W        W77538  27.505  20.421  14.937
 5868W        W77539   5.264   0.320   1.919
 5869W        W77540   3.168  24.043  14.111
 5870W        W77541  29.896   3.444  10.498
 5871W        W77542  22.983   4.873   1.681
 5872W        W77543  30.030  14.219   2.851
 5873W        W77544  16.631  40.023  11.606
 5874W        W77545  24.239  41.745  10.823
 5875W        W77546  35.796  40.096   9.650
 5876W        W77547  19.018  13.249  11.705
 5877W        W77548  24.233  25.937  13.282
 5878W        W77549  38.563  42.927   1.464
 5879W        W77550  42.972  22.851  13.545
 5880W        W77551   7.309   5.248   4.359
 5881W        W77552   5.381  43.796   1.232
 5882W        W77553  38.871  40.887   2.264
 5883W        W77554  36.756   9.464  13.795
 5884W        W77555  33.408  39.570   2.805
 5885W        W77556   3.314  20.128   4.852
 5886W        W77557  36.912  38.711   2.717
 5887W        W77558  41.660  19.903   3.438
 5888W        W77559  38.301   8.191  11.179
 5889W        W77560  41.813   1.680   2.313
 5890W        W77561   1.165  29.035  12.106
 5891W        W77562  21.277  17.004  12.540
 5892W        W77563  21.587  37.609   3.655
 5893W        W77564   7.158  16.264   2.699
 5894W        W77565  43.589  41.393  12.658
 5895W        W77566  10.883  35.264  13.791
 5896W        W77567   1.310  31.206  14.456
 5897W        W77568   3.702   6.756   1.753
 5898W        W77569  42.061  39.376  14.117
 5899W        W77570   7.856  14.586  14.411
 5900W        W77571   8.409  26.634  13.234
 5901W        W77572   8.151  24.225  13.337
 5902W        W77573  41.580  42.746   2.475
 5903W        W77574  29.750  34.889   1.807
 5904W        W77575   3.053  37.860  13.386
 5905W        W77576  42.874  18.676   0.948
 5906W        W77577   5.176  34.518  14.992
 5907W        W77578  30.563   0.975  10.826
 5908W        W77579  43.039  11.595  11.029
 5909W        W77580  26.552  35.096   3.236
 5910W        W77581  37.347  34.234  11.532
 5911W        W77582  39.059  19.077   4.777
 5912W        W77583  27.006  25.329   3.512
 5913W        W77584  43.620  13.648   5.485
 5914W        W77585  20.987  22.014   4.486
 5915W        W77586  10.233  16.273   1.950
 5916W        W77587  38.526   1.246  12.929
 5917W        W77588   2.210  14.866  14.223
 5918W        W77589  39.320  40.507   0.894
 5919W        W77590   3.793  31.388  11.496
 5920W        W77591   0.946   2.256   3.119
 5921W        W77592  41.865  22.627  11.171
 5922W        W77593  21.764  29.533  12.615
 5923W        W77594  12.779  38.201   1.878
 5924W        W77595   6.388  28.582   4.592
 5925W        W77596  37.907  21.807   4.122
 5926W        W77597  31.150  19.589   4.613
 5927W        W77598  12.808  14.773  10.750
 5928W        W77599  40.349   9.686   3.242
 5929W        W77600  44.923  34.259  13.008
 5930W        W77601  35.136  38.842   2.712
 5931W        W77602  42.269   9.174  11.154
 5932W        W77603   8.666   6.647   3.407
 5933W        W77604   4.605  21.734   4.062
 5934W        W77605  42.248  34.802   5.026
 5935W        W77606  25.271  34.785   4.043
 5936W        W77607  24.240  21.004   3.155
 5937W        W77608  32.521  24.278   1.213
 5938W        W77609  22.476  14.816   3.228
 5939W        W77610  19.006  32.048  14.829
 5940W        W77611  15.236  13.313   2.090
 5941W        W77612   2.105  26.951  11.773
 5942W        W77613  13.256  13.068   3.249
 5943W        W77614  22.618  31.925  14.783
 5944W        W77615   4.831   7.517   3.185
 5945W        W77616  31.004  19.513   0.052
 5946W        W77617  44.941  15.081  13.901
 5947W        W77618  17.102   1.924   1.832
 5948W        W77619   3.488   5.483   4.591
 5949W        W77620  30.669  42.325   3.819
 5950W        W77621  16.803  11.565  12.085
 5951W        W77622  18.281  14.633   0.901
 5952W        W77623  30.697  39.709   0.744
 5953W        W77624   7.345  18.284   4.629
 5954W        W77625  17.653  21.895  12.392
 5955W        W77626  10.220  44.871   3.127
 5956W        W77627  40.276  23.700   0.446
 5957W        W77628  37.242  20.674  12.550
 5958W        W77629  13.369  28.056  12.564
 5959W        W77630  41.887   6.664   0.216
 5960W        W77631  23.128  43.551   0.839
 5961W        W77632  20.983   7.380  12.359
 5962W        W77633  13.061  22.172  11.585
 5963W        W77634  16.958   8.107   1.807
 5964W        W77635  13.463  17.542   2.830
 5965W        W77636   3.769  23.779   0.821
 5966W        W77637  11.890  27.986  12.354
 5967W        W77638   3.920  34.793  14.439
 5968W        W77639  11.614  17.787   4.668
 5969W        W77640  43.428  41.210  10.160
 5970W        W77641  23.949  29.393   0.798
 5971W        W77642  10.097   5.421   4.087
 5972W        W77643   1.567   7.369  13.035
 5973W        W77644  37.673  26.160  14.089
 5974W        W77645  39.383  34.558   2.288
 5975W        W77646  16.192  43.265   1.740
 5976W        W77647   2.710  37.492  13.400
 5977W        W77648  18.733  30.026   0.211
 5978W        W77649  15.868   5.792  13.952
 5979W        W77650  26.987   7.123   0.927
 5980W        W77651   6.971  32.103  14.405
 5981W        W77652   4.194  16.363   4.538
 5982W        W77653  40.121  40.048   3.707
 5983W        W77654  27.116  21.076  11.198
 5984W        W77655  23.742  16.285  13.804
 5985W        W77656  41.882  23.764  10.872
 5986W        W77657   0.239  32.830   4.284
 5987W        W77658  28.115  10.574  12.085
 5988W        W77659   8.774  33.601  10.967
 5989W        W77660  37.959  11.287   9.872
 5990W        W77661  23.142  17.531   3.693
 5991W        W77662   7.941  20.608   0.258
 5992W        W77663  13.781  12.886   2.341
 5993W        W77664  19.933  27.117  10.377
 5994W        W77665  11.813  34.773  11.193
 5995W        W77666  37.736   5.831  11.497
 5996W        W77667  29.699  18.186   0.453
 5997W        W77668  14.602  39.842   2.832
 5998W        W77669  32.471  34.640   2.378
 5999W        W77670  16.074  32.367  13.917
 6000W        W77671  18.624   4.645  12.543
 6001W        W77672  27.363  42.501   4.174
 6002W        W77673  43.940  21.011   1.228
 6003W        W77674  17.622  44.014  13.583
 6004W        W77675  20.458   9.083   5.016
 6005W        W77676  26.679  12.381   0.290
 6006W        W77677  22.891  34.153  10.620
 6007W        W77678  41.793  32.449   2.202
 6008W        W77679  31.414  42.929   0.670
 6009W        W77680   1.970  41.436  13.961
 6010W        W77681   4.931  25.680   0.384
 6011W        W77682  42.098  26.895  10.908
 6012W        W77683  26.152   3.853  12.492
 6013W        W77684  27.011  15.863  14.509
 6014W        W77685  14.866   5.986  13.792
 6015W        W77686  18.478  12.620  11.856
 6016W        W77687  23.264  10.465   1.294
 6017W        W77688  15.435  29.626  14.571
 6018W        W77689   2.030   0.012  14.220
 6019W        W77690  44.809  13.110  11.884
 6020W        W77691   6.723   5.873   1.396
 6021W        W77692  15.755  43.062  10.331
 6022W        W77693  36.015   5.161   0.859
 6023W        W77694  24.829  31.974   1.640
 6024W        W77695   7.379  10.921   2.688
 6025W        W77696  11.607  38.866  12.881
 6026W        W77697  36.436   2.059   0.020
 6027W        W77698  43.353  39.906   2.209
 6028W        W77699  22.502  40.447   3.719
 6029W        W77700  11.864   2.977   3.636
 6030W        W77701   5.883   0.834  14.426
 6031W        W77702  34.611  11.597  11.580
 6032W        W77703  25.113  34.308   1.554
 6033W        W77704  25.585  10.713  11.709
 6034W        W77705  21.455  35.784  13.989
 6035W        W77706  31.429  43.819   3.972
 6036W        W77707   0.680  11.279   3.672
 6037W        W77708  21.711  27.571  12.128
 6038W        W77709  36.092  14.725  11.571
 6039W        W77710  43.516  20.084  14.472
 6040W        W77711  31.817  12.039  13.992
 6041W        W77712  10.938  27.112   2.023
 6042W        W77713   5.771  33.348   2.233
 6043W        W77714   2.492   2.179  13.090
 6044W        W77715  26.664  41.341   1.966
 6045W        W77716  35.434  26.574  13.512
 6046W        W77717  18.759  20.237  13.082
 6047W        W77718  26.157  14.050  10.668
 6048W        W77719  44.913  34.927  10.715
 6049W        W77720   0.367  19.492  12.012
 6050W        W77721  34.753  26.928  14.881
 6051W        W77722  40.107  28.456  13.438
 6052W        W77723   2.896   5.124  14.388
 6053W        W77724  28.350  14.741   1.668
 6054W        W77725   3.360  32.052  14.453
 6055W        W77726   8.368  37.640   2.281
 6056W        W77727   3.952  20.210  14.964
 6057W        W77728  34.074  41.898   3.894
 6058W        W77729  43.026  14.151  13.556
 6059W        W77730   1.428  31.144   4.662
 6060W        W77731   2.787  27.541   0.201
 6061W        W77732  36.843  25.463  12.887
 6062W        W77733   1.819  25.163   3.663
 6063W        W77734   6.620  27.092   4.996
 6064W        W77735   3.350  11.447   3.581
 6065W        W77736  25.513  12.715   4.578
 6066W        W77737  30.852  29.145  10.831
 6067W        W77738  13.760  28.722  10.793
 6068W        W77739  34.506  11.856   1.001
 6069W        W77740   1.417  20.777   3.646
 6070W        W77741  10.928  36.220   2.231
 6071W        W77742   8.640   0.327   1.236
 6072W        W77743   6.109  31.000   4.162
 6073W        W77744   2.889   3.741   1.012
 6074W        W77745  42.544  44.737   0.900
 6075W        W77746  22.539  17.108  11.940
 6076W        W77747  32.943  38.497   4.551
 6077W        W77748  31.561   0.440  11.242
 6078W        W77749  18.282  42.451   4.729
 6079W        W77750  40.413   4.480  11.184
 6080W        W77751  26.369  24.276   4.094
 6081W        W77752  38.324  13.290   4.156
 6082W        W77753  12.597  41.485   1.568
 6083W        W77754   9.400  30.442   4.742
 6084W        W77755  22.199  41.281   2.184
 6085W        W77756  20.285   8.610   4.125
 6086W        W77757  30.540   1.873   0.233
 6087W        W77758  18.047  44.714   0.375
 6088W        W77759  34.035  12.769  11.370
 6089W        W77760  10.769  33.187  10.937
 6090W        W77761  31.470  21.131  14.476
 6091W        W77762  35.336  41.738  14.387
 6092W        W77763  43.533  18.179  11.132
 6093W        W77764  20.805  14.327   2.766
 6094W        W77765  23.524  34.110   4.387
 6095W        W77766  17.789  32.466  14.299
 6096W        W77767  29.515  40.913   4.352
 6097W        W77768  11.524   0.760  13.938
 6098W        W77769   2.506  19.457  13.511
 6099W        W77770  35.014  19.378   4.063
 6100W        W77771  43.060  21.170  11.730
 6101W        W77772  42.972  38.975   0.791
 6102W        W77773  39.263  18.078  14.908
 6103W        W77774  25.958  33.395  12.557
 6104W        W77775  32.656   1.353  12.565
 6105W        W77776   3.251   5.698  10.807
 6106W        W77777   8.108   8.756   0.735
 6107W        W77778  28.556  39.976  14.445
 6108W        W77779  15.576   4.345   1.211
 6109W        W77780  23.625  16.840  11.442
 6110W        W77781   8.698   0.671   1.656
 6111W        W77782  30.091  32.566  14.051
 6112W        W77783   7.259  32.820   2.916
 6113W        W77784  15.733  44.247   2.257
 6114W        W77785  24.078  13.298   2.309
 6115W        W77786  11.062  42.848  12.930
 6116W        W77787  10.114  41.723  11.968
 6117W        W77788  34.433  27.402  11.750
 6118W        W77789  29.038  12.640   3.718
 6119W        W77790  30.419  10.574  12.314
 6120W        W77791  17.849   1.176  12.161
 6121W        W77792   6.868  25.958  14.352
 6122W        W77793   8.699  26.697  10.747
 6123W        W77794   8.205  12.142  11.096
 6124W        W77795  37.928   3.724  12.944
 6125W        W77796  15.784  44.233  11.156
 6126W        W77797  31.022   4.685   2.199
 6127W        W77798   9.683  29.618   1.749
 6128W        W77799  22.233  31.515   1.297
 6129W        W77800  38.818   4.966   1.809
 6130W        W77801  19.850  26.619  13.408
 6131W        W77802   7.452  24.688   3.871
 6132W        W77803  18.630  44.469  14.091
 6133W        W77804  42.533   4.868   4.436
 6134W        W77805   5.680   9.711  12.829
 6135W        W77806  21.675  26.764   4.265
 6136W        W77807  29.006  38.416  13.814
 6137W        W77808  19.724   3.171   1.392
 6138W        W77809  20.583  16.307   1.897
 6139W        W77810  31.466   3.393  10.665
 6140W        W77811  14.301   6.508  12.500
 6141W        W77812   8.226  39.262  10.737
 6142W        W77813  41.539  37.167  10.899
 6143W        W77814  30.929  38.927   3.403
 6144W        W77815   1.820  37.635  12.500
 6145W        W77816  33.352  30.418   5.019
 6146W        W77817   8.273   1.512  12.554
 6147W        W77818   7.226  14.755  12.680
 6148W        W77819  27.415  34.792   3.670
 6149W        W77820   7.225   7.100  14.440
 6150W        W77821  40.997  14.165  14.587
 6151W        W77822  39.263   8.160   2.310
 6152W        W77823   9.309  19.497  10.712
 6153W        W77824  30.987  26.617   4.624
 6154W        W77825  27.024   3.486   0.218
 6155W        W77826  30.150  18.064  13.603
 6156W        W77827  11.112  28.369  12.436
 6157W        W77828  21.152   6.224  14.509
 6158W        W77829  10.088  12.665   0.820
 6159W        W77830  18.745  23.522  12.089
 6160W        W77831  12.534   0.945   0.065
 6161W        W77832  11.642  37.632  11.576
 6162W        W77833  24.126  15.748  13.593
 6163W        W77834   3.225   9.228   3.708
 6164W        W77835  14.854  21.020  13.060
 6165W        W77836   8.740  41.518   1.973
 6166W        W77837  30.966  14.623  11.591
 6167W        W77838  20.486  40.553   1.366
 6168W        W77839   6.070   4.782  14.403
 6169W        W77840  27.950  40.123   4.667
 6170W        W77841  24.067  25.067  11.141
 6171W        W77842   2.355  14.067  12.133
 6172W        W77843  40.268  12.482   1.603
 6173W        W77844   2.336  20.065   4.483
 6174W        W77845  24.023  42.850   0.436
 6175W        W77846   2.420  31.158   3.629
 6176W        W77847   1.386  26.210   1.872
 6177W        W77848  12.051  35.577   2.725
 6178W        W77849  30.173  23.228   4.333
 6179W        W77850  44.988  16.529  13.022
 6180W        W77851  25.885  31.015  12.054
 6181W        W77852  32.199  11.926  11.094
 6182W        W77853  43.448  44.489   1.750
 6183W        W77854  12.885  21.454  14.781
 6184W        W77855  11.624  28.401  12.496
 6185W        W77856  30.896  31.247  10.438
 6186W        W77857  37.015   1.381   1.036
 6187W        W77858  38.969  21.696  13.424
 6188W        W77859  19.243  22.329  12.427
 6189W        W77860  27.061  30.815   2.688
 6190W        W77861  38.033  40.940  11.151
 6191W        W77862   3.038  22.037  13.882
 6192W        W77863  14.392  11.795   0.430
 6193W        W77864  32.506   3.866  10.980
 6194W        W77865  42.302   9.140   4.147
 6195W        W77866  38.207  39.020   0.183
 6196W        W77867   9.159   7.449   3.694
 6197W        W77868  28.049  11.092  14.931
 6198W        W77869   8.471  20.128   4.203
 6199W        W77870   6.568  18.342  11.952
 6200W        W77871  33.993  42.489   4.614
 6201W        W77872   4.686  27.372  10.091
 6202W        W77873  18.859  17.744  11.918
 6203W        W77874   9.131   5.413  11.505
 6204W        W77875  27.685  14.954  13.813
 6205W        W77876  16.219  12.658  12.785
 6206W        W77877  29.905  40.471   2.605
 6207W        W77878   7.783  41.999   3.305
 6208W        W77879   7.810   2.274  14.194
 6209W        W77880  29.025   7.873  10.814
 6210W        W77881  36.944  41.373   2.227
 6211W        W77882  18.261  31.591   4.704
 6212W        W77883  30.975  18.773  12.513
 6213W        W77884  27.690  41.442   3.350
 6214W        W77885  32.542   5.187   4.088
 6215W        W77886  25.180  31.915  11.175
 6216W        W77887  25.773  16.591   0.373
 6217W        W77888  32.465  17.165  14.065
 6218W        W77889   6.744   1.303   4.517
 6219W        W77890  35.747   5.793  11.502
 6220W        W77891  41.922  21.766   2.474
 6221W        W77892  29.983  37.398  14.915
 6222W        W77893  30.033  25.642  10.672
 6223W        W77894  33.889  35.060  14.909
 6224W        W77895  28.169   3.497  13.572
 6225W        W77896  43.138  21.553   9.834
 6226W        W77897   6.881  10.805   2.625
 6227W        W77898  25.214  27.085  13.458
 6228W        W77899  35.007  38.393   4.506
 6229W        W77900  36.433   5.015   2.207
 6230W        W77901  16.543  14.288   2.839
 6231W        W77902  31.312  15.401  10.045
 6232W        W77903  23.100  31.570   0.225
 6233W        W77904  35.744  37.917   2.321
 6234W        W77905   1.543   2.265  13.139
 6235W        W77906  43.809  20.903   5.244
 6236W        W77907   9.683  20.143  12.562
 6237W        W77908  27.680  39.343  10.741
 6238W        W77909  31.069  34.318   4.675
 6239W        W77910  19.600  25.960  14.563
 6240W        W77911   2.833  24.833  13.093
 6241W        W77912  28.159  38.762  11.472
 6242W        W77913  16.111   7.351   2.417
 6243W        W77914  36.086  11.558  10.672
 6244W        W77915  32.072   3.261  14.498
 6245W        W77916  38.940  44.267   3.753
 6246W        W77917  20.692  12.207   3.509
 6247W        W77918  15.297  31.879   2.865
 6248W        W77919  12.137   3.474   4.855
 6249W        W77920  13.535  37.940  11.689
 6250W        W77921   6.668  21.633   2.952
 6251W        W77922  11.439  26.291   1.331
 6252W        W77923  19.229  13.573   2.391
 6253W        W77924  35.040  41.634  12.627
 6254W        W77925  36.483  40.453   1.313
 6255W        W77926   5.509  33.990  12.123
 6256W        W77927  17.882  23.575  13.315
 6257W        W77928  13.146  40.023  11.611
 6258W        W77929  44.879  31.075   0.363
 6259W        W77930  20.026  34.834  12.324
 6260W        W77931  43.981  10.313   3.882
 6261W        W77932  35.119   2.909  13.961
 6262W        W77933   2.778  30.038   0.846
 6263W        W77934  13.742   5.980   2.549
 6264W        W77935   9.430  26.275  12.934
 6265W        W77936  11.055   0.048  13.280
 6266W        W77937   3.614   1.926  11.526
 6267W        W77938  44.836  33.847   3.427
 6268W        W77939  14.306  20.214  13.940
 6269W        W77940  33.701   2.044   4.584
 6270W        W77941  32.635  44.205  11.002
 6271W        W77942  39.417  37.874  13.471
 6272W        W77943  40.255  27.929   2.359
 6273W        W77944  43.746  15.757  14.319
 6274W        W77945  24.177  34.447   4.684
 6275W        W77946   4.543  44.816  13.789
 6276W        W77947  44.844  24.613   0.569
 6277W        W77948  12.306  38.904  14.330
 6278W        W77949  39.779  33.344  11.570
 6279W        W77950  11.194  29.442  14.385
 6280W        W77951   6.726   1.439  10.696
 6281W        W77952  32.896  32.106   4.072
 6282W        W77953  23.486  29.726  14.912
 6283W        W77954   6.932   5.733   3.657
 6284W        W77955  11.699  22.712  10.609
 6285W        W77956   6.225   6.429   2.943
 6286W        W77957  29.969  15.704  13.337
 6287W        W77958  22.625   7.881   0.930
 6288W        W77959  15.118  27.533  12.564
 6289W        W77960  40.626  14.149   0.268
 6290W        W77961  11.621  35.792  11.147
 6291W        W77962   6.519  35.420  11.662
 6292W        W77963  28.367   6.376   2.679
 6293W        W77964   9.271   5.187   0.502
 6294W        W77965  23.945  32.421  13.923
 6295W        W77966  32.553  31.086   4.142
 6296W        W77967  34.154  41.533  14.945
 6297W        W77968  40.480  19.581  12.847
 6298W        W77969   8.162   9.710  11.736
 6299W        W77970  27.354  17.053  13.042
 6300W        W77971  29.440  33.143   3.186
 6301W        W77972  19.716   5.666  13.339
 6302W        W77973  22.195  13.856   1.448
 6303W        W77974  39.980  38.075   1.739
 6304W        W77975  26.970  25.510  12.123
 6305W        W77976  18.237  29.176   1.113
 6306W        W77977   1.088  17.665  11.179
 6307W        W77978  23.871  40.062   1.694
 6308W        W77979   5.432   0.117  10.676
 6309W        W77980  41.251  17.490  12.823
 6310W        W77981  11.146  28.045   2.117
 6311W        W77982   0.907  17.217   3.151
 6312W        W77983  22.984  23.657   4.160
 6313W        W77984  17.881  44.660  10.380
 6314W        W77985  24.017  10.365   0.878
 6315W        W77986   1.242  42.500  12.977
 6316W        W77987  14.180  14.354  13.614
 6317W        W77988  16.798  23.135   0.205
 6318W        W77989   6.922  26.530  11.599
 6319W        W77990  24.000   3.428  11.510
 6320W        W77991   6.027  14.379   4.178
 6321W        W77992  33.015  34.615  12.306
 6322W        W77993  25.580  21.085  14.272
 6323W        W77994   0.218  44.441   4.597
 6324W        W77995  30.115  27.742   4.604
 6325W        W77996  10.692  27.199  11.110
 6326W        W77997  30.590  15.622   1.489
 6327W        W77998  24.317  14.211  10.134
 6328W        W77999  40.868  29.670  14.920
 6329W        W78000  22.492  28.692   3.111
 6330W        W78001  25.951  23.766   3.718
 6331W        W78002  17.168  32.370  13.481
 6332W        W78003  17.522   1.339  11.790
 6333W        W78004  17.793  41.769   3.705
 6334W        W78005  41.564  22.957   1.281
 6335W        W78006   3.407  39.035  12.036
 6336W        W78007   8.166   4.612   0.316
 6337W        W78008  36.863   6.934   3.163
 6338W        W78009  21.669  16.124  11.094
 6339W        W78010  14.442  41.680   4.142
 6340W        W78011   6.861  42.092  10.614
 6341W        W78012  32.761  35.933   0.967
 6342W        W78013   8.876  38.036   4.401
 6343W        W78014  23.838  31.202   2.828
 6344W        W78015  13.756  44.326   4.098
 6345W        W78016  20.604  19.071   2.391
 6346W        W78017  39.995  26.501  13.380
 6347W        W78018   9.298  38.876   3.926
 6348W        W78019   5.817  20.993  14.929
 6349W        W78020  26.403  28.901   0.904
 6350W        W78021  36.665  21.769   3.664
 6351W        W78022  24.175   1.445   2.723
 6352W        W78023   2.428  27.934  10.730
 6353W        W78024  35.010  30.103   1.776
 6354W        W78025   2.408  20.328  11.030
 6355W        W78026   4.632  10.085   1.157
 6356W        W78027  40.269  22.060  14.137
 6357W        W78028   7.135  39.308   2.741
 6358W        W78029   6.242  36.890   0.735
 6359W        W78030  17.584  40.882  13.425
 6360W        W78031  16.364  26.010  14.589
 6361W        W78032   5.779  30.605   1.217
 6362W        W78033  10.799   3.279   4.101
 6363W        W78034   2.318  44.038   4.475
 6364W        W78035  31.534  15.590  10.922
 6365W        W78036  35.423  16.084   2.254
 6366W        W78037  38.461   1.702  13.921
 6367W        W78038  44.006  41.740   2.845
 6368W        W78039  32.055  23.491  13.413
 6369W        W78040  33.936  16.743  11.585
 6370W        W78041  19.712   3.837   4.498
 6371W        W78042  18.631  28.133  13.361
 6372W        W78043  27.712  40.887   1.680
 6373W        W78044  31.379  11.317  11.675
 6374W        W78045   9.308  14.533   4.884
 6375W        W78046   5.890  31.953   1.267
 6376W        W78047  22.586   9.894   4.050
 6377W        W78048   0.673  19.802  11.566
 6378W        W78049  28.677  38.080  14.589
 6379W        W78050  30.479  25.747  12.023
 6380W        W78051  40.260  33.289  14.835
 6381W        W78052   7.643   5.404  13.880
 6382W        W78053  15.580  18.233   2.931
 6383W        W78054  31.569  35.959   0.921
 6384W        W78055   4.774   4.373   4.560
 6385W        W78056  43.018   2.893  13.374
 6386W        W78057  40.514  39.557   1.372
 6387W        W78058   7.460  18.676   0.364
 6388W        W78059  24.768  34.131  12.567
 6389W        W78060  35.115  36.098  10.559
 6390W        W78061  24.712  22.687  14.866
 6391W        W78062   8.210  28.339  14.764
 6392W        W78063  40.034   4.549   4.314
 6393W        W78064  25.748   5.868  11.719
 6394W        W78065  16.659  17.273   3.142
 6395W        W78066  43.977  33.638   1.806
 6396W        W78067   5.460  42.955  14.620
 6397W        W78068  27.492  12.871  14.586
 6398W        W78069  33.862  28.248   2.273
 6399W        W78070  40.878  31.097   1.288
 6400W        W78071  17.798  18.139  14.851
 6401W        W78072  28.526  11.303   4.706
 6402W        W78073  38.947   6.395  13.840
 6403W        W78074   7.387   5.246  11.670
 6404W        W78075  24.983  36.443  10.726
 6405W        W78076  25.765  35.446  11.196
 6406W        W78077   5.874  24.575   0.861
 6407W        W78078  36.520  11.138  11.522
 6408W        W78079  26.644  31.897   1.736
 6409W        W78080  31.900   1.052   3.900
 6410W        W78081  28.851  32.260   2.256
 6411W        W78082  39.179  31.217  13.986
 6412W        W78083  21.587   0.223   2.129
 6413W        W78084   9.265  10.587  12.432
 6414W        W78085  42.482  14.245  11.560
 6415W        W78086   4.344  31.452   1.737
 6416W        W78087  19.029   2.567  12.512
 6417W        W78088  15.271  19.568   2.228
 6418W        W78089  43.125  16.059   0.271
 6419W        W78090  14.563   6.122   4.833
 6420W        W78091  18.329  19.304   1.753
 6421W        W78092  34.673  15.542   3.955
 6422W        W78093  31.017  29.202  11.544
 6423W        W78094  40.985  41.828   3.523
 6424W        W78095  33.044  23.125  12.012
 6425W        W78096  43.293  42.527  11.156
 6426W        W78097  30.992   8.100   1.743
 6427W        W78098   0.373  41.494   4.556
 6428W        W78099  22.179  10.213   0.883
 6429W        W78100  24.047  16.705   4.185
 6430W        W78101  13.666  17.867  10.632
 6431W        W78102  41.527  11.645   2.889
 6432W        W78103  10.137   3.792  14.131
 6433W        W78104  43.276  19.723   4.203
 6434W        W78105  17.767   5.277   3.998
 6435W        W78106  31.903  24.181  12.432
 6436W        W78107  25.375  10.728   1.782
 6437W        W78108  25.145  28.580  13.354
 6438W        W78109   0.953  23.861  11.040
 6439W        W78110   1.897  34.136  13.098
 6440W        W78111  35.037  13.168   2.268
 6441W        W78112  23.511  26.136  12.964
 6442W        W78113  12.310  35.844  12.110
 6443W        W78114  13.472  20.207   2.232
 6444W        W78115  13.850   7.164   4.760
 6445W        W78116  41.995  31.439   0.539
 6446W        W78117  42.056  17.678   1.904
 6447W        W78118  37.068  15.648  14.485
 6448W        W78119  38.152  26.357  13.743
 6449W        W78120  24.677  27.569   0.239
 6450W        W78121  40.458  12.862  13.397
 6451W        W78122  18.159   7.467   4.105
 6452W        W78123  10.725  22.945  12.398
 6453W        W78124  17.812  28.502  12.964
 6454W        W78125  23.976  29.041   3.199
 6455W        W78126  32.994   7.271   4.952
 6456W        W78127   2.339  42.063   1.232
 6457W        W78128  23.253   5.920  12.513
 6458W        W78129  16.083   2.819   0.326
 6459W        W78130  37.827  19.778   0.897
 6460W        W78131  21.614   1.905   2.030
 6461W        W78132   6.420  43.723   4.623
 6462W        W78133  40.067  34.998  11.193
 6463W        W78134  38.760  28.059  11.037
 6464W        W78135  25.428   9.742   1.681
 6465W        W78136  25.706  12.379  13.330
 6466W        W78137  19.075  28.432   2.760
 6467W        W78138  14.551  11.598  13.524
 6468W        W78139  41.354  11.375  13.437
 6469W        W78140   4.661  27.887   0.298
 6470W        W78141  17.057  42.555   1.279
 6471W        W78142  14.447  37.881   1.648
 6472W        W78143  18.754  40.798   3.304
 6473W        W78144  36.188   9.663   1.874
 6474W        W78145   6.920  13.057   0.681
 6475W        W78146  29.572  33.856   1.844
 6476W        W78147  24.886   3.354  11.168
 6477W        W78148  33.208  25.301   4.216
 6478W        W78149  19.487   0.005  11.388
 6479W        W78150  32.899  32.426  11.955
 6480W        W78151  17.078  41.315  11.463
 6481W        W78152  23.166  12.812  11.658
 6482W        W78153  11.165  24.114   4.583
 6483W        W78154   1.220  37.293   2.098
 6484W        W78155   6.935   2.669  12.030
 6485W        W78156  20.195  37.422   4.867
 6486W        W78157   0.963  10.020  14.533
 6487W        W78158  13.252  44.734  11.821
 6488W        W78159   3.825  18.045   0.911
 6489W        W78160  26.758  30.699   0.913
 6490W        W78161  13.511   4.247   1.805
 6491W        W78162   8.274  32.198  11.341
 6492W        W78163  42.613   0.967  10.918
 6493W        W78164   3.860  30.054  10.930
 6494W        W78165   6.206  41.560  10.265
 6495W        W78166   6.582  20.842  10.692
 6496W        W78167  36.880  18.131   2.855
 6497W        W78168  16.092  27.628  14.886
 6498W        W78169  13.335  16.729   4.771
 6499W        W78170  42.087   0.450   4.239
 6500W        W78171  37.085  43.876  10.723
 6501W        W78172  40.812  32.345  10.459
 6502W        W78173   5.035  24.619   4.255
 6503W        W78174  11.611  13.450   2.379
 6504W        W78175  41.396  42.385  10.889
 6505W        W78176  33.502  14.188   1.353
 6506W        W78177  37.984   0.537   0.484
 6507W        W78178  11.391   6.698  14.009
 6508W        W78179  11.308  30.950   4.569
 6509W        W78180  25.753  43.818  14.655
 6510W        W78181  24.124   1.720   4.631
 6511W        W78182  26.514  19.452  10.664
 6512W        W78183  17.573  32.166  13.218
 6513W        W78184  21.579  23.956  11.014
 6514W        W78185   6.616  39.092  14.458
 6515W        W78186  28.784  32.087   3.144
 6516W        W78187  43.527  33.418  12.889
 6517W        W78188  18.604  24.204  13.449
 6518W        W78189  36.615  24.061  12.780
 6519W        W78190  32.406   1.944   3.703
 6520W        W78191   7.303   3.437  12.124
 6521W        W78192  36.178  36.683   0.269
 6522W        W78193  30.682   0.520  12.553
 6523W        W78194  35.417  32.542   4.685
 6524W        W78195  18.511   2.399   1.389
 6525W        W78196  35.294  26.995  11.688
 6526W        W78197   1.168  12.754   4.083
 6527W        W78198  35.879  38.645   4.138
 6528W        W78199  20.801  32.558   3.684
 6529W        W78200  23.134   3.756   4.548
 6530W        W78201  28.028   3.402  14.923
 6531W        W78202  30.110  27.732   1.177
 6532W        W78203  36.558  12.322   1.138
 6533W        W78204  32.147   7.176   4.702
 6534W        W78205  38.924  36.879   0.170
 6535W        W78206  31.981  18.166  11.925
 6536W        W78207   3.750   0.750  13.377
 6537W        W78208  12.778  41.007   3.610
 6538W        W78209   5.250  25.731  13.969
 6539W        W78210  36.093  12.781  13.345
 6540W        W78211  21.431  39.325   3.979
 6541W        W78212  17.780  22.611   3.659
 6542W        W78213  29.475  39.416  14.541
 6543W        W78214   0.537  14.370   0.485
 6544W        W78215   4.892  33.041  11.024
 6545W        W78216  43.238  31.687   3.187
 6546W        W78217  19.212   0.225   1.707
 6547W        W78218  17.611  44.299   1.111
 6548W        W78219  15.641  39.100  11.630
 6549W        W78220   4.178  22.066   3.320
 6550W        W78221   6.462  28.105   0.836
 6551W        W78222  36.434  36.527  11.049
 6552W        W78223  35.137  26.925   2.283
 6553W        W78224  35.366  17.788   0.500
 6554W        W78225  23.982  16.578   0.033
 6555W        W78226  39.915   5.606   1.801
 6556W        W78227   7.118   0.794   2.738
 6557W        W78228  31.163  44.109   2.219
 6558W        W78229   5.375  29.679   1.325
 6559W        W78230  38.596  29.178   4.076
 6560W        W78231  38.410  13.307   3.223
 6561W        W78232   4.021  44.716  11.125
 6562W        W78233  25.747   2.453   0.402
 6563W        W78234  13.937  22.085   1.224
 6564W        W78235  37.411  18.999   2.423
 6565W        W78236  44.176  23.248  11.097
 6566W        W78237   2.916  39.598  10.687
 6567W        W78238  26.598  20.510  12.982
 6568W        W78239  27.983  23.600  12.801
 6569W        W78240   5.110  44.767  13.654
 6570W        W78241  40.379  20.279   1.056
 6571W        W78242  34.604  14.346  11.476
 6572W        W78243   4.483  35.500   0.031
 6573W        W78244   4.307  36.351   4.689
 6574W        W78245  30.948   0.433   4.686
 6575W        W78246  13.491  28.971   4.977
 6576W        W78247  27.631  31.612   3.468
 6577W        W78248  21.486  34.173  13.489
 6578W        W78249   7.958   6.259  10.724
 6579W        W78250   0.310  35.064  12.082
 6580W        W78251   4.721  23.491  12.113
 6581W        W78252  29.063  26.895  11.700
 6582W        W78253  13.689   3.981  14.968
 6583W        W78254  19.546  37.018   3.232
 6584W        W78255  39.283  41.948  13.865
 6585W        W78256   6.031  40.394   0.093
 6586W        W78257  26.296  28.345  11.791
 6587W        W78258  40.024  14.410  14.316
 6588W        W78259   6.428  39.512   0.420
 6589W        W78260  34.089   7.419   1.918
 6590W        W78261   6.733  14.236   2.499
 6591W        W78262  38.110  21.669   3.680
 6592W        W78263  15.771   8.820   1.083
 6593W        W78264  37.863  24.479   1.117
 6594W        W78265  39.082   3.214   4.648
 6595W        W78266  26.144   8.203  10.346
 6596W        W78267  22.154  10.794  10.697
 6597W        W78268  20.747  41.799  13.070
 6598W        W78269  43.750  32.799   2.669
 6599W        W78270   7.931  23.556   3.799
 6600W        W78271   4.837  38.189   0.485
 6601W        W78272  21.982   5.367   2.498
 6602W        W78273  18.252  31.993  12.557
 6603W        W78274  29.563  26.318   2.929
 6604W        W78275  24.913   2.259   0.938
 6605W        W78276   8.647  27.099   4.664
 6606W        W78277  33.048  10.811  12.526
 6607W        W78278   2.742  19.682  12.543
 6608W        W78279   0.761  21.648   3.622
 6609W        W78280  42.471  33.122  13.648
 6610W        W78281   7.567  22.769   4.336
 6611W        W78282   0.526   4.284   4.936
 6612W        W78283  30.101  43.910   0.258
 6613W        W78284  42.816   0.517  11.683
 6614W        W78285   5.408  17.337  12.485
 6615W        W78286   2.994   7.699  14.925
 6616W        W78287   4.869  30.062  10.664
 6617W        W78288  18.540  41.409  11.551
 6618W        W78289  40.606  39.771  14.232
 6619W        W78290  27.238  23.754   2.807
 6620W        W78291  41.448  32.952  13.598
 6621W        W78292  19.208   9.912   4.687
 6622W        W78293   8.401  39.177  11.230
 6623W        W78294   6.462  10.868   0.392
 6624W        W78295   6.370  16.962  13.940
 6625W        W78296  36.087  10.946  11.698
 6626W        W78297  20.150   9.213   4.353
 6627W        W78298  27.945  13.824   1.670
 6628W        W78299  11.764   1.158   0.389
 6629W        W78300   0.893   8.422   4.702
 6630W        W78301   0.310  36.530   1.192
 6631W        W78302   1.653  33.710  11.960
 6632W        W78303  44.443  32.991  10.638
 6633W        W78304  40.423  37.873   0.985
 6634W        W78305  29.042  22.841  12.613
 6635W        W78306  39.479  27.139  14.313
 6636W        W78307   6.151  44.425  11.927
 6637W        W78308   0.453  42.676  11.833
 6638W        W78309   8.153  12.045   1.491
 6639W        W78310  42.496   1.333   4.129
 6640W        W78311  17.374   7.822   1.859
 6641W        W78312  44.647  25.665   2.770
 6642W        W78313  19.142  30.953  11.930
 6643W        W78314  16.428  18.005  14.833
 6644W        W78315  17.267   1.483   0.433
 6645W        W78316  22.448  27.287  12.522
 6646W        W78317  22.820  13.716  10.699
 6647W        W78318  36.832   2.274   1.950
 6648W        W78319  31.980  41.826   1.008
 6649W        W78320   7.482   1.903   0.449
 6650W        W78321  24.731  20.782  10.211
 6651W        W78322   3.532  18.980   1.445
 6652W        W78323  25.051  37.969   3.163
 6653W        W78324  11.210  15.667  13.057
 6654W        W78325  43.498  27.006   0.913
 6655W        W78326  13.852  42.139  12.289
 6656W        W78327  29.073  44.075  13.404
 6657W        W78328  41.472   6.305   0.784
 6658W        W78329  43.216  44.853  13.932
 6659W        W78330  44.954  23.975  14.334
 6660W        W78331  44.758  20.697   9.800
 6661W        W78332  31.897  20.242   0.781
 6662W        W78333  35.951  27.235   1.816
 6663W        W78334  33.603  32.535   4.042
 6664W        W78335   2.921  42.214  13.471
 6665W        W78336  11.575  17.191   3.575
 6666W        W78337  12.187  10.414  13.493
 6667W        W78338  14.786  13.726   2.400
 6668W        W78339  24.156  11.867  10.600
 6669W        W78340   2.431  17.804  11.148
 6670W        W78341   4.509   3.395   2.851
 6671W        W78342  26.537  37.480   4.447
 6672W        W78343  17.458  22.006   1.873
 6673W        W78344   4.535  26.161   4.047
 6674W        W78345  40.530  44.409   2.799
 6675W        W78346  41.097  31.876   0.285
 6676W        W78347  33.114  14.773  11.943
 6677W        W78348   1.690  29.215  14.676
 6678W        W78349  17.324  32.185   4.085
 6679W        W78350  42.504  11.741  11.727
 6680W        W78351   3.793  17.881  13.529
 6681W        W78352   4.376  24.132   3.163
 6682W        W78353   6.275  38.293   0.828
 6683W        W78354  24.420  10.262  13.937
 6684W        W78355  42.835  42.246   3.914
 6685W        W78356  18.312  30.656  13.043
 6686W        W78357   6.636  21.149  12.325
 6687W        W78358   8.676   4.609  14.402
 6688W        W78359  15.560  11.629  13.285
 6689W        W78360  37.130  21.050   2.002
 6690W        W78361  23.150   3.374  11.713
 6691W        W78362   0.477   2.855  13.800
 6692W        W78363  27.248  38.544   3.398
 6693W        W78364  20.081  32.029   3.659
 6694W        W78365  33.651   6.327  10.452
 6695W        W78366  23.417  13.108  11.069
 6696W        W78367   6.198  34.689  10.760
 6697W        W78368  11.403  38.957   2.808
 6698W        W78369  31.066  37.532   3.035
 6699W        W78370   8.700   4.458  14.910
 6700W        W78371  11.438  12.154  11.635
 6701W        W78372  24.315   8.614   2.736
 6702W        W78373  15.715  44.753   2.415
 6703W        W78374  29.356  41.974   2.584
 6704W        W78375  26.911  24.061  10.827
 6705W        W78376  25.172  28.382   2.248
 6706W        W78377  36.192  21.245  12.916
 6707W        W78378   3.399  15.538  14.491
 6708W        W78379  11.031  39.585  13.497
 6709W        W78380  11.311  21.781   3.148
 6710W        W78381   7.887  22.501  13.063
 6711W        W78382   7.159   7.240  11.568
 6712W        W78383  29.672  43.255   1.238
 6713W        W78384  23.128   5.473   2.763
 6714W        W78385  34.912  29.168  10.212
 6715W        W78386  43.216   1.529   0.180
 6716W        W78387  44.354   8.804  14.203
 6717W        W78388  12.161   4.655  13.258
 6718W        W78389  14.706  14.698  12.718
 6719W        W78390   2.293  34.890  12.171
 6720W        W78391  20.532  22.628   4.818
 6721W        W78392  14.160   2.271   3.675
 6722W        W78393  22.961  43.945  13.431
 6723W        W78394   6.622  33.101   2.532
 6724W        W78395   0.517   3.438  11.519
 6725W        W78396   7.886  38.316   1.411
 6726W        W78397  10.427  31.541   3.789
 6727W        W78398  27.928  38.343   4.143
 6728W        W78399  42.545  31.166  14.528
 6729W        W78400  38.865  37.327  11.469
 6730W        W78401  21.536  12.156  14.326
 6731W        W78402  28.762  28.418  12.516
 6732W        W78403  34.102   0.315  12.462
 6733W        W78404  31.038   9.599  13.451
 6734W        W78405  31.135  29.600  12.932
 6735W        W78406   8.183   7.139  13.394
 6736W        W78407  26.693  28.937  13.775
 6737W        W78408   9.115  34.541   0.046
 6738W        W78409  29.565  41.528   5.096
 6739W        W78410  30.851  28.650   1.743
 6740W        W78411  30.926  22.212  12.081
 6741W        W78412   1.017  10.812   0.426
 6742W        W78413  28.608  40.453  11.617
 6743W        W78414  19.980   0.784  13.783
 6744W        W78415  19.169  23.407  13.526
 6745W        W78416  32.889   3.170  12.520
 6746W        W78417  20.253   2.244   0.979
 6747W        W78418  20.532  29.596   0.408
 6748W        W78419  24.029  28.791  14.010
 6749W        W78420  35.701  39.302   9.882
 6750W        W78421  22.573  19.828   4.291
 6751W        W78422  27.631  22.842  11.054
 6752W        W78423   3.425  36.507   0.394
 6753W        W78424  23.086   4.571   4.071
 6754W        W78425  41.431  29.045  14.905
 6755W        W78426   3.644  12.883   1.348
 6756W        W78427  22.107   5.323  13.456
 6757W        W78428   7.216  32.480   0.793
 6758W        W78429  31.461  42.787  11.925
 6759W        W78430  36.374  27.770  10.963
 6760W        W78431  23.049   2.311   3.659
 6761W        W78432  25.127  20.489  12.086
 6762W        W78433  13.260   3.065  13.838
 6763W        W78434   8.873  15.285   0.339
 6764W        W78435   6.416  32.684   3.284
 6765W        W78436  13.250  17.213   2.168
 6766W        W78437  43.049  26.982  13.889
 6767W        W78438   3.012  16.005   2.839
 6768W        W78439   7.188   5.218   0.447
 6769W        W78440  28.513  43.449  14.244
 6770W        W78441  32.151  18.634  12.079
 6771W        W78442  15.976  44.851   1.340
 6772W        W78443  17.654   6.872   3.732
 6773W        W78444  33.489   2.961  12.030
 6774W        W78445  42.420   3.810   4.588
 6775W        W78446   0.965   6.742   3.572
 6776W        W78447   3.649   9.116   2.195
 6777W        W78448  28.214  15.622  10.969
 6778W        W78449  36.571  26.097   0.393
 6779W        W78450  11.720   6.796  13.080
 6780W        W78451  17.684  33.333  14.051
 6781W        W78452  42.937   2.931   4.417
 6782W        W78453  35.325  44.753  10.437
 6783W        W78454  16.812   5.277   0.367
 6784W        W78455   2.824   8.549  14.476
 6785W        W78456  40.731   0.275  14.132
 6786W        W78457   2.947  17.547  11.928
 6787W        W78458  33.935  18.162  12.065
 6788W        W78459  18.108  37.307  13.767
 6789W        W78460  31.343  11.905   3.295
 6790W        W78461  37.120  15.193   3.556
 6791W        W78462  32.411  18.375  11.636
 6792W        W78463  37.159  16.276   0.778
 6793W        W78464  22.157  28.196   1.978
 6794W        W78465   4.959   5.265  12.031
 6795W        W78466  18.118   6.283   4.102
 6796W        W78467  40.290   6.791   2.916
 6797W        W78468  11.482   7.913   3.596
 6798W        W78469  18.697   0.756   0.847
 6799W        W78470  21.289   3.157  12.484
 6800W        W78471  30.631  36.019  14.760
 6801W        W78472  12.322  39.326  14.641
 6802W        W78473  39.937  13.718   3.738
 6803W        W78474  20.683  17.523   0.797
 6804W        W78475  36.769   8.521  14.261
 6805W        W78476   6.242  36.136   3.307
 6806W        W78477  15.891  20.660   5.092
 6807W        W78478  25.455   4.386   2.573
 6808W        W78479   1.898   0.409  13.910
 6809W        W78480  15.851   9.826   3.800
 6810W        W78481  36.947   1.094  14.531
 6811W        W78482  10.583  22.106  12.000
 6812W        W78483   6.138  30.118   2.618
 6813W        W78484   3.689  38.477   3.973
 6814W        W78485  25.999  16.089   4.136
 6815W        W78486  30.138   3.585   2.789
 6816W        W78487  32.602  25.695   0.240
 6817W        W78488  28.954  27.940  12.483
 6818W        W78489  35.412   7.726  11.539
 6819W        W78490  24.562  18.270   2.316
 6820W        W78491   4.298  41.824  13.987
 6821W        W78492  38.056   4.738   1.452
 6822W        W78493  24.447   1.261   0.684
 6823W        W78494  34.601  19.002  11.042
 6824W        W78495  39.082  25.764   5.212
 6825W        W78496  27.266   5.303  14.003
 6826W        W78497  13.331  32.943  14.249
 6827W        W78498  32.921  21.750  11.379
 6828W        W78499  44.384  19.003  12.353
 6829W        W78500  44.762  27.800  12.466
 6830W        W78501  22.226  36.568  11.160
 6831W        W78502  15.125  24.196   2.049
 6832W        W78503  35.616  39.069   3.368
 6833W        W78504   7.736  10.822  12.363
 6834W        W78505   6.709  36.096   0.305
 6835W        W78506   6.467  10.205  12.470
 6836W        W78507   2.486  42.240   4.103
 6837W        W78508  38.876  21.818  11.475
 6838W        W78509   8.245  35.891   2.706
 6839W        W78510  36.111   4.810  11.616
 6840W        W78511   3.443  38.967  14.752
 6841W        W78512   4.775  13.455  13.096
 6842W        W78513   6.430  14.258   1.199
 6843W        W78514  42.321  12.595  14.214
 6844W        W78515  11.626  17.054   0.305
 6845W        W78516  36.796  30.577  14.064
 6846W        W78517  30.302  11.044   4.091
 6847W        W78518   5.402  23.299   2.205
 6848W        W78519  27.960  43.882   2.310
 6849W        W78520  33.280  28.498   3.662
 6850W        W78521  31.514  30.586   4.571
 6851W        W78522  26.776   0.270  11.615
 6852W        W78523   4.217  18.650  11.047
 6853W        W78524  26.032  37.416   4.422
 6854W        W78525  15.706   5.775   1.219
 6855W        W78526  34.109  30.385  12.895
 6856W        W78527  18.165  34.921   0.268
 6857W        W78528  13.677   0.289  14.779
 6858W        W78529  12.919  13.260  14.554
 6859W        W78530  21.917   4.518   4.883
 6860W        W78531   4.010  27.590   4.604
 6861W        W78532  42.256  26.723  14.305
 6862W        W78533  23.947  23.417   0.171
 6863W        W78534   3.209   4.832  12.511
 6864W        W78535  33.595  11.196  12.204
 6865W        W78536   0.545  28.213  13.748
 6866W        W78537  18.152  13.358  12.113
 6867W        W78538  23.636  36.475  14.778
 6868W        W78539  41.918  43.223   3.595
 6869W        W78540  37.390   1.225   0.251
 6870W        W78541  24.246  21.790  11.478
 6871W        W78542  30.996  44.616   4.475
 6872W        W78543  16.823  20.719   3.729
 6873W        W78544  42.519  40.740   4.983
 6874W        W78545  15.677  12.772  13.052
 6875W        W78546  17.362   6.477  14.321
 6876W        W78547  25.895  31.028  14.300
 6877W        W78548   1.884   0.740  12.507
 6878W        W78549  21.040   6.769  12.498
 6879W        W78550  13.804  22.773  13.579
 6880W        W78551  16.854  31.278  12.035
 6881W        W78552  44.268  22.103   9.923
 6882W        W78553   5.929  12.334   3.319
 6883W        W78554  26.091   1.947  14.461
 6884W        W78555   6.362   3.308  13.484
 6885W        W78556   3.997  19.704  13.792
 6886W        W78557  23.602  17.166   2.993
 6887W        W78558  35.197  16.708   2.729
 6888W        W78559   0.031  14.057   9.959
 6889W        W78560   6.373  37.484   2.448
 6890W        W78561   9.916  43.992   3.620
 6891W        W78562  34.618  20.330  14.462
 6892W        W78563  28.997  21.314   0.862
 6893W        W78564  44.281   8.192   4.000
 6894W        W78565  14.819  33.382  13.475
 6895W        W78566  31.749  18.754   2.628
 6896W        W78567   5.155   2.401   0.736
 6897W        W78568  14.843   3.720  14.080
 6898W        W78569   1.784  40.547   1.588
 6899W        W78570  43.360  36.808  10.974
 6900W        W78571  43.837  20.509  13.024
 6901W        W78572   6.661  18.221   0.344
 6902W        W78573  36.536   2.044   4.627
 6903W        W78574   7.992  11.815  13.268
 6904W        W78575  35.348  13.834  10.700
 6905W        W78576  24.197  23.470  11.876
 6906W        W78577  36.538  16.957   1.756
 6907W        W78578  30.877  24.694   4.775
 6908W        W78579  28.757  36.057   4.684
 6909W        W78580  20.197  17.337   0.900
 6910W        W78581  18.887  28.166   1.785
 6911W        W78582  22.353  39.884  10.223
 6912W        W78583  11.143  31.126  13.103
 6913W        W78584   2.223   9.448  12.766
 6914W        W78585  26.359   3.087  10.337
 6915W        W78586  30.515  11.398  12.043
 6916W        W78587  24.527  20.562   4.685
 6917W        W78588  36.906   0.823  11.510
 6918W        W78589  39.317   0.821  13.098
 6919W        W78590   6.451  35.880   3.729
 6920W        W78591   9.701  24.080  13.738
 6921W        W78592  11.561   2.741   3.250
 6922W        W78593  36.997  40.704   4.642
 6923W        W78594   1.923  31.032  14.783
 6924W        W78595   0.788   2.201  14.402
 6925W        W78596  14.909  30.841   0.857
 6926W        W78597  17.557  13.260   0.694
 6927W        W78598   4.323  33.574   4.858
 6928W        W78599   9.578   1.230   3.844
 6929W        W78600  21.206  23.705   2.363
 6930W        W78601   8.797  31.358   4.738
 6931W        W78602  41.376  35.487  13.407
 6932W        W78603   1.965   4.426  14.373
 6933W        W78604  27.871  24.082  13.562
 6934W        W78605  15.548  39.462  14.768
 6935W        W78606  19.172  11.825  10.926
 6936W        W78607   1.149  31.499  11.375
 6937W        W78608   7.212  15.269  12.494
 6938W        W78609  22.238  40.810   0.330
 6939W        W78610  26.896  25.063   0.349
 6940W        W78611  43.265  18.063   3.600
 6941W        W78612  15.076  24.724  14.403
 6942W        W78613  15.873  24.222  14.302
 6943W        W78614  44.685  31.548  13.113
 6944W        W78615   4.804   9.619   4.689
 6945W        W78616   9.562  35.567   1.388
 6946W        W78617  36.823  19.085   0.350
 6947W        W78618  17.142  31.832  14.376
 6948W        W78619  13.691  28.397  11.177
 6949W        W78620  38.007  14.737   0.818
 6950W        W78621   0.845   1.233  12.846
 6951W        W78622  15.654  29.986   4.612
 6952W        W78623  42.505  34.359  11.228
 6953W        W78624  20.658  34.945  11.516
 6954W        W78625  28.915   3.255  13.988
 6955W        W78626  24.678   5.505  13.318
 6956W        W78627  38.017  28.199  13.040
 6957W        W78628  29.947  20.267  11.133
 6958W        W78629  44.007  36.648  11.967
 6959W        W78630  44.235  24.621   2.736
 6960W        W78631  15.191  24.269  12.514
 6961W        W78632  23.105   1.369   1.778
 6962W        W78633  39.175  42.731   3.527
 6963W        W78634  21.161  20.082  11.114
 6964W        W78635  38.547  21.864   2.879
 6965W        W78636   2.692  29.841   2.677
 6966W        W78637  34.882   2.313   3.125
 6967W        W78638  44.755  26.137   3.737
 6968W        W78639  14.320  10.171  14.048
 6969W        W78640  35.455  36.473   2.659
 6970W        W78641  29.599   3.847   0.780
 6971W        W78642  41.316   6.771   2.748
 6972W        W78643  34.401   3.243   2.146
 6973W        W78644  44.481  35.066   4.114
 6974W        W78645   9.181  30.463   0.772
 6975W        W78646  25.590   8.402  12.516
 6976W        W78647  40.286  13.150   2.779
 6977W        W78648  27.105  10.827  11.866
 6978W        W78649  41.433  25.638   3.190
 6979W        W78650  36.017  12.937  14.816
 6980W        W78651   6.260   3.261   4.468
 6981W        W78652  18.552   9.121  12.954
 6982W        W78653  32.531  15.795   4.293
 6983W        W78654  21.047   6.661   3.318
 6984W        W78655   1.435  44.913   3.239
 6985W        W78656  22.275  23.061  12.465
 6986W        W78657   4.790   7.957  13.402
 6987W        W78658  24.184   6.388   1.751
 6988W        W78659   8.874  43.401   2.519
 6989W        W78660   1.006  31.333   1.793
 6990W        W78661  28.729  28.045   2.139
 6991W        W78662  24.191  27.674  12.351
 6992W        W78663  13.352  18.129  14.539
 6993W        W78664  41.189  25.473   0.825
 6994W        W78665  35.947  35.651   2.271
 6995W        W78666  17.707   9.467  11.022
 6996W        W78667  24.609  21.463  14.267
 6997W        W78668  11.150  10.677   1.818
 6998W        W78669  14.575   1.051  10.266
 6999W        W78670  14.271   2.924  12.858
 7000W        W78671  13.277  13.726  11.348
 7001W        W78672  10.029  13.698   0.731
 7002W        W78673  38.772  28.489   2.744
 7003W        W78674  43.383  13.857  10.112
 7004W        W78675   5.979  42.083   2.656
 7005W        W78676   8.177  40.861  13.030
 7006W        W78677  39.794  40.425   0.676
 7007W        W78678  41.991  33.663  12.079
 7008W        W78679  37.904  11.595   3.695
 7009W        W78680  15.175  38.732  13.105
 7010W        W78681   5.813   5.276  12.898
 7011W        W78682  17.137  24.615   2.334
 7012W        W78683  25.546  36.335  13.224
 7013W        W78684  21.545  12.681   3.703
 7014W        W78685  39.331  15.991   3.262
 7015W        W78686  38.476   3.105   3.616
 7016W        W78687   8.841   4.752  10.399
 7017W        W78688   1.212  11.409   4.558
 7018W        W78689  31.917  25.373  12.382
 7019W        W78690  25.080  33.430  12.399
 7020W        W78691  30.656  29.976  11.514
 7021W        W78692  39.314  12.086  14.789
 7022W        W78693  20.033   9.598   0.393
 7023W        W78694  43.501  16.623  13.882
 7024W        W78695  42.566  26.647   4.333
 7025W        W78696   6.703  27.181   2.244
 7026W        W78697  32.922  29.683   4.312
 7027W        W78698   8.433  21.677   0.424
 7028W        W78699  16.801  28.480   3.339
 7029W        W78700  16.305   6.457   2.645
 7030W        W78701  39.023  41.268   4.079
 7031W        W78702  24.475   9.377  13.546
 7032W        W78703   4.863  27.448   0.143
 7033W        W78704  38.389  18.301  13.268
 7034W        W78705  10.270  40.239  14.345
 7035W        W78706  16.288  39.812   4.475
 7036W        W78707  10.276   2.447  14.272
 7037W        W78708  39.305  23.557   4.767
 7038W        W78709  35.413  35.911   1.970
 7039W        W78710  22.161  37.041  14.859
 7040W        W78711  31.459  38.835   0.384
 7041W        W78712  41.527  37.607  11.655
 7042W        W78713  18.740   0.361   1.909
 7043W        W78714  40.024  12.145  11.285
 7044W        W78715   4.400  29.088   0.541
 7045W        W78716  20.181   6.245   0.944
 7046W        W78717  18.747  18.729   2.760
 7047W        W78718  35.843   3.685   4.109
 7048W        W78719   2.799   8.396   1.010
 7049W        W78720  33.109  35.447   1.903
 7050W        W78721   7.071   2.271  10.879
 7051W        W78722  43.264  15.714   2.258
 7052W        W78723  25.212   3.423  12.091
 7053W        W78724  19.835  42.292  12.983
 7054W        W78725  40.223  33.082  11.619
 7055W        W78726  33.469  31.368  14.543
 7056W        W78727  23.193  38.180  14.360
 7057W        W78728   7.354   6.702   1.865
 7058W        W78729  29.720  19.053  13.880
 7059W        W78730  32.837  27.952  11.214
 7060W        W78731  27.397  31.987   2.231
 7061W        W78732  20.525  26.546   5.026
 7062W        W78733  33.911  40.518  13.311
 7063W        W78734  11.560  15.644   1.309
 7064W        W78735  37.011   6.572  14.864
 7065W        W78736  34.097  33.796   2.309
 7066W        W78737  37.416  43.097   4.207
 7067W        W78738   2.277  31.686   1.860
 7068W        W78739  24.056  44.537   0.192
 7069W        W78740   1.010  42.294   0.362
 7070W        W78741  35.464   1.277  14.303
 7071W        W78742  19.654  36.439  12.925
 7072W        W78743  18.187  38.695   3.712
 7073W        W78744  27.977  13.667  14.313
 7074W        W78745  31.903  33.434   4.627
 7075W        W78746  11.698   4.311   3.542
 7076W        W78747  25.750  23.777   0.369
 7077W        W78748  11.677  39.394   2.907
 7078W        W78749   7.184  42.816   1.759
 7079W        W78750  10.117  25.921  14.494
 7080W        W78751  43.256  29.352  13.859
 7081W        W78752  31.582   3.545   1.654
 7082W        W78753  36.296  11.774   4.633
 7083W        W78754   1.620  34.919   3.676
 7084W        W78755  40.803  20.288  12.083
 7085W        W78756   8.859  40.760  11.542
 7086W        W78757  29.628  39.375  13.029
 7087W        W78758   8.345  25.555  12.209
 7088W        W78759  25.676  25.705   2.282
 7089W        W78760  35.376  30.606  13.589
 7090W        W78761  40.908   7.570   4.106
 7091W        W78762   0.550  16.826   3.134
 7092W        W78763  28.031  30.647   1.846
 7093W        W78764  24.545  17.139  14.400
 7094W        W78765  38.589  37.521  11.057
 7095W        W78766  42.465  35.367  11.195
 7096W        W78767  18.364  35.027   3.276
 7097W        W78768  34.271  38.121   0.316
 7098W        W78769  29.942  10.212  10.197
 7099W        W78770   3.722  14.135  11.143
 7100W        W78771  33.517   0.986  11.323
 7101W        W78772  20.219  12.343  13.366
 7102W        W78773  21.997  12.782  14.066
 7103W        W78774  35.483  29.856   3.261
 7104W        W78775   5.037  39.353  14.036
 7105W        W78776  40.009  21.151   4.668
 7106W        W78777   6.497  40.959  12.162
 7107W        W78778  24.374  22.132  12.859
 7108W        W78779  43.858  30.993  10.835
 7109W        W78780  21.672  22.584   1.146
 7110W        W78781  32.348  39.457  11.963
 7111W        W78782  19.042   6.758  13.062
 7112W        W78783  14.050  25.178   3.667
 7113W        W78784   9.082   1.241   3.693
 7114W        W78785  26.354  29.230   3.684
 7115W        W78786  41.364  30.273   1.955
 7116W        W78787  15.404   3.214   1.388
 7117W        W78788  32.323  42.982  10.715
 7118W        W78789  30.282   4.058  13.374
 7119W        W78790  27.981  33.530   0.762
 7120W        W78791  15.585   9.485  11.474
 7121W        W78792  28.660  27.410  14.464
 7122W        W78793   2.933  21.483  11.601
 7123W        W78794   4.011  24.623  11.570
 7124W        W78795  21.313  16.979  11.650
 7125W        W78796  42.326  17.374   4.250
 7126W        W78797  38.067  39.041   0.702
 7127W        W78798   3.909  35.311   4.256
 7128W        W78799  28.432   1.508  11.903
 7129W        W78800  27.083   5.424   0.378
 7130W        W78801  37.780   9.864   3.924
 7131W        W78802  23.090   0.661   0.372
 7132W        W78803  39.054  24.449  10.959
 7133W        W78804   4.562  29.656  11.013
 7134W        W78805  23.767   2.754   0.924
 7135W        W78806  11.821   2.700  14.256
 7136W        W78807  30.035   4.144   1.438
 7137W        W78808   0.764   4.291  12.012
 7138W        W78809  20.210  25.168   2.883
 7139W        W78810  16.855   4.233  14.533
 7140W        W78811  15.777  19.175  13.480
 7141W        W78812  40.557  22.773  12.049
 7142W        W78813  21.760  12.674  10.682
 7143W        W78814  22.088   6.130   0.838
 7144W        W78815  16.200  43.271  10.694
 7145W        W78816   3.767  21.957  12.522
 7146W        W78817   5.825  29.150   1.897
 7147W        W78818  31.913  15.081   0.873
 7148W        W78819  37.752  12.620   4.053
 7149W        W78820  18.091  41.058   1.309
 7150W        W78821  35.621  34.876  13.363
 7151W        W78822  12.102  36.387   0.256
 7152W        W78823  28.094  24.754  10.951
 7153W        W78824   9.405  25.368   1.602
 7154W        W78825  13.706  32.000   0.772
 7155W        W78826  14.080   2.389   4.532
 7156W        W78827   3.884   0.667  10.977
 7157W        W78828  15.470  21.124   2.309
 7158W        W78829  40.609  28.015   3.740
 7159W        W78830  11.838  37.417   0.887
 7160W        W78831  43.288  40.770  12.873
 7161W        W78832  35.053  40.850   2.865
 7162W        W78833  37.446  42.476   3.276
 7163W        W78834  25.523  15.956  14.883
 7164W        W78835  19.123  15.783   2.167
 7165W        W78836  30.480   8.748  10.463
 7166W        W78837  13.959  19.486  13.477
 7167W        W78838  41.920  29.432   4.458
 7168W        W78839   5.688  15.177   4.571
 7169W        W78840  32.468  17.803   2.547
 7170W        W78841   4.441  24.161   4.583
 7171W        W78842  36.872  13.309   0.236
 7172W        W78843  14.167  14.743  12.009
 7173W        W78844   1.249  35.419   1.350
 7174W        W78845  38.137  30.441  11.625
 7175W        W78846  42.331  22.178   0.768
 7176W        W78847  32.667  36.358  14.393
 7177W        W78848  29.499  40.727  13.469
 7178W        W78849  23.535  22.602   3.171
 7179W        W78850  17.770   4.257  11.571
 7180W        W78851  20.704  19.195   3.358
 7181W        W78852  36.500  44.279  11.963
 7182W        W78853  17.359  33.717   0.780
 7183W        W78854  30.464  15.417   4.600
 7184W        W78855  18.288  30.425   2.247
 7185W        W78856  10.539   1.663  13.043
 7186W        W78857  39.459  13.922   2.245
 7187W        W78858  27.678  32.189   4.329
 7188W        W78859  12.219  36.303  12.399
 7189W        W78860   9.527  12.196  12.472
 7190W        W78861  15.121  41.702  14.443
 7191W        W78862   5.734  27.050   1.503
 7192W        W78863  14.499  20.755   2.901
 7193W        W78864  31.915  32.026  12.249
 7194W        W78865  37.390  21.758   4.140
 7195W        W78866  41.005  21.206  10.642
 7196W        W78867  28.081   1.952  13.978
 7197W        W78868  31.029  20.347   3.198
 7198W        W78869  23.867  32.971  12.540
 7199W        W78870  34.262  35.470  12.293
 7200W        W78871  42.951  34.350  11.576
 7201W        W78872  32.204   1.870  11.901
 7202W        W78873  11.236   4.529   0.404
 7203W        W78874  30.414  38.583  14.881
 7204W        W78875  31.178  30.244   2.836
 7205W        W78876  19.047  23.771  11.770
 7206W        W78877  19.084   7.288  11.955
 7207W        W78878   8.255  26.670   0.186
 7208W        W78879  23.403  22.547   2.232
 7209W        W78880  37.112  40.530   0.161
 7210W        W78881   4.204   0.445  12.402
 7211W        W78882  13.874   0.941  12.039
 7212W        W78883  43.861  44.611   3.639
 7213W        W78884  44.797  32.018  12.027
 7214W        W78885  29.657  14.721   2.405
 7215W        W78886  22.017  40.401  12.429
 7216W        W78887  35.597  19.498  10.676
 7217W        W78888  36.361  43.854   4.194
 7218W        W78889   1.233  19.210   3.965
 7219W        W78890   3.435  15.105  11.587
 7220W        W78891  40.564  21.027  12.415
 7221W        W78892  44.174   5.756  12.086
 7222W        W78893  22.740  40.732   2.869
 7223W        W78894  25.141  44.191  10.389
 7224W        W78895  21.266  34.392   0.369
 7225W        W78896   1.874  20.201  11.147
 7226W        W78897  33.330  25.649  12.510
 7227W        W78898  44.784  29.089  10.530
 7228W        W78899  10.636  23.356   0.676
 7229W        W78900   4.436   8.464   4.157
 7230W        W78901  25.662   6.628  12.118
 7231W        W78902  16.685  43.785   2.313
 7232W        W78903   2.987  42.965   3.277
 7233W        W78904   9.494  13.831   5.046
 7234W        W78905  37.668  32.511   3.759
 7235W        W78906  31.036   8.917  14.052
 7236W        W78907   0.013  17.943  12.060
 7237W        W78908  33.439  16.045   1.010
 7238W        W78909   2.521  30.566  14.512
 7239W        W78910  27.888  19.493  11.987
 7240W        W78911  32.075  21.030  11.097
 7241W        W78912  21.008  21.011  11.054
 7242W        W78913   3.375  24.797   2.230
 7243W        W78914   4.483  22.099  11.053
 7244W        W78915  21.291  26.477  14.639
 7245W        W78916   6.884  26.950  14.599
 7246W        W78917  38.686  10.124  10.152
 7247W        W78918  31.893  13.937   4.550
 7248W        W78919  14.204  15.383  13.583
 7249W        W78920   1.416  33.655   0.681
 7250W        W78921   8.407  34.886  10.445
 7251W        W78922   2.310  16.115  12.128
 7252W        W78923  42.112  14.204   4.534
 7253W        W78924  22.313  37.883  12.014
 7254W        W78925   8.292  14.068   0.294
 7255W        W78926  17.178  27.440  11.195
 7256W        W78927  31.455  20.505   0.836
 7257W        W78928   8.141  28.960   0.890
 7258W        W78929   8.345  44.797   4.557
 7259W        W78930  39.327  34.867   4.070
 7260W        W78931   1.894   4.796  11.614
 7261W        W78932   8.427  17.084   3.241
 7262W        W78933  43.075  14.743  12.934
 7263W        W78934   3.440  31.445  12.392
 7264W        W78935  29.595  35.351  12.427
 7265W        W78936  34.944  18.842   3.244
 7266W        W78937  22.104  33.805   2.257
 7267W        W78938  37.369  42.230   4.660
 7268W        W78939  30.676   7.521  14.917
 7269W        W78940  23.608  28.990   4.841
 7270W        W78941  37.097   2.132  11.229
 7271W        W78942  31.557  22.593  13.456
 7272W        W78943  25.738  36.279   1.885
 7273W        W78944   2.441  37.444  11.928
 7274W        W78945  26.071   5.630   0.261
 7275W        W78946  39.709  18.528  13.396
 7276W        W78947  38.762   1.432   3.940
 7277W        W78948  19.744   7.154  12.813
 7278W        W78949  26.183  14.292  11.142
 7279W        W78950  19.309  14.163   4.981
 7280W        W78951  41.222  11.623   4.166
 7281W        W78952   1.731  11.093  13.062
 7282W        W78953  14.271  14.826   0.009
 7283W        W78954  41.284  38.716   0.418
 7284W        W78955  34.994   9.324  10.789
 7285W        W78956  21.210  18.967   2.189
 7286W        W78957  11.738   0.499   4.524
 7287W        W78958   2.772   3.016  10.635
 7288W        W78959  12.393  15.142  10.755
 7289W        W78960  40.002  42.445   2.445
 7290W        W78961  13.284   0.928   4.251
 7291W        W78962  36.583   6.918   0.746
 7292W        W78963   3.862  17.314   3.630
 7293W        W78964  37.581  11.051  10.644
 7294W        W78965   5.319   3.177   0.375
 7295W        W78966  20.338  13.691  13.290
 7296W        W78967   7.362   3.621  13.458
 7297W        W78968  35.621  36.859  10.956
 7298W        W78969  18.110  10.636  11.598
 7299W        W78970  41.847  34.906  10.688
 7300W        W78971  17.124   7.736  11.863
 7301W        W78972  43.381  18.547  12.265
 7302W        W78973  42.327  10.678   3.091
 7303W        W78974  35.334  24.534  12.814
 7304W        W78975  19.575  34.651  12.528
 7305W        W78976  26.574  25.657   4.671
 7306W        W78977   9.535  26.787  10.864
 7307W        W78978  36.078   3.188   4.081
 7308W        W78979   3.302  22.058   0.291
 7309W        W78980  44.342  26.944   0.262
 7310W        W78981   3.732  33.044  13.912
 7311W        W78982  15.913  24.647  11.189
 7312W        W78983  12.284  22.258   3.889
 7313W        W78984   9.621  29.132  12.451
 7314W        W78985   5.410   7.436  14.942
 7315W        W78986  40.585  19.230   1.917
 7316W        W78987  44.266  32.063  12.007
 7317W        W78988  30.425  35.823  13.905
 7318W        W78989   1.231  36.980  11.059
 7319W        W78990  34.664  39.014  10.947
 7320W        W78991  20.330  13.698  12.789
 7321W        W78992   6.770   6.802  14.329
 7322W        W78993  10.314  40.022  11.750
 7323W        W78994   6.260  31.461   2.466
 7324W        W78995  36.004  41.789  13.556
 7325W        W78996  22.566  28.599  11.591
 7326W        W78997  35.859  13.297   0.176
 7327W        W78998  37.036  37.074  11.453
 7328W        W78999  14.193  34.520  13.892
 7329W        W79000  38.913  18.986   4.198
 7330W        W79001   3.452  35.482  12.142
 7331W        W79002  23.224  41.866  10.743
 7332W        W79003  34.597  38.368  13.138
 7333W        W79004   4.422  36.178  13.082
 7334W        W79005   4.423  19.498   1.277
 7335W        W79006  40.783  25.780   0.408
 7336W        W79007  15.157  10.174   1.245
 7337W        W79008  22.678   0.376   0.208
 7338W        W79009  19.540  17.676   3.239
 7339W        W79010  29.121  28.414   2.275
 7340W        W79011  36.476  13.581   2.857
 7341W        W79012  37.934  40.285   2.677
 7342W        W79013  38.340   5.127   4.601
 7343W        W79014  23.988  14.200   2.245
 7344W        W79015  17.268  44.255   4.242
 7345W        W79016  16.214  18.155  11.989
 7346W        W79017  11.894  10.469  13.935
 7347W        W79018   2.918  27.632   2.348
 7348W        W79019   7.539  37.160   0.005
 7349W        W79020  20.267  38.953   1.503
 7350W        W79021  40.627   8.699   1.341
 7351W        W79022   4.879  28.364  11.536
 7352W        W79023   4.714   5.289  12.907
 7353W        W79024  17.388   3.791   3.870
 7354W        W79025  20.248  32.952   1.820
 7355W        W79026   7.013   2.106   2.596
 7356W        W79027   4.799  13.464   5.142
 7357W        W79028  18.983  34.581  10.725
 7358W        W79029  33.378  10.157  12.737
 7359W        W79030  13.716  31.734   1.404
 7360W        W79031   8.941  20.729   1.765
 7361W        W79032   6.955  25.661   2.800
 7362W        W79033  17.082  42.413   0.282
 7363W        W79034  28.185   0.996  11.903
 7364W        W79035   8.911   3.953  14.828
 7365W        W79036  30.949  35.325  14.364
 7366W        W79037  18.786   3.090   2.741
 7367W        W79038   5.118  27.134  14.793
 7368W        W79039  29.437  21.476  10.592
 7369W        W79040  44.195  35.647  13.637
 7370W        W79041  28.560  34.708   1.996
 7371W        W79042  39.433  29.984  10.569
 7372W        W79043  18.517   8.238  10.462
 7373W        W79044  36.525  21.039  14.403
 7374W        W79045   5.919   0.317  13.477
 7375W        W79046   6.686  34.488   2.267
 7376W        W79047  10.206  20.110   4.989
 7377W        W79048  22.213   3.737   1.953
 7378W        W79049  27.160  23.780  11.196
 7379W        W79050  25.223  15.602  11.594
 7380W        W79051  12.871  33.596   3.552
 7381W        W79052  13.144   5.789  14.044
 7382W        W79053   5.027   5.233  13.319
 7383W        W79054  35.924  41.751   3.339
 7384W        W79055  15.156  23.928  14.851
 7385W        W79056   7.020  19.700  13.282
 7386W        W79057  34.850  23.117   5.102
 7387W        W79058  22.765  15.166   2.204
 7388W        W79059  33.468  39.472  11.078
 7389W        W79060  12.652  29.709  12.393
 7390W        W79061  36.018  12.868  11.117
 7391W        W79062  25.918  20.217  13.981
 7392W        W79063  30.938  35.852  14.380
 7393W        W79064  33.950  43.930   4.142
 7394W        W79065  36.942  15.555   1.794
 7395W        W79066  18.755  44.379   2.747
 7396W        W79067  10.322   9.232   0.529
 7397W        W79068   2.874  28.420   2.588
 7398W        W79069  23.077  14.103  10.433
 7399W        W79070  29.568  11.659   1.835
 7400W        W79071  27.281  44.826   4.188
 7401W        W79072   0.772  14.344   4.454
 7402W        W79073  21.609   6.298   3.342
 7403W        W79074  16.742   4.553  10.505
 7404W        W79075  33.275  22.783   4.594
 7405W        W79076  39.280  42.010   2.433
 7406W        W79077  28.234   0.769  11.449
 7407W        W79078   2.452   5.893  14.933
 7408W        W79079  30.480  38.106  14.716
 7409W        W79080  36.458  38.974   4.166
 7410W        W79081  31.832  41.970   3.642
 7411W        W79082   3.065  22.548  11.815
 7412W        W79083  16.095  37.555   3.391
 7413W        W79084  43.318  26.536  14.067
 7414W        W79085  37.361  15.073  11.908
 7415W        W79086  11.617  12.756   3.680
 7416W        W79087  17.792  28.105   4.279
 7417W        W79088  43.051  38.523  10.663
 7418W        W79089  17.448   8.362   1.731
 7419W        W79090  21.298  10.070  12.191
 7420W        W79091  13.643  31.229  13.565
 7421W        W79092  24.043  25.959   4.102
 7422W        W79093   2.983  25.135   4.167
 7423W        W79094   9.635  38.651   1.858
 7424W        W79095   7.198   5.979  11.143
 7425W        W79096  10.346  25.553   1.294
 7426W        W79097  15.785   2.427  12.564
 7427W        W79098  39.499  41.187  10.805
 7428W        W79099  27.938   8.803  12.437
 7429W        W79100  36.271  40.194   1.903
 7430W        W79101  40.304  32.741  14.868
 7431W        W79102  29.948   3.158  14.031
 7432W        W79103  31.535  23.520  10.406
 7433W        W79104  20.048  21.000  10.295
 7434W        W79105  21.114  18.027   3.433
 7435W        W79106  14.114  43.989   3.721
 7436W        W79107  35.981  30.254  10.610
 7437W        W79108  11.399  44.438  14.419
 7438W        W79109  21.271  42.012   0.801
 7439W        W79110  43.000   2.294  12.441
 7440W        W79111  19.846  42.170   3.698
 7441W        W79112  39.916  32.107  11.955
 7442W        W79113  24.215   7.715  10.946
 7443W        W79114  41.565  34.444   2.681
 7444W        W79115  34.470  23.743  14.545
 7445W        W79116  36.954   8.379  12.293
 7446W        W79117   8.351  29.425   1.948
 7447W        W79118  38.598   7.192  11.077
 7448W        W79119  22.325  17.365  10.886
 7449W        W79120   2.108   7.299  13.117
 7450W        W79121  17.711  25.594  12.514
 7451W        W79122  24.424  16.334   3.422
 7452W        W79123  16.540  24.676  12.890
 7453W        W79124  37.622  44.016  14.965
 7454W        W79125  20.036  34.172   4.223
 7455W        W79126  39.050  12.180  14.338
 7456W        W79127  36.052  19.777  14.407
 7457W        W79128   9.146  23.982   2.243
 7458W        W79129  16.609  17.015  13.838
 7459W        W79130  19.475  30.455   0.421
 7460W        W79131  23.493   5.902  12.058
 7461W        W79132   9.333  40.453   1.352
 7462W        W79133  34.088   6.391   0.675
 7463W        W79134  38.810  14.366  10.739
 7464W        W79135  34.930  35.557   2.328
 7465W        W79136  39.277   3.421  14.636
 7466W        W79137  17.836  39.124   4.212
 7467W        W79138  11.137   7.807   0.028
 7468W        W79139  34.957  39.334   2.788
 7469W        W79140  41.014   8.918  12.462
 7470W        W79141  33.285   6.921   4.198
 7471W        W79142   5.278  32.474  14.404
 7472W        W79143  42.231  30.716   4.754
 7473W        W79144  23.656  35.667  14.354
 7474W        W79145  25.558  29.666  12.841
 7475W        W79146  35.038  43.937  12.271
 7476W        W79147   6.648  23.167   0.949
 7477W        W79148  20.299  37.484  13.491
 7478W        W79149   8.363  22.190   0.274
 7479W        W79150  29.009  34.856   2.227
 7480W        W79151   4.006  32.426   0.296
 7481W        W79152  23.762   5.380   3.612
 7482W        W79153  27.969  16.540  11.289
 7483W        W79154  30.572  43.967   3.373
 7484W        W79155  25.372  29.526  14.995
 7485W        W79156   0.337  41.632  13.936
 7486W        W79157  19.212  18.796   4.271
 7487W        W79158  12.908  31.323  11.251
 7488W        W79159  26.342  10.587  12.442
 7489W        W79160   6.678  40.791   0.779
 7490W        W79161  39.224   5.309   2.289
 7491W        W79162  12.695  43.048  14.071
 7492W        W79163  12.082  19.972   0.537
 7493W        W79164  40.496  26.799   4.591
 7494W        W79165  18.969   9.702   1.930
 7495W        W79166  24.191  33.019   1.695
 7496W        W79167   3.676   3.316   3.235
 7497W        W79168  30.970  36.303   4.235
 7498W        W79169   7.397  28.367  14.420
 7499W        W79170  18.537  37.952   3.887
 7500W        W79171   3.139  41.054   4.234
 7501W        W79172  36.280  39.278   3.609
 7502W        W79173  41.237  32.211   5.327
 7503W        W79174   5.811  20.619  14.225
 7504W        W79175  18.323  18.224  14.751
 7505W        W79176   1.707   5.936   2.568
 7506W        W79177  27.010  42.327   4.512
 7507W        W79178  40.759   9.016  11.130
 7508W        W79179  33.928   3.085   2.364
 7509W        W79180  26.970  34.725  12.717
 7510W        W79181  24.842  43.939  12.112
 7511W        W79182  29.390   7.183   1.797
 7512W        W79183  33.603  25.696  11.142
 7513W        W79184  14.722  16.829  13.574
 7514W        W79185  13.790  17.805  13.446
 7515W        W79186  41.511  35.876   1.266
 7516W        W79187  27.602  11.778   3.876
 7517W        W79188   2.228   1.155   4.978
 7518W        W79189  31.041  39.158  11.049
 7519W        W79190  37.404  20.232   3.416
 7520W        W79191   6.276  11.951  11.044
 7521W        W79192   7.656   2.776  12.509
 7522W        W79193  32.637   2.754   3.287
 7523W        W79194  27.242   2.468   2.785
 7524W        W79195  22.895   6.190   2.256
 7525W        W79196   2.767  41.249  11.160
 7526W        W79197  42.929  24.080  13.009
 7527W        W79198  38.988   5.095  12.594
 7528W        W79199  16.997  19.060   3.120
 7529W        W79200  42.576  13.769   1.234
 7530W        W79201  33.497  31.872  14.414
 7531W        W79202  17.771  34.544   1.956
 7532W        W79203  29.664  38.630  11.035
 7533W        W79204  13.483   9.790  10.747
 7534W        W79205  28.438   0.773  12.933
 7535W        W79206   4.834   6.670  13.021
 7536W        W79207  18.297  18.518  14.313
 7537W        W79208  36.514  12.072  12.600
 7538W        W79209   1.764  33.034   3.633
 7539W        W79210  14.738  43.830  13.902
 7540W        W79211  36.419  35.867   3.997
 7541W        W79212  25.307  23.617   4.537
 7542W        W79213  26.138   2.201   1.442
 7543W        W79214   6.404  15.616  13.475
 7544W        W79215  12.264  27.219  14.348
 7545W        W79216  19.795  42.458  12.097
 7546W        W79217  27.242  21.455   1.451
 7547W        W79218  10.945  29.598   2.973
 7548W        W79219  40.023   2.144  10.736
 7549W        W79220  36.818   8.017   2.948
 7550W        W79221  21.727  38.995  13.821
 7551W        W79222  11.583  42.845   4.421
 7552W        W79223  37.666  34.581   2.590
 7553W        W79224  23.917  37.018   0.879
 7554W        W79225   3.463  19.259  14.236
 7555W        W79226   4.027  14.647   3.175
 7556W        W79227  17.380   1.725   1.294
 7557W        W79228  14.182   5.227   3.713
 7558W        W79229  22.691  18.491   3.597
 7559W        W79230  18.600  32.450   4.397
 7560W        W79231  11.760  43.731  12.914
 7561W        W79232  14.879  13.217   1.691
 7562W        W79233  35.046   5.963   1.340
 7563W        W79234  38.430   1.380   0.993
 7564W        W79235  21.955  38.356   5.364
 7565W        W79236  21.228  10.838   3.702
 7566W        W79237  19.528  39.805  10.731
 7567W        W79238  12.834   0.981  10.745
 7568W        W79239  37.726  22.739   0.242
 7569W        W79240  22.743   5.597   4.753
 7570W        W79241  38.046  44.333   0.902
 7571W        W79242  29.581  28.971   3.737
 7572W        W79243  23.705  42.049  12.992
 7573W        W79244  24.803  35.938   2.797
 7574W        W79245  28.222  19.265   2.977
 7575W        W79246  41.402  25.563   1.301
 7576W        W79247  35.177  37.636   0.447
 7577W        W79248   6.349  17.818   0.318
 7578W        W79249  38.016  12.857   4.434
 7579W        W79250  43.350  33.583   2.630
 7580W        W79251  40.046  12.727   2.633
 7581W        W79252  32.926   9.699  13.974
 7582W        W79253  22.473  35.897  14.701
 7583W        W79254  26.554  20.189  11.655
 7584W        W79255   4.955  10.419  14.433
 7585W        W79256  21.006  20.268  14.864
 7586W        W79257  24.263  39.912   2.558
 7587W        W79258   5.012  14.317   4.175
 7588W        W79259  38.605  23.030   4.895
 7589W        W79260  19.230  21.734   4.151
 7590W        W79261   2.818  29.211  10.640
 7591W        W79262  36.107  33.496  11.256
 7592W        W79263   6.703  39.511   0.872
 7593W        W79264  10.182  44.496   3.848
 7594W        W79265  26.954  18.721   2.803
 7595W        W79266  36.907  12.241   3.903
 7596W        W79267  32.580  13.712   0.403
 7597W        W79268  19.884   7.897   2.604
 7598W        W79269  42.370   3.526   0.358
 7599W        W79270  18.584   1.345   2.299
 7600W        W79271   5.301   4.958  13.730
 7601W        W79272  27.420  26.610  14.980
 7602W        W79273  32.939  44.754  11.555
 7603W        W79274  33.816  37.105  11.858
 7604W        W79275   2.787  29.733  10.774
 7605W        W79276  24.648  21.559  13.273
 7606W        W79277  37.468  26.942  11.915
 7607W        W79278  20.981   3.429   0.244
 7608W        W79279  39.987  19.955  10.710
 7609W        W79280  35.535  13.199   3.367
 7610W        W79281  22.017  43.577  11.930
 7611W        W79282  31.065   8.919   1.926
 7612W        W79283  39.738  14.063  11.017
 7613W        W79284  30.863   7.390   4.193
 7614W        W79285   8.655  44.328   3.610
 7615W        W79286   1.238  27.629  11.114
 7616W        W79287  18.290  35.166  11.150
 7617W        W79288  29.010   2.534  10.982
 7618W        W79289  42.433  40.800  13.051
 7619W        W79290  26.779  31.246   5.229
 7620W        W79291  20.362  16.709  12.188
 7621W        W79292  26.023  12.608   4.433
 7622W        W79293  33.828  44.295   2.886
 7623W        W79294  33.764  34.305  12.769
 7624W        W79295  33.644  13.208   2.894
 7625W        W79296  41.781  14.656  11.741
 7626W        W79297  18.850  12.361   0.805
 7627W        W79298  22.985  13.787   4.008
 7628W        W79299  12.690  13.539  14.968
 7629W        W79300  10.814  24.561  14.448
 7630W        W79301   5.422  42.500   3.153
 7631W        W79302  13.098  21.319   1.317
 7632W        W79303  41.389  43.360   4.068
 7633W        W79304   8.186  15.347   0.846
 7634W        W79305  15.724  43.802  14.913
 7635W        W79306   8.790  15.798   0.162
 7636W        W79307   0.207  37.440  14.599
 7637W        W79308  29.131  27.289  12.929
 7638W        W79309  20.788  42.361  13.790
 7639W        W79310  15.132  43.019   0.058
 7640W        W79311  17.294  23.661   4.463
 7641W        W79312  29.416  40.407   4.206
 7642W        W79313  23.431  10.384   0.289
 7643W        W79314  40.868   6.867  12.523
 7644W        W79315  38.034   8.872   2.937
 7645W        W79316   7.654  16.293   3.705
 7646W        W79317   2.141  35.963  14.377
 7647W        W79318  43.045  44.211  11.168
 7648W        W79319  23.504  32.471  11.182
 7649W        W79320  10.376  10.797  14.759
 7650W        W79321  34.851  24.992  10.168
 7651W        W79322   1.894  37.627   2.673
 7652W        W79323  44.240  26.142  12.572
 7653W        W79324  25.175  40.052   3.006
 7654W        W79325  13.783  17.846  11.138
 7655W        W79326   6.891  23.244  14.999
 7656W        W79327  36.895  33.430  12.064
 7657W        W79328  18.341  33.126  11.145
 7658W        W79329  38.733   2.959  10.661
 7659W        W79330   6.371  25.928  11.151
 7660W        W79331  36.344  33.072  13.882
 7661W        W79332  25.622  14.377   1.910
 7662W        W79333  20.241   3.212  12.384
 7663W        W79334   8.321  18.710   2.348
 7664W        W79335  24.661  40.136   3.698
 7665W        W79336  27.412  28.001   4.658
 7666W        W79337  20.771  43.198   2.308
 7667W        W79338  24.755  23.072   0.253
 7668W        W79339   1.513  42.262   4.373
 7669W        W79340  11.365  21.954   2.668
 7670W        W79341  25.857   7.771   9.834
 7671W        W79342  36.919  41.091   4.000
 7672W        W79343  36.499  27.923   0.461
 7673W        W79344  26.267   3.473   4.213
 7674W        W79345   0.136  27.759   3.208
 7675W        W79346  27.691  21.494   3.814
 7676W        W79347  25.050  12.202   0.364
 7677W        W79348  43.495  33.463   1.797
 7678W        W79349  21.311   6.398   4.242
 7679W        W79350  17.745  36.485   2.280
 7680W        W79351  10.293   1.964   0.534
 7681W        W79352  20.306  42.097  13.818
 7682W        W79353  25.560  41.820  11.169
 7683W        W79354  27.247  42.350  14.028
 7684W        W79355  19.930  37.863  10.925
 7685W        W79356  16.978  17.757  12.531
 7686W        W79357  10.038  11.435   3.281
 7687W        W79358  24.075   0.158  11.059
 7688W        W79359   4.209   3.323  10.747
 7689W        W79360   7.855  14.663  13.432
 7690W        W79361  38.332  11.939  13.848
 7691W        W79362  20.293  37.070  11.352
 7692W        W79363  37.283  26.230  14.521
 7693W        W79364  38.032  32.984  12.487
 7694W        W79365   7.790  23.740  11.577
 7695W        W79366   6.815  32.337  13.472
 7696W        W79367  35.107  34.081  14.319
 7697W        W79368  41.035  43.385   3.714
 7698W        W79369  28.172  15.289   2.796
 7699W        W79370   5.680   2.918   4.654
 7700W        W79371   7.799  33.274  10.586
 7701W        W79372  22.764  28.076   3.214
 7702W        W79373  10.828  29.884  12.074
 7703W        W79374  30.407   6.891  10.556
 7704W        W79375   0.575  43.292  11.130
 7705W        W79376  35.782   5.482   0.249
 7706W        W79377  42.482   6.844  11.691
 7707W        W79378   4.558  43.146   4.792
 7708W        W79379  13.265  23.084  13.443
 7709W        W79380  37.793   1.784  14.902
 7710W        W79381  37.936  30.245   1.449
 7711W        W79382  24.923  32.396  11.128
 7712W        W79383  12.653  42.564  13.868
 7713W        W79384  42.597  32.911   3.212
 7714W        W79385   5.444  14.807   2.435
 7715W        W79386  28.558   6.956   1.150
 7716W        W79387  39.018  10.718  13.369
 7717W        W79388  42.730  30.654  14.589
 7718W        W79389  37.817  19.228  14.205
 7719W        W79390  29.097  29.028   1.400
 7720W        W79391  26.637  41.079  14.432
 7721W        W79392   3.714  11.339  12.266
 7722W        W79393  18.161  37.560   0.876
 7723W        W79394  24.638  14.610  11.216
 7724W        W79395  36.200  31.920  11.240
 7725W        W79396  43.780   8.847  12.143
 7726W        W79397  37.561   2.968   0.206
 7727W        W79398   0.298  42.909  12.251
 7728W        W79399  29.082   1.879  11.753
 7729W        W79400  38.325  17.458  14.392
 7730W        W79401  18.327  44.441   0.922
 7731W        W79402   8.303  39.330   1.403
 7732W        W79403  15.034   8.749  14.622
 7733W        W79404  16.126  38.257  11.714
 7734W        W79405  27.154   4.819  14.987
 7735W        W79406   2.201  21.820   0.911
 7736W        W79407  43.597  20.183   2.690
 7737W        W79408  33.026  38.700   0.905
 7738W        W79409  29.530  20.710   2.222
 7739W        W79410  39.334  21.022  12.926
 7740W        W79411  39.973   8.142   5.055
 7741W        W79412  25.033   2.735   1.186
 7742W        W79413  17.628  30.854  12.004
 7743W        W79414  37.487  25.666   2.437
 7744W        W79415  41.994   7.861   3.541
 7745W        W79416  20.225  21.659   0.747
 7746W        W79417  19.349  35.864  11.114
 7747W        W79418   5.779  32.862  13.841
 7748W        W79419  36.023  22.938   1.573
 7749W        W79420  28.454  18.961  12.946
 7750W        W79421  17.096  18.054  13.110
 7751W        W79422   3.652  28.319   2.262
 7752W        W79423  33.932  17.228   1.775
 7753W        W79424  36.412   0.739  11.678
 7754W        W79425  11.244  29.079   0.220
 7755W        W79426   4.519  35.131  12.884
 7756W        W79427  39.423  14.371  11.806
 7757W        W79428  43.591  41.830   1.883
 7758W        W79429  17.135   3.154   3.273
 7759W        W79430  20.679  38.709  11.628
 7760W        W79431  44.280  21.945   0.436
 7761W        W79432  34.841   1.809  11.188
 7762W        W79433  14.665  11.492  11.698
 7763W        W79434   1.350  10.638   4.139
 7764W        W79435  40.539   9.452   1.880
 7765W        W79436  44.517  29.522  10.676
 7766W        W79437  41.486   2.901  13.905
 7767W        W79438  29.461  17.474  14.184
 7768W        W79439  37.499  16.178   3.738
 7769W        W79440  35.956  21.312   0.595
 7770W        W79441  15.803   3.255  11.827
 7771W        W79442  16.237  11.759   0.034
 7772W        W79443  11.532  12.818  13.873
 7773W        W79444  23.551  23.533   0.852
 7774W        W79445  37.282  41.391   3.487
 7775W        W79446  29.915  40.497   3.117
 7776W        W79447  41.043  44.992  12.427
 7777W        W79448  40.271  23.622   1.329
 7778W        W79449  15.201  42.710  12.530
 7779W        W79450  42.515   8.758   1.182
 7780W        W79451  17.166  32.125  12.116
 7781W        W79452  11.207   8.310  11.043
 7782W        W79453  29.914  18.533   1.909
 7783W        W79454  13.739  26.226   4.998
 7784W        W79455   7.708   9.367   3.132
 7785W        W79456  38.734  40.642   1.462
 7786W        W79457  22.226  13.036   0.895
 7787W        W79458   3.190  29.922  14.352
 7788W        W79459  19.383  23.622   1.165
 7789W        W79460  29.176  19.524   0.432
 7790W        W79461  39.354  28.184   3.784
 7791W        W79462  25.546  19.768   1.628
 7792W        W79463  40.395  38.852   1.764
 7793W        W79464  16.740  37.535  13.884
 7794W        W79465  27.267  12.685   3.116
 7795W        W79466   5.509  35.032  12.904
 7796W        W79467  36.450  37.043   5.284
 7797W        W79468   7.846  32.046   4.193
 7798W        W79469   5.712  44.303   1.913
 7799W        W79470  25.984  14.650   0.725
 7800W        W79471  38.961   2.194  14.342
 7801W        W79472  22.088  11.091  11.121
 7802W        W79473   2.371  30.879   4.081
 7803W        W79474   8.209   3.932   2.266
 7804W        W79475  21.017  17.480   4.157
 7805W        W79476  36.942  38.346   0.304
 7806W        W79477  13.662  13.104  12.328
 7807W        W79478  40.094  22.471  14.404
 7808W        W79479  22.343  33.051  11.919
 7809W        W79480  22.477   6.134  10.636
 7810W        W79481  41.527   3.164   0.366
 7811W        W79482  32.436  19.699   1.725
 7812W        W79483  42.820  21.455   0.390
 7813W        W79484  38.845  27.581  12.187
 7814W        W79485   2.959  10.783   4.277
 7815W        W79486   1.832  10.807   3.375
 7816W        W79487  21.438   5.771  12.007
 7817W        W79488   1.332  43.244  13.363
 7818W        W79489  29.219  14.721   0.516
 7819W        W79490  19.636  11.936   0.262
 7820W        W79491  32.416  26.932   1.007
 7821W        W79492  24.642  21.735   4.106
 7822W        W79493  19.528  39.325   0.914
 7823W        W79494  21.329  13.832  10.821
 7824W        W79495  37.546  20.284   0.463
 7825W        W79496  19.574  15.048  12.068
 7826W        W79497  37.630   1.204  13.031
 7827W        W79498  36.038   6.318   3.449
 7828W        W79499  43.576  16.806   1.732
 7829W        W79500   6.120  19.012   4.023
 7830W        W79501  28.500   6.816  11.028
 7831W        W79502   5.207   0.369   3.754
 7832W        W79503   1.136  14.382   2.256
 7833W        W79504  12.681   8.771   0.348
 7834W        W79505  36.735   5.593   0.165
 7835W        W79506  39.480  26.742   4.128
 7836W        W79507   0.961   0.701  14.803
 7837W        W79508  44.069  26.311   5.122
 7838W        W79509  13.264  26.056   4.164
 7839W        W79510  27.445  23.316   4.180
 7840W        W79511   6.367  20.571  12.037
 7841W        W79512  35.080  38.278  11.908
 7842W        W79513  42.850  20.563   3.143
 7843W        W79514  29.976  16.216   1.059
 7844W        W79515   6.615  18.677  14.236
 7845W        W79516  43.509   9.705   3.841
 7846W        W79517  37.608  32.897  14.411
 7847W        W79518   0.874   1.544   3.834
 7848W        W79519  12.342  33.464   0.873
 7849W        W79520  12.143  37.807   1.719
 7850W        W79521  18.301  17.964   1.712
 7851W        W79522  23.576  32.887   3.807
 7852W        W79523  43.286   7.491   1.789
 7853W        W79524  41.673  25.293   5.089
 7854W        W79525  24.747  16.325   2.469
 7855W        W79526  33.127  37.331   3.630
 7856W        W79527   3.120  41.723   0.799
 7857W        W79528  31.065  27.137   4.663
 7858W        W79529   6.445  43.201  14.855
 7859W        W79530  28.245  18.078   0.289
 7860W        W79531  37.583  25.670  10.661
 7861W        W79532  15.021   3.108  11.418
 7862W        W79533  33.002  26.410  12.906
 7863W        W79534   7.861  34.824  12.168
 7864W        W79535   2.967  16.050  11.571
 7865W        W79536   6.301   7.789  12.865
 7866W        W79537  35.707   9.225   2.892
 7867W        W79538  24.916  27.247   3.646
 7868W        W79539  23.936  31.534  11.448
 7869W        W79540  20.724   8.380  13.510
 7870W        W79541  44.228  18.702  12.722
 7871W        W79542  15.927  28.924   1.785
 7872W        W79543  23.430  13.444   4.181
 7873W        W79544  15.842  37.469   0.658
 7874W        W79545  44.849  12.660   9.500
 7875W        W79546  25.688  38.304   4.880
 7876W        W79547  41.359  34.038  14.574
 7877W        W79548  18.054   5.057   1.619
 7878W        W79549  13.177   1.060   2.174
 7879W        W79550  22.309  20.962  11.633
 7880W        W79551  35.905  15.960  12.077
 7881W        W79552  15.684  10.227   0.463
 7882W        W79553  42.264  32.749   3.667
 7883W        W79554   6.693  31.582   0.771
 7884W        W79555  29.899  23.922  12.557
 7885W        W79556  30.555  18.042  12.440
 7886W        W79557  30.563   2.845  14.796
 7887W        W79558   8.314  23.844   0.959
 7888W        W79559  18.764  38.596   0.461
 7889W        W79560   7.432  32.396   3.179
 7890W        W79561   8.721  26.269  13.615
 7891W        W79562  32.461  38.826   4.128
 7892W        W79563  15.841   8.024   5.041
 7893W        W79564  30.681  37.399  14.480
 7894W        W79565   3.056  11.165   2.146
 7895W        W79566  29.508  25.519  11.717
 7896W        W79567  41.855  29.543  12.492
 7897W        W79568   8.785  13.949   2.387
 7898W        W79569  10.918  30.367  14.806
 7899W        W79570  36.852  18.572   0.273
 7900W        W79571  14.073  28.166   3.224
 7901W        W79572  39.546   4.905   3.201
 7902W        W79573  30.044  39.880   3.773
 7903W        W79574  40.766  21.690   2.271
 7904W        W79575  36.069   1.080  11.954
 7905W        W79576   5.621   3.459  12.900
 7906W        W79577  11.047  30.348   0.328
 7907W        W79578  37.240  18.729   1.668
 7908W        W79579  30.018  14.195   4.360
 7909W        W79580  25.232   8.293   0.813
 7910W        W79581  43.956  40.788  10.643
 7911W        W79582  32.015  39.339  10.380
 7912W        W79583  40.892  21.873   3.976
 7913W        W79584  18.243   5.199   4.195
 7914W        W79585   8.351  35.354   3.575
 7915W        W79586  22.190   2.413  11.130
 7916W        W79587   7.688  43.343  11.620
 7917W        W79588  16.100  23.970  10.622
 7918W        W79589  40.827  34.046  13.937
 7919W        W79590  31.626  42.190  13.958
 7920W        W79591  24.282  18.295  13.856
 7921W        W79592  39.383  19.232  11.107
 7922W        W79593  38.302  20.079   3.707
 7923W        W79594  11.501  44.441   2.272
 7924W        W79595  41.345  12.711  10.265
 7925W        W79596   2.843  23.677   0.861
 7926W        W79597  13.159  20.297   2.849
 7927W        W79598  32.536  15.515  14.848
 7928W        W79599  41.965  17.082  10.347
 7929W        W79600  40.877  19.747  12.020
 7930W        W79601   9.178  40.626  14.432
 7931W        W79602  26.165  38.424  12.938
 7932W        W79603  14.006   0.307  12.016
 7933W        W79604  41.212  22.610  13.566
 7934W        W79605  13.455  44.268  13.486
 7935W        W79606  18.606  13.567  10.671
 7936W        W79607   1.204  36.399  11.939
 7937W        W79608   0.404  20.029  11.178
 7938W        W79609  25.087  41.002   3.896
 7939W        W79610  38.863  40.821  14.615
 7940W        W79611  29.893  12.807   0.669
 7941W        W79612  21.338  19.443   1.248
 7942W        W79613  29.181   3.453  13.605
 7943W        W79614  20.120  31.071   3.411
 7944W        W79615  28.926   9.754  12.444
 7945W        W79616  26.258  27.322  14.345
 7946W        W79617  39.879  29.622  13.305
 7947W        W79618  32.372  28.063   0.669
 7948W        W79619  15.340  27.902   3.658
 7949W        W79620  33.077   3.326   4.279
 7950W        W79621   3.520  39.087   3.213
 7951W        W79622  16.277  29.347   3.230
 7952W        W79623  43.328  29.165   4.686
 7953W        W79624  23.922  11.765   4.078
 7954W        W79625  41.274  24.129   3.689
 7955W        W79626  33.631  44.128   3.629
 7956W        W79627  34.938  25.965   2.215
 7957W        W79628  33.775  18.568  13.430
 7958W        W79629  25.179  14.130   1.692
 7959W        W79630  42.284  19.700  12.652
 7960W        W79631  27.244  13.899   3.654
 7961W        W79632   9.860   3.495   0.212
 7962W        W79633  28.789  41.322   3.072
 7963W        W79634  36.875   8.924  11.575
 7964W        W79635   6.618  12.180  12.389
 7965W        W79636  43.364  23.594   2.823
 7966W        W79637  12.797  17.500  14.153
 7967W        W79638  18.097  12.636   1.146
 7968W        W79639   5.294  40.031  14.473
 7969W        W79640  37.282  31.847  13.917
 7970W        W79641   7.157  24.256   2.460
 7971W        W79642   1.963  27.977   4.021
 7972W        W79643   5.269  29.214   3.618
 7973W        W79644  21.723   2.738   3.715
 7974W        W79645  34.035  16.161   4.177
 7975W        W79646  25.947  36.781   3.848
 7976W        W79647   3.410  27.990  14.948
 7977W        W79648   5.483  21.130  13.207
 7978W        W79649  28.458  30.104   1.362
 7979W        W79650  25.151  34.923   0.077
 7980W        W79651  44.409   9.726   0.060
 7981W        W79652  36.292  12.348  12.979
 7982W        W79653  10.143  16.932   3.821
 7983W        W79654  43.306   3.889   4.272
 7984W        W79655  35.163  31.654   3.096
 7985W        W79656  10.684  18.140   0.342
 7986W        W79657  17.464  41.411   1.018
 7987W        W79658  34.385  38.405  13.614
 7988W        W79659   6.720  17.741  13.538
 7989W        W79660  15.798  16.875  14.401
 7990W        W79661  22.682  34.733  11.202
 7991W        W79662   0.240  15.135  12.948
 7992W        W79663  38.985  33.614   5.026
 7993W        W79664  40.522  20.034   2.611
 7994W        W79665  24.900  11.278   4.822
 7995W        W79666  41.426  38.559   4.214
 7996W        W79667  40.890  40.077   4.464
 7997W        W79668  15.756   2.440   2.222
 7998W        W79669  37.793  39.564   2.326
 7999W        W79670  39.916  14.303   1.703
 8000W        W79671  23.279  10.363   4.117
 8001W        W79672  10.624  11.715   0.172
 8002W        W79673  44.198  15.022  11.011
 8003W        W79674  30.056  18.662   1.435
 8004W        W79675  13.314  39.828  12.067
 8005W        W79676  21.564  26.093   2.310
 8006W        W79677  24.652   3.058  13.372
 8007W        W79678  32.464  42.707   1.747
 8008W        W79679  11.387   5.699  11.544
 8009W        W79680  40.500  41.010   3.665
 8010W        W79681   3.677   3.187   1.912
 8011W        W79682  31.215   3.225  11.534
 8012W        W79683  14.517  19.739  13.156
 8013W        W79684  36.434  27.097   3.384
 8014W        W79685   3.105   0.025   0.435
 8015W        W79686  24.496  21.503   3.680
 8016W        W79687  40.527  15.722   2.879
 8017W        W79688  35.988   7.279  12.652
 8018W        W79689  33.094  29.444   0.707
 8019W        W79690  20.985  15.269  14.492
 8020W        W79691  11.859  40.838  13.900
 8021W        W79692  19.182  16.512   0.233
 8022W        W79693  12.895   1.507   2.198
 8023W        W79694   8.189  43.800  10.808
 8024W        W79695   3.997   3.432   1.561
 8025W        W79696  37.551  30.807  13.703
 8026W        W79697  20.738  23.125   4.993
 8027W        W79698  36.341   5.121   1.695
 8028W        W79699  36.418  26.017  14.870
 8029W        W79700   2.409  24.253   4.352
 8030W        W79701  13.785  17.332   1.415
 8031W        W79702  24.611  44.298  11.123
 8032W        W79703  17.340  43.824   4.629
 8033W        W79704  36.586  42.478  12.353
 8034W        W79705  26.059  14.672   1.927
 8035W        W79706  33.627  18.329  12.500
 8036W        W79707  38.596  22.677  14.302
 8037W        W79708   4.442   5.696   3.831
 8038W        W79709  15.256  37.574  10.764
 8039W        W79710   2.569  38.204   3.259
 8040W        W79711  44.357   1.898  13.768
 8041W        W79712  35.376  41.438   1.171
 8042W        W79713  26.122   5.477  10.739
 8043W        W79714  11.890  25.640   0.693
 8044W        W79715  11.076  16.823   0.258
 8045W        W79716  44.895  41.593  12.809
 8046W        W79717  44.836  14.859  11.080
 8047W        W79718  24.456  42.882  13.308
 8048W        W79719  28.033  39.503  14.169
 8049W        W79720   5.164  31.045   0.490
 8050W        W79721   2.456  33.374  14.896
 8051W        W79722  43.590   3.297   2.396
 8052W        W79723  24.407  37.784   0.872
 8053W        W79724  37.010  11.268   4.142
 8054W        W79725  25.912  29.455  13.784
 8055W        W79726   1.853  34.149   4.636
 8056W        W79727  27.006  27.851   4.951
 8057W        W79728   8.445  39.333  12.753
 8058W        W79729  26.999  16.262  11.072
 8059W        W79730  44.423  24.022  14.860
 8060W        W79731  27.079  12.693   1.826
 8061W        W79732  43.101  12.134   1.002
 8062W        W79733  18.078  15.599  10.405
 8063W        W79734  10.321  24.071   0.075
 8064W        W79735  27.683  23.359  14.361
 8065W        W79736   8.946   9.482   4.985
 8066W        W79737  23.733  20.020   2.279
 8067W        W79738  28.232  43.442  13.272
 8068W        W79739   6.227  19.965   0.955
 8069W        W79740  18.144  24.522   1.267
 8070W        W79741  22.248  16.901  10.663
 8071W        W79742   2.898  11.756  11.944
 8072W        W79743  18.595  12.306   5.033
 8073W        W79744  11.684  17.741  13.882
 8074W        W79745   8.440  43.034   2.147
 8075W        W79746  40.738  37.588   2.190
 8076W        W79747  36.306  10.919  10.681
 8077W        W79748  11.608  22.640  12.033
 8078W        W79749   6.818  24.704  11.639
 8079W        W79750  25.162   9.323  12.418
 8080W        W79751   6.950  33.849   4.495
 8081W        W79752  10.605  18.497   1.929
 8082W        W79753   9.933  30.925  11.996
 8083W        W79754  43.061   4.211  12.917
 8084W        W79755  19.789  14.802   3.674
 8085W        W79756  41.878  11.399  11.735
 8086W        W79757  39.335  29.705   2.779
 8087W        W79758  42.009  18.577   0.917
 8088W        W79759  12.157   4.818  11.771
 8089W        W79760  33.382   3.597   1.353
 8090W        W79761  22.624   3.955   4.566
 8091W        W79762  38.082  16.190   4.621
 8092W        W79763  13.158  31.547   3.526
 8093W        W79764   3.684   0.139  14.229
 8094W        W79765  24.225  44.143   4.543
 8095W        W79766  38.008  12.459   4.808
 8096W        W79767  37.599  20.937   2.880
 8097W        W79768  41.248  14.157   2.754
 8098W        W79769  29.088  33.586  10.496
 8099W        W79770  26.552  14.511   1.830
 8100W        W79771  41.877  27.060   4.207
 8101W        W79772  21.008  21.248  11.562
 8102W        W79773  22.660   5.225  12.489
 8103W        W79774   6.348  23.913  11.801
 8104W        W79775  13.371  34.849   4.283
 8105W        W79776   2.457  28.380  11.502
 8106W        W79777   0.449  30.498  12.999
 8107W        W79778  19.211  32.472  12.121
 8108W        W79779  34.747  31.942   0.965
 8109W        W79780   2.282   2.323  10.816
 8110W        W79781  36.959  12.404  14.007
 8111W        W79782  26.732  16.691   3.213
 8112W        W79783   7.835  29.220   4.740
 8113W        W79784  20.152   7.216   0.563
 8114W        W79785  16.079   7.822   2.229
 8115W        W79786  28.464  35.621   1.289
 8116W        W79787  15.635  30.028   9.932
 8117W        W79788   0.670  30.010   3.416
 8118W        W79789   0.961   2.991  14.008
 8119W        W79790   9.431  30.067   0.432
 8120W        W79791   1.787  43.481  13.124
 8121W        W79792  37.918  43.598   2.378
 8122W        W79793  33.128  22.184  11.205
 8123W        W79794   0.726  12.699  11.215
 8124W        W79795  12.197   8.263  11.629
 8125W        W79796  23.740  44.755  12.869
 8126W        W79797  21.512   9.683  12.468
 8127W        W79798  32.966  12.595   2.151
 8128W        W79799  24.777   8.976  13.460
 8129W        W79800  43.353   1.056  11.228
 8130W        W79801  39.964  30.787   1.257
 8131W        W79802  19.882   9.746   3.908
 8132W        W79803  13.028  19.268  13.672
 8133W        W79804  23.253  21.507  11.957
 8134W        W79805  32.821   5.347  14.324
 8135W        W79806  12.278  31.469   3.760
 8136W        W79807   1.796  33.116  11.101
 8137W        W79808  32.642  27.498  12.404
 8138W        W79809  12.714  37.123   2.637
 8139W        W79810  18.970  22.211  13.098
 8140W        W79811  37.881   2.951   4.212
 8141W        W79812  17.001  37.914   4.094
 8142W        W79813   7.210  22.440  10.604
 8143W        W79814   6.723  34.563   0.717
 8144W        W79815   9.244  41.399   1.180
 8145W        W79816  34.915  31.167  10.734
 8146W        W79817  22.667  10.669   3.629
 8147W        W79818  20.159  13.316  11.934
 8148W        W79819  13.529   1.997  12.953
 8149W        W79820  30.934  38.857   1.254
 8150W        W79821  10.854  36.963   0.375
 8151W        W79822  14.701  17.142   2.641
 8152W        W79823   2.353  39.110  13.763
 8153W        W79824  11.141  29.044  12.941
 8154W        W79825  36.544   8.278   1.820
 8155W        W79826  18.187  27.091  10.433
 8156W        W79827  24.512  12.818  14.902
 8157W        W79828   4.087  28.185   2.544
 8158W        W79829  26.702   1.963   4.121
 8159W        W79830  25.724  17.849   1.329
 8160W        W79831   8.588  36.661  12.753
 8161W        W79832  16.596  11.848  10.789
 8162W        W79833  40.728  40.261   0.014
 8163W        W79834  36.778  14.279  12.347
 8164W        W79835  38.062  26.998   4.588
 8165W        W79836  31.928  37.273   0.678
 8166W        W79837  29.494  31.586   1.471
 8167W        W79838  12.910  13.323   4.144
 8168W        W79839  42.239  36.014   3.635
 8169W        W79840  15.183   4.708   2.311
 8170W        W79841  18.045  24.788  14.927
 8171W        W79842  21.229  17.527  12.529
 8172W        W79843  28.076  22.481  11.487
 8173W        W79844   3.447  33.464  14.024
 8174W        W79845   5.266  25.723  11.096
 8175W        W79846   3.015  15.182   4.925
 8176W        W79847  14.482  18.448  12.874
 8177W        W79848  22.149  23.705   1.430
 8178W        W79849  21.204  24.065  11.391
 8179W        W79850   7.911  31.564   1.306
 8180W        W79851   7.445  35.311   2.957
 8181W        W79852  14.715  27.150   2.606
 8182W        W79853   1.774  41.679   4.936
 8183W        W79854  33.919   2.454  12.532
 8184W        W79855  35.104  13.954   9.878
 8185W        W79856  24.016   2.838  13.950
 8186W        W79857   0.636  23.073  11.129
 8187W        W79858  32.288  12.900  12.962
 8188W        W79859  37.853  14.989   2.580
 8189W        W79860  10.707  34.911   1.211
 8190W        W79861  19.150  32.847  14.102
 8191W        W79862  26.167  35.054   1.410
 8192W        W79863   1.711  39.557   3.767
 8193W        W79864  11.070   6.474   0.247
 8194W        W79865  24.934   9.925   4.727
 8195W        W79866  43.910   8.889  14.462
 8196W        W79867  40.041  35.768  12.575
 8197W        W79868  16.553  41.866   2.386
 8198W        W79869  19.021  17.262  12.538
 8199W        W79870  40.517   0.789   2.689
 8200W        W79871  21.347  28.349   2.488
 8201W        W79872  36.101  15.061   1.868
 8202W        W79873  28.498  14.242   4.603
 8203W        W79874   0.272  31.537  11.173
 8204W        W79875  10.303  12.773  13.117
 8205W        W79876  40.418  34.368   1.405
 8206W        W79877  18.200  18.726   2.800
 8207W        W79878  39.783  14.356   3.606
 8208W        W79879  27.931  31.351   4.396
 8209W        W79880  21.951  40.380   4.583
 8210W        W79881  24.705  30.419   2.319
 8211W        W79882  36.107  10.674  13.536
 8212W        W79883  15.185  16.923   3.774
 8213W        W79884  41.082  39.799   4.883
 8214W        W79885   6.584  14.036  12.545
 8215W        W79886  16.795  10.753  11.375
 8216W        W79887  17.854   6.315  12.668
 8217W        W79888  33.953  21.117   2.266
 8218W        W79889  43.918  44.702   2.595
 8219W        W79890  28.128  24.115  14.015
 8220W        W79891  13.349   1.846  11.929
 8221W        W79892  26.100  34.487   3.663
 8222W        W79893   3.337   7.091   0.319
 8223W        W79894  36.224  11.870  11.679
 8224W        W79895  11.902  20.236   4.674
 8225W        W79896   6.255  28.586   0.823
 8226W        W79897  29.706   7.246  14.891
 8227W        W79898   7.744  16.070  10.798
 8228W        W79899  14.282   8.445   4.443
 8229W        W79900  19.609  22.632  11.091
 8230W        W79901   3.868  22.092   2.901
 8231W        W79902  31.899  23.969  13.409
 8232W        W79903   3.442  29.950   4.500
 8233W        W79904  43.514  15.780  11.843
 8234W        W79905  13.139   5.155   0.019
 8235W        W79906   6.339  21.311  13.799
 8236W        W79907  26.040  35.791  14.396
 8237W        W79908  39.435   7.454   1.270
 8238W        W79909  43.469  34.442   4.657
 8239W        W79910   0.337  10.158  13.897
 8240W        W79911  41.930  13.038  14.934
 8241W        W79912  13.166  19.214  14.149
 8242W        W79913  28.201   7.996   1.866
 8243W        W79914  12.167  17.978   3.279
 8244W        W79915   0.009  14.400  11.298
 8245W        W79916  40.472   0.432  11.566
 8246W        W79917   3.047  39.313   2.432
 8247W        W79918  23.123  18.534  11.346
 8248W        W79919  18.133  34.453   2.329
 8249W        W79920  32.636  21.286   2.343
 8250W        W79921   7.206  24.397   0.258
 8251W        W79922  34.455  10.887   4.607
 8252W        W79923  12.049  41.014  11.608
 8253W        W79924  11.057  30.645  13.333
 8254W        W79925  44.937  13.832  12.614
 8255W        W79926  44.772  36.747   0.929
 8256W        W79927  20.999  38.016  11.965
 8257W        W79928  33.525  25.426  10.712
 8258W        W79929  34.132  37.334  10.557
 8259W        W79930  31.489  40.311   1.329
 8260W        W79931  11.257  27.490  11.833
 8261W        W79932  31.139  34.107  14.902
 8262W        W79933  28.868  43.248  11.102
 8263W        W79934  39.107  23.061   5.095
 8264W        W79935   5.983  38.867  11.986
 8265W        W79936  40.277  36.668   3.647
 8266W        W79937  39.327   4.204   1.129
 8267W        W79938   2.828  10.747   2.388
 8268W        W79939  25.314   1.012   4.036
 8269W        W79940  12.251  22.202  13.627
 8270W        W79941  25.882  15.544   4.189
 8271W        W79942  35.484  40.379  12.637
 8272W        W79943  25.463  29.598  14.494
 8273W        W79944  11.604   3.523   2.326
 8274W        W79945  32.085   2.356   0.077
 8275W        W79946  23.119  27.937  11.841
 8276W        W79947  30.824   4.272   0.308
 8277W        W79948  17.926   3.195  13.513
 8278W        W79949  43.381  37.364   0.038
 8279W        W79950  35.425  16.224  10.790
 8280W        W79951  36.123  22.684  11.758
 8281W        W79952  34.179  13.351   1.188
 8282W        W79953  18.613   8.382  14.543
 8283W        W79954  29.442  15.855  14.894
 8284W        W79955   2.896  42.102  11.506
 8285W        W79956  11.144  14.070   3.665
 8286W        W79957  37.084   3.013   1.421
 8287W        W79958  19.156  13.204   4.919
 8288W        W79959  41.668  39.074   5.323
 8289W        W79960   0.957  18.727   2.598
 8290W        W79961  41.999  23.178  13.524
 8291W        W79962   9.458  29.525   0.070
 8292W        W79963  19.732  35.255   4.429
 8293W        W79964  34.574  10.426  14.303
 8294W        W79965  43.357   7.307  12.577
 8295W        W79966  12.107  44.708   2.790
 8296W        W79967  21.027  24.025   3.797
 8297W        W79968  36.022   8.372   3.222
 8298W        W79969   7.408   1.500   0.812
 8299W        W79970  10.801  27.511  12.136
 8300W        W79971   2.755   6.411   4.228
 8301W        W79972   1.793  43.445   2.265
 8302W        W79973  33.149  13.343   2.890
 8303W        W79974  29.483   0.413   4.815
 8304W        W79975  34.496  25.282  14.190
 8305W        W79976  21.520  27.608  14.463
 8306W        W79977  41.306  44.800   2.180
 8307W        W79978  13.148  13.230  13.142
 8308W        W79979  41.242  19.805  12.432
 8309W        W79980  44.350  27.436   4.169
 8310W        W79981  22.006  11.262  10.451
 8311W        W79982  11.713  35.427   4.079
 8312W        W79983  21.981  19.546   3.291
 8313W        W79984  37.043  30.077  13.932
 8314W        W79985  32.467   1.980  14.907
 8315W        W79986  28.144  35.742  11.171
 8316W        W79987  24.368  34.464  11.487
 8317W        W79988  29.332  25.218  12.973
 8318W        W79989  38.438  21.020   2.608
 8319W        W79990  28.068  42.258   3.684
 8320W        W79991  36.032  36.307   4.601
 8321W        W79992   8.995  37.414  11.044
 8322W        W79993  37.099  41.982   0.724
 8323W        W79994  28.444  23.564   2.295
 8324W        W79995  26.141  27.712   3.224
 8325W        W79996  12.254   0.839  12.524
 8326W        W79997  24.032   2.909  12.483
 8327W        W79998  19.488   3.350  11.188
 8328W        W79999  43.790  39.439  12.553
 8329W        W80000  28.549  14.303   2.416
 8330W        W80001   0.259  22.810  13.265
 8331W        W80002  14.570  14.205   3.838
 8332W        W80003  28.612  33.921  11.745
 8333W        W80004  17.668  12.345   5.019
 8334W        W80005   7.241  31.583   3.565
 8335W        W80006  30.892  14.094   0.849
 8336W        W80007  17.757  37.885   3.832
 8337W        W80008  32.261  17.587  12.958
 8338W        W80009  43.983  36.947   0.589
 8339W        W80010  16.726   7.160   5.680
 8340W        W80011   2.519  24.703   0.339
 8341W        W80012  27.165   3.569   5.074
 8342W        W80013  36.949  30.844  10.798
 8343W        W80014  18.419  17.052   2.746
 8344W        W80015  26.992  11.156   2.329
 8345W        W80016   6.278  27.029  10.715
 8346W        W80017  10.221   8.627   2.765
 8347W        W80018  37.566   1.280   1.649
 8348W        W80019  17.585  24.040  13.479
 8349W        W80020  24.115  18.044  10.648
 8350W        W80021  37.491   9.259   2.892
 8351W        W80022  14.276  28.353  12.954
 8352W        W80023  27.521  41.252  11.339
 8353W        W80024   5.900  28.959   4.269
 8354W        W80025  11.630   4.703   0.805
 8355W        W80026   0.018  24.012  12.092
 8356W        W80027  41.442  12.752  11.535
 8357W        W80028  31.186  22.459  12.477
 8358W        W80029  30.389  33.892  12.703
 8359W        W80030  28.985  25.096  10.584
 8360W        W80031  34.092  27.490  14.986
 8361W        W80032   1.872   2.273   4.505
 8362W        W80033  20.975  16.664   1.958
 8363W        W80034  31.932  38.320  11.976
 8364W        W80035  28.095  44.790   3.626
 8365W        W80036  42.033  44.678   3.100
 8366W        W80037  32.280   2.817  13.917
 8367W        W80038   9.300   6.942   3.680
 8368W        W80039   9.447  38.780  14.036
 8369W        W80040   6.816   4.429  10.812
 8370W        W80041  38.871  27.138   3.090
 8371W        W80042  34.160   2.469   3.779
 8372W        W80043   0.332  12.734   4.077
 8373W        W80044  39.554  42.747   3.195
 8374W        W80045   6.685   0.571  13.823
 8375W        W80046   6.655  21.546   4.886
 8376W        W80047  19.012  43.085   3.357
 8377W        W80048  31.006  40.939  14.995
 8378W        W80049   4.150  39.413  13.005
 8379W        W80050  34.623   0.411  14.387
 8380W        W80051  14.915  24.648   0.657
 8381W        W80052  13.747   1.872   2.185
 8382W        W80053  18.003  10.243   1.422
 8383W        W80054  13.691   1.836  14.262
 8384W        W80055  29.439  35.849   1.597
 8385W        W80056   5.247  42.400   0.050
 8386W        W80057  39.511  43.526   4.662
 8387W        W80058  42.518  13.742   2.633
 8388W        W80059  17.861  22.648   4.550
 8389W        W80060  26.784  41.348  12.086
 8390W        W80061  41.276  27.698  10.583
 8391W        W80062  18.659  25.588   1.741
 8392W        W80063   2.744  41.752  11.144
 8393W        W80064  26.312  28.195   1.776
 8394W        W80065  22.258  25.162  11.882
 8395W        W80066  28.058  26.378  12.484
 8396W        W80067  11.683   8.468  14.050
 8397W        W80068  12.285   2.257   3.947
 8398W        W80069  24.758  15.538  11.918
 8399W        W80070  20.570  19.275  13.318
 8400W        W80071  18.605  36.147  12.026
 8401W        W80072  33.155  38.507  14.282
 8402W        W80073  38.530   1.462  11.567
 8403W        W80074  31.546  17.128  13.985
 8404W        W80075  22.808  34.906   3.515
 8405W        W80076  38.038  26.544  14.216
 8406W        W80077  39.591   9.740  14.718
 8407W        W80078  11.881   5.235   3.666
 8408W        W80079  15.175  43.997  12.945
 8409W        W80080  32.011  22.062  14.347
 8410W        W80081   4.902  10.317   0.770
 8411W        W80082  38.561  10.640   2.285
 8412W        W80083   3.121  25.546   0.855
 8413W        W80084   8.417  24.236  11.128
 8414W        W80085  13.239   2.802  11.926
 8415W        W80086   7.865  35.235  14.552
 8416W        W80087  39.128  24.644   0.386
 8417W        W80088  42.465  10.364   2.240
 8418W        W80089  18.586   2.252   0.891
 8419W        W80090  39.314  31.475  11.356
 8420W        W80091  20.077  32.103  14.856
 8421W        W80092  44.449  22.431  11.503
 8422W        W80093  23.272  41.807   5.570
 8423W        W80094  43.574  24.219  10.137
 8424W        W80095   4.289   6.571   2.112
 8425W        W80096  15.596  24.730  14.995
 8426W        W80097  15.147  25.707  12.629
 8427W        W80098  32.611  31.574  12.057
 8428W        W80099  44.207   3.340   4.585
 8429W        W80100  15.071  32.493  13.978
 8430W        W80101  12.114  41.591  12.804
 8431W        W80102  10.268  40.528  11.963
 8432W        W80103   2.345  11.376   0.416
 8433W        W80104  20.631   3.721  14.473
 8434W        W80105  35.568   1.492   2.190
 8435W        W80106  40.278   2.677   0.899
 8436W        W80107  20.690  13.716   2.440
 8437W        W80108  15.394  33.003   3.232
 8438W        W80109  24.616  31.327  14.577
 8439W        W80110  29.945  39.973   3.260
 8440W        W80111  21.208   0.094  13.998
 8441W        W80112  29.379  23.046   4.126
 8442W        W80113  40.908  17.521  13.473
 8443W        W80114  32.480   6.827  13.119
 8444W        W80115  29.708  39.667  11.160
 8445W        W80116   7.572  24.594   3.358
 8446W        W80117  36.500  15.693   4.602
 8447W        W80118   7.951  42.985   0.747
 8448W        W80119   6.623  11.330   4.800
 8449W        W80120   7.366  11.363  11.992
 8450W        W80121  28.078   2.368  11.152
 8451W        W80122   1.825  32.719   4.034
 8452W        W80123  17.736  39.562  13.936
 8453W        W80124  34.911  16.428   3.519
 8454W        W80125  16.851  25.015  10.413
 8455W        W80126  40.911  22.782   0.752
 8456W        W80127  28.475   1.280   4.276
 8457W        W80128  28.355  15.327  12.050
 8458W        W80129   2.994  20.607   4.806
 8459W        W80130  32.159  42.467  14.746
 8460W        W80131  16.751  43.846  13.991
 8461W        W80132  22.538   8.860   5.041
 8462W        W80133   5.612   3.945  10.688
 8463W        W80134   6.993  34.489  11.673
 8464W        W80135  12.909  24.665   0.404
 8465W        W80136  37.587  30.614   2.172
 8466W        W80137  39.078  30.038   1.762
 8467W        W80138  42.317  19.462  14.035
 8468W        W80139  18.424   5.855   3.134
 8469W        W80140   2.423   6.944   0.848
 8470W        W80141  16.628   3.891   2.643
 8471W        W80142  14.240  28.048  11.969
 8472W        W80143  41.273  40.944   0.005
 8473W        W80144  23.691   9.920   0.777
 8474W        W80145  32.580  28.476  13.868
 8475W        W80146   1.446  24.139   3.384
 8476W        W80147  14.554  41.443  13.930
 8477W        W80148  33.635  22.769  13.318
 8478W        W80149  31.080   2.249   3.761
 8479W        W80150  32.392  17.302   2.662
 8480W        W80151  41.807  43.126  13.071
 8481W        W80152  37.890  22.856  13.919
 8482W        W80153  39.873   5.458   2.774
 8483W        W80154  14.132  24.937  11.854
 8484W        W80155  20.875  43.426  13.772
 8485W        W80156  31.532   8.877   2.157
 8486W        W80157  18.997  44.554   1.220
 8487W        W80158   6.692   8.178  10.738
 8488W        W80159  38.085  44.806  10.658
 8489W        W80160  23.068   2.065   3.192
 8490W        W80161  32.125  28.736  13.901
 8491W        W80162  14.109  21.959  13.621
 8492W        W80163  36.889  12.852  12.644
 8493W        W80164  19.091  11.794   4.598
 8494W        W80165   8.311  26.056  14.443
 8495W        W80166  23.760  42.363  14.041
 8496W        W80167  22.168  13.949  12.380
 8497W        W80168  20.494  16.523  14.245
 8498W        W80169  33.370  36.590  13.059
 8499W        W80170  22.388  31.090   1.546
 8500W        W80171  37.821  37.896  11.066
 8501W        W80172  40.997   3.458  11.565
 8502W        W80173  42.098  22.746  13.207
 8503W        W80174  35.990  10.210   1.005
 8504W        W80175  14.999  18.984  12.900
 8505W        W80176  32.634  27.101  11.290
 8506W        W80177   0.576  37.878   2.849
 8507W        W80178  16.712  22.223  12.546
 8508W        W80179  29.961  40.019  13.927
 8509W        W80180  11.706  24.726  13.400
 8510W        W80181  27.113  19.203   4.312
 8511W        W80182  13.576  41.294  12.540
 8512W        W80183  41.573   6.148  12.899
 8513W        W80184  39.658  40.888  13.046
 8514W        W80185  14.699  16.682   2.875
 8515W        W80186   2.966  12.223   2.936
 8516W        W80187  32.698  16.062  11.627
 8517W        W80188   2.662  32.944  11.068
 8518W        W80189  36.010  22.248  10.799
 8519W        W80190  29.983  44.377  12.881
 8520W        W80191  14.232   4.389   2.165
 8521W        W80192  17.687  36.337  11.044
 8522W        W80193  33.649  22.029   0.455
 8523W        W80194  34.910  37.540  12.745
 8524W        W80195  18.903  14.009   2.329
 8525W        W80196   0.904   5.947  13.160
 8526W        W80197   3.738  31.993   4.707
 8527W        W80198  21.021  18.199   2.418
 8528W        W80199  38.398  17.414   3.741
 8529W        W80200  38.014  39.572  14.010
 8530W        W80201  36.128  12.166   4.087
 8531W        W80202  36.041   8.218   0.934
 8532W        W80203  37.143  41.082   0.815
 8533W        W80204  27.150  25.479   4.112
 8534W        W80205  39.890   2.761   3.187
 8535W        W80206   8.615   9.342  11.849
 8536W        W80207  28.997  31.219  14.484
 8537W        W80208  39.057   8.955  14.432
 8538W        W80209  20.516  29.718  13.093
 8539W        W80210  26.238  27.756  14.624
 8540W        W80211  38.785  19.953   4.629
 8541W        W80212   9.962  21.534   1.863
 8542W        W80213  17.804  33.924   0.551
 8543W        W80214   8.200  10.305   0.445
 8544W        W80215  26.421  12.662   2.284
 8545W        W80216  15.366  24.295  13.528
 8546W        W80217  30.087  14.716  11.630
 8547W        W80218   6.332   8.504  13.121
 8548W        W80219  25.908  16.419   1.476
 8549W        W80220  42.929   0.462  10.276
 8550W        W80221  30.002  20.220   3.297
 8551W        W80222  13.737  12.445  11.137
 8552W        W80223  43.275   1.253   4.625
 8553W        W80224  22.151  25.428  13.252
 8554W        W80225  12.351  20.471  11.129
 8555W        W80226  11.118  41.887   4.088
 8556W        W80227  19.992   4.572  12.069
 8557W        W80228  37.551  12.774   0.208
 8558W        W80229  42.298   9.647  13.884
 8559W        W80230  33.239  15.609   0.310
 8560W        W80231  17.227   5.047   1.778
 8561W        W80232  42.672   2.933   3.422
 8562W        W80233  27.430  10.458   4.578
 8563W        W80234  44.671  12.689  10.687
 8564W        W80235  22.989  26.007   0.018
 8565W        W80236  40.223   1.943   1.214
 8566W        W80237  22.553  23.389   3.437
 8567W        W80238  15.636   6.321  12.020
 8568W        W80239  10.122  32.646   1.378
 8569W        W80240   2.862   4.473   2.210
 8570W        W80241  15.325   7.374  13.918
 8571W        W80242   0.308  33.463  10.671
 8572W        W80243  39.466  34.335  11.550
 8573W        W80244   8.948  35.695  12.140
 8574W        W80245   7.372  15.680   1.281
 8575W        W80246  41.439  22.788   0.788
 8576W        W80247  34.017  22.124  12.014
 8577W        W80248  42.275   8.408   3.260
 8578W        W80249  44.551  36.272  13.553
 8579W        W80250  32.182   9.297   4.643
 8580W        W80251  17.597   1.736   3.131
 8581W        W80252  28.042  37.949  10.624
 8582W        W80253  32.982  27.995   0.438
 8583W        W80254  32.055  34.369   1.896
 8584W        W80255   3.269  24.648   3.475
 8585W        W80256  44.683   6.371   4.062
 8586W        W80257   8.286   1.002  13.526
 8587W        W80258   8.124  23.515   4.677
 8588W        W80259  33.440  39.941  10.863
 8589W        W80260  27.615   4.312  10.665
 8590W        W80261  15.949  28.464  11.307
 8591W        W80262   5.607   5.724   2.142
 8592W        W80263  38.748  11.080  10.667
 8593W        W80264  44.208  32.588   2.715
 8594W        W80265   7.362  29.003  10.768
 8595W        W80266   6.439   9.259   0.691
 8596W        W80267  17.041   8.216  12.402
 8597W        W80268  19.778  33.064  10.777
 8598W        W80269  38.273  20.113   4.601
 8599W        W80270   4.397  34.604  14.985
 8600W        W80271   8.242  16.014   2.865
 8601W        W80272  39.391  28.098  12.768
 8602W        W80273  13.840  42.407   0.762
 8603W        W80274  35.584  12.805   4.724
 8604W        W80275  27.580  43.449   2.260
 8605W        W80276  39.023  16.736   0.307
 8606W        W80277  44.455  43.275  12.444
 8607W        W80278  19.064  43.181  10.764
 8608W        W80279  34.836  25.069   2.733
 8609W        W80280  36.823  13.464  11.421
 8610W        W80281   2.201  44.041   2.719
 8611W        W80282  24.273  17.064  10.221
 8612W        W80283  24.682  19.611   3.642
 8613W        W80284  21.953   1.289  13.421
 8614W        W80285  27.371   9.343  12.920
 8615W        W80286  41.109   2.292  10.672
 8616W        W80287  29.343  33.474   3.579
 8617W        W80288  20.995  22.809   4.119
 8618W        W80289  11.939  23.039   3.852
 8619W        W80290  22.181  11.446  12.765
 8620W        W80291  44.526  10.836   1.707
 8621W        W80292  21.615  14.900  11.473
 8622W        W80293  32.437  24.260   0.187
 8623W        W80294  38.820  17.997  13.244
 8624W        W80295  36.853  10.143   2.259
 8625W        W80296  27.969  38.150   1.546
 8626W        W80297  44.819  42.234  13.469
 8627W        W80298  24.173  41.384  12.474
 8628W        W80299  12.166  44.423  10.472
 8629W        W80300  39.539   2.346   0.565
 8630W        W80301   9.520  16.642  10.798
 8631W        W80302  38.283  43.362   1.121
 8632W        W80303  36.721  37.852  13.124
 8633W        W80304  36.009  40.500   9.948
 8634W        W80305  35.606  31.961  10.632
 8635W        W80306  17.150   6.932   3.838
 8636W        W80307  19.666  15.508  14.301
 8637W        W80308  36.672  26.206  14.130
 8638W        W80309  38.512  32.323   0.733
 8639W        W80310  28.526  35.180  10.794
 8640W        W80311   7.263  34.259  13.914
 8641W        W80312  23.497  27.183   4.562
 8642W        W80313  17.280  33.948   4.755
 8643W        W80314  42.116  18.983   3.174
 8644W        W80315  14.957  24.168  12.046
 8645W        W80316  29.474   7.876  12.400
 8646W        W80317   3.198  41.070  11.588
 8647W        W80318  13.183  27.560  12.572
 8648W        W80319  16.501  27.277  14.039
 8649W        W80320  21.258   3.211   3.117
 8650W        W80321  15.712  39.060   4.463
 8651W        W80322   4.295   0.964  12.673
 8652W        W80323  20.665  12.376  13.631
 8653W        W80324  44.484  16.725  14.706
 8654W        W80325  36.779  17.710  12.018
 8655W        W80326  16.166  31.355  11.584
 8656W        W80327  18.294  29.018  12.880
 8657W        W80328  20.593  24.987   0.036
 8658W        W80329  43.336  44.416   5.095
 8659W        W80330   8.878  30.930  13.364
 8660W        W80331  31.438  11.393   3.300
 8661W        W80332  18.570  30.533  14.952
 8662W        W80333  23.270  13.513  12.660
 8663W        W80334  14.593  22.433   1.772
 8664W        W80335  35.985  11.239  13.416
 8665W        W80336  20.746  35.540   2.743
 8666W        W80337  33.395   2.683  13.366
 8667W        W80338  19.413   8.659   4.059
 8668W        W80339  36.049  39.891  14.393
 8669W        W80340   3.767  35.429  11.635
 8670W        W80341   9.781  28.439  13.380
 8671W        W80342  40.413  15.392  13.468
 8672W        W80343  35.207  11.867   0.496
 8673W        W80344  14.658  30.269  12.927
 8674W        W80345   1.543  12.256   2.321
 8675W        W80346   1.306  33.420  11.761
 8676W        W80347  34.550  29.562  11.498
 8677W        W80348  34.385  23.105  12.572
 8678W        W80349  33.682  31.479   1.876
 8679W        W80350   7.438  27.859   5.331
 8680W        W80351   8.460  27.687  12.875
 8681W        W80352  32.369   3.528   3.163
 8682W        W80353  19.136  30.598   1.866
 8683W        W80354  17.284  21.512  12.476
 8684W        W80355  30.646  19.891  11.286
 8685W        W80356  20.156  20.817  13.700
 8686W        W80357  34.019  38.884  12.468
 8687W        W80358  36.858   0.773  14.911
 8688W        W80359  14.698   7.380   4.912
 8689W        W80360  22.283  31.420   4.548
 8690W        W80361  29.179  10.759  13.082
 8691W        W80362  12.652  11.145   0.933
 8692W        W80363  24.108  41.745   1.299
 8693W        W80364  27.753   3.795   0.890
 8694W        W80365   4.670  15.330  12.901
 8695W        W80366   0.016  20.457  14.114
 8696W        W80367   7.438   8.541  13.978
 8697W        W80368  24.116  20.713  11.472
 8698W        W80369   8.971  23.754   4.249
 8699W        W80370  22.178  27.157  11.239
 8700W        W80371  23.988   6.877  14.556
 8701W        W80372   7.651  35.490   4.652
 8702W        W80373  16.765   5.685   3.770
 8703W        W80374   6.438  36.858   3.747
 8704W        W80375  25.995  15.188   1.869
 8705W        W80376  43.734  22.239   3.363
 8706W        W80377  32.341  26.594  12.699
 8707W        W80378   9.836  26.987   2.198
 8708W        W80379  14.558  44.316   3.749
 8709W        W80380  30.499  17.652   4.488
 8710W        W80381  37.010  38.595   4.548
 8711W        W80382   9.193   8.832  11.638
 8712W        W80383  20.109  33.127  13.113
 8713W        W80384  11.693  41.744   1.338
 8714W        W80385  27.548  16.227   3.302
 8715W        W80386  22.953   4.211   3.682
 8716W        W80387  39.293  33.875  11.727
 8717W        W80388  32.639  27.632   3.436
 8718W        W80389  17.316  25.926   0.891
 8719W        W80390  22.371  36.123   9.667
 8720W        W80391  16.054  38.372  13.080
 8721W        W80392  13.955  23.777   4.337
 8722W        W80393  35.991  30.544  14.633
 8723W        W80394  23.868  35.059   2.812
 8724W        W80395  36.802  32.111   1.361
 8725W        W80396  28.101  12.187   0.524
 8726W        W80397  10.329   6.279   3.030
 8727W        W80398  34.281   9.013  11.200
 8728W        W80399  38.336  25.088   2.703
 8729W        W80400   8.909  25.421   1.411
 8730W        W80401  39.970  31.302   4.800
 8731W        W80402  14.811  42.268   3.609
 8732W        W80403  40.044  44.446  11.652
 8733W        W80404  13.864  43.953  13.540
 8734W        W80405  22.543  23.339   1.560
 8735W        W80406  11.628  21.576   1.265
 8736W        W80407  39.456  22.514  12.743
 8737W        W80408  33.733  19.786  13.871
 8738W        W80409  38.283  22.198  14.271
 8739W        W80410  37.106  42.800   0.007
 8740W        W80411  33.618   7.984   1.151
 8741W        W80412  29.637  10.801  12.842
 8742W        W80413  31.735  19.598   3.696
 8743W        W80414  22.247   6.674  14.995
 8744W        W80415   0.960  41.876   1.162
 8745W        W80416   4.036   6.275  13.687
 8746W        W80417   0.259  19.596   0.069
 8747W        W80418   4.619   3.316   0.712
 8748W        W80419  40.097   1.664   1.968
 8749W        W80420  32.382  14.723  13.564
 8750W        W80421  16.113   6.323   1.832
 8751W        W80422  22.066   4.273  11.190
 8752W        W80423   9.305  34.855  14.380
 8753W        W80424  25.176  15.717   0.189
 8754W        W80425  32.366   0.941  12.573
 8755W        W80426   4.833  29.922   0.306
 8756W        W80427  34.145   4.382  10.665
 8757W        W80428  30.893  27.857   2.933
 8758W        W80429  39.661  31.740   2.242
 8759W        W80430  17.296  20.805   2.346
 8760W        W80431   2.745   5.681   0.956
 8761W        W80432  34.559  15.542  13.355
 8762W        W80433  16.974   5.016  10.637
 8763W        W80434  22.155  26.856  14.554
 8764W        W80435  31.564  14.597   1.272
 8765W        W80436  36.559   2.722   0.731
 8766W        W80437  10.854   1.268   0.351
 8767W        W80438   5.270  16.855   2.833
 8768W        W80439  44.439  12.636   5.412
 8769W        W80440  18.750   7.422   2.946
 8770W        W80441   4.772  29.902   2.296
 8771W        W80442  12.628   2.633  14.702
 8772W        W80443   6.924  16.703  10.924
 8773W        W80444  18.319  23.515   4.507
 8774W        W80445  38.529  39.072   3.163
 8775W        W80446   5.055  33.529  11.032
 8776W        W80447  10.720  15.799   3.795
 8777W        W80448   3.853  31.457   2.340
 8778W        W80449  33.459  23.212   4.399
 8779W        W80450   3.434  28.084   3.429
 8780W        W80451  27.474   0.945   2.237
 8781W        W80452  37.642   2.144  14.521
 8782W        W80453  32.894  16.135   2.343
 8783W        W80454  15.516  38.365  10.431
 8784W        W80455  44.335   8.622   3.670
 8785W        W80456   9.403  35.326   1.815
 8786W        W80457  19.227  39.779   2.321
 8787W        W80458  12.545  17.213  13.781
 8788W        W80459  24.519  32.201  11.653
 8789W        W80460  37.044  11.676   1.747
 8790W        W80461   8.526  26.678   4.923
 8791W        W80462  18.700  12.269  14.725
 8792W        W80463  37.594  15.833  10.116
 8793W        W80464  37.310  10.357  11.192
 8794W        W80465  27.150  37.898  13.897
 8795W        W80466  42.402  43.301   4.485
 8796W        W80467   6.252   5.666   0.393
 8797W        W80468  11.090  22.005  13.442
 8798W        W80469  36.534  30.302   2.646
 8799W        W80470  39.796  15.425   0.323
 8800W        W80471  13.277  21.976   0.698
 8801W        W80472   2.130  33.324  13.631
 8802W        W80473   6.770  43.841  11.379
 8803W        W80474  15.564   7.236   1.240
 8804W        W80475  36.317  39.610  11.714
 8805W        W80476  15.109  24.395   2.525
 8806W        W80477  31.662  37.843  12.508
 8807W        W80478  21.568   1.829  14.235
 8808W        W80479   2.311  30.594   4.545
 8809W        W80480  28.161  42.472  11.107
 8810W        W80481  14.279   0.860   1.434
 8811W        W80482  27.259  30.972  10.756
 8812W        W80483   1.437  15.079  11.540
 8813W        W80484  27.149  42.875  13.951
 8814W        W80485  20.591  39.042  14.381
 8815W        W80486  15.704  39.383  11.063
 8816W        W80487  13.853  38.381   2.364
 8817W        W80488  29.916  30.642   2.275
 8818W        W80489  15.226  26.469   3.030
 8819W        W80490  27.380  37.219  12.419
 8820W        W80491  32.542   1.064  12.098
 8821W        W80492  36.482  13.082   2.912
 8822W        W80493  31.659  28.410  13.367
 8823W        W80494   8.860   2.231  14.388
 8824W        W80495   6.356  19.840  10.726
 8825W        W80496  11.218  13.818   2.358
 8826W        W80497  20.995   9.674  14.866
 8827W        W80498  31.982  42.778  10.401
 8828W        W80499  19.677  19.085  12.517
 8829W        W80500  24.200  37.342  13.727
 8830W        W80501  30.156  10.277   3.111
 8831W        W80502  40.974  14.799  13.971
 8832W        W80503   6.166  37.437  13.930
 8833W        W80504  17.543  42.792  10.561
 8834W        W80505  23.645  41.144   2.856
 8835W        W80506  17.742  29.133   0.252
 8836W        W80507  22.599  38.327  12.584
 8837W        W80508  31.709   8.437   3.338
 8838W        W80509  30.047  10.581  14.062
 8839W        W80510  30.853  16.348   3.639
 8840W        W80511  38.491  36.061   4.913
 8841W        W80512  30.524  35.469   2.361
 8842W        W80513  16.335  36.568  13.062
 8843W        W80514  32.217  41.446  14.840
 8844W        W80515  10.921  24.620  11.401
 8845W        W80516   1.372  33.392  10.781
 8846W        W80517  28.552  33.611  14.849
 8847W        W80518  22.092   9.855   3.791
 8848W        W80519  38.933  22.522  10.395
 8849W        W80520   3.536  28.873  14.573
 8850W        W80521  26.099  24.190   1.159
 8851W        W80522  10.686  42.936  10.412
 8852W        W80523   3.978  21.606  14.845
 8853W        W80524  37.366  40.398  11.190
 8854W        W80525   2.704  42.880   0.419
 8855W        W80526  41.059   3.978  14.435
 8856W        W80527  21.041  43.942  11.866
 8857W        W80528  29.056   5.758  10.605
 8858W        W80529  38.259  39.434  14.443
 8859W        W80530  20.140  42.692  14.416
 8860W        W80531  15.804  14.818   0.827
 8861W        W80532  38.824  33.099  13.367
 8862W        W80533  32.483  28.475  14.783
 8863W        W80534  23.749   8.748  11.082
 8864W        W80535  35.186  19.667  13.873
 8865W        W80536  16.815  35.807  11.078
 8866W        W80537   1.947  33.447  14.902
 8867W        W80538  11.394  43.245  12.949
 8868W        W80539  20.271  15.844   4.060
 8869W        W80540   8.750  43.382   3.786
 8870W        W80541  10.495   0.552  10.128
 8871W        W80542  22.935  34.006   3.564
 8872W        W80543  12.874   7.453  10.957
 8873W        W80544  28.657  30.446   2.703
 8874W        W80545  25.686   8.936   0.306
 8875W        W80546  15.270   0.546  13.131
 8876W        W80547  44.068  19.602   0.523
 8877W        W80548  29.724  10.051  12.673
 8878W        W80549   8.892  44.248   0.275
 8879W        W80550   3.347  12.394   0.949
 8880W        W80551   1.352  40.272   4.202
 8881W        W80552  31.169  12.322  12.609
 8882W        W80553  36.577  27.910   5.067
 8883W        W80554  16.344  39.125  11.946
 8884W        W80555  15.623  42.895   3.626
 8885W        W80556  32.055  14.798   4.871
 8886W        W80557   1.687  22.901   1.740
 8887W        W80558  29.507  17.213   0.008
 8888W        W80559   0.255  40.013  10.984
 8889W        W80560  30.506  43.808   4.698
 8890W        W80561  12.092   3.789   1.532
 8891W        W80562  44.490  28.922   2.808
 8892W        W80563  25.686  35.517   2.648
 8893W        W80564  11.468  35.553   1.405
 8894W        W80565  20.065   9.947  11.593
 8895W        W80566  17.306  33.838   1.274
 8896W        W80567  39.211  24.716   4.075
 8897W        W80568  15.786  38.301  12.420
 8898W        W80569  12.566  24.823  10.682
 8899W        W80570  42.028   2.475   2.041
 8900W        W80571  39.465  31.985  11.080
 8901W        W80572  17.042   8.836  11.031
 8902W        W80573   1.926  34.212   1.082
 8903W        W80574   5.427  32.610  10.739
 8904W        W80575  40.562  12.780  10.679
 8905W        W80576  43.511  14.041   1.194
 8906W        W80577  26.212  42.859  11.616
 8907W        W80578  13.751  38.369  13.411
 8908W        W80579  42.819  19.698  12.296
 8909W        W80580  36.400  41.308   0.834
 8910W        W80581   4.862  23.037  12.990
 8911W        W80582  35.189  15.772   3.757
 8912W        W80583  39.918  42.860  12.233
 8913W        W80584  26.127  30.678   3.626
 8914W        W80585  15.624  14.902   4.148
 8915W        W80586  39.674  28.494   0.058
 8916W        W80587   2.496   7.384   1.897
 8917W        W80588  37.754  32.269   2.409
 8918W        W80589  12.700   5.195  10.946
 8919W        W80590   1.962  27.233   0.476
 8920W        W80591   1.373  32.658   3.583
 8921W        W80592   7.389   6.720   0.294
 8922W        W80593  30.802  19.387  10.686
 8923W        W80594  34.165  21.989   1.289
 8924W        W80595  13.173  15.172  13.103
 8925W        W80596  15.550  10.369  12.918
 8926W        W80597  43.958  32.613   3.733
 8927W        W80598  33.557  34.603   2.643
 8928W        W80599  13.464   8.321   4.563
 8929W        W80600  16.569  42.282  13.812
 8930W        W80601   6.426  26.733   4.091
 8931W        W80602  41.326  15.101   1.708
 8932W        W80603   3.279  20.748   2.493
 8933W        W80604  24.210  14.647  12.812
 8934W        W80605  35.326   2.435   2.344
 8935W        W80606  11.501  22.275   1.253
 8936W        W80607  36.096   5.276  13.341
 8937W        W80608  13.892  30.606   1.994
 8938W        W80609   3.058  34.042   2.466
 8939W        W80610   8.109  43.008  13.812
 8940W        W80611   5.020   8.366  11.616
 8941W        W80612  35.022  21.838   1.957
 8942W        W80613  17.721  43.294  13.172
 8943W        W80614  41.578  30.883  12.540
 8944W        W80615  31.540  15.821   3.256
 8945W        W80616  36.641  32.174  13.621
 8946W        W80617   0.407   6.421  12.053
 8947W        W80618   0.143  27.059   3.880
 8948W        W80619  38.026  14.383  14.492
 8949W        W80620   3.777  21.728  13.014
 8950W        W80621  34.351   7.223  11.206
 8951W        W80622  12.577   3.016   0.599
 8952W        W80623  41.182   6.873  13.499
 8953W        W80624  38.355   4.737  14.303
 8954W        W80625  40.841  37.541  14.790
 8955W        W80626  28.013  32.681  14.454
 8956W        W80627  15.304  13.005   4.302
 8957W        W80628  17.623  36.588   2.845
 8958W        W80629  25.028   1.739   3.525
 8959W        W80630  36.109  19.993   3.408
 8960W        W80631  40.477  40.551   1.014
 8961W        W80632  16.576  33.414   3.609
 8962W        W80633  31.201  30.617   4.977
 8963W        W80634  29.212  15.214   4.363
 8964W        W80635  33.344  39.222   0.222
 8965W        W80636  25.068  41.770   0.413
 8966W        W80637  34.109  39.390  12.520
 8967W        W80638  10.616  31.919   4.525
 8968W        W80639  29.782  12.653   3.299
 8969W        W80640  17.808   8.730  14.498
 8970W        W80641  12.089  26.620   2.926
 8971W        W80642  32.092  34.019   1.215
 8972W        W80643  17.156  22.757  10.926
 8973W        W80644  36.612  20.470   2.279
 8974W        W80645  14.758  21.006  10.734
 8975W        W80646  32.203  13.245  14.397
 8976W        W80647  17.017  29.010   4.191
 8977W        W80648  18.338  25.612  11.153
 8978W        W80649  37.533  35.873  13.324
 8979W        W80650  10.267  21.728   3.645
 8980W        W80651   5.822  19.757   1.276
 8981W        W80652  17.851  43.639   4.644
 8982W        W80653  26.159  33.112   0.056
 8983W        W80654  33.076  36.480   3.873
 8984W        W80655   5.283  43.987  11.674
 8985W        W80656  38.814  29.982   2.196
 8986W        W80657  35.168   2.335   1.697
 8987W        W80658   2.730  11.264   1.756
 8988W        W80659  20.499  20.373  14.975
 8989W        W80660  35.746  14.158  10.780
 8990W        W80661  12.339  42.284   4.717
 8991W        W80662  41.254  40.232   0.243
 8992W        W80663  25.967  26.503  14.875
 8993W        W80664  40.360  22.758  11.106
 8994W        W80665  42.014  22.312  12.011
 8995W        W80666  27.512  44.387   4.071
 8996W        W80667  12.219  32.975  14.015
 8997W        W80668  34.736  35.032   3.140
 8998W        W80669   6.365  23.369   3.137
 8999W        W80670  39.499  32.390  11.780
 9000W        W80671  19.261   5.464   0.458
 9001W        W80672  17.346  35.593   5.090
 9002W        W80673  20.324  39.012   0.044
 9003W        W80674  28.021   4.497   4.189
 9004W        W80675  12.510   9.354  10.635
 9005W        W80676  39.244  39.736  14.309
 9006W        W80677  29.343  21.323   2.557
 9007W        W80678  14.337  19.655   4.370
 9008W        W80679  20.711  31.532   4.604
 9009W        W80680   5.982  17.482   0.225
 9010W        W80681   3.368  43.015   1.278
 9011W        W80682   9.570  37.564  14.301
 9012W        W80683  38.304  39.816   4.853
 9013W        W80684  41.079  17.649   0.449
 9014W        W80685   0.171  17.649   3.562
 9015W        W80686  21.195  33.926   1.380
 9016W        W80687  34.134  12.330  11.090
 9017W        W80688  35.549  24.808   2.690
 9018W        W80689   5.195  13.972   2.190
 9019W        W80690  19.846  43.466   0.875
 9020W        W80691   9.807   0.999  10.711
 9021W        W80692  16.455   8.107   0.753
 9022W        W80693  36.086  16.029   3.386
 9023W        W80694  35.846   9.419  13.866
 9024W        W80695  10.010  41.774   4.818
 9025W        W80696  14.157   9.405   1.905
 9026W        W80697  16.882  31.890   0.194
 9027W        W80698  41.862  42.539  11.122
 9028W        W80699  20.508  28.664   1.696
 9029W        W80700  40.620  18.166   1.812
 9030W        W80701  11.009  13.925   2.843
 9031W        W80702  26.813  43.794  10.861
 9032W        W80703  32.457  28.340  12.497
 9033W        W80704   1.535  10.723   0.340
 9034W        W80705  22.224  33.022  14.813
 9035W        W80706  21.642  31.249   1.919
 9036W        W80707   9.330  21.012  11.822
 9037W        W80708  21.797  38.776   1.288
 9038W        W80709  32.794  19.161  11.762
 9039W        W80710  41.522  31.426   4.313
 9040W        W80711  14.246  24.639   4.489
 9041W        W80712  28.904  19.295   0.835
 9042W        W80713  40.489  26.861   2.470
 9043W        W80714  41.037  19.453   1.236
 9044W        W80715  19.547   5.993   3.573
 9045W        W80716   7.977  15.442   4.968
 9046W        W80717  14.723   0.811  12.476
 9047W        W80718  31.448  38.135  14.436
 9048W        W80719  41.572   3.516   2.263
 9049W        W80720   1.272  33.123   3.404
 9050W        W80721  16.968  25.171  14.705
 9051W        W80722  20.470   3.718  12.347
 9052W        W80723  19.412  21.057  14.718
 9053W        W80724  39.327  11.690   2.812
 9054W        W80725  25.028  29.628   0.899
 9055W        W80726   4.125   1.961  11.668
 9056W        W80727   6.671  24.462   0.293
 9057W        W80728  11.852  44.965  11.444
 9058W        W80729  28.061  31.164   0.438
 9059W        W80730   9.020  31.605   3.287
 9060W        W80731  12.148  29.614  12.161
 9061W        W80732  30.660  10.854   1.883
 9062W        W80733  14.929  29.685  14.471
 9063W        W80734  20.086  34.016   2.286
 9064W        W80735  29.623  44.007  12.676
 9065W        W80736  42.839   5.315   1.414
 9066W        W80737  22.433  34.674  11.751
 9067W        W80738  24.223  37.643   4.131
 9068W        W80739   6.153  33.568  14.901
 9069W        W80740   6.373  26.485   0.419
 9070W        W80741  27.439  25.109  11.558
 9071W        W80742  31.853  44.785  10.655
 9072W        W80743   6.362   3.686  11.206
 9073W        W80744  20.691  27.293   2.936
 9074W        W80745   6.851  41.881  13.107
 9075W        W80746  11.827  33.539   2.696
 9076W        W80747  15.337  35.088   4.236
 9077W        W80748   5.393   5.105   3.646
 9078W        W80749  30.185  16.641  14.882
 9079W        W80750  42.312   2.337   0.840
 9080W        W80751  21.267  18.642  12.024
 9081W        W80752  30.279  23.038   4.836
 9082W        W80753  12.409  24.987   2.911
 9083W        W80754  30.137  41.343  10.710
 9084W        W80755  35.336  24.954   1.564
 9085W        W80756  42.268  32.648   0.411
 9086W        W80757  40.935  43.434  13.964
 9087W        W80758  21.000  11.254   3.970
 9088W        W80759  35.347  16.965   3.169
 9089W        W80760  41.564   0.896   3.849
 9090W        W80761  38.109  35.066   3.802
 9091W        W80762  38.543  13.181  10.689
 9092W        W80763  28.673  16.640  12.172
 9093W        W80764  43.004  22.428   4.643
 9094W        W80765  34.826  22.679   0.265
 9095W        W80766   8.190   2.855   2.833
 9096W        W80767   5.732   5.792  13.587
 9097W        W80768  18.673  23.640  11.002
 9098W        W80769  35.491  22.223   1.723
 9099W        W80770  35.541  43.981  13.886
 9100W        W80771  31.030  24.125  13.428
 9101W        W80772   5.399  32.351  11.181
 9102W        W80773  23.621   7.190   2.802
 9103W        W80774   9.731  42.850  11.104
 9104W        W80775  27.287  11.913  13.015
 9105W        W80776  18.988  33.335   2.588
 9106W        W80777  43.825  32.128   1.839
 9107W        W80778  25.939   1.054   1.908
 9108W        W80779   0.775  44.317   3.101
 9109W        W80780  16.689  13.552   2.024
 9110W        W80781  14.967  43.745  12.507
 9111W        W80782  16.355  34.590   3.738
 9112W        W80783   0.404  33.373   1.807
 9113W        W80784  16.505  35.635  11.452
 9114W        W80785  20.742   6.338  14.837
 9115W        W80786   5.167  37.807   1.395
 9116W        W80787  30.041  41.216   4.362
 9117W        W80788   6.453  17.967   0.805
 9118W        W80789  37.488   6.371   0.499
 9119W        W80790   2.488  16.166   1.699
 9120W        W80791  40.084   2.181   1.845
 9121W        W80792   0.935   3.908   2.364
 9122W        W80793  26.503  32.564  11.640
 9123W        W80794  36.304  38.572   2.402
 9124W        W80795  12.050  21.934  11.911
 9125W        W80796  17.757  42.409   2.723
 9126W        W80797   4.416  30.219  12.555
 9127W        W80798  20.844  28.981   3.186
 9128W        W80799  31.085  25.509   1.895
 9129W        W80800   6.675  35.065   3.345
 9130W        W80801  11.132  11.309  11.070
 9131W        W80802  29.856   9.135   4.633
 9132W        W80803  35.437  25.039  13.056
 9133W        W80804  22.893   5.636   0.408
 9134W        W80805  40.292   6.227  14.638
 9135W        W80806  28.170  29.260  11.142
 9136W        W80807  44.728   5.437   2.266
 9137W        W80808  33.613  21.252  11.889
 9138W        W80809  15.651  20.281   1.918
 9139W        W80810  15.584  23.148  12.809
 9140W        W80811  43.993  44.942   4.725
 9141W        W80812  37.810  36.117  12.966
 9142W        W80813   7.651  44.898  14.876
 9143W        W80814  41.936  32.388  13.368
 9144W        W80815  17.146  31.603  10.730
 9145W        W80816  32.831   1.614  12.963
 9146W        W80817  41.737  40.050   1.446
 9147W        W80818  24.936  20.320   3.136
 9148W        W80819   3.223  43.757   2.837
 9149W        W80820  43.143  31.883  13.032
 9150W        W80821  26.689  22.424   2.613
 9151W        W80822   4.293   0.247   1.947
 9152W        W80823  19.142  24.019   4.152
 9153W        W80824  23.473  37.878  10.235
 9154W        W80825  37.414  18.611  14.873
 9155W        W80826  44.073  16.165  14.373
 9156W        W80827  20.811  22.710  10.596
 9157W        W80828   4.817  35.586   0.805
 9158W        W80829  17.395  26.012   2.873
 9159W        W80830   3.808  34.579   9.660
 9160W        W80831  15.119   9.431   1.801
 9161W        W80832  26.977   4.372   4.142
 9162W        W80833  20.217  30.218   5.024
 9163W        W80834  30.100  28.038  11.987
 9164W        W80835   9.899  38.014   4.139
 9165W        W80836  30.676  28.909  13.361
 9166W        W80837  25.591  25.395  12.556
 9167W        W80838  43.231   1.156  12.060
 9168W        W80839  42.386   5.440  11.900
 9169W        W80840   2.509  19.783   5.124
 9170W        W80841  16.283  38.737   9.959
 9171W        W80842  24.933   9.811  14.286
 9172W        W80843  33.778  39.387   0.472
 9173W        W80844  21.294   9.785   4.277
 9174W        W80845  31.815  39.490   2.628
 9175W        W80846  42.333  16.554  10.691
 9176W        W80847  16.665  19.756  12.322
 9177W        W80848  14.827  37.580   1.846
 9178W        W80849   3.558  15.228  10.550
 9179W        W80850  23.170  31.103  13.965
 9180W        W80851  27.912  18.491   2.091
 9181W        W80852  35.523  39.318   1.710
 9182W        W80853  11.230   4.508   3.721
 9183W        W80854  43.422  13.619  12.530
 9184W        W80855  40.845  17.293  11.085
 9185W        W80856  23.179  39.973   2.663
 9186W        W80857  22.108  12.263   0.308
 9187W        W80858  29.022  15.799  12.842
 9188W        W80859   6.145   8.946  14.486
 9189W        W80860  31.671   0.218   0.163
 9190W        W80861   3.153  19.776  11.699
 9191W        W80862  28.562  23.991   0.521
 9192W        W80863  29.856   4.736  11.043
 9193W        W80864  16.781  34.074   4.638
 9194W        W80865   2.330  21.543  12.402
 9195W        W80866  24.618   5.523   3.850
 9196W        W80867  25.008  25.469  12.925
 9197W        W80868  10.183  22.893   5.318
 9198W        W80869  41.934   7.746  13.403
 9199W        W80870  33.935  19.983   4.138
 9200W        W80871  31.948  28.720   4.659
 9201W        W80872   0.601  17.605  10.929
 9202W        W80873  37.358  23.172  14.418
 9203W        W80874  37.287  16.187   2.707
 9204W        W80875  10.080   4.271  13.940
 9205W        W80876   9.340  12.485  14.691
 9206W        W80877   6.472  21.032  12.799
 9207W        W80878  31.414  41.825   2.772
 9208W        W80879   2.324  38.066   1.308
 9209W        W80880  34.209  17.512   3.070
 9210W        W80881  29.372   9.807   2.718
 9211W        W80882  23.396  28.534   4.943
 9212W        W80883  15.687  34.694   4.503
 9213W        W80884   9.839  42.269   0.861
 9214W        W80885  25.974  42.306   2.719
 9215W        W80886   4.074  42.528  14.361
 9216W        W80887   3.138  16.825  13.743
 9217W        W80888  33.469  41.724  10.723
 9218W        W80889  14.980  38.758   4.253
 9219W        W80890  32.297  30.651   4.207
 9220W        W80891  44.527  31.482   1.673
 9221W        W80892  25.583  17.692   0.816
 9222W        W80893  12.774  28.616   4.229
 9223W        W80894   1.760   8.759  13.505
 9224W        W80895  31.085   5.692  11.590
 9225W        W80896  13.924  20.591  13.827
 9226W        W80897  23.238  43.946   3.640
 9227W        W80898  17.733  13.145   3.266
 9228W        W80899  27.617  37.582  13.562
 9229W        W80900  30.640  43.515  13.522
 9230W        W80901  42.767  33.052   1.664
 9231W        W80902  12.739  11.723  11.222
 9232W        W80903  14.383  36.548   3.899
 9233W        W80904   0.432  17.254  12.691
 9234W        W80905   7.883  28.239  10.786
 9235W        W80906  22.747  37.799  11.263
 9236W        W80907  16.039   4.975   4.743
 9237W        W80908   8.191   2.821   0.252
 9238W        W80909  17.462  40.715   0.253
 9239W        W80910  23.031  17.308   0.918
 9240W        W80911  37.361  23.812   0.810
 9241W        W80912   9.718  16.127  11.468
 9242W        W80913  32.962  34.198   4.134
 9243W        W80914  43.041  35.465  10.781
 9244W        W80915   8.774  25.405  14.912
 9245W        W80916  25.476  25.667  11.107
 9246W        W80917  33.934  27.371   1.321
 9247W        W80918   4.631  43.914  14.577
 9248W        W80919  27.804  40.031  13.281
 9249W        W80920   5.400  28.571   2.833
 9250W        W80921   5.699  36.194  11.655
 9251W        W80922  33.421  31.331   0.518
 9252W        W80923  39.520   7.343   2.654
 9253W        W80924  18.304   1.195   3.626
 9254W        W80925  37.500  25.678  11.530
 9255W        W80926  23.765  38.031  12.824
 9256W        W80927  32.571  20.099  12.074
 9257W        W80928  10.221  40.970   3.759
 9258W        W80929  39.703  30.588  13.536
 9259W        W80930  36.315  11.110   0.259
 9260W        W80931  10.702  12.087  14.100
 9261W        W80932  27.875  27.017  13.368
 9262W        W80933  18.652  31.079  10.566
 9263W        W80934  19.224  41.466  10.956
 9264W        W80935  17.183  33.123  13.960
 9265W        W80936  22.111  22.054  13.742
 9266W        W80937  17.084  26.071  12.851
 9267W        W80938  27.352  14.354  14.078
 9268W        W80939  39.521  20.595  13.150
 9269W        W80940  39.501  43.795  11.471
 9270W        W80941  19.513  20.079   3.463
 9271W        W80942  43.599  23.225   4.554
 9272W        W80943  37.525  14.076  13.568
 9273W        W80944   8.389  29.134   0.423
 9274W        W80945  11.153  32.319  12.543
 9275W        W80946  28.204  41.148  13.840
 9276W        W80947   1.940  16.633   2.362
 9277W        W80948  41.399   8.294   2.819
 9278W        W80949  30.902  31.037  13.774
 9279W        W80950  17.874  26.500   4.592
 9280W        W80951  16.640   7.637  13.632
 9281W        W80952  12.833  11.173  10.513
 9282W        W80953  17.200  27.472  14.487
 9283W        W80954  37.542  25.056  14.168
 9284W        W80955  37.566  37.087  11.113
 9285W        W80956  32.841   4.357   0.313
 9286W        W80957  11.939  40.026   3.102
 9287W        W80958  37.076  10.884  12.593
 9288W        W80959  18.695  24.031  12.366
 9289W        W80960  38.610  20.761  10.602
 9290W        W80961  31.882  25.959   2.727
 9291W        W80962   8.532  37.890  13.125
 9292W        W80963  29.073  40.536  10.775
 9293W        W80964  20.656  12.358   4.580
 9294W        W80965  28.439   9.378   5.401
 9295W        W80966  31.009  27.074   0.397
 9296W        W80967  17.613   1.960   3.625
 9297W        W80968  23.410  29.146   1.179
 9298W        W80969  10.579  12.334  12.448
 9299W        W80970  26.887   2.878  13.314
 9300W        W80971   9.835  31.176   1.724
 9301W        W80972  40.953   6.289  14.010
 9302W        W80973  14.920  17.546   1.704
 9303W        W80974  32.681  20.775  11.688
 9304W        W80975   0.991  31.402   4.807
 9305W        W80976  12.307  13.273   0.225
 9306W        W80977  32.905   4.112   2.663
 9307W        W80978  41.288  23.971  10.696
 9308W        W80979   6.634  36.841   4.578
 9309W        W80980  19.635  18.510  11.314
 9310W        W80981   9.220  12.728   4.733
 9311W        W80982  16.345  37.566   0.599
 9312W        W80983  14.291  25.051  13.866
 9313W        W80984  44.419  15.738   4.568
 9314W        W80985  25.043  25.685   0.956
 9315W        W80986  21.209   6.600  12.032
 9316W        W80987  32.091  30.787   2.930
 9317W        W80988  16.212  37.012  14.325
 9318W        W80989  30.954  12.874   0.379
 9319W        W80990  41.372  18.150   4.618
 9320W        W80991  14.262  38.444  13.091
 9321W        W80992  12.174  34.316   2.753
 9322W        W80993  34.926  32.358   4.713
 9323W        W80994  18.193  14.313   1.353
 9324W        W80995  43.517  16.269   3.501
 9325W        W80996  28.167  26.202  10.474
 9326W        W80997  17.850  12.976   1.458
 9327W        W80998  23.201  35.797  12.093
 9328W        W80999  32.314  23.480  15.000
 9329W        W81000  33.933   5.799   0.512
 9330W        W81001  24.659  29.643  11.611
 9331W        W81002  36.447  26.450   1.397
 9332W        W81003  30.951  18.293   1.920
 9333W        W81004  27.884   1.727  13.527
 9334W        W81005  12.231   4.283   3.672
 9335W        W81006  14.703  29.418   0.714
 9336W        W81007  27.581  29.424   2.963
 9337W        W81008  26.342  11.113   0.329
 9338W        W81009  26.165  12.013  12.180
 9339W        W81010  14.294  17.298   2.880
 9340W        W81011   1.444  41.049  14.486
 9341W        W81012  18.327  44.655  10.082
 9342W        W81013   7.163  34.380   2.484
 9343W        W81014  36.047   6.941  14.337
 9344W        W81015   9.854  26.672  13.899
 9345W        W81016  35.557  43.112  11.142
 9346W        W81017  15.714  35.330   0.972
 9347W        W81018   6.892  43.793   2.766
 9348W        W81019  40.414  27.606   1.974
 9349W        W81020   8.330  24.253  12.535
 9350W        W81021   0.730  34.104  12.238
 9351W        W81022  25.947  17.382   1.307
 9352W        W81023   2.701  33.619   3.184
 9353W        W81024  34.081  43.190  11.419
 9354W        W81025  30.582  36.295   3.422
 9355W        W81026   9.110   0.418  12.396
 9356W        W81027   4.965  43.217   1.867
 9357W        W81028  25.596  21.014   2.257
 9358W        W81029  14.228  11.784  14.925
 9359W        W81030  41.423  42.037  14.838
 9360W        W81031  24.710  40.625   4.609
 9361W        W81032  41.880  42.297   2.318
 9362W        W81033  17.026  31.572   2.829
 9363W        W81034   7.824  19.010   2.116
 9364W        W81035  35.948  38.745  12.617
 9365W        W81036  40.925  41.773  14.950
 9366W        W81037  13.703  14.672   4.543
 9367W        W81038  42.501   7.195  13.414
 9368W        W81039   1.407  38.298   1.853
 9369W        W81040  41.872  43.681  14.377
 9370W        W81041   9.490  30.075  14.351
 9371W        W81042  16.976   9.893   1.719
 9372W        W81043   5.682  12.784   2.190
 9373W        W81044  18.668  41.338   1.649
 9374W        W81045  40.999  21.770  11.497
 9375W        W81046  38.040  11.275  12.297
 9376W        W81047  29.005  13.152   4.862
 9377W        W81048  22.786  32.106   3.123
 9378W        W81049  17.730  37.038   3.127
 9379W        W81050  42.744  41.559   3.181
 9380W        W81051  34.034  31.194  11.169
 9381W        W81052  16.245  20.292   4.728
 9382W        W81053  11.853   6.276   2.677
 9383W        W81054  20.417  11.372   0.762
 9384W        W81055  26.991  41.820   4.677
 9385W        W81056  33.664  24.716   0.942
 9386W        W81057  21.081  32.820  10.663
 9387W        W81058  21.491  15.113  14.468
 9388W        W81059  41.340  26.781  13.875
 9389W        W81060  39.801  17.722  14.138
 9390W        W81061  10.522   1.263   2.304
 9391W        W81062  44.590  24.717  14.232
 9392W        W81063  16.533  32.747  11.941
 9393W        W81064  34.170  17.666   4.519
 9394W        W81065  19.759  19.585  12.561
 9395W        W81066  42.895  20.798  13.957
 9396W        W81067   5.692  36.071  12.562
 9397W        W81068   8.385  15.060   3.614
 9398W        W81069  27.602  14.705   1.461
 9399W        W81070   4.892  11.580   2.824
 9400W        W81071  41.356   5.477  13.512
 9401W        W81072  15.328  11.755   4.607
 9402W        W81073   8.846  31.699  12.049
 9403W        W81074  34.661  12.293  14.332
 9404W        W81075  17.238  33.422  13.506
 9405W        W81076  17.079  41.746   4.054
 9406W        W81077  28.629  20.388   1.871
 9407W        W81078   8.724  13.783  11.218
 9408W        W81079  26.160  34.320   4.154
 9409W        W81080   8.385  32.164  13.921
 9410W        W81081   3.717   3.182  13.555
 9411W        W81082  21.725  19.279   0.460
 9412W        W81083  39.077  20.585   3.067
 9413W        W81084   3.870  40.321   4.114
 9414W        W81085   2.847  30.068  12.440
 9415W        W81086  10.273  37.341  11.127
 9416W        W81087  42.246  24.627  11.227
 9417W        W81088  38.426  39.399  12.593
 9418W        W81089  39.752  13.611   3.210
 9419W        W81090  11.930  41.502  11.723
 9420W        W81091  40.760   7.211   3.269
 9421W        W81092  30.766  30.693   0.045
 9422W        W81093  12.939  29.554   1.528
 9423W        W81094  43.805  37.418   0.392
 9424W        W81095  10.105  24.136  11.498
 9425W        W81096  24.627  19.934   4.480
 9426W        W81097  33.932  44.005  11.156
 9427W        W81098  12.152  28.918  13.395
 9428W        W81099   1.826  41.040   0.347
 9429W        W81100  23.176   6.276   1.814
 9430W        W81101  31.676   6.730   1.233
 9431W        W81102  23.648  36.340  12.267
 9432W        W81103  19.842  19.752   3.197
 9433W        W81104  31.420  11.309   4.169
 9434W        W81105  30.742  22.408   5.260
 9435W        W81106  11.719  14.128  14.817
 9436W        W81107  17.595   9.144  12.074
 9437W        W81108  16.048  38.838  12.851
 9438W        W81109   7.571  23.407   9.939
 9439W        W81110  18.569   3.356   3.427
 9440W        W81111  17.625   3.496  14.481
 9441W        W81112  43.642  21.514   3.079
 9442W        W81113  37.322  28.141   3.274
 9443W        W81114  17.754  37.583  11.554
 9444W        W81115   7.270  21.428   1.088
 9445W        W81116   9.871  41.808  14.991
 9446W        W81117  15.186  15.551  11.791
 9447W        W81118  36.956  10.650  14.598
 9448W        W81119  41.798  41.853   3.994
 9449W        W81120  44.927  19.986  14.294
 9450W        W81121  21.005  36.084  14.908
 9451W        W81122   5.942  38.015  13.871
 9452W        W81123  39.249  14.754   1.659
 9453W        W81124  39.833  37.653   2.378
 9454W        W81125   7.894  15.103  14.489
 9455W        W81126  38.873  43.299  13.030
 9456W        W81127  16.952   2.469   1.752
 9457W        W81128   5.260  23.141   0.683
 9458W        W81129  24.455  33.894  13.429
 9459W        W81130   3.448  39.909  11.125
 9460W        W81131  25.495  17.741  14.199
 9461W        W81132  25.036  26.568   2.409
 9462W        W81133  34.462  23.703  11.417
 9463W        W81134  23.266  23.034   0.931
 9464W        W81135  39.469   3.214   2.852
 9465W        W81136  42.785  12.614   5.018
 9466W        W81137   2.943  35.863  12.936
 9467W        W81138   5.425  18.504  11.836
 9468W        W81139  21.634   3.990  11.582
 9469W        W81140  18.730  42.955  12.491
 9470W        W81141  44.449  26.400   2.102
 9471W        W81142  30.213   9.431   2.797
 9472W        W81143   8.057  13.842   2.178
 9473W        W81144  40.081   8.854   0.492
 9474W        W81145  44.933  27.700   4.930
 9475W        W81146  39.516  35.606  12.653
 9476W        W81147  35.772  32.013   1.284
 9477W        W81148  11.634  43.450  12.504
 9478W        W81149  31.404  36.846  14.063
 9479W        W81150  10.175  39.588   1.399
 9480W        W81151  21.334  21.029   5.095
 9481W        W81152  37.352   7.676  10.651
 9482W        W81153  33.432  41.534   1.748
 9483W        W81154  37.308  31.208   1.365
 9484W        W81155  11.341   1.235   2.532
 9485W        W81156   6.138  21.588   3.079
 9486W        W81157  35.950  44.594   1.550
 9487W        W81158  16.715  18.962  11.080
 9488W        W81159   4.419  40.143   2.664
 9489W        W81160   4.908  34.530   0.708
 9490W        W81161  18.802  41.417  10.021
 9491W        W81162  31.031  37.582  13.879
 9492W        W81163   6.832  32.359  11.684
 9493W        W81164  41.520  17.034  12.881
 9494W        W81165  24.061  38.343   1.364
 9495W        W81166  10.470  42.394   1.377
 9496W        W81167  27.093  17.622   2.674
 9497W        W81168   3.649  18.186  14.866
 9498W        W81169  21.579  25.335   4.634
 9499W        W81170  18.084   2.913   3.678
 9500W        W81171  24.209   0.234   1.892
 9501W        W81172  41.698   2.743   3.001
 9502W        W81173   4.698  23.487   4.359
 9503W        W81174   9.161  42.351   3.878
 9504W        W81175  31.459  40.349  12.571
 9505W        W81176  35.381  28.187   2.215
 9506W        W81177  42.995   3.922   4.692
 9507W        W81178  18.746  27.713  10.979
 9508W        W81179  17.850  33.454  12.357
 9509W        W81180  28.126   0.243  11.208
 9510W        W81181  11.377  22.996  11.170
 9511W        W81182  24.470  39.291   0.505
 9512W        W81183  44.048   8.065   2.262
 9513W        W81184  13.605  33.671  13.935
 9514W        W81185  32.522  32.442   1.711
 9515W        W81186  40.372  41.520   0.788
 9516W        W81187  13.114  24.579   2.925
 9517W        W81188  38.295  41.246   2.444
 9518W        W81189  10.138  27.586  14.997
 9519W        W81190  31.041  21.745  11.079
 9520W        W81191   3.801  43.456  10.657
 9521W        W81192  39.038   4.785   4.167
 9522W        W81193  34.648  22.405  13.835
 9523W        W81194  20.604   8.130   2.604
 9524W        W81195  29.506   6.678   0.320
 9525W        W81196  20.312  43.151   5.113
 9526W        W81197  23.167  34.333  14.506
 9527W        W81198  10.743   4.014  11.174
 9528W        W81199  44.600  33.027   2.788
 9529W        W81200  38.387  35.301   0.799
 9530W        W81201  18.430   9.345  11.567
 9531W        W81202  27.382  20.956   2.446
 9532W        W81203   5.214  40.004  10.694
 9533W        W81204  13.269  36.888  14.304
 9534W        W81205  29.533  33.802   0.808
 9535W        W81206  23.981  26.502   2.109
 9536W        W81207  16.279   5.193  12.870
 9537W        W81208   6.179  41.887   1.420
 9538W        W81209   7.648   7.760  10.763
 9539W        W81210   7.965  43.436  11.182
 9540W        W81211   4.707  37.483  13.805
 9541W        W81212  14.068  41.434   0.174
 9542W        W81213  33.548  39.791   2.374
 9543W        W81214  31.971  38.688  10.361
 9544W        W81215  19.706  10.226  10.618
 9545W        W81216  43.868   9.197   0.227
 9546W        W81217  43.516  35.426   1.810
 9547W        W81218  34.613  15.159   1.362
 9548W        W81219   1.588  44.914   1.218
 9549W        W81220  35.422  25.168  13.920
 9550W        W81221   6.393   6.017  12.022
 9551W        W81222  31.934  12.101   0.903
 9552W        W81223  26.465  29.912   4.242
 9553W        W81224  14.762  32.382  14.391
 9554W        W81225  41.806   4.420   4.223
 9555W        W81226   7.173  35.337   1.451
 9556W        W81227   7.414  34.217  13.145
 9557W        W81228  11.466  17.630   0.296
 9558W        W81229  14.611  39.536   0.358
 9559W        W81230  15.098   3.705   5.465
 9560W        W81231   4.091  21.241   4.772
 9561W        W81232   3.055  31.229   1.191
 9562W        W81233  31.614  41.743   3.237
 9563W        W81234  16.715   2.764  12.909
 9564W        W81235  38.080  27.682   0.979
 9565W        W81236  26.975  20.159   2.391
 9566W        W81237  23.600  17.334  11.621
 9567W        W81238  24.536   0.329  12.803
 9568W        W81239  22.100  32.914  13.468
 9569W        W81240  40.988  36.040  12.226
 9570W        W81241  19.613  22.306   1.857
 9571W        W81242  25.493  22.246  12.110
 9572W        W81243  14.861   8.954   2.327
 9573W        W81244  19.778   4.948   0.864
 9574W        W81245  12.837  29.616   0.473
 9575W        W81246  27.960  27.405  12.339
 9576W        W81247   0.446  28.602   0.515
 9577W        W81248  43.998  39.730  10.602
 9578W        W81249  14.507  36.862  11.897
 9579W        W81250  13.230   0.994  14.345
 9580W        W81251  39.691  12.593   5.090
 9581W        W81252  35.914  40.146  13.933
 9582W        W81253  18.676  15.400   0.172
 9583W        W81254  36.220   5.361   3.267
 9584W        W81255   3.268   7.406  12.577
 9585W        W81256  17.224   7.330   1.922
 9586W        W81257  11.854  19.539  11.035
 9587W        W81258  25.299  12.637   2.794
 9588W        W81259   1.682  11.183   4.621
 9589W        W81260  30.228   9.077  14.565
 9590W        W81261  28.608  13.716  11.741
 9591W        W81262  15.013  10.499   2.583
 9592W        W81263  38.995   0.313  11.072
 9593W        W81264  22.088  17.394   1.579
 9594W        W81265   9.504   8.895   9.917
 9595W        W81266   0.892  38.541  10.764
 9596W        W81267  12.222  14.150   1.133
 9597W        W81268  23.587   6.394  13.727
 9598W        W81269   9.871  41.580   3.282
 9599W        W81270  27.040   4.896   3.422
 9600W        W81271  10.923  14.558  12.833
 9601W        W81272  32.628  14.611   3.106
 9602W        W81273   5.830   8.184  13.912
 9603W        W81274  26.479  43.921   2.346
 9604W        W81275  34.855  37.871   0.950
 9605W        W81276  23.866  22.034  11.220
 9606W        W81277  19.424  22.797   1.754
 9607W        W81278  16.545  38.453   0.808
 9608W        W81279  28.580   8.642  11.182
 9609W        W81280  26.405  30.507   3.130
 9610W        W81281   0.451  16.181   3.839
 9611W        W81282  38.598   7.318   3.058
 9612W        W81283  21.974  29.910   4.365
 9613W        W81284  15.220  24.593   1.730
 9614W        W81285  27.027  13.136   3.171
 9615W        W81286   8.723  37.907   3.151
 9616W        W81287  17.709   5.934  14.003
 9617W        W81288   9.654  42.892  13.383
 9618W        W81289  17.448  29.607  10.437
 9619W        W81290  17.339  28.191   1.313
 9620W        W81291  43.035   0.757   2.422
 9621W        W81292  28.818  16.167  11.065
 9622W        W81293  16.149   0.363  13.249
 9623W        W81294  33.817  32.108   3.796
 9624W        W81295  32.198  23.684   0.939
 9625W        W81296  16.236  25.902   0.091
 9626W        W81297  25.488   2.856  13.036
 9627W        W81298   7.907  17.162  13.865
 9628W        W81299  34.928   6.676  14.378
 9629W        W81300   4.797  35.469   1.838
 9630W        W81301   7.908  14.231  14.812
 9631W        W81302  44.301  11.105  12.387
 9632W        W81303  39.362   6.160  10.787
 9633W        W81304  37.752  13.679  14.448
 9634W        W81305  29.398   6.772  13.112
 9635W        W81306  34.856   7.598  14.458
 9636W        W81307  44.825   0.411   3.133
 9637W        W81308  34.594  33.144   4.597
 9638W        W81309  12.660  25.908   3.311
 9639W        W81310  28.264  24.502   1.784
 9640W        W81311  24.472  21.067  12.365
 9641W        W81312   7.887  32.258  11.012
 9642W        W81313   3.981   6.621  14.083
 9643W        W81314  28.500  29.871  13.411
 9644W        W81315  24.109   8.671   9.601
 9645W        W81316  42.780  21.114   3.260
 9646W        W81317   2.636  33.372  12.237
 9647W        W81318  15.885  44.944   4.629
 9648W        W81319  29.510  15.578  10.664
 9649W        W81320   5.615  20.338   1.717
 9650W        W81321  35.285  31.662  12.553
 9651W        W81322  32.666  35.372  11.455
 9652W        W81323  30.063  37.329   2.206
 9653W        W81324  25.071  17.439  11.532
 9654W        W81325  11.377  11.795  13.054
 9655W        W81326  43.408  22.376  14.452
 9656W        W81327   3.687  30.103   1.753
 9657W        W81328  35.068  11.411   1.361
 9658W        W81329  11.267  15.912  12.555
 9659W        W81330   6.305  33.041   1.549
 9660W        W81331   8.119  11.600  13.712
 9661W        W81332  35.590  20.856   1.376
 9662W        W81333  14.873  16.596   0.845
 9663W        W81334  28.570   8.211   0.254
 9664W        W81335  35.531  16.858  12.007
 9665W        W81336  17.237   4.440   0.451
 9666W        W81337  24.477  36.985   2.510
 9667W        W81338  37.436  36.815  14.152
 9668W        W81339  22.538   1.877  14.260
 9669W        W81340  19.701  19.271  10.702
 9670W        W81341  38.327  40.262   4.631
 9671W        W81342  20.276  37.504   2.597
 9672W        W81343  15.695  41.098  14.661
 9673W        W81344  29.600  29.948  11.474
 9674W        W81345   1.792   4.626  11.149
 9675W        W81346  30.637  23.684   0.421
 9676W        W81347   0.034  12.297  10.772
 9677W        W81348  11.460  21.687   4.611
 9678W        W81349  22.006  26.454  10.503
 9679W        W81350  35.459  15.133   1.414
 9680W        W81351   7.051   8.646   0.723
 9681W        W81352  20.283   8.105   4.018
 9682W        W81353   6.866  42.717   3.791
 9683W        W81354  16.102  14.190   2.603
 9684W        W81355  27.525   2.898   2.254
 9685W        W81356  26.941   1.503   0.923
 9686W        W81357  37.153  33.473  10.697
 9687W        W81358  33.974  15.045   2.362
 9688W        W81359  14.061  10.805  13.414
 9689W        W81360   2.218   9.974   0.424
 9690W        W81361  12.150  15.808   3.537
 9691W        W81362  29.441  38.847  12.333
 9692W        W81363  42.304  35.001   4.109
 9693W        W81364  14.704  38.424  11.510
 9694W        W81365   5.972  14.126  14.331
 9695W        W81366  31.109  28.546  14.537
 9696W        W81367   4.323   7.823  13.583
 9697W        W81368  38.559  24.704   3.539
 9698W        W81369  39.842  36.636   1.680
 9699W        W81370  39.108   5.642  12.585
 9700W        W81371  24.141  11.585  14.500
 9701W        W81372  30.054   2.813  14.424
 9702W        W81373  29.119  14.380   3.237
 9703W        W81374   3.299  41.341   2.293
 9704W        W81375   0.484  15.836   1.843
 9705W        W81376  42.577  16.130   2.896
 9706W        W81377  26.199  38.053  14.881
 9707W        W81378  38.275   0.687   4.126
 9708W        W81379   6.202  27.298  13.863
 9709W        W81380  25.871   3.302   4.528
 9710W        W81381   9.947  23.291  11.108
 9711W        W81382   0.248  16.040  14.974
 9712W        W81383  34.567  20.855  10.447
 9713W        W81384  23.905  14.648   1.818
 9714W        W81385   5.447  35.650  14.107
 9715W        W81386  44.818  12.821   4.628
 9716W        W81387  31.078  24.078  10.962
 9717W        W81388  26.131   8.428  14.081
 9718W        W81389   2.296  22.510  10.946
 9719W        W81390  35.902  20.405  11.991
 9720W        W81391  12.547  25.804  11.032
 9721W        W81392   0.933  24.785  11.476
 9722W        W81393  21.622  30.706   2.701
 9723W        W81394  14.453   3.977  10.336
 9724W        W81395  26.598  10.316   2.728
 9725W        W81396  23.084  36.083  13.840
 9726W        W81397  13.792  31.474  12.140
 9727W        W81398   4.652  11.880   2.449
 9728W        W81399  35.264   9.460   2.771
 9729W        W81400   8.904   6.813  14.236
 9730W        W81401  32.014  13.378  11.171
 9731W        W81402  38.718  19.073   1.859
 9732W        W81403   3.537  14.805   3.192
 9733W        W81404  29.519  26.925  11.997
 9734W        W81405   6.119  12.843  12.032
 9735W        W81406  35.416  26.701  10.713
 9736W        W81407  19.249  23.205  13.984
 9737W        W81408  18.807   3.145   1.390
 9738W        W81409  38.952  44.404   2.393
 9739W        W81410   9.582  14.737  13.002
 9740W        W81411  43.028   6.768   0.577
 9741W        W81412  42.467   8.032  14.507
 9742W        W81413  18.594   1.862  14.085
 9743W        W81414  18.013  20.078   3.292
 9744W        W81415  36.847  32.520   4.846
 9745W        W81416  44.283  37.636   2.445
 9746W        W81417  34.864  12.779  12.292
 9747W        W81418  32.974  13.411   0.508
 9748W        W81419  16.170  44.676   3.792
 9749W        W81420  13.709  10.093  14.713
 9750W        W81421  40.998  29.031  13.628
 9751W        W81422  31.037  37.530   2.516
 9752W        W81423   3.820   9.611  12.459
 9753W        W81424  40.503  38.457  13.018
 9754W        W81425   5.234  40.323  11.096
 9755W        W81426  25.936  25.398   1.974
 9756W        W81427   3.260  39.853  11.602
 9757W        W81428  42.966   6.695   4.286
 9758W        W81429  28.773  21.584  11.478
 9759W        W81430  13.253   6.347   0.687
 9760W        W81431  36.522  19.190   1.812
 9761W        W81432   0.296  22.082   4.709
 9762W        W81433  29.861  42.407  11.523
 9763W        W81434  36.911  11.756   3.100
 9764W        W81435  37.490  17.886   4.841
 9765W        W81436  26.095  14.384  14.378
 9766W        W81437  11.900  41.088   4.118
 9767W        W81438  13.588  31.087  12.467
 9768W        W81439   5.944  37.021   1.324
 9769W        W81440  29.350  36.948  14.296
 9770W        W81441   6.995  30.202  12.121
 9771W        W81442   8.226  41.939   3.567
 9772W        W81443  36.313  17.731  11.815
 9773W        W81444  31.575  17.583   4.582
 9774W        W81445   2.767  12.199  12.949
 9775W        W81446  23.333   1.080  14.534
 9776W        W81447  24.983  29.193  14.959
 9777W        W81448   2.772  43.998  14.359
 9778W        W81449  36.537  30.168   4.518
 9779W        W81450  12.604  17.115   3.404
 9780W        W81451   6.718   6.577  13.442
 9781W        W81452  26.030  36.349  11.486
 9782W        W81453   7.920  31.254  13.598
 9783W        W81454  33.386  25.073  14.833
 9784W        W81455  13.483  42.011   1.765
 9785W        W81456  40.326  39.336  12.995
 9786W        W81457  17.084  27.022   4.374
 9787W        W81458  40.774  35.083  12.734
 9788W        W81459  34.556   1.393   3.261
 9789W        W81460  23.261   7.799  10.728
 9790W        W81461   2.997  42.835  12.905
 9791W        W81462  26.459   2.270  11.129
 9792W        W81463   9.103   6.333  14.070
 9793W        W81464   1.881  31.413   4.642
 9794W        W81465  31.558  10.829  10.513
 9795W        W81466   8.318  14.245  12.594
 9796W        W81467  40.537  43.464  10.855
 9797W        W81468  19.666  14.222   3.714
 9798W        W81469  40.308   3.676   4.219
 9799W        W81470  14.553  16.278   3.257
 9800W        W81471  10.777  25.756  11.162
 9801W        W81472  33.513  19.060   2.717
 9802W        W81473   7.699  41.521  11.888
 9803W        W81474   1.722  16.476   0.669
 9804W        W81475  44.682  34.979   1.397
 9805W        W81476  32.934   3.186   2.219
 9806W        W81477  10.318  18.361   3.636
 9807W        W81478  24.172  43.294   4.201
 9808W        W81479  13.333  24.920  11.648
 9809W        W81480  31.362  37.893   4.299
 9810W        W81481  39.709   3.855  10.805
 9811W        W81482   3.012  17.731  12.410
 9812W        W81483  25.540  17.279  10.690
 9813W        W81484   0.787  19.465   5.204
 9814W        W81485  12.052  44.218   2.957
 9815W        W81486  37.514  27.827   2.637
 9816W        W81487  13.126  41.773  12.078
 9817W        W81488  26.424  32.668   1.048
 9818W        W81489  44.801   0.205  14.270
 9819W        W81490  15.244   5.959  11.654
 9820W        W81491  38.002  35.516   3.589
 9821W        W81492  17.094   9.432   4.893
 9822W        W81493  35.808  24.135   0.861
 9823W        W81494  40.975  19.737   2.706
 9824W        W81495  18.043  34.494   0.557
 9825W        W81496   1.671  15.799   1.817
 9826W        W81497  21.206  27.782  13.025
 9827W        W81498  20.743   2.736   1.391
 9828W        W81499  35.023  42.088  10.847
 9829W        W81500   7.695  18.406   1.637
 9830W        W81501   9.894  11.520  10.832
 9831W        W81502   4.736  18.247  12.457
 9832W        W81503  42.973  30.434   1.927
 9833W        W81504  34.836  37.304   1.737
 9834W        W81505  17.071  44.847   2.834
 9835W        W81506  12.135  37.775  14.025
 9836W        W81507  33.671   6.191   4.791
 9837W        W81508  11.450  21.766  11.587
 9838W        W81509   1.728  30.954  12.505
 9839W        W81510  15.994  10.354  11.464
 9840W        W81511  26.099  30.182   3.637
 9841W        W81512  39.662  21.526  12.039
 9842W        W81513  24.487  37.404   1.765
 9843W        W81514  34.632  41.397   4.557
 9844W        W81515  33.707  38.582  10.196
 9845W        W81516  21.327  35.963  14.481
 9846W        W81517  14.049  42.761   3.330
 9847W        W81518  11.643  38.846   3.783
 9848W        W81519  36.943  33.732  13.032
 9849W        W81520  19.560  26.446   2.848
 9850W        W81521   4.661  34.097   2.518
 9851W        W81522  10.680  21.074   4.057
 9852W        W81523  33.378  32.226   1.394
 9853W        W81524   6.153  26.961   1.843
 9854W        W81525   3.455  21.019   3.610
 9855W        W81526  14.814   5.779  10.504
 9856W        W81527  26.088  43.478  11.992
 9857W        W81528  26.007  24.593   2.262
 9858W        W81529   1.204   8.929  11.793
 9859W        W81530  17.088  29.049  13.019
 9860W        W81531  24.692  24.415  14.472
 9861W        W81532  24.274   7.859  14.317
 9862W        W81533   5.076  36.880   4.141
 9863W        W81534  26.585  37.149  11.603
 9864W        W81535   4.330  29.891   4.203
 9865W        W81536   0.967  17.536  13.950
 9866W        W81537   0.990   1.917   4.175
 9867W        W81538   6.294  15.836   2.259
 9868W        W81539  23.655  31.992  13.876
 9869W        W81540  26.745  40.540   4.512
 9870W        W81541   8.179  23.979   4.054
 9871W        W81542   5.838  21.948  11.053
 9872W        W81543  39.075  18.101  12.813
 9873W        W81544  31.467   6.971   2.324
 9874W        W81545  19.083   3.803  12.064
 9875W        W81546  42.871  11.398   2.638
 9876W        W81547  19.342  22.383   3.632
 9877W        W81548  13.849  42.244  10.569
 9878W        W81549   0.093  32.967   4.801
 9879W        W81550  12.096   8.556  14.554
 9880W        W81551  22.358  40.601   3.217
 9881W        W81552  42.380  40.936   0.104
 9882W        W81553  15.660  20.086  14.070
 9883W        W81554  35.310  35.664  13.272
 9884W        W81555   9.512  40.262   4.614
 9885W        W81556  23.536  38.409  13.436
 9886W        W81557  34.429  17.628   3.520
 9887W        W81558  25.573  44.709   2.663
 9888W        W81559   1.871   0.836   0.217
 9889W        W81560  19.915  27.657   2.394
 9890W        W81561  30.950  43.494  10.721
 9891W        W81562  24.126  25.424   0.847
 9892W        W81563  30.705   2.341  11.733
 9893W        W81564  29.680   8.365  11.728
 9894W        W81565   2.999  28.960   1.846
 9895W        W81566  38.360  10.163   0.309
 9896W        W81567  28.047  38.896   2.734
 9897W        W81568  37.902   7.260   0.341
 9898W        W81569  32.933  33.620   1.242
 9899W        W81570  24.668  13.906  12.218
 9900W        W81571  42.033  40.570   2.759
 9901W        W81572  37.886  27.622   4.909
 9902W        W81573   5.713  18.536  14.995
 9903W        W81574  14.292  20.710   0.897
 9904W        W81575   6.400  33.438   0.389
 9905W        W81576  38.634  17.620  11.610
 9906W        W81577   8.467  25.258  11.160
 9907W        W81578  41.844  42.496   0.133
 9908W        W81579   2.944   0.354   4.112
 9909W        W81580  33.602   0.445  12.512
 9910W        W81581  24.722  14.720   3.284
 9911W        W81582  11.885  15.623  13.846
 9912W        W81583  31.020   8.394  14.214
 9913W        W81584  36.337  22.193   4.761
 9914W        W81585  44.363   2.403  14.670
 9915W        W81586  15.112  17.016   2.363
 9916W        W81587   8.792  28.054   4.353
 9917W        W81588  36.720  22.032   1.894
 9918W        W81589   2.048  27.920   4.550
 9919W        W81590  43.459  41.888  13.839
 9920W        W81591  23.076   4.422   1.893
 9921W        W81592  20.493  25.670   4.071
 9922W        W81593  17.285  21.516   1.893
 9923W        W81594  36.154  20.123  12.374
 9924W        W81595  41.596  13.621  10.816
 9925W        W81596   3.019  43.928  14.827
 9926W        W81597   2.711  27.986  11.763
 9927W        W81598   9.325  12.638  11.060
 9928W        W81599   3.320  35.166   0.271
 9929W        W81600  21.795  22.710  13.258
 9930W        W81601  20.007  40.479   3.534
 9931W        W81602  39.314  43.031   4.107
 9932W        W81603  43.737  32.336  14.840
 9933W        W81604  30.492  12.768  13.318
 9934W        W81605   7.237  14.875   0.862
 9935W        W81606  26.252  16.815   3.712
 9936W        W81607  41.861  15.681  10.615
 9937W        W81608  25.259  41.373  14.446
 9938W        W81609  30.518  26.953   4.661
 9939W        W81610  15.603  19.052  10.441
 9940W        W81611  43.587  24.592  13.415
 9941W        W81612  17.810  15.587  11.670
 9942W        W81613  13.169  42.138   4.616
 9943W        W81614  16.539  35.858   1.188
 9944W        W81615  34.752   9.436   0.208
 9945W        W81616  33.574  32.511   3.544
 9946W        W81617  17.461  13.347  14.344
 9947W        W81618  39.199  38.413   0.982
 9948W        W81619   7.331  25.774  13.292
 9949W        W81620  26.459   7.810  13.300
 9950W        W81621  11.099  27.237  11.420
 9951W        W81622  28.325   1.430  14.471
 9952W        W81623  22.723  42.503   3.223
 9953W        W81624  25.158  21.211   0.819
 9954W        W81625  16.157   5.607   2.003
 9955W        W81626  14.623  40.862   0.180
 9956W        W81627  27.460  43.951   2.318
 9957W        W81628  17.102   9.865   3.199
 9958W        W81629   5.779   8.477   0.351
 9959W        W81630  10.413  43.734   1.749
 9960W        W81631   6.268  41.922  14.281
 9961W        W81632  32.104  10.925   2.027
 9962W        W81633  37.026  31.846  10.634
 9963W        W81634  20.912  34.179   2.803
 9964W        W81635  12.456   7.813   3.653
 9965W        W81636  41.967  44.781   1.774
 9966W        W81637  41.061  35.318   3.236
 9967W        W81638   6.614  16.276  13.385
 9968W        W81639  32.123  17.050   4.126
 9969W        W81640  19.017   1.504   1.217
 9970W        W81641  19.144  26.013   4.758
 9971W        W81642  36.844  43.202   4.097
 9972W        W81643  34.454  13.239  13.410
 9973W        W81644  11.388  16.078  11.987
 9974W        W81645  23.125   4.736   1.190
 9975W        W81646   1.790  44.036   4.293
 9976W        W81647   5.864  34.316   1.234
 9977W        W81648  20.358  28.424   2.146
 9978W        W81649  37.982   4.535   2.847
 9979W        W81650  40.126  24.940  13.042
 9980W        W81651   1.739  18.762  12.384
 9981W        W81652  31.540  32.662  13.070
 9982W        W81653  11.296   7.588   2.802
 9983W        W81654   2.274  40.794   0.119
 9984W        W81655  37.830   2.942  12.471
 9985W        W81656  26.602  26.706  14.228
 9986W        W81657  17.981   1.289   4.091
 9987W        W81658  24.168  29.909   2.917
 9988W        W81659  37.321  41.001   0.342
 9989W        W81660   0.296   7.705   2.223
 9990W        W81661  36.340  42.280   0.828
 9991W        W81662   6.191  26.860  11.204
 9992W        W81663  40.754  33.121  14.721
 9993W        W81664  24.868  34.387  13.927
 9994W        W81665  25.563  18.606  14.121
 9995W        W81666  29.424  38.061  11.932
 9996W        W81667  27.338  33.001  12.696
 9997W        W81668   0.805  21.283   2.295
 9998W        W81669  18.907  44.278   0.047
 9999W        W81670  35.088  43.401   1.286
10000W        W81671  35.459  33.645  10.503
10001W        W81672  19.967  18.005  10.181
10002W        W81673   3.864  41.038   0.124
10003W        W81674  14.270  39.962  10.839
10004W        W81675  31.657  42.955  14.292
10005W        W81676  25.167   2.430   2.348
10006W        W81677   0.362  38.367   4.134
10007W        W81678   4.016   5.716  11.603
10008W        W81679  42.500  42.276   4.925
10009W        W81680  42.394   4.380   4.595
10010W        W81681  31.903  40.033   1.515
10011W        W81682  40.887   0.035  12.927
10012W        W81683   0.493  12.255   2.275
10013W        W81684  26.128   1.973  10.567
10014W        W81685  31.986  37.479  12.362
10015W        W81686  12.158  36.437  11.409
10016W        W81687  31.051  28.334   2.131
10017W        W81688   4.851  34.911  10.717
10018W        W81689   9.776  39.501  10.646
10019W        W81690  13.070  12.069   2.579
10020W        W81691   9.287  22.765  11.438
10021W        W81692  42.324  28.186  11.147
10022W        W81693   0.085  20.571  13.627
10023W        W81694   3.828  13.692  11.416
10024W        W81695  41.036  40.119  11.714
10025W        W81696  33.362  29.557   5.142
10026W        W81697   2.463  34.135  11.543
10027W        W81698  34.948  26.750  13.928
10028W        W81699  26.941  22.757   1.145
10029W        W81700  43.451  34.979  10.483
10030W        W81701  26.456  20.617  12.129
10031W        W81702  22.153  11.419  14.268
10032W        W81703  43.864  29.987  11.784
10033W        W81704   1.025   9.817  14.000
10034W        W81705  43.939  20.117  10.704
10035W        W81706  32.151  13.597   4.248
10036W        W81707   9.230   1.006  10.741
10037W        W81708  41.526   2.944  10.936
10038W        W81709  20.212  13.118   1.459
10039W        W81710  32.400  32.538   1.188
10040W        W81711   1.703  19.273   1.805
10041W        W81712  35.597  37.046   5.409
10042W        W81713  15.041  31.421   2.901
10043W        W81714  10.651   6.743   0.389
10044W        W81715  28.946   4.985  11.190
10045W        W81716  27.634  30.943  11.598
10046W        W81717   1.321  37.611  14.284
10047W        W81718  36.419   8.321  14.588
10048W        W81719   4.508   7.218  10.406
10049W        W81720   5.891   1.387   3.361
10050W        W81721   7.498  18.317  10.367
10051W        W81722   3.988  36.126  11.660
10052W        W81723   4.830  23.080  13.905
10053W        W81724  12.764   1.847  13.551
10054W        W81725  15.753  24.641   1.859
10055W        W81726  10.193  41.337   0.829
10056W        W81727  31.187  38.933   0.816
10057W        W81728   2.888  23.495   2.210
10058W        W81729  29.219  35.689  12.529
10059W        W81730  38.053  36.582   4.971
10060W        W81731  28.796  38.572  14.480
10061W        W81732  26.042  23.978  14.028
10062W        W81733   2.193  29.079  11.932
10063W        W81734   9.647  15.296   0.991
10064W        W81735  38.197  18.144  14.923
10065W        W81736  15.818  26.152   3.645
10066W        W81737  10.327  13.231   1.771
10067W        W81738  12.388  43.450   2.236
10068W        W81739   4.096  26.073   0.312
10069W        W81740   0.558  11.169  13.767
10070W        W81741  35.897   6.449  14.351
10071W        W81742  16.764  24.486  14.468
10072W        W81743   7.323  37.907   0.351
10073W        W81744  34.449  36.332   2.834
10074W        W81745  14.524  42.770  14.407
10075W        W81746  18.835  25.120   5.685
10076W        W81747  25.125  42.871  14.467
10077W        W81748   9.841  37.873  10.626
10078W        W81749  33.934  28.169  12.172
10079W        W81750  28.018  28.021   1.358
10080W        W81751  16.631   4.824   3.328
10081W        W81752  35.853  24.577   2.307
10082W        W81753  20.344   7.010  10.991
10083W        W81754  12.655  25.536   1.333
10084W        W81755  27.451  24.086   3.173
10085W        W81756  23.012  44.436   4.189
10086W        W81757  38.984  32.571   1.465
10087W        W81758  40.414   1.667  12.476
10088W        W81759  13.349  14.645  11.445
10089W        W81760  11.855  21.593  14.088
10090W        W81761  13.068  44.497  10.229
10091W        W81762  23.197   5.734   0.836
10092W        W81763  30.646  19.455   0.412
10093W        W81764   3.532   3.214  14.631
10094W        W81765  32.441  22.028   2.779
10095W        W81766  25.182  14.307  14.257
10096W        W81767  42.501  35.938   1.284
10097W        W81768  16.826  13.924   0.964
10098W        W81769  40.597  28.591  14.752
10099W        W81770   4.999   8.762  13.877
10100W        W81771   4.504  43.870   4.653
10101W        W81772  16.454  26.159   3.096
10102W        W81773  35.124  16.704  13.269
10103W        W81774  42.007  44.395  11.233
10104W        W81775  19.924  15.534   4.267
10105W        W81776  30.866  25.636   4.599
10106W        W81777  31.859  11.870   4.951
10107W        W81778  29.197  39.018   2.130
10108W        W81779  42.477   1.695   1.837
10109W        W81780   2.014   5.834  13.135
10110W        W81781  35.907  35.502  14.502
10111W        W81782  11.285  12.365   2.889
10112W        W81783  20.738  35.956   1.875
10113W        W81784  25.661  32.711  13.991
10114W        W81785  14.195  24.522  12.960
10115W        W81786  38.027  18.125  11.981
10116W        W81787  41.224  21.040   1.264
10117W        W81788  36.913  20.813   0.976
10118W        W81789   1.850  37.971   1.125
10119W        W81790  21.162   8.820   4.274
10120W        W81791   8.794   5.394   0.417
10121W        W81792  19.060  11.930  11.400
10122W        W81793  14.435  26.274   1.483
10123W        W81794  23.506  35.914   4.122
10124W        W81795  36.006  29.373   4.758
10125W        W81796  23.093   2.298  13.132
10126W        W81797  34.055  33.090   0.521
10127W        W81798  43.321   8.939  12.862
10128W        W81799  41.810  18.920  10.769
10129W        W81800   9.469  29.001  11.951
10130W        W81801  35.366  26.881  11.189
10131W        W81802  31.503  29.643   4.333
10132W        W81803  19.492   8.741   1.873
10133W        W81804  15.161  28.101   4.122
10134W        W81805  18.624   9.331   2.122
10135W        W81806  35.712  11.564   1.832
10136W        W81807   3.766  34.388   4.144
10137W        W81808  33.121   9.780  13.510
10138W        W81809   8.943  14.727  12.041
10139W        W81810  28.198   8.289  11.875
10140W        W81811  42.168   2.934   3.212
10141W        W81812  37.332  12.856   2.773
10142W        W81813  15.656  44.935  10.498
10143W        W81814   3.383  28.452  10.651
10144W        W81815  36.483  33.560  13.225
10145W        W81816  12.915   8.799  13.508
10146W        W81817  44.121  28.548   2.781
10147W        W81818   3.717   6.697   0.404
10148W        W81819  17.238  40.092   1.396
10149W        W81820  33.867  36.411   3.104
10150W        W81821  13.477  30.956  10.443
10151W        W81822  21.701  26.465   3.806
10152W        W81823  35.504  41.664  13.438
10153W        W81824   4.241   0.353  11.387
10154W        W81825  33.857  18.158  11.144
10155W        W81826  10.079  11.756   4.998
10156W        W81827  26.336  40.572   0.702
10157W        W81828  44.467  39.448   2.628
10158W        W81829  37.207  43.927  13.852
10159W        W81830  12.599  37.289  11.648
10160W        W81831  42.786  11.814   4.621
10161W        W81832   3.559  28.267   0.930
10162W        W81833   7.274  39.745   2.499
10163W        W81834  13.246  39.730   2.959
10164W        W81835  18.682  35.652  12.890
10165W        W81836   1.417  21.587  12.373
10166W        W81837  20.679  39.620   1.602
10167W        W81838   4.706  41.645  10.147
10168W        W81839  11.588  10.614  11.583
10169W        W81840  33.404  20.104   4.168
10170W        W81841  10.284  41.069   2.493
10171W        W81842  28.057  24.756  10.447
10172W        W81843  40.992  19.560   3.647
10173W        W81844  25.239  39.983   1.230
10174W        W81845  11.073   8.139   1.037
10175W        W81846  21.057  44.772   0.380
10176W        W81847  43.182  33.031  13.979
10177W        W81848   6.329  18.568   0.064
10178W        W81849  36.538  30.398  12.984
10179W        W81850  20.050   9.313   1.370
10180W        W81851  14.587  44.376  10.452
10181W        W81852  29.988  42.677  10.374
10182W        W81853  37.916  44.180   1.402
10183W        W81854  16.528  11.330   1.409
10184W        W81855  41.304  16.905  10.743
10185W        W81856  40.771  12.389   3.871
10186W        W81857  10.889   6.843   3.679
10187W        W81858  19.374  38.073   3.183
10188W        W81859  12.278  24.048   2.816
10189W        W81860  37.591  33.174  10.735
10190W        W81861   6.780   6.620   2.834
10191W        W81862  43.265  26.019   3.907
10192W        W81863  26.803  15.815  12.574
10193W        W81864  43.285  39.811   0.536
10194W        W81865   3.262   8.384  14.215
10195W        W81866  43.966   7.378  10.870
10196W        W81867  30.075  21.510  12.654
10197W        W81868  18.713   5.945  11.148
10198W        W81869  24.651   6.732  12.970
10199W        W81870  12.277  28.545  13.768
10200W        W81871  17.098  40.259   4.256
10201W        W81872  18.147  19.954   4.222
10202W        W81873  23.729   7.891  12.621
10203W        W81874  40.876  34.086   0.771
10204W        W81875   6.689  13.188   1.645
10205W        W81876  37.767  28.752   4.367
10206W        W81877  12.128  43.371  13.437
10207W        W81878  36.903  39.477   3.398
10208W        W81879  44.273  10.601  13.302
10209W        W81880  44.772  22.521  13.863
10210W        W81881  36.584  34.995   3.738
10211W        W81882  44.708   7.810   3.567
10212W        W81883   0.416  37.790  13.842
10213W        W81884  39.854  39.993  11.934
10214W        W81885  42.367   7.703   0.782
10215W        W81886  20.749  17.610   4.564
10216W        W81887   9.296  36.337   2.730
10217W        W81888  28.510  11.640  14.378
10218W        W81889   4.100   4.334   2.704
10219W        W81890   4.319   3.387  12.450
10220W        W81891  17.060  11.783   4.905
10221W        W81892  40.577  13.744  12.446
10222W        W81893   5.495  22.021  12.932
10223W        W81894   0.703  12.305  11.605
10224W        W81895  39.753  22.924   1.097
10225W        W81896  32.014  18.014   2.677
10226W        W81897   6.100  14.348  10.536
10227W        W81898  16.141  14.668   0.032
10228W        W81899   8.156  44.737   2.734
10229W        W81900  17.739  19.715   4.571
10230W        W81901  14.335  21.070  13.088
10231W        W81902  24.789  38.203   3.971
10232W        W81903  18.961   3.521  11.120
10233W        W81904  27.633  28.446  12.075
10234W        W81905  29.917  10.134  10.716
10235W        W81906  30.615   1.446  14.913
10236W        W81907   3.887   5.822   0.634
10237W        W81908  26.506   6.634   3.994
10238W        W81909  27.654  18.563  11.046
10239W        W81910  24.110  21.492  13.053
10240W        W81911  25.117  14.838   0.471
10241W        W81912  23.401  12.359  11.619
10242W        W81913  10.765  14.117   2.420
10243W        W81914  37.554  22.275  11.561
10244W        W81915  43.096  40.805   2.813
10245W        W81916   6.816  15.019  12.915
10246W        W81917  44.484  35.047  12.876
10247W        W81918  42.318   5.627   0.842
10248W        W81919  40.260  29.619  10.576
10249W        W81920   0.311  14.335  10.316
10250W        W81921   0.374  12.343  14.514
10251W        W81922  22.278   8.905  14.023
10252W        W81923  38.011   2.560  11.140
10253W        W81924  28.790  21.803   1.792
10254W        W81925   5.734  33.673  12.543
10255W        W81926  30.549  17.979   2.018
10256W        W81927  43.015  38.246  12.917
10257W        W81928  13.269  31.391   1.974
10258W        W81929  27.000  23.018  10.625
10259W        W81930  12.243  26.497  10.487
10260W        W81931  31.056  32.414  10.432
10261W        W81932  33.969  13.317  13.589
10262W        W81933  33.898  16.221   0.887
10263W        W81934  18.273   1.328  12.572
10264W        W81935  21.294  24.595   0.096
10265W        W81936  36.460   0.869  12.185
10266W        W81937  35.462  29.627   3.840
10267W        W81938  36.311   5.798   3.604
10268W        W81939   3.316  21.603  14.016
10269W        W81940   6.937  27.498   4.215
10270W        W81941  27.948  19.016  13.022
10271W        W81942  34.699  14.813   2.717
10272W        W81943   8.786  37.556  13.908
10273W        W81944  15.500  39.128   3.578
10274W        W81945  35.576  18.140  12.812
10275W        W81946  36.399  16.077  10.492
10276W        W81947  25.629  43.827  14.103
10277W        W81948   3.536  39.509   0.922
10278W        W81949  44.421  27.513  13.972
10279W        W81950  19.101   5.227   2.127
10280W        W81951   4.008  44.188  11.120
10281W        W81952  32.565  11.170  12.240
10282W        W81953  13.081  28.181   3.141
10283W        W81954  27.995  31.041  13.514
10284W        W81955  42.022  31.602   2.712
10285W        W81956   7.618  16.176   2.354
10286W        W81957  16.617  37.534  14.792
10287W        W81958  22.328  16.178  14.043
10288W        W81959  21.554  41.797  11.130
10289W        W81960  44.280  13.810   0.853
10290W        W81961  14.732  12.730  11.082
10291W        W81962  28.980  43.286   1.704
10292W        W81963  40.424  41.785   2.201
10293W        W81964  21.117   4.009  13.885
10294W        W81965  24.588   2.035  13.597
10295W        W81966  41.022   6.600  12.090
10296W        W81967  15.672  29.239  11.979
10297W        W81968   5.158  13.108   1.882
10298W        W81969  34.797   8.252  14.888
10299W        W81970   9.115  40.466   0.882
10300W        W81971  44.195  10.730   1.329
10301W        W81972   6.366  11.213  13.928
10302W        W81973  39.166  20.695  11.964
10303W        W81974  15.741  13.246   0.973
10304W        W81975  39.006   2.907   1.154
10305W        W81976  16.782  19.704  11.546
10306W        W81977  17.323  43.413   0.982
10307W        W81978   1.392   8.083   0.963
10308W        W81979  38.559  43.855  10.423
10309W        W81980  22.535  25.926  13.864
10310W        W81981  12.378  24.496   3.096
10311W        W81982   8.689  10.941   4.174
10312W        W81983  31.953   2.818   4.024
10313W        W81984  10.286  10.059   0.594
10314W        W81985  13.245  26.442  14.742
10315W        W81986  17.504  20.064  14.442
10316W        W81987  17.793   3.914   2.207
10317W        W81988  29.170  23.755   4.431
10318W        W81989  24.514  31.664  10.609
10319W        W81990  40.907   3.235   2.776
10320W        W81991   7.887  37.376   3.426
10321W        W81992   7.261  29.617   0.985
10322W        W81993  44.000  13.629  12.610
10323W        W81994  40.912  29.072   4.169
10324W        W81995  34.583  11.787  12.437
10325W        W81996  17.765  30.101  11.661
10326W        W81997  23.506  28.037  13.422
10327W        W81998   4.832  43.489  11.075
10328W        W81999  38.333   8.236   0.422
10329W        W82000  40.460   5.090   1.539
10330W        W82001   9.815  29.194  14.643
10331W        W82002  28.340  43.284  10.836
10332W        W82003  40.749  11.780   2.435
10333W        W82004  21.459  15.858  14.201
10334W        W82005  20.276  14.798  11.855
10335W        W82006  15.857  15.352  12.471
10336W        W82007  31.301   8.183  14.592
10337W        W82008  38.112  43.217  11.520
10338W        W82009  34.052  22.653  14.758
10339W        W82010  37.541  40.474   3.896
10340W        W82011  14.691  28.480   0.189
10341W        W82012  30.159  21.092   2.800
10342W        W82013  24.145  20.006   3.780
10343W        W82014  16.886  18.753  11.513
10344W        W82015  40.542  38.904   0.057
10345W        W82016  33.324  19.119  10.662
10346W        W82017   7.756  21.646   0.919
10347W        W82018  35.482  18.151  10.648
10348W        W82019  14.128  14.579   1.333
10349W        W82020   9.774  10.039   0.720
10350W        W82021  16.639  19.121  13.899
10351W        W82022  32.601  17.279   3.924
10352W        W82023   7.805   2.013   0.852
10353W        W82024  27.506  18.666   1.286
10354W        W82025  23.038  37.428  11.010
10355W        W82026   9.771   3.192   3.259
10356W        W82027   6.682   4.372   2.821
10357W        W82028  25.645  23.617   4.171
10358W        W82029   2.030  27.573   0.887
10359W        W82030   7.833  22.739   2.337
10360W        W82031  10.076  40.951  13.350
10361W        W82032  13.935  20.156   2.495
10362W        W82033   4.195   5.293  12.926
10363W        W82034  14.176  21.643   1.403
10364W        W82035  34.088   2.936  12.601
10365W        W82036  44.783   1.326  14.340
10366W        W82037  36.455   3.857   0.592
10367W        W82038  42.332  23.147  14.896
10368W        W82039  37.430   1.566   0.676
10369W        W82040  29.172   2.999   2.246
10370W        W82041   0.427   1.896   4.121
10371W        W82042  11.799   6.274   3.696
10372W        W82043  27.788  25.131   3.968
10373W        W82044   4.770  34.309   0.202
10374W        W82045  37.320  35.714  14.961
10375W        W82046  27.848  14.821   1.893
10376W        W82047  10.225  32.383   4.920
10377W        W82048  41.061  33.162   0.141
10378W        W82049  37.916  18.047   3.105
10379W        W82050  38.454   6.965  14.930
10380W        W82051  24.107   3.387   4.560
10381W        W82052  20.624  14.198   2.314
10382W        W82053  40.672   0.799   4.134
10383W        W82054   5.684  10.498  10.223
10384W        W82055  43.743  17.848  12.977
10385W        W82056  38.290  34.285  11.168
10386W        W82057  41.033  23.066   1.174
10387W        W82058  23.823  37.507  11.558
10388W        W82059  41.459  32.320   4.248
10389W        W82060  28.622  40.068  12.585
10390W        W82061  37.969  10.972   4.706
10391W        W82062  32.624  27.215  13.336
10392W        W82063   5.628   1.891   0.773
10393W        W82064  33.624   7.268  12.514
10394W        W82065   9.988   9.741   2.815
10395W        W82066  43.767  12.253  10.942
10396W        W82067  28.463  28.458  12.087
10397W        W82068   1.712  23.193   3.759
10398W        W82069  12.363  31.468   1.741
10399W        W82070  36.456   0.775   4.123
10400W        W82071  40.468  23.105  13.901
10401W        W82072  38.953  15.587   1.690
10402W        W82073  40.169   0.849   4.106
10403W        W82074  32.867  15.640   1.170
10404W        W82075  32.187  31.852   0.495
10405W        W82076  12.646  42.964  13.450
10406W        W82077  13.505  25.501  11.252
10407W        W82078  13.631  10.591  14.792
10408W        W82079  13.102  32.357  12.095
10409W        W82080  41.571  10.708  11.732
10410W        W82081  21.778  18.671  11.184
10411W        W82082   5.357  18.808   1.061
10412W        W82083  13.970  19.825  13.889
10413W        W82084   9.419  37.061  14.568
10414W        W82085  40.838  36.659  13.141
10415W        W82086  33.577  34.099  10.757
10416W        W82087   9.873   0.489  10.580
10417W        W82088  33.090  30.656  14.925
10418W        W82089  30.859  17.899   4.192
10419W        W82090   6.810   4.380   1.375
10420W        W82091  19.098  20.103   0.886
10421W        W82092   8.106  23.248  12.474
10422W        W82093  19.740  39.381   3.582
10423W        W82094   6.707   8.678  11.533
10424W        W82095   6.097  23.669  10.684
10425W        W82096  26.461  28.503   3.201
10426W        W82097  23.019  22.055  10.695
10427W        W82098  29.440   5.403  10.607
10428W        W82099  14.226  25.149   3.193
10429W        W82100  29.423  39.533   4.563
10430W        W82101  32.354  38.986  10.176
10431W        W82102  42.838  28.935   4.710
10432W        W82103  33.038  31.311  10.925
10433W        W82104  27.499   8.884  11.886
10434W        W82105   7.926  19.689   0.898
10435W        W82106   2.793  21.493   2.728
10436W        W82107  29.954  14.396  12.988
10437W        W82108   1.019  26.784  14.383
10438W        W82109   8.498   9.395  10.501
10439W        W82110  29.898  17.472   0.260
10440W        W82111   8.748  13.573   2.898
10441W        W82112  25.626   9.725  12.814
10442W        W82113  17.536  28.709  11.936
10443W        W82114   8.799   3.332  12.340
10444W        W82115  28.967  31.148   2.883
10445W        W82116  20.467  28.028  11.638
10446W        W82117  39.978  31.043  11.919
10447W        W82118  23.637   6.618  12.858
10448W        W82119   9.243  21.103  14.456
10449W        W82120  12.851  21.489   1.737
10450W        W82121  40.953  31.250   3.531
10451W        W82122  19.770  38.960  13.742
10452W        W82123  24.607  21.567  12.377
10453W        W82124   0.216  21.986   5.713
10454W        W82125  40.307  23.149   3.606
10455W        W82126   9.722  42.504  11.893
10456W        W82127  27.553  43.379  12.692
10457W        W82128  29.126  35.002  14.207
10458W        W82129  27.403   3.867   2.232
10459W        W82130  39.081  43.158  11.233
10460W        W82131  13.321  11.192   4.091
10461W        W82132  41.858  43.517   2.249
10462W        W82133   6.060  41.360   5.000
10463W        W82134  12.338   8.342   3.206
10464W        W82135   5.495  14.144  14.564
10465W        W82136  39.868  13.333  13.091
10466W        W82137  27.694  24.659   3.164
10467W        W82138   3.991  27.564  11.963
10468W        W82139  33.659  28.718   2.377
10469W        W82140  25.191  15.096  11.555
10470W        W82141   4.672  42.318   5.178
10471W        W82142   0.800  31.084   2.413
10472W        W82143  30.839   5.117  14.379
10473W        W82144  14.589  13.838  12.672
10474W        W82145  23.023  22.127  14.237
10475W        W82146  14.711  33.288   2.105
10476W        W82147  10.731   3.223  13.594
10477W        W82148  34.459  21.458  13.982
10478W        W82149  35.124  20.527   1.333
10479W        W82150  30.716   0.921   4.655
10480W        W82151  28.926  23.211  10.819
10481W        W82152  17.646  38.140  10.680
10482W        W82153  25.031   2.649   1.725
10483W        W82154  35.640   9.846   2.708
10484W        W82155  25.927  21.473  10.751
10485W        W82156  32.142   6.459  10.989
10486W        W82157  30.996  25.536  14.339
10487W        W82158  31.880  25.462   2.607
10488W        W82159  42.930   0.607  13.989
10489W        W82160   9.469   9.250  11.488
10490W        W82161  17.078  29.698  12.580
10491W        W82162  32.487  22.338   0.975
10492W        W82163   8.952  33.592   2.774
10493W        W82164  38.666  12.458   3.139
10494W        W82165  17.096  14.185  11.076
10495W        W82166   5.085  36.438   0.358
10496W        W82167  36.394  21.562   1.220
10497W        W82168  41.044   3.431  12.502
10498W        W82169  16.498   5.957   1.799
10499W        W82170  29.199  31.370  14.017
10500W        W82171  29.912   7.308  13.849
10501W        W82172  23.227  22.305   3.824
10502W        W82173  26.436  13.417   0.550
10503W        W82174  22.080   2.345   1.209
10504W        W82175  20.116  17.534   3.060
10505W        W82176   5.339  19.658  12.067
10506W        W82177   9.966  43.987   2.683
10507W        W82178   8.724   1.128   3.330
10508W        W82179  33.142  19.212   2.364
10509W        W82180  31.445  44.403   3.735
10510W        W82181  26.540   5.609  11.977
10511W        W82182  13.774  18.509   0.731
10512W        W82183  33.469  39.824   4.140
10513W        W82184   2.003  13.374   2.918
10514W        W82185  31.020   1.369   1.122
10515W        W82186  44.260  33.112  11.127
10516W        W82187  27.003   3.185   2.555
10517W        W82188  33.447   0.975  14.936
10518W        W82189  18.841   7.045   0.983
10519W        W82190  12.291  25.096  14.275
10520W        W82191  13.291   7.904  11.211
10521W        W82192   4.979  43.401   0.871
10522W        W82193   4.667  24.175   4.114
10523W        W82194  40.158  24.584   0.372
10524W        W82195  26.129  35.909   2.333
10525W        W82196   3.260   8.293   1.199
10526W        W82197  26.303  14.858  13.507
10527W        W82198  39.522   9.357   0.982
10528W        W82199  43.822  22.528  12.030
10529W        W82200   4.989  31.096  13.537
10530W        W82201  17.092  25.959   2.474
10531W        W82202  39.863   4.187   0.869
10532W        W82203  33.360  40.126  14.051
10533W        W82204   6.502  25.689   1.215
10534W        W82205  24.675  40.737  14.417
10535W        W82206   0.507  37.168  12.920
10536W        W82207   4.137  40.839   1.491
10537W        W82208  31.129  13.849  12.942
10538W        W82209  14.718   6.783   0.210
10539W        W82210  19.856  38.781   0.019
10540W        W82211  15.052  17.699  14.520
10541W        W82212  44.058  27.371  12.065
10542W        W82213   5.742  37.881   3.189
10543W        W82214  10.880   1.298   3.192
10544W        W82215  38.356  35.579  10.960
10545W        W82216  14.322  40.046  10.323
10546W        W82217  25.158  39.287  13.794
10547W        W82218  29.558  22.545  13.054
10548W        W82219  16.529  20.187  14.576
10549W        W82220  37.424  14.661  14.300
10550W        W82221  22.546  37.120  14.323
10551W        W82222   7.116  44.906   2.639
10552W        W82223  36.550  11.067   0.743
10553W        W82224  29.090  40.907   2.915
10554W        W82225  23.964  24.043   1.284
10555W        W82226   2.942  26.750   1.326
10556W        W82227  28.946   9.414   3.287
10557W        W82228  34.146  18.646  13.804
10558W        W82229  23.591  38.567   1.288
10559W        W82230  42.245  35.397   0.496
10560W        W82231  44.758   3.381  14.774
10561W        W82232   3.360  18.711   4.493
10562W        W82233  36.834  37.345  14.274
10563W        W82234  31.623  14.316  13.331
10564W        W82235  14.147  33.863   3.054
10565W        W82236  43.308  32.556  13.362
10566W        W82237  18.628  40.489  11.894
10567W        W82238  43.140  23.194   3.709
10568W        W82239  37.390  14.872   3.879
10569W        W82240  37.043  20.627  12.074
10570W        W82241  19.283  33.352  14.952
10571W        W82242  24.697  16.354  14.762
10572W        W82243  29.446   9.274  13.064
10573W        W82244  37.013   4.834  10.638
10574W        W82245  25.609  13.113   1.219
10575W        W82246  31.015  26.687  13.721
10576W        W82247   2.430   3.457   0.093
10577W        W82248  34.706  19.316   1.941
10578W        W82249  38.460   4.997  12.588
10579W        W82250  42.575  14.613  12.851
10580W        W82251  21.207  39.133   2.442
10581W        W82252  37.741  12.320  12.956
10582W        W82253  18.124   4.385   3.610
10583W        W82254  29.661   3.936  11.698
10584W        W82255  43.259   8.181  12.569
10585W        W82256  30.486   2.737  13.754
10586W        W82257  34.015   8.230  11.584
10587W        W82258  12.311  19.955   3.750
10588W        W82259  20.781  25.165  12.078
10589W        W82260  34.843  34.386  12.155
10590W        W82261  44.795  12.280   1.538
10591W        W82262   6.680  40.451  12.381
10592W        W82263  15.320  42.940   4.672
10593W        W82264   6.815  28.753  11.867
10594W        W82265  30.279   6.816  14.813
10595W        W82266  19.572  31.061   4.747
10596W        W82267  30.088   6.732  14.332
10597W        W82268  28.914  38.747   3.066
10598W        W82269  10.317  42.856   3.115
10599W        W82270  43.121  14.626   3.937
10600W        W82271  20.860   7.122   1.798
10601W        W82272   1.049  17.565  14.985
10602W        W82273  16.213  11.756  12.679
10603W        W82274   3.539   3.819  12.529
10604W        W82275  30.145  43.344   0.995
10605W        W82276  40.785  17.213   1.406
10606W        W82277  35.645  43.791  11.624
10607W        W82278  30.133  35.405  13.000
10608W        W82279  15.798  34.534  10.249
10609W        W82280  15.239  10.182   0.177
10610W        W82281  43.457   7.202  11.587
10611W        W82282  44.246  35.874   0.955
10612W        W82283  24.399  16.805   2.213
10613W        W82284  34.970  23.700  11.496
10614W        W82285   6.224  40.001   0.416
10615W        W82286  35.657  24.114  12.910
10616W        W82287   7.003  34.863  14.798
10617W        W82288  37.921  41.777   0.497
10618W        W82289  21.862  20.967   3.175
10619W        W82290  17.034  38.569  12.993
10620W        W82291   6.809  30.063  14.743
10621W        W82292  30.781  32.112  12.501
10622W        W82293  12.579  21.215  11.984
10623W        W82294  30.438  14.717   3.830
10624W        W82295  37.721  28.333  12.618
10625W        W82296  23.652  13.740   4.550
10626W        W82297  16.170   6.855  13.344
10627W        W82298  36.318  11.151   4.820
10628W        W82299  43.993  29.322  14.950
10629W        W82300   2.928  19.981   0.866
10630W        W82301  40.274  25.629  11.506
10631W        W82302  36.349   7.142  13.704
10632W        W82303  30.455  10.160  12.894
10633W        W82304   2.953   4.428  12.344
10634W        W82305   2.202  20.990  10.665
10635W        W82306  24.998  11.900   3.103
10636W        W82307  32.741  13.445   0.003
10637W        W82308   9.456  44.302  10.221
10638W        W82309  37.958  15.844  12.919
10639W        W82310  15.617   7.143   3.282
10640W        W82311  38.387  17.626   0.611
10641W        W82312  21.128  21.869   4.009
10642W        W82313  40.944  26.758   0.404
10643W        W82314  26.428  24.970  12.921
10644W        W82315  19.644  11.366   0.257
10645W        W82316  39.914  34.414  12.448
10646W        W82317  11.313  29.262  13.887
10647W        W82318  43.837  18.168  13.375
10648W        W82319  26.228  23.186  12.894
10649W        W82320   7.020  16.469  12.473
10650W        W82321   0.832  35.886  13.774
10651W        W82322  40.528  19.610  10.627
10652W        W82323  32.210  40.324   4.564
10653W        W82324  27.467  44.913   4.710
10654W        W82325  28.242  34.121   3.709
10655W        W82326  44.524  43.980   4.583
10656W        W82327  31.687  14.309   4.125
10657W        W82328  29.628  43.839  14.149
10658W        W82329   9.790   9.700   3.287
10659W        W82330  39.020  29.486  14.251
10660W        W82331  17.791  20.610   4.158
10661W        W82332  31.038  30.625  11.107
10662W        W82333  42.249  32.843  11.026
10663W        W82334  30.086  38.605   1.217
10664W        W82335  26.167   0.436   2.762
10665W        W82336  42.014  16.876  13.811
10666W        W82337   8.364   0.724  12.091
10667W        W82338  14.291  31.716  12.050
10668W        W82339  38.733  30.023   0.876
10669W        W82340  25.404  33.157  11.147
10670W        W82341  30.111  43.829   3.578
10671W        W82342  24.555   6.168   0.094
10672W        W82343  29.792  25.023  10.981
10673W        W82344   9.206  23.975  13.596
10674W        W82345  38.860   2.420   1.888
10675W        W82346  20.762  30.568   3.683
10676W        W82347  23.503   5.204  11.103
10677W        W82348   2.175  28.934   1.165
10678W        W82349  38.413  31.072   2.244
10679W        W82350  38.002  31.914  14.870
10680W        W82351  14.383  17.279   4.082
10681W        W82352  19.117  25.728  12.052
10682W        W82353  11.630  21.519   2.830
10683W        W82354  12.264  20.223   3.315
10684W        W82355  17.642  24.680  11.213
10685W        W82356   3.171  38.297   4.055
10686W        W82357  31.484  25.484   0.882
10687W        W82358   1.377  34.875   4.498
10688W        W82359   5.221  41.666  13.112
10689W        W82360   4.162  23.385   1.737
10690W        W82361  19.615  21.768   1.817
10691W        W82362  35.672  22.484  11.583
10692W        W82363  44.731   8.304   3.737
10693W        W82364   5.899  29.495  14.782
10694W        W82365   5.655   9.678  10.599
10695W        W82366  17.065  12.816  13.459
10696W        W82367  44.977  28.620  11.401
10697W        W82368  15.054  23.726   1.850
10698W        W82369  44.822   6.436   2.270
10699W        W82370  23.390   3.080  10.856
10700W        W82371  44.457  10.331  11.217
10701W        W82372   8.525  25.193  10.177
10702W        W82373  34.922  25.312  13.790
10703W        W82374  40.511  41.982   3.718
10704W        W82375  36.928   9.217   1.465
10705W        W82376  24.800  13.037   2.851
10706W        W82377  15.071  13.610  11.081
10707W        W82378  22.132  18.087  12.471
10708W        W82379  38.753  11.595  10.693
10709W        W82380  43.916  40.973   3.260
10710W        W82381  20.988   2.306  13.453
10711W        W82382   0.653  30.258  14.831
10712W        W82383  10.043  35.951  11.643
10713W        W82384   5.705  37.325   1.658
10714W        W82385  29.546  27.345   2.710
10715W        W82386  10.751   8.063  11.008
10716W        W82387  24.375  33.789   5.064
10717W        W82388  24.606   8.509  10.707
10718W        W82389  10.691  41.835  13.281
10719W        W82390   1.716  10.600  12.063
10720W        W82391  39.112  22.616   3.643
10721W        W82392  34.859  35.960  10.993
10722W        W82393  33.505  15.181  14.497
10723W        W82394   9.889   6.790  14.279
10724W        W82395  30.916  19.704  12.539
10725W        W82396  22.938  12.133  11.632
10726W        W82397  33.058   5.321  12.019
10727W        W82398  21.434  41.907   4.298
10728W        W82399  39.496   3.440  14.187
10729W        W82400  33.635  25.574  13.887
10730W        W82401  20.674  39.377  12.111
10731W        W82402  39.523  38.422  11.100
10732W        W82403   6.893   4.568  12.421
10733W        W82404  23.553   9.715  12.077
10734W        W82405  26.904   0.478  14.391
10735W        W82406  28.545   3.123   1.743
10736W        W82407   6.811  16.185   4.162
10737W        W82408  39.309  30.692   3.378
10738W        W82409  10.333  43.303  14.009
10739W        W82410  16.345  10.419   1.444
10740W        W82411  14.780  13.566   0.855
10741W        W82412  16.736  38.088   2.553
10742W        W82413  21.314  30.988   4.122
10743W        W82414  44.259  34.080  13.920
10744W        W82415   2.387  19.580  10.698
10745W        W82416  17.311  14.660   3.734
10746W        W82417   3.804  42.826   1.855
10747W        W82418  43.358  38.974   2.465
10748W        W82419   6.879  44.295   1.019
10749W        W82420  36.438  30.637  12.484
10750W        W82421  37.754  44.687   1.350
10751W        W82422  39.256  12.205   5.067
10752W        W82423  31.991  22.802   1.927
10753W        W82424   4.210  15.251   3.612
10754W        W82425  18.179   5.467   4.861
10755W        W82426  11.246   8.320  12.383
10756W        W82427  25.655  25.904  12.418
10757W        W82428   3.898  27.850   2.172
10758W        W82429   8.458  41.305  13.158
10759W        W82430  10.765  16.985   4.607
10760W        W82431  27.243  11.247   1.896
10761W        W82432  21.992  14.416  12.488
10762W        W82433  14.343   3.715   2.722
10763W        W82434  15.505  36.881   0.064
10764W        W82435  10.431  18.607   0.395
10765W        W82436   7.916  43.879   3.676
10766W        W82437  28.459  27.576  14.914
10767W        W82438  28.934   9.145   2.405
10768W        W82439   2.007  28.403   1.751
10769W        W82440  20.198  44.675  12.534
10770W        W82441  38.199  34.762  12.034
10771W        W82442  43.908  43.245   2.820
10772W        W82443  29.574  20.304  10.734
10773W        W82444  23.749  28.944  14.414
10774W        W82445   3.311  42.480  13.241
10775W        W82446   5.865   6.940   4.985
10776W        W82447   5.941  20.308   0.209
10777W        W82448  34.481  42.966   0.752
10778W        W82449   6.474  26.563   1.349
10779W        W82450  16.179  35.152  13.098
10780W        W82451  24.478   7.472  13.472
10781W        W82452   9.615  14.980  13.964
10782W        W82453  24.201  29.586  12.475
10783W        W82454  15.036  42.659   5.120
10784W        W82455  35.317  12.262  13.799
10785W        W82456   4.316   5.459   0.004
10786W        W82457  20.784  32.205   1.960
10787W        W82458  33.440  16.748  12.431
10788W        W82459   8.122  19.804  14.584
10789W        W82460  13.795  37.274   3.329
10790W        W82461  38.310  26.671   4.257
10791W        W82462  35.106  30.671   2.997
10792W        W82463  20.650   4.934  13.965
10793W        W82464  44.481   1.877   3.870
10794W        W82465  11.500  43.972  12.531
10795W        W82466   6.300   6.354  10.668
10796W        W82467  33.720   2.921   2.859
10797W        W82468  34.847  18.146  14.449
10798W        W82469  42.824  10.013   0.505
10799W        W82470  19.377   2.422   1.494
10800W        W82471   4.294   1.591  14.881
10801W        W82472  39.030  10.921   2.337
10802W        W82473  31.855  30.034  10.675
10803W        W82474  14.335   7.624  11.158
10804W        W82475  21.930  43.893  10.678
10805W        W82476  37.559   5.453  14.456
10806W        W82477   8.639  21.945  10.781
10807W        W82478  12.931  24.281  12.115
10808W        W82479  34.336   8.177  12.169
10809W        W82480  34.050   4.877  14.745
10810W        W82481  24.008  36.533   0.939
10811W        W82482   8.760   3.406  11.822
10812W        W82483   5.159  12.535  13.859
10813W        W82484  10.256  22.123  11.602
10814W        W82485  15.999  28.899   3.207
10815W        W82486   1.780  18.244   3.609
10816W        W82487  35.987   5.135  14.913
10817W        W82488   3.925  39.273  13.437
10818W        W82489  24.475  13.940  13.930
10819W        W82490  17.631  18.477   3.125
10820W        W82491   9.007   5.002  14.154
10821W        W82492  31.659  15.227   4.260
10822W        W82493  14.129  12.121  11.102
10823W        W82494  28.432  13.789  10.899
10824W        W82495  42.691   1.385  13.742
10825W        W82496  13.381  20.045  13.109
10826W        W82497  21.778  27.444  13.784
10827W        W82498   1.649  39.779  13.021
10828W        W82499  22.505   7.597  10.065
10829W        W82500  29.354  18.977  11.154
10830W        W82501   6.195  33.634   3.189
10831W        W82502  44.025  29.795  14.761
10832W        W82503   3.726   9.182   0.341
10833W        W82504  26.512  44.745  14.593
10834W        W82505  27.103  24.505  11.580
10835W        W82506   7.007  42.338  13.299
10836W        W82507   4.590  38.481  13.016
10837W        W82508  27.254  36.523  11.191
10838W        W82509   1.488  38.865   2.089
10839W        W82510  14.720  25.058   3.762
10840W        W82511   7.892  19.624   4.743
10841W        W82512  11.747  42.452  14.846
10842W        W82513  41.578  23.656  12.922
10843W        W82514  23.668  16.085   3.686
10844W        W82515  38.374  44.936   4.665
10845W        W82516  13.593  22.140   3.573
10846W        W82517  32.297   4.320  13.415
10847W        W82518  20.774  41.855   3.147
10848W        W82519  10.670  28.665  14.289
10849W        W82520  25.802  23.957  12.841
10850W        W82521  37.380  40.329   4.863
10851W        W82522  13.263   0.750  14.793
10852W        W82523  13.615  15.866  14.394
10853W        W82524  23.155  24.911  11.369
10854W        W82525  14.774  10.021  12.505
10855W        W82526  31.005   6.200  11.539
10856W        W82527  37.347  15.052  14.875
10857W        W82528   7.239   0.889   0.363
10858W        W82529   3.411  13.169   3.766
10859W        W82530  24.570  26.168   0.425
10860W        W82531  41.842  39.794  14.496
10861W        W82532  40.512  10.681   2.377
10862W        W82533  37.471  14.020  11.939
10863W        W82534  20.965  27.378  14.267
10864W        W82535  19.226   4.842   4.328
10865W        W82536  43.780   3.786   1.638
10866W        W82537  44.423  17.515  13.483
10867W        W82538   7.337  35.924   4.755
10868W        W82539  25.981  32.744   3.132
10869W        W82540  38.946  33.149  10.894
10870W        W82541  18.614  39.062   3.647
10871W        W82542  27.385  23.692   3.824
10872W        W82543  34.855  25.617  14.360
10873W        W82544  42.861  34.956   2.860
10874W        W82545   8.176   8.314   1.414
10875W        W82546   6.371   4.822  14.834
10876W        W82547   0.490  39.234  13.838
10877W        W82548   1.274  36.067  11.559
10878W        W82549  15.849  15.179   4.539
10879W        W82550   8.849   6.243   4.445
10880W        W82551   8.444  18.067   2.469
10881W        W82552  17.617  23.917  10.830
10882W        W82553  18.788   4.881  11.187
10883W        W82554  18.030   3.263   1.028
10884W        W82555  17.249  41.816   1.921
10885W        W82556  27.558  13.451  13.408
10886W        W82557   9.375  32.216  14.995
10887W        W82558  36.531  31.044  12.111
10888W        W82559   8.329  35.057   1.222
10889W        W82560  26.654  28.779   0.436
10890W        W82561  11.382  39.855  13.822
10891W        W82562  20.420  34.053  13.913
10892W        W82563  12.199   7.881  10.559
10893W        W82564  25.748   9.974  11.056
10894W        W82565  43.941  21.138   9.749
10895W        W82566  31.184  42.057  11.532
10896W        W82567   1.150  29.600  12.082
10897W        W82568  10.771   9.107  12.095
10898W        W82569   4.906   9.924  14.515
10899W        W82570   4.402  13.601  12.767
10900W        W82571  34.053  43.428   2.026
10901W        W82572  34.366  42.941   3.667
10902W        W82573   2.165  16.731   0.466
10903W        W82574  39.494  38.113   2.398
10904W        W82575  43.406   1.759   4.496
10905W        W82576   7.217  25.487  12.873
10906W        W82577  28.660  42.572  14.352
10907W        W82578  34.211   7.455   2.822
10908W        W82579   7.215  27.131   3.395
10909W        W82580  40.977  32.207   3.967
10910W        W82581  37.280  38.931   0.896
10911W        W82582  41.889  36.595  14.009
10912W        W82583  33.430   8.371   4.086
10913W        W82584  11.008  27.109  13.845
10914W        W82585  21.154  22.323  10.494
10915W        W82586  28.048  21.760   0.544
10916W        W82587  34.945   7.896  10.699
10917W        W82588   6.545  25.985  12.056
10918W        W82589  30.134  36.464   0.853
10919W        W82590  40.633  19.664  14.696
10920W        W82591  29.909   8.377   3.611
10921W        W82592  35.347  16.302  13.979
10922W        W82593  25.654  30.115  14.409
10923W        W82594   0.014  26.951   2.618
10924W        W82595  20.091  28.747  10.252
10925W        W82596   0.263   2.871  10.886
10926W        W82597  24.968  13.303  10.908
10927W        W82598  36.597   9.997  11.032
10928W        W82599  44.286  18.991   0.298
10929W        W82600  18.196  30.550   0.845
10930W        W82601   5.917  37.645  12.163
10931W        W82602  15.346  27.011  10.743
10932W        W82603  32.646  32.532   3.173
10933W        W82604  35.546  31.255   2.282
10934W        W82605  23.604  21.604   4.070
10935W        W82606  33.355  21.607   0.312
10936W        W82607   3.358  19.974  11.117
10937W        W82608  34.748  16.647   0.831
10938W        W82609  16.192  26.028   4.088
10939W        W82610  38.935  38.974  11.397
10940W        W82611  44.474  34.540  12.981
10941W        W82612  40.035  34.883   2.728
10942W        W82613  35.553  33.072  14.449
10943W        W82614  12.584  27.603   0.231
10944W        W82615  38.409  31.454  11.480
10945W        W82616  10.825  34.847   0.332
10946W        W82617  13.818   7.101   1.787
10947W        W82618  34.292  38.973  12.007
10948W        W82619  28.091  36.455   3.182
10949W        W82620  18.231  10.185  10.623
10950W        W82621  32.155   0.763  11.919
10951W        W82622  23.142  39.403   1.219
10952W        W82623  31.442   6.412  11.672
10953W        W82624  34.993  40.178   1.473
10954W        W82625   3.768  10.825  13.438
10955W        W82626   9.262  21.328   3.155
10956W        W82627   2.952  22.212   2.734
10957W        W82628  13.682  33.335   0.250
10958W        W82629  24.132  11.174   1.866
10959W        W82630  19.602  11.898   2.165
10960W        W82631  34.495  15.097   2.321
10961W        W82632  36.518  38.620  14.502
10962W        W82633   3.201  22.169   3.196
10963W        W82634  14.199  31.408   1.374
10964W        W82635  38.129   2.198  14.775
10965W        W82636  37.641  41.492   3.849
10966W        W82637  29.766  37.444  11.590
10967W        W82638  25.702  13.082  14.539
10968W        W82639  26.565  42.590   3.807
10969W        W82640   9.796  28.281  14.220
10970W        W82641  39.519  18.142  10.631
10971W        W82642  36.486   8.137  11.627
10972W        W82643   4.357  39.476   3.193
10973W        W82644   4.213  34.449  14.109
10974W        W82645  18.647  40.549   3.731
10975W        W82646  28.601  44.879   4.596
10976W        W82647  11.852  10.459  11.152
10977W        W82648   6.578  14.843  11.954
10978W        W82649   3.936  19.501   1.837
10979W        W82650  13.236  30.052   2.157
10980W        W82651   7.336  24.687  13.450
10981W        W82652  20.728   2.270  11.967
10982W        W82653  37.838  20.285   3.695
10983W        W82654  25.754  37.852   1.739
10984W        W82655  35.878  44.306  11.640
10985W        W82656  19.931  31.165   2.488
10986W        W82657   6.376  13.714   0.491
10987W        W82658  20.538  30.020  11.539
10988W        W82659   8.632   7.344  13.551
10989W        W82660  29.689   1.460   4.714
10990W        W82661  36.139  12.317   3.191
10991W        W82662  14.082  18.799   4.105
10992W        W82663   7.644  39.313  12.993
10993W        W82664   7.148  39.620  14.954
10994W        W82665   9.284  37.840   2.980
10995W        W82666  27.722  22.521  12.574
10996W        W82667   5.288  36.985   3.282
10997W        W82668  30.139  30.079   4.620
10998W        W82669  16.270  37.437  14.033
10999W        W82670  37.548   7.511   1.467
11000W        W82671  27.296   7.634   0.369
11001W        W82672   8.803   1.389  11.609
11002W        W82673  15.191  33.555   1.447
11003W        W82674  31.524  39.022   3.801
11004W        W82675   4.412  35.585   4.347
11005W        W82676  10.148  44.308  13.810
11006W        W82677   4.747   5.188  11.230
11007W        W82678  23.496  26.570   5.012
11008W        W82679   8.384   8.119  10.813
11009W        W82680  22.028  11.113   1.770
11010W        W82681   6.659  18.643  11.203
11011W        W82682  31.932  38.226  13.089
11012W        W82683  33.746  30.570  13.981
11013W        W82684  35.911   6.815   3.300
11014W        W82685  25.894  27.241   1.765
11015W        W82686  22.760  25.556   3.195
11016W        W82687   0.233  34.968   1.969
11017W        W82688  37.987  16.372   3.765
11018W        W82689  15.781  33.593   2.291
11019W        W82690  14.916  30.460   1.705
11020W        W82691  26.495  17.604   4.267
11021W        W82692   7.772  25.136   0.729
11022W        W82693   9.817  15.837  11.994
11023W        W82694  27.144  31.069   2.195
11024W        W82695  29.585  20.010   1.814
11025W        W82696  33.418  41.500   3.927
11026W        W82697  11.325  43.827   3.273
11027W        W82698  32.692   7.161   0.818
11028W        W82699   0.432  29.477  13.524
11029W        W82700  35.514  34.351  13.408
11030W        W82701   2.935  29.052  13.341
11031W        W82702  32.114  29.175   3.190
11032W        W82703   3.628   3.619   2.360
11033W        W82704  28.300   6.812  14.603
11034W        W82705  18.566  27.724   1.826
11035W        W82706  32.791  37.757   3.628
11036W        W82707   0.506  24.007   2.257
11037W        W82708  43.401  44.326   0.894
11038W        W82709  38.095  28.627  14.940
11039W        W82710  13.653  37.625  13.870
11040W        W82711  10.653  38.044  13.328
11041W        W82712  30.676   5.654   1.261
11042W        W82713  41.290   9.759  13.870
11043W        W82714   9.341   6.421   2.870
11044W        W82715  25.090   7.783  11.008
11045W        W82716  26.745  21.673  14.839
11046W        W82717  13.800  17.292  10.779
11047W        W82718   1.473   5.397   0.470
11048W        W82719  23.748  32.969  11.588
11049W        W82720  29.694  40.570   0.435
11050W        W82721  14.794  12.300   1.954
11051W        W82722  15.345  14.355   2.243
11052W        W82723   1.402  20.534   4.117
11053W        W82724  12.904  12.628   0.236
11054W        W82725   8.651  26.145   4.814
11055W        W82726  35.110  38.485  12.906
11056W        W82727   3.875  30.756   4.240
11057W        W82728  29.248  40.639  12.163
11058W        W82729   3.393   1.290   0.855
11059W        W82730  12.093  10.884   2.557
11060W        W82731  17.971  20.643   1.055
11061W        W82732  21.048  33.697   2.813
11062W        W82733  17.345  43.513   3.764
11063W        W82734  23.751   7.377   3.267
11064W        W82735  22.607  23.748  14.628
11065W        W82736   6.174  13.310   2.685
11066W        W82737   2.214  34.861   2.665
11067W        W82738   8.845  35.436   3.388
11068W        W82739  43.722  42.498  10.843
11069W        W82740  41.943  12.866  13.147
11070W        W82741  35.121   9.031   0.165
11071W        W82742  24.001  18.175  11.505
11072W        W82743  25.409  26.101  14.561
11073W        W82744  17.100  39.556  11.076
11074W        W82745  31.135  20.523   4.590
11075W        W82746   2.444  28.393  10.956
11076W        W82747  28.465  26.661  12.606
11077W        W82748   9.748  26.668  13.000
11078W        W82749  22.463  40.754  13.143
11079W        W82750   8.320  24.597   1.319
11080W        W82751  40.016   1.347   4.305
11081W        W82752  19.337  28.960  12.944
11082W        W82753  29.554  38.126   4.598
11083W        W82754   5.427   8.483  13.904
11084W        W82755   1.284   0.335   4.221
11085W        W82756  32.778   8.310   4.781
11086W        W82757  37.626  33.643   3.641
11087W        W82758   0.004  18.708   2.212
11088W        W82759  33.964   3.984   2.131
11089W        W82760  30.510  20.223  13.700
11090W        W82761   4.131  33.771   0.441
11091W        W82762   7.132   7.579  13.865
11092W        W82763  41.972  38.772   1.666
11093W        W82764  31.082  38.356   1.322
11094W        W82765  13.576   9.813   3.706
11095W        W82766  29.631  26.216  14.553
11096W        W82767  36.866  20.022  12.983
11097W        W82768  22.748  13.770  13.485
11098W        W82769   2.982   4.744  11.909
11099W        W82770  41.555   1.542  11.539
11100W        W82771   6.962  19.093  14.377
11101W        W82772  38.788  26.058   3.121
11102W        W82773  16.786  20.205   4.648
11103W        W82774  21.257  21.083  14.321
11104W        W82775  28.537  41.532   4.047
11105W        W82776  19.352  16.645  12.442
11106W        W82777  14.724   4.649  14.014
11107W        W82778   8.503  32.546   0.436
11108W        W82779  12.255   2.532   0.439
11109W        W82780  13.770  25.086  14.411
11110W        W82781   9.755  36.115   2.742
11111W        W82782  41.461  42.565  14.792
11112W        W82783  15.292   8.864   4.773
11113W        W82784   4.842   9.274  13.844
11114W        W82785  20.514  17.584   4.086
11115W        W82786  18.346   2.937   3.195
11116W        W82787  25.230  29.911   2.784
11117W        W82788   3.655   6.615  10.695
11118W        W82789  18.976  38.357  11.467
11119W        W82790   0.319  13.346   0.866
11120W        W82791  32.056  20.715   3.661
11121W        W82792  20.578  12.039   2.780
11122W        W82793  36.398  18.064   4.254
11123W        W82794  28.007   7.916   0.889
11124W        W82795  16.205  40.043  14.484
11125W        W82796  17.701   2.359   0.682
11126W        W82797  19.010  41.472   2.647
11127W        W82798  41.970   1.357   4.146
11128W        W82799  27.890  34.024   4.480
11129W        W82800  43.802  25.218   4.333
11130W        W82801  39.328  12.587  12.363
11131W        W82802  35.914  42.562  11.961
11132W        W82803  36.033  30.140   2.702
11133W        W82804  41.829   5.719  14.288
11134W        W82805  16.041  33.546  14.590
11135W        W82806  17.345  24.615  13.269
11136W        W82807   2.812  30.188   1.358
11137W        W82808   2.204  35.987   0.378
11138W        W82809   1.232  33.668   2.066
11139W        W82810  10.722  30.230  13.382
11140W        W82811  17.576   5.946   3.281
11141W        W82812  30.480  40.645   3.631
11142W        W82813   1.238  26.688  12.648
11143W        W82814  22.246  24.561   0.750
11144W        W82815  10.797  20.468   0.342
11145W        W82816  22.565  19.508   0.713
11146W        W82817  20.665  12.792   0.392
11147W        W82818   0.198  18.472   4.193
11148W        W82819  42.596  11.724  10.738
11149W        W82820  14.703  32.665  14.877
11150W        W82821  28.491  28.496  13.537
11151W        W82822   2.831   4.714  11.416
11152W        W82823   5.066  26.207   5.209
11153W        W82824  18.118  24.029  13.548
11154W        W82825  26.715  43.258   1.247
11155W        W82826  30.025  43.556   2.025
11156W        W82827   1.716  12.262   4.420
11157W        W82828   2.397  40.375   0.425
11158W        W82829  15.647   4.836  14.607
11159W        W82830  42.326  18.096  13.898
11160W        W82831  19.737  13.094   1.231
11161W        W82832   4.435  31.019  13.613
11162W        W82833  10.725  42.291  12.037
11163W        W82834  32.273  36.553   4.470
11164W        W82835  39.117  41.029   1.832
11165W        W82836  25.948   4.492   4.344
11166W        W82837  37.443  23.821  13.574
11167W        W82838   3.639  13.857  14.474
11168W        W82839  25.023  16.499   4.069
11169W        W82840  27.031  10.898  11.368
11170W        W82841   8.286  23.620  12.077
11171W        W82842  38.037  31.006  13.802
11172W        W82843   1.356  10.715   3.611
11173W        W82844   8.711  30.926  10.706
11174W        W82845  42.469  37.872   0.316
11175W        W82846   1.866  24.936  13.062
11176W        W82847  42.071  13.241   1.717
11177W        W82848   6.395  28.542  12.057
11178W        W82849  14.524  36.211  10.039
11179W        W82850  44.375   4.532  12.972
11180W        W82851   3.352  35.585  12.679
11181W        W82852  10.879  16.539  13.535
11182W        W82853  12.365  31.629   4.622
11183W        W82854  20.156  14.232  10.178
11184W        W82855   2.698  19.522   0.091
11185W        W82856  19.610  17.470   4.272
11186W        W82857  31.432  25.528  13.049
11187W        W82858  34.993  30.300  10.936
11188W        W82859  24.774  40.031   1.809
11189W        W82860  14.602  32.369   2.283
11190W        W82861  41.910  43.184   1.855
11191W        W82862  38.272  10.215   2.205
11192W        W82863  18.735  22.180   2.887
11193W        W82864  24.884  22.325  12.824
11194W        W82865  40.418  43.954  13.544
11195W        W82866  38.532  11.614   4.171
11196W        W82867  33.402  42.025  11.164
11197W        W82868   9.675  19.075  11.211
11198W        W82869  26.558   2.547  14.702
11199W        W82870  27.648  31.116   2.295
11200W        W82871  15.316   8.392  11.905
11201W        W82872  25.691   1.917  10.294
11202W        W82873  28.972  39.272  14.424
11203W        W82874   6.353   0.243  12.570
11204W        W82875  10.682  29.425   0.760
11205W        W82876   2.947   5.363   1.316
11206W        W82877  11.849  38.468  13.803
11207W        W82878  26.688  14.230   1.396
11208W        W82879  42.513  11.933   0.296
11209W        W82880   8.864  18.592   4.541
11210W        W82881   8.232  31.415   3.773
11211W        W82882  27.893  13.733   0.745
11212W        W82883  38.217  32.066   2.383
11213W        W82884  16.375   3.627   3.729
11214W        W82885  13.690  30.109   1.854
11215W        W82886  43.860   5.777  12.496
11216W        W82887   4.045  24.289   0.689
11217W        W82888  31.365  13.798  11.656
11218W        W82889  15.841   5.083  10.239
11219W        W82890  24.100  14.883   0.186
11220W        W82891  10.819  12.128   2.989
11221W        W82892  12.655   2.529   4.812
11222W        W82893   8.251   6.033   2.324
11223W        W82894  41.415   7.408   4.061
11224W        W82895  32.964  39.155   1.130
11225W        W82896  22.443  26.132   5.305
11226W        W82897  29.162  27.719  12.045
11227W        W82898  13.043  10.390  12.064
11228W        W82899  14.907  21.695   3.655
11229W        W82900  30.983   0.011  13.909
11230W        W82901   7.133  20.624   1.618
11231W        W82902  30.458  14.388   0.882
11232W        W82903  34.853  41.185  13.340
11233W        W82904  11.377  38.486  11.640
11234W        W82905  40.502  16.914  11.041
11235W        W82906  38.630   3.322  13.355
11236W        W82907  18.651  26.169   0.489
11237W        W82908  11.275  27.441  12.355
11238W        W82909   7.292  30.552   1.853
11239W        W82910  18.019  31.785   2.284
11240W        W82911   9.847  21.636   1.169
11241W        W82912  22.595  18.318  11.548
11242W        W82913   0.841  14.111  12.380
11243W        W82914   9.596  27.161  13.019
11244W        W82915  20.191  25.034  13.842
11245W        W82916  39.913  27.057  12.444
11246W        W82917  42.894  28.532   4.341
11247W        W82918   1.993  16.078  13.531
11248W        W82919  27.738   3.909  14.231
11249W        W82920   3.272  11.713   4.037
11250W        W82921  33.486  41.863   2.718
11251W        W82922  12.694  22.466   0.012
11252W        W82923  11.628  37.926  13.783
11253W        W82924  42.714  41.098   3.389
11254W        W82925   7.578  32.985  11.440
11255W        W82926  43.070  30.043  12.732
11256W        W82927  32.038  41.989  13.697
11257W        W82928  19.535   1.363   2.172
11258W        W82929  33.380  18.792   3.792
11259W        W82930   3.869  36.163  13.965
11260W        W82931  39.344   7.757   1.711
11261W        W82932  34.546  24.021   4.533
11262W        W82933  27.869  27.060   2.159
11263W        W82934  30.651  42.917  11.522
11264W        W82935   3.841  36.349   4.129
11265W        W82936   3.510  29.738  11.132
11266W        W82937  16.108  12.707  10.832
11267W        W82938  16.605  16.197  11.920
11268W        W82939  28.671  20.579   0.373
11269W        W82940   0.836  17.095   4.617
11270W        W82941  43.785   4.569  11.403
11271W        W82942  14.026  21.008  11.285
11272W        W82943  27.760   2.790  11.949
11273W        W82944  28.474  40.372  13.033
11274W        W82945   5.931  44.947  11.184
11275W        W82946  31.731  20.720  11.361
11276W        W82947  26.563   6.198   2.193
11277W        W82948  44.262  24.614   1.297
11278W        W82949  10.793  28.085   1.087
11279W        W82950  36.965  10.863   2.357
11280W        W82951   6.086  21.726  10.668
11281W        W82952  36.066  37.473  14.336
11282W        W82953  36.746   7.492  14.333
11283W        W82954   6.450  44.286  13.458
11284W        W82955  28.048  27.050  10.617
11285W        W82956   7.933  28.323   2.391
11286W        W82957  33.050  13.349  14.608
11287W        W82958  37.869   6.874   2.272
11288W        W82959  44.511   6.280   4.537
11289W        W82960  42.862  41.666   9.720
11290W        W82961  16.267  21.186   3.705
11291W        W82962   8.836  12.421  14.828
11292W        W82963  16.330  23.756  11.717
11293W        W82964  37.584  15.978  11.640
11294W        W82965  29.551  29.856  14.824
11295W        W82966   0.369  31.986  14.439
11296W        W82967   9.200  22.797  10.632
11297W        W82968  10.272  14.129   0.895
11298W        W82969   4.847  16.711   0.522
11299W        W82970  26.817  43.952  12.404
11300W        W82971  25.331   9.313   3.210
11301W        W82972  11.128  36.535  11.223
11302W        W82973   7.213  15.364   2.400
11303W        W82974  43.417  38.942  12.283
11304W        W82975  42.229  39.584  11.079
11305W        W82976  43.038  42.407   0.027
11306W        W82977   5.179  15.296   2.690
11307W        W82978  11.823  33.504  10.660
11308W        W82979  19.464   3.779  10.806
11309W        W82980  44.467   6.200   1.542
11310W        W82981  12.860  11.658   1.368
11311W        W82982  14.754  28.411  12.119
11312W        W82983  32.981  42.366   0.313
11313W        W82984   2.374  32.160  11.538
11314W        W82985  18.752   0.778   4.029
11315W        W82986  15.112  22.432   4.153
11316W        W82987  19.338  18.246   0.831
11317W        W82988   0.924  34.360   1.827
11318W        W82989  27.615  33.183  13.079
11319W        W82990  37.800  12.942  10.656
11320W        W82991  10.104  32.977   1.799
11321W        W82992  27.236  28.744  11.199
11322W        W82993  35.255  40.490   4.217
11323W        W82994  13.247  26.500   3.886
11324W        W82995   8.486   5.747   3.628
11325W        W82996  39.490  13.256   0.660
11326W        W82997  19.619  33.403   3.741
11327W        W82998  36.913  20.712   2.746
11328W        W82999  43.365  19.869   2.350
11329W        W83000   0.418   6.363  13.920
11330W        W83001  20.698  24.119   0.274
11331W        W83002  28.261  18.278   1.741
11332W        W83003   5.914  19.835   4.269
11333W        W83004   9.163  43.304  11.534
11334W        W83005   8.697  16.171   0.910
11335W        W83006  25.534  34.975   0.411
11336W        W83007  32.952  34.486   0.412
11337W        W83008  42.533   1.050   4.846
11338W        W83009   7.113  18.999  14.863
11339W        W83010  30.110  29.012   1.387
11340W        W83011  32.407  18.867  11.559
11341W        W83012  11.666  31.735  13.780
11342W        W83013  25.601  30.881   1.330
11343W        W83014   1.735  27.553  11.198
11344W        W83015   5.898  10.258  14.033
11345W        W83016  22.464  22.296  11.746
11346W        W83017  14.576  20.145  13.498
11347W        W83018   5.235   4.978  12.464
11348W        W83019   1.310  23.007  14.036
11349W        W83020  28.367  41.118  10.857
11350W        W83021   1.623  40.302  14.896
11351W        W83022  41.387  20.122   2.648
11352W        W83023  36.116  39.378   1.263
11353W        W83024  19.053  21.963  12.108
11354W        W83025  42.896  28.573  13.879
11355W        W83026  30.188  40.705   4.329
11356W        W83027  41.904   3.373  10.435
11357W        W83028  25.552  42.245   0.933
11358W        W83029  19.710  26.227  13.091
11359W        W83030   9.216  27.941  10.656
11360W        W83031  11.321  32.809   3.347
11361W        W83032   3.612   6.802  11.167
11362W        W83033  33.721  42.695  13.060
11363W        W83034   5.010  22.160  12.850
11364W        W83035   5.322  33.592  13.877
11365W        W83036  34.521  13.105   0.402
11366W        W83037  21.480  39.587   2.663
11367W        W83038  40.577   0.343   0.878
11368W        W83039  39.759  28.039   9.881
11369W        W83040  22.486  24.189  13.052
11370W        W83041  34.977  37.499   5.039
11371W        W83042  13.640  29.034  14.396
11372W        W83043  29.030  43.278  14.542
11373W        W83044  13.027  40.048   3.792
11374W        W83045  27.443  10.392   1.790
11375W        W83046  28.246   2.411   2.767
11376W        W83047  32.339  30.933  10.914
11377W        W83048  19.032   0.285  10.644
11378W        W83049  20.689   6.233   1.270
11379W        W83050   3.834  12.646   0.923
11380W        W83051  19.400  23.121  11.109
11381W        W83052  25.983  24.580  12.263
11382W        W83053  26.464  37.169   3.987
11383W        W83054   7.254  20.359  13.099
11384W        W83055   5.285  22.429  13.535
11385W        W83056   3.415  30.129   2.212
11386W        W83057   2.409   0.813  12.533
11387W        W83058  35.378  39.925   9.895
11388W        W83059  19.793  10.756  10.390
11389W        W83060  43.338  24.929  11.922
11390W        W83061   7.870  37.089  13.029
11391W        W83062  21.610  11.642  14.221
11392W        W83063  28.960  33.553  11.951
11393W        W83064   5.097  23.537  10.927
11394W        W83065  10.142  29.418  14.319
11395W        W83066  38.721  24.218   3.271
11396W        W83067   4.790  43.683   2.477
11397W        W83068  34.135  10.208  13.521
11398W        W83069  31.477  21.554   3.846
11399W        W83070  32.945  31.584  11.619
11400W        W83071   3.687  40.072   0.493
11401W        W83072  43.512  22.706   3.598
11402W        W83073  30.603   0.343   0.821
11403W        W83074   2.279  44.280  11.621
11404W        W83075  33.760  19.269   3.628
11405W        W83076  26.226  30.872  11.650
11406W        W83077  23.436  19.455  13.320
11407W        W83078   6.307   7.904   1.030
11408W        W83079  10.755  19.027   0.421
11409W        W83080  39.897  25.284   3.554
11410W        W83081  16.533  19.477  11.934
11411W        W83082  28.120   1.084  11.050
11412W        W83083  38.796  28.103   3.089
11413W        W83084  44.683  13.342   4.602
11414W        W83085  18.051  18.300  11.969
11415W        W83086  26.480  43.083  12.012
11416W        W83087   1.332  10.175   1.838
11417W        W83088  41.901  10.348   0.827
11418W        W83089  16.634  39.553  11.363
11419W        W83090  24.147  21.261   1.906
11420W        W83091  40.530  12.599   3.473
11421W        W83092  31.113  32.947   4.583
11422W        W83093  40.525  17.859  13.598
11423W        W83094  37.556  20.771  11.662
11424W        W83095  10.096  10.647   4.536
11425W        W83096  34.662  17.031   2.291
11426W        W83097  11.741  23.082   1.950
11427W        W83098  12.335  28.953   4.229
11428W        W83099   6.150  36.450  14.000
11429W        W83100  18.296  23.063   0.600
11430W        W83101  20.678  35.819   3.168
11431W        W83102  42.277  23.736  12.374
11432W        W83103  43.979  10.761  11.454
11433W        W83104   2.448  18.786  13.007
11434W        W83105  30.457  30.546  10.714
11435W        W83106  14.276  19.580  14.966
11436W        W83107  18.025  15.715   4.928
11437W        W83108   9.901  43.558   4.462
11438W        W83109  44.132  35.525   2.569
11439W        W83110  37.825  11.379  10.980
11440W        W83111  15.895  10.853  12.923
11441W        W83112  34.686   9.188  12.957
11442W        W83113  10.420  15.374   3.751
11443W        W83114  25.986  28.217   4.383
11444W        W83115   8.922  18.120   1.996
11445W        W83116  11.187   1.877  13.937
11446W        W83117  38.062  36.640   1.972
11447W        W83118  36.469   5.442  10.398
11448W        W83119  12.262   1.502  10.832
11449W        W83120  31.521  24.543  13.960
11450W        W83121   9.215   2.700  11.907
11451W        W83122  20.477  44.372  14.837
11452W        W83123  43.727  18.755  11.488
11453W        W83124   8.464  38.761   0.840
11454W        W83125  43.599  13.765   3.909
11455W        W83126   3.945   2.756   4.642
11456W        W83127  11.177  37.395  10.383
11457W        W83128  20.619  43.713  12.011
11458W        W83129  36.207  36.967  14.844
11459W        W83130  14.438  13.750   4.189
11460W        W83131   3.791  35.491   4.743
11461W        W83132  10.702  23.190   4.143
11462W        W83133  20.549   0.720  11.749
11463W        W83134  43.062   3.256  10.995
11464W        W83135  37.583   3.374  13.086
11465W        W83136   7.510  26.492   5.011
11466W        W83137  29.821  43.867  14.807
11467W        W83138  23.149  17.608  11.583
11468W        W83139  35.501  16.228  12.198
11469W        W83140  34.742  10.799   2.206
11470W        W83141  39.064  39.960   0.059
11471W        W83142  17.698  19.189   4.450
11472W        W83143  42.928  38.640  14.995
11473W        W83144  13.746  42.147  13.408
11474W        W83145   9.202   9.277  11.956
11475W        W83146  40.257   2.302   4.071
11476W        W83147   4.410  36.577  14.752
11477W        W83148  31.878  25.061   0.847
11478W        W83149  40.994  13.006  14.869
11479W        W83150  24.385  30.606  13.031
11480W        W83151  31.401   9.258  14.317
11481W        W83152  26.884  26.332  13.986
11482W        W83153  17.057   3.872   2.940
11483W        W83154  39.445  11.583   4.157
11484W        W83155   6.884  14.075   4.416
11485W        W83156  34.533  10.160  12.117
11486W        W83157   6.850  14.788  14.190
11487W        W83158  33.291  19.969   2.760
11488W        W83159  13.804  44.757   4.417
11489W        W83160  10.554   2.424  12.466
11490W        W83161  42.534  34.391  12.192
11491W        W83162  18.095   4.822   0.129
11492W        W83163  11.826  11.587  12.839
11493W        W83164  32.535  18.790   3.181
11494W        W83165  32.847  26.554  13.385
11495W        W83166   0.218  22.449   5.483
11496W        W83167  12.654  27.721   2.198
11497W        W83168  10.149  18.738  13.399
11498W        W83169  30.689  33.046  12.487
11499W        W83170   7.536   6.344   0.873
11500W        W83171  24.902  43.093   0.423
11501W        W83172  16.574  18.528   4.967
11502W        W83173  42.332  31.452  14.952
11503W        W83174   7.221   6.504  13.176
11504W        W83175  14.247  44.494   2.865
11505W        W83176  20.168  38.316   0.702
11506W        W83177  20.116  35.276  12.559
11507W        W83178  15.331   1.400   3.767
11508W        W83179  25.439  26.660   0.438
11509W        W83180  12.709  12.643   1.719
11510W        W83181  29.917  17.803  11.372
11511W        W83182  33.699  21.383  10.262
11512W        W83183  44.840  33.864  12.664
11513W        W83184   0.157  16.577  13.831
11514W        W83185   6.769  15.720  14.139
11515W        W83186   4.017  34.047   3.768
11516W        W83187  36.303  11.211  13.838
11517W        W83188  16.500  34.160   1.140
11518W        W83189  35.476  15.753  11.898
11519W        W83190  25.015  12.191  12.602
11520W        W83191  11.342  36.993   1.315
11521W        W83192  31.926  21.213  11.544
11522W        W83193  18.815  21.254   3.363
11523W        W83194  25.136  15.592   3.761
11524W        W83195  38.550  31.012  10.709
11525W        W83196  17.034  21.140  10.249
11526W        W83197   0.501  28.984   1.888
11527W        W83198  15.217  16.124   2.581
11528W        W83199  13.548  24.707  10.781
11529W        W83200   1.883  29.877  11.426
11530W        W83201  40.786  38.572   1.289
11531W        W83202  13.912  27.498   0.752
11532W        W83203  28.055  23.133   0.146
11533W        W83204  25.454  21.691   0.859
11534W        W83205  13.957  41.529   4.301
11535W        W83206  32.917  16.560  11.358
11536W        W83207  31.501  29.995   1.957
11537W        W83208  20.280  30.027   0.314
11538W        W83209  20.503   5.721  11.486
11539W        W83210  32.743  26.435  14.499
11540W        W83211  30.009  12.166   3.158
11541W        W83212  21.167  42.637  10.679
11542W        W83213  33.164  17.988  12.495
11543W        W83214   2.956  13.540  14.794
11544W        W83215  24.640   2.687  10.686
11545W        W83216  20.083  44.550   4.060
11546W        W83217  44.349   9.461   0.933
11547W        W83218   2.291  39.187   0.360
11548W        W83219  41.099  21.564  11.037
11549W        W83220   7.765  43.871  13.367
11550W        W83221  25.963  44.366   3.745
11551W        W83222  35.062   9.232   1.687
11552W        W83223   3.791   2.244   0.059
11553W        W83224  25.097  15.760  11.140
11554W        W83225  28.921  38.949   1.703
11555W        W83226  25.427  25.070   2.346
11556W        W83227  44.498  21.728   4.073
11557W        W83228  11.350  36.936  12.067
11558W        W83229   0.962  38.517   4.403
11559W        W83230   8.113  36.634   3.306
11560W        W83231  28.451  10.822   4.910
11561W        W83232  11.875   8.407   2.792
11562W        W83233  17.216  36.349  10.552
11563W        W83234  12.598  33.115   3.795
11564W        W83235  11.477  26.045   2.229
11565W        W83236   0.930   7.368   2.663
11566W        W83237  28.393   9.872   3.788
11567W        W83238  27.343  20.025   1.927
11568W        W83239  31.658  24.541   0.780
11569W        W83240  16.678   7.020   3.607
11570W        W83241  22.479   7.639  13.511
11571W        W83242  19.317  27.507  10.498
11572W        W83243  28.863  12.682  11.800
11573W        W83244  23.317  31.265  14.437
11574W        W83245  15.782  37.762   2.899
11575W        W83246  32.509  32.012   1.273
11576W        W83247  34.045  18.588  14.959
11577W        W83248  30.917  42.712  14.358
11578W        W83249  23.985  34.829  11.575
11579W        W83250   1.235  20.547   1.449
11580W        W83251  28.085  34.424   3.271
11581W        W83252   7.104  25.632  11.572
11582W        W83253  16.627  14.122  12.538
11583W        W83254  12.739  31.254  14.303
11584W        W83255  20.119  37.267  12.662
11585W        W83256  28.185  42.344  14.403
11586W        W83257  25.497  43.318   4.953
11587W        W83258  25.272   4.817   1.241
11588W        W83259  37.872  14.070   3.063
11589W        W83260  35.960  41.563   4.776
11590W        W83261  29.573  40.431  13.938
11591W        W83262  12.040  23.139   2.691
11592W        W83263  17.298  41.596  12.887
11593W        W83264  37.356  33.818   4.051
11594W        W83265  32.359  36.975  11.957
11595W        W83266  44.964  19.785   1.000
11596W        W83267  16.657  30.028   2.567
11597W        W83268  20.115  37.086  10.387
11598W        W83269  39.514  28.220   2.901
11599W        W83270  22.778  12.805  12.988
11600W        W83271   3.905  18.826  10.547
11601W        W83272  17.364   4.439   2.762
11602W        W83273  36.993   5.155  11.995
11603W        W83274  11.827  14.833  12.130
11604W        W83275  30.548  43.818  10.697
11605W        W83276  16.463  22.633  14.320
11606W        W83277  23.268  27.591   2.170
11607W        W83278   0.377  35.891   2.451
11608W        W83279   4.757  20.499  14.023
11609W        W83280  11.777  39.298   4.678
11610W        W83281  19.471  26.373  11.394
11611W        W83282   7.614  30.192   2.600
11612W        W83283  16.583  14.917  11.502
11613W        W83284   1.032  31.978   3.218
11614W        W83285  17.354  35.064  11.172
11615W        W83286  11.627  39.551  14.680
11616W        W83287  22.162  18.030  11.591
11617W        W83288   0.051  19.027  12.834
11618W        W83289  23.030   8.756   3.347
11619W        W83290  28.987  13.145  11.136
11620W        W83291   0.187  43.924   2.794
11621W        W83292   5.818   1.760   2.361
11622W        W83293  26.781  29.371  11.545
11623W        W83294   5.429  34.863   0.918
11624W        W83295  27.153  11.269   2.796
11625W        W83296  36.938  33.944   4.898
11626W        W83297  12.357  26.543  11.483
11627W        W83298  32.156  37.684   3.668
11628W        W83299  13.336  20.123  12.143
11629W        W83300  44.727  42.520  13.966
11630W        W83301  23.056  31.076   0.367
11631W        W83302   5.862  19.235  13.914
11632W        W83303  20.689  10.219   1.693
11633W        W83304  32.865  18.699   3.828
11634W        W83305  43.251   0.357  10.672
11635W        W83306   4.153  16.047  12.025
11636W        W83307  36.219  23.047   3.893
11637W        W83308  34.828  11.863   3.271
11638W        W83309  36.333  36.476  11.818
11639W        W83310   9.570   2.651   4.123
11640W        W83311  32.774  21.743   4.536
11641W        W83312  16.983  27.491   4.503
11642W        W83313  38.413   4.212   2.839
11643W        W83314  15.398  30.683   4.108
11644W        W83315   4.415  38.219  10.749
11645W        W83316  21.553  21.553   4.103
11646W        W83317  43.837   1.290   2.839
11647W        W83318  18.473  41.437   1.178
11648W        W83319  38.967  25.204  13.940
11649W        W83320  33.491  41.918  14.248
11650W        W83321   3.582  23.564  12.963
11651W        W83322  24.578  35.699  11.155
11652W        W83323   1.568  41.758   4.452
11653W        W83324  12.528  16.605  14.590
11654W        W83325  14.163   6.195  11.567
11655W        W83326  43.124  27.634  11.189
11656W        W83327  30.678  12.009   4.156
11657W        W83328  13.875  23.217   1.863
11658W        W83329  27.055  31.511   4.340
11659W        W83330  34.699  10.614   3.239
11660W        W83331  28.937  22.482  13.876
11661W        W83332  27.845  32.047   0.773
11662W        W83333   0.274  13.672  10.225
11663W        W83334  30.047  11.030   0.436
11664W        W83335  23.935   1.921  12.534
11665W        W83336  43.477  31.340   1.860
11666W        W83337  36.563  36.347   0.292
11667W        W83338  33.057  15.526   3.996
11668W        W83339   9.297  20.067  12.930
11669W        W83340  30.584  17.824   4.980
11670W        W83341  15.682  14.411  13.955
11671W        W83342   1.268   3.296   2.915
11672W        W83343   4.391  39.066  14.962
11673W        W83344  22.956   2.865   2.803
11674W        W83345  31.630  15.801   1.071
11675W        W83346  42.438   1.730  14.889
11676W        W83347  44.675  13.610  11.938
11677W        W83348  38.275  22.678   0.202
11678W        W83349  36.823  22.904   2.299
11679W        W83350  25.703  25.685  13.339
11680W        W83351  33.665  28.263   2.751
11681W        W83352  44.967  24.023   3.157
11682W        W83353   1.762   0.014   1.698
11683W        W83354   6.151   7.208   1.720
11684W        W83355  39.968  34.385  11.548
11685W        W83356  36.034  43.925   2.374
11686W        W83357  14.271   9.185  14.756
11687W        W83358  12.144  27.471  10.694
11688W        W83359  35.637  10.604   1.771
11689W        W83360  33.996  35.279  10.308
11690W        W83361  16.276   9.218   2.038
11691W        W83362  13.389  35.577  14.942
11692W        W83363  12.226  17.620  13.895
11693W        W83364  43.834  33.542   3.381
11694W        W83365  13.384  23.608   0.847
11695W        W83366  33.028  20.835  14.350
11696W        W83367  12.688  20.045  14.900
11697W        W83368   0.760   4.367   2.507
11698W        W83369   4.480   1.968  12.078
11699W        W83370  39.075  38.436   0.031
11700W        W83371  31.838   5.918   4.647
11701W        W83372  10.132   8.196   3.664
11702W        W83373  41.780  27.602  13.027
11703W        W83374  37.872  15.801   3.813
11704W        W83375  41.218  16.197   3.402
11705W        W83376  11.376   2.848  11.392
11706W        W83377   6.816  12.274  10.884
11707W        W83378  37.384  32.661  13.482
11708W        W83379  14.126  22.244  10.998
11709W        W83380  31.521  28.586   4.420
11710W        W83381  19.388  32.815  12.485
11711W        W83382  19.094   8.084  11.673
11712W        W83383  13.811  35.432  13.573
11713W        W83384  29.678   7.094  11.246
11714W        W83385  13.979  27.896   5.011
11715W        W83386   4.184   4.928  14.959
11716W        W83387  43.796  30.252  13.448
11717W        W83388  34.349  40.230   2.746
11718W        W83389  16.107  27.831  10.588
11719W        W83390  13.012   7.202  11.616
11720W        W83391  42.113   4.102  12.014
11721W        W83392  21.230  42.794   1.371
11722W        W83393  39.714   5.816   3.534
11723W        W83394  30.501  21.198  12.568
11724W        W83395  13.403   8.249  12.893
11725W        W83396  34.385  36.226   0.363
11726W        W83397  24.925   0.316   0.552
11727W        W83398  30.510  40.075  12.499
11728W        W83399  32.639  23.470   1.764
11729W        W83400   7.342  14.005   2.681
11730W        W83401  28.696  39.185   0.815
11731W        W83402   8.767   1.875  10.486
11732W        W83403  42.089  23.203  12.509
11733W        W83404  15.852   6.626   4.583
11734W        W83405  35.435  23.517  10.679
11735W        W83406  10.251   7.789   2.266
11736W        W83407  40.427   1.154  13.476
11737W        W83408  26.311  41.873  13.003
11738W        W83409  13.877   8.132   4.312
11739W        W83410  13.757   0.720   0.061
11740W        W83411  31.947  17.665  13.367
11741W        W83412   4.826   3.623  13.978
11742W        W83413  23.130   2.666   0.301
11743W        W83414  43.878  15.670   0.896
11744W        W83415  22.546   8.546   1.975
11745W        W83416  43.562  26.045  14.839
11746W        W83417  32.086  13.305  12.656
11747W        W83418  13.269  37.892  13.487
11748W        W83419  21.330  21.801  13.906
11749W        W83420  38.540  44.790  10.391
11750W        W83421  25.274  22.992   2.822
11751W        W83422  11.324  21.041  13.655
11752W        W83423  31.941  44.089  14.319
11753W        W83424   1.360  25.449   1.181
11754W        W83425  25.525  19.107   0.661
11755W        W83426  12.855  27.161  10.443
11756W        W83427  20.770  33.749   0.640
11757W        W83428   6.050  23.395  10.226
11758W        W83429  25.214  26.399   1.449
11759W        W83430  34.159  38.898   2.878
11760W        W83431   5.723   2.396  12.154
11761W        W83432  14.782  44.923   2.154
11762W        W83433  33.394  20.986   4.207
11763W        W83434   3.956  38.617   0.718
11764W        W83435  28.314   2.342  12.953
11765W        W83436  39.852  21.637   3.133
11766W        W83437  10.812  36.245   4.955
11767W        W83438  16.576  19.847   0.994
11768W        W83439  23.017  39.892  14.357
11769W        W83440  17.009  17.263  14.848
11770W        W83441   2.280  37.400  12.431
11771W        W83442   0.394  16.557  11.615
11772W        W83443   2.902  36.018   1.929
11773W        W83444  26.524  23.780   4.178
11774W        W83445  21.499   2.572  14.277
11775W        W83446   1.851  22.792  11.045
11776W        W83447  43.025  11.895  14.539
11777W        W83448   6.729  43.173  14.315
11778W        W83449  10.497   6.065   9.905
11779W        W83450  41.446  38.893  13.479
11780W        W83451  23.779  12.754   1.323
11781W        W83452  14.890  39.598  14.024
11782W        W83453  43.909  21.450   5.107
11783W        W83454  31.078  43.629   0.251
11784W        W83455  13.248  27.178  11.944
11785W        W83456   1.338  24.595   0.778
11786W        W83457   2.376  18.796   3.630
11787W        W83458  43.708  17.970   4.161
11788W        W83459   6.538  19.121  12.959
11789W        W83460  12.265  43.271   1.204
11790W        W83461  14.952   0.404  14.409
11791W        W83462  42.060  14.619  12.760
11792W        W83463  36.552  19.980   2.428
11793W        W83464  24.926   4.801   3.150
11794W        W83465   5.706  35.469   3.151
11795W        W83466   3.418  39.846  14.848
11796W        W83467  22.373   2.813  10.792
11797W        W83468  25.905  39.637  12.137
11798W        W83469   9.264  35.342  13.245
11799W        W83470  14.716   5.718   4.525
11800W        W83471   8.338  22.185   4.606
11801W        W83472   9.243  24.804   0.748
11802W        W83473  40.274   9.122   3.714
11803W        W83474  31.071  34.957   3.793
11804W        W83475  21.136  20.474   0.777
11805W        W83476  41.357  13.624  11.685
11806W        W83477  41.527   3.878  11.155
11807W        W83478  24.027  38.957  11.619
11808W        W83479  30.499   9.304  14.177
11809W        W83480  20.278  36.590  11.545
11810W        W83481  15.698  17.751  12.594
11811W        W83482  30.830  44.729  10.771
11812W        W83483   7.746  24.204   4.207
11813W        W83484  35.615  15.601  12.885
11814W        W83485   6.526  41.566  11.841
11815W        W83486  16.730  28.712  14.528
11816W        W83487  39.882  21.195   2.834
11817W        W83488   5.327  36.714  11.107
11818W        W83489  15.771  30.926  10.411
11819W        W83490  24.773  17.256  14.859
11820W        W83491  14.709  18.167   2.642
11821W        W83492  44.039  20.962  12.854
11822W        W83493  26.357  23.453   1.167
11823W        W83494  36.063  37.187   0.306
11824W        W83495  41.092  29.873   1.801
11825W        W83496  36.077  23.156  13.157
11826W        W83497   2.371   3.385   2.743
11827W        W83498  18.822  28.499  11.379
11828W        W83499  28.534  38.667   2.645
11829W        W83500   1.141  42.022   4.673
11830W        W83501  39.720  14.095  13.466
11831W        W83502  18.110  32.661  11.131
11832W        W83503  33.028   4.027   4.551
11833W        W83504   3.525  28.802   0.991
11834W        W83505  19.309  41.250  12.990
11835W        W83506  14.588  44.822   0.328
11836W        W83507  11.200  14.095   0.347
11837W        W83508  33.297  41.914  12.206
11838W        W83509  12.548  25.560  14.295
11839W        W83510  25.025  35.387  11.465
11840W        W83511  42.087  10.704   4.896
11841W        W83512  43.358  21.711  14.785
11842W        W83513  25.291   6.105  14.216
11843W        W83514  21.461  32.357   3.214
11844W        W83515  33.456  29.878  11.124
11845W        W83516  25.725  32.840   0.987
11846W        W83517   2.641  22.096   1.887
11847W        W83518   1.089  24.640   4.569
11848W        W83519  19.427  17.183   4.898
11849W        W83520  41.964   7.369  11.926
11850W        W83521  10.654  27.039   4.088
11851W        W83522  14.143  35.366  14.308
11852W        W83523   7.911  28.741  13.736
11853W        W83524  25.691   0.837  13.322
11854W        W83525  37.088  42.611   1.802
11855W        W83526  30.009  30.632   3.375
11856W        W83527   8.371   5.898  14.846
11857W        W83528   6.137  44.871  13.303
11858W        W83529  23.718   1.223   2.822
11859W        W83530  38.311   1.803   4.150
11860W        W83531  26.728  42.666   1.629
11861W        W83532  33.430   8.174   2.750
11862W        W83533  24.425  14.211  12.975
11863W        W83534   0.250  29.672  12.387
11864W        W83535  42.926   2.840   1.962
11865W        W83536   9.318  14.968   0.242
11866W        W83537  42.455  44.514  14.504
11867W        W83538  18.777  16.378  11.129
11868W        W83539  23.018  37.625   3.927
11869W        W83540  30.611  14.850   2.214
11870W        W83541  15.661  44.204  12.974
11871W        W83542  36.869   7.320   1.429
11872W        W83543  10.934  21.965  12.332
11873W        W83544   1.716  25.743   4.234
11874W        W83545  12.773  28.690   2.198
11875W        W83546  39.975  38.394   3.086
11876W        W83547   4.764  12.314   0.738
11877W        W83548  28.229  23.005  11.511
11878W        W83549  24.481  22.007   4.501
11879W        W83550  30.422   8.276   2.218
11880W        W83551  24.205  26.851   2.404
11881W        W83552   6.815  30.446   0.933
11882W        W83553  36.066  14.351  13.457
11883W        W83554  16.563  42.941   0.829
11884W        W83555  17.668  30.830   3.739
11885W        W83556  20.988  44.361  13.608
11886W        W83557   7.247  32.471  13.726
11887W        W83558  10.608   8.391  11.590
11888W        W83559   0.714  24.384  10.948
11889W        W83560  22.134  29.919   1.974
11890W        W83561  34.095  37.501  14.398
11891W        W83562  26.695  39.030  12.528
11892W        W83563  18.205  34.125   0.881
11893W        W83564   4.940  16.197  11.510
11894W        W83565  33.754  41.272  12.647
11895W        W83566  24.538  25.305  14.488
11896W        W83567  14.054  44.890  13.869
11897W        W83568  36.315   7.135   3.237
11898W        W83569  30.377  31.513   3.644
11899W        W83570   4.336  43.265  11.146
11900W        W83571  27.053  37.468   0.924
11901W        W83572   0.878   5.162  14.852
11902W        W83573  42.901  32.013   0.073
11903W        W83574  43.959  37.308   4.008
11904W        W83575  25.285  44.488   0.100
11905W        W83576  24.605  40.352  12.563
11906W        W83577  33.887  42.946  12.191
11907W        W83578  34.686  30.681  14.150
11908W        W83579  29.063   6.078  14.702
11909W        W83580  20.924  11.634   0.855
11910W        W83581   7.692  41.920  13.458
11911W        W83582  27.035  29.910   3.297
11912W        W83583  21.075  42.868  10.218
11913W        W83584   5.188  18.298  13.297
11914W        W83585   3.611  22.561  14.518
11915W        W83586  27.952  30.388   4.640
11916W        W83587  40.869   9.412   1.475
11917W        W83588  25.598  18.644   3.913
11918W        W83589  33.014  43.832  13.271
11919W        W83590  26.958  17.841  12.392
11920W        W83591  31.920   2.771  14.358
11921W        W83592  38.792   5.924   0.314
11922W        W83593  23.079  15.093  11.899
11923W        W83594   7.208  13.079  11.163
11924W        W83595  29.893  13.624  10.739
11925W        W83596  29.693  37.536   2.549
11926W        W83597  19.830   9.350  14.424
11927W        W83598   9.356  12.893  13.449
11928W        W83599  20.260  21.119  12.874
11929W        W83600   4.885  19.691  10.159
11930W        W83601   3.979   3.308  14.371
11931W        W83602  44.575  35.604   2.816
11932W        W83603  31.139  21.164   1.003
11933W        W83604  40.049  28.931  11.079
11934W        W83605   0.476  39.811   0.177
11935W        W83606  26.539  29.376  13.019
11936W        W83607  37.759  15.370  14.365
11937W        W83608   8.141  44.170   0.757
11938W        W83609  39.823  23.013  13.157
11939W        W83610   0.317  27.762  13.842
11940W        W83611  21.020   4.286  11.206
11941W        W83612  28.263  18.283   9.798
11942W        W83613   5.869  18.196   1.349
11943W        W83614  14.076  28.912   3.724
11944W        W83615  20.565  18.835   4.825
11945W        W83616  10.127  29.835   1.924
11946W        W83617   1.466   6.428   4.730
11947W        W83618  31.596  33.169  12.476
11948W        W83619  28.418  11.770   0.320
11949W        W83620  19.034  31.860   2.123
11950W        W83621  14.681  26.193   2.743
11951W        W83622  30.197  32.379   2.572
11952W        W83623   0.022   3.149  12.369
11953W        W83624  11.759  27.502   0.812
11954W        W83625  28.018  14.318   3.140
11955W        W83626   8.073  33.684   3.291
11956W        W83627  44.144   1.433  13.757
11957W        W83628  38.935  28.741  13.931
11958W        W83629  41.758   3.834  10.672
11959W        W83630  17.306   4.680   4.150
11960W        W83631   0.848  23.914   0.805
11961W        W83632  31.485  40.852  11.797
11962W        W83633   0.322   2.533   2.512
11963W        W83634  27.731  15.518   2.309
11964W        W83635  14.796   0.263  12.890
11965W        W83636  41.681  21.815   4.637
11966W        W83637   0.395   0.882  11.075
11967W        W83638  25.141  38.796  14.037
11968W        W83639  41.284  29.555   3.151
11969W        W83640  15.558   2.795  11.946
11970W        W83641  39.390  19.130  12.440
11971W        W83642  18.834   4.219   2.907
11972W        W83643  13.650  21.346  12.544
11973W        W83644   3.100  40.389  14.693
11974W        W83645  33.095   2.694  12.452
11975W        W83646   7.285  20.625   3.453
11976W        W83647  25.872  23.494  14.076
11977W        W83648  15.836  17.246  10.770
11978W        W83649  36.636  19.886  12.507
11979W        W83650  40.060  26.604  11.491
11980W        W83651  41.531  36.603   2.478
11981W        W83652  28.411  43.002  14.451
11982W        W83653  38.472  36.631   0.447
11983W        W83654  42.517   4.205   3.732
11984W        W83655  14.643  13.523  13.498
11985W        W83656   8.123  17.647  14.745
11986W        W83657  18.553  13.109   4.205
11987W        W83658  18.688   3.965  13.605
11988W        W83659  10.360  29.120  11.895
11989W        W83660  26.098  13.299  13.466
11990W        W83661  12.160  18.848  14.490
11991W        W83662  17.606  28.441   0.009
11992W        W83663  18.497  14.188  13.571
11993W        W83664  43.879  33.426   4.393
11994W        W83665  19.146  41.496   0.369
11995W        W83666  12.562  39.058  11.589
11996W        W83667  20.754  33.547  13.726
11997W        W83668   3.472   2.300  12.755
11998W        W83669  24.676   3.859   4.820
11999W        W83670   6.744   1.655   3.191
12000W        W83671  40.946  42.954   5.134
12001W        W83672  15.806  11.278   4.588
12002W        W83673  25.721  25.668   4.124
12003W        W83674   7.126   8.999   2.337
12004W        W83675  31.750  17.513  12.908
12005W        W83676   4.333   7.593  14.576
12006W        W83677  14.516   8.544  12.339
12007W        W83678  27.037  14.984   4.389
12008W        W83679  28.439  12.189   4.239
12009W        W83680  42.070  44.322   1.359
12010W        W83681  17.777   0.368  14.362
12011W        W83682   4.637  23.159  11.489
12012W        W83683  12.538  23.127  12.848
12013W        W83684  27.559   2.409   1.438
12014W        W83685   5.971  29.618   4.653
12015W        W83686  38.678  29.546  11.623
12016W        W83687  15.845  14.311  11.138
12017W        W83688  30.378  33.875   1.852
12018W        W83689  21.340   1.270   4.501
12019W        W83690  16.381   9.592   1.129
12020W        W83691   2.417   5.955   1.888
12021W        W83692   6.897  10.988   3.369
12022W        W83693   2.424   1.605  14.794
12023W        W83694   7.354   3.263  10.746
12024W        W83695  11.244  31.017  10.745
12025W        W83696  19.163  42.855   1.969
12026W        W83697  29.650  33.050   3.640
12027W        W83698  39.096  19.650   3.585
12028W        W83699   3.434  41.518   0.457
12029W        W83700  42.214  19.012   1.875
12030W        W83701  16.792  41.372  10.448
12031W        W83702  16.703   6.820  14.539
12032W        W83703  25.998   1.661   1.500
12033W        W83704  30.789   5.806   4.346
12034W        W83705  26.903   1.598  11.450
12035W        W83706  35.338  16.310   4.500
12036W        W83707  42.943  24.110   3.201
12037W        W83708  19.186   8.362  10.690
12038W        W83709  11.595  34.511  14.462
12039W        W83710   2.327  12.395   2.705
12040W        W83711  39.275  36.557  10.775
12041W        W83712  24.426  12.333  10.593
12042W        W83713  12.008  33.230  14.424
12043W        W83714  32.212  14.824  11.884
12044W        W83715  15.756  23.066  13.288
12045W        W83716  10.959  26.986  14.707
12046W        W83717  36.336  20.120  11.385
12047W        W83718  10.098   5.420  11.140
12048W        W83719  40.827  22.146  10.724
12049W        W83720  36.350  38.815   0.914
12050W        W83721  15.685  32.177   0.846
12051W        W83722  34.510  44.905   1.836
12052W        W83723  21.555  12.369   2.776
12053W        W83724  37.910  39.529   4.973
12054W        W83725  28.244  36.108   2.347
12055W        W83726  17.375  40.258   2.261
12056W        W83727  18.627   6.715  10.704
12057W        W83728  23.473  19.299   0.889
12058W        W83729   3.325  29.770   0.732
12059W        W83730  15.903  10.612   4.047
12060W        W83731  17.656  34.847  12.448
12061W        W83732  36.740   3.334   2.747
12062W        W83733   0.400  39.909  14.428
12063W        W83734  25.619  37.167  12.708
12064W        W83735  35.024  42.376  11.261
12065W        W83736  18.200   1.037  12.987
12066W        W83737  38.005  25.441   4.312
12067W        W83738  20.767  44.882   0.845
12068W        W83739  24.340  36.850   4.850
12069W        W83740   7.343  16.994  11.246
12070W        W83741   2.477  24.772  12.532
12071W        W83742  42.982  34.417  12.468
12072W        W83743   3.348  43.867   0.846
12073W        W83744  37.169  23.835  12.805
12074W        W83745  18.712  23.343  14.177
12075W        W83746  44.086  43.824  12.496
12076W        W83747  10.235  16.384  11.155
12077W        W83748  44.380  39.874   1.259
12078W        W83749  44.022  42.848  11.599
12079W        W83750  31.105  14.554   3.119
12080W        W83751  38.462  44.734  11.441
12081W        W83752  25.577  43.323   4.424
12082W        W83753  15.165  28.413   2.709
12083W        W83754  39.816  32.885   1.306
12084W        W83755  44.816  13.590   1.828
12085W        W83756   3.990  29.973   0.300
12086W        W83757   2.783   3.230   0.855
12087W        W83758  39.030  35.016  12.244
12088W        W83759  16.535  38.504  13.001
12089W        W83760  39.279  36.969  13.023
12090W        W83761   8.396   0.713  13.100
12091W        W83762  36.964  19.806   2.907
12092W        W83763  22.412  13.145   1.411
12093W        W83764  26.063  15.377   4.855
12094W        W83765  29.890  12.891   2.371
12095W        W83766  19.252  23.200  13.042
12096W        W83767  24.569   7.018  10.712
12097W        W83768  43.184  22.612  14.004
12098W        W83769  21.629  19.362   2.659
12099W        W83770  41.482  12.802  14.824
12100W        W83771  10.626   3.824   1.001
12101W        W83772   3.481   9.328   4.243
12102W        W83773  43.070  19.748   1.938
12103W        W83774  44.848  11.285  14.346
12104W        W83775  32.463   8.712  14.901
12105W        W83776  36.566   1.523  13.775
12106W        W83777  17.802  32.308   3.851
12107W        W83778  14.335  12.956  13.456
12108W        W83779   3.413  39.041   3.708
12109W        W83780  20.202  14.398   1.837
12110W        W83781   3.046  23.147   2.984
12111W        W83782  30.991  43.131  13.488
12112W        W83783  32.672  42.960   3.343
12113W        W83784   3.788  10.130  12.493
12114W        W83785  43.711   7.642  11.669
12115W        W83786  37.312  36.455  13.806
12116W        W83787  10.640  29.949  12.956
12117W        W83788  27.538  15.435   0.374
12118W        W83789  39.605  20.617  10.614
12119W        W83790  21.134  38.009   1.198
12120W        W83791   1.027  32.452   1.358
12121W        W83792  31.965  18.600  14.579
12122W        W83793  40.477  41.293  11.187
12123W        W83794  16.329  10.132  11.861
12124W        W83795  27.898  16.234  12.106
12125W        W83796  23.242   9.940   0.540
12126W        W83797  26.118  14.724   3.246
12127W        W83798  13.923  11.474   3.261
12128W        W83799  23.670  12.834  13.441
12129W        W83800   8.169  12.696   4.608
12130W        W83801   3.812  14.250  12.124
12131W        W83802  17.017  14.389   0.804
12132W        W83803  34.372   5.934   3.630
12133W        W83804  10.845  35.523  12.842
12134W        W83805  44.834  43.292   0.204
12135W        W83806  39.715  15.425  14.490
12136W        W83807  15.130  28.979   4.783
12137W        W83808  20.084   1.819  13.324
12138W        W83809  16.731  21.447  13.090
12139W        W83810  34.491  13.060  11.382
12140W        W83811  43.480   2.978  10.934
12141W        W83812  27.597  39.738  14.812
12142W        W83813  42.297  38.454  10.254
12143W        W83814  25.026  10.829   3.201
12144W        W83815  23.254   5.207   0.907
12145W        W83816  28.355  15.715   3.082
12146W        W83817  43.875   3.350   1.946
12147W        W83818  22.261   9.890  14.334
12148W        W83819  17.725  29.121  11.651
12149W        W83820  39.321  41.963  11.878
12150W        W83821  32.606  16.895  14.491
12151W        W83822  27.004  36.772   1.471
12152W        W83823  39.585  17.823  12.239
12153W        W83824  14.679  35.446   0.372
12154W        W83825  36.434  33.982  13.564
12155W        W83826  27.156   8.881   1.007
12156W        W83827  10.928   0.463   3.173
12157W        W83828  40.474  17.181   5.006
12158W        W83829  18.785  36.228   1.302
12159W        W83830  18.313  36.370   1.547
12160W        W83831  25.968  19.002  12.245
12161W        W83832  38.807  17.123   4.091
12162W        W83833  11.874  16.502  10.675
12163W        W83834  38.463  37.035   1.650
12164W        W83835  16.640  27.090  11.538
12165W        W83836  26.996  32.595  11.586
12166W        W83837  24.190  33.362  12.757
12167W        W83838  40.037  24.225  11.207
12168W        W83839  43.431   1.913  12.289
12169W        W83840   9.088  33.820   3.361
12170W        W83841  12.303  36.039  10.720
12171W        W83842   7.380  30.014   3.734
12172W        W83843  43.892  40.212  14.924
12173W        W83844   0.144  23.344   2.799
12174W        W83845   8.297   5.397  10.667
12175W        W83846  17.781  14.348   1.685
12176W        W83847  40.242   4.276   1.265
12177W        W83848  30.016  43.364  14.926
12178W        W83849   3.583  21.257   1.019
12179W        W83850  27.210  24.498  10.698
12180W        W83851  28.510  23.623  12.885
12181W        W83852   5.380  13.290   0.879
12182W        W83853   7.547   4.885  10.741
12183W        W83854   7.044  30.798  13.869
12184W        W83855  10.765   2.326  11.612
12185W        W83856  13.551  30.597  10.805
12186W        W83857  24.813  41.203  11.444
12187W        W83858  11.858   1.315   2.227
12188W        W83859  19.715  11.116   4.589
12189W        W83860  12.686   7.558  11.852
12190W        W83861  35.124  40.767  13.456
12191W        W83862  12.900   6.234   2.805
12192W        W83863  30.667  21.198  12.071
12193W        W83864  17.682  16.151   3.204
12194W        W83865  40.703   1.303   2.757
12195W        W83866  32.304  30.050  10.399
12196W        W83867  41.460  15.789   2.473
12197W        W83868  43.584  32.648   3.146
12198W        W83869  43.991  41.761  10.441
12199W        W83870  10.714   2.270   1.316
12200W        W83871  31.670  41.379  12.461
12201W        W83872  23.873   3.538   1.415
12202W        W83873   1.943  13.733  13.388
12203W        W83874  29.262  12.560  14.882
12204W        W83875   1.005  16.000   1.325
12205W        W83876  22.452  11.513  10.259
12206W        W83877  26.645  16.798   1.224
12207W        W83878   6.401  13.679  13.629
12208W        W83879  33.082  40.517  14.275
12209W        W83880  24.302  43.897  11.125
12210W        W83881  25.639  21.955   4.466
12211W        W83882  33.341  23.259   1.526
12212W        W83883  26.622  14.605   2.985
12213W        W83884  15.632   2.810  10.722
12214W        W83885  40.136  12.665   3.125
12215W        W83886  36.333   5.288  12.862
12216W        W83887  26.254  38.507  11.546
12217W        W83888  35.233  30.557   3.524
12218W        W83889  26.591  35.114  14.017
12219W        W83890  34.017  35.557  14.894
12220W        W83891  23.405   6.409   1.374
12221W        W83892  12.618  19.832   2.695
12222W        W83893  21.192  16.689  13.037
12223W        W83894  36.576  44.281   9.887
12224W        W83895  17.678   9.692   4.591
12225W        W83896  19.168   5.767   3.871
12226W        W83897  33.926   0.464  11.175
12227W        W83898   4.998  24.931  10.791
12228W        W83899  19.813  11.046  12.945
12229W        W83900  41.422  18.777   2.756
12230W        W83901   3.534  14.544   2.212
12231W        W83902  36.962  18.770  11.174
12232W        W83903  39.929  41.280  12.821
12233W        W83904  41.991  11.633   2.119
12234W        W83905  31.062  36.428   0.855
12235W        W83906  43.544  25.356   2.623
12236W        W83907  21.253  33.854  11.546
12237W        W83908  20.973  26.881  14.500
12238W        W83909  44.289  27.129  14.327
12239W        W83910   3.138   0.526   0.466
12240W        W83911  20.677  23.547  13.023
12241W        W83912   3.366   5.334  11.153
12242W        W83913  29.252  38.946   4.552
12243W        W83914   9.689  18.681   0.954
12244W        W83915  30.836  35.554  14.821
12245W        W83916  21.087  25.046   0.217
12246W        W83917  33.513  12.714  13.078
12247W        W83918  32.112   5.196   4.676
12248W        W83919  20.085  25.757  10.645
12249W        W83920  34.477  13.071   2.877
12250W        W83921  13.857  12.780   0.901
12251W        W83922   8.637   5.762   1.718
12252W        W83923  23.195  36.189   1.466
12253W        W83924   7.507   6.929   2.421
12254W        W83925  44.317  28.485  12.596
12255W        W83926  24.055   6.017   5.052
12256W        W83927   1.139   7.696  11.483
12257W        W83928   8.771  31.988   1.357
12258W        W83929  42.244  31.463  13.621
12259W        W83930  31.501  13.795  13.395
12260W        W83931  10.305  29.156   0.317
12261W        W83932  16.476  17.595   4.535
12262W        W83933  13.353  20.565   1.397
12263W        W83934   5.398  24.039  14.780
12264W        W83935  13.312   5.605   1.232
12265W        W83936  34.548  25.039  10.640
12266W        W83937   8.962  36.876  12.437
12267W        W83938  14.736  35.102   1.862
12268W        W83939   3.630  21.213   4.526
12269W        W83940   8.741  15.677   3.183
12270W        W83941  34.980  30.387  11.444
12271W        W83942  34.342  13.302   1.791
12272W        W83943  35.566  33.550   1.962
12273W        W83944   7.365  14.445  11.626
12274W        W83945  28.594  34.049   4.635
12275W        W83946   7.756  25.774  10.718
12276W        W83947  23.928   4.558   1.515
12277W        W83948  23.054  30.652   0.053
12278W        W83949   3.916  20.598  14.396
12279W        W83950  36.583   1.532   4.626
12280W        W83951  17.803  44.339  11.819
12281W        W83952   4.980  12.711  10.980
12282W        W83953  16.126  33.854   0.081
12283W        W83954   9.685  38.137   1.793
12284W        W83955  38.954  37.934   0.254
12285W        W83956  30.565  32.509   2.956
12286W        W83957  35.414  30.983  10.736
12287W        W83958  35.462  25.436   0.707
12288W        W83959  29.583   4.723   2.262
12289W        W83960  36.497  32.305  11.030
12290W        W83961  28.507   4.838  10.534
12291W        W83962   0.912  10.451  11.384
12292W        W83963  29.560   5.307  14.747
12293W        W83964  20.799  36.346  10.508
12294W        W83965  32.360  41.982   4.566
12295W        W83966  16.939  31.449  11.182
12296W        W83967  15.686  43.534  14.455
12297W        W83968  23.645  20.692  13.384
12298W        W83969   9.830   3.955   2.681
12299W        W83970  17.161  40.795   3.233
12300W        W83971  37.142   6.423  11.496
12301W        W83972  44.376  25.199  14.280
12302W        W83973  18.248  30.629  13.937
12303W        W83974  39.351  19.193   4.388
12304W        W83975   0.972   0.750   0.845
12305W        W83976  11.050   2.384  12.577
12306W        W83977   2.477  21.993  13.947
12307W        W83978   2.080   9.561   3.728
12308W        W83979   8.576  25.574   4.168
12309W        W83980   8.375  34.499  11.226
12310W        W83981   6.421   3.604  12.991
12311W        W83982  20.672   3.375  14.854
12312W        W83983  27.066  23.004  12.398
12313W        W83984  17.177  20.691  13.134
12314W        W83985  16.715   8.853  11.956
12315W        W83986  19.772  22.793   0.456
12316W        W83987  23.338  30.094  14.060
12317W        W83988  33.655  35.489  10.618
12318W        W83989   2.540  34.916  14.429
12319W        W83990   9.675  29.657  12.451
12320W        W83991  32.735  11.334   4.142
12321W        W83992  32.277  16.064   3.768
12322W        W83993  33.086   9.782   3.385
12323W        W83994  35.386  18.215   4.179
12324W        W83995  37.845  21.262  14.723
12325W        W83996   4.165  40.338   4.614
12326W        W83997  28.053   6.229   3.339
12327W        W83998   0.403  22.504   4.999
12328W        W83999  44.802  31.309   4.219
12329W        W84000  22.565  24.214   2.461
12330W        W84001  40.468  24.437  14.239
12331W        W84002  27.220   1.202  11.404
12332W        W84003  23.158  40.921  11.115
12333W        W84004   4.904  19.297   1.414
12334W        W84005  15.082  29.176   3.410
12335W        W84006  26.478  43.454  10.672
12336W        W84007   9.131  17.541  13.360
12337W        W84008  26.004  31.169  11.246
12338W        W84009  30.992   1.434   4.440
12339W        W84010   7.238  25.636   4.552
12340W        W84011  39.385  40.322  14.908
12341W        W84012  14.063  38.304   4.274
12342W        W84013  26.923   4.858  11.038
12343W        W84014  16.718  33.849   4.165
12344W        W84015  28.878  34.392  10.808
12345W        W84016   6.177  10.946   2.344
12346W        W84017  19.005   0.093   0.448
12347W        W84018   5.649  15.592   3.051
12348W        W84019  35.521  40.197   1.413
12349W        W84020  33.922   0.729   4.303
12350W        W84021  28.195  33.996   1.027
12351W        W84022  41.352  19.502  14.182
12352W        W84023   0.919  33.096  13.667
12353W        W84024   1.462  23.459  12.445
12354W        W84025   7.219  28.140  13.864
12355W        W84026   1.493  31.246   5.161
12356W        W84027  42.985  23.099  14.023
12357W        W84028  11.692  20.086   2.622
12358W        W84029  36.717  24.593   2.066
12359W        W84030  13.027  25.600  11.065
12360W        W84031  28.615  37.937  13.317
12361W        W84032   2.852  18.138  14.553
12362W        W84033   3.312  19.653  10.270
12363W        W84034  33.902   0.977   0.401
12364W        W84035  20.596  38.568  12.551
12365W        W84036  20.418  16.031  10.514
12366W        W84037   1.247  25.538   2.369
12367W        W84038  34.993   8.343   2.027
12368W        W84039  43.138  37.802  14.881
12369W        W84040  40.086  19.766   2.562
12370W        W84041   4.745  26.185  11.977
12371W        W84042  40.262  38.326   4.103
12372W        W84043   5.976   2.325   3.152
12373W        W84044  14.319  16.390   2.328
12374W        W84045  39.083   1.216   2.990
12375W        W84046  42.951  30.334   3.378
12376W        W84047  29.211  44.746  12.343
12377W        W84048   5.173  27.249   3.140
12378W        W84049  27.512  11.626  12.391
12379W        W84050   3.919  44.479   3.134
12380W        W84051  32.256  23.878   4.127
12381W        W84052   3.924   3.153  11.141
12382W        W84053   8.765  11.080   1.797
12383W        W84054  14.218  22.604   3.088
12384W        W84055  34.193  19.082   1.211
12385W        W84056  16.791   4.959   2.854
12386W        W84057  20.176   2.324   4.387
12387W        W84058  18.463  28.724   4.484
12388W        W84059  40.252  42.266   4.248
12389W        W84060   9.749  43.586   1.379
12390W        W84061  24.024  44.313  10.991
12391W        W84062   0.058   5.712  10.737
12392W        W84063  13.210  30.003  12.866
12393W        W84064  27.212  12.204  11.498
12394W        W84065  12.298  32.456  13.812
12395W        W84066  41.943   9.954   1.209
12396W        W84067  27.265   4.397   2.337
12397W        W84068  31.707   5.274   0.462
12398W        W84069  28.818  37.004   0.656
12399W        W84070  31.559  13.205  13.766
12400W        W84071   2.033  31.011   1.336
12401W        W84072  38.555  24.503  13.084
12402W        W84073  31.086  35.455  13.294
12403W        W84074  44.238  44.462   4.673
12404W        W84075  15.290  17.263   4.270
12405W        W84076  35.280   3.770  14.361
12406W        W84077  36.609   6.048   2.539
12407W        W84078  25.624  42.977  14.349
12408W        W84079  10.783  18.857  10.919
12409W        W84080  37.183  14.387   0.760
12410W        W84081  17.137  21.726   3.416
12411W        W84082  10.305  14.850  10.210
12412W        W84083  36.833   5.940  12.487
12413W        W84084  13.739   7.771  11.647
12414W        W84085   7.897  40.473   2.368
12415W        W84086  38.015  26.437   4.634
12416W        W84087  21.607   3.875   4.203
12417W        W84088  38.353  31.946  10.691
12418W        W84089  21.169   2.956  11.803
12419W        W84090  42.432  35.159   3.117
12420W        W84091   8.019  25.137   0.287
12421W        W84092  35.530  39.936  12.951
12422W        W84093  17.070  12.147  11.593
12423W        W84094  25.050  43.847   0.892
12424W        W84095  27.366  11.478   0.192
12425W        W84096   7.421  42.269  12.916
12426W        W84097  13.345  34.428  10.697
12427W        W84098  38.934  17.327   2.093
12428W        W84099  19.809  22.322   0.228
12429W        W84100   9.619  38.774   3.241
12430W        W84101  33.145   9.397  12.127
12431W        W84102   3.796  18.282   2.283
12432W        W84103   6.780  29.461  14.898
12433W        W84104  26.178  26.524   4.882
12434W        W84105  35.799  28.462  14.932
12435W        W84106   3.642   4.723  10.795
12436W        W84107  43.443  28.595   3.648
12437W        W84108   9.633  26.295   3.694
12438W        W84109  41.083   7.669   2.188
12439W        W84110  20.140  26.424   0.387
12440W        W84111   0.678  42.381  11.497
12441W        W84112   4.758  21.585   2.075
12442W        W84113  31.632  27.828   0.404
12443W        W84114  33.652  44.564  11.193
12444W        W84115  21.578  26.416  12.954
12445W        W84116  15.089  25.135  10.451
12446W        W84117  12.643  44.901  14.075
12447W        W84118  16.322  29.144  13.882
12448W        W84119  40.816  37.841  13.656
12449W        W84120  28.047   1.322   3.097
12450W        W84121   0.965  10.511  10.342
12451W        W84122  25.724  27.281   4.033
12452W        W84123  11.610  14.996  11.678
12453W        W84124   5.944  26.335  11.228
12454W        W84125  14.749   7.981  13.892
12455W        W84126  22.569  17.958   4.921
12456W        W84127  26.993  41.947   3.247
12457W        W84128  23.127  15.148   3.453
12458W        W84129  38.904   3.355  12.886
12459W        W84130   6.947  18.677   4.263
12460W        W84131   5.429  22.525   4.681
12461W        W84132  19.336  28.478   2.274
12462W        W84133  30.138   1.778  13.444
12463W        W84134   9.256  31.548  10.941
12464W        W84135   3.511  36.531   2.755
12465W        W84136   3.801  26.561   0.695
12466W        W84137   1.277  26.744  11.210
12467W        W84138  25.938  38.613  13.365
12468W        W84139  22.136  12.557  11.023
12469W        W84140  11.421  24.166  13.519
12470W        W84141   0.011  27.630  12.035
12471W        W84142  23.467  32.085   1.373
12472W        W84143  36.705  32.634  14.772
12473W        W84144  30.971  37.391  12.143
12474W        W84145  30.180  19.287   2.340
12475W        W84146   1.426  30.671  14.436
12476W        W84147  40.875  34.620  12.544
12477W        W84148  31.562  36.820  12.848
12478W        W84149  10.829  13.579  13.811
12479W        W84150   5.830  13.336  14.918
12480W        W84151   9.818  16.133  10.956
12481W        W84152  18.313  23.045   4.216
12482W        W84153  22.140  30.963  12.504
12483W        W84154  43.527  20.007  12.463
12484W        W84155  17.703  19.207   1.370
12485W        W84156   2.427   6.436   2.740
12486W        W84157  26.172  14.377   1.514
12487W        W84158   6.646  27.289  14.985
12488W        W84159  30.192  16.811  12.033
12489W        W84160  40.726  33.120  11.484
12490W        W84161  41.306  29.922   3.792
12491W        W84162  34.997  22.562   1.413
12492W        W84163   3.843  21.547  13.934
12493W        W84164  43.423  41.398   4.533
12494W        W84165  39.999  38.319  14.826
12495W        W84166  13.322  40.489  12.366
12496W        W84167   3.144  24.932   1.301
12497W        W84168   1.850  32.450   4.510
12498W        W84169  21.549  34.932  12.511
12499W        W84170  43.083  21.226  13.027
12500W        W84171  33.406   6.391   0.376
12501W        W84172  43.825  38.775  13.753
12502W        W84173  44.014  11.730  10.210
12503W        W84174  34.822   6.888   4.107
12504W        W84175  10.803  10.292   3.960
12505W        W84176  31.053  38.554  11.541
12506W        W84177   4.728   5.441  10.782
12507W        W84178   7.633  20.588   4.441
12508W        W84179  20.024   8.314  13.875
12509W        W84180  37.598  37.104   0.478
12510W        W84181  26.676   6.461   3.540
12511W        W84182  11.739  39.058   4.231
12512W        W84183  24.564  27.520  13.711
12513W        W84184   5.570  24.740  14.079
12514W        W84185  13.544  27.398  11.204
12515W        W84186  29.726  32.502  14.984
12516W        W84187   4.288  16.075   2.221
12517W        W84188  11.718  31.607   2.253
12518W        W84189   3.695   9.642   2.207
12519W        W84190  28.068  41.054  14.838
12520W        W84191   8.696   5.648  11.415
12521W        W84192   2.696   9.098  12.000
12522W        W84193   7.158  27.602  12.307
12523W        W84194  36.905  11.879   0.424
12524W        W84195  12.525   4.294  13.412
12525W        W84196  32.364  36.991   2.684
12526W        W84197  11.233   9.343   2.248
12527W        W84198  41.757  32.092   2.863
12528W        W84199  40.430  33.694   2.729
12529W        W84200  35.002  32.376   1.911
12530W        W84201   8.830   9.379  14.208
12531W        W84202   7.224   9.927  12.787
12532W        W84203  14.796  41.566  11.988
12533W        W84204   0.204  32.431   2.647
12534W        W84205  18.749  17.988   2.311
12535W        W84206  32.141  25.273  10.621
12536W        W84207   9.316  29.851  11.224
12537W        W84208  34.847   6.608  11.162
12538W        W84209   1.429  20.207  10.197
12539W        W84210  14.763   3.811  13.078
12540W        W84211  20.563   2.836   2.806
12541W        W84212   0.886  19.621  10.188
12542W        W84213  24.435  40.842  12.540
12543W        W84214  19.931   6.187   0.488
12544W        W84215  24.644  20.830  14.320
12545W        W84216  19.784  21.539   3.481
12546W        W84217  16.912  11.450  10.733
12547W        W84218  14.660  22.611   4.028
12548W        W84219  22.606   5.416  14.697
12549W        W84220  11.431  32.664   0.785
12550W        W84221   1.456  12.716  12.550
12551W        W84222   5.898  22.012   3.280
12552W        W84223  23.330   1.213   3.174
12553W        W84224  25.115  24.438  13.073
12554W        W84225  40.257  27.959  13.299
12555W        W84226  19.820  13.083  14.335
12556W        W84227   7.471  43.606   1.348
12557W        W84228  31.611  35.230  10.788
12558W        W84229  24.513  10.234   4.689
12559W        W84230  15.779   5.298   2.719
12560W        W84231  23.283  41.480   0.199
12561W        W84232  15.199  30.111  14.513
12562W        W84233  21.735  23.505   2.258
12563W        W84234  20.110  18.700   4.601
12564W        W84235  30.296  15.655   1.926
12565W        W84236  20.501  10.903  11.596
12566W        W84237   1.725  25.736  13.554
12567W        W84238  22.743  13.691   2.413
12568W        W84239   9.628  22.319  12.067
12569W        W84240  37.885   0.351   0.958
12570W        W84241   4.721  13.005   2.876
12571W        W84242  14.827  35.920   1.500
12572W        W84243  34.661  27.035  14.368
12573W        W84244  40.388   6.850  10.603
12574W        W84245  33.900  15.168  14.856
12575W        W84246  41.032  37.787  11.511
12576W        W84247  18.647  17.825   3.373
12577W        W84248  31.886  44.770   4.256
12578W        W84249   5.351  30.247   3.472
12579W        W84250  16.804   6.135  11.128
12580W        W84251  30.467  18.653   2.746
12581W        W84252  14.334  38.569   2.894
12582W        W84253  18.743  16.316  12.335
12583W        W84254  25.540  15.317  12.977
12584W        W84255   9.084  26.234   0.799
12585W        W84256  38.468  25.541  14.096
12586W        W84257  37.427  38.841  11.536
12587W        W84258   5.412  32.905   4.271
12588W        W84259  33.470  24.580  10.280
12589W        W84260   6.862  17.720   1.646
12590W        W84261  35.233  10.903   1.374
12591W        W84262  39.503   2.995   2.360
12592W        W84263  13.630  20.691   4.665
12593W        W84264  39.662  31.157  11.531
12594W        W84265   9.834  44.060   4.545
12595W        W84266  38.597  24.936  11.920
12596W        W84267  24.063  17.059  11.502
12597W        W84268  36.388  13.202   4.859
12598W        W84269  25.274  32.552  11.990
12599W        W84270  21.530   5.351   0.830
12600W        W84271   9.907  25.686  12.115
12601W        W84272   7.649  14.135   2.292
12602W        W84273  19.383  13.723  12.799
12603W        W84274  22.069  26.596  14.115
12604W        W84275  44.512  22.789   4.759
12605W        W84276  28.578  31.209   3.216
12606W        W84277  39.033  35.399  10.775
12607W        W84278  41.895   3.827  14.141
12608W        W84279  28.610   4.840  11.558
12609W        W84280  43.458  22.189   4.725
12610W        W84281  44.317  41.851   4.356
12611W        W84282  33.144  12.073   2.128
12612W        W84283  18.242  15.754  14.912
12613W        W84284   2.209  37.871  14.325
12614W        W84285  14.044   4.692   0.382
12615W        W84286   6.743  12.995   1.153
12616W        W84287  17.339  21.623   0.912
12617W        W84288  19.169  34.669   2.197
12618W        W84289  10.247   3.397   3.221
12619W        W84290  43.045   1.939   2.762
12620W        W84291   9.511  11.334   2.172
12621W        W84292  10.186  34.129  12.587
12622W        W84293  43.923  27.514   4.476
12623W        W84294  34.553  40.823   0.276
12624W        W84295  21.477  23.208   4.200
12625W        W84296  22.297  30.127  14.106
12626W        W84297   8.895   5.854  12.339
12627W        W84298   7.665  38.578  11.529
12628W        W84299  12.375  27.377   1.405
12629W        W84300  37.998  29.663  12.909
12630W        W84301   2.709   7.967  12.656
12631W        W84302  14.728  39.791   1.462
12632W        W84303  44.392   2.229  10.728
12633W        W84304  18.694  13.853   3.097
12634W        W84305   5.585  35.653  11.288
12635W        W84306  20.573  23.791  12.516
12636W        W84307   2.721   9.272  13.951
12637W        W84308  16.708   6.678   3.992
12638W        W84309  24.830   7.129   4.197
12639W        W84310   2.312  12.708   4.070
12640W        W84311  33.430  11.496   4.851
12641W        W84312  44.824  13.693   9.664
12642W        W84313  44.351  12.273   0.692
12643W        W84314  21.657  44.961   2.573
12644W        W84315   4.974  25.683   2.791
12645W        W84316  23.104   2.580   3.207
12646W        W84317  39.536  16.669   0.409
12647W        W84318  27.174  31.646   1.536
12648W        W84319   2.856   4.896   2.526
12649W        W84320  38.850  30.650   0.430
12650W        W84321  43.040  26.495  14.519
12651W        W84322  36.963  21.333   2.446
12652W        W84323   3.092  26.520   4.667
12653W        W84324  22.246  42.777   1.165
12654W        W84325   6.235   8.729   0.418
12655W        W84326  30.075  44.516   4.636
12656W        W84327  23.098  40.553   3.830
12657W        W84328  12.144  36.307  11.896
12658W        W84329   6.253  42.949  14.425
12659W        W84330  22.767  27.584  12.015
12660W        W84331  26.435   5.282  13.325
12661W        W84332   0.015  17.450   4.217
12662W        W84333   7.379  15.094   0.396
12663W        W84334  11.216   9.408  11.139
12664W        W84335  39.858  40.790   3.247
12665W        W84336  23.909  14.633  12.388
12666W        W84337  15.153  43.481  12.932
12667W        W84338  37.336   9.754   0.713
12668W        W84339  38.019  17.200  12.963
12669W        W84340  19.738  41.372   0.997
12670W        W84341   5.342  30.397   4.282
12671W        W84342  20.708   2.922  12.482
12672W        W84343   2.263  38.376   1.903
12673W        W84344   0.769  34.999  14.027
12674W        W84345  23.672   5.799   2.425
12675W        W84346  35.410  38.001  14.439
12676W        W84347  17.998  42.945   4.926
12677W        W84348  22.667   8.763  13.331
12678W        W84349  40.976   7.196   1.958
12679W        W84350  25.247  34.445  11.938
12680W        W84351  20.107   7.201   2.269
12681W        W84352  28.293  40.110  13.433
12682W        W84353  38.017  13.500   1.287
12683W        W84354  28.078  12.850  13.902
12684W        W84355  33.041  21.784   4.092
12685W        W84356  29.598  12.003  11.902
12686W        W84357  43.947   2.484   2.237
12687W        W84358  10.628  20.633   3.324
12688W        W84359   9.388  18.240   0.793
12689W        W84360  38.829  37.946   1.291
12690W        W84361  42.352  30.945  14.942
12691W        W84362  36.848  29.847   3.324
12692W        W84363  36.552  44.551  13.746
12693W        W84364  27.280  41.325  12.200
12694W        W84365  25.448   1.462   0.723
12695W        W84366  24.923   4.224  12.503
12696W        W84367  13.347  13.687   4.127
12697W        W84368   0.852  31.042  13.639
12698W        W84369  43.932   1.894  12.076
12699W        W84370  28.154  30.875   0.006
12700W        W84371  43.059  28.302   0.558
12701W        W84372  22.952   3.973   3.200
12702W        W84373  19.243  16.045   3.248
12703W        W84374  41.548  39.971   2.091
12704W        W84375  11.238  39.102  13.371
12705W        W84376   0.679   7.788   4.207
12706W        W84377   3.857  10.011   2.984
12707W        W84378  26.256  30.585   0.939
12708W        W84379  28.842  19.218  12.085
12709W        W84380  15.174  17.990  14.986
12710W        W84381  44.714  19.300  14.923
12711W        W84382  20.728  10.867   3.699
12712W        W84383  11.707   4.389   3.024
12713W        W84384  16.793   0.931   1.506
12714W        W84385  26.022   3.832  14.006
12715W        W84386  27.681  35.026  11.116
12716W        W84387  30.453  10.382   1.967
12717W        W84388  32.193  11.640  10.673
12718W        W84389  17.396   7.359   3.606
12719W        W84390  26.424  24.835  10.679
12720W        W84391  40.408  44.398  10.849
12721W        W84392   5.380  21.638  12.044
12722W        W84393  42.812   4.464   2.385
12723W        W84394   9.791  17.325   4.743
12724W        W84395  13.899   3.447   0.742
12725W        W84396  31.574  34.359   1.671
12726W        W84397  26.180   3.975  10.719
12727W        W84398  19.144  17.603  13.543
12728W        W84399  20.650  11.765  12.001
12729W        W84400   2.754  15.822  12.044
12730W        W84401  23.687  40.483  10.174
12731W        W84402  28.982  39.400   3.789
12732W        W84403  11.250  11.745  14.359
12733W        W84404  30.514  29.965  14.264
12734W        W84405  23.817  15.461   0.912
12735W        W84406  26.675  42.440   5.147
12736W        W84407  11.140   1.215  14.905
12737W        W84408  17.739  28.196  13.409
12738W        W84409  29.362  26.218  13.789
12739W        W84410  13.622  12.633   4.871
12740W        W84411  32.831  42.338   3.662
12741W        W84412  11.041  11.171   1.989
12742W        W84413  37.758  25.826  12.638
12743W        W84414  19.653  44.157  14.237
12744W        W84415  12.227  27.604   1.857
12745W        W84416   3.118  40.505   2.237
12746W        W84417  16.832  16.812   4.200
12747W        W84418  24.487  26.895   4.553
12748W        W84419  42.958  39.433  14.413
12749W        W84420  16.099  39.899  12.260
12750W        W84421   9.437  43.256  13.938
12751W        W84422  12.897  38.794  11.186
12752W        W84423   5.908  17.565  12.577
12753W        W84424  10.877  31.014  11.198
12754W        W84425  11.137   3.733   2.388
12755W        W84426  18.764  12.646  14.301
12756W        W84427  17.230  36.373  11.473
12757W        W84428   3.082   7.475   4.207
12758W        W84429   6.726  42.859  12.093
12759W        W84430   9.656  42.005   1.772
12760W        W84431  37.615  32.182  13.308
12761W        W84432  36.555  15.723   1.468
12762W        W84433  23.618  22.955  11.292
12763W        W84434  37.421  28.369   2.822
12764W        W84435  17.223  20.758   0.059
12765W        W84436   6.678   2.699  14.535
12766W        W84437  30.890  39.899   4.619
12767W        W84438  30.893  44.691  13.502
12768W        W84439   8.355  26.591  11.100
12769W        W84440  20.812   9.440   1.751
12770W        W84441  23.668  10.677  12.320
12771W        W84442   9.270  21.058   3.861
12772W        W84443  20.285   2.373  11.139
12773W        W84444  17.986   5.837  14.447
12774W        W84445  29.098  39.171  10.583
12775W        W84446  13.355  31.655  13.723
12776W        W84447  36.958  26.711  11.977
12777W        W84448  34.079  16.745   0.001
12778W        W84449  33.569  15.101  10.867
12779W        W84450  35.544  12.295  10.694
12780W        W84451  34.157  44.343   4.355
12781W        W84452  32.494  19.180  14.077
12782W        W84453   2.486  30.431   2.409
12783W        W84454  23.267   0.730  12.043
12784W        W84455   3.996   8.495  13.536
12785W        W84456  41.014  22.196  11.204
12786W        W84457   6.877  32.053   0.882
12787W        W84458  38.253  44.444  14.463
12788W        W84459  31.883  43.267  12.513
12789W        W84460  15.071  34.692   3.976
12790W        W84461   7.942   6.652  12.481
12791W        W84462   6.707  14.502   1.613
12792W        W84463  40.449  19.272  11.034
12793W        W84464  40.367  18.270  13.919
12794W        W84465  43.209  35.306   2.680
12795W        W84466  39.037  36.498   2.178
12796W        W84467  35.313  33.154  13.983
12797W        W84468  20.290  33.452  13.490
12798W        W84469  14.977   6.598  10.739
12799W        W84470  38.945  10.698  12.777
12800W        W84471  25.530  33.149  12.381
12801W        W84472  26.121   1.285  10.898
12802W        W84473  19.131  11.230   0.048
12803W        W84474  38.909  36.870   2.921
12804W        W84475  10.773  11.374  13.311
12805W        W84476  17.176  24.723   3.682
12806W        W84477  13.292  20.563   4.306
12807W        W84478  11.012  31.197   0.816
12808W        W84479  13.882  26.647  10.744
12809W        W84480  20.227  15.217  14.875
12810W        W84481  32.566   4.682  14.344
12811W        W84482  33.145  14.782   0.260
12812W        W84483  24.632  30.020  12.526
12813W        W84484  11.390  24.333   4.160
12814W        W84485  34.560  33.868   4.171
12815W        W84486  43.240   1.330   2.116
12816W        W84487   7.896   5.872  14.078
12817W        W84488   7.675  28.156   2.817
12818W        W84489  22.503  41.382   1.754
12819W        W84490  15.238   5.730   1.443
12820W        W84491  24.506  12.999   2.400
12821W        W84492  28.137  13.639  11.955
12822W        W84493   3.946  25.185   1.847
12823W        W84494  44.283   4.766  10.724
12824W        W84495   9.287  23.803  10.427
12825W        W84496  28.061  22.214   0.299
12826W        W84497  35.015  42.504  11.753
12827W        W84498  43.476   4.467   2.815
12828W        W84499   5.726   6.677  14.829
12829W        W84500  39.924   9.722  12.459
12830W        W84501  11.072  41.832  12.894
12831W        W84502  12.925  23.079  11.933
12832W        W84503   3.737  23.617  11.557
12833W        W84504  30.624   0.199  14.927
12834W        W84505  22.556  18.830   1.789
12835W        W84506  31.552   9.603  13.965
12836W        W84507  29.058  30.484  10.582
12837W        W84508  43.727  28.438   4.463
12838W        W84509  37.646  42.283  14.718
12839W        W84510  27.193  33.017  11.363
12840W        W84511  42.215  27.744   2.888
12841W        W84512  11.688  10.951  13.928
12842W        W84513  29.908   0.468   0.152
12843W        W84514  38.704   5.320   2.177
12844W        W84515   5.972  35.237   5.100
12845W        W84516  10.700  11.226  13.913
12846W        W84517  40.970  16.757  12.038
12847W        W84518  33.094  28.468   3.167
12848W        W84519  42.943  41.949   0.802
12849W        W84520  13.108  31.589   4.062
12850W        W84521  40.842  23.449  14.042
12851W        W84522   3.008  27.089   0.366
12852W        W84523  28.667  41.357   2.222
12853W        W84524  41.478  14.445  10.765
12854W        W84525  31.008  15.916   1.294
12855W        W84526  10.203  27.945  11.242
12856W        W84527  36.839  43.709   4.075
12857W        W84528  30.373  12.190   2.180
12858W        W84529  29.226   4.018  11.063
12859W        W84530  22.640   1.579  12.363
12860W        W84531   3.021  31.127  13.682
12861W        W84532  26.250   0.365   1.865
12862W        W84533  43.866   1.015  13.078
12863W        W84534  42.261  16.257   1.290
12864W        W84535  10.348  18.342  14.958
12865W        W84536  20.558  25.893  14.932
12866W        W84537  36.332  10.610   1.104
12867W        W84538  23.228  33.378   2.820
12868W        W84539  23.532  38.257   5.048
12869W        W84540  25.925  17.162   3.216
12870W        W84541  44.425  35.970  11.365
12871W        W84542  29.365  16.667   0.273
12872W        W84543   3.217  39.487   4.685
12873W        W84544  14.118  37.030   3.752
12874W        W84545  38.767  43.782   1.800
12875W        W84546   1.138  35.867  12.455
12876W        W84547  39.533   7.901   3.789
12877W        W84548  18.726  16.098  12.820
12878W        W84549  23.238   7.934  12.816
12879W        W84550   9.642   4.665  10.737
12880W        W84551  35.827  32.146   1.766
12881W        W84552  38.370  43.760   3.169
12882W        W84553  44.284  39.414  12.341
12883W        W84554   8.295  29.008   4.614
12884W        W84555   3.961  10.093   4.616
12885W        W84556  16.358  42.319  13.327
12886W        W84557  16.922  12.579  14.895
12887W        W84558  27.555  16.367  11.753
12888W        W84559   6.368  26.613  10.424
12889W        W84560  29.599  38.350  11.479
12890W        W84561   3.896   9.651   4.315
12891W        W84562  20.827  24.656   3.055
12892W        W84563  14.667  42.968   0.834
12893W        W84564  35.786  28.504  11.206
12894W        W84565  14.696  34.927  13.286
12895W        W84566  18.297  33.445  14.895
12896W        W84567   8.207   0.909  11.234
12897W        W84568  24.020  36.698   2.378
12898W        W84569  42.969  33.607   0.057
12899W        W84570   0.929   2.835   4.208
12900W        W84571   4.681   6.091   4.058
12901W        W84572  23.067   0.837   1.748
12902W        W84573  28.523  13.528  13.597
12903W        W84574  21.476  29.454   1.394
12904W        W84575  32.470  13.881  10.727
12905W        W84576  35.390  28.569  13.101
12906W        W84577   5.334  11.435   1.014
12907W        W84578  24.498  30.887  14.895
12908W        W84579  18.415  14.868   5.418
12909W        W84580   2.398  28.683  14.389
12910W        W84581  24.766  35.125  12.578
12911W        W84582   4.357   7.124  11.822
12912W        W84583  27.296   1.846  11.115
12913W        W84584  11.058  40.255   3.762
12914W        W84585  22.056  19.329   0.966
12915W        W84586   5.121  17.090  11.658
12916W        W84587  18.042  21.416   3.373
12917W        W84588  21.516  20.475  14.512
12918W        W84589   7.703  28.487   4.857
12919W        W84590  10.924   8.153   4.027
12920W        W84591  27.900  18.773   2.871
12921W        W84592   7.994   4.310  12.362
12922W        W84593  27.958   9.919  14.338
12923W        W84594   5.237  38.669  14.046
12924W        W84595   5.820  10.226   1.414
12925W        W84596  15.239  17.790   3.540
12926W        W84597   8.368   4.754   0.793
12927W        W84598   1.829  38.429  11.736
12928W        W84599  33.528  18.556  12.966
12929W        W84600  32.731  43.815   4.838
12930W        W84601  16.437  41.986  12.125
12931W        W84602  21.671  30.403  12.910
12932W        W84603  22.994  18.657  12.347
12933W        W84604  26.531   6.902   5.017
12934W        W84605  31.008  44.987   0.783
12935W        W84606  37.361  25.278   4.208
12936W        W84607  12.857  14.637   4.035
12937W        W84608  12.903  26.023  13.463
12938W        W84609  24.676   1.310   2.810
12939W        W84610  42.242   4.841  13.532
12940W        W84611  31.958  37.114   1.773
12941W        W84612  24.918  35.437   3.313
12942W        W84613  13.311  25.027   4.643
12943W        W84614   0.997  21.719   1.395
12944W        W84615  35.789  37.683  10.179
12945W        W84616  33.218  21.461  11.663
12946W        W84617  32.321   7.673   3.154
12947W        W84618  32.663  14.520  12.143
12948W        W84619   2.459  43.927   1.232
12949W        W84620   5.706  12.471   4.150
12950W        W84621  12.927   5.967  11.057
12951W        W84622  21.089  37.942  11.443
12952W        W84623  39.477  17.793  12.741
12953W        W84624  20.061  31.607  12.616
12954W        W84625  37.190  23.626   4.126
12955W        W84626  38.861  42.891   1.987
12956W        W84627   0.498  13.351   1.769
12957W        W84628  19.638  42.018   2.245
12958W        W84629   7.084  31.587   2.561
12959W        W84630  20.348  28.085   1.744
12960W        W84631  28.614  29.406  12.476
12961W        W84632  34.492   7.916   3.623
12962W        W84633  28.102  26.222   2.673
12963W        W84634  11.849   3.499  11.891
12964W        W84635  15.980  35.624  13.074
12965W        W84636   9.620  32.490  10.684
12966W        W84637  40.785  28.172   2.668
12967W        W84638  18.062  26.764  11.524
12968W        W84639  17.441   6.246  13.006
12969W        W84640  42.974  14.674   0.438
12970W        W84641   0.328  37.348   3.712
12971W        W84642   6.346  25.055   5.049
12972W        W84643  14.715  32.192   4.481
12973W        W84644  11.299  44.824   4.333
12974W        W84645  14.076  31.583  11.559
12975W        W84646  38.377  15.234  13.521
12976W        W84647  13.862  18.873   1.077
12977W        W84648  23.238  15.971  11.887
12978W        W84649   7.401  42.974   4.543
12979W        W84650  14.981   6.972   4.965
12980W        W84651  22.694  36.558  10.763
12981W        W84652  36.602  28.543   3.225
12982W        W84653  17.347  18.066  12.669
12983W        W84654   0.990  22.531   3.352
12984W        W84655  12.895   0.970   4.614
12985W        W84656  17.537  18.281   1.165
12986W        W84657  33.450  41.886  11.722
12987W        W84658  32.915   7.734  12.736
12988W        W84659   3.392   1.943  13.533
12989W        W84660  14.426  25.528  13.056
12990W        W84661  11.128   1.736  14.870
12991W        W84662   1.627  22.093   2.310
12992W        W84663  42.827  21.566   1.967
12993W        W84664  12.305  41.415   2.005
12994W        W84665  17.802  42.979   2.245
12995W        W84666  29.587  34.341   2.859
12996W        W84667   4.238  13.298  10.903
12997W        W84668  10.156  37.993  13.359
12998W        W84669  20.342  35.909   5.150
12999W        W84670  25.882  25.332  11.732
13000W        W84671   2.999  23.604  13.889
13001W        W84672   0.531  34.067  14.543
13002W        W84673   1.749  40.483  11.738
13003W        W84674  12.697   3.273   1.459
13004W        W84675  20.476   7.845  11.091
13005W        W84676   7.593  31.106   2.883
13006W        W84677  35.431  39.577   2.633
13007W        W84678  36.519  43.345   2.740
13008W        W84679  19.733  43.692   0.077
13009W        W84680   1.672  32.974  14.862
13010W        W84681  41.737  35.514   0.433
13011W        W84682  23.501  42.858   1.711
13012W        W84683  14.263  12.617   2.211
13013W        W84684   6.622   6.668  14.801
13014W        W84685   6.928  44.717   4.209
13015W        W84686   1.962  35.058  13.510
13016W        W84687  23.905   5.128  13.817
13017W        W84688  30.016  24.335   4.447
13018W        W84689   4.910  14.143  11.553
13019W        W84690  43.383   4.808  11.603
13020W        W84691  27.286   3.181  12.982
13021W        W84692  29.008   1.370  14.745
13022W        W84693  29.828  11.908  10.480
13023W        W84694  44.816  11.294  10.646
13024W        W84695  43.720  17.200   0.792
13025W        W84696  28.173  37.455  10.614
13026W        W84697  15.053  13.775   4.898
13027W        W84698  31.839  11.915   1.818
13028W        W84699   2.327   9.130   1.416
13029W        W84700   6.702  35.356   1.215
13030W        W84701  24.621  35.576   0.288
13031W        W84702  29.991  34.600   4.835
13032W        W84703  23.431  24.842   1.561
13033W        W84704  25.009  35.807  11.783
13034W        W84705  41.601  18.562   4.342
13035W        W84706  22.532  30.551  12.266
13036W        W84707  35.056  41.901  13.947
13037W        W84708   6.841  19.173   4.515
13038W        W84709  21.201   0.044  14.942
13039W        W84710  11.884  11.091  12.963
13040W        W84711   0.677  32.228   2.597
13041W        W84712  18.512  28.566   1.732
13042W        W84713  26.575   2.494   2.338
13043W        W84714   7.386  20.229   1.835
13044W        W84715   3.922  12.867   3.869
13045W        W84716  36.603  18.467  13.462
13046W        W84717  26.732  10.726   2.450
13047W        W84718  10.374  17.249   4.138
13048W        W84719  11.048  32.978  11.929
13049W        W84720   7.296   9.439  11.059
13050W        W84721  27.518  42.947   3.246
13051W        W84722   1.765   3.408   2.986
13052W        W84723  14.117  34.924  11.484
13053W        W84724   9.015  35.969  11.689
13054W        W84725  17.063  11.683  12.966
13055W        W84726  26.147  20.183   2.094
13056W        W84727   5.805  34.391  14.492
13057W        W84728  31.097  24.995   0.332
13058W        W84729  21.994  29.988  12.776
13059W        W84730  32.815  24.606   3.154
13060W        W84731  30.496  15.850  10.553
13061W        W84732   8.087  40.563   4.284
13062W        W84733  10.182  37.833   2.780
13063W        W84734  39.743   2.725   0.891
13064W        W84735   0.761  10.820  14.992
13065W        W84736  41.055  29.996   3.361
13066W        W84737  30.462   4.454   2.140
13067W        W84738  21.323  31.400  10.270
13068W        W84739  43.178  11.636  14.088
13069W        W84740  24.290  32.908   0.822
13070W        W84741  31.880  21.618  13.487
13071W        W84742  27.403   1.615  11.619
13072W        W84743  42.689   7.632   4.117
13073W        W84744   4.148  36.093  14.800
13074W        W84745  28.617  25.953  10.400
13075W        W84746   2.013  28.713  12.251
13076W        W84747  14.783  28.934   2.482
13077W        W84748  37.647  44.792  12.997
13078W        W84749   1.314  28.548  11.072
13079W        W84750  24.354  16.841   3.570
13080W        W84751  41.505  39.061  14.861
13081W        W84752   4.649   0.656   2.768
13082W        W84753  17.214  20.788   3.164
13083W        W84754  27.449  11.870   0.828
13084W        W84755  16.254  14.260   0.332
13085W        W84756  22.089   9.416   0.472
13086W        W84757  38.996  28.549  14.452
13087W        W84758   3.337  41.907  13.503
13088W        W84759  15.601   2.401   4.331
13089W        W84760  24.483  10.324  10.680
13090W        W84761  26.630  21.700   0.353
13091W        W84762   3.734   5.905  10.823
13092W        W84763   6.739   2.945   1.450
13093W        W84764   7.086  23.155  12.550
13094W        W84765  13.028   4.455   1.906
13095W        W84766  12.538  42.140   2.895
13096W        W84767   0.801  18.738   0.274
13097W        W84768   0.758   5.622  12.133
13098W        W84769  18.671  42.385  13.319
13099W        W84770  35.093  17.868   2.206
13100W        W84771  43.161  20.938  14.459
13101W        W84772   5.786  35.383   0.321
13102W        W84773  33.305  30.038  10.667
13103W        W84774  37.572   3.844  13.879
13104W        W84775   1.702  17.169  14.285
13105W        W84776  33.219  11.953  11.136
13106W        W84777   0.335  28.219  12.884
13107W        W84778  34.519  30.411  12.195
13108W        W84779  24.948  25.714   2.617
13109W        W84780  37.042  31.920  14.865
13110W        W84781   2.995  22.255   1.263
13111W        W84782  41.943  40.772  13.254
13112W        W84783  37.346  32.329   4.125
13113W        W84784  30.906  40.971   1.949
13114W        W84785  10.883  23.063  11.018
13115W        W84786  19.860   7.411  13.771
13116W        W84787  41.092  11.130  11.056
13117W        W84788  38.112  22.628  12.479
13118W        W84789  20.094   2.225   4.886
13119W        W84790  10.907  26.964   2.525
13120W        W84791  13.210  41.790   3.000
13121W        W84792  34.111  14.130   0.054
13122W        W84793  18.252  33.907   4.797
13123W        W84794  42.895  16.105   4.706
13124W        W84795  29.569  39.853  12.508
13125W        W84796  21.770  43.999   2.780
13126W        W84797  25.679  42.367  12.771
13127W        W84798  32.170  10.795   0.380
13128W        W84799  20.696  31.390  13.828
13129W        W84800  23.580  15.409  12.607
13130W        W84801  44.331  29.508  10.195
13131W        W84802  16.348  22.208   0.422
13132W        W84803  18.764  18.755  14.238
13133W        W84804   2.998   3.986  12.629
13134W        W84805   5.353  22.247  12.442
13135W        W84806  30.826  30.582  11.586
13136W        W84807  23.211  43.316   2.902
13137W        W84808  23.232  33.628  12.496
13138W        W84809  11.373   0.326  12.432
13139W        W84810   8.684  28.191  13.127
13140W        W84811  39.457   1.489   0.782
13141W        W84812  17.553   9.823  11.650
13142W        W84813  35.951  10.892   1.407
13143W        W84814  43.940   8.371   2.710
13144W        W84815  39.979  21.923   4.125
13145W        W84816  11.378  36.945   3.153
13146W        W84817  37.979  11.887  11.018
13147W        W84818  42.440   2.497   2.357
13148W        W84819  14.061  14.084  14.656
13149W        W84820  17.138  41.512  14.893
13150W        W84821  15.393  15.685  11.345
13151W        W84822  20.010  23.329   4.308
13152W        W84823  44.046   7.424  10.373
13153W        W84824  12.596  21.127   1.460
13154W        W84825  30.456  44.757   3.721
13155W        W84826   7.154   3.151  13.514
13156W        W84827  23.147  21.064   1.507
13157W        W84828  34.320  14.287  11.067
13158W        W84829  22.045   5.334   0.414
13159W        W84830  14.265   1.413   4.824
13160W        W84831   6.370  30.045   3.656
13161W        W84832  44.343  35.342   1.745
13162W        W84833   3.461  32.620   4.140
13163W        W84834  25.423  43.161   2.642
13164W        W84835  10.235   1.203   2.708
13165W        W84836   3.836  28.586  11.734
13166W        W84837  23.631  37.836  13.303
13167W        W84838  18.127  33.928  14.485
13168W        W84839  15.612  35.923   1.193
13169W        W84840  13.673  34.020  12.490
13170W        W84841  14.955  34.391   0.297
13171W        W84842  27.573  44.694   0.903
13172W        W84843  21.006  22.729  12.078
13173W        W84844  12.710  33.321   1.362
13174W        W84845  31.148  34.825   0.839
13175W        W84846  40.518  26.887  11.566
13176W        W84847  32.168  12.307   0.389
13177W        W84848  29.540   8.282   0.955
13178W        W84849  11.116   8.734  14.297
13179W        W84850  32.400  24.720   3.633
13180W        W84851  24.736   6.227  13.030
13181W        W84852  31.137  13.391  11.854
13182W        W84853  28.223  20.628  12.608
13183W        W84854  24.615   9.747  13.885
13184W        W84855   9.339  16.278  14.155
13185W        W84856  41.971  18.753   2.729
13186W        W84857  20.477  40.065   2.827
13187W        W84858  33.815  20.186  12.920
13188W        W84859  13.801  18.135   0.336
13189W        W84860  12.028   3.391  12.368
13190W        W84861  17.936   6.286   4.588
13191W        W84862  23.730  22.492   1.842
13192W        W84863   2.314  10.340   1.813
13193W        W84864  20.878  33.704   1.750
13194W        W84865  40.784  13.885  12.904
13195W        W84866  39.150  23.324   4.168
13196W        W84867  18.818  11.823   9.732
13197W        W84868  21.030  31.138   3.721
13198W        W84869  25.295  12.438  12.978
13199W        W84870  33.720  36.422  12.658
13200W        W84871   0.804  38.438   0.978
13201W        W84872   4.863  39.738   4.111
13202W        W84873  36.131  35.070  14.262
13203W        W84874  30.166   8.310  10.318
13204W        W84875   5.261  18.669   3.046
13205W        W84876  20.236  35.636  14.719
13206W        W84877  41.608  22.492   0.375
13207W        W84878  29.597  30.001   3.739
13208W        W84879  19.603   7.647  12.968
13209W        W84880  18.578  27.576  13.545
13210W        W84881  34.074  12.855  13.336
13211W        W84882  15.311  30.580   2.483
13212W        W84883  33.148  18.298  10.446
13213W        W84884  35.248  25.653  14.010
13214W        W84885   7.392  31.992   0.889
13215W        W84886  24.283  25.927   2.199
13216W        W84887  20.160  28.857  11.257
13217W        W84888  18.492  34.454  11.632
13218W        W84889  41.323  24.568  14.409
13219W        W84890  28.358  35.059   4.700
13220W        W84891  33.566  23.530   2.761
13221W        W84892  34.356   6.302  12.026
13222W        W84893  22.682  38.726  10.868
13223W        W84894  41.325  17.783   0.922
13224W        W84895   4.148  32.005  13.817
13225W        W84896  27.851  11.141  11.509
13226W        W84897  33.402  32.699  10.439
13227W        W84898  41.121   4.560  14.414
13228W        W84899  14.689  30.223  14.908
13229W        W84900  20.582  31.688   2.656
13230W        W84901  23.220  43.809   3.126
13231W        W84902  10.010  22.185   4.528
13232W        W84903  21.078  30.444  12.041
13233W        W84904  35.636   6.777   4.795
13234W        W84905  39.921   2.552  12.516
13235W        W84906  24.219   2.554   1.079
13236W        W84907   2.468  31.844  14.743
13237W        W84908  44.744   4.340   1.290
13238W        W84909  32.529  22.821   2.333
13239W        W84910  14.390   7.111  11.220
13240W        W84911  40.322   1.333  10.966
13241W        W84912  28.406  19.681   3.878
13242W        W84913   2.466  19.284   2.286
13243W        W84914  13.377  30.766  12.838
13244W        W84915   9.494   0.776  10.354
13245W        W84916  39.168  19.280   1.747
13246W        W84917  33.620  32.380  12.548
13247W        W84918  25.925  14.088   0.975
13248W        W84919  35.876  14.278   4.150
13249W        W84920  28.996  17.727   2.294
13250W        W84921   0.289  14.338   3.180
13251W        W84922   2.226  29.079   2.694
13252W        W84923  43.453  24.705   1.653
13253W        W84924   3.450   4.285   1.606
13254W        W84925  28.570  21.637  14.764
13255W        W84926   9.413  38.612  14.920
13256W        W84927  17.152  43.603   2.365
13257W        W84928  19.767  26.714  12.896
13258W        W84929  31.413   7.516   0.650
13259W        W84930  19.703  25.079   2.990
13260W        W84931   7.873   9.147   1.712
13261W        W84932  14.465  39.904  13.873
13262W        W84933  42.079  21.606   4.086
13263W        W84934  29.537  21.650   2.952
13264W        W84935  42.489  15.113  11.623
13265W        W84936  38.431  26.842  14.426
13266W        W84937  36.571  28.632   1.859
13267W        W84938  22.407  34.069   2.781
13268W        W84939  27.224  36.949  12.876
13269W        W84940   3.763  37.127  14.336
13270W        W84941  18.293   2.843   1.266
13271W        W84942  14.666  42.741  13.046
13272W        W84943  33.021  19.131  12.612
13273W        W84944  39.073  41.778   0.737
13274W        W84945  44.742  36.322   4.393
13275W        W84946   5.624  13.577  10.980
13276W        W84947  44.384   5.955  11.666
13277W        W84948  31.827   7.767   1.993
13278W        W84949  23.942  41.992   4.078
13279W        W84950  22.208  17.094  12.662
13280W        W84951  14.419  20.083   2.150
13281W        W84952  29.699  29.944   2.829
13282W        W84953  25.010   7.158   3.695
13283W        W84954  17.139  42.494  12.722
13284W        W84955   8.439   6.406  10.631
13285W        W84956  31.049  37.966   4.715
13286W        W84957  11.778  19.569  13.576
13287W        W84958   2.918   3.610   1.874
13288W        W84959  35.110  11.336   0.502
13289W        W84960   3.512  34.401   0.760
13290W        W84961   8.896  40.412   4.753
13291W        W84962   1.858  13.318  11.855
13292W        W84963  28.158  15.700  13.871
13293W        W84964  12.163  30.041  12.948
13294W        W84965  31.201  11.902  13.917
13295W        W84966  30.995  13.582   1.772
13296W        W84967  16.689  20.958  13.308
13297W        W84968  21.209  19.326   0.238
13298W        W84969  43.909  18.624   0.407
13299W        W84970  17.291  19.618   4.262
13300W        W84971  39.922  41.309   3.333
13301W        W84972  38.418  36.414   1.540
13302W        W84973  24.855  12.596   3.752
13303W        W84974  20.210  18.593   0.049
13304W        W84975   0.053  24.222  11.145
13305W        W84976  37.047  32.612   1.395
13306W        W84977  25.182  34.840  14.030
13307W        W84978  38.793  29.974  14.499
13308W        W84979  26.267   0.263  10.664
13309W        W84980  13.627  17.411  12.092
13310W        W84981  39.689   1.329   2.907
13311W        W84982   2.344  15.583   2.487
13312W        W84983  20.225  22.984   4.623
13313W        W84984  12.363  11.678   2.287
13314W        W84985  18.722   1.348  14.014
13315W        W84986  44.311  30.504  10.023
13316W        W84987  21.200  24.068  13.266
13317W        W84988  29.738  41.688   1.309
13318W        W84989   6.502  42.040   0.781
13319W        W84990  27.729  33.394   0.266
13320W        W84991  37.794  41.878  11.566
13321W        W84992  14.107   3.380  12.653
13322W        W84993  17.783  11.101  11.993
13323W        W84994  13.903  40.954  14.083
13324W        W84995  31.933  22.535   0.318
13325W        W84996  33.701  44.502  13.436
13326W        W84997   5.356  26.789   3.288
13327W        W84998  32.635  30.672  12.647
13328W        W84999  43.512   4.717   3.297
13329W        W85000  36.360   7.831  14.332
13330W        W85001  32.533  34.877   3.660
13331W        W85002  38.175  38.565  14.889
13332W        W85003  18.218   8.803   5.065
13333W        W85004   1.964   2.868   2.112
13334W        W85005  43.899  13.706   3.027
13335W        W85006  17.750  32.424   0.810
13336W        W85007  39.247  22.320   0.065
13337W        W85008   5.718  26.684   1.863
13338W        W85009  42.777  44.870   2.984
13339W        W85010  16.330  26.817  10.337
13340W        W85011   5.329  32.065  11.610
13341W        W85012  24.568  27.890  11.996
13342W        W85013  20.890  29.555   2.735
13343W        W85014  25.554  30.944  11.070
13344W        W85015  35.076  25.038   0.665
13345W        W85016  14.635  17.082   1.752
13346W        W85017  19.738  28.672   0.374
13347W        W85018   2.073  10.750   1.568
13348W        W85019  37.909  13.118   0.412
13349W        W85020   4.718  22.658   1.164
13350W        W85021  11.308  30.558   2.724
13351W        W85022  32.174  43.931   1.349
13352W        W85023  18.882  11.878   0.021
13353W        W85024  39.875   2.226  12.114
13354W        W85025  27.714  25.655  12.406
13355W        W85026  12.051  31.511   4.213
13356W        W85027  39.235  17.257   9.987
13357W        W85028  14.310  25.414   0.495
13358W        W85029  22.853  31.454   0.682
13359W        W85030  34.306   5.752   1.850
13360W        W85031   0.481  22.623   3.452
13361W        W85032  26.870   7.687   0.029
13362W        W85033  43.989  17.088  13.455
13363W        W85034  27.614  23.443   3.015
13364W        W85035  23.138  34.385   4.628
13365W        W85036  29.539  42.278  14.427
13366W        W85037  17.040   7.892  10.887
13367W        W85038  20.760  22.249   4.048
13368W        W85039  29.161  25.475   3.238
13369W        W85040   2.723  17.455  12.929
13370W        W85041  26.256  27.462  11.744
13371W        W85042  34.244  16.325   2.721
13372W        W85043  18.381   6.311   4.847
13373W        W85044  41.892   9.330   1.427
13374W        W85045   1.506  38.480  14.382
13375W        W85046  44.983  19.599   4.375
13376W        W85047  43.632  38.466   3.786
13377W        W85048  20.103  14.833  10.971
13378W        W85049  24.295  14.922   3.544
13379W        W85050  25.117  13.035   3.695
13380W        W85051  19.976   0.810   1.999
13381W        W85052  23.220  10.010   1.051
13382W        W85053  15.365  36.088  10.541
13383W        W85054   7.677  21.136   0.839
13384W        W85055  19.635   3.420   2.320
13385W        W85056  11.230  26.524   2.431
13386W        W85057  19.926  32.511   2.790
13387W        W85058   2.992  28.456  12.106
13388W        W85059  17.244  44.750  14.376
13389W        W85060  36.916  14.749  14.287
13390W        W85061  20.050  31.948   4.839
13391W        W85062   4.329  28.479  13.766
13392W        W85063   6.204  28.123   4.072
13393W        W85064  12.098   2.231   1.891
13394W        W85065  39.059  26.789  13.083
13395W        W85066  27.749   4.042  13.732
13396W        W85067  41.467   7.303  14.817
13397W        W85068  41.051  17.731   3.440
13398W        W85069  21.659  12.154   3.718
13399W        W85070  14.264   2.880  13.358
13400W        W85071  39.967  11.041   2.400
13401W        W85072  19.209  32.411  14.501
13402W        W85073  41.102  33.982   4.519
13403W        W85074   8.446  43.245   3.352
13404W        W85075  25.490  29.063  10.760
13405W        W85076  38.270  41.831  13.954
13406W        W85077  11.354  10.379   2.191
13407W        W85078  35.473  38.125  13.050
13408W        W85079   2.202  44.521   4.658
13409W        W85080   9.189  44.488   3.392
13410W        W85081  39.368  41.363   3.263
13411W        W85082  11.111  30.529  10.616
13412W        W85083  34.597  14.548  11.951
13413W        W85084  43.505  42.844  11.598
13414W        W85085  11.737  25.952  14.221
13415W        W85086  31.219  44.268  13.565
13416W        W85087  31.194  11.812  10.490
13417W        W85088  25.470  29.959   0.874
13418W        W85089  19.635  13.405   3.384
13419W        W85090  33.848  41.043   2.128
13420W        W85091  30.385  28.891  14.310
13421W        W85092  30.403  26.468  12.406
13422W        W85093  37.785  42.708  13.529
13423W        W85094  10.294  13.134  13.497
13424W        W85095   6.095  28.134  13.614
13425W        W85096  31.509  39.465  13.135
13426W        W85097  35.698  16.840  11.173
13427W        W85098   5.345   1.829  11.565
13428W        W85099  25.220  20.178   4.647
13429W        W85100  11.001  30.370   2.356
13430W        W85101   9.209  26.209   1.382
13431W        W85102  11.784  19.623   2.877
13432W        W85103  20.334  43.295   3.295
13433W        W85104  42.596  21.670   4.291
13434W        W85105  11.954   8.124   2.358
13435W        W85106  25.173  10.866  13.946
13436W        W85107  14.313   2.992   2.276
13437W        W85108  21.209  26.950   4.110
13438W        W85109  13.149  16.372  13.817
13439W        W85110  42.414  32.937  14.980
13440W        W85111   8.260  37.768   4.489
13441W        W85112   7.430   8.461  13.464
13442W        W85113  21.860  24.116  10.578
13443W        W85114   9.332   2.217  11.688
13444W        W85115  28.605   2.890   3.953
13445W        W85116   3.692  24.603  10.659
13446W        W85117  30.930  33.354   4.869
13447W        W85118  44.924  32.918  12.050
13448W        W85119  44.052   8.307   0.734
13449W        W85120   0.989  33.147   2.529
13450W        W85121   5.945  30.313  11.610
13451W        W85122  17.539  16.009   2.328
13452W        W85123  41.855  25.807   1.384
13453W        W85124  32.730   0.814  10.672
13454W        W85125  29.526  29.131  12.540
13455W        W85126  31.999  27.184   4.568
13456W        W85127  41.005  23.587  13.591
13457W        W85128  40.940  28.465   1.826
13458W        W85129  33.965  26.853   1.279
13459W        W85130  16.223   6.910   3.835
13460W        W85131   1.019  14.957   3.893
13461W        W85132  15.039  30.864  14.041
13462W        W85133  34.412   7.889   0.394
13463W        W85134  17.510  43.873  14.443
13464W        W85135  32.954  20.795  10.779
13465W        W85136  42.478   2.226  14.917
13466W        W85137  37.553   0.962   2.204
13467W        W85138  42.750   9.617   2.193
13468W        W85139  23.736  19.794   3.546
13469W        W85140   6.211  31.963   2.330
13470W        W85141  21.992  35.794   2.341
13471W        W85142  21.602  14.679   4.403
13472W        W85143  17.523  29.584  10.947
13473W        W85144  26.701   7.570   0.915
13474W        W85145   2.995  26.203   3.841
13475W        W85146  22.691  32.524   2.656
13476W        W85147  33.901  12.310  11.584
13477W        W85148   6.395  17.722  12.702
13478W        W85149  19.815   0.315  11.147
13479W        W85150   1.063   6.186  12.363
13480W        W85151  37.131  40.522   3.127
13481W        W85152  25.924  10.189  11.574
13482W        W85153   8.217  14.716   1.637
13483W        W85154   8.426  35.967   4.964
13484W        W85155  13.097   9.181   1.920
13485W        W85156  22.189  10.747  14.893
13486W        W85157  40.264  26.888   2.932
13487W        W85158   2.951   4.257  13.547
13488W        W85159  33.417  36.826   1.720
13489W        W85160  14.880   8.597   3.248
13490W        W85161  12.098   3.983  10.660
13491W        W85162  34.589  41.883  10.664
13492W        W85163  42.783  23.828   5.355
13493W        W85164   3.676  30.989  12.366
13494W        W85165  11.897  38.877   2.996
13495W        W85166  40.093  36.976   0.739
13496W        W85167   2.898  11.680  13.870
13497W        W85168  44.185  32.135   3.692
13498W        W85169   0.850  42.397   2.378
13499W        W85170   2.317  33.078  10.684
13500W        W85171  17.816  19.429   3.132
13501W        W85172  28.625  10.975  11.592
13502W        W85173  35.141   3.468  10.705
13503W        W85174  14.318  40.252   4.107
13504W        W85175  13.643  19.477  10.511
13505W        W85176  14.439   0.188  10.018
13506W        W85177  26.136  23.729  14.480
13507W        W85178  40.599  39.786  12.936
13508W        W85179  15.494  35.458  13.002
13509W        W85180  39.773  23.974  10.737
13510W        W85181  11.270  40.866  12.071
13511W        W85182  26.212  26.622   3.326
13512W        W85183  17.213  18.985  11.168
13513W        W85184  27.081  26.060   1.678
13514W        W85185  40.634  40.735   1.867
13515W        W85186  41.596  20.217   0.012
13516W        W85187  23.064   0.115   0.485
13517W        W85188  32.180   7.264   0.760
13518W        W85189  21.109  14.745  14.257
13519W        W85190  13.081  42.197  14.390
13520W        W85191  43.343  20.731   5.075
13521W        W85192  12.223   4.922  14.998
13522W        W85193  26.918  42.577  14.371
13523W        W85194  29.155  34.681  11.140
13524W        W85195  39.916  22.239   4.545
13525W        W85196  17.950  11.316  13.249
13526W        W85197  41.725   7.373  12.764
13527W        W85198  27.428  44.993  13.934
13528W        W85199  33.168  23.726   1.743
13529W        W85200  21.175   9.817   1.225
13530W        W85201  28.060   0.465  14.777
13531W        W85202  44.941  43.897  10.311
13532W        W85203  40.423  16.356  10.675
13533W        W85204   4.245  14.439   0.075
13534W        W85205  24.730  35.561   2.315
13535W        W85206  35.947   2.354   3.333
13536W        W85207  19.042   9.697  13.327
13537W        W85208  22.430  40.980   1.067
13538W        W85209   4.755  19.641  14.280
13539W        W85210   4.848  15.835  10.624
13540W        W85211  28.325   2.564   4.259
13541W        W85212  18.740  27.922   4.211
13542W        W85213  10.271  13.034   3.804
13543W        W85214   0.246  36.367   2.663
13544W        W85215   5.449  44.842  14.062
13545W        W85216   1.390  21.797  11.899
13546W        W85217  10.617  28.641  11.581
13547W        W85218   4.678  32.421  10.576
13548W        W85219  26.120  29.652  10.737
13549W        W85220  27.524  38.351   1.745
13550W        W85221  15.252   7.859  13.657
13551W        W85222  35.970  23.487  11.305
13552W        W85223  17.308   9.522  10.013
13553W        W85224  41.926  16.220  10.701
13554W        W85225  42.449  18.747  14.688
13555W        W85226   8.686  26.596   2.831
13556W        W85227   6.803   5.718  10.951
13557W        W85228  26.566  41.250   2.854
13558W        W85229  36.485  28.217   2.842
13559W        W85230  11.074   3.124  12.113
13560W        W85231  12.058  33.606   4.546
13561W        W85232  30.949   0.790   5.102
13562W        W85233  16.778  42.928   4.464
13563W        W85234  40.672  39.067   1.358
13564W        W85235   1.129  15.323  14.248
13565W        W85236   9.249  31.370   2.892
13566W        W85237  14.589   9.354   4.583
13567W        W85238  38.065  31.591  11.134
13568W        W85239  34.243  25.995   3.749
13569W        W85240  26.512  39.863  13.919
13570W        W85241  19.710  39.078  14.253
13571W        W85242  42.673  39.145  13.021
13572W        W85243  22.525  28.186   3.671
13573W        W85244   3.701  19.785  12.369
13574W        W85245  27.354  38.406  13.864
13575W        W85246  10.481  25.524  14.473
13576W        W85247  39.951  10.711   1.216
13577W        W85248  13.755  29.970   1.349
13578W        W85249  39.746   2.393   4.220
13579W        W85250  10.687   0.758   2.246
13580W        W85251   6.762  43.312  13.270
13581W        W85252  43.484  27.377  12.572
13582W        W85253  29.184  25.459  14.797
13583W        W85254   2.085  16.998  12.024
13584W        W85255  44.268  12.764  14.822
13585W        W85256  30.554   5.458  13.369
13586W        W85257   5.353   2.912  13.972
13587W        W85258  41.228  32.793   4.130
13588W        W85259  19.102  44.481   2.186
13589W        W85260  30.389  14.111   4.740
13590W        W85261  18.810  25.256   4.064
13591W        W85262  22.548  38.827   2.146
13592W        W85263  36.932  16.065   1.612
13593W        W85264  23.643   7.164   4.728
13594W        W85265  31.190   1.781   0.860
13595W        W85266   5.174  23.264   4.180
13596W        W85267  37.416  18.112   2.904
13597W        W85268   4.116  44.879  13.507
13598W        W85269  31.924  30.128  12.998
13599W        W85270  41.407  40.583  12.464
13600W        W85271   8.563  22.641   4.545
13601W        W85272  14.297  10.233  12.605
13602W        W85273  12.177  25.028   3.845
13603W        W85274  15.657  35.528   4.199
13604W        W85275  42.852  38.274  14.624
13605W        W85276  19.033   9.334  13.841
13606W        W85277  34.822  33.150   2.280
13607W        W85278  20.143   4.840  14.057
13608W        W85279  22.031  33.482   0.013
13609W        W85280   8.715  37.329   0.776
13610W        W85281  44.444   9.302  14.018
13611W        W85282   6.230  24.157  14.013
13612W        W85283  36.271  12.052   0.341
13613W        W85284   1.742  10.608  14.771
13614W        W85285  19.101  25.575   1.424
13615W        W85286   3.473  37.167  13.818
13616W        W85287   5.196   5.190  10.644
13617W        W85288  32.586  11.644  12.454
13618W        W85289  36.806  22.686   0.286
13619W        W85290  26.530  43.430   4.156
13620W        W85291  16.573   3.510  12.378
13621W        W85292  14.040  28.656  11.440
13622W        W85293  19.691   6.473   0.908
13623W        W85294  17.657   3.339   0.004
13624W        W85295  30.850   9.191  12.028
13625W        W85296   3.841  43.237  13.061
13626W        W85297  16.319  19.986   1.418
13627W        W85298  43.296   1.802   2.326
13628W        W85299  44.880  36.678  14.231
13629W        W85300   0.707  13.996   5.424
13630W        W85301  28.435  18.235  14.825
13631W        W85302  37.923   8.402   0.107
13632W        W85303  22.604   5.544  12.934
13633W        W85304  35.514  11.370   4.330
13634W        W85305  41.369  37.652  10.653
13635W        W85306  17.456  18.982  13.010
13636W        W85307   6.461  13.269   0.739
13637W        W85308  22.343  27.152   4.846
13638W        W85309  44.979  34.861   4.086
13639W        W85310  25.950   1.913  12.981
13640W        W85311   4.309  35.667  10.737
13641W        W85312  42.362  40.991  13.522
13642W        W85313  30.560  39.335   0.378
13643W        W85314  30.861  40.242   3.302
13644W        W85315  28.104  17.802  11.438
13645W        W85316  30.159  16.603  11.157
13646W        W85317  32.598  20.077  14.493
13647W        W85318  40.422  32.806  11.247
13648W        W85319  16.103  24.055   0.778
13649W        W85320  44.798  24.645  11.927
13650W        W85321   3.566  34.949  11.705
13651W        W85322  10.268  19.147   0.339
13652W        W85323  18.607  26.575   1.393
13653W        W85324  14.273   9.204  13.732
13654W        W85325  25.701  30.504  10.259
13655W        W85326  13.085  43.276  14.367
13656W        W85327  17.647   4.750  14.869
13657W        W85328   7.699  38.637   1.912
13658W        W85329   7.846  11.127  11.334
13659W        W85330  18.353   5.933   1.333
13660W        W85331  30.039  37.831   2.294
13661W        W85332   6.476   2.692   4.191
13662W        W85333  25.729  18.096  11.083
13663W        W85334   2.195  20.236   0.741
13664W        W85335   6.036  22.550   0.973
13665W        W85336  39.615   2.338  11.662
13666W        W85337  35.903  34.936  12.402
13667W        W85338  11.272  28.425  14.323
13668W        W85339  15.212   4.476   0.046
13669W        W85340  16.284  43.481   2.226
13670W        W85341  17.509   7.908  10.647
13671W        W85342  38.519   2.306   2.892
13672W        W85343  29.053  11.855   2.116
13673W        W85344  12.356  11.689  12.574
13674W        W85345   2.640  10.352  14.250
13675W        W85346  38.757  43.835   5.148
13676W        W85347  19.026  11.579  14.559
13677W        W85348  38.649  23.680   1.761
13678W        W85349  37.533  35.086   2.676
13679W        W85350  43.695  24.021  13.282
13680W        W85351  39.347  27.409   3.250
13681W        W85352  15.608   4.867   1.040
13682W        W85353  27.192   4.129   2.791
13683W        W85354  31.094  15.368  12.673
13684W        W85355  40.953  24.103   1.331
13685W        W85356  35.112   4.752   1.774
13686W        W85357  31.452  10.354   0.986
13687W        W85358   0.951  40.234  11.118
13688W        W85359  25.403  16.233   3.190
13689W        W85360  16.649   8.631   4.780
13690W        W85361  30.653  41.388   2.303
13691W        W85362  23.082  37.240  14.795
13692W        W85363  22.005  31.092   2.277
13693W        W85364  40.337  15.994  12.490
13694W        W85365  14.352   3.360  10.572
13695W        W85366  29.095  12.730   2.674
13696W        W85367  12.328  42.382  12.859
13697W        W85368  12.137  19.846  12.924
13698W        W85369  22.369  36.558  13.922
13699W        W85370  23.189  24.643   1.164
13700W        W85371   9.570  28.604   1.237
13701W        W85372  21.288  30.521   3.809
13702W        W85373   3.915  10.278   3.427
13703W        W85374  15.261  35.119  14.765
13704W        W85375   6.995   2.315  11.444
13705W        W85376  11.084  27.913   0.248
13706W        W85377  28.206   7.307  12.023
13707W        W85378   8.644  41.299   4.646
13708W        W85379  23.909  38.411   3.663
13709W        W85380  24.263  44.274  10.534
13710W        W85381   4.719  27.027  13.857
13711W        W85382  40.796  42.877   2.588
13712W        W85383  33.898  17.613  11.249
13713W        W85384   5.387  22.708  14.880
13714W        W85385  41.713  22.795   4.567
13715W        W85386  32.053  37.636   1.052
13716W        W85387  28.443  24.703   2.271
13717W        W85388   7.487  22.475  11.537
13718W        W85389  31.469  25.030  14.043
13719W        W85390  44.336  36.395  11.643
13720W        W85391  13.844  40.004   4.140
13721W        W85392  36.521  13.780   1.128
13722W        W85393  25.995  21.827  12.916
13723W        W85394   1.278   8.760   4.619
13724W        W85395   4.716   6.863  11.603
13725W        W85396  42.478  20.911   2.788
13726W        W85397  19.713   8.644  10.724
13727W        W85398  21.022  28.730   2.750
13728W        W85399   6.330  17.347  11.119
13729W        W85400  27.652   3.502   9.875
13730W        W85401  10.712  21.271   2.298
13731W        W85402  34.935  21.082   2.001
13732W        W85403  25.638  11.868  13.354
13733W        W85404   6.510  44.533   5.218
13734W        W85405   2.253  25.964  10.778
13735W        W85406   0.459  19.659  12.495
13736W        W85407  33.418  30.240   4.100
13737W        W85408   5.376  11.603  11.118
13738W        W85409  22.272  37.684   3.156
13739W        W85410  19.026  10.797   4.914
13740W        W85411   5.407   4.953   0.012
13741W        W85412  40.270  17.787   1.789
13742W        W85413  26.557   1.458   2.337
13743W        W85414  37.373  29.972   0.739
13744W        W85415  23.084  37.048   3.285
13745W        W85416  36.066  36.050  14.476
13746W        W85417  24.479   3.405   4.938
13747W        W85418   6.460  16.405  10.755
13748W        W85419  43.057  28.617   1.864
13749W        W85420   8.121  21.925   4.190
13750W        W85421  38.398  20.039  14.815
13751W        W85422  13.771  40.993  13.144
13752W        W85423   7.967  27.643   0.333
13753W        W85424  34.620  42.023   0.848
13754W        W85425   2.195  22.421  13.994
13755W        W85426  24.519  19.519  14.877
13756W        W85427  39.371   7.424   3.730
13757W        W85428  11.726  19.205   0.346
13758W        W85429  13.047  33.759  14.330
13759W        W85430  21.177   1.052   1.258
13760W        W85431  32.154  22.053   1.278
13761W        W85432  13.901  21.035   4.967
13762W        W85433   9.862  11.560  10.327
13763W        W85434  25.942   2.251  11.132
13764W        W85435  40.833  33.931   1.283
13765W        W85436  41.206  22.178  10.310
13766W        W85437  27.209  10.232   0.884
13767W        W85438  11.166  14.592  13.553
13768W        W85439  12.322   1.352  13.006
13769W        W85440  13.304  23.930   1.701
13770W        W85441  19.862  18.827   0.409
13771W        W85442  10.991   7.828   3.628
13772W        W85443  42.740  28.195   1.917
13773W        W85444   0.782  39.904  12.834
13774W        W85445  39.895  32.419   0.173
13775W        W85446  35.706  39.975  10.607
13776W        W85447  28.375  27.014   1.753
13777W        W85448   2.167  22.746   1.412
13778W        W85449   1.800   1.720  12.507
13779W        W85450  42.248  28.463  10.657
13780W        W85451  29.745  28.654  12.634
13781W        W85452   1.392  14.142   1.044
13782W        W85453  34.131  26.156  14.496
13783W        W85454  15.746  43.546   3.401
13784W        W85455  40.103   0.345  12.542
13785W        W85456   2.261  19.388  10.212
13786W        W85457  24.429  42.712  14.642
13787W        W85458  21.528   9.723  10.651
13788W        W85459  40.812   9.266   4.599
13789W        W85460  18.889  13.740  11.558
13790W        W85461  36.467  34.601   2.687
13791W        W85462  34.003  43.095  10.645
13792W        W85463  34.073  15.181  10.799
13793W        W85464   0.770  32.429  12.926
13794W        W85465   0.281  44.470   3.254
13795W        W85466  25.361  31.480  14.872
13796W        W85467   1.895  15.783  14.518
13797W        W85468   9.199  43.518  13.532
13798W        W85469  35.103  36.417   3.895
13799W        W85470  12.181  32.567   1.425
13800W        W85471  43.025  20.071   3.356
13801W        W85472  32.007  41.392  10.817
13802W        W85473  41.812  10.888  14.835
13803W        W85474  37.889  38.101  11.565
13804W        W85475   4.892  10.836   0.756
13805W        W85476   8.837  13.749  13.098
13806W        W85477   7.177  21.814  14.560
13807W        W85478   7.397  11.350  14.423
13808W        W85479   5.951  31.196   1.792
13809W        W85480   3.171   8.036   5.070
13810W        W85481  33.640   2.231  14.249
13811W        W85482  15.681  35.546  11.839
13812W        W85483  15.679   0.474   1.041
13813W        W85484  11.875  22.821   0.584
13814W        W85485   2.450   5.519   2.258
13815W        W85486  36.864  30.330  10.781
13816W        W85487  11.769  20.236   0.218
13817W        W85488  12.400  41.747  13.998
13818W        W85489   0.960  13.142  13.987
13819W        W85490  16.054  42.933  11.601
13820W        W85491  26.419  21.990  11.150
13821W        W85492  39.949  22.484  10.553
13822W        W85493  19.446  30.160   1.895
13823W        W85494  13.109   7.818  13.031
13824W        W85495  26.714   6.603  10.168
13825W        W85496   4.533  40.879  11.205
13826W        W85497  41.532  23.621   4.315
13827W        W85498   3.349  32.442   2.741
13828W        W85499  37.121   7.565  14.710
13829W        W85500   5.253  23.585   0.946
13830W        W85501   7.998   0.899   4.289
13831W        W85502  28.192  19.304   0.280
13832W        W85503  44.733   5.007   2.542
13833W        W85504  29.101  29.165   1.894
13834W        W85505   8.906   3.203  13.759
13835W        W85506  42.645  15.143   2.230
13836W        W85507   1.285  23.095   1.372
13837W        W85508  31.511  29.442   3.218
13838W        W85509  17.749  23.457  11.096
13839W        W85510  16.317  21.801  13.873
13840W        W85511  28.180  42.831   1.896
13841W        W85512  19.580  15.660  14.811
13842W        W85513  17.783  37.353   3.687
13843W        W85514  10.186  43.252  12.446
13844W        W85515  34.185  39.262  14.022
13845W        W85516  36.228   7.399  12.084
13846W        W85517  37.549  21.397  12.843
13847W        W85518   6.275  10.725  14.084
13848W        W85519  39.890  11.691   2.868
13849W        W85520   2.230  36.540   0.256
13850W        W85521  25.099  34.540   4.900
13851W        W85522  22.527  32.610  13.357
13852W        W85523   4.415   0.790  10.649
13853W        W85524  24.725   6.513  14.743
13854W        W85525   4.242   0.930  13.184
13855W        W85526   5.227  44.891  13.182
13856W        W85527   1.649  43.494   1.394
13857W        W85528   5.435  23.687   4.010
13858W        W85529  30.209  26.173   1.327
13859W        W85530  37.079  10.910   1.213
13860W        W85531   1.280  12.429  12.943
13861W        W85532  41.466  18.279  13.310
13862W        W85533   7.859  35.716  11.933
13863W        W85534   4.759   5.976   3.555
13864W        W85535  39.464  19.213   1.339
13865W        W85536  30.861  37.072   3.798
13866W        W85537  40.456  22.763   3.276
13867W        W85538  30.899   3.244   0.857
13868W        W85539   8.451  44.988  13.608
13869W        W85540  24.897  31.094  11.981
13870W        W85541  26.232   9.786  14.800
13871W        W85542  36.398  14.677   4.050
13872W        W85543   4.955  12.568   2.786
13873W        W85544   0.447  26.746  13.054
13874W        W85545  20.149   7.746  14.265
13875W        W85546  38.382  21.560   0.892
13876W        W85547  19.197  40.803   2.119
13877W        W85548   5.794  32.067  11.932
13878W        W85549   4.052   1.620  11.157
13879W        W85550   7.248  39.805   3.539
13880W        W85551  12.068  18.241  11.497
13881W        W85552  37.354   6.427  14.490
13882W        W85553  24.922   0.874   1.810
13883W        W85554  24.931  13.825   4.100
13884W        W85555  32.065   9.864  12.112
13885W        W85556  42.323  42.522  13.579
13886W        W85557  10.883  43.861   4.627
13887W        W85558   9.464  27.687  13.048
13888W        W85559  23.026  39.402  12.042
13889W        W85560  29.612   0.339  13.893
13890W        W85561  21.046   6.070   2.182
13891W        W85562  25.497  44.551  11.578
13892W        W85563  39.039  24.907  10.711
13893W        W85564  35.075  21.650  11.584
13894W        W85565  20.968  25.675  10.545
13895W        W85566  18.597  17.444  10.277
13896W        W85567  31.958  17.553   1.755
13897W        W85568  40.936   2.499   0.502
13898W        W85569  39.518  17.300  10.974
13899W        W85570  44.060  31.498  13.987
13900W        W85571  16.854   1.730  12.904
13901W        W85572   6.449  24.546   4.902
13902W        W85573  13.612  40.781  14.471
13903W        W85574  12.429  38.358   0.961
13904W        W85575  26.444  40.784  13.597
13905W        W85576  13.437  15.698   3.351
13906W        W85577   8.159   0.412   0.463
13907W        W85578   1.829  26.253  14.343
13908W        W85579  23.092  24.310   1.504
13909W        W85580   6.767  39.035  13.128
13910W        W85581  32.431  37.862   3.255
13911W        W85582  36.914  21.509   4.858
13912W        W85583  23.256  35.152   2.121
13913W        W85584  12.962   9.870  10.664
13914W        W85585  34.614  30.410  13.095
13915W        W85586   7.678  29.568  11.199
13916W        W85587  34.221  39.383   4.589
13917W        W85588   4.483  11.165  12.959
13918W        W85589  27.580  42.014  10.594
13919W        W85590  40.525  20.825   1.938
13920W        W85591  35.473  28.437   2.722
13921W        W85592  44.801  32.184  14.163
13922W        W85593  29.866  41.381  13.899
13923W        W85594   6.497  44.750  11.744
13924W        W85595  42.902  39.037  10.503
13925W        W85596   0.430   0.497  11.539
13926W        W85597   1.324  28.980   2.446
13927W        W85598  12.233   5.161  13.058
13928W        W85599  38.384   7.471  14.916
13929W        W85600  15.570  25.437  12.743
13930W        W85601  15.068  20.838   3.674
13931W        W85602  13.648  26.899  12.097
13932W        W85603  32.869  22.256  14.164
13933W        W85604  31.582  13.653   0.502
13934W        W85605  39.481   3.512   2.440
13935W        W85606  42.269  29.547   2.221
13936W        W85607  17.126   9.047  12.231
13937W        W85608  24.025  39.427   0.916
13938W        W85609  19.090  16.053  14.373
13939W        W85610  17.624  43.487  12.040
13940W        W85611  40.319  44.026   3.758
13941W        W85612  15.806  12.083   0.268
13942W        W85613   5.939  44.900   1.888
13943W        W85614  31.418  30.272  11.190
13944W        W85615  18.304  24.676  12.455
13945W        W85616  44.457   6.316  12.955
13946W        W85617  12.601  17.080   4.787
13947W        W85618   2.983   4.168  11.400
13948W        W85619  13.244   2.334   3.395
13949W        W85620  15.341   2.380  13.093
13950W        W85621  42.898   9.154  14.930
13951W        W85622  44.042  32.149  13.584
13952W        W85623   7.296   4.198   0.281
13953W        W85624  44.337  28.085  10.291
13954W        W85625  36.929  24.951   3.882
13955W        W85626  18.832  32.012   5.169
13956W        W85627  18.561  21.719  11.486
13957W        W85628  19.030  39.325  13.545
13958W        W85629  17.511  36.387  14.138
13959W        W85630  23.737  44.294  10.549
13960W        W85631  31.598  30.465  14.759
13961W        W85632  34.722  14.834   3.675
13962W        W85633  32.928  41.524   3.064
13963W        W85634  14.225  12.591  10.952
13964W        W85635  18.617  15.197   1.694
13965W        W85636  12.414   8.767   0.792
13966W        W85637  12.207  24.144   4.636
13967W        W85638  27.686  32.876  11.257
13968W        W85639  13.135   0.217  11.920
13969W        W85640  20.189  39.553  12.912
13970W        W85641  33.074  39.746  14.886
13971W        W85642   5.215  21.160  12.198
13972W        W85643  16.232  26.936   1.657
13973W        W85644   4.517   2.790  13.932
13974W        W85645   3.637  21.573  11.927
13975W        W85646  39.422   9.669  11.719
13976W        W85647  38.626  17.083   4.582
13977W        W85648  24.568  10.779  13.296
13978W        W85649   5.719  37.361  14.233
13979W        W85650  39.052  12.791   3.859
13980W        W85651  38.497  42.594  13.484
13981W        W85652  23.281  26.529   1.647
13982W        W85653  26.416  33.341  12.338
13983W        W85654  19.226  28.873  14.784
13984W        W85655  32.779   6.271   3.497
13985W        W85656  25.567   0.056  10.859
13986W        W85657  41.358   9.894  10.728
13987W        W85658  39.149  44.611   5.147
13988W        W85659   2.963  14.552   0.480
13989W        W85660  16.276   3.173  12.066
13990W        W85661  11.615  30.816  12.461
13991W        W85662  16.691  36.112  12.355
13992W        W85663  19.548  15.651   0.694
13993W        W85664   9.894  36.009   1.424
13994W        W85665   9.617   2.952  12.056
13995W        W85666   0.851  37.043   2.862
13996W        W85667  36.071  10.776  12.528
13997W        W85668  15.853   2.333  11.996
13998W        W85669  17.716  11.928   2.782
13999W        W85670   0.904   0.732   0.329
14000W        W85671  44.940  13.667   3.230
14001W        W85672  44.576  36.044  10.358
14002W        W85673   6.302  31.404   3.432
14003W        W85674   8.762  18.177  14.951
14004W        W85675  32.874  18.984   1.966
14005W        W85676   2.658  11.941  11.089
14006W        W85677  27.091   3.426  14.377
14007W        W85678  40.958  10.843   0.859
14008W        W85679  30.371  14.351  13.861
14009W        W85680   7.688  20.286  12.021
14010W        W85681  10.348  11.601  11.054
14011W        W85682  21.226  16.235  12.030
14012W        W85683   5.704  23.212   4.282
14013W        W85684  39.769  41.487   3.800
14014W        W85685  44.403  12.062   2.411
14015W        W85686  43.221  28.872  10.368
14016W        W85687  42.569  22.686   3.254
14017W        W85688  21.084  36.337   4.537
14018W        W85689  34.833  38.499  10.683
14019W        W85690   3.225  22.591   2.370
14020W        W85691  32.598  37.330   5.429
14021W        W85692  29.646  26.027   2.210
14022W        W85693  37.008  14.482  10.315
14023W        W85694  44.544   2.369  13.866
14024W        W85695   1.945   8.663   3.748
14025W        W85696   7.734  26.022   3.360
14026W        W85697  35.918  32.308  12.571
14027W        W85698   5.682  18.177  11.147
14028W        W85699  42.962  10.281   0.065
14029W        W85700  29.726  33.949  10.460
14030W        W85701  34.307  21.610   3.633
14031W        W85702  20.033  31.978   2.351
14032W        W85703  34.508   0.825   4.138
14033W        W85704   3.644  27.393   1.261
14034W        W85705   2.035  43.947  12.454
14035W        W85706  19.062  11.301  11.898
14036W        W85707  25.055  38.244   2.181
14037W        W85708  16.993  39.803  14.898
14038W        W85709  27.991  15.655   0.490
14039W        W85710  12.680  16.413  10.993
14040W        W85711  17.184   1.079   2.425
14041W        W85712  26.582  26.934   1.403
14042W        W85713  40.020   6.381   2.787
14043W        W85714  41.374   9.211   4.587
14044W        W85715  18.119  12.366   5.285
14045W        W85716   9.832  37.988   4.672
14046W        W85717  32.385  12.652  10.759
14047W        W85718  32.806  20.533   4.854
14048W        W85719   8.638  11.347  12.998
14049W        W85720  27.898  26.547  14.815
14050W        W85721  30.027  14.184  11.710
14051W        W85722  17.316  27.747  10.777
14052W        W85723  39.038   2.122  12.531
14053W        W85724  12.937  36.728   1.687
14054W        W85725  28.244  23.624  10.269
14055W        W85726  15.343  36.360  11.083
14056W        W85727  25.259  28.517  11.557
14057W        W85728   5.897  17.189   4.533
14058W        W85729  14.795  39.310   2.451
14059W        W85730   0.401  41.953  11.392
14060W        W85731  43.288   3.882  10.944
14061W        W85732  11.631  14.412   2.870
14062W        W85733   9.743  16.198   3.778
14063W        W85734  24.019  37.735   4.727
14064W        W85735  37.293  27.066   0.051
14065W        W85736  27.464  42.908  12.934
14066W        W85737  13.731   4.533   2.739
14067W        W85738   3.007   3.725  11.766
14068W        W85739  30.555  22.565   4.202
14069W        W85740  32.634   6.607  14.893
14070W        W85741  40.245   8.207   3.664
14071W        W85742  44.465  17.249   4.172
14072W        W85743  14.754  39.077   4.601
14073W        W85744   7.844  11.655  10.675
14074W        W85745  25.321  22.382   4.371
14075W        W85746   8.177   4.453  14.831
14076W        W85747  41.678  38.350   2.040
14077W        W85748  16.622   5.667   1.249
14078W        W85749  41.945   2.574  11.066
14079W        W85750  24.574  36.146  12.497
14080W        W85751   4.654  17.865   4.159
14081W        W85752   7.186  27.873  14.308
14082W        W85753  24.220   6.360   3.067
14083W        W85754  38.458  20.786   0.402
14084W        W85755  30.951  34.312  14.447
14085W        W85756  27.974   9.828   9.696
14086W        W85757  33.933  11.117   4.625
14087W        W85758  26.080  12.625   1.018
14088W        W85759  10.769  19.780  13.838
14089W        W85760  13.625  25.179  14.924
14090W        W85761   5.048  41.500  10.577
14091W        W85762  36.484   1.981  13.573
14092W        W85763   7.497  39.628  12.342
14093W        W85764  23.594  40.355  10.657
14094W        W85765   0.248   8.169  11.173
14095W        W85766  37.472  35.796  10.621
14096W        W85767   4.772   1.207  11.573
14097W        W85768  36.133  39.708   4.330
14098W        W85769  41.509   3.359  10.080
14099W        W85770  20.381  12.960   5.507
14100W        W85771  17.507  11.750   0.759
14101W        W85772  18.158  23.777  11.196
14102W        W85773  25.681  19.835   3.620
14103W        W85774  22.162   1.941   0.876
14104W        W85775  27.942  37.436  14.248
14105W        W85776   8.188  42.421  10.552
14106W        W85777  37.896  21.143   3.711
14107W        W85778  35.973   7.136   4.627
14108W        W85779  22.725  28.956   9.950
14109W        W85780  16.836  15.065   4.722
14110W        W85781  26.742  13.547   3.259
14111W        W85782  20.079  39.298   0.468
14112W        W85783  18.566  33.445   4.726
14113W        W85784  31.865  13.118  14.759
14114W        W85785  10.900  41.577   0.996
14115W        W85786  37.937  42.615   2.211
14116W        W85787  36.078  40.846   1.402
14117W        W85788  41.854  11.598  13.896
14118W        W85789  17.194  13.817  10.015
14119W        W85790  23.609  13.699  11.925
14120W        W85791  30.352  42.505  14.937
14121W        W85792  40.538  26.162  10.597
14122W        W85793  24.244  33.505   0.521
14123W        W85794  43.911   8.912   3.585
14124W        W85795  25.112   0.181  11.144
14125W        W85796  29.964  44.230  12.389
14126W        W85797  40.483   4.204  13.046
14127W        W85798  21.912  29.643   2.902
14128W        W85799  26.661  18.156  14.477
14129W        W85800  32.879   0.564  12.963
14130W        W85801  44.534  35.562  10.519
14131W        W85802  14.637   6.027  14.303
14132W        W85803  30.007  40.641   1.431
14133W        W85804  35.657  12.304  14.221
14134W        W85805  12.721   3.596   1.923
14135W        W85806  38.412  35.265  12.388
14136W        W85807  12.254  19.629   1.438
14137W        W85808   6.471  11.631  14.227
14138W        W85809   1.229  11.334   1.906
14139W        W85810  13.120   3.818  14.333
14140W        W85811   4.873  17.858   3.265
14141W        W85812  11.676  17.074   3.093
14142W        W85813  23.949  23.045  14.816
14143W        W85814   2.501   9.224  11.539
14144W        W85815  14.821   3.550   4.308
14145W        W85816  19.250  22.898  12.163
14146W        W85817  41.505  32.128  14.049
14147W        W85818  12.793  12.271  11.036
14148W        W85819   0.932  21.128   3.658
14149W        W85820  25.393  10.397  13.935
14150W        W85821  19.904  19.651   2.384
14151W        W85822  38.244  29.963   0.734
14152W        W85823  35.050  40.443   3.228
14153W        W85824  27.034  36.861  10.433
14154W        W85825  36.407  42.808  12.012
14155W        W85826  44.027  29.359   3.475
14156W        W85827  31.781  37.092  11.103
14157W        W85828  37.606  27.528  11.610
14158W        W85829  22.933   0.539  14.368
14159W        W85830   8.326   4.362  14.007
14160W        W85831  14.868   1.060   0.797
14161W        W85832  31.127   5.024  10.819
14162W        W85833  31.512  32.836  11.172
14163W        W85834  11.168  22.721  14.948
14164W        W85835  33.990  10.175   1.171
14165W        W85836  24.070  14.151  12.546
14166W        W85837  42.862   6.485   1.073
14167W        W85838  31.007  10.459   0.735
14168W        W85839  40.446  33.487  12.916
14169W        W85840   7.813  39.405   0.871
14170W        W85841  20.157   4.121   0.792
14171W        W85842  39.592   8.482  13.405
14172W        W85843  15.469   7.375  12.857
14173W        W85844  44.514  10.400   3.154
14174W        W85845  21.070  22.280  12.315
14175W        W85846  18.948  40.056  11.425
14176W        W85847  13.141  23.591  14.388
14177W        W85848  16.601  32.601   1.314
14178W        W85849  21.495  40.404  14.179
14179W        W85850  40.530   7.700  14.127
14180W        W85851  32.041  33.154  11.888
14181W        W85852  41.423  10.823  13.474
14182W        W85853  33.034  24.202  14.758
14183W        W85854  17.978  42.763  12.005
14184W        W85855  41.460  33.120   2.444
14185W        W85856  15.777  24.986   1.367
14186W        W85857  31.035  11.387  10.767
14187W        W85858  26.389  14.492  13.971
14188W        W85859  39.426  42.992   2.746
14189W        W85860   1.355  28.910  14.955
14190W        W85861  38.514  30.133   1.780
14191W        W85862  29.103  22.740  14.366
14192W        W85863  15.685  27.109   2.679
14193W        W85864   8.644  27.821   2.845
14194W        W85865   9.370   0.937   0.824
14195W        W85866  27.788  10.189  11.040
14196W        W85867   1.217  20.975   2.235
14197W        W85868  43.769  31.910  12.086
14198W        W85869  40.471  42.514   3.857
14199W        W85870  40.834  37.795   0.685
14200W        W85871  21.012  41.276  14.238
14201W        W85872  44.500  18.173   2.872
14202W        W85873  41.109   2.260  12.934
14203W        W85874  26.557  28.135   4.814
14204W        W85875  37.287  40.016   1.756
14205W        W85876  26.492  31.227  12.901
14206W        W85877  18.075  26.480  14.095
14207W        W85878  26.153  38.308  11.087
14208W        W85879  26.122  16.883   1.349
14209W        W85880  44.719   7.890   4.070
14210W        W85881  12.447  31.105  10.492
14211W        W85882  26.314  26.109  14.834
14212W        W85883  15.719  12.568  11.508
14213W        W85884  10.199   6.981  12.741
14214W        W85885   7.140  44.368  14.315
14215W        W85886  12.485  19.842  14.414
14216W        W85887  34.941  25.077   2.143
14217W        W85888   4.340   8.222  13.262
14218W        W85889  23.769  10.923  12.751
14219W        W85890  42.515   5.111   0.931
14220W        W85891   1.382  13.676   0.257
14221W        W85892   5.074  39.904   0.863
14222W        W85893  42.514  22.026   0.254
14223W        W85894  28.849  29.986   4.002
14224W        W85895  23.836  17.272  13.129
14225W        W85896  32.639  13.214   1.800
14226W        W85897  14.323  27.070  12.486
14227W        W85898  36.561  37.282  11.530
14228W        W85899  38.472   7.271  12.388
14229W        W85900   3.044  22.120   2.231
14230W        W85901  27.009  14.257   1.818
14231W        W85902  33.968  24.088  14.489
14232W        W85903   5.305  19.638  10.973
14233W        W85904  25.395  14.434  14.724
14234W        W85905  30.911   7.766   1.352
14235W        W85906  15.578  11.352  12.330
14236W        W85907  16.360  19.544  13.784
14237W        W85908  18.837  32.308   3.428
14238W        W85909  32.637   5.176  11.668
14239W        W85910  26.287  17.161   4.545
14240W        W85911  25.397   2.207   3.794
14241W        W85912  41.904   9.286   0.896
14242W        W85913  34.857  35.499  14.474
14243W        W85914   1.327  40.918   2.709
14244W        W85915  23.789  32.018  12.435
14245W        W85916  19.073  25.762  11.555
14246W        W85917  41.994  37.366  11.633
14247W        W85918  43.198  18.297   3.119
14248W        W85919   7.171  17.548  12.055
14249W        W85920  38.615  13.415  14.108
14250W        W85921  20.865  40.424   5.401
14251W        W85922  32.111  34.003  12.152
14252W        W85923  33.322  30.677   4.391
14253W        W85924   9.437  21.977  12.410
14254W        W85925  12.724  14.216   3.710
14255W        W85926  14.201  17.777   4.220
14256W        W85927  27.524  25.976   3.646
14257W        W85928  22.225  43.967   0.627
14258W        W85929  29.297  14.212  14.778
14259W        W85930  11.190  18.786  10.574
14260W        W85931   0.460   6.651   1.832
14261W        W85932  44.563  16.732  11.142
14262W        W85933  30.558  44.319   4.656
14263W        W85934   7.374  18.401   3.720
14264W        W85935  36.661  15.851  14.999
14265W        W85936  33.396   7.939   0.217
14266W        W85937  14.578  40.066   4.844
14267W        W85938  29.897   4.791  11.951
14268W        W85939   8.216  34.333  12.082
14269W        W85940  31.484  35.008  14.060
14270W        W85941  31.977   8.549  13.157
14271W        W85942   7.859  14.381   1.341
14272W        W85943  23.717  13.317   0.797
14273W        W85944  39.583  25.153  14.795
14274W        W85945  33.192  22.195   1.481
14275W        W85946   8.268  13.550   3.092
14276W        W85947  21.083  29.625   0.697
14277W        W85948  18.806   1.313   3.657
14278W        W85949   8.466  22.620   3.687
14279W        W85950   0.040   6.716   3.975
14280W        W85951   1.275  40.032   4.654
14281W        W85952  38.853  26.497  14.462
14282W        W85953  34.567  15.686   0.775
14283W        W85954  32.967   6.116   0.313
14284W        W85955   0.320  42.876  12.791
14285W        W85956  39.663  11.953  13.005
14286W        W85957   1.465  17.621  14.249
14287W        W85958  14.700  31.848  14.385
14288W        W85959  37.934   7.755  11.223
14289W        W85960  31.340  20.644  11.747
14290W        W85961  21.417  16.226  11.536
14291W        W85962  21.757  30.925  12.896
14292W        W85963  22.950  36.266  12.934
14293W        W85964   3.047  44.812  11.645
14294W        W85965  30.182   4.603  13.553
14295W        W85966   9.028   7.444  10.381
14296W        W85967  41.505  44.257  10.508
14297W        W85968   0.989  39.231  14.470
14298W        W85969  14.272  42.999   2.765
14299W        W85970  30.152  15.649   0.305
14300W        W85971  34.328   0.418  14.811
14301W        W85972   5.383  38.045   1.894
14302W        W85973  23.761  36.156   0.273
14303W        W85974  30.316  23.934   0.722
14304W        W85975  38.192  34.363   3.766
14305W        W85976  32.042   8.121  12.858
14306W        W85977  39.467  21.856   1.999
14307W        W85978  35.811  26.281  11.666
14308W        W85979  30.846  38.467   4.593
14309W        W85980  21.329  14.270  11.081
14310W        W85981  25.650  44.217  13.056
14311W        W85982  23.191   1.514  14.316
14312W        W85983  42.377  22.056   3.569
14313W        W85984  42.905  28.852   1.420
14314W        W85985  11.784  39.846   2.658
14315W        W85986  21.608  13.121   1.588
14316W        W85987  14.179   9.410   0.205
14317W        W85988   7.827  19.939   1.845
14318W        W85989  35.369  25.857   1.925
14319W        W85990  12.944  38.491   2.297
14320W        W85991   1.431   7.485  13.882
14321W        W85992  24.546  12.825  11.447
14322W        W85993  12.212  32.446  13.295
14323W        W85994  21.792   3.480   1.846
14324W        W85995  12.665   5.031   3.556
14325W        W85996  12.195   7.761  12.987
14326W        W85997   3.424   4.885   3.769
14327W        W85998  40.387  21.252   1.078
14328W        W85999  16.944  41.379   5.013
14329W        W86000  19.544   2.852   1.758
14330W        W86001  14.276  18.239   0.480
14331W        W86002  24.808   0.882   0.502
14332W        W86003   1.450  33.877   0.210
14333W        W86004  14.151  18.125   1.511
14334W        W86005  20.149  38.504  12.818
14335W        W86006  42.263  10.358  14.329
14336W        W86007  42.529  23.496   4.991
14337W        W86008  35.272  22.125  14.457
14338W        W86009  13.280  42.544  10.741
14339W        W86010  27.333  32.717   0.771
14340W        W86011  12.355  27.556   4.958
14341W        W86012  34.019  29.093   2.212
14342W        W86013   3.132  31.427  14.757
14343W        W86014  24.696   3.982   3.599
14344W        W86015  15.620  28.561   2.499
14345W        W86016  14.282  13.733   2.847
14346W        W86017  22.927  16.699   4.753
14347W        W86018  21.176  10.685  10.640
14348W        W86019  11.427   5.778  12.511
14349W        W86020  17.027  33.069  14.863
14350W        W86021  15.766  20.953  13.813
14351W        W86022  17.069  21.164   0.977
14352W        W86023   1.504   6.729   0.908
14353W        W86024  35.560   5.905   0.673
14354W        W86025  23.690   9.891  10.778
14355W        W86026  14.660  36.691   4.526
14356W        W86027  13.594  41.811  10.417
14357W        W86028  24.149  15.046  10.706
14358W        W86029  15.127   5.417   4.659
14359W        W86030  12.839  24.972  13.425
14360W        W86031  12.844  27.028  12.514
14361W        W86032  39.873  29.243  10.667
14362W        W86033  37.478  16.565   0.473
14363W        W86034  25.087  25.390   0.455
14364W        W86035  28.780  39.754   0.758
14365W        W86036  12.285  24.592  14.135
14366W        W86037  20.844  13.713  10.625
14367W        W86038   3.449  16.962  14.170
14368W        W86039  20.551  27.091  11.448
14369W        W86040  12.309  40.318  14.389
14370W        W86041  27.934  12.130   0.009
14371W        W86042  12.140  34.555   1.385
14372W        W86043  14.599   7.607   5.364
14373W        W86044   2.245  11.587   1.288
14374W        W86045  19.650  17.704   0.027
14375W        W86046   8.354  19.267   1.243
14376W        W86047  26.641  20.055  14.804
14377W        W86048  43.800  15.089   1.789
14378W        W86049  17.336   9.453  12.458
14379W        W86050  39.987   5.022   0.359
14380W        W86051  36.075  43.216  12.505
14381W        W86052  23.998  16.005  12.396
14382W        W86053  13.875   7.231  12.099
14383W        W86054  35.006  25.585   4.027
14384W        W86055  23.208  35.578  13.396
14385W        W86056   2.223  38.529  10.982
14386W        W86057  11.325  35.861   0.375
14387W        W86058   7.178   8.437   3.187
14388W        W86059  29.057   0.563  11.167
14389W        W86060  24.730   9.781  13.359
14390W        W86061  17.248  39.028   1.953
14391W        W86062  23.082  26.780  11.659
14392W        W86063  39.410  20.711  13.642
14393W        W86064   7.735  40.468   1.776
14394W        W86065  15.838  18.323   2.055
14395W        W86066  36.361  38.115  14.474
14396W        W86067  28.008  40.387   3.393
14397W        W86068  16.664   5.269  13.611
14398W        W86069  21.000  39.368  12.575
14399W        W86070  19.944  16.112  13.496
14400W        W86071  30.937  19.280  14.589
14401W        W86072  38.751  27.625   4.298
14402W        W86073  12.554  33.990  10.706
14403W        W86074  32.859  14.172  11.650
14404W        W86075   9.671  21.747  13.914
14405W        W86076  17.471   0.756  11.349
14406W        W86077   3.322   5.612  13.218
14407W        W86078   9.780   0.517   0.060
14408W        W86079  22.997  13.803   2.846
14409W        W86080   8.334  40.880  11.689
14410W        W86081  21.799   9.118  14.248
14411W        W86082  14.850   8.870  13.818
14412W        W86083  43.534  36.676   1.433
14413W        W86084  37.038  13.284  12.392
14414W        W86085   5.872   2.536   1.842
14415W        W86086   4.790  35.845   0.306
14416W        W86087  43.315   1.650  11.853
14417W        W86088  36.021  32.576   1.944
14418W        W86089   1.728  20.621  10.344
14419W        W86090  37.477   7.031   1.969
14420W        W86091  32.908  36.029   3.589
14421W        W86092  28.973  19.597   1.276
14422W        W86093  25.396  36.460  11.995
14423W        W86094  40.883  19.214  10.750
14424W        W86095  36.066  21.226  14.542
14425W        W86096  36.483  42.260   4.404
14426W        W86097   5.156   1.889  13.127
14427W        W86098  15.138  20.071  11.180
14428W        W86099  29.220  16.781  13.048
14429W        W86100   2.659  23.198   4.631
14430W        W86101  17.506  37.117  11.947
14431W        W86102  21.786  36.876   1.497
14432W        W86103  24.958  30.407  12.470
14433W        W86104  42.862  15.535   1.973
14434W        W86105  44.773   0.464   3.691
14435W        W86106  44.254  40.582   0.734
14436W        W86107  23.840  20.694  12.145
14437W        W86108  43.606  30.323   5.014
14438W        W86109   9.382  31.921   1.751
14439W        W86110  40.119  15.646   1.927
14440W        W86111  11.148  21.375   1.355
14441W        W86112  30.962  23.333   0.609
14442W        W86113   6.862   7.597   2.801
14443W        W86114  36.969  33.049  13.378
14444W        W86115   1.833  40.137   1.247
14445W        W86116   8.168  26.905  12.032
14446W        W86117  41.952  18.795  14.027
14447W        W86118  14.545  13.767   4.700
14448W        W86119   0.467  40.866   1.991
14449W        W86120   7.469   5.725   3.652
14450W        W86121   7.025   1.568  14.754
14451W        W86122  33.118  27.616   0.921
14452W        W86123  18.177  17.765  10.468
14453W        W86124  14.764   3.400   0.363
14454W        W86125   7.979  18.234  13.460
14455W        W86126   6.330   1.977  13.578
14456W        W86127   3.392  15.003  12.573
14457W        W86128  32.483  31.185  13.792
14458W        W86129  15.728  35.877  14.742
14459W        W86130  20.097  41.014   4.698
14460W        W86131  23.254  22.065   0.830
14461W        W86132  20.860  29.833  10.657
14462W        W86133  42.956  31.549   1.795
14463W        W86134  18.241  44.006  12.498
14464W        W86135  10.078  13.653   1.661
14465W        W86136   5.427  32.816   2.874
14466W        W86137   3.536  41.589   4.261
14467W        W86138  43.692  16.271  14.723
14468W        W86139   8.711  42.778   3.187
14469W        W86140  27.201   7.783  12.479
14470W        W86141  13.256   4.537   1.441
14471W        W86142  26.736  21.485   1.333
14472W        W86143  26.088   7.841   2.588
14473W        W86144  34.604   1.689  13.389
14474W        W86145  33.435  12.690   3.825
14475W        W86146   3.266  41.954   3.978
14476W        W86147  34.488  13.606   3.050
14477W        W86148  39.803  39.429  14.725
14478W        W86149  26.185  39.428  13.908
14479W        W86150   1.943  31.951  11.773
14480W        W86151   5.134   6.694  12.223
14481W        W86152  44.856  23.413   4.315
14482W        W86153  15.603   1.746   2.318
14483W        W86154  35.407   6.309   4.574
14484W        W86155  44.352   8.140   2.948
14485W        W86156  36.564   5.237  12.362
14486W        W86157   6.759   3.926   4.098
14487W        W86158   7.923  34.206  10.775
14488W        W86159  36.105  31.402   2.631
14489W        W86160  21.992  44.761   0.345
14490W        W86161  22.088  35.649  12.884
14491W        W86162  38.013  21.086   0.369
14492W        W86163  18.271  18.573  11.556
14493W        W86164  15.794   1.099   2.700
14494W        W86165  15.039  31.672  11.131
14495W        W86166  12.970  29.399   4.621
14496W        W86167  25.875  39.140  12.111
14497W        W86168  30.705  25.519   5.078
14498W        W86169  24.508  11.945  12.501
14499W        W86170  27.341   6.796   5.400
14500W        W86171  19.580  25.330   1.653
14501W        W86172   6.887  21.050   4.214
14502W        W86173  23.105  24.757   4.336
14503W        W86174  30.071  30.917  13.405
14504W        W86175  25.577  12.576   1.167
14505W        W86176  17.993   5.646   9.605
14506W        W86177  13.051  41.811  12.963
14507W        W86178  24.970  43.791   4.279
14508W        W86179  33.044  38.023   4.334
14509W        W86180  41.362  36.620   3.518
14510W        W86181   1.528  19.551  13.558
14511W        W86182  27.994  12.618  12.171
14512W        W86183   0.989  25.186   4.576
14513W        W86184  35.613   4.924  13.802
14514W        W86185  28.490  36.808  11.661
14515W        W86186  23.858  18.106  10.177
14516W        W86187  11.828  10.153  14.472
14517W        W86188   3.698  42.394   2.685
14518W        W86189  21.498   6.147   1.947
14519W        W86190  20.755  38.805   4.571
14520W        W86191  43.018  11.885  13.262
14521W        W86192  33.036  33.406  10.464
14522W        W86193   5.931  20.794  11.940
14523W        W86194  36.120  37.312   9.827
14524W        W86195  22.635  32.007   4.564
14525W        W86196  38.375   8.920   3.363
14526W        W86197  27.170  11.139  14.812
14527W        W86198  41.338   3.847  14.020
14528W        W86199  15.628  34.665   2.251
14529W        W86200  14.036   4.237  13.025
14530W        W86201   6.641  22.436   1.973
14531W        W86202  26.852  29.052   3.851
14532W        W86203  40.427  42.504   4.678
14533W        W86204   4.387  44.448  11.379
14534W        W86205  22.135  40.270  13.523
14535W        W86206  14.274   9.296  14.251
14536W        W86207  42.926   2.681   1.471
14537W        W86208   9.410  26.737   3.847
14538W        W86209  43.029  18.740   2.720
14539W        W86210  42.818   1.371  11.179
14540W        W86211  44.796  29.811  11.039
14541W        W86212   4.324  23.113  14.088
14542W        W86213  39.433  11.612  11.251
14543W        W86214   8.600   9.813  14.487
14544W        W86215  19.243  10.583   0.533
14545W        W86216  13.831  10.964  11.647
14546W        W86217  40.995  23.452   3.500
14547W        W86218   1.763  27.681   0.264
14548W        W86219  32.843  28.425   4.034
14549W        W86220  41.064   1.492   1.801
14550W        W86221  33.476  16.804   4.191
14551W        W86222   9.234  29.166  10.617
14552W        W86223  27.047  33.096   1.562
14553W        W86224  11.135   1.752   3.284
14554W        W86225  36.915   7.723   1.138
14555W        W86226  21.118  18.231   4.748
14556W        W86227  13.946   7.225   3.821
14557W        W86228  23.166  20.446  11.673
14558W        W86229  44.555   3.263  12.526
14559W        W86230  27.326  17.085  13.883
14560W        W86231  12.411  18.814   0.946
14561W        W86232  19.766  18.256   2.251
14562W        W86233   3.502  38.513   0.956
14563W        W86234  28.134  40.116   1.513
14564W        W86235  28.003  29.926   3.173
14565W        W86236  28.615  27.964   3.162
14566W        W86237  27.519   8.670  13.982
14567W        W86238  25.116   0.798   3.160
14568W        W86239  27.220  12.348   0.502
14569W        W86240  27.140   0.987   1.778
14570W        W86241   0.208  12.249   1.833
14571W        W86242  32.985  28.732  14.030
14572W        W86243   5.811  34.548   0.768
14573W        W86244  17.894  16.765   3.474
14574W        W86245  28.940  10.292  13.003
14575W        W86246  44.415  44.489   2.853
14576W        W86247  12.898  43.444   2.157
14577W        W86248  30.469   0.915   0.637
14578W        W86249  16.429  42.972   4.878
14579W        W86250   9.295  27.114   0.343
14580W        W86251  17.134   8.027   5.064
14581W        W86252  28.855  40.106  10.574
14582W        W86253   7.260  36.338   1.332
14583W        W86254  36.094  39.165   1.737
14584W        W86255   2.938  22.612   0.030
14585W        W86256  37.584  36.011  13.817
14586W        W86257  13.097  32.143   0.402
14587W        W86258  14.591  13.784  11.234
14588W        W86259  42.758  35.172   2.391
14589W        W86260   8.475  22.211   2.045
14590W        W86261  10.698  11.953   1.750
14591W        W86262  43.276  16.887  14.254
14592W        W86263   3.445  30.641   3.341
14593W        W86264  12.659  31.441  13.822
14594W        W86265  22.480  30.092  12.545
14595W        W86266  30.445  11.748  11.667
14596W        W86267  12.640  10.647  13.576
14597W        W86268  27.596  44.179  12.004
14598W        W86269  21.759  20.720   2.641
14599W        W86270  43.664   1.309  13.955
14600W        W86271  12.356   2.842   1.430
14601W        W86272  39.794  27.063   0.987
14602W        W86273  44.207  12.066  12.576
14603W        W86274  35.170  34.426   2.549
14604W        W86275  13.186  43.930   4.497
14605W        W86276   6.971  22.770   0.805
14606W        W86277   5.825  42.754   3.394
14607W        W86278  14.695  22.576   2.684
14608W        W86279  11.784  30.740  13.855
14609W        W86280  28.671  44.563  10.763
14610W        W86281   8.732  32.019   3.224
14611W        W86282  12.187  32.380  12.766
14612W        W86283  10.885  32.499   1.866
14613W        W86284  10.785  12.405   1.978
14614W        W86285  24.544  22.279  11.843
14615W        W86286   8.741  10.703  11.654
14616W        W86287  38.962  24.465   0.859
14617W        W86288  35.471  20.010   1.785
14618W        W86289  41.843  44.877  14.659
14619W        W86290  40.854  19.475   3.159
14620W        W86291  16.588  29.098  11.065
14621W        W86292  21.703  28.563   4.677
14622W        W86293  20.000   7.706   4.226
14623W        W86294   3.360  20.278  13.871
14624W        W86295  42.417  31.620   3.755
14625W        W86296  37.257  23.226   3.595
14626W        W86297  19.269   0.295  11.896
14627W        W86298  37.419  14.689   1.504
14628W        W86299  16.593   9.175  13.396
14629W        W86300  24.249   0.435   4.005
14630W        W86301  36.025   3.631   2.774
14631W        W86302  36.622  19.547  10.721
14632W        W86303   5.836  26.983   1.003
14633W        W86304  25.231  22.315  11.550
14634W        W86305  15.613   3.764  14.487
14635W        W86306   1.541  11.250  10.692
14636W        W86307  30.862  11.226   1.309
14637W        W86308  30.640  19.638   3.818
14638W        W86309  33.524  28.428  12.350
14639W        W86310  11.289  23.257   3.311
14640W        W86311   1.903  39.277   3.378
14641W        W86312  28.454  37.413  14.064
14642W        W86313   6.650  20.104   4.564
14643W        W86314  18.204   8.449   1.229
14644W        W86315  17.383  44.189  12.087
14645W        W86316  31.473   8.859  11.501
14646W        W86317  28.381  19.217  14.776
14647W        W86318   8.618  14.690  13.153
14648W        W86319   6.110  15.680  11.536
14649W        W86320  42.566  25.572  12.941
14650W        W86321  27.562   0.249  11.221
14651W        W86322   3.856  18.567  12.774
14652W        W86323  19.555   9.461  11.504
14653W        W86324  26.681  40.337  11.437
14654W        W86325  15.546  43.977   2.638
14655W        W86326   0.430  25.600   1.136
14656W        W86327  39.768  36.561  14.021
14657W        W86328  27.934  38.880   5.050
14658W        W86329  22.033  17.629   0.451
14659W        W86330  10.412   2.992  13.072
14660W        W86331  40.401  33.075  12.098
14661W        W86332  23.581  15.112   1.838
14662W        W86333  20.241  11.353  14.418
14663W        W86334  20.733   2.868  14.747
14664W        W86335  29.834   8.200   0.538
14665W        W86336  26.738  20.739  12.534
14666W        W86337   0.978  26.656   1.005
14667W        W86338  43.233  24.077  10.521
14668W        W86339  16.123  39.878  12.825
14669W        W86340  36.388   5.438  14.767
14670W        W86341   0.537  10.854   1.845
14671W        W86342   9.042  43.924  14.431
14672W        W86343   8.309   8.998  13.077
14673W        W86344  44.856  20.839   3.225
14674W        W86345  21.681  11.278  10.856
14675W        W86346  39.296  41.311  14.970
14676W        W86347   6.712  28.885   3.387
14677W        W86348  16.773  41.962   0.164
14678W        W86349   5.799  11.188  11.938
14679W        W86350   5.321  27.022   1.177
14680W        W86351  27.976  29.650  10.839
14681W        W86352  30.584  22.278  13.461
14682W        W86353  15.347   7.299  11.052
14683W        W86354  23.533  16.555   3.833
14684W        W86355   2.353  39.448  12.538
14685W        W86356  36.471  40.742  14.778
14686W        W86357   3.926  16.549   0.787
14687W        W86358  22.379   7.689  10.777
14688W        W86359  15.607  33.444   3.653
14689W        W86360  18.976   6.585   3.240
14690W        W86361  19.315  27.951   0.584
14691W        W86362  44.882  10.830   2.455
14692W        W86363  18.230  25.238  11.588
14693W        W86364   7.843  41.836  10.587
14694W        W86365  41.995  27.507   1.841
14695W        W86366  37.420  26.095   0.044
14696W        W86367  21.176  22.219   4.984
14697W        W86368   4.193  38.498   4.007
14698W        W86369  13.812  25.461   3.277
14699W        W86370  36.532  14.112   2.855
14700W        W86371  26.557  27.483  14.933
14701W        W86372  28.424  34.003  13.267
14702W        W86373  37.541  26.633  14.304
14703W        W86374   7.586  37.608   1.950
14704W        W86375  26.211   2.320  11.570
14705W        W86376  15.063  41.937   0.914
14706W        W86377  23.469  44.167   4.090
14707W        W86378   4.734  25.128   1.449
14708W        W86379   5.941  12.662  10.402
14709W        W86380  44.832   9.352  12.457
14710W        W86381  25.594  10.188   3.171
14711W        W86382  17.171  12.395  12.040
14712W        W86383  15.764  32.154  11.083
14713W        W86384  27.778  11.348   1.880
14714W        W86385  35.255  42.613  12.643
14715W        W86386  11.827  23.778  13.515
14716W        W86387   0.229  27.338   2.946
14717W        W86388  23.083  38.416  12.847
14718W        W86389  20.696  14.132   1.800
14719W        W86390  24.086  30.618   1.624
14720W        W86391  19.223  36.486   1.383
14721W        W86392  26.111  19.965  14.396
14722W        W86393  41.457  25.383   4.562
14723W        W86394  36.086  42.498   5.098
14724W        W86395   9.364  24.068   1.770
14725W        W86396  10.743  43.745  13.871
14726W        W86397   2.293  14.538   4.246
14727W        W86398  37.760  27.025  14.868
14728W        W86399  11.421  21.743  13.132
14729W        W86400  20.209   6.476   3.618
14730W        W86401  33.545  23.978   5.063
14731W        W86402  39.437  12.802  13.829
14732W        W86403   9.827   4.963  11.196
14733W        W86404  21.817  15.314   2.231
14734W        W86405  30.447  13.128  14.372
14735W        W86406  38.854  30.281  12.802
14736W        W86407  40.518  23.126   1.226
14737W        W86408  12.905  25.727   0.382
14738W        W86409  34.986  42.563   1.563
14739W        W86410  19.154  29.646   3.737
14740W        W86411  40.246  11.391  14.401
14741W        W86412  16.268   7.172   5.153
14742W        W86413  43.357   1.562  11.297
14743W        W86414  34.043  19.533  12.573
14744W        W86415  18.812  30.095  13.325
14745W        W86416  12.191  23.496  10.669
14746W        W86417  36.687   6.401  10.797
14747W        W86418  23.335  13.690  10.707
14748W        W86419  22.094  36.958   1.078
14749W        W86420  27.175  41.790   4.200
14750W        W86421  44.080  43.745   0.897
14751W        W86422   4.775   8.829  11.654
14752W        W86423  16.639  30.639   1.159
14753W        W86424   8.882  32.153   4.119
14754W        W86425  31.590  40.848  13.769
14755W        W86426   7.188  37.114  11.913
14756W        W86427   0.214   8.463   3.703
14757W        W86428  34.496   8.447  11.755
14758W        W86429  41.051  17.647   1.332
14759W        W86430   6.952   6.634   3.735
14760W        W86431   0.697   2.650   1.929
14761W        W86432   6.321  19.604  12.938
14762W        W86433  23.584  26.674  12.562
14763W        W86434  21.415  27.642  12.542
14764W        W86435  39.500  18.057   0.379
14765W        W86436  13.587  38.238   4.742
14766W        W86437  27.852   8.668  10.565
14767W        W86438  10.903   9.366   2.655
14768W        W86439  33.457  21.958   3.690
14769W        W86440  26.175  40.408  12.889
14770W        W86441  38.337  34.508   3.161
14771W        W86442  27.690  17.813   4.080
14772W        W86443  16.758  24.550  10.671
14773W        W86444  44.726   1.267   1.628
14774W        W86445  15.733   2.882   2.917
14775W        W86446  21.140   0.907  13.255
14776W        W86447   8.901   1.558  12.076
14777W        W86448  29.161  16.771  12.133
14778W        W86449  12.309  37.640  10.700
14779W        W86450  42.693  42.287   2.526
14780W        W86451  39.097  39.486  11.753
14781W        W86452   3.872  35.375  13.403
14782W        W86453  37.150  12.843   4.560
14783W        W86454  39.039   1.463  11.574
14784W        W86455  14.695  17.081  14.809
14785W        W86456   2.065  10.319  13.045
14786W        W86457  13.774  25.674  13.487
14787W        W86458  18.567  43.933   1.774
14788W        W86459  11.855  28.367  14.051
14789W        W86460   2.515   3.036  14.808
14790W        W86461   6.930  26.166  14.839
14791W        W86462  30.814  29.107   4.448
14792W        W86463  26.588  12.393  13.294
14793W        W86464   6.789  34.433   2.845
14794W        W86465   9.623  10.343   0.307
14795W        W86466  18.817  14.022   4.905
14796W        W86467  29.085  10.958  11.037
14797W        W86468  38.995  43.348  14.047
14798W        W86469   0.790  21.271  11.545
14799W        W86470  32.455  31.087   2.162
14800W        W86471  10.083  44.731   0.910
14801W        W86472  39.808  36.424   3.684
14802W        W86473  38.841  11.173   3.420
14803W        W86474  25.907  43.266   3.397
14804W        W86475   5.168  18.605   2.552
14805W        W86476  12.691   1.702   0.544
14806W        W86477  28.742  41.520  10.797
14807W        W86478   0.263  21.247  11.538
14808W        W86479   0.718  24.765  11.947
14809W        W86480  21.818   4.744  11.083
14810W        W86481   8.661  14.329  11.148
14811W        W86482   5.301  24.905   3.602
14812W        W86483  40.093  26.043  14.782
14813W        W86484  18.256  13.566   2.985
14814W        W86485   1.404  36.975   0.934
14815W        W86486  15.334  30.602  14.564
14816W        W86487  22.537   9.326   0.214
14817W        W86488  41.410  13.416   2.266
14818W        W86489  29.408  19.104   2.125
14819W        W86490  41.179  15.082  14.353
14820W        W86491   9.021   3.447   5.059
14821W        W86492  35.443  33.587   0.178
14822W        W86493  31.639  28.101   1.641
14823W        W86494  30.454  20.676  14.849
14824W        W86495  13.818  44.240   1.752
14825W        W86496  25.717  29.161  12.017
14826W        W86497  20.055   5.616  11.188
14827W        W86498  42.287   0.933   4.398
14828W        W86499  29.895   7.141   3.259
14829W        W86500  32.931   3.721  10.616
14830W        W86501   7.707   3.967  10.677
14831W        W86502   6.576  37.137   4.151
14832W        W86503  13.622  27.912   0.876
14833W        W86504   1.136  22.110  13.484
14834W        W86505  29.967  38.568  14.047
14835W        W86506  22.820  30.177   0.544
14836W        W86507   5.687  20.668  11.492
14837W        W86508   5.249  28.663   0.037
14838W        W86509  29.858   0.499   2.816
14839W        W86510  22.096  27.194   0.974
14840W        W86511  31.577  26.680  10.583
14841W        W86512  23.085  26.985   1.477
14842W        W86513   8.398   5.961  13.931
14843W        W86514  29.131  43.735   2.854
14844W        W86515  43.062  39.340  10.921
14845W        W86516  18.356   5.085   0.952
14846W        W86517  33.122  17.248   0.188
14847W        W86518  40.700  34.573  12.006
14848W        W86519   4.299  12.770   0.728
14849W        W86520   5.813  12.647  12.435
14850W        W86521  17.024  37.092   2.525
14851W        W86522  28.578   1.313  11.113
14852W        W86523  30.114   6.212  11.619
14853W        W86524  27.747   0.069   4.215
14854W        W86525  40.376  14.817  10.729
14855W        W86526  12.533  20.426   3.755
14856W        W86527  33.691  19.630  12.976
14857W        W86528  10.140  16.793  12.428
14858W        W86529  39.128  33.978  10.696
14859W        W86530  27.021  24.188   2.142
14860W        W86531  32.803  23.564   3.559
14861W        W86532  25.188  12.826   1.437
14862W        W86533   3.874  22.495  11.652
14863W        W86534  28.228   2.988   2.913
14864W        W86535   2.478  30.092  13.448
14865W        W86536  28.580   1.808   1.666
14866W        W86537  42.213  40.758   3.633
14867W        W86538  41.515  25.010   0.496
14868W        W86539  17.704   4.679  13.411
14869W        W86540  36.449  12.373  10.788
14870W        W86541  12.429   1.341   3.973
14871W        W86542  11.792  31.460   2.894
14872W        W86543  17.159  13.129   2.664
14873W        W86544  38.906  35.848  10.548
14874W        W86545  32.927  12.419  12.966
14875W        W86546  20.252  33.061   2.693
14876W        W86547  27.148  22.259  14.020
14877W        W86548  29.557  12.351  10.486
14878W        W86549   4.150  12.972  13.997
14879W        W86550  25.435  41.430   0.320
14880W        W86551  40.187  32.286  12.356
14881W        W86552  20.585   0.802  14.812
14882W        W86553  34.250  31.476  12.376
14883W        W86554  44.867  38.552  13.682
14884W        W86555  16.906   0.058  11.128
14885W        W86556  27.410  27.823   2.323
14886W        W86557  21.616  39.062   1.705
14887W        W86558  36.797  17.437  14.225
14888W        W86559  13.390  39.883  10.756
14889W        W86560   5.707  31.331   4.232
14890W        W86561  17.595  42.951   0.854
14891W        W86562  34.198   3.729   3.394
14892W        W86563   7.630  34.147  11.186
14893W        W86564  33.100  24.536  13.534
14894W        W86565  27.878  11.896  10.650
14895W        W86566  28.952   2.822   0.976
14896W        W86567  12.937  40.046  13.992
14897W        W86568  26.537  12.861  12.032
14898W        W86569  32.069   8.244   2.126
14899W        W86570   3.818  44.963   0.921
14900W        W86571  37.905  13.096   3.935
14901W        W86572  40.254  28.436  12.352
14902W        W86573   8.251  29.082  11.698
14903W        W86574  27.504  13.676  10.705
14904W        W86575  22.795   1.845   3.594
14905W        W86576  21.994  17.484  11.265
14906W        W86577  32.618  34.854   1.226
14907W        W86578  26.885  32.468   0.712
14908W        W86579   2.076  17.185   1.823
14909W        W86580  41.936  31.092  11.200
14910W        W86581  20.154  27.496  14.486
14911W        W86582   8.337   9.329   2.479
14912W        W86583  15.139  38.362  11.217
14913W        W86584  14.069  12.023  14.319
14914W        W86585  44.509  41.103   3.207
14915W        W86586   4.728  16.308   1.238
14916W        W86587  31.285  16.243  14.444
14917W        W86588  35.985   7.117  11.337
14918W        W86589  20.468  44.709  13.000
14919W        W86590  12.074  41.947   2.936
14920W        W86591  24.164  32.615   0.428
14921W        W86592  28.516  11.618  13.853
14922W        W86593  15.526  19.947  10.787
14923W        W86594  18.015  41.562   4.277
14924W        W86595  19.727  16.055   2.414
14925W        W86596  33.765  34.247   3.322
14926W        W86597  23.172  43.480  13.564
14927W        W86598  17.296  42.344  10.486
14928W        W86599  21.709   3.388  14.892
14929W        W86600  38.851  32.395   3.309
14930W        W86601  28.962  22.606   1.388
14931W        W86602  14.133  13.401  12.593
14932W        W86603   0.757  17.616  13.041
14933W        W86604  28.410  28.068   4.910
14934W        W86605  12.573   8.214   4.315
14935W        W86606  25.700   9.345  11.577
14936W        W86607  16.128  12.003   4.188
14937W        W86608  17.739   8.947  14.952
14938W        W86609  18.321  36.962  11.686
14939W        W86610  26.346  15.179  12.107
14940W        W86611  20.228  30.918   0.330
14941W        W86612  25.255  38.606   0.880
14942W        W86613  29.699   0.045  11.614
14943W        W86614   2.786  21.207   4.068
14944W        W86615  36.297  39.326  13.286
14945W        W86616  17.946   4.405  12.433
14946W        W86617   9.548  43.707   4.096
14947W        W86618  44.796  37.615  13.818
14948W        W86619  39.608  35.441   1.838
14949W        W86620  25.505  40.059   4.653
14950W        W86621  36.629   0.466   0.254
14951W        W86622  29.490   3.418  14.023
14952W        W86623  15.174  28.001  12.332
14953W        W86624   8.372  21.148  14.818
14954W        W86625  19.055  38.577  10.477
14955W        W86626  16.178  21.511  14.753
14956W        W86627   1.440   4.168   4.513
14957W        W86628  17.449  37.979  14.913
14958W        W86629   3.374   4.929   4.628
14959W        W86630  15.126   7.090  10.641
14960W        W86631  18.564  14.359   4.603
14961W        W86632  21.980  22.847  11.021
14962W        W86633  37.098  16.439   1.288
14963W        W86634  32.787  31.959  11.296
14964W        W86635   4.036  19.153   2.576
14965W        W86636   1.858  30.077  12.810
14966W        W86637  24.989  35.024  13.580
14967W        W86638  11.818  37.751   4.424
14968W        W86639   6.817  43.527  14.689
14969W        W86640  33.328   8.168  14.754
14970W        W86641  17.792  44.390   4.103
14971W        W86642  21.964   7.711   2.319
14972W        W86643  15.865  17.773  12.080
14973W        W86644  15.212  21.699   3.087
14974W        W86645   2.411  31.277  12.865
14975W        W86646  14.584  40.412  14.915
14976W        W86647  16.294  37.536   1.746
14977W        W86648   0.390  28.676  11.116
14978W        W86649  31.435   3.877  11.548
14979W        W86650  27.337  20.496   2.172
14980W        W86651  23.520  32.993  11.126
14981W        W86652  42.791  28.391   4.824
14982W        W86653   9.320  36.473  12.453
14983W        W86654  25.077  44.508   2.815
14984W        W86655  25.640  14.601  13.398
14985W        W86656  28.904  13.661  10.769
14986W        W86657  17.968  43.338   1.405
14987W        W86658  42.517  33.610   0.324
14988W        W86659   3.504   7.391  13.052
14989W        W86660  44.316   1.532  14.230
14990W        W86661  14.340  41.933   1.421
14991W        W86662  43.864   7.936  14.156
14992W        W86663  20.471  44.403   1.773
14993W        W86664  35.576  14.544  13.435
14994W        W86665  34.996  22.357   1.894
14995W        W86666  34.351  29.909   0.948
14996W        W86667   2.490  12.559   2.138
14997W        W86668  24.597  26.508   2.680
14998W        W86669   8.943  24.101   5.102
14999W        W86670  35.628  28.074  13.527
15000W        W86671   1.675  12.973   0.972
15001W        W86672  18.187  32.401  11.561
15002W        W86673  14.612  15.570  12.581
15003W        W86674   9.833  14.696  12.168
15004W        W86675  11.782  39.826  12.431
15005W        W86676  43.419   9.827  10.948
15006W        W86677  42.548   5.197   3.944
15007W        W86678  40.845   2.889  13.270
15008W        W86679   5.142  19.973   4.590
15009W        W86680   7.195   4.643   1.175
15010W        W86681  40.401  33.869   0.742
15011W        W86682  26.454  22.505   1.217
15012W        W86683   5.383  34.609   2.770
15013W        W86684  28.226  32.731  11.152
15014W        W86685   2.776   3.187  13.859
15015W        W86686  17.556  44.964   3.721
15016W        W86687  28.450  29.964   2.832
15017W        W86688  28.621  33.046  14.296
15018W        W86689   9.073  36.531  12.903
15019W        W86690  35.437  14.059  11.181
15020W        W86691  38.707  28.439  12.578
15021W        W86692  39.043  38.014  14.746
15022W        W86693   2.291  10.385   3.842
15023W        W86694  40.311  20.255  10.972
15024W        W86695  38.555   5.445   3.073
15025W        W86696  43.600  34.444   4.147
15026W        W86697  24.985  19.304  14.829
15027W        W86698  41.808  12.515   4.967
15028W        W86699  31.860  28.220   1.163
15029W        W86700  26.450  35.486  12.966
15030W        W86701  38.485   1.893   2.515
15031W        W86702  16.509  40.632  10.467
15032W        W86703  41.336  29.493  12.570
15033W        W86704  32.490  25.020   5.191
15034W        W86705  14.596  10.653   2.883
15035W        W86706  43.715  19.435  12.788
15036W        W86707   0.846  18.571   3.072
15037W        W86708   8.546  21.572   3.625
15038W        W86709  29.493  10.155   2.338
15039W        W86710  30.887  28.657  11.572
15040W        W86711  11.762  37.483  12.052
15041W        W86712  15.850  10.712   0.310
15042W        W86713  22.647   6.091   3.833
15043W        W86714  34.167  29.017   4.462
15044W        W86715  17.370  40.895  12.975
15045W        W86716   8.765   4.737  10.922
15046W        W86717   7.418  17.668  10.774
15047W        W86718  20.129   7.064  12.504
15048W        W86719  37.063   4.689   4.072
15049W        W86720   7.419  41.113   2.306
15050W        W86721  41.430  38.127  10.894
15051W        W86722  16.350   1.863  13.078
15052W        W86723  34.926  43.512  10.460
15053W        W86724  40.924  28.168  11.459
15054W        W86725  10.887  38.979   4.273
15055W        W86726   7.215  20.821  14.930
15056W        W86727  29.897  25.976  12.945
15057W        W86728   6.712  21.567   0.019
15058W        W86729  29.147  13.002   0.210
15059W        W86730  37.392  39.900   3.656
15060W        W86731  33.984  35.041   4.057
15061W        W86732  28.640  44.856   1.371
15062W        W86733  11.880  23.656   2.708
15063W        W86734  34.953  24.019   0.633
15064W        W86735  31.320   3.782  14.632
15065W        W86736  19.228  16.282  12.071
15066W        W86737  14.371  30.790  11.107
15067W        W86738  34.674  27.567   0.619
15068W        W86739  11.329  35.510  14.979
15069W        W86740   5.727   7.437  13.456
15070W        W86741  28.512   6.964   3.693
15071W        W86742   5.891  17.523  11.534
15072W        W86743  23.708  31.615   4.160
15073W        W86744  28.615  29.843   4.700
15074W        W86745  36.026   2.334   4.157
15075W        W86746  20.225  24.783  11.037
15076W        W86747  41.415   7.874  13.405
15077W        W86748   5.956  12.097   2.832
15078W        W86749  42.618  15.705  11.045
15079W        W86750  23.446  31.116  14.919
15080W        W86751  30.268  24.413   1.184
15081W        W86752  13.371  27.925  10.732
15082W        W86753   1.647  44.403  13.114
15083W        W86754  19.522  10.490   2.333
15084W        W86755   7.687  13.253  13.772
15085W        W86756  17.774  35.380  11.209
15086W        W86757  13.061   2.678  12.906
15087W        W86758   3.430   1.344  11.758
15088W        W86759  10.530  10.332  12.931
15089W        W86760   3.752  17.170  11.388
15090W        W86761  37.058  11.262   3.169
15091W        W86762  12.904  25.026   3.123
15092W        W86763  28.356   3.305   2.213
15093W        W86764  40.664  16.390  11.139
15094W        W86765  30.706  18.645   4.656
15095W        W86766  32.024  20.296   3.336
15096W        W86767  13.273   1.793   0.719
15097W        W86768  16.042   6.449   5.082
15098W        W86769   2.427  23.258   2.187
15099W        W86770  10.679  12.761   3.633
15100W        W86771   4.491  16.502   2.436
15101W        W86772  44.335  38.568  12.419
15102W        W86773  42.658  16.556   4.484
15103W        W86774   9.477  13.574  14.828
15104W        W86775  29.902  28.039  11.471
15105W        W86776  33.981  29.988   1.923
15106W        W86777   9.000  38.025   4.905
15107W        W86778  27.646  24.701   2.638
15108W        W86779   9.675  38.555   0.406
15109W        W86780  10.151  22.404   3.244
15110W        W86781   3.406  17.727  12.015
15111W        W86782  15.162  15.557  12.313
15112W        W86783  22.985  32.404   0.725
15113W        W86784  33.669  44.606   4.962
15114W        W86785  34.867  30.557   0.443
15115W        W86786  44.287  37.487   0.079
15116W        W86787   9.540   4.118   4.098
15117W        W86788  18.281  34.074   3.288
15118W        W86789  17.619  33.126  14.536
15119W        W86790  14.242   8.261   0.865
15120W        W86791  20.215  28.428  12.067
15121W        W86792  24.661   1.075  12.420
15122W        W86793  16.024  19.185   2.930
15123W        W86794  20.929   5.732  14.611
15124W        W86795  39.924   3.489  12.613
15125W        W86796  15.205  13.611  13.438
15126W        W86797  34.819  36.985  13.048
15127W        W86798  22.471  14.234  12.686
15128W        W86799  15.863  17.267  11.545
15129W        W86800  32.225  37.599   0.397
15130W        W86801   2.366  15.463  10.888
15131W        W86802   4.339  26.586  10.609
15132W        W86803   3.319   9.900   1.370
15133W        W86804  21.795  34.664   3.763
15134W        W86805  28.380   5.215   4.101
15135W        W86806  17.943  35.386   2.428
15136W        W86807  14.654  27.623   3.856
15137W        W86808  27.467  12.148  14.029
15138W        W86809  22.912  23.043   1.762
15139W        W86810   6.479  40.847  13.036
15140W        W86811  37.112  36.040  14.044
15141W        W86812  39.360   9.308   0.504
15142W        W86813   2.512  14.740  13.817
15143W        W86814  21.408  23.550  14.439
15144W        W86815  25.265  12.317   0.818
15145W        W86816  39.628   5.690  12.597
15146W        W86817  19.628  14.208   5.382
15147W        W86818  39.584  28.130  11.063
15148W        W86819  25.418  30.227   3.186
15149W        W86820  19.894  11.655  10.390
15150W        W86821  11.327   2.759   1.245
15151W        W86822  37.925  18.266   3.581
15152W        W86823  20.593  35.039  14.758
15153W        W86824  16.404  28.873  13.434
15154W        W86825  43.351  30.868  14.797
15155W        W86826  44.327  40.799   0.273
15156W        W86827   4.368  33.617  12.836
15157W        W86828   6.120   5.747   2.222
15158W        W86829   4.123  20.698  14.864
15159W        W86830   4.484   7.965  12.448
15160W        W86831  42.858   8.685   3.392
15161W        W86832  36.439  25.009  11.118
15162W        W86833  43.358   0.339  13.802
15163W        W86834  23.722  39.988  13.790
15164W        W86835   5.138   3.220  11.692
15165W        W86836  35.270  16.723   0.761
15166W        W86837   2.458   1.872  11.089
15167W        W86838  35.676  36.888  11.962
15168W        W86839  28.441  44.324   0.349
15169W        W86840  42.358  30.957   2.164
15170W        W86841   8.421  20.808  12.461
15171W        W86842  32.563  25.474  12.032
15172W        W86843   6.788  13.360  13.830
15173W        W86844   6.750  21.224   0.981
15174W        W86845  27.401  44.328  11.262
15175W        W86846  39.593  33.535  11.999
15176W        W86847  42.707  24.847   2.968
15177W        W86848  10.735  16.778   2.350
15178W        W86849   1.820  16.863  14.710
15179W        W86850  33.503   1.552   4.670
15180W        W86851  33.611   1.209  13.968
15181W        W86852   7.271  37.422  12.324
15182W        W86853  22.732  21.820  11.676
15183W        W86854   4.952  30.124  14.817
15184W        W86855  38.719   6.829   0.367
15185W        W86856  42.367   7.464   0.295
15186W        W86857   7.871  40.201   1.312
15187W        W86858   6.270  36.497  14.913
15188W        W86859  34.129   5.910   2.812
15189W        W86860  29.169  44.772  11.661
15190W        W86861   4.267  27.277   3.487
15191W        W86862  33.677  11.627  12.453
15192W        W86863  42.114  19.115  11.988
15193W        W86864   0.672  24.693  14.274
15194W        W86865   7.928  18.614   0.180
15195W        W86866  43.862  42.429  13.396
15196W        W86867  24.732  30.449   5.058
15197W        W86868  36.347  23.662   4.547
15198W        W86869  19.262  22.930   4.437
15199W        W86870  31.407  14.161  13.780
15200W        W86871  10.375  33.456   0.914
15201W        W86872  20.430  15.540  11.177
15202W        W86873  25.840   2.190   4.594
15203W        W86874  39.385  14.749  10.472
15204W        W86875  21.053   5.665  10.285
15205W        W86876   0.972  15.277   0.264
15206W        W86877  11.254  35.755  14.476
15207W        W86878  24.591  36.453   4.565
15208W        W86879  10.840   0.237  10.432
15209W        W86880  20.601   0.791   3.679
15210W        W86881   7.475   7.461  11.916
15211W        W86882  35.952  12.762   1.487
15212W        W86883   4.005   7.831   0.807
15213W        W86884  15.253  27.369   2.959
15214W        W86885  15.384   4.310  11.156
15215W        W86886  32.759  33.127  14.221
15216W        W86887  11.131  22.808  11.625
15217W        W86888  33.477  37.838   0.546
15218W        W86889  24.814   0.821   5.096
15219W        W86890  32.069   7.563   3.709
15220W        W86891   1.853  10.721   0.753
15221W        W86892   9.046  18.764  11.941
15222W        W86893   4.245  43.328  14.845
15223W        W86894   0.997   6.709   4.628
15224W        W86895  15.789  37.531   1.583
15225W        W86896   6.472   8.418   0.996
15226W        W86897   6.357  27.263  11.597
15227W        W86898  11.227   1.836   1.725
15228W        W86899  19.632  22.319   0.727
15229W        W86900  37.819   6.991   5.000
15230W        W86901  16.652   1.949   3.323
15231W        W86902  18.948   4.249   1.681
15232W        W86903  39.542  19.763  11.572
15233W        W86904   2.553  22.093   2.399
15234W        W86905   0.457  20.203   1.422
15235W        W86906  43.877  12.964   3.648
15236W        W86907  33.052   4.461   0.895
15237W        W86908  41.294  23.275   0.782
15238W        W86909   5.142   9.809  12.947
15239W        W86910   9.136  16.254   4.663
15240W        W86911  24.201  13.402  13.895
15241W        W86912  39.856  29.846  13.790
15242W        W86913   6.164  16.588  13.484
15243W        W86914  20.712  19.752   4.400
15244W        W86915  13.696   2.597   0.564
15245W        W86916  22.463  43.753   1.654
15246W        W86917  10.700   8.351  12.967
15247W        W86918   8.715   9.964  14.971
15248W        W86919  15.093  42.771   3.426
15249W        W86920  15.328  32.934  13.918
15250W        W86921  36.458  28.225  11.170
15251W        W86922  41.736  23.053   5.051
15252W        W86923  32.864  20.082   0.904
15253W        W86924  25.492  12.381  12.451
15254W        W86925  23.817   8.868   0.838
15255W        W86926  37.443   3.651   1.668
15256W        W86927  12.167   5.283  14.548
15257W        W86928  38.044  25.320   3.804
15258W        W86929  39.912   6.850   2.550
15259W        W86930  25.499  22.502   0.366
15260W        W86931  10.883  37.411  12.308
15261W        W86932  37.064  42.419   3.622
15262W        W86933  13.354   1.996   4.308
15263W        W86934  41.784  21.229   3.355
15264W        W86935  20.731  24.850   4.555
15265W        W86936  21.120   1.931   3.905
15266W        W86937   1.794  26.518   3.105
15267W        W86938  21.161  33.157   3.418
15268W        W86939  21.156  34.614   2.923
15269W        W86940  41.909  19.331   0.345
15270W        W86941  29.721  41.410  14.810
15271W        W86942  17.333   5.766  13.195
15272W        W86943   4.271  23.303  10.663
15273W        W86944   2.227  24.999  13.453
15274W        W86945  32.613  22.998  10.400
15275W        W86946  17.514  20.660   1.909
15276W        W86947  29.388  34.626  11.601
15277W        W86948  24.550  38.575   4.238
15278W        W86949  23.987  20.840   4.103
15279W        W86950  29.457  20.376   3.528
15280W        W86951  20.633   7.176   2.267
15281W        W86952  21.493   8.612   3.395
15282W        W86953   7.355   9.686  10.597
15283W        W86954  25.580  32.634  12.407
15284W        W86955  30.997  42.347   2.947
15285W        W86956  15.282  21.146  13.902
15286W        W86957  17.718  13.082  14.721
15287W        W86958  43.155  10.344   1.760
15288W        W86959  21.595  21.714   1.659
15289W        W86960  25.141   6.971  12.958
15290W        W86961  25.881   4.896   3.567
15291W        W86962  38.821  27.250  13.098
15292W        W86963   1.028   7.024   5.074
15293W        W86964   2.769   7.399  12.493
15294W        W86965   3.688  12.396   3.684
15295W        W86966  12.400   8.255  14.881
15296W        W86967   3.959  30.368   1.408
15297W        W86968   8.848  34.425  12.572
15298W        W86969  21.775  42.353   2.753
15299W        W86970   9.331   8.270  11.142
15300W        W86971  19.129  32.127  11.713
15301W        W86972  24.821  11.994   0.893
15302W        W86973   3.299  27.006   4.630
15303W        W86974  22.605  30.068   1.848
15304W        W86975  37.406  36.404  12.469
15305W        W86976  40.417  10.649   4.544
15306W        W86977  10.618  44.232   1.296
15307W        W86978   5.725  18.693  11.008
15308W        W86979  15.456  26.589   5.069
15309W        W86980  36.847   3.712   4.209
15310W        W86981  34.216  10.803  14.326
15311W        W86982  43.518  29.195  12.936
15312W        W86983  18.234  26.241   2.748
15313W        W86984  11.364  27.038   2.712
15314W        W86985  17.249  34.715   3.629
15315W        W86986  43.581  35.086  14.850
15316W        W86987  39.760  40.497  14.189
15317W        W86988   1.293  22.536   1.165
15318W        W86989  28.830  33.582   3.468
15319W        W86990  14.595  21.181  12.658
15320W        W86991  13.280  21.949   4.874
15321W        W86992   5.915  41.471   1.677
15322W        W86993  20.608   4.322  12.139
15323W        W86994  42.183  19.668  10.731
15324W        W86995  41.974  35.963  11.646
15325W        W86996  37.452  16.081  12.154
15326W        W86997  27.390  21.092  14.567
15327W        W86998  28.726   5.075  14.784
15328W        W86999  18.308  42.943   1.323
15329W        W87000  36.760   1.249   1.881
15330W        W87001  29.076  31.629   2.685
15331W        W87002  39.755  42.822  11.740
15332W        W87003   4.381  38.110   1.874
15333W        W87004  17.169  29.776   4.500
15334W        W87005  34.602  30.432  14.582
15335W        W87006  11.368  34.927   0.340
15336W        W87007  35.993  38.848   3.678
15337W        W87008  27.194  20.269   1.463
15338W        W87009  36.350   3.480   3.722
15339W        W87010  40.385  43.015   2.971
15340W        W87011  26.061  25.067   0.643
15341W        W87012   3.496  17.617  12.522
15342W        W87013  44.485  17.085  12.749
15343W        W87014   2.998  33.582   2.141
15344W        W87015  31.304   6.879  12.525
15345W        W87016   7.272  17.276   4.595
15346W        W87017   7.401  39.299   2.290
15347W        W87018  43.364  35.679   1.387
15348W        W87019  32.835  21.715  12.935
15349W        W87020  10.694   6.329  10.764
15350W        W87021  23.206  27.811   3.975
15351W        W87022   0.628  21.315   5.193
15352W        W87023  17.303  32.152   0.953
15353W        W87024  19.682   9.765   4.827
15354W        W87025  28.890   7.319   4.291
15355W        W87026  34.921  40.716   1.468
15356W        W87027  42.442   8.487   1.642
15357W        W87028  17.104  20.010   1.824
15358W        W87029  15.829  14.067   1.240
15359W        W87030  22.510  33.580   1.246
15360W        W87031   2.888  18.540  11.522
15361W        W87032  23.698   3.557   3.701
15362W        W87033  28.202  36.453  14.431
15363W        W87034  24.274  39.369  14.365
15364W        W87035  17.126   7.735  11.355
15365W        W87036   5.682  29.102   1.024
15366W        W87037  12.018  24.950  13.802
15367W        W87038  42.842   2.158   2.317
15368W        W87039  13.656  40.571   1.903
15369W        W87040  14.683  42.409  12.496
15370W        W87041  10.710  24.611  14.991
15371W        W87042  27.486   4.377   1.822
15372W        W87043   2.404  44.151   4.988
15373W        W87044  33.353   5.250  13.482
15374W        W87045  25.153  44.691   2.329
15375W        W87046  23.022  19.566  14.389
15376W        W87047   6.172  23.770  14.703
15377W        W87048  18.887  12.474   2.363
15378W        W87049   7.358  43.760   1.869
15379W        W87050   9.819   8.238  12.595
15380W        W87051  41.197   6.120   1.305
15381W        W87052  36.681  16.789  14.948
15382W        W87053   1.232  43.176   1.403
15383W        W87054  11.369  33.485   3.611
15384W        W87055   3.828  11.137   3.327
15385W        W87056   9.764  13.131  11.708
15386W        W87057  29.968  36.375   4.576
15387W        W87058  14.663  39.363  13.051
15388W        W87059  37.876  39.393  12.205
15389W        W87060  44.950  23.626  10.403
15390W        W87061  29.514  25.777  10.627
15391W        W87062   1.742   2.437   4.014
15392W        W87063  12.504  43.079   4.164
15393W        W87064  22.260  34.511   1.142
15394W        W87065  16.203  14.031   3.116
15395W        W87066  14.041  41.919   0.914
15396W        W87067  28.932   8.121   2.403
15397W        W87068  12.193  31.443   3.264
15398W        W87069   8.819  36.537  13.795
15399W        W87070  28.205   9.886   4.274
15400W        W87071  12.097  14.816   3.441
15401W        W87072  39.996  43.769   0.531
15402W        W87073  15.602  28.317   3.829
15403W        W87074  19.047   1.339  10.636
15404W        W87075  33.201  17.711  13.137
15405W        W87076  42.468  31.160   4.048
15406W        W87077  35.577  24.207   4.577
15407W        W87078  31.414   0.839  10.564
15408W        W87079  42.694  18.934   1.729
15409W        W87080  32.268  32.041  11.374
15410W        W87081  43.260  13.161  13.840
15411W        W87082  22.001  12.771  13.515
15412W        W87083  31.600  24.998  12.175
15413W        W87084  37.634  23.810   3.191
15414W        W87085   4.323  34.409   2.017
15415W        W87086  13.318  35.278  13.407
15416W        W87087  32.342  24.472  12.136
15417W        W87088  29.959  42.844   0.847
15418W        W87089  39.260  36.512  12.664
15419W        W87090  36.596   6.918  10.801
15420W        W87091  21.021  40.542  13.768
15421W        W87092  33.275  43.496  11.178
15422W        W87093  33.838  37.294   2.793
15423W        W87094  44.894   3.382   1.727
15424W        W87095   0.377  31.492   4.544
15425W        W87096  11.411   7.784   0.837
15426W        W87097  30.068   8.212  14.551
15427W        W87098  34.657   2.437  12.189
15428W        W87099  28.992  10.669  12.600
15429W        W87100   0.583   5.120  12.159
15430W        W87101  38.111  29.996   0.232
15431W        W87102  10.367  11.875   3.184
15432W        W87103  15.438  27.755   9.983
15433W        W87104  27.976   1.526   1.185
15434W        W87105   1.708  14.837  13.546
15435W        W87106  28.636   9.685  12.010
15436W        W87107  21.294  13.810  12.378
15437W        W87108  18.785  12.523   4.082
15438W        W87109   7.633  16.286  14.328
15439W        W87110   5.228  30.047   3.929
15440W        W87111   6.149   6.388   3.702
15441W        W87112   4.101   9.312   2.288
15442W        W87113  39.686  28.511   4.554
15443W        W87114  14.349  29.656   0.404
15444W        W87115  27.409  18.996   2.828
15445W        W87116   6.483  23.731  12.992
15446W        W87117  39.142   9.456  14.438
15447W        W87118  26.882  15.856   3.297
15448W        W87119  26.537  14.061   3.218
15449W        W87120  10.799  12.629   2.839
15450W        W87121  23.475  38.199   9.789
15451W        W87122  17.990  22.032  14.988
15452W        W87123  15.716   5.284  11.043
15453W        W87124  43.062   9.664   4.641
15454W        W87125  17.273  34.637   2.196
15455W        W87126  42.840  40.223  11.138
15456W        W87127  25.096  26.124  12.715
15457W        W87128  33.150  35.673   2.731
15458W        W87129   4.726  14.516  11.163
15459W        W87130   9.240  16.221   0.724
15460W        W87131  32.518  18.056  13.885
15461W        W87132  34.024  31.880   4.594
15462W        W87133  22.023  10.495  13.109
15463W        W87134  26.335  37.684  11.894
15464W        W87135  13.766  22.224   2.641
15465W        W87136  37.561  18.570  12.490
15466W        W87137  25.259  42.739   0.242
15467W        W87138  15.804  27.044  11.611
15468W        W87139  25.684  13.802  10.468
15469W        W87140  39.471  39.878  11.176
15470W        W87141   9.320   0.907   0.288
15471W        W87142  27.189  18.306  11.196
15472W        W87143  37.461  10.929   2.194
15473W        W87144  11.355  12.848   4.106
15474W        W87145  15.828  37.638  13.910
15475W        W87146  37.849  14.031  14.062
15476W        W87147  44.370  39.122  10.139
15477W        W87148   1.925  24.103   0.112
15478W        W87149  24.651   7.517  10.712
15479W        W87150  27.866   9.470   3.167
15480W        W87151  21.061  23.601  11.543
15481W        W87152  27.924  31.393  14.392
15482W        W87153   8.466  34.897   2.085
15483W        W87154  14.003   0.277  13.461
15484W        W87155   6.232  40.844   2.535
15485W        W87156  26.622  42.031  13.427
15486W        W87157  42.360  25.010  13.009
15487W        W87158   5.061  10.974   2.269
15488W        W87159  13.644  40.479  14.015
15489W        W87160  22.497  26.492  10.635
15490W        W87161  13.546   4.755  12.379
15491W        W87162  14.984  27.912  11.800
15492W        W87163   6.699   5.688   0.903
15493W        W87164  29.905  33.726   2.230
15494W        W87165  28.611   6.447   1.316
15495W        W87166   9.119  30.971   3.777
15496W        W87167   8.637  24.528  12.958
15497W        W87168  32.183  41.554   4.756
15498W        W87169  19.200  33.336  11.284
15499W        W87170  10.679  32.206   1.487
15500W        W87171  20.556  27.560  11.940
15501W        W87172   7.900   8.098  13.252
15502W        W87173  20.716  35.835  11.557
15503W        W87174   4.817  35.586   3.222
15504W        W87175  14.892  44.170   4.119
15505W        W87176  39.101  33.489   1.309
15506W        W87177  34.054  38.156  10.108
15507W        W87178  34.174   5.006  13.538
15508W        W87179  29.839  18.294   3.300
15509W        W87180  41.591  14.894  14.611
15510W        W87181  17.313  39.291   0.311
15511W        W87182  26.450  38.080  13.525
15512W        W87183  22.166  10.216  13.956
15513W        W87184  23.200  21.476  11.048
15514W        W87185  11.844   7.389   0.083
15515W        W87186  37.898   7.641  12.810
15516W        W87187  18.980  24.154   2.719
15517W        W87188   3.403  39.431  10.617
15518W        W87189  40.776  39.466   9.653
15519W        W87190  20.834  43.061  13.362
15520W        W87191  43.808  12.321   4.207
15521W        W87192  33.764  31.695   0.717
15522W        W87193  41.043   6.196  13.006
15523W        W87194  38.770  13.192   2.406
15524W        W87195  38.383  29.568  12.571
15525W        W87196   4.463  19.254  14.471
15526W        W87197   0.960  41.043   0.145
15527W        W87198  24.225   9.379   4.241
15528W        W87199  43.298  25.843   0.269
15529W        W87200   0.450  20.757   5.002
15530W        W87201  16.778  43.229  10.764
15531W        W87202  39.473  41.399  13.055
15532W        W87203  37.597  15.856  14.344
15533W        W87204  41.869  14.706   3.583
15534W        W87205  33.354  22.636  12.906
15535W        W87206   9.866  38.466   3.612
15536W        W87207   4.884  26.532   4.175
15537W        W87208  41.812  27.989  13.354
15538W        W87209  17.472  32.585   2.611
15539W        W87210  15.209   3.402  13.582
15540W        W87211   4.860  20.550  10.542
15541W        W87212  26.596  39.812  14.804
15542W        W87213  17.843   5.788   0.401
15543W        W87214  18.608  24.902  11.459
15544W        W87215  33.832  44.882   3.959
15545W        W87216   5.799   1.804  10.810
15546W        W87217   5.193  35.872   4.594
15547W        W87218  27.034  36.926   0.982
15548W        W87219  29.481  40.059   4.609
15549W        W87220  36.017   8.335  14.969
15550W        W87221  37.815  29.995   1.019
15551W        W87222   0.472  23.623  10.380
15552W        W87223  26.514  12.210  13.862
15553W        W87224   8.281  44.597  12.432
15554W        W87225  42.424  14.786  13.707
15555W        W87226  40.239  39.514  10.902
15556W        W87227  43.808  20.540   4.161
15557W        W87228  20.307  41.273   4.301
15558W        W87229  16.501  20.738   1.268
15559W        W87230  35.911  10.754   0.274
15560W        W87231  12.802  34.543  12.498
15561W        W87232  27.504   7.538  14.175
15562W        W87233  34.926   3.818   0.812
15563W        W87234  38.955  27.636   2.848
15564W        W87235  30.888  41.310   0.626
15565W        W87236   9.648  42.391  13.570
15566W        W87237  31.401  40.751  14.722
15567W        W87238  11.740   8.900   1.279
15568W        W87239  28.684  25.701   3.229
15569W        W87240  26.675  13.244   4.804
15570W        W87241   8.684  12.397   4.273
15571W        W87242  42.866  10.891  13.490
15572W        W87243  41.504   7.229  13.731
15573W        W87244  26.909  44.419  12.544
15574W        W87245  25.481  24.976  11.689
15575W        W87246  14.344  10.690  13.910
15576W        W87247  29.727  43.037  13.786
15577W        W87248  16.782  12.643  10.279
15578W        W87249  37.915  17.693  13.632
15579W        W87250   0.845  44.499  10.783
15580W        W87251   9.655  29.940   3.667
15581W        W87252  14.200  15.293  12.685
15582W        W87253  24.627  13.315  10.536
15583W        W87254   3.190   7.114  14.407
15584W        W87255   1.253  43.417   2.383
15585W        W87256  38.427  21.167  11.359
15586W        W87257  20.708  38.763   3.253
15587W        W87258  42.572   0.748  14.983
15588W        W87259   0.764  13.308  14.430
15589W        W87260  40.509  12.796  12.363
15590W        W87261   1.360  14.268  12.463
15591W        W87262   3.423  25.511  14.031
15592W        W87263  19.507  34.509  11.594
15593W        W87264  42.404  24.844   2.534
15594W        W87265  15.764  41.551  12.849
15595W        W87266  14.835  43.641   4.767
15596W        W87267  33.618   9.373  13.873
15597W        W87268  24.006  33.923   1.474
15598W        W87269  29.153  27.783  12.993
15599W        W87270  11.485  18.614  10.138
15600W        W87271   1.238  18.507   1.477
15601W        W87272  20.571   3.689   4.112
15602W        W87273  12.123  12.344  14.777
15603W        W87274   8.214  24.732  14.871
15604W        W87275  44.676  38.399   1.847
15605W        W87276  41.565  33.352   4.155
15606W        W87277   9.211  24.786  14.854
15607W        W87278  43.840  38.594   9.776
15608W        W87279  44.469  20.100  11.070
15609W        W87280  20.118   4.389   4.851
15610W        W87281  43.498  40.987  11.428
15611W        W87282  39.935   2.860   2.671
15612W        W87283   4.869  39.501   3.242
15613W        W87284  27.219  17.294   0.086
15614W        W87285  13.238  24.236  13.579
15615W        W87286  35.760  15.049  12.960
15616W        W87287  24.315  32.005   1.716
15617W        W87288  27.625  17.583   0.867
15618W        W87289  35.819  15.446   1.608
15619W        W87290  25.661   1.914   4.198
15620W        W87291  30.887   9.280   9.764
15621W        W87292  31.010  12.685  13.435
15622W        W87293   0.200  44.824   2.600
15623W        W87294  32.456  34.700  10.536
15624W        W87295  42.981   4.143   2.819
15625W        W87296   5.401  43.507  12.866
15626W        W87297  15.547  18.701  13.530
15627W        W87298   1.661   3.502   1.539
15628W        W87299  42.301  34.036   1.356
15629W        W87300  32.315   6.417  12.816
15630W        W87301  43.077  29.502   0.704
15631W        W87302  22.131   5.183  14.821
15632W        W87303   4.555  39.816   0.849
15633W        W87304  35.135  10.260  14.953
15634W        W87305  21.104  32.877   2.031
15635W        W87306  20.098  24.413  12.925
15636W        W87307  22.279  13.723  13.245
15637W        W87308   8.585   0.858  14.819
15638W        W87309  29.591  38.902  13.298
15639W        W87310  30.660  20.749   3.240
15640W        W87311  44.456  19.837  11.920
15641W        W87312  19.813   8.386  13.412
15642W        W87313   9.644   4.388   0.334
15643W        W87314  41.457  34.370  13.400
15644W        W87315   4.434  43.042  10.651
15645W        W87316   7.339  12.586   3.707
15646W        W87317  30.248  13.288   2.417
15647W        W87318  24.936  14.169  14.691
15648W        W87319  32.615  40.995   2.790
15649W        W87320  28.993  35.328   4.623
15650W        W87321  18.555  40.536  13.717
15651W        W87322   2.146  34.674  14.804
15652W        W87323  27.140  44.435   0.683
15653W        W87324   0.544  33.544   1.346
15654W        W87325   3.167   5.842   1.259
15655W        W87326  28.189  25.460   3.277
15656W        W87327  20.668  29.891   2.339
15657W        W87328  38.915  34.531   0.037
15658W        W87329  36.115  43.753   0.020
15659W        W87330  32.133  12.545   1.077
15660W        W87331  24.139  14.185   4.055
15661W        W87332  39.528  20.156  10.823
15662W        W87333  25.499   5.557  12.894
15663W        W87334   9.867  18.864  11.820
15664W        W87335  18.127   2.838  13.808
15665W        W87336  32.006  37.297   0.031
15666W        W87337  40.072  14.641   2.372
15667W        W87338  33.563  31.656   4.056
15668W        W87339  14.344  36.064  12.987
15669W        W87340  16.652  26.168   0.715
15670W        W87341  26.027  26.967  10.654
15671W        W87342  22.646   2.518  12.933
15672W        W87343  36.926  10.373   4.137
15673W        W87344  29.014   6.493  12.396
15674W        W87345   2.803   8.353  12.978
15675W        W87346  40.582   8.484  14.475
15676W        W87347   9.468  30.539  13.045
15677W        W87348  41.501  24.182   4.674
15678W        W87349  27.558   5.420   2.688
15679W        W87350  32.852  38.521   3.208
15680W        W87351  39.923  16.084   2.224
15681W        W87352   1.675  18.377   1.738
15682W        W87353  27.248  39.981  12.597
15683W        W87354  24.952   5.550  10.687
15684W        W87355  39.719  30.373   3.282
15685W        W87356  33.426  40.817   2.367
15686W        W87357  40.005   9.681   0.101
15687W        W87358  29.392   4.390   4.533
15688W        W87359  19.798  18.615  14.040
15689W        W87360  20.621  26.613   9.786
15690W        W87361  12.800  27.112   1.246
15691W        W87362  33.863  41.806  11.447
15692W        W87363   8.863  40.040   4.089
15693W        W87364  13.118   1.055   2.700
15694W        W87365  37.949   6.361   1.316
15695W        W87366  39.839   8.795  13.090
15696W        W87367  11.666  23.481  14.523
15697W        W87368   1.251  14.692  11.229
15698W        W87369  12.836  40.871  12.813
15699W        W87370  11.444   8.213   9.856
15700W        W87371  22.999  10.882  11.993
15701W        W87372  11.239  16.856  11.579
15702W        W87373  14.369  34.381  13.411
15703W        W87374   4.311   2.169   0.929
15704W        W87375  24.031  36.064   3.232
15705W        W87376  43.131  35.905   4.145
15706W        W87377  42.812  29.975   1.824
15707W        W87378  21.716  30.650  12.440
15708W        W87379   7.951  41.941  13.918
15709W        W87380   1.848  20.761   1.208
15710W        W87381  38.467   6.911   3.993
15711W        W87382  11.788  27.716   4.151
15712W        W87383   1.275   4.187   1.110
15713W        W87384  43.376   4.244   0.926
15714W        W87385  26.601  18.489   0.308
15715W        W87386  42.858  44.495  11.535
15716W        W87387  18.572  39.841   4.190
15717W        W87388  43.293  11.758   4.687
15718W        W87389  12.662   8.672   2.767
15719W        W87390   2.822  39.004  12.884
15720W        W87391  44.379  44.533   1.999
15721W        W87392  21.798  29.124  14.317
15722W        W87393  27.540  40.878  12.175
15723W        W87394  19.574  24.589   2.378
15724W        W87395  34.509  39.633   2.135
15725W        W87396  27.559   7.651   0.826
15726W        W87397  26.649   9.200   3.690
15727W        W87398  10.745  23.534  14.022
15728W        W87399  29.587  21.806   0.524
15729W        W87400   1.056  14.540  13.992
15730W        W87401  27.124  15.819  10.216
15731W        W87402  38.264   0.453   2.357
15732W        W87403  32.664  13.794  11.244
15733W        W87404  34.875  32.909   2.820
15734W        W87405  31.003  35.754   2.318
15735W        W87406  30.022  10.220   3.633
15736W        W87407  40.795   1.977  10.390
15737W        W87408  16.682  11.836   0.326
15738W        W87409  38.041   9.211   0.786
15739W        W87410  15.081  31.162  12.083
15740W        W87411  24.559  42.483  10.650
15741W        W87412  28.614  40.514  13.560
15742W        W87413   2.290  25.967  11.668
15743W        W87414  24.966  33.443   3.020
15744W        W87415  28.523  35.130   3.347
15745W        W87416  11.759  37.073   2.836
15746W        W87417  43.877  36.553  12.449
15747W        W87418   9.516  10.688  13.265
15748W        W87419  26.225  24.796  14.409
15749W        W87420  38.761   7.398  11.951
15750W        W87421  36.097   2.232  11.558
15751W        W87422  38.960   9.535   2.229
15752W        W87423  30.263  21.225  14.010
15753W        W87424  38.399  32.384   5.015
15754W        W87425   8.163  24.455  11.512
15755W        W87426   3.854  37.502  13.952
15756W        W87427  11.167  28.508   1.353
15757W        W87428  15.384  35.069  10.951
15758W        W87429  43.777  38.827  14.249
15759W        W87430  25.564  20.551  14.302
15760W        W87431  22.748  16.860   0.957
15761W        W87432  41.192   4.738  11.577
15762W        W87433  26.208  20.321  14.829
15763W        W87434  41.786   3.140   2.557
15764W        W87435  11.110  13.351  12.144
15765W        W87436  13.180  34.718   2.129
15766W        W87437  27.071   0.948   3.091
15767W        W87438   7.200  21.565   3.557
15768W        W87439  42.429  41.802  12.971
15769W        W87440  23.517  23.129  13.927
15770W        W87441  23.668  17.256  12.644
15771W        W87442  27.012   5.380  10.791
15772W        W87443  37.504   4.646   3.781
15773W        W87444   5.854  11.244  13.853
15774W        W87445  34.070  14.768   0.835
15775W        W87446  35.096  14.886   1.974
15776W        W87447  28.657  38.790  13.803
15777W        W87448   1.722   4.636   3.637
15778W        W87449   3.391  43.005  13.281
15779W        W87450  32.070  25.619  13.844
15780W        W87451  11.508  14.249  13.950
15781W        W87452  22.145  31.972   4.336
15782W        W87453  12.898  40.305   2.348
15783W        W87454  35.854  11.988   5.137
15784W        W87455  32.528  40.749  14.356
15785W        W87456  44.504  11.605   9.460
15786W        W87457   6.546  15.331  12.098
15787W        W87458  30.179  13.520  12.901
15788W        W87459  21.742   7.768  12.965
15789W        W87460  17.266  26.948  11.089
15790W        W87461  19.637  35.624   1.385
15791W        W87462  17.507  31.354   2.954
15792W        W87463  25.968  21.550  14.453
15793W        W87464  29.329  19.082  12.073
15794W        W87465  26.107  19.137   1.937
15795W        W87466  36.821  35.876  11.096
15796W        W87467  44.266  16.346   2.802
15797W        W87468  43.379  35.342  13.253
15798W        W87469  17.454  23.568   0.722
15799W        W87470  24.202  38.225   1.857
15800W        W87471  10.183  30.986   2.780
15801W        W87472  27.929   1.456   4.130
15802W        W87473   1.310  19.762   0.951
15803W        W87474  17.828  33.104  11.067
15804W        W87475  26.803  44.307  13.829
15805W        W87476  29.943   0.493  11.204
15806W        W87477  28.514  34.560   4.730
15807W        W87478  11.566  27.069  11.965
15808W        W87479  40.479  18.685   1.665
15809W        W87480  37.352  12.148  11.574
15810W        W87481  31.678  21.813   1.313
15811W        W87482   9.728  43.717  10.862
15812W        W87483   4.772   5.895  13.435
15813W        W87484  34.530  26.902  11.914
15814W        W87485   7.866   0.777   3.275
15815W        W87486  23.656   0.290   4.045
15816W        W87487  40.484  23.743   1.803
15817W        W87488  24.530  16.097  14.315
15818W        W87489  35.863   4.676  11.193
15819W        W87490  19.055  22.818  14.884
15820W        W87491  13.807   5.190   4.544
15821W        W87492  38.916   0.461  12.970
15822W        W87493  35.659  41.071  12.499
15823W        W87494  40.991  20.035  14.812
15824W        W87495   2.813   8.637   3.425
15825W        W87496  41.540   6.526  11.998
15826W        W87497  32.988  14.930  12.429
15827W        W87498  10.663  42.749   3.545
15828W        W87499  18.764  42.569  13.794
15829W        W87500  17.320  22.612   3.078
15830W        W87501   5.368  29.938  10.681
15831W        W87502  31.117  39.485  12.774
15832W        W87503  15.085   5.982  13.094
15833W        W87504  35.497  31.808   4.097
15834W        W87505  41.001  16.261   0.257
15835W        W87506  25.883   9.712   4.831
15836W        W87507   1.814  11.423   2.840
15837W        W87508  20.660  21.692  10.694
15838W        W87509   7.437  35.808  13.967
15839W        W87510  44.988  19.461   2.903
15840W        W87511  35.169  14.291  10.582
15841W        W87512  40.859  27.299   1.237
15842W        W87513  14.728  33.172  14.871
15843W        W87514  15.048  27.333   0.331
15844W        W87515  13.271  31.133   2.642
15845W        W87516  22.454  37.031   0.710
15846W        W87517  25.172  10.329   2.869
15847W        W87518   8.708  20.038   3.334
15848W        W87519  36.664  35.541  12.928
15849W        W87520  13.833  14.111   0.254
15850W        W87521   9.398  10.893  12.819
15851W        W87522  14.609  19.301   3.619
15852W        W87523  23.525  10.147  14.794
15853W        W87524  26.167  34.137  10.962
15854W        W87525   2.835  31.164   2.320
15855W        W87526  23.785   9.731  13.370
15856W        W87527  30.018   6.198  14.396
15857W        W87528  33.152  36.551  14.385
15858W        W87529  38.033   1.296   4.552
15859W        W87530  13.735  19.607   3.698
15860W        W87531  31.591  16.575  13.797
15861W        W87532  13.774   5.159   3.126
15862W        W87533   0.353   3.392   3.464
15863W        W87534  18.615   8.604  12.902
15864W        W87535   7.351  23.495   2.691
15865W        W87536  32.355  20.101   0.943
15866W        W87537  32.612  26.886  13.738
15867W        W87538  37.844  43.455   0.807
15868W        W87539   5.998  39.984  11.102
15869W        W87540  30.148   9.853  14.809
15870W        W87541   5.844   3.589  14.171
15871W        W87542  18.650  16.731   0.788
15872W        W87543  24.618  21.771  11.902
15873W        W87544   6.383  14.746   3.897
15874W        W87545   2.707   3.950   2.214
15875W        W87546  24.047   1.133   3.680
15876W        W87547  38.429  40.583  14.417
15877W        W87548  43.591  29.623   0.720
15878W        W87549  35.626  18.475   0.836
15879W        W87550  10.282  14.590  12.441
15880W        W87551  44.855  43.038   2.833
15881W        W87552  29.569  31.083  13.804
15882W        W87553  38.021  23.722   0.212
15883W        W87554  22.190  11.794   4.574
15884W        W87555  44.252   2.041   0.911
15885W        W87556  38.476  29.043   3.206
15886W        W87557   1.023  20.140  12.078
15887W        W87558  13.618   5.486  10.562
15888W        W87559  13.506   8.717  11.988
15889W        W87560  14.451  40.298   2.336
15890W        W87561  22.075  42.323   2.328
15891W        W87562  24.283   9.630  13.134
15892W        W87563  33.598  36.345   1.784
15893W        W87564  30.447  15.014  14.460
15894W        W87565  33.877  21.760  13.031
15895W        W87566  23.900  16.048  11.649
15896W        W87567  37.378   4.952  14.488
15897W        W87568  25.754  38.070   0.176
15898W        W87569  10.816  32.056  10.266
15899W        W87570  17.247  44.962   0.887
15900W        W87571  37.567  36.884  13.635
15901W        W87572  30.935  14.610   0.871
15902W        W87573  41.229  19.959   0.263
15903W        W87574  26.080  12.290   2.881
15904W        W87575  17.487  19.642   0.511
15905W        W87576  14.149  29.170   0.330
15906W        W87577  22.326  22.581  14.080
15907W        W87578  16.760  30.921  10.645
15908W        W87579  18.516  33.109   1.858
15909W        W87580  26.046  31.984  12.208
15910W        W87581  30.300  27.189  14.049
15911W        W87582   9.182  13.286  10.447
15912W        W87583  37.396  44.475   2.273
15913W        W87584  32.998  19.275  13.974
15914W        W87585  27.482  38.836  10.676
15915W        W87586  42.499  30.343   1.618
15916W        W87587   8.317  27.627  12.390
15917W        W87588  10.584  22.744   3.905
15918W        W87589   6.215  31.596  14.933
15919W        W87590  44.496  25.709   3.885
15920W        W87591  14.224  30.786   2.851
15921W        W87592  34.948  33.416   2.734
15922W        W87593  10.660  26.836   5.074
15923W        W87594   2.920   1.200   4.430
15924W        W87595  36.805   4.414   4.506
15925W        W87596  31.838  19.408  10.769
15926W        W87597  38.773  14.641   1.975
15927W        W87598   5.656   1.404  10.520
15928W        W87599  33.685   1.338  12.755
15929W        W87600  16.404  42.596  11.463
15930W        W87601  42.592  12.312   4.574
15931W        W87602  42.596  23.776  11.959
15932W        W87603  13.350   3.718  10.759
15933W        W87604   8.813  15.515  12.460
15934W        W87605  22.596   9.593   2.205
15935W        W87606  20.442  32.561   2.720
15936W        W87607  10.648  28.085   4.372
15937W        W87608  21.484   6.799   0.304
15938W        W87609  16.385   6.947   1.737
15939W        W87610  18.782  41.349   0.759
15940W        W87611   9.417   7.297  14.240
15941W        W87612  23.648   2.259  10.857
15942W        W87613  22.304  42.847  12.407
15943W        W87614  15.136  31.469  10.652
15944W        W87615  12.336  14.079  11.982
15945W        W87616  39.126   1.871  13.423
15946W        W87617   9.908  40.737  10.629
15947W        W87618   9.463  35.617  12.856
15948W        W87619  34.633  29.464   1.816
15949W        W87620  26.212   1.596  13.843
15950W        W87621   4.214   1.532   4.617
15951W        W87622   8.753  34.418   3.392
15952W        W87623  40.068  23.217   2.621
15953W        W87624  44.417   8.254   4.495
15954W        W87625  38.854  41.475   4.562
15955W        W87626   2.680  44.724   4.516
15956W        W87627  37.066  31.410  14.894
15957W        W87628   0.559   9.357  13.429
15958W        W87629   4.769   9.871  12.587
15959W        W87630  25.205  35.491   3.730
15960W        W87631  12.087  40.480  10.380
15961W        W87632  40.407  17.165  12.831
15962W        W87633  28.682  30.140  10.865
15963W        W87634  34.602  40.460  10.788
15964W        W87635  24.168  11.692   3.647
15965W        W87636  38.164  24.246  11.442
15966W        W87637   1.156  17.557  10.688
15967W        W87638  43.210  20.298   5.390
15968W        W87639   5.697  43.558  12.447
15969W        W87640  43.949  42.089  13.827
15970W        W87641  32.090  26.155   4.584
15971W        W87642  10.472  24.797  11.196
15972W        W87643  10.149  29.889   2.707
15973W        W87644  35.336  27.132  12.182
15974W        W87645  30.657  21.970   1.490
15975W        W87646   4.923  23.696   3.937
15976W        W87647  29.087  41.034   3.411
15977W        W87648  13.758  34.853  12.722
15978W        W87649  29.716  30.494  14.379
15979W        W87650   2.604  25.780   1.449
15980W        W87651   5.578  24.023   1.767
15981W        W87652  40.111  37.546   4.582
15982W        W87653  23.986  10.798   3.284
15983W        W87654   4.692  42.345  11.650
15984W        W87655   1.114  15.699  10.391
15985W        W87656  35.037  33.191   3.221
15986W        W87657   3.362  22.626   3.395
15987W        W87658   7.494   0.956   4.204
15988W        W87659  10.789  18.430  14.707
15989W        W87660  16.259  18.205   1.722
15990W        W87661  24.742   1.286   1.165
15991W        W87662  34.535  43.356  10.750
15992W        W87663  32.646  26.600   2.783
15993W        W87664   2.582  16.199   3.078
15994W        W87665  15.384   4.980   0.093
15995W        W87666  37.783  38.499  10.282
15996W        W87667  32.729   1.470   3.802
15997W        W87668  31.109  15.014  14.922
15998W        W87669  19.736  12.368   4.136
15999W        W87670   0.428   1.531   3.091
16000W        W87671   0.770  11.879  12.085
16001W        W87672  43.647  22.682   3.081
16002W        W87673  26.724   6.663   0.879
16003W        W87674   4.215  43.553  11.563
16004W        W87675  40.541  42.615  11.662
16005W        W87676  11.709  39.358  12.945
16006W        W87677   6.918  17.743   4.534
16007W        W87678  44.514  36.267   1.886
16008W        W87679  39.974  32.002  11.116
16009W        W87680   0.252  36.945  12.494
16010W        W87681   5.843   4.890   3.816
16011W        W87682  43.707   4.807  13.668
16012W        W87683  16.117  25.500   3.527
16013W        W87684  44.062   3.314  12.435
16014W        W87685  20.650  23.581  13.916
16015W        W87686  44.721  21.690   1.209
16016W        W87687   4.733   9.898  13.388
16017W        W87688   4.034   7.153  13.968
16018W        W87689  26.975  30.614   4.519
16019W        W87690  31.581  40.875   1.241
16020W        W87691  40.532   1.008   3.660
16021W        W87692   2.905  23.627   3.231
16022W        W87693  42.490  23.539   0.206
16023W        W87694  41.340   6.459  14.739
16024W        W87695  32.819  17.240  11.122
16025W        W87696  34.482  39.452   0.295
16026W        W87697  35.175   6.865   0.667
16027W        W87698  18.083   9.835  12.432
16028W        W87699  13.670  15.228   0.861
16029W        W87700   6.868  29.634   4.133
16030W        W87701   0.905  28.539  10.779
16031W        W87702  33.281  28.640  11.702
16032W        W87703  24.507  36.663  10.782
16033W        W87704  13.547   9.707   0.821
16034W        W87705  11.921  32.439   1.884
16035W        W87706  17.510   9.194  14.540
16036W        W87707  44.411   0.101   5.010
16037W        W87708   2.060  35.162   3.778
16038W        W87709  31.526  21.832   3.376
16039W        W87710  43.275  29.950   0.001
16040W        W87711  22.086  14.348  11.374
16041W        W87712  27.572  24.196  14.741
16042W        W87713   7.428  15.160   1.238
16043W        W87714  11.286  42.678  14.790
16044W        W87715  27.852  10.151   4.570
16045W        W87716  13.808  34.224  12.973
16046W        W87717  34.396  27.918  14.805
16047W        W87718   1.952  22.923   4.274
16048W        W87719  44.492  26.459  10.677
16049W        W87720   8.565  20.017  14.862
16050W        W87721  24.821   9.336  13.109
16051W        W87722  36.569  10.419  14.254
16052W        W87723  12.748   5.922   3.675
16053W        W87724  29.513  40.809   3.205
16054W        W87725  22.686  16.166   4.274
16055W        W87726  33.664  28.037   1.328
16056W        W87727  41.944  26.432   0.530
16057W        W87728  40.511  25.213  14.781
16058W        W87729   2.906  15.266   2.195
16059W        W87730  18.735  38.298  13.466
16060W        W87731  37.565  19.348  11.076
16061W        W87732  20.510  41.459   1.165
16062W        W87733  25.996  33.618  11.892
16063W        W87734  28.024  28.327  13.811
16064W        W87735  39.607  11.233   2.060
16065W        W87736  27.019  12.712  13.338
16066W        W87737  19.629  30.586  14.076
16067W        W87738  16.258  28.944  14.414
16068W        W87739  43.958  12.294  13.604
16069W        W87740  15.862  11.806  13.735
16070W        W87741  31.172  16.686   4.588
16071W        W87742  27.025  21.455   0.899
16072W        W87743  30.898  33.816  14.533
16073W        W87744   3.838  34.635   2.104
16074W        W87745  21.727  10.057   4.136
16075W        W87746   3.390  24.217   4.637
16076W        W87747  27.875   5.320  12.021
16077W        W87748  29.938  20.366   0.894
16078W        W87749  18.178  13.014   1.917
16079W        W87750  13.999  37.346  13.517
16080W        W87751  19.201  38.892  13.876
16081W        W87752  23.872  40.133  12.890
16082W        W87753  17.056  13.103   5.020
16083W        W87754   3.757   1.458   1.962
16084W        W87755  23.614  15.324   1.364
16085W        W87756  31.403  38.308  11.232
16086W        W87757  44.425  43.943  14.803
16087W        W87758  30.642  29.944   4.503
16088W        W87759  13.408  16.333  12.024
16089W        W87760  12.594  34.744   1.273
16090W        W87761  11.698   9.635   2.390
16091W        W87762   1.083  43.796  14.406
16092W        W87763   0.729  37.926   1.146
16093W        W87764  15.308  25.156   4.648
16094W        W87765  24.028  16.078   3.234
16095W        W87766  30.719  16.997  12.497
16096W        W87767  27.861  30.057  14.337
16097W        W87768   1.018   7.380   4.212
16098W        W87769  39.915   9.817  13.680
16099W        W87770  40.194  29.421  11.053
16100W        W87771  25.437  21.767   3.896
16101W        W87772   2.298  27.325  11.477
16102W        W87773   8.169   7.150  12.517
16103W        W87774  15.830  40.383   2.095
16104W        W87775  34.555  23.157   2.754
16105W        W87776  41.301  31.069  12.944
16106W        W87777  24.393  26.441  12.017
16107W        W87778  11.108  13.286   2.337
16108W        W87779  33.299  38.255  14.926
16109W        W87780  14.027  31.183   3.687
16110W        W87781  12.894  22.373   1.363
16111W        W87782   9.530   1.450  13.092
16112W        W87783  38.406  11.906  14.775
16113W        W87784  19.230  12.679   4.922
16114W        W87785  22.082   8.273  14.020
16115W        W87786   2.002  14.254  14.259
16116W        W87787  24.260  25.051  13.415
16117W        W87788  32.071  44.679   1.161
16118W        W87789   8.345   8.953   3.749
16119W        W87790  30.935   7.215  13.446
16120W        W87791   3.830  14.139  13.488
16121W        W87792  19.109  28.184   3.911
16122W        W87793  33.622  23.541  11.719
16123W        W87794  18.851   8.129  12.892
16124W        W87795   3.653  30.607  13.815
16125W        W87796  21.533  24.941   3.836
16126W        W87797   4.826  44.729   2.248
16127W        W87798  34.562  28.101  13.457
16128W        W87799  25.262  12.860   4.149
16129W        W87800  10.705  43.430   3.770
16130W        W87801  23.141  20.581  12.623
16131W        W87802  18.012   9.663  11.461
16132W        W87803  33.511  13.663   1.507
16133W        W87804  39.777  20.119   4.599
16134W        W87805  18.526  36.360  14.614
16135W        W87806  34.538  17.578  13.596
16136W        W87807  35.573  38.548  11.059
16137W        W87808  15.030  42.405  14.414
16138W        W87809  40.368   2.166   2.656
16139W        W87810   3.509  29.587   1.458
16140W        W87811  25.465  13.930  14.002
16141W        W87812  11.393  16.220  14.293
16142W        W87813   0.724   0.894   1.787
16143W        W87814   0.548  21.503   9.774
16144W        W87815  14.971  33.394  12.492
16145W        W87816  39.580  33.045  13.866
16146W        W87817  25.492  23.129  14.813
16147W        W87818   3.808  28.583   2.710
16148W        W87819  21.507  19.098   0.890
16149W        W87820  39.923  21.424   4.222
16150W        W87821  15.154  34.821   3.444
16151W        W87822   1.729  43.464   0.011
16152W        W87823  23.298  32.547   0.339
16153W        W87824  13.194  28.749   0.357
16154W        W87825  20.659  40.495   4.182
16155W        W87826  38.925  29.745  12.885
16156W        W87827  26.382   7.736   1.289
16157W        W87828  33.080  27.499  11.152
16158W        W87829  24.516   1.373  10.793
16159W        W87830  28.114  13.616   2.918
16160W        W87831   1.976  11.767  11.583
16161W        W87832  13.301  37.629  10.766
16162W        W87833  37.339  38.116  11.116
16163W        W87834  38.010  21.107  12.147
16164W        W87835  42.393  14.962   4.842
16165W        W87836  34.887  23.534  10.569
16166W        W87837  39.290  39.398  11.291
16167W        W87838   9.616  12.097   4.117
16168W        W87839  13.222  12.889  14.921
16169W        W87840   2.051  15.147   2.478
16170W        W87841  22.836  20.548  12.078
16171W        W87842  36.780  10.577   1.947
16172W        W87843  25.540   5.018  14.295
16173W        W87844  26.971   6.204   0.850
16174W        W87845  11.399   4.032  11.997
16175W        W87846   8.834  33.859   0.429
16176W        W87847  16.737  18.432  14.908
16177W        W87848  34.396  16.156  11.449
16178W        W87849  11.238   2.489  13.547
16179W        W87850  40.852  44.539  11.063
16180W        W87851  29.174  32.309  13.805
16181W        W87852  17.066  28.087   3.154
16182W        W87853  38.953  13.229  14.494
16183W        W87854  32.225   5.343   0.415
16184W        W87855  23.256  24.419  12.142
16185W        W87856  27.543   6.619  11.970
16186W        W87857  29.095   8.289  14.971
16187W        W87858   2.442  41.964  13.074
16188W        W87859  29.796  21.919  13.780
16189W        W87860  13.177   8.750   3.625
16190W        W87861  34.987  16.691   4.797
16191W        W87862   6.268   1.739   1.840
16192W        W87863  12.003  31.208   2.505
16193W        W87864   0.045  14.695   4.384
16194W        W87865  43.334   5.778   0.079
16195W        W87866  41.819  42.345  13.442
16196W        W87867   1.057  15.037   2.260
16197W        W87868   0.732  27.090  10.610
16198W        W87869  38.584  28.929  10.615
16199W        W87870  27.157  30.913   4.901
16200W        W87871  32.146   7.876   4.121
16201W        W87872  22.765  42.846   4.922
16202W        W87873  14.354  37.070   5.095
16203W        W87874  17.844  18.664  13.157
16204W        W87875   4.388  18.189   1.839
16205W        W87876  20.222  29.430  12.806
16206W        W87877  33.988  11.806  10.679
16207W        W87878  43.695   3.310   4.570
16208W        W87879  40.104  34.525   3.997
16209W        W87880   6.292  38.723   3.690
16210W        W87881   7.907  35.188  11.267
16211W        W87882  42.263  36.611   3.192
16212W        W87883  34.536   3.880  12.807
16213W        W87884  44.799  32.542   0.852
16214W        W87885  32.988  12.684  11.881
16215W        W87886  10.838  20.962   1.876
16216W        W87887  43.597  37.371   4.877
16217W        W87888  35.438  43.265  11.614
16218W        W87889  13.070   3.532  13.906
16219W        W87890  32.137  30.937   1.504
16220W        W87891  16.165  28.522  10.836
16221W        W87892   7.085   5.286   3.897
16222W        W87893  34.240  37.864  12.414
16223W        W87894  25.984   6.795   1.133
16224W        W87895   4.829  18.493  12.011
16225W        W87896  15.287  39.353  11.371
16226W        W87897  21.669  38.391   2.259
16227W        W87898  37.603  21.609  10.491
16228W        W87899  44.762  22.505   1.752
16229W        W87900   2.411  16.554   1.318
16230W        W87901   0.491  37.588  10.080
16231W        W87902   0.950  20.653  11.193
16232W        W87903   1.512  33.850  14.164
16233W        W87904  30.183  10.501   4.053
16234W        W87905  24.713  32.932   1.788
16235W        W87906   0.205   7.307  14.266
16236W        W87907  44.143  27.745   2.403
16237W        W87908  31.479  10.105  11.107
16238W        W87909  12.255   6.470   3.849
16239W        W87910  39.091  27.279  13.982
16240W        W87911  23.400  11.142   2.339
16241W        W87912  33.656  10.344  14.957
16242W        W87913  21.225  16.490  11.062
16243W        W87914  42.471   7.471  11.840
16244W        W87915  37.850  11.637   0.177
16245W        W87916  37.084  30.571   1.968
16246W        W87917  38.491  26.670   2.455
16247W        W87918   6.436  17.759  14.356
16248W        W87919  27.581  39.238  14.954
16249W        W87920  40.105  26.137   1.955
16250W        W87921   9.592   8.419  11.555
16251W        W87922  18.326  23.568   1.771
16252W        W87923  34.532  44.282   3.563
16253W        W87924  44.635  44.005   2.761
16254W        W87925  27.043  18.358   3.933
16255W        W87926  16.184  14.267  13.998
16256W        W87927  31.688  17.745   3.118
16257W        W87928  11.464   7.860  10.672
16258W        W87929  16.795   4.386  11.066
16259W        W87930  17.562  11.619   1.799
16260W        W87931  20.103  13.258   0.004
16261W        W87932   3.756  26.751  14.724
16262W        W87933  41.043  27.340   3.212
16263W        W87934  28.853   0.213  12.966
16264W        W87935  10.205  36.852  13.447
16265W        W87936   5.951  13.621  13.410
16266W        W87937  23.005  28.128   2.714
16267W        W87938  12.346  13.785   3.689
16268W        W87939  34.718  36.140  14.016
16269W        W87940  35.789  33.190  10.561
16270W        W87941  28.510  12.971  14.410
16271W        W87942   5.296  15.172  14.764
16272W        W87943  36.785  11.919   1.379
16273W        W87944  16.765  20.747   0.796
16274W        W87945  43.821   9.891  10.596
16275W        W87946  19.821  23.524   1.411
16276W        W87947  10.274  40.958   1.202
16277W        W87948  28.598   9.113  10.244
16278W        W87949  15.781  33.890  11.066
16279W        W87950  17.488   3.911  13.035
16280W        W87951  30.358  28.588   1.212
16281W        W87952  31.159   2.246  11.969
16282W        W87953  39.650  23.290   2.358
16283W        W87954  11.576  18.703   0.936
16284W        W87955   6.629  44.217   2.955
16285W        W87956  32.532  16.061   3.323
16286W        W87957   4.895  22.514   4.689
16287W        W87958  16.304  34.007  12.332
16288W        W87959   2.602  14.300   5.062
16289W        W87960  24.498   0.813  10.387
16290W        W87961  19.606  11.345  13.311
16291W        W87962  41.370  17.663   4.851
16292W        W87963  18.813  31.937   0.319
16293W        W87964  22.538  31.384  14.645
16294W        W87965  28.598  37.045  12.551
16295W        W87966  37.930  43.138   2.079
16296W        W87967  17.791  38.706  14.232
16297W        W87968  39.785   2.349   1.340
16298W        W87969  44.378  25.480  10.420
16299W        W87970  19.670   5.197  14.192
16300W        W87971  40.339  39.118   0.472
16301W        W87972  22.623  31.842  13.857
16302W        W87973  19.860  11.461   2.936
16303W        W87974  23.030  36.964   0.266
16304W        W87975  39.831  39.528   4.665
16305W        W87976  40.749  38.415  12.327
16306W        W87977  31.240   9.353   1.712
16307W        W87978  15.603  28.583   1.989
16308W        W87979  42.317  38.111  11.118
16309W        W87980  43.819   4.229  14.435
16310W        W87981  16.553  41.455   2.732
16311W        W87982  15.097  40.315  14.920
16312W        W87983   2.282  15.820  12.823
16313W        W87984   9.329   6.949   2.810
16314W        W87985  41.919  38.642  13.519
16315W        W87986  23.542  33.891  13.394
16316W        W87987  15.401  14.821   2.429
16317W        W87988  32.866   1.219   2.293
16318W        W87989   5.063   6.807   2.201
16319W        W87990  39.409  43.059  12.095
16320W        W87991   4.472  29.144  11.012
16321W        W87992  42.720  43.295  14.636
16322W        W87993   9.196  30.901   2.679
16323W        W87994  31.164   8.314   3.255
16324W        W87995  29.693  32.456   2.754
16325W        W87996  29.904  41.902   2.459
16326W        W87997  42.049  19.972   1.611
16327W        W87998  11.720   3.719  14.732
16328W        W87999  15.390  31.902  10.785
16329W        W88000  38.500   3.275  10.980
16330W        W88001  40.140  21.768  11.155
16331W        W88002  23.617  11.166   0.578
16332W        W88003  40.399  21.618   4.049
16333W        W88004  17.886  44.963   4.126
16334W        W88005   2.293   9.262  11.067
16335W        W88006  27.995   5.242   1.668
16336W        W88007   5.294   5.948   3.427
16337W        W88008   4.564  32.555   0.083
16338W        W88009  37.148  17.180   0.756
16339W        W88010   3.604   1.904  14.017
16340W        W88011  24.619   4.276   0.899
16341W        W88012   2.747  29.183   4.248
16342W        W88013  43.802  12.233  10.348
16343W        W88014   4.994   1.502   2.820
16344W        W88015   9.345  21.548   1.342
16345W        W88016  23.753  10.773  10.497
16346W        W88017  29.298  34.024   2.251
16347W        W88018  24.162   8.367   0.348
16348W        W88019  19.029  13.634  12.408
16349W        W88020  23.933  31.846   4.891
16350W        W88021  19.731  37.480  10.203
16351W        W88022   8.247  12.638  11.294
16352W        W88023   1.397  20.076  12.544
16353W        W88024   6.311   4.470  11.566
16354W        W88025  34.538  41.846   3.066
16355W        W88026  24.993  33.993   0.619
16356W        W88027  38.129  17.675  10.864
16357W        W88028  30.619  35.985   1.223
16358W        W88029   3.706  43.840  14.339
16359W        W88030   0.949  21.542  13.264
16360W        W88031  40.814  37.915   2.601
16361W        W88032   7.663   4.518  11.986
16362W        W88033  14.090  18.692  10.613
16363W        W88034  10.115  13.605   4.599
16364W        W88035  18.633  18.516  12.405
16365W        W88036   3.652  36.498   1.867
16366W        W88037  31.763   9.948  14.927
16367W        W88038  43.681  23.993   2.312
16368W        W88039  37.281  16.150   4.241
16369W        W88040  18.202  31.365  14.459
16370W        W88041  13.253  17.814  13.830
16371W        W88042  14.840  42.475   0.799
16372W        W88043  15.588  25.243  14.981
16373W        W88044  44.873  43.950   4.098
16374W        W88045  16.899  10.590  14.870
16375W        W88046  32.704   8.573   9.932
16376W        W88047  24.642  41.558  12.325
16377W        W88048  40.878   2.378  13.378
16378W        W88049  10.334  17.257   5.161
16379W        W88050   7.855  18.616   3.690
16380W        W88051  44.472  34.377  12.128
16381W        W88052  31.352  32.463  12.263
16382W        W88053  39.045  23.080   0.047
16383W        W88054  30.003  37.907   0.491
16384W        W88055   4.906  16.720   1.509
16385W        W88056   0.562   8.206   1.962
16386W        W88057  39.118  42.879  13.862
16387W        W88058  17.448  27.406  13.049
16388W        W88059  40.858   5.643   4.129
16389W        W88060  11.225  31.374   2.137
16390W        W88061  28.122  38.563   2.259
16391W        W88062  39.620  30.636  11.556
16392W        W88063   7.849   6.920   4.694
16393W        W88064  10.391   5.233   3.710
16394W        W88065   9.857  12.258   4.947
16395W        W88066  42.375  25.527   1.464
16396W        W88067   9.814  38.425   0.879
16397W        W88068   2.343  33.233   1.812
16398W        W88069  13.312  44.369  14.362
16399W        W88070  13.558   0.235   2.685
16400W        W88071   3.634  31.069   2.057
16401W        W88072  23.792  44.994   2.845
16402W        W88073  30.415   3.320  10.607
16403W        W88074   3.233  10.257   5.159
16404W        W88075  42.314  21.990   4.962
16405W        W88076  38.844  40.972   3.159
16406W        W88077   2.845  22.720  10.602
16407W        W88078  37.554  42.742  10.057
16408W        W88079   0.874  17.178  11.032
16409W        W88080  38.296  44.429  12.630
16410W        W88081   0.780   5.247   1.335
16411W        W88082   9.229   5.348  10.455
16412W        W88083   1.402  26.195  11.924
16413W        W88084  27.351  14.547  11.531
16414W        W88085   3.814  10.689   2.105
16415W        W88086  41.889   8.391  14.009
16416W        W88087  39.027  30.259  10.760
16417W        W88088  23.723  18.299   4.406
16418W        W88089  34.972   7.407   3.219
16419W        W88090  37.041  43.224  12.602
16420W        W88091  37.050  26.710   2.230
16421W        W88092  16.765  26.393   2.725
16422W        W88093  22.006  41.527  14.024
16423W        W88094  25.389  25.059  10.258
16424W        W88095  17.879  43.818  13.152
16425W        W88096   0.067   4.449   0.899
16426W        W88097  30.358  19.208   4.801
16427W        W88098  38.015  10.802  13.564
16428W        W88099  43.572  42.819   0.295
16429W        W88100  17.657  41.793   3.201
16430W        W88101  14.141  30.595   3.308
16431W        W88102   5.300   0.230   4.270
16432W        W88103  25.822  27.682  11.574
16433W        W88104  33.385   8.732  13.974
16434W        W88105   5.896   3.357   3.928
16435W        W88106  26.475  34.983  13.525
16436W        W88107  34.604  31.580  10.611
16437W        W88108   2.438  14.234   2.782
16438W        W88109   5.689  28.973  12.119
16439W        W88110   0.804  10.875   2.449
16440W        W88111  40.806  36.520  13.650
16441W        W88112  12.691  34.550   2.216
16442W        W88113  40.481  30.533  14.511
16443W        W88114  43.806  20.411   1.222
16444W        W88115  17.720  38.587   2.448
16445W        W88116  29.941  42.278   0.794
16446W        W88117  10.832  40.533  13.506
16447W        W88118  11.369  34.076   1.448
16448W        W88119  24.742  41.683  13.805
16449W        W88120  17.100  30.850  13.305
16450W        W88121  28.383  26.172   4.102
16451W        W88122  28.065  29.956  14.972
16452W        W88123  27.539   6.761   9.795
16453W        W88124  23.692  29.954   1.289
16454W        W88125  10.422   2.892  14.593
16455W        W88126   0.496  21.742  11.593
16456W        W88127  20.604  17.997  12.076
16457W        W88128  41.151  26.179  11.177
16458W        W88129   5.401  21.299   4.239
16459W        W88130  28.524   0.914   2.818
16460W        W88131   6.719  43.062   1.805
16461W        W88132  37.791  23.187   0.940
16462W        W88133  27.004   0.631   2.123
16463W        W88134  36.876  29.921  12.480
16464W        W88135  32.021   7.392  10.914
16465W        W88136  38.114   1.659  12.040
16466W        W88137  30.496  27.239  11.129
16467W        W88138  43.223  12.647  14.041
16468W        W88139  44.995   3.780  11.092
16469W        W88140   3.711  36.262   3.213
16470W        W88141  23.735  26.165  12.500
16471W        W88142   8.265   2.084   2.353
16472W        W88143  33.432   5.751  12.783
16473W        W88144  37.984   6.345   0.398
16474W        W88145   2.732   0.222  11.713
16475W        W88146  39.907   4.644  11.626
16476W        W88147  16.386  16.646  11.109
16477W        W88148  37.859  32.952  13.472
16478W        W88149  43.077  13.231  12.414
16479W        W88150  32.954  16.341  10.822
16480W        W88151  40.105  25.142   1.375
16481W        W88152   1.704  42.413  13.919
16482W        W88153  27.250  20.082   0.965
16483W        W88154  34.507  34.629  14.020
16484W        W88155  38.770  29.681   4.184
16485W        W88156   4.063  19.674   5.055
16486W        W88157   8.345  13.862  13.906
16487W        W88158  21.311  25.466  14.453
16488W        W88159  16.493  34.782  13.228
16489W        W88160  37.087  39.117  10.711
16490W        W88161  10.229   1.139   0.899
16491W        W88162   9.605  40.308  13.892
16492W        W88163  28.052  20.084   3.988
16493W        W88164  20.350  10.823  14.563
16494W        W88165  39.622  20.202   3.251
16495W        W88166  35.376  24.604  11.613
16496W        W88167  15.284  24.778   2.186
16497W        W88168  37.000   7.143   2.667
16498W        W88169   9.670   8.866   4.072
16499W        W88170  42.143  24.244   3.580
16500W        W88171   3.213   8.804  11.575
16501W        W88172   6.355  36.315  12.887
16502W        W88173  20.354  17.163   4.615
16503W        W88174  18.136  10.730   2.634
16504W        W88175  15.205  33.807   3.021
16505W        W88176  10.795  25.898  14.653
16506W        W88177   1.217  30.995  11.580
16507W        W88178  33.394  23.538  10.740
16508W        W88179  16.749  30.121   1.212
16509W        W88180  36.276  43.588  11.158
16510W        W88181  19.257   4.403   2.674
16511W        W88182  19.577  35.790  11.826
16512W        W88183   3.461  37.005   1.292
16513W        W88184  39.614  28.599  13.527
16514W        W88185  25.449  27.690  10.726
16515W        W88186  31.810  28.712   0.394
16516W        W88187  12.046  19.086  11.156
16517W        W88188  11.414  16.602  12.006
16518W        W88189  39.786   6.592  12.159
16519W        W88190  37.390  19.307  12.956
16520W        W88191  12.138  37.797   3.173
16521W        W88192  16.177  26.462  11.089
16522W        W88193   8.195  32.475  13.558
16523W        W88194   9.328  33.634  12.464
16524W        W88195  41.909   2.634  13.777
16525W        W88196   2.867  16.332   4.053
16526W        W88197   4.050  31.498   5.055
16527W        W88198  40.041  13.034   5.077
16528W        W88199   6.758  44.138  12.914
16529W        W88200  40.861  39.046   0.450
16530W        W88201   3.164  10.297   4.192
16531W        W88202  38.786  23.269   2.055
16532W        W88203  25.285  13.690  13.576
16533W        W88204  44.067  14.046  10.561
16534W        W88205   3.879  28.586   4.073
16535W        W88206  36.144  18.747  13.419
16536W        W88207  11.564  33.074  12.039
16537W        W88208   1.773   3.925  11.740
16538W        W88209  42.223  18.664  11.085
16539W        W88210   1.599  38.407   1.325
16540W        W88211  37.893  23.837  11.559
16541W        W88212  20.443  12.178   5.531
16542W        W88213  24.045  11.160   0.288
16543W        W88214  27.990  32.958  10.193
16544W        W88215   8.993  16.756   4.874
16545W        W88216  20.705  34.959   4.571
16546W        W88217   0.629  44.047  10.612
16547W        W88218  28.186  24.077   3.699
16548W        W88219   0.384   0.061   1.113
16549W        W88220  33.677   3.445   2.658
16550W        W88221   0.654  32.040  10.213
16551W        W88222   8.115  24.916   1.655
16552W        W88223   1.811  22.459   5.710
16553W        W88224  34.933   9.382  13.898
16554W        W88225   1.253  14.723  12.659
16555W        W88226  23.105   7.272  14.777
16556W        W88227  41.469  19.192   2.170
16557W        W88228  12.713  42.530   3.191
16558W        W88229   3.345  31.543   2.200
16559W        W88230  33.851  20.651  11.989
16560W        W88231  38.460  30.917  12.886
16561W        W88232  16.135  33.461   0.444
16562W        W88233  31.580   3.406  14.353
16563W        W88234   6.991  20.032  14.032
16564W        W88235   6.828  11.424  11.953
16565W        W88236  15.279  12.172  11.199
16566W        W88237  26.217  27.702   0.292
16567W        W88238   5.713   9.726  11.501
16568W        W88239  33.125  14.614   1.252
16569W        W88240  18.384  38.310   0.248
16570W        W88241   7.766   2.866   4.537
16571W        W88242   2.557  14.176  13.137
16572W        W88243  23.225  17.167  11.307
16573W        W88244  38.915   0.051  13.854
16574W        W88245  15.295   6.264  10.138
16575W        W88246  16.330  34.115   4.401
16576W        W88247  39.786   3.934  12.064
16577W        W88248  42.487   1.774  13.994
16578W        W88249  29.951   4.936   1.299
16579W        W88250  30.957  22.619   3.876
16580W        W88251   3.682  10.369  12.047
16581W        W88252  13.247  19.431   2.429
16582W        W88253  44.914  37.871  11.939
16583W        W88254  13.254  37.033  11.599
16584W        W88255  14.406  11.848  10.271
16585W        W88256  16.723  26.929   2.650
16586W        W88257  26.956  34.868  13.722
16587W        W88258  22.749  33.456  12.466
16588W        W88259   8.185  34.425   0.002
16589W        W88260  20.190  13.201   9.939
16590W        W88261   8.077  10.609  12.010
16591W        W88262  10.174   3.557  12.897
16592W        W88263   8.798  33.285  14.554
16593W        W88264  20.557   0.360   0.756
16594W        W88265   4.544  33.285   1.348
16595W        W88266  33.034  25.108  12.403
16596W        W88267  20.703  33.632  10.747
16597W        W88268  31.910  38.864   4.102
16598W        W88269  18.784  14.722   3.714
16599W        W88270  37.410  20.021   4.513
16600W        W88271  14.727  42.813   1.365
16601W        W88272  17.165  36.730  11.855
16602W        W88273  42.503  26.185   4.668
16603W        W88274   1.698  31.288   0.186
16604W        W88275   2.451  27.585   1.694
16605W        W88276  18.138   9.839  11.000
16606W        W88277  41.299  31.105  14.283
16607W        W88278   4.940   2.799   3.477
16608W        W88279  43.810  38.440  12.797
16609W        W88280  12.921  44.576   0.483
16610W        W88281  31.625  36.577  12.389
16611W        W88282  38.082  23.050   1.366
16612W        W88283  33.530   6.656  13.852
16613W        W88284  12.138   6.267   2.268
16614W        W88285  10.296  30.426  11.160
16615W        W88286  26.681  12.989  11.189
16616W        W88287  26.147  37.331   1.236
16617W        W88288  39.384  17.548   0.919
16618W        W88289  34.510  26.465  14.873
16619W        W88290  42.538  30.312  13.932
16620W        W88291  26.950  22.174   1.975
16621W        W88292  37.926  36.854   2.984
16622W        W88293  35.367  23.363   3.637
16623W        W88294  41.780  26.617   2.418
16624W        W88295  19.826  31.674  11.352
16625W        W88296  32.152  26.043   2.272
16626W        W88297   2.117   2.929   2.830
16627W        W88298   2.454  30.401   3.167
16628W        W88299  26.538  11.609  11.411
16629W        W88300   8.175   5.651  13.443
16630W        W88301   5.851  33.028   1.820
16631W        W88302  41.630  29.071   0.879
16632W        W88303   2.366   6.904   4.864
16633W        W88304   1.754   3.657   2.386
16634W        W88305  25.179  41.455   2.771
16635W        W88306  15.642  19.579  13.002
16636W        W88307   7.230  38.867   4.554
16637W        W88308   7.485  42.864  10.699
16638W        W88309  43.386  42.299  13.148
16639W        W88310   3.296  37.396  13.391
16640W        W88311  17.048  35.385   1.714
16641W        W88312  32.452  40.260   9.863
16642W        W88313  25.524  29.557   4.852
16643W        W88314   2.134   9.950  11.956
16644W        W88315  24.000  38.027   5.164
16645W        W88316   9.226   8.300   4.524
16646W        W88317  29.499  25.110  11.424
16647W        W88318  13.862  26.218   0.327
16648W        W88319  32.128  25.967   1.312
16649W        W88320   7.456  44.261  13.516
16650W        W88321  21.534  28.061   4.660
16651W        W88322  31.124  29.369   4.137
16652W        W88323  13.807  32.510   0.716
16653W        W88324  22.286  11.766  11.963
16654W        W88325  36.247   0.832  13.141
16655W        W88326   4.444   2.656   2.200
16656W        W88327   4.670  31.962  13.789
16657W        W88328  32.900  43.738  11.434
16658W        W88329  24.114  37.116   0.402
16659W        W88330   7.133  37.750   1.223
16660W        W88331  31.141  30.179  11.619
16661W        W88332  21.242  44.953  11.062
16662W        W88333  16.307  21.386  10.171
16663W        W88334   5.982   0.320  14.405
16664W        W88335  35.206  12.578   1.794
16665W        W88336  35.572   3.200   0.942
16666W        W88337  14.788  20.751  12.407
16667W        W88338  37.369  16.300   1.770
16668W        W88339  29.484  40.404  13.023
16669W        W88340  21.301   7.022  14.828
16670W        W88341  33.580   4.448  14.214
16671W        W88342   9.695   5.969   0.398
16672W        W88343  12.066  26.220   4.552
16673W        W88344  15.053  19.991   2.496
16674W        W88345  14.188  35.655   0.408
16675W        W88346  37.988  21.310  13.101
16676W        W88347   0.211  32.023  11.081
16677W        W88348   4.030  13.832  12.388
16678W        W88349  29.205   9.276   3.739
16679W        W88350  27.579  33.172   0.804
16680W        W88351  34.418   5.266  14.919
16681W        W88352  38.921  14.251  12.917
16682W        W88353  21.491   9.170  10.635
16683W        W88354  23.013  30.176   2.481
16684W        W88355   6.276  42.952  11.889
16685W        W88356   2.826  27.462  14.366
16686W        W88357  26.907  26.698  13.231
16687W        W88358   7.146  33.381  13.562
16688W        W88359  31.885  33.950  14.295
16689W        W88360  37.716  22.484  10.399
16690W        W88361   4.839   4.080   3.325
16691W        W88362  13.681  26.700   0.478
16692W        W88363  44.499   8.986  10.572
16693W        W88364  21.578   2.297   1.315
16694W        W88365  37.750  12.771  12.657
16695W        W88366  37.061  40.824  11.240
16696W        W88367  31.386   9.672   3.586
16697W        W88368  37.935  21.928   0.047
16698W        W88369  15.233   0.338   4.234
16699W        W88370  19.567  36.279   5.090
16700W        W88371  14.284  29.565   4.965
16701W        W88372  11.278  27.148   1.189
16702W        W88373  34.113  44.982  10.976
16703W        W88374  19.975  30.148   1.819
16704W        W88375  32.571  14.217   4.508
16705W        W88376   3.800  41.418  12.923
16706W        W88377   8.434  32.420   3.146
16707W        W88378  20.568  18.238  11.623
16708W        W88379  38.373  11.266   4.538
16709W        W88380   1.869  29.597   0.948
16710W        W88381  34.818  37.523   0.070
16711W        W88382  36.681  25.928   4.825
16712W        W88383  30.421  31.989   2.176
16713W        W88384  10.549  16.091  14.868
16714W        W88385  13.056  26.809  11.644
16715W        W88386  44.928   7.813   0.437
16716W        W88387   8.995   7.179  14.850
16717W        W88388   4.437  11.700   3.698
16718W        W88389  11.490  17.330   4.892
16719W        W88390  27.449  31.162   4.203
16720W        W88391  22.809  39.614  12.476
16721W        W88392  23.158   3.959  13.924
16722W        W88393  12.100  40.880  14.373
16723W        W88394   8.035  27.506  13.132
16724W        W88395  44.564  20.169   0.909
16725W        W88396  13.932  36.473   1.477
16726W        W88397  42.765  42.362   0.496
16727W        W88398  30.571  43.277  11.896
16728W        W88399   9.682   5.505  14.661
16729W        W88400  15.332  29.397   3.817
16730W        W88401  20.130  20.033  14.882
16731W        W88402  29.592  30.174   4.613
16732W        W88403  16.709   9.245   0.370
16733W        W88404  25.748   8.536   0.813
16734W        W88405  36.004   9.431  10.765
16735W        W88406  29.833   2.350  14.300
16736W        W88407   7.703   3.966   1.588
16737W        W88408   7.859  35.972   4.673
16738W        W88409  10.209  44.352   4.351
16739W        W88410  12.620  39.822  11.225
16740W        W88411  30.692  22.934   2.280
16741W        W88412  34.138  37.039  12.295
16742W        W88413  20.074   2.914  10.773
16743W        W88414  27.381  35.902   4.007
16744W        W88415   7.995  31.844   1.740
16745W        W88416  41.091  11.337   0.741
16746W        W88417  12.098   6.029   4.100
16747W        W88418  35.028  15.373   2.156
16748W        W88419  31.137  41.042   0.995
16749W        W88420  14.276   4.769   1.372
16750W        W88421  36.694  25.963   2.573
16751W        W88422   1.736  29.226  12.849
16752W        W88423  10.200  42.879  14.320
16753W        W88424   2.549  40.136   5.054
16754W        W88425  34.737  27.479   2.852
16755W        W88426  39.855   6.502   4.524
16756W        W88427  40.599  27.920   0.038
16757W        W88428   9.481   8.323   1.833
16758W        W88429  44.208  20.596  11.057
16759W        W88430  27.700  22.705   4.878
16760W        W88431  18.903  41.043   0.355
16761W        W88432  25.498  43.287  13.563
16762W        W88433   6.596  14.222  10.434
16763W        W88434   1.015  39.426  13.996
16764W        W88435  38.608  37.749  14.887
16765W        W88436   1.512  20.029   2.346
16766W        W88437  43.812  17.614  14.239
16767W        W88438  37.245   8.481   0.123
16768W        W88439  19.807   5.513  11.617
16769W        W88440  18.173  41.750  13.020
16770W        W88441   7.206  40.985  13.502
16771W        W88442  38.080   4.652   4.298
16772W        W88443   4.924  10.883  14.254
16773W        W88444  16.390  33.015  11.090
16774W        W88445  22.608  29.837  11.102
16775W        W88446  35.530   6.883  13.410
16776W        W88447   4.884  37.325  11.168
16777W        W88448   9.182  37.348  11.541
16778W        W88449  44.863  28.607  14.217
16779W        W88450  43.059  29.570  13.456
16780W        W88451   1.980  22.971  10.566
16781W        W88452  34.924  11.130   4.555
16782W        W88453  25.357   9.586  12.000
16783W        W88454  33.102  24.534  12.553
16784W        W88455  32.188  15.801   0.340
16785W        W88456   5.718  20.087   0.821
16786W        W88457  34.524  35.896  10.604
16787W        W88458   1.834   4.191  14.850
16788W        W88459  28.149  27.750  10.055
16789W        W88460   2.797  29.286   1.248
16790W        W88461  39.085  18.563   0.013
16791W        W88462  21.137   5.470   2.729
16792W        W88463   2.893  35.039  12.914
16793W        W88464  20.510   0.682   1.928
16794W        W88465  44.302  28.459   4.482
16795W        W88466  26.589  28.238   3.756
16796W        W88467  20.194  22.533   1.326
16797W        W88468  12.392   3.803  11.048
16798W        W88469   2.721   9.726   4.663
16799W        W88470  14.115  39.653   0.244
16800W        W88471  17.294  13.385   3.490
16801W        W88472   2.177  33.588   3.094
16802W        W88473  43.437   1.764  13.339
16803W        W88474   6.410   4.447   2.392
16804W        W88475  32.418  25.976  12.066
16805W        W88476  21.274  44.221   2.777
16806W        W88477  12.666  39.737   0.858
16807W        W88478   9.002  34.543  11.493
16808W        W88479  14.248  14.431   4.954
16809W        W88480   9.173  12.204  12.857
16810W        W88481  15.148  22.142   4.579
16811W        W88482  21.066  18.686  14.486
16812W        W88483  30.407  29.383  13.422
16813W        W88484   2.422   4.298  12.145
16814W        W88485   5.292  37.877   2.875
16815W        W88486  10.553  23.079  13.861
16816W        W88487  12.442  38.055   1.389
16817W        W88488   3.772  44.279   4.514
16818W        W88489  22.004  32.467   4.217
16819W        W88490  16.068   7.398   4.242
16820W        W88491  13.337  13.748   0.805
16821W        W88492  34.988   4.669   2.290
16822W        W88493  37.856  37.924  12.436
16823W        W88494  17.981  11.932  10.117
16824W        W88495  37.143  40.116  13.493
16825W        W88496  39.089  20.672   2.555
16826W        W88497  12.786  19.628   0.714
16827W        W88498  26.430   8.932   2.193
16828W        W88499  21.105  38.812  11.324
16829W        W88500   8.541  30.581  14.430
16830W        W88501  44.358  32.473  10.032
16831W        W88502   4.394  27.185  13.101
16832W        W88503  42.017  18.819  12.436
16833W        W88504  33.201  34.872   3.178
16834W        W88505  21.012   7.869  12.482
16835W        W88506  38.378  21.259   3.546
16836W        W88507   4.744  17.964  12.029
16837W        W88508  30.920  13.444   0.010
16838W        W88509  33.913  33.382  10.731
16839W        W88510   7.721   7.722  11.518
16840W        W88511  11.117  43.134  11.927
16841W        W88512  18.123  28.368   0.002
16842W        W88513  37.483  28.858   1.908
16843W        W88514  38.129  16.856   3.729
16844W        W88515   1.789  14.369   1.294
16845W        W88516  29.033   9.268   0.535
16846W        W88517  35.315  38.292   2.413
16847W        W88518  38.038  29.197  10.447
16848W        W88519  27.150  44.872  11.562
16849W        W88520   3.092  28.001   4.566
16850W        W88521  17.558  22.580   4.111
16851W        W88522   8.392  39.632  13.980
16852W        W88523  32.193  16.857   1.370
16853W        W88524   3.937   3.777   1.968
16854W        W88525  14.648  26.618  13.536
16855W        W88526  40.550  21.805   0.196
16856W        W88527   0.002  41.066   1.810
16857W        W88528  30.586  25.995  14.763
16858W        W88529  29.481   4.031  13.994
16859W        W88530  27.134  15.748  11.137
16860W        W88531  19.244  27.759   4.157
16861W        W88532  10.288  18.274  13.958
16862W        W88533  11.039   5.945  11.998
16863W        W88534  28.030  28.923  12.585
16864W        W88535  24.688   9.964   3.332
16865W        W88536  22.266  42.737  10.665
16866W        W88537  15.260   8.397   1.849
16867W        W88538  27.562  28.042   2.785
16868W        W88539  27.756  10.554  12.442
16869W        W88540   1.693  44.423  10.557
16870W        W88541  10.605  38.485   4.554
16871W        W88542  36.112  19.547  10.705
16872W        W88543   5.924  26.723  11.631
16873W        W88544  13.825   6.671  14.209
16874W        W88545   2.184   3.402  12.652
16875W        W88546  28.678  38.877   4.396
16876W        W88547  18.091  33.917  13.024
16877W        W88548   5.173  28.497  13.602
16878W        W88549  33.566   3.685  13.493
16879W        W88550  38.956   9.893  13.431
16880W        W88551  30.150   9.726   2.370
16881W        W88552   4.283   4.867   4.966
16882W        W88553  15.077  21.895   4.125
16883W        W88554  28.247  31.653   2.262
16884W        W88555  30.520  21.536   4.431
16885W        W88556  18.463  12.632  10.846
16886W        W88557  24.094  18.673   2.568
16887W        W88558  31.435  43.824   3.408
16888W        W88559  14.738  35.476  10.797
16889W        W88560  26.421  27.611  13.923
16890W        W88561  43.503   7.225  11.079
16891W        W88562  36.769  13.090   2.139
16892W        W88563  10.638  17.116   1.387
16893W        W88564  18.184  23.517  13.777
16894W        W88565  26.752   1.875  11.071
16895W        W88566  43.865  14.124   0.825
16896W        W88567   7.424   9.178   2.758
16897W        W88568   9.388  14.902  14.429
16898W        W88569  23.017  40.029  10.811
16899W        W88570  27.971  23.510  10.701
16900W        W88571  16.076  16.247  11.795
16901W        W88572  11.839  21.198  10.757
16902W        W88573  39.833   0.375   0.303
16903W        W88574  19.623  12.020  12.281
16904W        W88575  44.866   1.939   4.216
16905W        W88576  41.338  13.199  10.593
16906W        W88577  28.952  24.709   0.772
16907W        W88578  23.108   2.840  11.227
16908W        W88579  15.649  43.823   4.728
16909W        W88580   8.983   9.879  13.575
16910W        W88581  30.503  13.794   3.946
16911W        W88582  17.273   0.932   4.548
16912W        W88583   9.914   7.744  12.340
16913W        W88584  24.148   4.389   4.915
16914W        W88585  13.670  32.440   3.316
16915W        W88586  24.018   7.606  12.950
16916W        W88587  24.879  16.635   2.053
16917W        W88588  18.994  23.086   1.842
16918W        W88589  38.642  41.909   3.161
16919W        W88590  30.333   6.420  13.585
16920W        W88591  16.784  29.514  13.872
16921W        W88592  40.081  20.705  13.902
16922W        W88593  41.673   6.733   1.039
16923W        W88594  43.414  32.497  12.847
16924W        W88595  27.015  20.348  10.449
16925W        W88596  28.335   4.020   1.709
16926W        W88597  40.504  32.113  14.000
16927W        W88598  16.632   0.197   0.309
16928W        W88599  16.094  11.207   0.398
16929W        W88600  11.584  24.121  11.488
16930W        W88601   7.618  17.114   2.806
16931W        W88602   1.654  28.509  14.052
16932W        W88603   1.646  21.756   2.716
16933W        W88604  17.322   9.787  14.885
16934W        W88605  26.728  26.768  13.731
16935W        W88606  16.139  44.445  13.074
16936W        W88607  28.681  37.945   1.921
16937W        W88608   5.927  10.295  12.539
16938W        W88609  39.823  41.266  12.316
16939W        W88610  36.572  40.404   4.648
16940W        W88611  24.192   5.376  13.419
16941W        W88612   2.728  37.873   3.637
16942W        W88613  33.128  29.089  10.426
16943W        W88614  23.190  41.057   3.705
16944W        W88615  24.301  36.958   1.240
16945W        W88616   5.688  16.214   1.233
16946W        W88617  44.397  11.987  13.563
16947W        W88618   4.223  28.666  14.798
16948W        W88619  36.067  33.864   3.396
16949W        W88620  43.036  16.632  11.072
16950W        W88621  20.781  42.315   1.775
16951W        W88622  40.910   4.258   4.206
16952W        W88623  34.084  39.097   5.014
16953W        W88624  22.854   2.318  14.417
16954W        W88625  17.054  36.970   3.910
16955W        W88626  12.219  20.033  12.441
16956W        W88627  37.976   3.869   4.598
16957W        W88628  33.895  15.575  11.096
16958W        W88629  41.845  26.474   1.931
16959W        W88630  35.143  10.126   4.748
16960W        W88631  34.345   0.682   0.429
16961W        W88632  33.975  14.328   3.213
16962W        W88633  28.562   2.738  14.702
16963W        W88634   9.404  10.777   2.948
16964W        W88635   9.063   9.641  12.684
16965W        W88636   8.707  24.524  10.675
16966W        W88637  21.281   5.367  13.093
16967W        W88638  17.320  43.732   0.341
16968W        W88639  18.186  24.007   4.583
16969W        W88640  27.639   5.390   4.524
16970W        W88641  21.069  35.607  13.531
16971W        W88642  33.341  28.166   4.050
16972W        W88643  20.171  35.488  13.436
16973W        W88644  14.713  18.436   4.807
16974W        W88645   4.175  30.647  13.883
16975W        W88646  42.077  38.058   2.173
16976W        W88647  29.848  34.044   4.122
16977W        W88648  44.271  24.248  14.327
16978W        W88649  33.069  44.328   3.010
16979W        W88650  11.375  26.971  14.295
16980W        W88651  21.124  27.294  12.879
16981W        W88652  39.834   7.604   1.657
16982W        W88653  34.921  14.898  13.791
16983W        W88654  40.893  22.944  14.887
16984W        W88655  11.496  33.471   4.998
16985W        W88656  29.390  22.170  14.018
16986W        W88657  10.453  40.493  11.009
16987W        W88658   2.160  31.730  12.915
16988W        W88659  27.105  42.233  12.240
16989W        W88660  24.184  23.600   2.611
16990W        W88661  41.672  30.672   4.008
16991W        W88662   6.914  26.306   1.780
16992W        W88663  15.464  27.396   1.204
16993W        W88664  24.651   8.014  10.799
16994W        W88665  16.889   7.103  11.136
16995W        W88666   3.436   4.304  10.552
16996W        W88667   5.343   4.703   1.357
16997W        W88668  33.519  19.312  13.901
16998W        W88669  39.005   2.236   4.573
16999W        W88670  35.475   5.913   2.241
17000W        W88671  16.267  22.362   3.802
17001W        W88672  14.017  35.411   2.879
17002W        W88673  19.283   5.535  12.307
17003W        W88674  39.668  44.699  12.221
17004W        W88675   4.376   6.432  11.466
17005W        W88676  38.788  44.402   2.888
17006W        W88677  30.395  13.226   4.592
17007W        W88678  25.526  24.129  11.923
17008W        W88679  31.872  44.033  13.019
17009W        W88680  16.533  31.416   1.863
17010W        W88681  38.845  15.522   2.191
17011W        W88682  23.647  26.767   0.349
17012W        W88683  41.606  14.384   4.484
17013W        W88684  24.357  13.044   4.839
17014W        W88685  29.997   7.234  12.468
17015W        W88686  35.464  20.145  13.753
17016W        W88687  43.548  12.157  14.331
17017W        W88688   8.192  11.568   3.294
17018W        W88689  24.958   3.942   0.457
17019W        W88690  21.108  11.876  14.391
17020W        W88691  13.212   7.578  13.472
17021W        W88692   2.780  26.974   4.597
17022W        W88693  40.077  13.155  11.502
17023W        W88694   5.446  42.408  10.980
17024W        W88695   3.472  17.139   4.967
17025W        W88696  23.512  37.127  14.502
17026W        W88697   7.319  17.014  14.988
17027W        W88698  21.950   3.896  13.295
17028W        W88699  31.848  37.899   2.409
17029W        W88700   6.689  32.447   4.632
17030W        W88701  29.258  37.380  11.487
17031W        W88702   5.424  14.810  10.792
17032W        W88703  30.409   9.519   0.108
17033W        W88704   1.474  25.025   3.282
17034W        W88705  30.643  36.825  13.037
17035W        W88706  40.969  25.050  14.888
17036W        W88707  44.327   4.811   3.732
17037W        W88708  35.131  23.609   0.359
17038W        W88709  11.097  27.929  14.440
17039W        W88710  26.565   0.934   2.336
17040W        W88711   2.870  12.163   0.026
17041W        W88712  40.906  35.516   4.670
17042W        W88713  11.657  23.014   4.284
17043W        W88714  24.019  23.612  12.878
17044W        W88715  38.247  21.807   0.468
17045W        W88716  41.840  20.965   1.318
17046W        W88717  44.276  24.874   2.268
17047W        W88718   1.721  25.438   0.467
17048W        W88719  23.650  21.455   3.069
17049W        W88720  22.308  24.066  11.897
17050W        W88721   4.707  13.176  12.654
17051W        W88722  36.811   1.399  13.330
17052W        W88723  15.271  22.327   1.242
17053W        W88724  18.570  33.934   1.762
17054W        W88725  37.360  32.523  12.970
17055W        W88726  19.221  30.655  11.530
17056W        W88727  28.183  22.740  11.056
17057W        W88728  23.030   1.447   0.764
17058W        W88729  25.443  17.800  11.406
17059W        W88730  18.859  19.147  13.933
17060W        W88731  40.837  43.325   2.903
17061W        W88732  24.788  31.109   1.942
17062W        W88733  23.650  19.132   4.142
17063W        W88734  29.407   6.023   4.533
17064W        W88735  17.277   6.325  12.484
17065W        W88736  25.584  34.770  10.423
17066W        W88737  34.503  38.944   4.661
17067W        W88738  11.793  34.026  14.709
17068W        W88739  16.778  28.505   0.911
17069W        W88740  22.166  42.521   0.313
17070W        W88741  18.983  40.809  14.411
17071W        W88742  25.939  42.505   1.857
17072W        W88743   7.676   0.607   0.430
17073W        W88744   3.469  10.962  14.063
17074W        W88745  32.230  17.315   0.090
17075W        W88746   6.437  21.332  14.329
17076W        W88747  28.432  44.947   2.737
17077W        W88748  36.035  41.976   4.343
17078W        W88749  32.113   2.344   3.827
17079W        W88750  32.182  40.586  13.584
17080W        W88751  33.383  10.798  12.008
17081W        W88752  27.410   7.863   5.198
17082W        W88753   7.874  39.579  13.922
17083W        W88754   9.509  42.263   2.212
17084W        W88755  37.076  14.221   3.746
17085W        W88756  39.411  32.967   4.634
17086W        W88757  29.914  18.592   2.785
17087W        W88758   0.445   3.826  14.799
17088W        W88759  22.939  41.908  14.359
17089W        W88760   9.866   9.142   0.792
17090W        W88761  37.938  34.186   3.366
17091W        W88762  36.822  26.653   4.834
17092W        W88763  17.452  17.227   2.716
17093W        W88764  42.302  27.983   4.150
17094W        W88765   3.638  33.760   0.338
17095W        W88766  17.577  33.146   4.215
17096W        W88767  28.093  36.267   1.861
17097W        W88768  42.177  39.201   0.495
17098W        W88769  35.499  41.742   3.686
17099W        W88770  31.156  37.762  12.522
17100W        W88771  39.614  33.377   1.336
17101W        W88772  28.145  31.663   9.831
17102W        W88773   0.135  43.175  13.471
17103W        W88774  32.173  24.601   0.844
17104W        W88775  15.546  37.040   0.598
17105W        W88776  39.001  17.609  11.233
17106W        W88777   8.085  20.724   2.817
17107W        W88778   2.584  38.520   4.903
17108W        W88779  31.516   7.530   2.356
17109W        W88780  13.264  22.525  11.914
17110W        W88781  13.997   9.829   3.989
17111W        W88782  21.178  37.964   1.720
17112W        W88783  37.992   4.837  12.365
17113W        W88784  30.586  28.587   4.407
17114W        W88785  11.062  40.420  13.052
17115W        W88786  12.671  30.865  11.204
17116W        W88787  21.259  30.866  12.624
17117W        W88788  23.125   9.579  11.083
17118W        W88789  10.840   6.146  11.221
17119W        W88790  22.371  41.125   3.023
17120W        W88791  37.874  33.640   4.141
17121W        W88792  11.224   0.130  14.758
17122W        W88793  11.766  33.146  11.582
17123W        W88794  14.912  12.539   0.979
17124W        W88795   9.269  18.743  14.449
17125W        W88796  35.092  35.593  10.698
17126W        W88797  42.378   1.119   1.854
17127W        W88798  34.044  25.002  12.488
17128W        W88799   3.276  10.633   0.931
17129W        W88800  34.287   7.410   0.571
17130W        W88801  15.247   0.795  12.309
17131W        W88802  39.812  36.519  10.803
17132W        W88803  22.810  17.149   1.383
17133W        W88804  14.605   7.822   2.740
17134W        W88805  31.404  28.033  10.650
17135W        W88806  10.909  30.091   3.159
17136W        W88807  38.869  43.288   4.109
17137W        W88808  38.806  25.114   1.624
17138W        W88809  27.785  22.889  14.179
17139W        W88810  21.165  24.524  12.996
17140W        W88811  25.541  12.560  14.211
17141W        W88812  35.108   2.683  12.297
17142W        W88813  26.215  18.544  12.803
17143W        W88814   4.974  24.332   2.767
17144W        W88815   7.357  40.590   0.357
17145W        W88816  34.312  11.237   3.783
17146W        W88817  16.052   8.418   1.460
17147W        W88818  24.686   2.327   3.251
17148W        W88819  42.445  22.221   1.705
17149W        W88820  12.481  31.118   2.997
17150W        W88821  41.956   7.775   0.334
17151W        W88822  15.571  27.685  14.804
17152W        W88823   1.536  35.060   0.781
17153W        W88824  44.212  27.039  10.388
17154W        W88825  16.196  15.605   3.259
17155W        W88826  35.094  11.173   2.242
17156W        W88827   0.964  29.585   4.096
17157W        W88828   8.966   9.332  11.475
17158W        W88829  19.938  13.162   2.431
17159W        W88830  12.167   2.409  14.555
17160W        W88831  36.535  32.200  12.976
17161W        W88832   2.848  30.877   2.769
17162W        W88833  15.612  31.039   2.438
17163W        W88834  24.999  44.151  14.858
17164W        W88835  28.645  38.560  11.610
17165W        W88836  41.313   9.440  14.279
17166W        W88837  10.119  40.117  12.235
17167W        W88838   4.247  44.222   2.812
17168W        W88839  44.608  15.257  10.827
17169W        W88840  10.164  29.286   0.806
17170W        W88841  12.989  21.977  14.328
17171W        W88842  36.708  42.961   1.774
17172W        W88843  24.601  12.692  14.389
17173W        W88844   5.766   0.661  12.879
17174W        W88845  39.750   5.966   2.683
17175W        W88846  10.661  35.941   4.552
17176W        W88847  17.798  29.942  10.684
17177W        W88848  42.864   0.274   0.337
17178W        W88849   0.265  37.787   1.005
17179W        W88850  35.897  14.799   4.109
17180W        W88851   1.336  44.199  11.897
17181W        W88852  39.521  37.318   4.474
17182W        W88853  39.505  43.569  14.805
17183W        W88854  11.705   7.049  10.768
17184W        W88855  38.385  19.313  11.651
17185W        W88856   3.398  23.343   4.435
17186W        W88857  15.494  29.904  13.256
17187W        W88858  24.712  41.692  11.285
17188W        W88859  40.538  11.492  13.916
17189W        W88860  40.353  28.555   0.612
17190W        W88861  18.368  14.126   4.169
17191W        W88862  13.608  24.439   3.127
17192W        W88863  41.371  13.036  11.079
17193W        W88864  18.253  38.550   2.348
17194W        W88865  25.408  19.559   4.170
17195W        W88866  44.341  37.786  11.891
17196W        W88867  25.675  19.592   0.583
17197W        W88868   4.981  31.595  10.994
17198W        W88869  29.558  23.213   3.116
17199W        W88870   7.415  29.679  13.025
17200W        W88871  38.805  43.443   3.252
17201W        W88872   8.718  14.178   2.825
17202W        W88873  20.700  33.920  12.931
17203W        W88874  12.749  13.183   3.228
17204W        W88875   4.733  36.609  13.034
17205W        W88876  33.612  14.691  11.215
17206W        W88877   1.802  32.987   2.204
17207W        W88878  32.818  25.703  12.434
17208W        W88879  36.696  16.839   3.188
17209W        W88880  32.065  37.909   4.116
17210W        W88881  35.912  23.612   0.780
17211W        W88882  28.734  35.954  11.432
17212W        W88883   0.540   2.001  14.791
17213W        W88884  23.238   3.980   2.737
17214W        W88885  23.202  35.282   1.622
17215W        W88886  28.126   7.236   0.455
17216W        W88887  29.401  24.058   4.077
17217W        W88888   6.927   5.997  11.970
17218W        W88889  16.862  18.224   4.549
17219W        W88890   0.942  43.307  14.545
17220W        W88891  22.449  12.739   1.722
17221W        W88892   0.594  23.142  13.054
17222W        W88893  35.426   7.633   3.200
17223W        W88894   3.740  29.916  14.344
17224W        W88895   5.230   4.618  13.350
17225W        W88896  24.814  31.637  14.917
17226W        W88897  42.376   0.515  14.559
17227W        W88898  35.404  25.018   5.115
17228W        W88899  18.955   5.527  11.917
17229W        W88900  37.675   5.221   2.068
17230W        W88901  21.657  27.114  11.902
17231W        W88902  23.507  13.838   3.871
17232W        W88903  27.014   7.638  10.645
17233W        W88904  39.370  23.780   1.166
17234W        W88905   0.375  12.408  13.602
17235W        W88906  36.934  29.603   2.144
17236W        W88907  19.982  33.088   2.253
17237W        W88908  26.419  44.927   3.888
17238W        W88909  11.826  33.357   0.265
17239W        W88910  25.009  20.867   4.203
17240W        W88911  44.309  37.919  14.234
17241W        W88912  16.062  31.193  11.119
17242W        W88913   2.527  11.182  11.546
17243W        W88914  44.859   4.885   1.728
17244W        W88915  26.406  34.880   0.980
17245W        W88916   9.664  38.594  12.359
17246W        W88917  37.359  21.646   2.335
17247W        W88918  35.989   1.299   3.595
17248W        W88919  16.485  15.277   0.513
17249W        W88920   7.387  17.077  12.090
17250W        W88921  19.501   7.892   4.076
17251W        W88922  29.813   4.175   3.328
17252W        W88923  25.419   4.610  11.691
17253W        W88924  17.270   5.652  11.690
17254W        W88925   7.445  13.588   3.620
17255W        W88926  20.493  15.528   0.815
17256W        W88927  35.082   2.178  11.449
17257W        W88928  26.717  21.027   0.844
17258W        W88929  41.758  21.028  12.484
17259W        W88930  14.324  42.184  14.871
17260W        W88931  17.003  36.408  13.967
17261W        W88932  29.024   3.825  14.587
17262W        W88933  40.315  24.666   0.989
17263W        W88934   4.532  11.484   0.413
17264W        W88935   2.248  37.869   0.226
17265W        W88936  42.394   2.680  13.955
17266W        W88937  17.694  19.719   2.706
17267W        W88938  19.248  31.613  14.860
17268W        W88939   5.288  35.367   0.979
17269W        W88940  36.364  36.359   4.191
17270W        W88941  10.963  14.787  11.052
17271W        W88942   8.377  13.218   4.748
17272W        W88943   0.883  26.972  11.463
17273W        W88944  10.756  10.713   2.144
17274W        W88945   7.879  27.613   2.335
17275W        W88946   8.768  17.602  12.465
17276W        W88947  34.040  24.442   0.763
17277W        W88948  18.712  11.545  11.035
17278W        W88949  23.591   8.462   0.397
17279W        W88950  18.521  23.903  10.581
17280W        W88951  17.063  40.935  11.125
17281W        W88952  13.131  30.571   3.249
17282W        W88953  37.941  17.864   0.399
17283W        W88954  15.649  11.295  14.522
17284W        W88955   6.854   2.510   1.743
17285W        W88956  21.282  31.525   2.206
17286W        W88957  43.943  22.783  14.468
17287W        W88958   4.288  24.625  13.515
17288W        W88959  37.077  19.167  11.937
17289W        W88960  34.550   8.111   2.215
17290W        W88961  29.517  25.687   3.582
17291W        W88962   3.796  26.952  14.268
17292W        W88963  19.635  35.034  11.090
17293W        W88964  32.425  32.901  12.890
17294W        W88965  19.431  36.183  11.512
17295W        W88966  43.795   6.574   3.211
17296W        W88967   0.018  13.880   0.377
17297W        W88968  40.250  41.878  12.036
17298W        W88969   7.434  29.187   3.324
17299W        W88970  28.520  16.899  14.310
17300W        W88971  16.561   4.853   5.338
17301W        W88972  29.427  43.996   0.893
17302W        W88973  33.469  37.977  11.774
17303W        W88974  39.546  33.364   4.322
17304W        W88975   8.462  25.958  10.544
17305W        W88976  20.028  10.387   2.265
17306W        W88977  39.515  31.971   3.201
17307W        W88978  42.887  27.008   3.178
17308W        W88979  34.745   5.850  11.686
17309W        W88980  31.631   0.812   2.600
17310W        W88981   8.375  26.980  14.514
17311W        W88982  39.424  11.345   1.572
17312W        W88983  18.644  18.844  13.294
17313W        W88984  29.000  14.809  11.557
17314W        W88985  40.941   4.989   3.364
17315W        W88986   2.655  29.461  13.117
17316W        W88987  21.113  24.533   4.738
17317W        W88988  23.275  11.632   2.245
17318W        W88989  33.057  36.398   1.824
17319W        W88990   3.922  15.163   3.171
17320W        W88991  18.649  17.374  13.451
17321W        W88992  23.126   3.946  12.487
17322W        W88993  12.092  44.418   0.336
17323W        W88994  13.359  23.431   1.853
17324W        W88995  37.871  24.044  14.305
17325W        W88996  25.514  37.979   3.403
17326W        W88997  44.843  30.641   1.179
17327W        W88998  40.364  31.558  11.900
17328W        W88999  27.248  20.729  12.473
17329W        W89000  25.141  39.795   0.353
17330W        W89001  23.638  14.891  11.153
17331W        W89002  44.970  21.605  13.389
17332W        W89003  30.516   3.682   3.179
17333W        W89004  41.759  15.304  11.118
17334W        W89005  33.641  26.932   2.359
17335W        W89006  33.152   4.673  12.415
17336W        W89007  41.095  37.337   0.652
17337W        W89008  13.765  13.396   2.335
17338W        W89009   3.898   7.443  11.595
17339W        W89010   4.251  30.218   3.809
17340W        W89011  39.142   4.494   0.227
17341W        W89012   2.995  39.947  14.378
17342W        W89013   9.658  19.760   1.402
17343W        W89014   9.857  29.421   0.394
17344W        W89015  34.903  19.662  12.505
17345W        W89016  18.596  31.695  14.469
17346W        W89017  13.289  12.936  13.530
17347W        W89018   1.503  11.650   0.727
17348W        W89019   0.938  16.498  11.473
17349W        W89020  25.142  25.165  12.025
17350W        W89021  41.960  41.451   0.244
17351W        W89022  16.273  27.117   0.758
17352W        W89023  14.407  37.966  10.652
17353W        W89024  16.870   0.392  14.788
17354W        W89025  31.161  21.055  14.965
17355W        W89026  26.483   6.725  13.370
17356W        W89027  27.069  11.792   0.506
17357W        W89028   0.928  12.187  14.496
17358W        W89029  18.700   1.289  12.924
17359W        W89030  11.805  17.288   2.121
17360W        W89031   4.993  44.885  10.851
17361W        W89032  23.139  12.499   3.915
17362W        W89033   7.607  44.739  13.506
17363W        W89034  34.806  21.983  13.526
17364W        W89035  44.426  28.670  14.482
17365W        W89036  43.853   4.682  14.691
17366W        W89037  29.346  11.906  10.669
17367W        W89038  33.761   1.491   3.908
17368W        W89039   2.073   6.217   3.631
17369W        W89040  38.710  15.418   2.705
17370W        W89041  39.567   3.927  12.576
17371W        W89042  35.587  38.509   0.462
17372W        W89043  25.939  20.253  11.046
17373W        W89044  42.796  42.284  10.431
17374W        W89045  30.873  43.818   0.772
17375W        W89046  31.848   4.401   1.377
17376W        W89047  16.214  33.937  10.794
17377W        W89048  13.129   8.879   1.305
17378W        W89049  24.564   8.042   0.487
17379W        W89050  26.838  13.739   4.826
17380W        W89051   3.613  43.324   4.501
17381W        W89052   8.847   0.273   2.197
17382W        W89053  37.443  18.272  12.955
17383W        W89054  33.889  34.076   0.016
17384W        W89055  29.135  10.421  11.106
17385W        W89056  36.974  38.564  14.816
17386W        W89057  10.957  42.086   4.549
17387W        W89058  38.822  39.839  11.992
17388W        W89059  41.798   7.708  11.132
17389W        W89060  13.125   6.901   4.134
17390W        W89061  42.791  21.551  11.509
17391W        W89062  23.542  13.382  13.078
17392W        W89063  23.579  16.781  11.928
17393W        W89064  35.552  38.407  12.087
17394W        W89065  30.685   0.292  11.634
17395W        W89066  10.174  17.810  12.582
17396W        W89067  13.380  28.893   0.824
17397W        W89068  27.369   7.474  13.303
17398W        W89069  24.589  14.552   3.776
17399W        W89070   2.557   1.792   9.639
17400W        W89071   6.150  44.091  13.829
17401W        W89072   2.695  35.361   2.641
17402W        W89073  29.054  11.871   1.606
17403W        W89074   7.794  26.212   1.915
17404W        W89075  17.592  15.223   4.418
17405W        W89076  12.583  20.957   3.738
17406W        W89077  26.483  28.950  11.641
17407W        W89078  36.668  18.155  14.760
17408W        W89079  37.943  21.537  11.861
17409W        W89080  30.688  44.952   1.396
17410W        W89081   7.470  36.654   4.237
17411W        W89082  27.080  13.176   0.786
17412W        W89083  21.625  30.515   3.343
17413W        W89084  16.110  40.823   3.281
17414W        W89085   4.171  29.544   0.052
17415W        W89086   7.190  34.389  14.887
17416W        W89087  27.474  26.114  13.446
17417W        W89088   0.366   0.801  12.009
17418W        W89089  17.113  34.227   0.941
17419W        W89090  29.674  27.738  12.067
17420W        W89091  27.333  33.980   1.911
17421W        W89092  20.010  29.455  11.974
17422W        W89093  34.439  28.176  12.275
17423W        W89094   2.767  15.675   1.472
17424W        W89095  32.293  44.176  12.696
17425W        W89096  16.642  17.164  12.044
17426W        W89097  43.752   3.443  11.997
17427W        W89098  22.769  15.609  10.665
17428W        W89099  19.348   1.247   2.661
17429W        W89100  24.282  32.061  12.502
17430W        W89101  29.004  21.614   1.317
17431W        W89102  41.281   9.582  12.044
17432W        W89103  37.887  39.420   3.192
17433W        W89104  29.858   2.675  10.949
17434W        W89105  40.100  15.672  10.799
17435W        W89106  30.402   9.898   2.832
17436W        W89107  13.262  33.711  12.518
17437W        W89108  36.673  31.072  11.187
17438W        W89109  31.026  25.600  12.256
17439W        W89110  42.016   7.548   1.427
17440W        W89111  28.587   1.947   0.639
17441W        W89112  33.716   3.878  14.986
17442W        W89113  37.204   7.237   3.600
17443W        W89114  40.392  34.350  14.952
17444W        W89115  18.816  30.410   2.281
17445W        W89116  36.609  19.100   3.345
17446W        W89117  19.201  18.641   4.764
17447W        W89118  27.592  43.250   2.736
17448W        W89119  39.061  42.687   3.004
17449W        W89120  25.990  36.417   4.237
17450W        W89121  20.787  34.058  11.485
17451W        W89122  34.002  23.673  13.217
17452W        W89123  32.529  43.245   2.260
17453W        W89124  20.135  42.498   3.422
17454W        W89125  10.588  12.779  12.097
17455W        W89126   9.777  15.530   2.413
17456W        W89127  19.611  28.467   2.719
17457W        W89128  11.568  30.714   3.187
17458W        W89129  35.487  20.039   0.916
17459W        W89130   2.281   1.360   1.191
17460W        W89131  33.207   3.490   1.852
17461W        W89132   5.172   9.903  10.647
17462W        W89133  39.528  27.189   4.373
17463W        W89134  30.464  10.688  13.789
17464W        W89135  34.907  13.432  10.633
17465W        W89136  26.457  35.497   1.410
17466W        W89137  36.800  10.760  10.723
17467W        W89138  28.021   6.318  13.853
17468W        W89139  14.681   4.648  14.522
17469W        W89140  12.599  44.890   2.780
17470W        W89141  30.552  29.096   1.916
17471W        W89142  42.340  31.712   1.451
17472W        W89143   9.359  44.222   0.960
17473W        W89144  11.151  33.530  14.506
17474W        W89145   6.950   5.438   1.638
17475W        W89146  23.759  36.005   1.872
17476W        W89147  11.634   4.826  10.366
17477W        W89148  33.915  33.687  10.262
17478W        W89149   8.770   1.997   0.032
17479W        W89150  13.218  26.470  14.236
17480W        W89151  15.795  31.111   4.139
17481W        W89152  12.800  32.259  14.243
17482W        W89153  43.870  14.855  14.491
17483W        W89154  15.767  35.252  13.392
17484W        W89155   5.417  20.715  11.946
17485W        W89156  34.106  42.889  14.804
17486W        W89157  22.934  32.924   0.296
17487W        W89158  39.466   5.716  12.107
17488W        W89159  28.191  23.778  13.280
17489W        W89160  43.343  13.255   1.752
17490W        W89161  20.806  30.078   0.236
17491W        W89162   0.925   2.843  12.048
17492W        W89163  12.002  18.666   4.886
17493W        W89164  11.683   9.131   4.058
17494W        W89165  20.463  20.677   0.378
17495W        W89166  44.601   6.887   3.755
17496W        W89167  24.611  19.171  12.362
17497W        W89168  25.387  39.343   0.315
17498W        W89169  41.442  28.934   1.358
17499W        W89170  44.765  37.808   4.379
17500W        W89171  35.002  24.160   2.595
17501W        W89172  34.514  32.635   4.537
17502W        W89173  20.032  14.328  14.438
17503W        W89174  10.038  10.430  13.067
17504W        W89175  32.058   8.328  12.380
17505W        W89176  31.465  30.530   1.896
17506W        W89177  30.715   8.180  13.418
17507W        W89178   1.358   4.503  14.290
17508W        W89179  11.118  33.832  12.162
17509W        W89180  11.700   7.652   2.310
17510W        W89181  44.207  44.297   3.338
17511W        W89182  38.316  31.426   4.552
17512W        W89183  32.188  22.179  11.561
17513W        W89184  37.901  29.471   3.782
17514W        W89185  38.461  22.249  12.415
17515W        W89186  13.835  12.245  10.674
17516W        W89187  21.954  14.591  13.894
17517W        W89188  37.383   7.872  12.848
17518W        W89189  36.408  36.162  14.849
17519W        W89190   6.347  43.957  12.082
17520W        W89191  12.156  42.871  13.282
17521W        W89192   7.880  34.367  13.429
17522W        W89193  35.075  38.615   4.043
17523W        W89194  22.247  24.872  14.220
17524W        W89195  20.010  16.271   3.747
17525W        W89196   7.496  42.152  13.890
17526W        W89197  20.090  12.175   0.399
17527W        W89198   7.156  36.543  14.364
17528W        W89199   6.605   6.084   2.836
17529W        W89200   1.432   1.860  10.433
17530W        W89201   9.406  10.154  13.897
17531W        W89202  41.683  27.657   3.973
17532W        W89203  13.856  18.788  14.869
17533W        W89204  22.533  11.010   4.024
17534W        W89205  24.209  15.926  10.278
17535W        W89206  15.677   0.392  10.724
17536W        W89207   5.738  25.650   1.699
17537W        W89208  39.070  40.749   2.753
17538W        W89209  24.239  40.845   4.576
17539W        W89210  13.191   5.241  12.083
17540W        W89211  38.418   0.656   1.763
17541W        W89212  23.050  39.161  13.370
17542W        W89213  17.198  28.721   4.589
17543W        W89214   1.718   5.389   1.819
17544W        W89215  17.272  40.776  13.904
17545W        W89216   3.849  36.762   3.179
17546W        W89217  36.928  12.831  13.161
17547W        W89218  16.859  39.583  12.695
17548W        W89219   4.644  39.376  13.055
17549W        W89220  43.720   7.210  13.447
17550W        W89221  23.479  23.352   2.825
17551W        W89222  10.786  26.717  12.884
17552W        W89223  28.754  17.959  13.514
17553W        W89224  28.443  19.340  14.274
17554W        W89225  26.747   0.279   3.664
17555W        W89226  39.741  10.661  11.825
17556W        W89227  12.929   6.262  13.959
17557W        W89228  33.897   7.288  14.844
17558W        W89229  10.841  26.536  11.880
17559W        W89230  25.590  43.557  10.750
17560W        W89231  33.554  40.429  14.479
17561W        W89232   3.436  12.741   1.790
17562W        W89233   1.795  41.954   0.492
17563W        W89234   5.355  20.524  10.728
17564W        W89235  36.275  11.655   4.130
17565W        W89236  37.686  18.675  10.612
17566W        W89237   9.114  43.314  12.455
17567W        W89238  28.193  32.085   0.338
17568W        W89239  39.020  43.745   3.635
17569W        W89240  25.145   9.740  13.012
17570W        W89241  31.073  39.343   0.460
17571W        W89242  21.805  24.853   4.559
17572W        W89243   6.307  41.358  13.143
17573W        W89244  10.078  29.420   3.785
17574W        W89245  16.831  26.182   1.195
17575W        W89246  16.936  21.722   4.694
17576W        W89247  41.014  15.225   4.386
17577W        W89248  29.337  26.457   3.791
17578W        W89249  10.109  30.080  11.609
17579W        W89250  39.570  38.576  12.941
17580W        W89251   5.465  36.536   2.624
17581W        W89252  17.226  15.586   4.208
17582W        W89253  18.101  18.439   1.899
17583W        W89254  37.637   8.874   2.585
17584W        W89255  28.499  25.130  11.605
17585W        W89256   2.469  12.018  12.038
17586W        W89257  24.793  22.060  13.273
17587W        W89258  35.344  21.714  11.159
17588W        W89259  44.264  28.727  12.094
17589W        W89260  23.545   0.606   2.339
17590W        W89261  23.487  10.290  10.431
17591W        W89262  10.351  12.780   3.166
17592W        W89263  27.577   0.201   0.921
17593W        W89264  25.881  26.312  12.093
17594W        W89265  22.075  14.843   1.699
17595W        W89266  39.618  22.549   0.322
17596W        W89267   6.519  23.589  10.970
17597W        W89268  44.511   7.317   4.049
17598W        W89269  21.836  11.413   4.686
17599W        W89270  24.776  17.724  11.199
17600W        W89271   9.665   2.622   0.602
17601W        W89272  39.801  42.005  13.877
17602W        W89273  43.886  25.000   1.883
17603W        W89274  32.099  40.433   3.187
17604W        W89275  22.333  41.298  11.459
17605W        W89276  17.043  41.776  10.235
17606W        W89277   1.289   7.226  12.577
17607W        W89278   2.586  29.175  14.372
17608W        W89279  36.966   2.373   3.919
17609W        W89280   3.822  17.577  13.955
17610W        W89281  22.098  17.823  14.954
17611W        W89282  41.758  19.206   1.733
17612W        W89283  16.679  38.764   3.609
17613W        W89284  26.698  17.017   4.973
17614W        W89285  12.562  15.301   0.467
17615W        W89286  11.224  22.259  14.373
17616W        W89287   7.826   3.244   2.797
17617W        W89288   5.371  19.213  12.927
17618W        W89289  31.331  44.888  10.680
17619W        W89290   4.927  44.755   3.203
17620W        W89291   1.330  39.041  11.927
17621W        W89292  33.568  12.374   2.168
17622W        W89293  28.855  13.079   2.966
17623W        W89294  11.136  26.675  13.313
17624W        W89295  11.647  30.941   2.737
17625W        W89296  18.531  20.662  13.320
17626W        W89297  20.513  42.937  14.930
17627W        W89298  28.906  13.855  14.621
17628W        W89299  34.680   5.781   4.508
17629W        W89300  13.522  42.740   3.377
17630W        W89301  33.185   2.109  14.429
17631W        W89302  22.002  10.828   2.450
17632W        W89303  39.936  36.832   1.198
17633W        W89304  41.377   2.517  13.473
17634W        W89305  24.436  28.419  11.920
17635W        W89306  28.802  32.569  10.597
17636W        W89307  17.646   0.080   0.138
17637W        W89308  28.109  20.468   3.647
17638W        W89309  24.950   6.379   1.278
17639W        W89310  41.716  36.989   1.818
17640W        W89311  21.224  37.354  14.098
17641W        W89312  39.388  20.192  13.774
17642W        W89313   5.663  17.425  13.383
17643W        W89314  10.790  16.466   4.583
17644W        W89315   4.459  10.853   4.071
17645W        W89316  42.766  41.269   2.229
17646W        W89317  12.676   4.192  11.285
17647W        W89318  32.917   9.259   0.712
17648W        W89319  17.019   9.340  13.115
17649W        W89320  29.053   2.497   2.257
17650W        W89321  39.010   3.883  14.730
17651W        W89322  22.942  26.097  10.702
17652W        W89323  17.720  42.608   4.655
17653W        W89324  40.823  37.503  10.616
17654W        W89325  13.996  29.378   1.776
17655W        W89326  30.752   2.297  14.087
17656W        W89327   3.682  19.743  14.199
17657W        W89328  25.004  28.954  14.033
17658W        W89329  42.780  16.723   1.789
17659W        W89330  14.723  22.403  13.986
17660W        W89331  40.174  25.594   1.923
17661W        W89332  44.805  13.282  13.257
17662W        W89333  44.714   8.977   1.696
17663W        W89334  43.449  20.187   0.900
17664W        W89335  16.735  21.981  11.479
17665W        W89336   0.712  17.347  13.512
17666W        W89337  11.844  11.767   2.281
17667W        W89338   5.315  24.446   1.786
17668W        W89339  24.179  19.535   3.585
17669W        W89340  40.873  25.165  11.487
17670W        W89341  32.509  23.787   1.367
17671W        W89342  16.925  37.539   0.545
17672W        W89343  36.086   9.218   4.644
17673W        W89344  20.099  29.894   1.321
17674W        W89345  31.952  19.589   1.519
17675W        W89346  13.158  14.336   1.919
17676W        W89347  36.046  28.901   4.541
17677W        W89348  36.252  22.575  14.368
17678W        W89349  40.909  32.109   3.274
17679W        W89350   9.226  20.571   0.565
17680W        W89351  26.049  23.014  11.522
17681W        W89352  18.693  20.016  11.172
17682W        W89353  21.120  18.981  11.638
17683W        W89354   0.781  25.976  14.804
17684W        W89355   0.846  44.862   1.862
17685W        W89356  15.651  20.909   0.218
17686W        W89357  23.938   1.507   2.259
17687W        W89358  25.061  28.516   2.741
17688W        W89359  23.031  10.157  13.665
17689W        W89360  38.827   0.776   3.151
17690W        W89361  40.880  41.695   3.997
17691W        W89362   8.099  31.209  12.297
17692W        W89363  20.231  43.828  10.684
17693W        W89364   8.368  30.865   0.272
17694W        W89365  33.633  19.249   2.192
17695W        W89366  31.558  33.182  11.552
17696W        W89367  16.258  32.856  13.907
17697W        W89368  30.908  14.347  13.803
17698W        W89369  23.173   5.766   2.215
17699W        W89370  17.403   6.904   4.473
17700W        W89371  32.854  16.751  12.928
17701W        W89372  14.405  36.572  12.822
17702W        W89373  11.798   9.417   1.217
17703W        W89374  20.609  17.570  11.204
17704W        W89375  39.918  39.961  11.427
17705W        W89376  42.391  14.092   4.094
17706W        W89377   0.833   9.455   4.623
17707W        W89378  23.377  30.967   2.793
17708W        W89379  18.598  33.079   2.374
17709W        W89380  23.746   5.706  12.480
17710W        W89381  20.617   7.141   4.062
17711W        W89382  18.165  10.830  12.602
17712W        W89383  28.757  12.182   3.829
17713W        W89384  40.333  44.366   0.291
17714W        W89385   3.768   1.036   4.583
17715W        W89386  43.721  20.023   4.157
17716W        W89387   9.902  14.740  11.003
17717W        W89388  19.154  15.212   4.462
17718W        W89389  16.134  19.649   1.788
17719W        W89390  17.115  38.562   3.783
17720W        W89391  16.581  18.585  12.188
17721W        W89392  28.577  11.403   0.693
17722W        W89393  35.532   0.889  11.834
17723W        W89394  19.569  14.080  11.844
17724W        W89395  32.044  25.405   4.097
17725W        W89396  35.616   3.365  14.484
17726W        W89397  33.033  16.811  14.783
17727W        W89398  13.300   7.948   1.167
17728W        W89399  43.047  21.687   3.950
17729W        W89400  22.495  19.595  14.388
17730W        W89401  23.540   8.577  14.497
17731W        W89402   1.131  16.355   2.422
17732W        W89403   9.760  28.383   0.325
17733W        W89404  11.427  10.267   1.269
17734W        W89405   0.022  44.695   0.674
17735W        W89406   0.367  20.052  10.304
17736W        W89407  12.397  22.475   1.217
17737W        W89408   6.723   4.082  11.603
17738W        W89409  42.877   1.208  12.420
17739W        W89410  16.759  22.024  14.415
17740W        W89411  29.276  23.339  12.695
17741W        W89412  34.347   1.466   1.778
17742W        W89413  40.520   6.315  10.645
17743W        W89414   4.172  29.815  12.235
17744W        W89415  23.667   2.008   1.637
17745W        W89416  26.785  17.760  13.343
17746W        W89417  11.191  30.042   2.735
17747W        W89418   3.290  32.610  11.675
17748W        W89419   1.351  38.894  14.908
17749W        W89420   6.155  23.264   4.037
17750W        W89421  27.682   8.330   0.006
17751W        W89422  23.269   3.259   3.691
17752W        W89423  16.875  28.445  13.701
17753W        W89424  17.360   2.481   2.663
17754W        W89425  35.708  20.170   4.085
17755W        W89426  44.563  44.506  11.109
17756W        W89427   6.585  33.998   4.093
17757W        W89428  22.043  26.768   3.606
17758W        W89429   4.418  29.233  12.416
17759W        W89430  39.531  10.778   3.753
17760W        W89431   8.712  33.571  11.470
17761W        W89432  34.739  26.711   5.040
17762W        W89433   9.186  24.578  12.948
17763W        W89434  31.660  31.668   0.834
17764W        W89435  16.861   1.296   2.789
17765W        W89436  35.045  44.941   2.753
17766W        W89437  33.311  32.047   3.758
17767W        W89438  17.724  14.880   1.714
17768W        W89439  12.780   4.807   0.734
17769W        W89440  39.755   3.455   5.027
17770W        W89441  29.685  13.253   0.444
17771W        W89442  27.724  36.618  14.387
17772W        W89443  34.573  42.862  11.471
17773W        W89444  26.148  14.903   1.447
17774W        W89445  28.215  38.827   4.134
17775W        W89446  37.148   7.402   1.860
17776W        W89447  21.243  13.182   0.292
17777W        W89448   2.284   7.745  11.041
17778W        W89449  22.244  27.440  13.560
17779W        W89450  37.285  44.659  14.246
17780W        W89451  30.929  29.648  10.753
17781W        W89452   7.275  33.650  13.134
17782W        W89453   4.179  22.526  11.040
17783W        W89454   4.848  11.430   2.324
17784W        W89455  44.559   9.914  11.486
17785W        W89456   8.891  24.240  14.375
17786W        W89457  11.451  24.579  13.852
17787W        W89458  29.090  12.145   4.432
17788W        W89459  21.476  14.821  13.876
17789W        W89460  32.369  18.036   0.269
17790W        W89461  13.704  44.819   0.003
17791W        W89462  18.625  17.744   3.866
17792W        W89463  39.114  15.521   3.051
17793W        W89464  21.041   7.399  11.855
17794W        W89465  32.772  21.227   4.659
17795W        W89466  38.461  33.515   2.167
17796W        W89467  37.823  38.618   3.625
17797W        W89468  11.158  18.602  14.343
17798W        W89469   0.224  37.981   1.479
17799W        W89470  26.043   2.337  14.805
17800W        W89471   2.938  33.298  14.095
17801W        W89472  16.184  39.544   2.330
17802W        W89473  36.951  28.290  11.021
17803W        W89474  20.197  38.103  11.848
17804W        W89475  27.597  29.702  12.055
17805W        W89476   8.113  36.615  14.618
17806W        W89477  38.164  20.575  14.299
17807W        W89478  26.137  38.599   0.665
17808W        W89479  31.138  24.074  14.421
17809W        W89480   0.658  29.527   5.243
17810W        W89481  27.557  17.186  14.328
17811W        W89482  10.909  16.141   4.143
17812W        W89483   6.449  27.976   3.649
17813W        W89484  40.222  19.161   0.936
17814W        W89485  35.281  14.294  13.089
17815W        W89486  28.505  19.741   2.932
17816W        W89487  29.121  18.544  14.218
17817W        W89488   6.979  16.582   3.120
17818W        W89489   0.178  25.143   3.750
17819W        W89490  18.282  16.589  12.453
17820W        W89491   0.508  44.311   2.676
17821W        W89492  14.292   0.028   4.285
17822W        W89493   1.270  40.595  11.555
17823W        W89494  10.709  38.954   0.131
17824W        W89495   2.817  29.605   4.637
17825W        W89496  26.927   2.882   4.124
17826W        W89497  43.474  28.662  11.720
17827W        W89498  24.115  21.772   2.145
17828W        W89499  44.289  18.807   1.394
17829W        W89500   7.246  16.290  12.907
17830W        W89501  30.960  12.182   0.953
17831W        W89502  24.216  39.765   3.619
17832W        W89503  36.125  10.035   2.902
17833W        W89504  14.646   9.648   1.771
17834W        W89505  36.630  20.569  11.746
17835W        W89506  31.113  33.605  11.620
17836W        W89507  10.846   7.120  14.319
17837W        W89508  20.986   6.893   0.291
17838W        W89509   7.936  32.347   3.238
17839W        W89510  22.236   5.516   4.673
17840W        W89511  40.801  15.238   3.465
17841W        W89512  23.018  43.904   4.131
17842W        W89513  30.634  22.091  12.490
17843W        W89514  41.936  35.054   3.180
17844W        W89515  39.549  42.377   2.177
17845W        W89516  31.025  41.588  11.670
17846W        W89517  24.116  44.178  13.067
17847W        W89518  34.548   1.945  12.064
17848W        W89519  37.330  31.810   4.021
17849W        W89520   8.183   1.467  10.803
17850W        W89521  12.020   4.100  13.380
17851W        W89522   5.669  28.073   2.756
17852W        W89523   1.495  42.332  12.550
17853W        W89524  26.945   1.413  10.451
17854W        W89525  14.768  37.610   4.137
17855W        W89526  30.608   9.048   0.956
17856W        W89527  25.826  26.590  13.901
17857W        W89528  16.577   4.836  10.926
17858W        W89529  14.522   2.287  11.912
17859W        W89530   2.167  16.037  14.904
17860W        W89531  31.423  29.452  12.511
17861W        W89532  35.911  26.521  10.670
17862W        W89533  35.989  31.455   1.240
17863W        W89534  19.114  11.770  12.649
17864W        W89535  40.390  37.000   4.027
17865W        W89536  22.547   6.377   0.857
17866W        W89537  35.813  22.008   3.661
17867W        W89538   7.456   8.006  11.181
17868W        W89539  38.444  16.914   2.654
17869W        W89540   5.954  12.349   2.372
17870W        W89541  37.593  43.283   1.654
17871W        W89542  12.047  15.649   4.528
17872W        W89543  19.728  34.016  10.792
17873W        W89544   0.258   0.163   2.982
17874W        W89545  26.026  22.665  14.478
17875W        W89546  19.603  41.705  12.510
17876W        W89547  11.547  28.082   3.177
17877W        W89548  15.965  10.965   3.183
17878W        W89549  26.180  33.594   2.167
17879W        W89550   8.951  33.300   3.187
17880W        W89551   3.981   4.537   4.146
17881W        W89552   1.969  41.520   4.213
17882W        W89553   0.949  16.984   0.218
17883W        W89554   3.303   9.649  11.442
17884W        W89555  18.679  33.379   0.960
17885W        W89556  40.890  41.322   0.943
17886W        W89557   0.486  39.149   4.755
17887W        W89558  37.969  25.437   4.850
17888W        W89559   0.017   9.413  10.669
17889W        W89560  17.782   5.610  10.970
17890W        W89561  41.954  40.019   0.946
17891W        W89562  12.874  30.546   1.849
17892W        W89563  23.510  25.590  13.069
17893W        W89564   5.052  32.137   4.729
17894W        W89565  43.258  35.481  14.982
17895W        W89566  27.869  35.065   4.876
17896W        W89567   5.771  14.310  12.759
17897W        W89568  17.559  43.074   1.806
17898W        W89569  21.946  26.706   1.912
17899W        W89570  12.552   2.307  13.749
17900W        W89571  16.186  15.378  11.057
17901W        W89572  20.645  27.873   0.940
17902W        W89573   4.643  20.629   4.380
17903W        W89574  30.837  14.388   2.328
17904W        W89575  39.054  11.017   3.855
17905W        W89576   6.253  43.344   0.317
17906W        W89577  43.960  35.431   2.085
17907W        W89578  27.475   9.445   3.904
17908W        W89579  31.408  30.093  12.900
17909W        W89580  23.639   4.677  12.437
17910W        W89581   4.705  13.353  10.679
17911W        W89582  17.713   8.290   1.262
17912W        W89583  21.048  15.680  12.770
17913W        W89584   0.373  40.972   0.942
17914W        W89585   9.842  10.339   4.929
17915W        W89586  30.960  10.293   0.251
17916W        W89587  14.073  27.997  13.797
17917W        W89588  31.681  12.001  11.204
17918W        W89589  36.113  16.219   0.819
17919W        W89590  27.546   2.533  14.627
17920W        W89591  13.922  30.446   1.505
17921W        W89592   5.820  25.269   2.480
17922W        W89593  30.065  36.782   2.334
17923W        W89594  41.534  37.418  13.818
17924W        W89595  25.421  40.476   2.879
17925W        W89596   2.970  25.121  11.022
17926W        W89597   1.240  12.253  11.601
17927W        W89598  17.592  11.353  11.576
17928W        W89599  25.527  16.006   4.361
17929W        W89600   7.140  17.053  12.537
17930W        W89601  16.056  24.154  11.535
17931W        W89602   8.291   7.261   3.881
17932W        W89603   3.220  39.183  14.327
17933W        W89604   8.107  38.342   2.760
17934W        W89605  20.035  41.402   2.940
17935W        W89606  35.545   9.638  10.617
17936W        W89607  41.041  41.061   0.463
17937W        W89608   8.210  38.290   3.697
17938W        W89609  23.513  25.497   0.853
17939W        W89610  37.574  13.589  11.006
17940W        W89611   0.751   5.773   4.606
17941W        W89612  42.083  28.451   4.210
17942W        W89613  32.055  40.142  10.209
17943W        W89614  25.253  13.089  14.764
17944W        W89615  43.749   2.398   4.351
17945W        W89616   4.676   4.920  10.803
17946W        W89617  20.012  33.128  14.125
17947W        W89618  13.104  40.806  14.450
17948W        W89619   5.773   5.420   0.336
17949W        W89620  34.199   1.233  12.783
17950W        W89621   6.357  37.519   2.965
17951W        W89622  23.989  36.627   1.476
17952W        W89623  12.840  37.108   3.131
17953W        W89624  37.600  39.273   0.714
17954W        W89625  36.096  37.325   4.587
17955W        W89626   4.039  21.299   1.516
17956W        W89627   3.375  43.488  13.032
17957W        W89628  16.136  34.478   1.361
17958W        W89629  35.440  31.865  14.441
17959W        W89630  37.632  43.034  13.154
17960W        W89631   8.606   2.278  10.792
17961W        W89632   4.425  17.086  10.729
17962W        W89633  14.411  24.499   0.552
17963W        W89634  21.554  11.647  11.480
17964W        W89635  23.497  31.685  14.897
17965W        W89636  26.588  25.000  11.173
17966W        W89637  23.354  31.568   0.715
17967W        W89638  44.450  10.685   2.693
17968W        W89639  36.970  25.053   1.962
17969W        W89640  35.928   3.230  13.457
17970W        W89641   2.468  25.000  10.763
17971W        W89642  10.054   3.959   4.079
17972W        W89643   4.265  29.990  11.255
17973W        W89644   4.164   9.358   4.691
17974W        W89645   8.830  14.011  10.774
17975W        W89646  29.191  12.016  14.822
17976W        W89647  24.870  20.544   1.763
17977W        W89648  42.454  10.316   0.253
17978W        W89649   3.626  43.413  13.517
17979W        W89650  13.139  27.057   4.752
17980W        W89651  30.431  38.579  10.641
17981W        W89652  39.991  22.576   2.099
17982W        W89653  21.250   1.916   4.899
17983W        W89654  33.418  12.912  12.125
17984W        W89655  39.931  21.124  14.789
17985W        W89656   2.595  24.714   2.845
17986W        W89657  30.051  37.874  13.545
17987W        W89658  37.586  25.147  11.525
17988W        W89659  37.358  26.362   1.849
17989W        W89660  27.482  42.325  11.441
17990W        W89661  24.307  36.898   4.301
17991W        W89662  15.640  21.525   1.371
17992W        W89663  19.265  17.103   4.405
17993W        W89664   3.228  44.530   0.449
17994W        W89665  38.548  30.459   2.747
17995W        W89666  44.891  31.800  10.694
17996W        W89667  10.940  29.869   2.277
17997W        W89668  23.938   3.656   3.240
17998W        W89669  29.994   2.303   1.262
17999W        W89670   2.043  27.167   4.131
18000W        W89671   0.891  34.168   1.327
18001W        W89672  20.817  19.433  10.846
18002W        W89673  11.172  14.578   3.629
18003W        W89674  23.342   6.796   4.943
18004W        W89675  36.062  43.769  10.718
18005W        W89676  15.970  44.921  13.422
18006W        W89677  15.804   0.274   2.431
18007W        W89678  40.292  32.522   2.521
18008W        W89679  15.513  32.352   2.846
18009W        W89680  28.587  39.338   4.717
18010W        W89681  19.815  14.186   2.154
18011W        W89682  31.138  11.791  12.544
18012W        W89683  28.749  43.832  12.494
18013W        W89684  35.673   5.995   4.231
18014W        W89685   6.892  43.402   3.139
18015W        W89686  14.261  16.665  13.340
18016W        W89687  17.086  42.314   1.974
18017W        W89688  28.123  17.297   3.644
18018W        W89689  25.204  25.542   2.163
18019W        W89690  18.717  14.106   3.618
18020W        W89691  40.488  25.472   1.535
18021W        W89692  20.003  21.638  12.815
18022W        W89693  15.557  28.751  12.083
18023W        W89694  39.304  15.968  12.591
18024W        W89695  36.491  17.747   0.190
18025W        W89696   5.268   8.410   4.629
18026W        W89697  14.755  17.641   3.408
18027W        W89698  10.650  16.681  14.403
18028W        W89699   6.757  33.587   2.398
18029W        W89700  35.277  44.510   2.916
18030W        W89701   5.685  11.791   1.957
18031W        W89702  43.317  34.018  12.433
18032W        W89703  44.965  34.614   2.244
18033W        W89704  17.183  36.612  13.138
18034W        W89705  26.075  21.268  14.015
18035W        W89706   4.389   5.919  14.783
18036W        W89707   3.489  42.071  13.978
18037W        W89708  31.289   6.503   2.107
18038W        W89709  41.152   3.212  12.962
18039W        W89710  26.118   1.772   3.264
18040W        W89711  34.666  40.335   3.567
18041W        W89712  25.259  35.408  13.362
18042W        W89713  39.299   9.921  14.308
18043W        W89714  36.408   8.245  13.549
18044W        W89715  44.787  36.563  11.374
18045W        W89716  36.349  19.539   4.001
18046W        W89717  20.142   9.447  10.756
18047W        W89718  44.870  26.601   3.450
18048W        W89719   4.412  13.286  14.299
18049W        W89720  44.733   7.090  11.592
18050W        W89721  38.613  28.376   4.569
18051W        W89722  40.988   9.113  13.985
18052W        W89723  42.302   8.413  10.428
18053W        W89724  26.475  26.197  14.335
18054W        W89725  19.970  32.622  14.075
18055W        W89726   4.757   8.495   2.174
18056W        W89727  27.964  36.542   2.313
18057W        W89728   3.278  15.849  14.065
18058W        W89729  35.033  21.172   0.548
18059W        W89730   8.835  27.690  12.224
18060W        W89731   9.921  25.687   4.960
18061W        W89732  41.446  13.736  12.166
18062W        W89733  41.612  34.437  11.998
18063W        W89734  17.496  24.238  12.952
18064W        W89735  30.040  11.364   4.394
18065W        W89736   0.686  23.291   5.372
18066W        W89737  12.884  20.063   4.581
18067W        W89738  31.811  38.073   0.896
18068W        W89739  13.278  13.929   4.675
18069W        W89740   0.037  44.702  11.119
18070W        W89741  44.693  19.386  13.015
18071W        W89742   5.468   9.856   1.315
18072W        W89743  38.582   4.548  11.065
18073W        W89744  31.719  30.629   1.179
18074W        W89745   5.192  39.063  11.547
18075W        W89746  42.415  41.186   9.742
18076W        W89747  39.307  20.210  12.867
18077W        W89748  34.521  32.046   1.809
18078W        W89749  27.955  28.458  14.768
18079W        W89750  10.749   7.220   0.637
18080W        W89751  25.133   0.804   2.279
18081W        W89752  11.859   0.913   1.678
18082W        W89753  18.299  15.067  13.465
18083W        W89754  30.664  29.491   0.909
18084W        W89755  16.072  17.525   1.871
18085W        W89756  22.384  11.810   5.102
18086W        W89757  15.414   3.145   5.344
18087W        W89758  29.499  34.538  14.502
18088W        W89759  23.509   3.382   3.247
18089W        W89760   4.278  41.596   2.729
18090W        W89761   8.260  31.405  12.752
18091W        W89762  17.702   9.282   3.328
18092W        W89763  26.557   0.105   2.841
18093W        W89764  42.640  23.399  12.615
18094W        W89765   3.107  39.814  10.236
18095W        W89766  28.493  42.916   3.159
18096W        W89767  24.720  40.668   4.073
18097W        W89768  22.778  37.977  12.933
18098W        W89769  10.336  34.029  14.383
18099W        W89770   9.456  31.033   0.862
18100W        W89771  43.862  35.054   1.737
18101W        W89772  37.864  22.104  11.153
18102W        W89773  31.379   6.822   3.848
18103W        W89774  16.744  15.591   4.512
18104W        W89775  39.861  25.612   1.379
18105W        W89776  34.819  17.444   3.139
18106W        W89777  13.833  11.880   2.282
18107W        W89778  22.117   2.248   4.107
18108W        W89779  32.870   2.257   4.193
18109W        W89780  43.696  23.115   3.855
18110W        W89781  28.186  31.511  12.021
18111W        W89782  16.242  19.393  12.527
18112W        W89783  43.288  19.175  12.942
18113W        W89784  42.846  10.705  14.749
18114W        W89785   7.346  32.400   2.655
18115W        W89786  18.567   5.891  12.037
18116W        W89787  36.119  27.597  12.599
18117W        W89788   1.021  34.534  14.122
18118W        W89789  32.879   7.352  13.117
18119W        W89790  17.189   0.652   3.276
18120W        W89791  37.410  41.469   2.990
18121W        W89792   7.693  12.625   2.346
18122W        W89793   6.411  44.267   4.628
18123W        W89794  34.430  32.874  13.432
18124W        W89795  19.715   7.493  11.354
18125W        W89796  40.516  44.834  13.275
18126W        W89797  23.830  17.877   1.268
18127W        W89798  43.427  13.093   4.275
18128W        W89799   8.448  16.102   3.323
18129W        W89800  36.376  32.568   3.329
18130W        W89801   5.701  14.037  12.330
18131W        W89802  22.518  21.117  13.996
18132W        W89803  31.500  19.720   1.773
18133W        W89804  27.411  38.389   4.116
18134W        W89805  44.970  35.461  10.771
18135W        W89806  12.155   0.788  13.427
18136W        W89807  26.889  37.508   2.268
18137W        W89808  36.943  31.434  14.021
18138W        W89809  13.178   8.592   2.713
18139W        W89810  34.574  33.975  14.325
18140W        W89811  33.489  15.882  11.080
18141W        W89812  37.312  20.663  14.222
18142W        W89813  29.841   0.866   1.101
18143W        W89814  35.840  42.341  10.672
18144W        W89815  25.454   1.736  12.628
18145W        W89816  11.367  23.875  11.951
18146W        W89817   7.408  40.095   1.624
18147W        W89818   4.748  38.472  13.936
18148W        W89819  11.369  14.192   1.635
18149W        W89820  35.538  35.261  13.030
18150W        W89821   7.334  33.627   3.578
18151W        W89822  29.382  42.929   4.528
18152W        W89823  36.397  11.502  14.264
18153W        W89824  24.228  43.299  13.539
18154W        W89825  28.784  44.605   4.200
18155W        W89826   7.848   1.219  11.575
18156W        W89827  32.248   1.560   1.631
18157W        W89828  40.208  14.705   1.879
18158W        W89829  12.666  29.381   0.010
18159W        W89830  41.207   6.110  11.954
18160W        W89831  44.342  39.042  14.844
18161W        W89832   1.704  17.307  12.219
18162W        W89833  32.517  29.681  11.229
18163W        W89834  39.296  22.125  13.038
18164W        W89835   8.397  31.364  10.971
18165W        W89836  19.202  24.164   0.773
18166W        W89837  12.104  42.840  12.784
18167W        W89838   7.668  35.924  10.567
18168W        W89839  21.697  14.565   0.334
18169W        W89840  28.706  30.718   3.132
18170W        W89841  19.937  26.597   4.670
18171W        W89842  16.689  23.144   1.698
18172W        W89843  14.876  30.457  14.323
18173W        W89844  20.218  15.650  13.419
18174W        W89845  17.120  22.843  13.006
18175W        W89846  33.529  41.094  13.774
18176W        W89847  24.555   1.458   4.800
18177W        W89848   8.356   4.334   1.155
18178W        W89849  32.301  13.480   3.759
18179W        W89850   9.180  35.813  13.440
18180W        W89851   8.715   6.331   0.345
18181W        W89852  21.313  21.522  11.042
18182W        W89853  25.053  41.815  12.114
18183W        W89854   4.772  38.070   0.991
18184W        W89855  43.430  27.686  11.582
18185W        W89856  34.788  14.111   3.615
18186W        W89857  36.862  38.881   0.191
18187W        W89858  18.611  21.020  12.095
18188W        W89859  19.964  37.660   4.442
18189W        W89860  35.153  43.994  11.536
18190W        W89861  30.440  20.701   1.555
18191W        W89862  35.999   9.207   3.690
18192W        W89863  42.201  41.340  14.788
18193W        W89864   2.037  36.954  13.605
18194W        W89865  17.405  26.581  10.160
18195W        W89866  37.539  17.669  14.237
18196W        W89867  35.539  21.866   3.237
18197W        W89868  26.956   1.998   4.709
18198W        W89869  32.119  10.547   4.182
18199W        W89870  23.806  32.122   3.111
18200W        W89871   9.247  28.070   4.626
18201W        W89872  37.978  28.943   1.860
18202W        W89873   9.253  30.759   2.186
18203W        W89874   8.870  36.877  11.418
18204W        W89875  27.750  22.792  13.609
18205W        W89876  30.936   4.800   0.289
18206W        W89877   1.500  12.177  10.377
18207W        W89878  24.007  36.894   2.846
18208W        W89879  18.355  42.408   0.724
18209W        W89880  26.601  26.661   4.514
18210W        W89881  40.356  12.339   2.081
18211W        W89882  44.888  28.407   2.378
18212W        W89883  39.654   4.288  13.397
18213W        W89884  11.330  23.649  13.374
18214W        W89885  35.056  15.275   1.149
18215W        W89886  24.009   0.078   1.418
18216W        W89887   2.286  28.155   2.699
18217W        W89888  17.266  30.274   4.391
18218W        W89889  37.624  44.995  12.506
18219W        W89890  41.791  43.034   4.056
18220W        W89891  17.497   3.808   4.516
18221W        W89892  29.069  16.224   4.119
18222W        W89893  24.502  15.521  11.001
18223W        W89894  20.208   5.737  12.668
18224W        W89895  12.661  26.691   1.957
18225W        W89896   7.497  36.371  14.725
18226W        W89897  30.656  24.396  11.618
18227W        W89898   7.838   0.645  10.739
18228W        W89899  15.591  31.446  11.558
18229W        W89900  12.679   1.861  14.084
18230W        W89901  39.254  10.849  11.837
18231W        W89902   6.633   6.626   4.147
18232W        W89903  44.849  14.161   9.416
18233W        W89904   6.108  33.971  14.353
18234W        W89905   3.402  42.046  12.980
18235W        W89906  43.467  38.329   4.669
18236W        W89907  25.054  30.401  11.518
18237W        W89908  27.577   9.189  11.139
18238W        W89909  38.828  20.175   1.751
18239W        W89910  22.814  26.896  13.850
18240W        W89911   0.747   4.985   0.838
18241W        W89912  17.550  23.559   2.733
18242W        W89913  33.454  37.273   4.107
18243W        W89914  39.303  25.063   1.732
18244W        W89915   2.348   0.000   3.626
18245W        W89916  43.918  44.232   0.845
18246W        W89917  10.853   0.425   0.939
18247W        W89918  34.944  13.601  11.922
18248W        W89919  41.900  28.956   2.365
18249W        W89920   7.738  15.080  13.159
18250W        W89921  24.593   6.787   1.442
18251W        W89922  16.079  12.260   4.759
18252W        W89923   4.475  17.970  11.582
18253W        W89924   0.264   9.660   1.380
18254W        W89925  38.288  12.075   2.297
18255W        W89926  40.994  30.315   0.341
18256W        W89927   0.232   4.811  11.514
18257W        W89928  22.029  25.013   9.488
18258W        W89929  30.221  40.451  14.575
18259W        W89930  22.208  22.598   3.685
18260W        W89931  18.844  43.899   2.862
18261W        W89932  41.561   1.125  14.761
18262W        W89933  27.088  29.751  11.395
18263W        W89934  32.260  13.133   5.055
18264W        W89935  38.033   2.146   1.265
18265W        W89936   6.754  24.052  13.995
18266W        W89937  27.780   5.357  14.040
18267W        W89938  22.957  17.302  13.749
18268W        W89939  43.016   0.346  11.144
18269W        W89940   7.303  11.868  14.339
18270W        W89941   0.081  11.096  11.051
18271W        W89942  31.708  13.772   0.017
18272W        W89943   0.345  12.361  11.181
18273W        W89944  25.038   8.266   4.083
18274W        W89945   5.359  11.837  10.641
18275W        W89946   3.490  13.212   4.679
18276W        W89947  39.343  23.200  11.961
18277W        W89948  41.997  36.538   2.736
18278W        W89949  29.807  43.471  14.472
18279W        W89950  19.800  40.931  14.919
18280W        W89951  36.605  39.086   3.267
18281W        W89952  26.568   2.967   0.875
18282W        W89953   3.724  28.889   2.306
18283W        W89954  38.404  19.730   0.291
18284W        W89955  32.860  41.968   1.586
18285W        W89956   8.009   3.609   1.285
18286W        W89957  25.209   0.172  13.978
18287W        W89958  15.575   9.332  14.035
18288W        W89959  12.713  38.534  11.569
18289W        W89960  20.484  32.130  14.004
18290W        W89961  44.335  15.026   2.681
18291W        W89962  44.410   0.708   3.307
18292W        W89963   5.643   0.196   1.477
18293W        W89964  18.275   5.660  12.464
18294W        W89965  39.998  14.214  11.865
18295W        W89966   8.767  26.541   4.482
18296W        W89967  38.855   6.489   9.893
18297W        W89968  18.691  15.819   0.517
18298W        W89969  28.984  44.507  11.188
18299W        W89970  28.519  27.192   4.530
18300W        W89971   7.177  35.973  12.639
18301W        W89972   4.382   0.521   2.368
18302W        W89973  26.845  14.221  13.982
18303W        W89974  33.062   6.341   4.446
18304W        W89975  14.774  29.543   4.689
18305W        W89976  39.499   3.588  11.794
18306W        W89977  30.365   2.656   3.992
18307W        W89978   0.305  22.336  14.078
18308W        W89979  39.689  33.304  14.750
18309W        W89980  30.801   7.318   5.064
18310W        W89981   8.266  44.271   4.588
18311W        W89982  39.619  23.470   4.367
18312W        W89983  29.645   9.671   2.290
18313W        W89984  21.773   4.890   3.676
18314W        W89985   8.325   5.178   1.802
18315W        W89986  11.389   3.249  11.740
18316W        W89987  41.500  21.181   1.699
18317W        W89988  26.770  36.389  11.160
18318W        W89989  25.449  14.594   4.046
18319W        W89990  41.376   1.990   2.367
18320W        W89991  41.832   3.954   2.293
18321W        W89992  19.841  40.790  12.929
18322W        W89993   7.535  31.876   5.178
18323W        W89994  30.346  20.212   2.867
18324W        W89995  26.419   7.203  11.436
18325W        W89996  14.692  14.249  12.997
18326W        W89997   8.300  31.198   1.257
18327W        W89998  21.750  11.160  14.032
18328W        W89999  22.324  36.034   0.763
18329W        W90000  27.189  14.121   1.279
18330W        W90001  30.610   8.240  10.637
18331W        W90002  24.531  27.011   2.763
18332W        W90003  27.092   9.257  12.435
18333W        W90004   5.722  35.993  13.419
18334W        W90005  24.900  32.078  10.730
18335W        W90006  37.861  30.489  14.037
18336W        W90007  27.629  42.551   4.622
18337W        W90008  34.021  38.566   3.297
18338W        W90009  13.813   8.667   4.371
18339W        W90010  35.177  21.660  14.814
18340W        W90011  18.567  12.581  13.769
18341W        W90012  28.567  40.438   1.112
18342W        W90013  33.855  20.268   0.041
18343W        W90014  33.996   2.821  12.104
18344W        W90015   1.181  14.088  11.542
18345W        W90016  37.333  32.063   2.165
18346W        W90017  17.087   3.008  13.865
18347W        W90018  24.328   9.470  10.639
18348W        W90019  24.779  41.978  14.919
18349W        W90020  30.175   2.888  12.808
18350W        W90021  27.368  13.835   4.864
18351W        W90022  41.050  28.246   3.593
18352W        W90023  14.850  39.449   4.174
18353W        W90024   4.942  42.201  14.488
18354W        W90025  44.195  34.611  10.742
18355W        W90026   0.261  43.109   1.406
18356W        W90027  32.168   1.891  14.462
18357W        W90028  41.979  39.009  11.927
18358W        W90029  16.396  16.199  14.893
18359W        W90030  14.778  25.032   1.349
18360W        W90031  36.246  31.134   4.359
18361W        W90032  10.056  12.852   4.233
18362W        W90033  20.400   7.147   0.048
18363W        W90034  15.622  18.960   4.594
18364W        W90035  39.025   3.815   3.607
18365W        W90036   4.454  30.470  13.459
18366W        W90037  40.010  24.040   4.823
18367W        W90038   1.378   3.949  11.404
18368W        W90039  44.358  25.584  12.379
18369W        W90040   4.985   9.383  12.548
18370W        W90041   8.913  15.747   0.663
18371W        W90042   9.740  33.972   0.307
18372W        W90043  31.842  11.616   4.511
18373W        W90044  22.423  44.667  14.518
18374W        W90045  32.186  21.948  11.096
18375W        W90046   8.160  34.035  14.280
18376W        W90047  42.717  22.810  14.979
18377W        W90048  24.777  14.984   0.836
18378W        W90049  20.678  26.115   4.242
18379W        W90050  35.153  19.125   1.635
18380W        W90051  43.023  24.627  11.610
18381W        W90052  20.789  14.898  13.296
18382W        W90053  28.030  10.227   0.362
18383W        W90054  15.012  28.571  12.954
18384W        W90055   2.047  10.206  14.983
18385W        W90056  28.580   0.432   3.661
18386W        W90057  40.202  17.447   0.482
18387W        W90058  10.699  39.734   2.303
18388W        W90059   7.361  25.126  14.578
18389W        W90060  33.554   3.720  14.356
18390W        W90061  20.063   5.807  14.917
18391W        W90062   9.662  19.780   2.256
18392W        W90063  38.075  33.446  10.653
18393W        W90064   8.816   4.289   1.390
18394W        W90065  11.462  12.337   3.392
18395W        W90066   0.203   0.311  11.976
18396W        W90067  35.914  44.877  13.327
18397W        W90068  35.654  43.513   0.222
18398W        W90069  15.824  28.906  11.615
18399W        W90070  22.636   6.782  11.720
18400W        W90071  26.645  35.779   1.836
18401W        W90072  23.559  22.544  13.427
18402W        W90073  26.616  17.467  13.769
18403W        W90074  38.993  35.362   0.564
18404W        W90075  12.644  24.533   4.698
18405W        W90076  25.447  38.582   2.168
18406W        W90077   5.862  23.225   4.771
18407W        W90078  41.437   3.290  14.865
18408W        W90079  33.835   1.241   1.718
18409W        W90080  28.174  39.575   2.236
18410W        W90081  29.791  26.084   3.877
18411W        W90082  11.541  12.186   4.214
18412W        W90083  20.634   1.780  14.999
18413W        W90084  26.126  24.095   2.222
18414W        W90085  17.978   2.314  11.611
18415W        W90086  25.244  20.397   2.734
18416W        W90087  16.684  18.350  13.024
18417W        W90088  37.599  26.707   2.190
18418W        W90089   3.171  12.528  13.036
18419W        W90090  40.278  33.629   3.599
18420W        W90091  37.070  36.170   1.445
18421W        W90092   1.157  38.439  13.092
18422W        W90093  33.098   7.201   1.270
18423W        W90094   6.972  40.766  12.069
18424W        W90095  41.399  18.056   1.355
18425W        W90096  41.996   4.705  10.561
18426W        W90097  18.732  23.557   0.064
18427W        W90098   8.257  38.275  12.938
18428W        W90099  19.239  38.428  12.254
18429W        W90100  15.579  24.941   4.233
18430W        W90101  42.932  32.087   1.858
18431W        W90102  17.680  27.197   1.855
18432W        W90103  14.619  36.229  12.517
18433W        W90104   0.447  29.560  11.542
18434W        W90105  33.033  30.984   3.638
18435W        W90106  38.104  22.442  13.428
18436W        W90107  13.065  14.172   0.736
18437W        W90108  34.163   7.831   2.429
18438W        W90109  42.606  23.707   0.680
18439W        W90110  24.587  43.958   3.156
18440W        W90111  18.690  22.881   4.877
18441W        W90112   6.072   1.691   0.553
18442W        W90113  26.685  32.823   5.018
18443W        W90114   3.327   1.789  10.604
18444W        W90115  37.377   2.185  12.837
18445W        W90116  37.827   5.312  13.092
18446W        W90117  11.253  19.669   0.012
18447W        W90118  35.412  33.569  14.673
18448W        W90119  43.140  15.584  11.081
18449W        W90120  28.998  36.922  11.578
18450W        W90121  29.982  22.532  10.957
18451W        W90122   0.516  43.777  11.903
18452W        W90123   7.419   6.455  12.014
18453W        W90124  14.304  44.251  12.118
18454W        W90125   4.227  26.178  11.877
18455W        W90126  12.905   3.298  10.468
18456W        W90127  41.068  16.770  12.960
18457W        W90128   2.172  33.972  12.277
18458W        W90129  21.029  30.571  11.404
18459W        W90130  23.390  13.622   0.495
18460W        W90131  13.934  37.025   2.900
18461W        W90132  24.187  26.803   0.728
18462W        W90133  19.475  24.189  14.832
18463W        W90134  28.443  38.474  12.084
18464W        W90135  12.046  12.109   4.155
18465W        W90136   7.608  38.233   2.849
18466W        W90137   2.935   5.710  13.581
18467W        W90138  31.382  30.219   4.234
18468W        W90139  38.950  29.715  12.048
18469W        W90140   7.444  27.221  12.512
18470W        W90141  21.982  10.123  13.485
18471W        W90142  26.158  44.400  12.987
18472W        W90143  42.015  28.751   1.527
18473W        W90144   0.023  10.300   1.078
18474W        W90145  18.020  44.000  14.453
18475W        W90146  18.167  31.144  13.046
18476W        W90147   9.684  32.730  11.523
18477W        W90148  14.791  27.209   4.155
18478W        W90149  37.115  31.658  11.144
18479W        W90150  24.436  29.884  10.777
18480W        W90151  27.087  25.486  13.607
18481W        W90152  32.539   3.063  12.143
18482W        W90153   5.175  12.302  10.762
18483W        W90154   1.766   2.461  11.561
18484W        W90155   5.951  39.983  14.461
18485W        W90156  43.592  38.969  12.782
18486W        W90157  35.104  43.307   4.537
18487W        W90158   6.401   7.108   4.220
18488W        W90159   6.143  11.121  11.540
18489W        W90160   5.892  31.424  12.951
18490W        W90161  21.785  14.759  14.820
18491W        W90162  14.676  18.023   0.214
18492W        W90163  34.140   9.493  11.201
18493W        W90164  20.719   8.203   3.109
18494W        W90165   6.772  34.450   1.742
18495W        W90166  19.654  23.451   5.524
18496W        W90167  15.326  21.246   0.499
18497W        W90168  43.564  41.012   2.853
18498W        W90169  29.698   5.901  13.915
18499W        W90170   8.123  19.258   4.236
18500W        W90171  37.107  29.754   1.122
18501W        W90172  31.680  39.448   3.132
18502W        W90173  18.062  25.783  10.088
18503W        W90174   8.348  14.255   4.319
18504W        W90175   1.210   5.281   1.903
18505W        W90176   2.945  42.441   3.272
18506W        W90177  26.655  33.307   1.300
18507W        W90178  28.066  30.557   0.944
18508W        W90179  37.124   2.075  14.438
18509W        W90180  32.530   5.768   0.239
18510W        W90181   1.699  23.426   4.243
18511W        W90182   7.728  36.439   1.118
18512W        W90183  35.506  29.099   3.818
18513W        W90184  11.802  43.797  12.123
18514W        W90185  12.710  20.695   0.167
18515W        W90186  39.380  12.698   0.625
18516W        W90187  26.072  20.487  14.390
18517W        W90188  26.134  11.118   0.803
18518W        W90189  41.377  16.864   2.677
18519W        W90190  20.866  17.619   3.688
18520W        W90191  42.435  21.703   1.579
18521W        W90192  20.240  35.355  13.923
18522W        W90193  19.848  44.606   0.946
18523W        W90194  15.737   4.389  14.338
18524W        W90195   5.322  18.338  10.837
18525W        W90196  39.004  43.945  14.736
18526W        W90197  21.611  21.982   0.275
18527W        W90198  20.543  23.543  11.606
18528W        W90199  15.032  19.498   2.692
18529W        W90200  37.026   8.738   2.245
18530W        W90201  43.289  37.548   2.387
18531W        W90202  26.486  32.190   0.497
18532W        W90203  24.161  11.083  11.209
18533W        W90204  22.993  40.871   4.225
18534W        W90205   8.356  32.297  13.092
18535W        W90206  28.451  37.471   3.035
18536W        W90207  39.822  21.629  11.533
18537W        W90208  31.920   8.106  11.922
18538W        W90209  43.008  23.537  11.632
18539W        W90210  21.264  27.952   2.136
18540W        W90211  24.202   4.764  10.155
18541W        W90212  32.853  35.383   2.355
18542W        W90213  17.608  40.844   1.661
18543W        W90214  29.675  42.529   4.704
18544W        W90215   1.184   8.152  11.234
18545W        W90216  36.470   5.746   4.519
18546W        W90217   7.874  11.175  14.436
18547W        W90218  25.192   4.973  11.946
18548W        W90219  44.125  27.666   0.198
18549W        W90220  30.311  32.447  13.606
18550W        W90221   8.120  40.122   4.570
18551W        W90222  10.711   3.100   3.211
18552W        W90223  14.670  31.348   1.596
18553W        W90224  19.540  26.876   4.456
18554W        W90225  18.224  39.595   2.400
18555W        W90226  18.806  14.251  13.101
18556W        W90227  26.679   3.247   3.833
18557W        W90228   6.543  41.557   1.228
18558W        W90229  44.337  31.645  11.112
18559W        W90230  38.217  36.464   2.796
18560W        W90231  34.639  25.085   4.616
18561W        W90232  39.521  35.572   3.352
18562W        W90233  18.243   6.673   4.435
18563W        W90234  28.657  25.492  10.664
18564W        W90235  16.620  44.684   2.056
18565W        W90236  35.782  31.712  12.375
18566W        W90237  12.431   1.822   4.203
18567W        W90238  28.986  22.321   0.689
18568W        W90239  14.259  27.146   0.606
18569W        W90240  27.055   4.386  14.232
18570W        W90241   5.301   6.923  14.978
18571W        W90242  29.916   1.079  13.800
18572W        W90243  22.293  25.961   0.999
18573W        W90244  23.796  13.732   2.401
18574W        W90245  11.752  18.796   3.193
18575W        W90246  39.884  24.939   0.948
18576W        W90247  42.743  44.041   4.037
18577W        W90248  37.476   8.476   2.860
18578W        W90249  25.828  18.142  13.960
18579W        W90250  14.621  27.577   1.483
18580W        W90251   2.823  14.721   4.920
18581W        W90252   0.722   4.983   4.029
18582W        W90253  33.673  33.552   0.738
18583W        W90254   4.994  35.788  13.857
18584W        W90255  36.399  23.183  12.562
18585W        W90256  11.136  33.252   3.167
18586W        W90257  10.182  25.704  13.325
18587W        W90258   2.724   9.093   3.746
18588W        W90259  20.729  25.130   2.741
18589W        W90260  22.214   1.190   0.254
18590W        W90261   5.394   2.916   2.650
18591W        W90262  10.927  31.440   3.417
18592W        W90263   8.643  21.441  13.992
18593W        W90264  26.712  42.232  13.989
18594W        W90265  26.446  44.602  12.612
18595W        W90266   3.646   6.452  12.690
18596W        W90267  24.011   8.872   2.376
18597W        W90268  42.357   0.544  11.968
18598W        W90269  32.165   9.821  14.456
18599W        W90270  16.187  31.094   4.495
18600W        W90271  20.653  39.854  12.965
18601W        W90272   9.948  33.206  11.142
18602W        W90273  32.111  35.419   3.630
18603W        W90274   5.793  35.891   0.366
18604W        W90275  15.423  31.228   3.245
18605W        W90276  36.848  34.599  13.092
18606W        W90277  22.262  31.728  12.960
18607W        W90278  19.715  39.939   3.283
18608W        W90279  29.530   5.656  12.326
18609W        W90280   1.250  23.178   1.884
18610W        W90281  10.951  22.682  14.478
18611W        W90282  16.152  19.259   3.439
18612W        W90283  34.458  38.285   9.804
18613W        W90284   9.863   2.868   2.308
18614W        W90285   8.072  16.628  11.598
18615W        W90286   6.323  30.522   4.965
18616W        W90287   0.257  27.657  12.506
18617W        W90288  32.238   0.345   9.929
18618W        W90289  25.506  22.375  10.893
18619W        W90290  16.031  15.138   0.263
18620W        W90291  23.558  34.358   2.401
18621W        W90292  26.461  21.034   1.307
18622W        W90293  16.752  11.268  12.977
18623W        W90294  20.262  32.343  14.431
18624W        W90295  14.007  10.825   4.475
18625W        W90296  15.609   4.961   3.695
18626W        W90297   5.746   8.419  12.686
18627W        W90298   3.451  30.402  13.392
18628W        W90299   8.864  32.182   2.750
18629W        W90300  41.299  10.854  14.874
18630W        W90301   1.297  44.182  11.392
18631W        W90302  26.932  15.076  13.481
18632W        W90303  23.267  29.542  10.624
18633W        W90304  25.962  10.242  12.462
18634W        W90305  18.727  29.686  12.137
18635W        W90306   9.337  44.887  13.244
18636W        W90307  13.151  29.468   3.965
18637W        W90308  23.378  33.353   3.594
18638W        W90309  44.843  28.543   1.247
18639W        W90310  29.689   7.667   4.211
18640W        W90311  20.228  30.666   0.808
18641W        W90312  28.095  34.329  13.012
18642W        W90313  13.522  43.021   4.235
18643W        W90314  10.925  37.316   1.508
18644W        W90315  37.355   9.614   4.093
18645W        W90316  27.426  38.545  12.002
18646W        W90317   1.899  42.855  11.940
18647W        W90318   5.362   6.184   0.503
18648W        W90319  36.272   9.099   2.509
18649W        W90320   2.110  35.884   1.396
18650W        W90321  35.179   4.469  10.286
18651W        W90322  18.262   8.410  12.140
18652W        W90323  15.628  15.318  13.460
18653W        W90324  39.944   8.406   4.048
18654W        W90325  37.645  38.688   2.133
18655W        W90326  42.564  19.843   1.842
18656W        W90327  13.537  22.058  12.062
18657W        W90328  21.489  10.216   0.306
18658W        W90329  11.137  23.020   2.776
18659W        W90330  19.769  30.031   0.453
18660W        W90331   0.347  43.889  13.327
18661W        W90332  24.713  19.944   0.921
18662W        W90333  38.090  32.878   0.757
18663W        W90334  18.076  14.438   4.478
18664W        W90335   1.031  23.706  12.293
18665W        W90336  36.384   7.134  11.677
18666W        W90337  27.757   0.898   4.699
18667W        W90338  16.689  31.542  11.624
18668W        W90339  44.543  35.996   3.126
18669W        W90340  10.293   9.372  13.011
18670W        W90341  37.807   3.244   2.856
18671W        W90342  25.564  30.004  11.602
18672W        W90343  29.487  34.081  12.827
18673W        W90344   3.984  13.657   2.398
18674W        W90345  26.470  10.073  12.505
18675W        W90346  21.033   9.568  11.534
18676W        W90347  23.259  11.843   2.714
18677W        W90348  27.730  14.325  14.990
18678W        W90349  36.378  40.017   0.512
18679W        W90350  33.520  40.302   2.376
18680W        W90351   1.493   2.755  14.786
18681W        W90352  25.725  28.097   3.697
18682W        W90353  28.503  38.820   3.397
18683W        W90354  26.335  40.071   0.428
18684W        W90355   7.378  38.453  10.437
18685W        W90356   1.733   3.156   2.533
18686W        W90357  31.064  27.966   0.247
18687W        W90358  21.081  41.897   2.223
18688W        W90359  44.783  35.181  14.420
18689W        W90360  32.806   6.343  13.041
18690W        W90361   0.857  29.646   0.717
18691W        W90362  27.624  31.157   3.201
18692W        W90363   3.333  11.781  13.571
18693W        W90364  34.556   4.785   3.765
18694W        W90365   3.509  35.278  10.738
18695W        W90366  17.997   9.170  11.356
18696W        W90367  33.590   3.403  10.589
18697W        W90368  29.402  16.543   1.201
18698W        W90369  25.008  19.116  12.059
18699W        W90370  20.901  38.159  10.705
18700W        W90371  21.737   9.994  11.513
18701W        W90372   7.294  30.135  11.675
18702W        W90373  41.595   6.892   3.185
18703W        W90374  39.804  22.024  14.421
18704W        W90375  31.918  31.410   0.377
18705W        W90376  13.162  20.132  12.644
18706W        W90377  26.556   9.965   0.552
18707W        W90378   7.206  29.311  11.190
18708W        W90379  32.210  15.541  14.421
18709W        W90380   6.709  16.556  11.561
18710W        W90381  34.329  32.215  10.608
18711W        W90382  18.311  12.081   1.762
18712W        W90383  11.371  37.205  14.473
18713W        W90384  30.079  29.640   3.338
18714W        W90385  23.928  18.196  12.054
18715W        W90386   3.395  23.533   3.111
18716W        W90387  26.387  38.472   4.099
18717W        W90388  36.164  25.994   4.281
18718W        W90389  34.466  22.283  11.382
18719W        W90390  12.182  21.445   0.318
18720W        W90391  34.985   0.949  11.039
18721W        W90392  36.557  34.201  14.950
18722W        W90393  29.439  11.701   3.858
18723W        W90394  34.631  38.292   4.157
18724W        W90395  42.887  43.711  14.353
18725W        W90396   4.862  12.660  11.466
18726W        W90397  44.414  10.947   4.639
18727W        W90398  31.818  39.014   4.877
18728W        W90399   4.855  21.140   4.647
18729W        W90400  14.772  41.424   1.954
18730W        W90401  28.660  10.735  13.046
18731W        W90402  12.638  34.090  13.600
18732W        W90403  26.764  13.625  11.537
18733W        W90404  36.269  23.682  12.596
18734W        W90405  43.429  38.162   1.436
18735W        W90406  21.174   9.105  13.296
18736W        W90407   7.605  13.330  10.896
18737W        W90408  11.170   0.247   3.591
18738W        W90409  35.856  19.715  12.458
18739W        W90410   9.801  23.977   4.555
18740W        W90411  39.332  14.857  11.975
18741W        W90412   7.829  13.906   4.508
18742W        W90413  39.918   3.122  11.085
18743W        W90414  22.268  17.583  12.474
18744W        W90415  28.108  16.592   0.790
18745W        W90416   6.028  35.910  11.937
18746W        W90417  36.383  26.410   2.682
18747W        W90418  41.961  20.130   3.796
18748W        W90419   0.089   3.089   0.827
18749W        W90420  39.395  23.803  12.321
18750W        W90421  37.405  21.148  14.439
18751W        W90422  36.165  31.157   3.868
18752W        W90423  41.261   5.362   1.451
18753W        W90424  31.945   5.720   0.657
18754W        W90425   1.195   3.503   1.789
18755W        W90426  25.757  33.503   1.276
18756W        W90427  39.295  40.570   2.320
18757W        W90428  30.465   4.692  11.117
18758W        W90429  16.658  23.651   1.691
18759W        W90430  10.687  30.667  10.880
18760W        W90431  25.147  44.857  14.375
18761W        W90432  19.607  14.707   5.567
18762W        W90433  28.559  18.873  10.784
18763W        W90434  16.583   7.764  10.653
18764W        W90435   2.942  33.120  13.341
18765W        W90436  26.426  23.984  11.017
18766W        W90437  38.865  22.461  13.900
18767W        W90438   3.411   4.359  12.633
18768W        W90439  16.739   4.054  10.666
18769W        W90440  40.037  39.407   4.161
18770W        W90441   8.103  14.728  14.851
18771W        W90442  39.397  21.496   4.307
18772W        W90443  36.566  30.366   0.741
18773W        W90444  12.893  28.142  10.735
18774W        W90445  20.985   8.653   3.237
18775W        W90446  19.580  29.667   0.061
18776W        W90447  13.878  12.821  12.696
18777W        W90448   0.524   6.810   3.294
18778W        W90449  10.654  38.127  11.108
18779W        W90450   6.134  37.325  11.060
18780W        W90451  14.841  44.974  11.641
18781W        W90452  15.722  17.584   1.250
18782W        W90453   6.145  33.645  13.403
18783W        W90454  42.702  10.859  11.536
18784W        W90455  22.402   8.647   3.203
18785W        W90456   6.571  19.510  10.382
18786W        W90457   7.306  10.615  14.005
18787W        W90458  44.340   7.349  14.494
18788W        W90459  44.115  29.847   2.557
18789W        W90460   3.760  26.336  12.381
18790W        W90461  32.355  11.707  11.544
18791W        W90462  40.111  22.473  11.939
18792W        W90463  43.459  21.749   2.626
18793W        W90464  31.908  14.838  11.446
18794W        W90465   8.390  44.972  14.671
18795W        W90466  25.812  37.875  12.172
18796W        W90467  29.846  32.369  13.300
18797W        W90468  16.539   2.544  14.479
18798W        W90469  10.352   5.718  12.514
18799W        W90470  15.573  24.372   2.307
18800W        W90471  38.528  28.269   3.847
18801W        W90472  31.566  43.724  14.448
18802W        W90473  16.014  27.298   0.311
18803W        W90474   2.406  31.023  14.899
18804W        W90475  31.412   1.913   1.301
18805W        W90476  29.266  21.162   1.299
18806W        W90477  34.986  16.616   2.241
18807W        W90478  37.882  16.101   3.354
18808W        W90479  38.296  44.704   4.196
18809W        W90480  43.248  14.268   5.196
18810W        W90481   3.888  21.371   0.520
18811W        W90482  13.638  30.668   3.445
18812W        W90483  37.134  28.713  14.384
18813W        W90484   0.255   0.026   2.133
18814W        W90485   5.914  38.242  14.533
18815W        W90486  11.319  28.518   3.591
18816W        W90487   3.604  27.905   2.582
18817W        W90488  24.623  16.713   3.133
18818W        W90489   7.991  27.200   2.649
18819W        W90490   1.135  33.449   0.286
18820W        W90491  35.583   1.248  11.459
18821W        W90492  24.090  36.096  12.088
18822W        W90493  25.441  30.211   2.361
18823W        W90494  25.242  21.166  14.808
18824W        W90495  32.026  30.659   4.635
18825W        W90496  29.339  42.861   2.679
18826W        W90497   5.811   5.427   4.486
18827W        W90498   4.915  22.121   2.913
18828W        W90499  41.877  18.024  10.447
18829W        W90500   7.102  14.687  12.020
18830W        W90501  30.077  41.834   0.558
18831W        W90502  11.240  18.898   3.101
18832W        W90503  11.404  22.123  12.360
18833W        W90504  18.229  31.903  10.756
18834W        W90505  20.741   3.960   4.603
18835W        W90506  42.464  21.989  11.934
18836W        W90507  17.865  44.503  10.902
18837W        W90508  31.682  21.082  14.985
18838W        W90509  32.587   3.825  12.825
18839W        W90510  44.730  10.827  13.080
18840W        W90511   0.326  16.984  13.547
18841W        W90512  23.907  19.668  13.310
18842W        W90513  35.508  29.872  11.088
18843W        W90514  38.413  41.039  14.729
18844W        W90515  13.346  34.011   4.216
18845W        W90516  14.142   6.201   1.206
18846W        W90517  44.893  29.630   3.126
18847W        W90518  35.306  39.252  11.972
18848W        W90519  16.785  26.959   0.035
18849W        W90520  16.289   4.385  10.688
18850W        W90521  35.072   5.927   3.095
18851W        W90522  32.677  40.070   3.817
18852W        W90523   8.218   3.325   3.711
18853W        W90524  27.090  44.667   1.162
18854W        W90525   4.643  26.055   1.219
18855W        W90526   5.774  38.371  13.522
18856W        W90527  11.553  24.997   0.943
18857W        W90528  11.318  20.250  14.920
18858W        W90529  29.675  20.921  12.289
18859W        W90530  31.204  43.392  14.794
18860W        W90531  28.282  30.652  13.344
18861W        W90532  31.177   1.058   0.345
18862W        W90533  25.723  26.585   3.593
18863W        W90534  10.366   0.777   4.552
18864W        W90535  44.832  25.381   4.090
18865W        W90536  33.438  41.342  13.028
18866W        W90537   7.449  29.922  12.127
18867W        W90538  17.376  20.135   2.644
18868W        W90539  22.339  26.055  11.551
18869W        W90540   6.813  33.671  11.323
18870W        W90541   6.296   2.262   5.017
18871W        W90542  38.349   5.871   2.895
18872W        W90543   0.697  38.263  12.986
18873W        W90544  18.735   2.205  12.771
18874W        W90545  14.016   1.850   4.611
18875W        W90546  21.030  14.242   3.660
18876W        W90547   9.381  43.380   2.611
18877W        W90548  42.591  44.021  12.552
18878W        W90549   3.671  40.195   4.583
18879W        W90550  23.551  14.614   0.881
18880W        W90551  20.016   6.291   4.089
18881W        W90552  16.481  16.433   4.265
18882W        W90553  15.074   1.921   1.962
18883W        W90554   4.263   5.982  13.333
18884W        W90555  34.182  44.358   4.863
18885W        W90556   3.656  21.025   4.993
18886W        W90557  23.520   7.144   1.404
18887W        W90558  38.322   9.189  14.896
18888W        W90559   4.257  36.631   4.268
18889W        W90560  44.409  28.401  14.037
18890W        W90561  17.959   9.597  10.581
18891W        W90562  15.661  33.465  11.342
18892W        W90563  34.584   8.306   3.258
18893W        W90564  12.137   6.320  14.450
18894W        W90565   1.484  18.331  12.967
18895W        W90566  26.746   7.256   3.229
18896W        W90567  14.211  26.552  12.635
18897W        W90568  35.316  13.778   3.693
18898W        W90569  12.917  14.575  14.000
18899W        W90570  19.675  10.289  13.384
18900W        W90571  44.598  38.396  10.676
18901W        W90572  34.949  24.675   1.813
18902W        W90573  26.964  41.748  12.380
18903W        W90574  31.299  28.809   0.480
18904W        W90575  36.300  27.840  11.524
18905W        W90576  38.861  16.207  14.442
18906W        W90577   9.823  31.153  13.401
18907W        W90578  26.384   3.339   4.714
18908W        W90579   9.651  29.707   0.783
18909W        W90580   4.752  32.039   2.907
18910W        W90581  38.946  32.739   2.765
18911W        W90582   1.720  44.934  13.794
18912W        W90583  36.872  10.728  12.150
18913W        W90584  39.532  23.910   3.084
18914W        W90585  25.558  28.072   4.634
18915W        W90586  11.737  25.038  12.437
18916W        W90587  24.526  24.952   4.964
18917W        W90588  42.974  24.542  10.662
18918W        W90589  44.766  27.338   0.922
18919W        W90590   2.427  31.613   0.480
18920W        W90591  36.418   0.312   1.245
18921W        W90592  20.996  22.493   1.784
18922W        W90593  38.821   0.506   0.741
18923W        W90594   1.312  29.117   2.968
18924W        W90595  10.150  28.217   5.103
18925W        W90596  27.324  23.808   0.452
18926W        W90597  29.336  42.879   5.032
18927W        W90598   3.646  18.541   4.111
18928W        W90599  26.082  14.168  12.051
18929W        W90600  34.199  29.434  10.663
18930W        W90601  23.354  28.101   2.254
18931W        W90602   7.415  17.343  11.634
18932W        W90603   5.108  38.514  14.883
18933W        W90604  39.819  31.561  12.847
18934W        W90605  22.680  20.635   4.786
18935W        W90606  10.415   0.371   1.334
18936W        W90607  39.453  16.616   3.603
18937W        W90608  22.410   2.286   1.855
18938W        W90609  41.602  34.470  14.281
18939W        W90610  27.573  30.527   1.113
18940W        W90611  37.986  24.625   3.815
18941W        W90612  43.289  36.433  10.640
18942W        W90613  40.730  32.088   1.039
18943W        W90614  39.624  30.433   2.371
18944W        W90615   3.696  15.561  14.951
18945W        W90616  21.694  10.322   0.772
18946W        W90617   4.273  20.347  11.644
18947W        W90618  40.477  28.167   5.091
18948W        W90619   6.926  23.378  11.281
18949W        W90620  11.748  32.203  12.029
18950W        W90621  12.402  30.492  12.902
18951W        W90622  11.241  39.999  13.281
18952W        W90623  37.402  41.830  12.538
18953W        W90624  39.248  21.728  12.340
18954W        W90625  21.936  23.934   0.983
18955W        W90626  17.546  23.021   2.793
18956W        W90627   7.671  43.384  12.555
18957W        W90628  22.262  18.118  12.963
18958W        W90629  31.915  30.169  11.168
18959W        W90630  37.789  41.849   2.761
18960W        W90631  33.699  43.066  12.675
18961W        W90632  12.174   4.032  14.018
18962W        W90633   0.860  26.816  13.405
18963W        W90634  19.156  44.834   4.390
18964W        W90635  43.072  26.002   2.172
18965W        W90636  23.129   7.708  13.783
18966W        W90637   5.479  25.646  13.509
18967W        W90638  40.565  25.019   2.304
18968W        W90639   0.708   0.021  14.087
18969W        W90640  22.225  19.799   4.683
18970W        W90641  39.305   5.971  13.522
18971W        W90642  40.458  10.794   0.045
18972W        W90643  16.680   2.758   1.342
18973W        W90644  21.277  34.477  12.576
18974W        W90645  38.427  35.988  10.656
18975W        W90646  37.767  25.333  14.559
18976W        W90647   7.866  27.977  10.336
18977W        W90648  30.438   1.349  11.985
18978W        W90649  20.144  40.871   2.190
18979W        W90650  19.173  44.448   4.066
18980W        W90651  18.084   4.517   1.650
18981W        W90652   4.320  20.817   1.719
18982W        W90653  41.069  33.732  12.096
18983W        W90654  24.755  30.875   1.478
18984W        W90655   2.271   5.679   1.313
18985W        W90656  11.611  29.434   0.893
18986W        W90657   2.979  27.621  12.042
18987W        W90658  10.386  21.278   4.963
18988W        W90659  13.888  20.185   0.462
18989W        W90660  10.213  28.099   3.284
18990W        W90661  22.757  20.251   4.030
18991W        W90662  34.052  34.193   1.387
18992W        W90663  13.250  19.283   1.884
18993W        W90664  36.535  36.784  10.616
18994W        W90665  37.522  21.858  12.639
18995W        W90666  16.162  14.868   1.451
18996W        W90667  36.938   3.905   0.427
18997W        W90668  16.843  32.467  11.631
18998W        W90669  20.630   8.175  10.722
18999W        W90670  28.229  34.934   9.726
19000W        W90671  27.598  30.615   2.134
19001W        W90672  22.747  41.355   1.284
19002W        W90673  34.664  14.616   2.218
19003W        W90674  23.344  17.011   3.782
19004W        W90675  23.306  44.987   0.949
19005W        W90676  40.145  18.726  12.658
19006W        W90677  39.136  20.960  14.031
19007W        W90678  24.240  31.581   0.403
19008W        W90679  42.593   3.873   1.724
19009W        W90680  44.978  24.447  12.377
19010W        W90681  44.090  24.749  14.362
19011W        W90682  33.127   4.190  10.718
19012W        W90683  31.480   1.778   2.637
19013W        W90684  23.303  35.612  13.934
19014W        W90685  15.329  14.113   3.106
19015W        W90686   9.129  40.438   4.277
19016W        W90687  29.020  39.888   2.108
19017W        W90688  29.700   2.852   4.791
19018W        W90689   9.924  27.112  10.945
19019W        W90690  29.435  36.008  13.838
19020W        W90691  17.111   4.901   0.675
19021W        W90692  15.453  38.649  14.825
19022W        W90693  43.831   5.418  13.848
19023W        W90694  32.704  15.240  10.571
19024W        W90695  12.268   4.233  12.944
19025W        W90696  34.599  13.183   3.363
19026W        W90697  26.056  31.321  13.898
19027W        W90698  23.138  28.550   0.061
19028W        W90699  31.348  40.719   2.165
19029W        W90700  35.914  10.122   1.895
19030W        W90701  41.571  40.468   4.020
19031W        W90702  42.892  43.284   0.531
19032W        W90703  40.479  43.915  11.641
19033W        W90704  30.310  37.493   0.358
19034W        W90705   1.236   3.072  12.837
19035W        W90706  15.097  28.180   3.210
19036W        W90707   0.368  43.443   2.734
19037W        W90708  37.582  42.349   1.720
19038W        W90709  21.451  16.607  14.047
19039W        W90710  16.290   8.821   1.211
19040W        W90711  20.666  21.560   4.632
19041W        W90712  44.497   1.648   1.305
19042W        W90713  16.559  23.491   0.729
19043W        W90714  44.865  39.549  12.554
19044W        W90715  24.054  27.635  10.384
19045W        W90716  44.458   7.649   0.289
19046W        W90717  14.380  34.842   4.242
19047W        W90718   8.427  40.848   2.155
19048W        W90719  34.517  36.857  12.613
19049W        W90720  34.911  26.937   0.419
19050W        W90721   6.271  24.228  14.507
19051W        W90722   8.325  18.799   4.487
19052W        W90723  16.830  28.209   1.368
19053W        W90724  23.615  41.292   3.356
19054W        W90725   7.968  44.886  12.857
19055W        W90726   7.832  20.164   0.504
19056W        W90727   4.782  12.900  14.811
19057W        W90728  42.262  10.202   4.919
19058W        W90729  44.101   7.842  10.720
19059W        W90730  22.541   7.399   4.176
19060W        W90731  10.411  15.895   4.192
19061W        W90732  14.344  30.504  14.619
19062W        W90733  29.180  26.586   1.952
19063W        W90734   4.840  38.835   4.073
19064W        W90735  27.998  30.532  11.907
19065W        W90736  31.189  24.008   3.203
19066W        W90737  37.143  39.327   4.181
19067W        W90738  14.896  40.430  11.083
19068W        W90739  35.875  16.295   4.343
19069W        W90740  32.078  32.856   2.220
19070W        W90741  26.414  42.890   4.212
19071W        W90742  16.649  17.875  13.331
19072W        W90743  33.590  36.448   3.728
19073W        W90744  36.118  36.367  13.295
19074W        W90745  26.570   3.386  14.334
19075W        W90746   2.283  25.883   0.676
19076W        W90747  14.764  24.124   3.692
19077W        W90748  10.469  22.004   3.222
19078W        W90749  37.292  17.246   4.545
19079W        W90750  22.282  21.417  11.867
19080W        W90751  27.123  20.312   4.945
19081W        W90752   1.647   6.842  12.599
19082W        W90753  23.532   1.044   3.623
19083W        W90754  44.313   1.686  10.807
19084W        W90755   9.778  21.669  11.290
19085W        W90756  37.080   8.134  10.512
19086W        W90757  44.220  40.421  11.561
19087W        W90758   2.220   7.064  10.980
19088W        W90759   1.236  26.984   3.795
19089W        W90760  25.169   1.884   0.694
19090W        W90761  39.823  31.849   1.282
19091W        W90762  34.535  22.490   4.567
19092W        W90763  17.769   0.422   3.735
19093W        W90764   1.317  10.996  11.102
19094W        W90765   7.126  21.517  10.585
19095W        W90766  38.766  39.828   0.844
19096W        W90767  27.546  24.663  13.428
19097W        W90768  28.136  28.037  10.516
19098W        W90769   8.641  14.787   0.823
19099W        W90770  33.539  42.199   3.187
19100W        W90771  44.831  42.016  12.034
19101W        W90772  36.836  16.021   1.117
19102W        W90773  39.060   0.035  13.304
19103W        W90774  10.136  10.267   1.052
19104W        W90775  19.398  18.799  10.460
19105W        W90776  34.956  11.248   9.956
19106W        W90777   2.603  19.271  12.304
19107W        W90778   2.848  36.754   4.540
19108W        W90779  37.824  25.719   1.341
19109W        W90780  36.977   6.529   4.761
19110W        W90781  33.185  42.269   2.826
19111W        W90782  28.714  31.203  12.490
19112W        W90783  34.121  15.823   2.851
19113W        W90784  17.639  42.399  14.370
19114W        W90785  32.419  20.712   3.279
19115W        W90786  41.277   7.937   4.117
19116W        W90787  37.511  12.395  14.854
19117W        W90788  11.591  25.974   0.955
19118W        W90789  32.321  13.103   1.275
19119W        W90790  29.432   1.440  12.067
19120W        W90791  44.905  18.182   2.255
19121W        W90792   3.328   0.525   1.353
19122W        W90793  43.977  41.956   9.974
19123W        W90794  40.254  26.073   4.177
19124W        W90795   3.935  34.398  10.566
19125W        W90796  13.704  23.212   0.024
19126W        W90797  13.155  42.835   9.790
19127W        W90798  15.732  16.988   4.136
19128W        W90799   6.229  28.639   4.024
19129W        W90800  43.914   7.377   4.061
19130W        W90801  37.626  24.623  12.103
19131W        W90802  14.276   9.553   0.681
19132W        W90803  37.932  42.812  10.759
19133W        W90804   1.920  23.046   5.493
19134W        W90805  29.649   3.210  10.077
19135W        W90806  11.102  32.886   3.814
19136W        W90807  40.047   3.750   3.021
19137W        W90808  27.613  10.545   2.909
19138W        W90809  16.367  13.091  12.513
19139W        W90810   8.423  39.995   1.772
19140W        W90811  34.343  23.204  13.437
19141W        W90812   8.018   0.707  11.662
19142W        W90813   5.502  39.126  14.111
19143W        W90814  10.426  21.255   2.746
19144W        W90815  37.111  28.193  14.338
19145W        W90816  15.071  25.080   0.899
19146W        W90817  40.103  36.331   0.392
19147W        W90818  33.903  20.521   1.353
19148W        W90819  17.344  28.986   3.792
19149W        W90820   3.695   2.451  11.559
19150W        W90821  33.395  25.730   3.475
19151W        W90822  34.910   8.848  13.878
19152W        W90823  34.626  34.800  13.530
19153W        W90824  14.302  41.865   4.595
19154W        W90825  11.842  15.836  11.843
19155W        W90826  22.264  21.717  11.417
19156W        W90827  19.833  37.621  12.415
19157W        W90828   7.861  10.176   1.775
19158W        W90829   3.172  29.030  10.980
19159W        W90830  28.620  26.396  12.029
19160W        W90831  27.578  23.955  12.018
19161W        W90832  41.436  15.383  10.697
19162W        W90833  27.580  15.637   2.790
19163W        W90834  32.091  11.794   1.312
19164W        W90835  11.622  30.977   0.758
19165W        W90836   8.488   8.248  12.483
19166W        W90837  44.920  23.199  11.640
19167W        W90838  19.056  23.814  10.638
19168W        W90839  40.049  21.226  12.242
19169W        W90840  40.233  34.881   0.545
19170W        W90841   2.897  26.148  12.532
19171W        W90842  36.467  28.150  14.968
19172W        W90843  12.923   8.899   0.821
19173W        W90844  39.963  30.627  14.450
19174W        W90845  33.046  35.942  13.110
19175W        W90846  21.593  41.540  11.571
19176W        W90847  32.420  17.558  11.253
19177W        W90848  38.220  43.811  14.084
19178W        W90849  25.056   7.585  11.494
19179W        W90850   4.686  43.391  13.504
19180W        W90851  12.191  43.163  14.298
19181W        W90852  23.257   5.721  14.950
19182W        W90853  36.967  39.562   9.938
19183W        W90854  14.636  32.006   2.675
19184W        W90855  32.373  36.192  11.346
19185W        W90856  18.996  33.503   1.345
19186W        W90857  22.487  40.012  10.692
19187W        W90858  10.291  21.794   0.464
19188W        W90859   6.082  17.129  13.507
19189W        W90860  26.684   3.830   1.897
19190W        W90861  37.989  31.679   4.200
19191W        W90862  27.817  44.810  12.648
19192W        W90863  19.153   1.755  12.840
19193W        W90864  29.854  32.360  11.075
19194W        W90865  20.887   7.870   2.266
19195W        W90866  17.168  19.251  13.921
19196W        W90867  35.485  23.664   1.686
19197W        W90868  29.610   2.172   0.886
19198W        W90869   1.785  28.042  11.692
19199W        W90870  24.090  24.974  12.511
19200W        W90871  11.129  22.059   2.228
19201W        W90872  32.245  17.133   1.803
19202W        W90873  20.444   7.644   2.437
19203W        W90874  43.595  23.928  13.798
19204W        W90875  21.139  27.340  10.087
19205W        W90876  33.450  13.512   9.937
19206W        W90877  29.684  22.586   4.278
19207W        W90878  40.134  27.242   3.299
19208W        W90879  42.300  44.985  13.123
19209W        W90880   9.345  43.664   0.821
19210W        W90881  16.876  42.728   2.276
19211W        W90882  20.328   6.924  11.927
19212W        W90883  21.089   1.561  14.873
19213W        W90884  42.742  12.332   2.849
19214W        W90885  36.544   4.855  12.692
19215W        W90886  34.196  25.020  13.857
19216W        W90887  11.635  16.286  12.480
19217W        W90888  14.473   9.820   3.147
19218W        W90889  44.349   1.885  10.336
19219W        W90890  34.999  20.559   3.182
19220W        W90891  16.837  20.426  14.939
19221W        W90892  18.585  37.857  10.766
19222W        W90893  42.652  12.446   1.783
19223W        W90894  43.979  35.888   4.581
19224W        W90895  25.110  15.768   4.596
19225W        W90896  38.278  40.802   2.208
19226W        W90897  34.472   8.195   2.739
19227W        W90898  28.149  17.658   3.200
19228W        W90899   8.888  41.059   2.219
19229W        W90900  40.979  40.578  14.164
19230W        W90901  31.522   1.706   2.130
19231W        W90902  17.650  13.779   4.600
19232W        W90903   8.742   7.947  11.574
19233W        W90904  20.128  26.226  10.851
19234W        W90905   6.280   8.697  13.781
19235W        W90906  16.319   5.501  13.293
19236W        W90907   9.203   9.147   1.361
19237W        W90908   0.882  15.724   4.000
19238W        W90909  17.568   5.996   1.740
19239W        W90910  27.962  31.735  10.969
19240W        W90911   5.668  33.038   3.814
19241W        W90912  28.348  40.966  14.353
19242W        W90913  30.211  24.378  12.533
19243W        W90914   1.304   1.096  14.964
19244W        W90915  15.722  34.420  11.160
19245W        W90916  24.036  23.584   1.056
19246W        W90917  24.006  21.821   4.436
19247W        W90918  22.960   5.203  11.113
19248W        W90919  22.490   4.187   3.901
19249W        W90920  28.636   6.693   3.030
19250W        W90921   9.163  28.006  14.021
19251W        W90922  34.156  19.673   0.441
19252W        W90923  27.046   6.593   9.769
19253W        W90924  43.174  41.811  12.449
19254W        W90925  26.143   0.525   0.507
19255W        W90926  34.989  31.395  13.908
19256W        W90927  36.599  39.516   4.920
19257W        W90928   0.224  22.507   0.022
19258W        W90929  17.030  18.167   0.264
19259W        W90930   8.862  41.021  14.151
19260W        W90931  40.385  12.612   0.346
19261W        W90932  36.240  20.625   3.136
19262W        W90933   7.699   0.292  11.542
19263W        W90934   0.956  24.142   2.908
19264W        W90935  28.149  32.035  12.622
19265W        W90936  40.944   3.403  13.408
19266W        W90937  36.765  10.362  13.376
19267W        W90938  37.372   0.840  12.240
19268W        W90939  11.306   1.966  13.441
19269W        W90940   8.676  29.689  13.935
19270W        W90941   4.928  30.546  12.763
19271W        W90942  11.348  31.403   3.768
19272W        W90943  32.542   0.924   3.013
19273W        W90944  12.212  27.569   2.878
19274W        W90945  41.836  22.458  14.899
19275W        W90946  35.430  21.386   1.345
19276W        W90947  40.345   3.311   3.833
19277W        W90948  21.989  14.532  13.060
19278W        W90949  41.012  29.111   3.203
19279W        W90950  37.958  18.995  10.971
19280W        W90951  16.170  18.611   2.688
19281W        W90952  38.564   7.749   2.740
19282W        W90953  35.164  44.454   4.228
19283W        W90954  33.461  22.509   0.558
19284W        W90955  32.628  30.949   0.347
19285W        W90956  32.611   3.233   3.513
19286W        W90957   6.745  37.536  13.705
19287W        W90958  31.198  42.895  11.500
19288W        W90959  34.580  35.991   1.082
19289W        W90960  39.561  28.654   0.784
19290W        W90961   5.368  25.170  13.354
19291W        W90962  40.523  37.130  12.313
19292W        W90963  18.944   8.477  13.834
19293W        W90964  26.487   4.162  11.954
19294W        W90965   8.125  37.476  14.386
19295W        W90966  24.645  41.448  13.323
19296W        W90967  28.316   5.844   9.826
19297W        W90968  44.449  20.198   2.654
19298W        W90969  35.842  15.797  14.490
19299W        W90970  35.562  26.830   3.622
19300W        W90971  25.547  28.322   3.246
19301W        W90972  12.165  20.607   4.433
19302W        W90973  33.590  24.681   1.956
19303W        W90974  23.793  37.024  13.875
19304W        W90975   5.208  24.906  10.321
19305W        W90976  32.778  28.535   3.542
19306W        W90977  39.864  41.791  14.752
19307W        W90978  14.492   5.955  10.126
19308W        W90979  21.789  44.886  14.061
19309W        W90980  41.988  37.066   3.213
19310W        W90981  17.050  35.153   4.184
19311W        W90982  15.672  34.546  12.078
19312W        W90983  17.804  33.028   0.483
19313W        W90984  26.782  30.412  10.569
19314W        W90985  38.564   3.755  11.567
19315W        W90986  11.685   8.720  13.058
19316W        W90987   8.677  36.054   1.682
19317W        W90988  42.791   2.750   0.458
19318W        W90989  41.955  30.633  13.314
19319W        W90990  21.622   6.266  12.071
19320W        W90991   1.942  19.145   1.358
19321W        W90992  29.317  44.834  14.250
19322W        W90993  10.311  27.458  11.946
19323W        W90994  11.849   7.532  10.688
19324W        W90995  36.667   9.333  12.911
19325W        W90996  13.119  24.504   3.824
19326W        W90997  10.190  33.316   4.600
19327W        W90998   9.343  18.233   1.688
19328W        W90999   5.152  15.896   4.633
19329W        W91000  25.706  39.455  12.975
19330W        W91001  36.219  30.506   2.280
19331W        W91002  24.780  22.975   2.708
19332W        W91003  20.440  13.988  14.549
19333W        W91004  10.849  16.716  12.996
19334W        W91005  15.163  40.898  14.332
19335W        W91006  27.195  35.852   0.913
19336W        W91007  12.750  10.917   3.889
19337W        W91008  19.726  22.972   4.601
19338W        W91009   4.353  16.852  13.899
19339W        W91010  42.597  42.010  10.030
19340W        W91011  11.728  26.299   1.779
19341W        W91012  31.180  15.712  14.415
19342W        W91013  15.204  16.709  13.358
19343W        W91014  40.544  33.859  10.349
19344W        W91015  39.239  23.636   1.645
19345W        W91016  22.098  44.452  12.134
19346W        W91017  44.556  41.252   0.465
19347W        W91018  28.463  20.616  13.412
19348W        W91019   7.345  31.263  12.794
19349W        W91020   0.327  21.190   2.067
19350W        W91021   6.829  37.344   3.132
19351W        W91022  15.551  15.299   2.643
19352W        W91023  36.189  40.471   5.072
19353W        W91024   9.173   9.044  14.853
19354W        W91025  44.624  29.384   3.693
19355W        W91026  26.096  11.347  12.771
19356W        W91027   9.295  34.919   1.107
19357W        W91028  44.290  18.519  14.483
19358W        W91029  35.077  35.569  11.236
19359W        W91030  28.720  14.350  14.693
19360W        W91031   4.970  32.544  10.988
19361W        W91032  11.259  42.444   0.715
19362W        W91033  12.715  12.574  11.523
19363W        W91034  27.760  44.018  11.469
19364W        W91035   1.612   9.506  12.778
19365W        W91036  20.971  28.248   3.828
19366W        W91037  33.671   4.722  12.584
19367W        W91038  34.321  14.208  13.337
19368W        W91039  28.083  16.855   3.881
19369W        W91040  32.040   0.448  10.991
19370W        W91041  33.604  41.566   4.411
19371W        W91042   9.028  36.490  11.978
19372W        W91043  30.087  22.735  14.348
19373W        W91044  26.955  24.275   3.140
19374W        W91045  40.532  31.986  11.114
19375W        W91046  32.311  22.189  10.644
19376W        W91047   1.619  35.545  13.162
19377W        W91048  35.369   1.899   4.608
19378W        W91049   9.122  20.992  13.911
19379W        W91050  34.382  22.233  12.374
19380W        W91051  34.526  29.047  10.844
19381W        W91052  35.368  18.199   2.805
19382W        W91053  26.386  21.463  13.009
19383W        W91054  34.010  35.285  11.280
19384W        W91055  31.375  42.319  14.862
19385W        W91056   2.320  36.614   4.592
19386W        W91057   8.292  44.384   3.222
19387W        W91058  33.934  42.386  13.418
19388W        W91059  10.359   0.976  14.514
19389W        W91060  34.803  39.510   3.240
19390W        W91061  22.061   0.939  13.871
19391W        W91062  36.792  10.419  11.244
19392W        W91063  41.052  30.589  12.963
19393W        W91064  22.787  20.939  14.434
19394W        W91065  24.165   4.222  13.902
19395W        W91066  23.591  28.129  11.977
19396W        W91067   5.350  22.751   1.849
19397W        W91068  21.309  21.572   3.633
19398W        W91069  26.544  12.341  11.985
19399W        W91070  40.299   9.082   4.597
19400W        W91071  10.853  32.982   0.311
19401W        W91072  32.351  37.119  13.334
19402W        W91073   6.282  33.080   0.022
19403W        W91074  38.829  12.087  13.857
19404W        W91075  21.510  30.588  11.571
19405W        W91076  28.542  35.883  12.463
19406W        W91077  16.647  28.223   0.451
19407W        W91078  10.498  30.256   0.682
19408W        W91079  27.243  14.289   2.305
19409W        W91080  33.033  23.469  12.520
19410W        W91081  35.669  20.641   3.914
19411W        W91082  28.554  32.643  13.109
19412W        W91083   0.176  20.854  10.875
19413W        W91084  36.450  17.252  14.988
19414W        W91085  40.246  21.574   2.251
19415W        W91086  42.025  41.423  10.009
19416W        W91087  36.675  21.188  13.149
19417W        W91088  42.338  19.568  12.143
19418W        W91089  39.725  19.538  12.499
19419W        W91090  14.724  41.873   2.349
19420W        W91091  19.987  34.378   1.469
19421W        W91092  19.352  16.886   1.915
19422W        W91093  13.818   9.237  14.492
19423W        W91094  23.578   5.902   2.931
19424W        W91095  43.512  35.532  14.528
19425W        W91096  17.579  14.819  13.910
19426W        W91097   5.153  20.293  11.171
19427W        W91098  31.127  20.640   2.327
19428W        W91099  39.474  34.968  14.885
19429W        W91100  44.937  35.130   2.379
19430W        W91101  15.375  40.297   4.069
19431W        W91102  25.161  10.033  13.474
19432W        W91103  26.999  16.767   0.869
19433W        W91104   4.500   8.743   1.735
19434W        W91105  10.418  24.522   0.410
19435W        W91106  23.680   4.722   2.777
19436W        W91107  18.755  15.710  14.185
19437W        W91108  22.457  10.202   3.650
19438W        W91109  10.839  12.313   1.412
19439W        W91110  31.209  44.831  13.109
19440W        W91111  20.788  26.644   4.157
19441W        W91112   0.281  43.785  12.813
19442W        W91113   6.669  22.809  14.270
19443W        W91114   8.699  22.718   1.839
19444W        W91115   7.668  31.128  10.518
19445W        W91116   8.863  28.420  13.567
19446W        W91117  32.320  10.943  13.837
19447W        W91118  26.659  27.040   2.949
19448W        W91119  22.596  14.743  13.067
19449W        W91120  36.705  34.361  12.058
19450W        W91121   5.327  10.907   1.012
19451W        W91122  33.565   1.814  10.680
19452W        W91123  27.046  33.031  14.544
19453W        W91124  21.034  25.324  11.231
19454W        W91125  30.372  14.183   2.151
19455W        W91126   8.777  39.794  14.574
19456W        W91127  42.084  39.271  11.492
19457W        W91128  36.588  31.231  13.356
19458W        W91129  38.272  31.334   3.109
19459W        W91130   4.389   3.767   1.235
19460W        W91131  40.008  10.882   3.302
19461W        W91132  16.162  37.420   2.759
19462W        W91133  39.511   2.832   1.365
19463W        W91134  33.214  29.952   0.894
19464W        W91135  40.316  35.956   3.259
19465W        W91136  35.615  19.175   4.484
19466W        W91137  29.854  14.299  14.801
19467W        W91138  44.460  12.250  14.860
19468W        W91139  40.722  14.697   1.798
19469W        W91140  27.196  34.477   4.068
19470W        W91141   4.541  26.406   4.537
19471W        W91142   7.447  33.385   2.287
19472W        W91143  17.577  17.792  13.174
19473W        W91144  41.924   0.252  11.767
19474W        W91145  13.267  32.378  12.573
19475W        W91146  44.003  42.802  14.988
19476W        W91147  20.041   2.972   3.795
19477W        W91148   2.980   2.820  11.082
19478W        W91149   6.038   3.687  13.327
19479W        W91150  40.887  24.905  13.052
19480W        W91151  43.866  31.643   0.307
19481W        W91152  37.553  40.063   2.387
19482W        W91153  13.191  12.414  11.314
19483W        W91154  12.330  37.927   4.644
19484W        W91155  20.863   4.021   3.186
19485W        W91156  15.875  36.095   4.345
19486W        W91157  26.458   7.826   3.914
19487W        W91158  30.409  15.861  11.639
19488W        W91159  13.885  20.035   1.968
19489W        W91160  12.647  27.495  12.523
19490W        W91161  32.119  26.842  13.649
19491W        W91162  43.351  18.298  13.569
19492W        W91163  43.920  24.316  11.511
19493W        W91164  15.646   4.902   2.411
19494W        W91165   7.686   0.938  12.940
19495W        W91166  35.280   4.821   1.288
19496W        W91167  33.059  29.982   4.915
19497W        W91168  12.596  30.118   3.331
19498W        W91169  16.605  25.737   4.289
19499W        W91170   5.746  30.628  13.360
19500W        W91171  12.425  12.504   4.118
19501W        W91172  30.966  30.416  13.318
19502W        W91173   6.225  44.638  13.741
19503W        W91174  42.085  34.669  12.060
19504W        W91175   4.136  15.311  11.274
19505W        W91176  40.044   7.457   4.371
19506W        W91177  31.489  36.074  11.023
19507W        W91178  39.563  12.719  13.294
19508W        W91179  44.895  36.532   2.312
19509W        W91180  21.108   6.518   2.494
19510W        W91181  26.361  32.826  10.223
19511W        W91182   3.256   3.794   4.515
19512W        W91183   5.632  41.547   3.649
19513W        W91184   5.943  28.576  13.384
19514W        W91185  32.381   2.302  12.822
19515W        W91186  11.747   5.218   0.822
19516W        W91187  32.449  16.421  13.567
19517W        W91188  31.401  23.233   0.331
19518W        W91189  10.857  35.115   2.307
19519W        W91190  35.651  27.943   2.616
19520W        W91191  30.589  18.331  13.569
19521W        W91192  36.299   1.388   1.698
19522W        W91193  11.753   4.917   2.926
19523W        W91194  10.943  42.865   3.113
19524W        W91195  25.080  37.866   3.696
19525W        W91196  15.246  19.977   3.828
19526W        W91197   9.051  17.673  12.882
19527W        W91198  27.681  40.764  13.890
19528W        W91199   7.064  23.209   0.526
19529W        W91200   1.247  12.226   1.893
19530W        W91201   5.375  40.882  13.833
19531W        W91202  31.398  34.053  14.432
19532W        W91203   4.585  32.952   2.621
19533W        W91204  14.799  35.564   3.151
19534W        W91205   1.950  41.907   2.032
19535W        W91206  12.966  26.155  12.101
19536W        W91207  38.760  43.025  10.883
19537W        W91208  24.002   9.625   2.848
19538W        W91209  31.852  18.052   1.747
19539W        W91210  43.312  33.742  11.947
19540W        W91211  12.701   9.098   4.234
19541W        W91212   7.711  37.929  12.071
19542W        W91213  10.938  25.628   3.328
19543W        W91214  37.893  42.354  13.935
19544W        W91215  29.338  18.153   2.399
19545W        W91216  22.791  28.099   4.116
19546W        W91217  25.610  27.948  12.418
19547W        W91218   9.281  19.576  13.114
19548W        W91219  18.584   5.360   4.543
19549W        W91220   7.246   0.482  11.181
19550W        W91221   8.327  33.455  11.770
19551W        W91222  28.526  23.054  14.931
19552W        W91223  40.252  44.096   1.826
19553W        W91224  10.607  37.500   3.378
19554W        W91225  36.364  28.977   0.948
19555W        W91226  15.312  36.985  13.863
19556W        W91227   0.809  30.868   1.911
19557W        W91228  17.797   3.676  11.217
19558W        W91229   1.260   9.418   4.337
19559W        W91230  11.395  18.813  13.392
19560W        W91231  41.447  24.269  13.974
19561W        W91232  41.597  19.081  11.222
19562W        W91233  12.423  30.398   0.906
19563W        W91234   6.464  23.342  14.692
19564W        W91235  43.655  38.708   1.713
19565W        W91236  25.269  23.087   1.413
19566W        W91237  18.518  33.479  13.580
19567W        W91238  43.291  13.825   1.807
19568W        W91239  16.567   6.099  13.237
19569W        W91240  28.900  19.708  13.560
19570W        W91241  34.021  11.485  13.873
19571W        W91242  33.093  12.763  11.393
19572W        W91243   8.449  20.213  14.396
19573W        W91244  42.734   3.392   3.676
19574W        W91245  33.642  15.604  10.655
19575W        W91246  29.995   5.013  10.635
19576W        W91247   5.611  18.096   4.150
19577W        W91248  36.219  39.972  10.542
19578W        W91249  38.368  22.688   1.091
19579W        W91250   0.430   0.975   3.108
19580W        W91251  38.119  12.663  14.329
19581W        W91252  11.683   3.684   1.840
19582W        W91253  13.721  43.922  11.743
19583W        W91254  41.889  15.108  12.562
19584W        W91255  31.419  12.953  12.917
19585W        W91256  31.918  39.563  12.867
19586W        W91257  39.220  42.735  11.695
19587W        W91258  31.667  35.461  11.272
19588W        W91259  33.855  32.054   1.291
19589W        W91260  13.809  42.640  13.179
19590W        W91261  27.548  19.119   1.021
19591W        W91262  30.134  44.811   1.341
19592W        W91263  39.573  41.004   0.309
19593W        W91264  44.179  24.293   4.574
19594W        W91265   5.796  40.338   3.824
19595W        W91266  12.135  33.116  11.928
19596W        W91267   6.629  25.870   1.717
19597W        W91268   0.890   9.702  14.926
19598W        W91269  15.793   1.862  13.491
19599W        W91270  26.015  43.828   1.177
19600W        W91271  16.367   4.613   2.932
19601W        W91272   8.580  36.742  12.072
19602W        W91273   0.343   9.256  12.582
19603W        W91274  34.585   6.452  11.583
19604W        W91275  15.716   9.534   2.408
19605W        W91276   0.892  30.204   2.567
19606W        W91277   9.276   7.257   4.744
19607W        W91278  22.600  29.429   2.295
19608W        W91279  38.120  31.928  13.448
19609W        W91280  27.758  25.151   3.425
19610W        W91281  33.566  13.904   0.007
19611W        W91282  11.166   5.923   2.757
19612W        W91283  32.937   9.795   1.953
19613W        W91284  39.561  40.416  12.066
19614W        W91285   9.246   0.720   2.816
19615W        W91286  21.323  15.535   3.251
19616W        W91287  23.960   9.834  14.509
19617W        W91288  37.753  16.982  11.445
19618W        W91289  18.311  37.420  12.379
19619W        W91290  23.129  16.065   2.994
19620W        W91291  29.114  24.681   4.837
19621W        W91292  34.933  32.039  12.568
19622W        W91293  17.780  24.153   0.783
19623W        W91294  24.745  44.445   1.212
19624W        W91295  10.675  29.946   2.718
19625W        W91296  30.274  12.899  13.813
19626W        W91297  16.720   4.549   1.635
19627W        W91298  15.244  25.283   2.250
19628W        W91299  12.571   1.820   3.226
19629W        W91300  19.845  37.607  13.763
19630W        W91301   6.764  10.374  11.607
19631W        W91302   8.362   8.578   2.573
19632W        W91303  28.041   6.795  12.078
19633W        W91304  38.543  11.245  13.993
19634W        W91305  25.401  31.189  12.110
19635W        W91306  22.761   5.223  14.211
19636W        W91307  29.565  44.510  12.612
19637W        W91308  30.669  26.203  10.952
19638W        W91309  30.401  34.497  10.361
19639W        W91310   8.953   7.376   2.367
19640W        W91311  44.062  18.265  11.089
19641W        W91312  28.157  23.002   3.755
19642W        W91313  31.118  43.352   0.683
19643W        W91314   8.300  25.658   2.673
19644W        W91315  29.943  35.317   4.156
19645W        W91316   8.424  20.711  14.499
19646W        W91317  40.828   2.387   3.891
19647W        W91318   7.135  20.670  11.577
19648W        W91319   5.178  19.205   0.076
19649W        W91320  39.992   1.400  13.121
19650W        W91321  31.428  15.778  10.418
19651W        W91322  19.672  40.051   0.194
19652W        W91323  32.667  15.346  14.318
19653W        W91324  11.358  26.730  10.591
19654W        W91325  35.428   6.246  12.856
19655W        W91326  38.900  43.952   1.323
19656W        W91327  32.067  25.495   1.075
19657W        W91328  14.526  15.229  11.420
19658W        W91329  35.849  36.566   5.002
19659W        W91330   1.638  21.728  12.840
19660W        W91331  37.738  21.851   1.953
19661W        W91332  32.030   7.685   4.645
19662W        W91333   7.382  44.440  14.806
19663W        W91334   0.921  39.464   0.856
19664W        W91335  27.055   2.272   1.390
19665W        W91336  20.578  33.177  14.893
19666W        W91337   5.281   9.712   1.862
19667W        W91338   3.459  10.274   3.194
19668W        W91339   2.954  30.652   2.303
19669W        W91340  44.814   1.368   3.617
19670W        W91341  22.643  30.608  13.297
19671W        W91342   8.015   6.935  11.676
19672W        W91343  42.444  11.166   2.923
19673W        W91344  40.055  16.275   4.653
19674W        W91345  27.282   8.733   4.172
19675W        W91346  25.474  33.053  14.361
19676W        W91347  42.838  43.222   3.750
19677W        W91348  29.974  28.552   0.041
19678W        W91349  40.765  42.559   4.275
19679W        W91350  20.269   8.302  11.111
19680W        W91351  16.556   1.461   3.184
19681W        W91352  33.858  21.228   4.126
19682W        W91353  34.335  16.837   4.025
19683W        W91354  35.470  10.773   2.289
19684W        W91355  43.051  41.524   5.136
19685W        W91356  30.079  42.298   1.918
19686W        W91357  20.290  38.910   2.514
19687W        W91358   5.492   2.404  13.149
19688W        W91359  33.629  40.033   2.817
19689W        W91360  44.157  32.991  11.605
19690W        W91361  26.093  19.584  14.033
19691W        W91362  39.771  20.640   4.679
19692W        W91363  34.440  30.048  10.715
19693W        W91364  12.552  29.904   0.817
19694W        W91365  33.007  26.579  13.870
19695W        W91366  14.225  11.899   3.374
19696W        W91367  15.379  30.462   1.459
19697W        W91368  23.033   7.388  10.529
19698W        W91369  10.672  26.518  10.576
19699W        W91370  37.453  34.561   3.999
19700W        W91371   0.048  28.508  11.888
19701W        W91372  27.963  13.780   4.842
19702W        W91373  39.086  17.145  14.939
19703W        W91374   8.419   8.609  14.772
19704W        W91375  32.422  33.543  11.133
19705W        W91376  36.226   2.768  12.291
19706W        W91377   9.647  17.739  12.569
19707W        W91378  40.810  27.127   0.753
19708W        W91379  38.316  38.692   2.860
19709W        W91380  37.879  23.551  13.417
19710W        W91381  27.385  14.279   0.824
19711W        W91382  29.494  18.990   0.838
19712W        W91383  39.116  12.581   3.398
19713W        W91384  43.833  14.633   5.220
19714W        W91385   3.349  44.064  12.109
19715W        W91386   2.625  35.892   3.291
19716W        W91387  34.146  10.802  11.492
19717W        W91388  41.868  28.562   4.673
19718W        W91389  22.231  26.997  13.336
19719W        W91390  15.641  24.535  12.614
19720W        W91391  12.613  21.629  14.377
19721W        W91392  29.442  16.326  12.072
19722W        W91393  30.431  37.799   0.763
19723W        W91394   6.728  11.835  11.512
19724W        W91395  26.271  37.907  13.028
19725W        W91396  33.435  20.517  12.962
19726W        W91397  43.435  37.384   3.421
19727W        W91398   7.695  37.683   4.883
19728W        W91399  33.409  33.120   0.602
19729W        W91400  19.753  28.032  12.869
19730W        W91401  24.433  29.560  11.174
19731W        W91402   8.331  37.203  11.922
19732W        W91403   2.657  33.426   4.164
19733W        W91404  35.157  31.937  11.172
19734W        W91405  14.576  10.376  12.150
19735W        W91406  39.242  13.114  13.444
19736W        W91407  13.063  41.425  13.912
19737W        W91408  22.141  41.240   3.458
19738W        W91409   8.096  13.539  11.367
19739W        W91410   1.834  32.731  12.090
19740W        W91411  42.805  15.259   3.668
19741W        W91412  44.980  40.408   1.484
19742W        W91413  20.181  15.568  10.372
19743W        W91414  11.566  40.358  13.051
19744W        W91415  16.033   6.709   0.848
19745W        W91416  42.972  24.693  12.180
19746W        W91417  23.784  24.011   0.805
19747W        W91418  20.733  27.793   3.012
19748W        W91419  19.505   3.489   3.186
19749W        W91420   8.661  35.957   4.097
19750W        W91421  12.748   3.518   2.799
19751W        W91422  39.441  26.834  12.420
19752W        W91423   0.197  42.967   1.913
19753W        W91424  25.789  21.766  14.914
19754W        W91425   6.193  33.635   0.842
19755W        W91426   9.692   1.529  14.818
19756W        W91427  25.574  29.714   3.107
19757W        W91428  24.411  13.686   3.373
19758W        W91429  31.469  29.200  12.982
19759W        W91430   3.004  38.811  13.334
19760W        W91431  25.685  40.019   2.157
19761W        W91432  29.159  25.982  14.709
19762W        W91433  16.934  36.008   3.269
19763W        W91434  21.332  13.248   0.785
19764W        W91435  25.667  11.899  12.009
19765W        W91436   9.262  44.121   4.244
19766W        W91437  19.074  41.509  13.916
19767W        W91438  16.199  21.721   0.238
19768W        W91439  29.937  10.895  10.982
19769W        W91440  22.281   1.693   0.367
19770W        W91441  29.653   3.796   4.656
19771W        W91442  21.551  34.062   4.574
19772W        W91443   2.392  23.770   3.085
19773W        W91444  31.136  44.104   0.419
19774W        W91445  27.934  15.178  11.131
19775W        W91446  37.354  14.165   3.253
19776W        W91447  14.848  13.768  14.777
19777W        W91448  42.917  32.485   2.354
19778W        W91449  19.877  18.704   1.781
19779W        W91450  23.964  16.520   4.677
19780W        W91451   8.807  42.576   1.819
19781W        W91452  42.334  32.333  12.138
19782W        W91453  20.967   8.927   2.813
19783W        W91454   1.880  21.693  11.078
19784W        W91455  23.752  31.405   3.698
19785W        W91456   5.979  20.786   0.381
19786W        W91457  19.656  42.376   3.233
19787W        W91458   5.935  21.744  12.984
19788W        W91459   4.007   9.420  13.505
19789W        W91460   4.103  31.975   1.786
19790W        W91461   1.835  22.783   5.053
19791W        W91462   6.092  10.832  11.107
19792W        W91463  11.666  33.655   1.419
19793W        W91464  33.712  17.273  13.821
19794W        W91465  26.939  33.955   0.007
19795W        W91466   5.138  11.167   3.744
19796W        W91467  20.784  24.014   5.154
19797W        W91468  35.928   0.836  11.519
19798W        W91469  34.539  37.792  11.420
19799W        W91470  23.262  22.792   0.449
19800W        W91471  25.946  20.661   1.013
19801W        W91472  30.130  26.138  11.621
19802W        W91473  38.508  36.764  12.218
19803W        W91474  44.882  42.260  14.414
19804W        W91475  33.884   0.935  11.652
19805W        W91476  24.461  19.665  12.480
19806W        W91477  29.538  20.779   0.275
19807W        W91478   4.090  28.563   2.155
19808W        W91479  25.291   0.404  11.577
19809W        W91480   4.147  36.463   0.196
19810W        W91481   0.685  13.756  11.952
19811W        W91482  16.579   5.569   2.747
19812W        W91483  34.161  27.145  14.355
19813W        W91484  25.176   9.928  11.210
19814W        W91485   1.487  12.124   3.950
19815W        W91486   4.263  14.216  13.761
19816W        W91487  25.036  35.626   1.026
19817W        W91488  38.852  37.381   0.638
19818W        W91489  29.497  12.189  11.441
19819W        W91490  17.140  12.586  12.976
19820W        W91491  44.850  36.355   1.279
19821W        W91492  34.902  17.326  10.744
19822W        W91493  25.624  34.184   4.110
19823W        W91494  40.014  30.757   2.250
19824W        W91495  23.273  27.623  11.460
19825W        W91496  30.949  35.576   4.762
19826W        W91497  32.402   1.211  11.491
19827W        W91498  15.984  35.312   2.848
19828W        W91499  43.955   2.197  12.498
19829W        W91500  32.142   3.516   0.974
19830W        W91501  13.564  41.056   1.288
19831W        W91502  30.568  37.871  14.244
19832W        W91503  40.955  42.553  13.047
19833W        W91504  14.237  39.599   3.502
19834W        W91505  25.531   6.344  14.993
19835W        W91506  25.994  23.230   0.766
19836W        W91507   6.155   2.966  10.693
19837W        W91508   4.344  40.664  12.057
19838W        W91509  19.633  43.963   0.927
19839W        W91510  17.343  16.266   0.818
19840W        W91511   7.472  14.206  14.518
19841W        W91512  42.806  19.197   0.775
19842W        W91513  14.758  14.902   2.335
19843W        W91514  26.109   4.948  10.653
19844W        W91515  10.059   6.623   3.287
19845W        W91516  24.421  28.685  12.349
19846W        W91517  38.015  21.304   1.780
19847W        W91518  26.013  28.741  11.951
19848W        W91519   7.619  23.011   2.706
19849W        W91520  42.777  41.376   0.807
19850W        W91521  35.597   6.293  11.546
19851W        W91522  12.394  34.563  12.145
19852W        W91523  12.524  43.836   1.809
19853W        W91524   3.347   6.284  14.325
19854W        W91525  38.023  12.750   2.067
19855W        W91526   1.293  32.587  14.772
19856W        W91527  31.121   0.766   3.295
19857W        W91528  21.916  10.841   3.114
19858W        W91529  16.084   6.859  14.350
19859W        W91530  24.508   9.932   1.695
19860W        W91531  17.566  39.616   3.097
19861W        W91532  28.993  24.461   3.366
19862W        W91533  25.710   3.662  13.257
19863W        W91534  32.133   4.315   2.601
19864W        W91535  37.293  29.088  14.930
19865W        W91536  30.772   7.125   1.699
19866W        W91537  34.358   4.008   0.645
19867W        W91538  27.422  33.660  13.049
19868W        W91539  10.522  27.910  11.907
19869W        W91540  37.089   4.976   1.794
19870W        W91541  38.991  39.156  10.925
19871W        W91542  11.933  15.502   1.754
19872W        W91543  34.955   3.078   0.338
19873W        W91544  38.020  17.703  13.066
19874W        W91545  38.874   5.196  11.404
19875W        W91546   9.211   7.935  13.222
19876W        W91547  40.047  27.653  13.824
19877W        W91548  33.542  15.592   4.723
19878W        W91549   3.527  34.678   0.222
19879W        W91550  21.652   1.289   1.319
19880W        W91551  40.339   6.184  11.544
19881W        W91552  10.721   3.080  10.718
19882W        W91553  39.048  18.800  13.479
19883W        W91554  17.631  12.536  12.877
19884W        W91555  38.615  13.671   0.612
19885W        W91556  33.626  31.817  13.495
19886W        W91557  13.802  17.886   2.261
19887W        W91558  43.554  15.245  11.848
19888W        W91559  32.673   5.250   0.173
19889W        W91560  33.148  18.577   0.023
19890W        W91561  39.614  44.542   0.013
19891W        W91562  38.962  25.544  13.014
19892W        W91563  35.875  19.076  10.590
19893W        W91564  40.817   9.409   2.347
19894W        W91565  27.682   2.970   3.826
19895W        W91566  38.038   2.397   3.025
19896W        W91567   1.887  26.373   2.197
19897W        W91568   3.334  40.022  13.391
19898W        W91569   3.286   7.912   3.259
19899W        W91570  11.870  19.595   1.898
19900W        W91571  24.374  19.188  14.026
19901W        W91572  34.596  39.906  13.436
19902W        W91573  36.001   7.449   0.041
19903W        W91574  13.706  34.615   0.792
19904W        W91575  31.503  13.828   4.236
19905W        W91576   2.685  43.902   2.695
19906W        W91577  26.178  17.307   1.787
19907W        W91578   5.939  19.926  14.832
19908W        W91579   1.206   1.022  12.497
19909W        W91580  41.305  38.556  11.166
19910W        W91581  44.933  27.651  13.406
19911W        W91582  22.064   3.915  14.819
19912W        W91583  16.650   1.742   0.939
19913W        W91584  33.942   5.198   3.151
19914W        W91585   7.788  35.944   2.930
19915W        W91586  10.172  37.473   0.158
19916W        W91587  20.698   6.423  12.675
19917W        W91588  13.175  44.968  11.372
19918W        W91589  22.309   4.905  11.022
19919W        W91590  17.233   5.220   5.101
19920W        W91591  13.230  12.299  11.808
19921W        W91592  10.899  37.024   5.123
19922W        W91593   5.287  12.383  11.501
19923W        W91594  29.095   0.879  14.850
19924W        W91595  11.903  26.011   1.370
19925W        W91596   7.679   8.675   4.123
19926W        W91597  26.638  28.865   2.863
19927W        W91598  26.081   9.505  10.312
19928W        W91599  13.051   2.790  10.579
19929W        W91600  26.230  22.149   3.338
19930W        W91601  15.247  14.177  14.718
19931W        W91602  29.995  15.517   4.889
19932W        W91603  13.355   4.660   2.266
19933W        W91604   4.412   8.180   2.728
19934W        W91605  43.870  40.915  13.572
19935W        W91606  27.922   0.505   1.465
19936W        W91607  29.921   8.307   2.334
19937W        W91608  11.226  43.470   4.515
19938W        W91609  29.163  26.797  12.990
19939W        W91610  44.229   7.875  13.760
19940W        W91611   4.948  41.873  11.668
19941W        W91612  33.909  33.976   0.936
19942W        W91613  13.278  39.268   4.561
19943W        W91614   0.242   9.834  10.901
19944W        W91615   0.871   3.252  14.477
19945W        W91616  42.975  34.000  10.635
19946W        W91617  33.866  34.926   1.835
19947W        W91618  11.472  36.697  14.454
19948W        W91619  15.177  12.648  10.810
19949W        W91620   8.685  12.725   4.678
19950W        W91621   6.680  41.031  13.475
19951W        W91622  15.735  35.353  14.798
19952W        W91623  23.575  39.918  13.274
19953W        W91624  18.296  43.766  11.183
19954W        W91625  41.307  44.037  14.984
19955W        W91626  30.387  27.854   3.690
19956W        W91627   3.696   0.809   4.093
19957W        W91628   2.908  13.663  11.107
19958W        W91629  27.590  24.537  12.917
19959W        W91630  16.765   2.230   2.170
19960W        W91631  20.056  18.956  13.391
19961W        W91632  31.826  44.630  14.389
19962W        W91633   5.957  14.503   1.277
19963W        W91634   2.983  42.180  10.994
19964W        W91635  43.335  34.045   3.910
19965W        W91636  17.143   0.442   1.251
19966W        W91637  39.996   2.048   0.409
19967W        W91638   1.455  38.555   0.315
19968W        W91639  13.124  29.096   1.787
19969W        W91640  40.601  24.733  11.902
19970W        W91641  30.524  41.296  14.318
19971W        W91642  38.831  31.792   2.883
19972W        W91643  38.098   2.950   0.261
19973W        W91644  34.852   1.513   0.412
19974W        W91645  37.454  16.768   1.477
19975W        W91646  19.143  40.287  12.905
19976W        W91647  11.204  23.508  14.277
19977W        W91648  34.929  36.566   2.764
19978W        W91649  16.650   8.339   0.326
19979W        W91650   8.140   0.384  11.207
19980W        W91651  14.802  39.899  14.997
19981W        W91652  33.277  32.231  10.653
19982W        W91653   2.183  22.247   0.630
19983W        W91654  34.948  30.377   2.221
19984W        W91655  23.479  27.913   1.786
19985W        W91656  19.033  33.535  13.451
19986W        W91657  29.894  28.395   1.962
19987W        W91658  42.111  21.966  14.897
19988W        W91659  19.846  27.276   2.018
19989W        W91660   8.880  32.006   1.865
19990W        W91661   5.462  25.983  11.495
19991W        W91662  44.184  11.299   1.684
19992W        W91663   8.254  18.340   4.739
19993W        W91664   2.436  39.883  11.142
19994W        W91665  31.021   1.616   0.195
19995W        W91666  42.460  44.464   0.447
19996W        W91667   1.038  44.759  14.400
19997W        W91668   0.496   1.010   4.019
19998W        W91669   1.479  44.496  13.941
19999W        W91670  15.322   8.111  10.591
20000W        W91671  31.497  29.506   4.866
20001W        W91672   9.263  13.055  12.545
20002W        W91673  13.933   8.296   4.803
20003W        W91674   1.269  22.289   4.555
20004W        W91675   3.771  12.655   0.243
20005W        W91676  13.410  33.069   4.164
20006W        W91677  28.963  34.894  10.696
20007W        W91678  19.817  39.451   3.091
20008W        W91679  32.476  44.939  11.457
20009W        W91680  23.535  26.239  14.465
20010W        W91681  13.249  36.983   1.348
20011W        W91682  42.931  11.167   1.208
20012W        W91683  18.882   2.692   4.157
20013W        W91684   9.938   6.897  13.765
20014W        W91685  38.561  12.089  12.661
20015W        W91686  12.179  30.154  10.669
20016W        W91687  43.881  31.718   3.710
20017W        W91688   2.442   6.269   3.233
20018W        W91689   9.759  19.763  13.001
20019W        W91690  43.774   4.730  12.430
20020W        W91691  41.508  18.354  11.602
20021W        W91692  29.856  33.185   2.234
20022W        W91693  43.967  35.359   4.577
20023W        W91694  35.480  39.864   3.618
20024W        W91695  19.574  16.815   9.812
20025W        W91696   5.324  13.728   4.089
20026W        W91697  33.852  35.152  12.123
20027W        W91698  18.121  24.535  14.476
20028W        W91699  16.101   7.063  10.604
20029W        W91700   5.680  34.646  14.915
20030W        W91701   5.313  37.591  14.512
20031W        W91702  33.629  18.597  12.057
20032W        W91703   3.415  32.530   1.715
20033W        W91704   3.717   6.277   4.229
20034W        W91705   8.619   2.951   2.549
20035W        W91706  40.289   5.814   2.697
20036W        W91707  27.968  32.488  11.506
20037W        W91708  21.025  41.818   1.717
20038W        W91709  13.657   4.092  11.499
20039W        W91710   5.717  36.890   1.920
20040W        W91711  39.994  32.142   2.300
20041W        W91712  31.044  39.462   1.360
20042W        W91713  22.001  11.342   2.347
20043W        W91714  41.054  40.039   2.223
20044W        W91715  32.370   1.490  13.503
20045W        W91716  11.155  30.853   0.407
20046W        W91717   0.545  13.064   0.455
20047W        W91718  25.605   6.980   4.906
20048W        W91719  38.560  28.533   1.411
20049W        W91720   9.160  27.679  12.635
20050W        W91721  16.892  16.838   3.387
20051W        W91722   8.461  29.593  13.464
20052W        W91723  42.254  16.290  13.549
20053W        W91724  24.162  13.063  13.478
20054W        W91725  20.760   8.403   0.678
20055W        W91726  35.478  36.752   1.371
20056W        W91727  21.155  27.595  11.135
20057W        W91728  33.139  33.539  10.945
20058W        W91729   7.611  43.837  11.469
20059W        W91730  15.299  20.981  11.457
20060W        W91731   1.422  38.989  11.107
20061W        W91732  41.587  28.073  13.811
20062W        W91733  11.614  30.249  13.836
20063W        W91734  20.757  44.972   2.816
20064W        W91735  35.692   7.925  11.928
20065W        W91736  36.752  34.897  11.943
20066W        W91737   6.705   9.754  12.630
20067W        W91738  44.843  20.876  13.275
20068W        W91739  10.196   6.813   0.661
20069W        W91740  26.509  42.081   3.811
20070W        W91741  30.961  22.966   0.230
20071W        W91742  25.574  31.971  13.422
20072W        W91743  13.539  43.894   0.438
20073W        W91744  44.237  29.985  13.458
20074W        W91745  36.023  35.292   4.702
20075W        W91746  30.980  25.093   2.641
20076W        W91747  34.011  19.222   2.565
20077W        W91748  33.361  34.391   3.063
20078W        W91749  17.396   6.781   2.468
20079W        W91750  15.767  26.051  14.285
20080W        W91751  15.618  26.065   0.836
20081W        W91752  19.774  37.069   4.731
20082W        W91753  10.459  35.974   2.304
20083W        W91754  38.560  27.155  12.094
20084W        W91755   2.395   0.025   2.719
20085W        W91756   8.881  13.315   1.277
20086W        W91757  29.987  37.936   3.656
20087W        W91758  42.816  27.081  13.399
20088W        W91759  38.758  13.179   3.941
20089W        W91760  40.894  33.579   0.914
20090W        W91761   6.762  13.200  11.372
20091W        W91762  14.423   4.865  10.682
20092W        W91763   3.684  44.190   3.506
20093W        W91764  17.713   7.433   1.809
20094W        W91765  29.198  13.888   1.896
20095W        W91766  35.065  22.499   4.701
20096W        W91767  39.890  28.879  13.921
20097W        W91768  24.579  40.763   0.584
20098W        W91769   5.576  41.300  11.339
20099W        W91770  36.598  36.974   0.236
20100W        W91771  40.930   7.683   3.189
20101W        W91772  42.035   6.174  11.257
20102W        W91773  13.332   4.901  11.693
20103W        W91774   2.214  27.442  13.746
20104W        W91775  36.022  18.199   4.622
20105W        W91776  41.023   8.652  14.280
20106W        W91777   3.781   2.793  14.419
20107W        W91778  38.213  27.742   1.463
20108W        W91779  23.437  41.704   3.598
20109W        W91780  22.714   1.917   4.690
20110W        W91781  44.228  26.451  11.186
20111W        W91782  34.488  14.172  12.309
20112W        W91783  35.027  10.240   3.340
20113W        W91784  12.948   6.916   1.226
20114W        W91785  23.253   8.494  12.033
20115W        W91786  12.565  22.043   0.379
20116W        W91787  36.360  19.986  10.538
20117W        W91788  33.292   6.241   3.539
20118W        W91789  22.566  36.405   1.358
20119W        W91790  21.320  17.093   1.214
20120W        W91791   5.159   0.253  13.957
20121W        W91792   4.640  34.040  13.001
20122W        W91793   6.898  14.762   2.602
20123W        W91794  39.838  25.049  13.455
20124W        W91795  15.539  42.016   1.792
20125W        W91796  40.531  17.699   1.338
20126W        W91797  13.853  41.962  14.883
20127W        W91798  17.307  19.775  13.957
20128W        W91799  18.764  19.762  11.646
20129W        W91800  18.158   4.020  11.165
20130W        W91801  33.347  43.033  13.543
20131W        W91802  13.854  25.027   2.322
20132W        W91803  16.594  21.568   1.373
20133W        W91804  33.672  18.872  12.491
20134W        W91805  23.033  22.197  11.472
20135W        W91806  11.803  28.570  13.569
20136W        W91807  42.415  15.572  12.912
20137W        W91808  10.827  30.573  14.317
20138W        W91809   7.411  32.013  14.993
20139W        W91810  17.747  37.893   2.673
20140W        W91811  14.224   8.909   1.822
20141W        W91812  22.047  23.441   2.700
20142W        W91813  13.074   2.332  11.113
20143W        W91814   4.723  22.081  14.908
20144W        W91815  13.786  28.864   1.200
20145W        W91816  40.810  23.766   0.385
20146W        W91817  16.270  24.995   2.272
20147W        W91818  40.076  36.940  14.876
20148W        W91819  17.219  16.025  14.463
20149W        W91820  10.730  24.566  11.873
20150W        W91821  23.572  38.843  11.343
20151W        W91822  23.783  22.267   4.361
20152W        W91823   4.740   2.387  11.973
20153W        W91824  42.024  39.997   1.885
20154W        W91825  33.454  44.907  14.991
20155W        W91826  22.678  41.287  13.306
20156W        W91827  29.906   8.000  12.069
20157W        W91828  11.850   0.263  14.306
20158W        W91829   7.684  25.025  12.627
20159W        W91830  17.054  18.654   1.909
20160W        W91831   0.447  41.255   4.109
20161W        W91832  28.015   0.287   2.367
20162W        W91833  16.505   8.631   0.725
20163W        W91834   2.730  14.342   1.320
20164W        W91835  23.944  32.473  11.511
20165W        W91836   5.862  24.511  14.432
20166W        W91837  25.745  42.072  11.594
20167W        W91838   4.720   9.300  14.746
20168W        W91839  12.758   6.719   2.854
20169W        W91840   9.013   5.713   2.692
20170W        W91841  32.998  25.441  12.863
20171W        W91842   3.157  13.007  13.870
20172W        W91843   0.464  19.943   0.951
20173W        W91844   4.189  16.735   4.176
20174W        W91845  28.914  23.935  13.583
20175W        W91846   5.254  42.425   4.638
20176W        W91847   3.292  40.137   3.979
20177W        W91848   2.238  30.799   0.894
20178W        W91849  14.128  17.511  14.683
20179W        W91850  12.856   2.941   4.569
20180W        W91851  15.209   2.921  10.982
20181W        W91852   9.105  15.889   1.433
20182W        W91853  29.451  17.577  12.545
20183W        W91854  13.320  32.585   0.560
20184W        W91855  19.507   4.370   1.741
20185W        W91856  24.239  24.044  14.708
20186W        W91857  27.183   3.886  12.480
20187W        W91858   2.043  11.267  10.760
20188W        W91859  41.911  10.918   3.857
20189W        W91860  16.034   7.718   9.893
20190W        W91861  27.149  35.513  11.126
20191W        W91862  40.489   3.437   0.839
20192W        W91863  36.000   2.333   4.664
20193W        W91864   7.355  12.651  14.983
20194W        W91865  25.432   2.346  11.117
20195W        W91866  39.437  21.546   3.409
20196W        W91867  43.994  21.684  14.358
20197W        W91868   0.243  24.793   2.138
20198W        W91869   2.950  42.765  13.449
20199W        W91870  22.236  34.975   4.679
20200W        W91871   1.201  35.800  14.156
20201W        W91872  41.226   7.930   4.988
20202W        W91873  12.952  23.177   1.456
20203W        W91874   0.695  14.214   4.954
20204W        W91875  36.139  29.870   0.190
20205W        W91876   9.429  14.136  11.608
20206W        W91877  29.555  18.246   1.423
20207W        W91878  18.166  17.679   1.028
20208W        W91879   7.183  44.933   1.198
20209W        W91880  25.687  32.133  11.204
20210W        W91881  18.982  23.902  10.126
20211W        W91882  43.317  43.016  12.904
20212W        W91883  41.408  12.394   2.463
20213W        W91884  13.233   7.542   0.679
20214W        W91885  22.446  19.771  13.469
20215W        W91886  34.400  12.617  13.019
20216W        W91887   3.739  23.026  11.455
20217W        W91888  16.367  14.684  10.498
20218W        W91889  30.490  39.096  12.873
20219W        W91890  16.175  31.738   3.332
20220W        W91891  28.145  23.548   3.713
20221W        W91892  13.220  35.139  11.221
20222W        W91893  43.536  17.341  10.323
20223W        W91894   1.394   6.671  11.494
20224W        W91895  14.773   2.232  14.367
20225W        W91896  27.015  25.810   3.735
20226W        W91897  36.817  25.933   1.773
20227W        W91898  20.133  26.381   2.240
20228W        W91899  22.600  30.912   2.342
20229W        W91900   8.297  22.054   0.783
20230W        W91901  17.642  20.522  12.376
20231W        W91902   1.299  29.748  13.418
20232W        W91903  27.965  23.208  11.117
20233W        W91904  31.978  21.499   4.114
20234W        W91905   9.297   4.740  14.998
20235W        W91906  36.257  16.827  11.325
20236W        W91907  20.721  39.305  14.808
20237W        W91908  42.307  22.888  11.300
20238W        W91909  36.091  26.655  11.911
20239W        W91910  27.080  26.927  12.362
20240W        W91911  38.894  27.513  14.441
20241W        W91912  11.376  30.975  13.581
20242W        W91913  35.837   4.638  14.987
20243W        W91914  37.274  25.146   0.865
20244W        W91915  18.785   3.335  12.007
20245W        W91916  21.042   5.433  13.554
20246W        W91917   5.321  34.372   3.224
20247W        W91918  37.579   4.464   3.276
20248W        W91919  26.249  23.212  14.416
20249W        W91920  24.064  34.504   3.760
20250W        W91921   9.839  14.800  13.438
20251W        W91922   3.251  40.983  10.718
20252W        W91923   6.840  28.566   4.339
20253W        W91924   2.118   2.577  12.242
20254W        W91925   2.833  35.572   3.705
20255W        W91926   2.251  25.689   4.151
20256W        W91927   5.026  42.509  12.638
20257W        W91928  40.883  25.355  14.448
20258W        W91929  27.467  14.249   3.205
20259W        W91930  38.413  29.075   0.671
20260W        W91931  11.200  40.733   1.748
20261W        W91932  16.983  17.246  12.554
20262W        W91933  38.916  32.591  13.425
20263W        W91934  44.274  40.556  14.821
20264W        W91935  12.649   0.339   0.949
20265W        W91936  32.306  40.555   0.734
20266W        W91937   3.197  43.792  12.533
20267W        W91938   9.389  27.640   3.305
20268W        W91939  39.660  35.436   4.155
20269W        W91940  16.677  40.272  14.487
20270W        W91941  13.352  31.880   4.587
20271W        W91942  23.899  28.544   1.111
20272W        W91943  34.155  36.124   0.833
20273W        W91944  19.501  16.698  11.914
20274W        W91945  35.617  34.510  10.613
20275W        W91946  38.592  43.894  11.457
20276W        W91947  12.034   2.436  11.021
20277W        W91948   7.587   1.549   1.891
20278W        W91949  26.195   9.390  13.802
20279W        W91950  22.674  40.038   1.175
20280W        W91951  21.251  31.901   4.280
20281W        W91952  12.128   1.332  12.537
20282W        W91953   0.327  36.936   0.295
20283W        W91954  42.322  15.569  11.450
20284W        W91955  25.218  14.106   3.775
20285W        W91956  11.848   6.720  14.289
20286W        W91957  37.293  22.533  12.986
20287W        W91958   9.518  41.665  14.233
20288W        W91959   4.401  13.805  11.600
20289W        W91960  25.072  29.907  11.641
20290W        W91961  38.887   9.667   3.266
20291W        W91962   1.016  15.861   1.843
20292W        W91963  10.234  23.631   9.630
20293W        W91964   7.199  12.822   3.261
20294W        W91965  13.798  21.223  13.063
20295W        W91966  30.717   9.845  12.067
20296W        W91967  43.913  38.481   1.316
20297W        W91968  41.987  26.353  10.813
20298W        W91969  33.625  14.241  10.513
20299W        W91970  34.093  15.668  14.991
20300W        W91971  33.718  12.371  14.006
20301W        W91972   2.711  22.290   3.229
20302W        W91973  27.527  32.089  10.684
20303W        W91974   9.810  20.226   3.770
20304W        W91975  18.765  37.775   2.377
20305W        W91976  33.423  17.006   0.917
20306W        W91977  28.547   1.270  14.921
20307W        W91978  16.278   1.558   1.577
20308W        W91979   0.261  23.535  11.959
20309W        W91980  42.743  10.393   0.868
20310W        W91981  19.864  34.005   0.274
20311W        W91982   6.316  29.216  14.841
20312W        W91983   9.597  39.539   4.246
20313W        W91984  21.123  18.489   4.282
20314W        W91985  19.448  33.111   2.311
20315W        W91986  22.167  24.470   2.769
20316W        W91987  23.084  23.696   2.700
20317W        W91988  27.139  24.715  13.927
20318W        W91989  35.098  32.566  12.505
20319W        W91990  20.518  13.794  13.957
20320W        W91991  42.625  34.479   0.558
20321W        W91992  12.857  25.546  14.707
20322W        W91993   7.176  24.466  12.990
20323W        W91994  38.848  38.821  13.974
20324W        W91995   9.341   1.863  10.348
20325W        W91996   1.584  11.358   2.308
20326W        W91997  40.804   5.838   2.783
20327W        W91998   2.954  12.712   0.794
20328W        W91999  43.433  23.966   0.496
20329W        W92000  24.408  27.512   2.897
20330W        W92001   0.017  22.082   1.394
20331W        W92002  28.185  37.673   5.176
20332W        W92003   4.709  38.328   4.554
20333W        W92004  20.138  39.085   0.925
20334W        W92005  38.387   1.362   2.313
20335W        W92006   6.410  39.184   3.490
20336W        W92007  10.293  30.535  13.786
20337W        W92008  37.297  16.100  13.902
20338W        W92009  11.205  35.596   0.816
20339W        W92010  22.757  35.983   1.110
20340W        W92011  38.125  20.193  11.161
20341W        W92012   6.237  34.444   0.059
20342W        W92013  35.858  30.877   4.601
20343W        W92014  16.780  14.681   3.087
20344W        W92015  13.692  43.719   3.590
20345W        W92016  31.828  22.498  11.364
20346W        W92017  18.696  24.197  14.378
20347W        W92018  37.194   6.222   5.112
20348W        W92019   5.680   2.418   0.923
20349W        W92020   3.697  38.038  12.049
20350W        W92021  21.272   4.740  11.109
20351W        W92022  26.201  19.353   3.577
20352W        W92023  23.214  25.956  13.438
20353W        W92024   4.798  18.945   0.340
20354W        W92025  30.831   6.152  10.343
20355W        W92026  40.924   2.780  11.783
20356W        W92027  10.682  42.851  12.046
20357W        W92028  43.897  20.534  14.784
20358W        W92029  14.058  28.943  11.874
20359W        W92030   8.504  16.607  10.672
20360W        W92031  29.413  30.085  12.960
20361W        W92032  23.679  25.300  12.644
20362W        W92033  44.243  31.813   2.337
20363W        W92034  10.623  42.107   4.164
20364W        W92035   9.804  30.917  10.731
20365W        W92036  13.960  23.216   2.716
20366W        W92037  10.148  22.294   0.453
20367W        W92038  41.776  44.422  14.422
20368W        W92039  40.899   9.419  12.574
20369W        W92040  11.145  29.919  11.585
20370W        W92041  13.071   2.338   4.590
20371W        W92042  40.308  16.940  13.284
20372W        W92043  43.618   5.962   1.526
20373W        W92044  12.783  27.229   2.004
20374W        W92045  31.786  36.708   4.434
20375W        W92046  27.995  42.929   2.917
20376W        W92047   6.369  12.737  10.116
20377W        W92048  30.570  10.702  10.661
20378W        W92049  25.165   4.814   4.994
20379W        W92050   4.065  26.451   4.749
20380W        W92051  35.055  26.712   4.599
20381W        W92052  44.118  23.193   2.582
20382W        W92053  11.492  15.299   2.357
20383W        W92054  29.242  30.139   2.685
20384W        W92055  34.426  39.054   3.731
20385W        W92056  13.296  21.444   3.118
20386W        W92057   6.784   7.124   3.082
20387W        W92058  22.332   8.094  11.121
20388W        W92059  36.305  26.612  12.502
20389W        W92060  33.376  15.101   0.998
20390W        W92061  15.345  28.611   4.134
20391W        W92062   0.477  10.889   0.469
20392W        W92063  18.238  23.997  14.518
20393W        W92064  11.584   1.056   1.231
20394W        W92065  27.924  20.682   1.380
20395W        W92066   0.297  38.149   3.196
20396W        W92067   1.107  34.378   5.200
20397W        W92068  29.752   7.501  12.082
20398W        W92069  19.932  14.246  12.386
20399W        W92070   2.785   6.746  14.781
20400W        W92071  20.911  27.042  10.503
20401W        W92072   4.855   7.179  13.008
20402W        W92073  18.493  12.032  13.759
20403W        W92074  38.967  33.591  11.193
20404W        W92075  27.568  35.969  13.492
20405W        W92076  19.006  26.636  14.444
20406W        W92077  36.975  15.093  12.482
20407W        W92078  21.034  30.420  13.454
20408W        W92079  10.690   5.515  12.013
20409W        W92080  21.530  12.047   1.392
20410W        W92081  19.652  13.589  14.051
20411W        W92082  17.967   7.211  11.915
20412W        W92083  19.779  23.777   1.919
20413W        W92084   9.171  33.159   4.768
20414W        W92085  19.722  35.598  14.822
20415W        W92086  38.847   6.859   3.051
20416W        W92087  30.855  20.632   0.221
20417W        W92088   7.218  22.215   1.410
20418W        W92089   0.831   2.230  11.137
20419W        W92090  33.502  30.318  12.630
20420W        W92091  38.441  15.078  14.934
20421W        W92092  23.449  10.414  13.866
20422W        W92093  12.362  24.687   0.481
20423W        W92094  29.428  43.285  12.350
20424W        W92095  36.103  41.687  14.084
20425W        W92096  27.298  27.890   1.821
20426W        W92097   1.323  40.533   1.321
20427W        W92098  20.247  11.448  10.706
20428W        W92099  37.948  39.052   5.128
20429W        W92100   1.613  34.572   4.918
20430W        W92101  34.374  39.504   3.518
20431W        W92102  28.742  40.744   4.659
20432W        W92103   7.841   5.193   4.339
20433W        W92104  30.580  21.189  13.583
20434W        W92105  29.955  24.057   3.995
20435W        W92106  15.407  14.623  14.492
20436W        W92107  20.959  19.596  13.380
20437W        W92108  20.202  20.230  14.377
20438W        W92109  15.513   6.789  12.249
20439W        W92110   8.811  36.373  12.422
20440W        W92111  44.628   3.764  10.708
20441W        W92112  39.519   7.383  12.550
20442W        W92113  17.849   3.419   2.738
20443W        W92114  25.037  21.192  14.342
20444W        W92115  16.244   0.512   2.273
20445W        W92116  15.365  40.988  13.836
20446W        W92117   0.468  22.219  12.491
20447W        W92118  38.935  18.683  13.976
20448W        W92119   1.245  20.205   2.766
20449W        W92120  23.923   9.422   0.846
20450W        W92121   1.882  13.843  11.963
20451W        W92122  10.860  34.007  14.290
20452W        W92123  26.213  22.163   3.846
20453W        W92124  25.261  10.425   2.274
20454W        W92125  10.129  31.909   4.710
20455W        W92126   9.403  18.135  10.670
20456W        W92127   9.254  40.889   3.116
20457W        W92128  17.614  38.466  14.958
20458W        W92129  15.375   6.833   4.682
20459W        W92130  11.946   2.640  12.475
20460W        W92131  21.129  35.588   0.781
20461W        W92132  19.233  18.414  12.873
20462W        W92133  35.553  31.455  10.530
20463W        W92134  35.876  39.645  13.931
20464W        W92135   6.221   3.953  11.612
20465W        W92136  18.458  18.075  11.735
20466W        W92137   0.213   0.979  12.466
20467W        W92138   3.543  15.118   0.919
20468W        W92139  17.180   4.705  12.121
20469W        W92140  42.377   3.196  13.950
20470W        W92141  37.461  22.557   2.834
20471W        W92142  12.070  35.974  14.943
20472W        W92143  21.577   6.768  14.433
20473W        W92144  38.589  42.454   3.701
20474W        W92145   5.898  43.726  11.972
20475W        W92146  44.062  19.295  11.080
20476W        W92147  28.756  43.408   1.252
20477W        W92148   9.307  31.984   0.839
20478W        W92149  26.705   3.380  11.652
20479W        W92150   0.139  36.224  11.141
20480W        W92151   7.146   4.402  12.027
20481W        W92152  26.439  27.509   2.880
20482W        W92153  23.660  38.601  13.933
20483W        W92154  29.104  36.506  11.865
20484W        W92155  24.888   4.696  13.512
20485W        W92156  36.139   7.411   2.826
20486W        W92157   0.382  28.556  14.952
20487W        W92158  35.358   7.660  12.545
20488W        W92159  37.933  23.177  12.046
20489W        W92160  17.149  23.314   3.703
20490W        W92161  24.790   6.198  14.333
20491W        W92162  29.321   2.015  13.312
20492W        W92163  34.382  19.767   4.357
20493W        W92164  27.452  31.501   1.967
20494W        W92165  34.156  35.364  11.787
20495W        W92166  19.822  10.202   4.156
20496W        W92167  13.120  44.959  13.311
20497W        W92168  40.316  28.374   2.652
20498W        W92169  11.642  44.085  11.536
20499W        W92170  36.567  19.899   4.315
20500W        W92171   6.426  34.842   1.810
20501W        W92172  29.370  20.018   4.801
20502W        W92173  19.827  36.444   0.517
20503W        W92174  10.669  32.717   1.422
20504W        W92175   3.379  13.029   2.660
20505W        W92176  16.334  28.718  12.557
20506W        W92177  42.819  19.281  13.934
20507W        W92178  30.922  26.013   2.680
20508W        W92179  15.771  30.535  13.811
20509W        W92180   3.163  12.026   2.479
20510W        W92181  24.974  27.046   4.449
20511W        W92182  31.109  42.102   0.255
20512W        W92183  37.831   1.521   0.347
20513W        W92184  35.842  28.604   3.732
20514W        W92185   2.258  16.133   4.351
20515W        W92186  17.035  25.577   3.349
20516W        W92187  19.598  27.343  11.665
20517W        W92188  25.079  36.513   4.451
20518W        W92189  32.117  18.457   2.416
20519W        W92190  40.964  22.970   1.672
20520W        W92191  12.629  37.916   0.749
20521W        W92192  42.260  44.403  12.534
20522W        W92193  24.101   8.520  12.008
20523W        W92194   6.451  36.006   1.791
20524W        W92195   3.276  34.188   4.288
20525W        W92196  30.960  44.413  11.435
20526W        W92197  43.430  23.878   3.239
20527W        W92198  18.793   2.173   4.102
20528W        W92199  10.671  10.978  10.653
20529W        W92200  27.412   6.211   9.779
20530W        W92201  31.409   7.318  11.677
20531W        W92202  40.810   2.462   4.727
20532W        W92203  43.032  40.117   0.029
20533W        W92204  40.257  31.848   0.872
20534W        W92205  26.700  16.512   2.335
20535W        W92206  43.687  16.773   4.680
20536W        W92207  12.738  27.048  13.462
20537W        W92208  30.697   7.237   3.742
20538W        W92209  12.712  11.883  12.929
20539W        W92210   3.080  18.605  13.431
20540W        W92211  32.404  22.607   0.532
20541W        W92212  16.750  28.249  12.459
20542W        W92213  18.516  14.583   9.761
20543W        W92214  37.889   6.708  13.340
20544W        W92215  32.648   5.551  14.773
20545W        W92216  39.476  20.051   2.313
20546W        W92217  19.545  27.574  13.903
20547W        W92218  20.737  15.327  14.964
20548W        W92219  38.959   3.420  10.738
20549W        W92220  13.458  41.438  10.740
20550W        W92221  26.133  33.903   2.639
20551W        W92222  41.385  28.317  11.269
20552W        W92223  32.847   8.257   4.274
20553W        W92224  33.550  43.226   2.060
20554W        W92225  16.199  26.717  11.542
20555W        W92226  24.777   1.999  14.423
20556W        W92227  29.407  35.506  10.718
20557W        W92228  26.476  28.628  14.135
20558W        W92229   8.205  21.726  13.997
20559W        W92230  12.233   1.216  11.531
20560W        W92231  22.366  31.571   0.802
20561W        W92232  11.737  43.728  13.862
20562W        W92233  44.348   3.646   3.280
20563W        W92234  15.600  38.733  11.261
20564W        W92235  30.021  35.474   4.647
20565W        W92236  43.264  43.647  10.460
20566W        W92237  41.587  18.825  13.321
20567W        W92238   0.447   3.523   4.985
20568W        W92239  35.568  43.637   3.665
20569W        W92240   2.763  25.391  13.018
20570W        W92241  33.875  37.649  11.059
20571W        W92242  20.362  11.610  10.143
20572W        W92243  27.643  21.507   0.276
20573W        W92244  29.113  28.940  14.818
20574W        W92245  19.696  24.183   0.489
20575W        W92246  39.677  29.638  11.697
20576W        W92247  17.646  21.751   3.466
20577W        W92248   7.820  26.076  12.468
20578W        W92249   9.411  38.003  10.849
20579W        W92250  12.957   2.358  12.046
20580W        W92251  40.776  19.992   4.508
20581W        W92252  26.158  28.909   2.279
20582W        W92253  38.377   0.153  11.710
20583W        W92254  28.913  41.067   0.055
20584W        W92255  22.484  29.595   4.220
20585W        W92256  12.126  37.484  12.444
20586W        W92257   9.631   1.942  13.055
20587W        W92258  35.141  44.229   2.511
20588W        W92259  40.119  20.598  11.528
20589W        W92260  33.022  17.994   1.678
20590W        W92261  42.023  11.401  12.495
20591W        W92262  20.861   7.177   3.291
20592W        W92263  19.970   2.390  14.308
20593W        W92264  25.381  15.726   2.904
20594W        W92265   4.447  34.363  11.501
20595W        W92266   9.814  38.235  11.127
20596W        W92267   2.017  22.409   9.740
20597W        W92268   9.043  12.054  12.372
20598W        W92269  15.294  42.474   1.784
20599W        W92270   4.302  31.172   1.234
20600W        W92271  37.597  31.656   1.228
20601W        W92272  19.257   4.216  10.590
20602W        W92273   4.224  39.280   4.563
20603W        W92274   4.285  12.358   1.016
20604W        W92275  37.836  18.368  13.779
20605W        W92276  37.521  44.299   4.578
20606W        W92277  16.249   2.786  12.633
20607W        W92278   1.309  27.892   0.367
20608W        W92279  43.546   9.444  10.623
20609W        W92280  42.603  25.778   5.008
20610W        W92281  41.442  43.047   3.667
20611W        W92282   1.506  31.842   2.415
20612W        W92283   2.824  43.527  10.721
20613W        W92284  15.364   6.865   0.097
20614W        W92285  22.607  12.800  12.032
20615W        W92286  21.143  33.655  12.882
20616W        W92287  41.389  25.159  12.113
20617W        W92288  16.209   4.781  10.026
20618W        W92289  28.012  28.675  13.421
20619W        W92290  17.310  19.587  14.446
20620W        W92291   4.144   4.859   2.678
20621W        W92292  37.258  30.110   4.107
20622W        W92293   7.720  14.146  12.718
20623W        W92294   3.519  25.495   1.890
20624W        W92295  28.632  19.299   2.663
20625W        W92296  20.561  24.865  14.506
20626W        W92297  29.660  25.143   0.335
20627W        W92298  22.328   4.361  13.514
20628W        W92299  41.773  12.464   0.766
20629W        W92300   7.869  19.331  11.124
20630W        W92301   0.533   3.801  11.897
20631W        W92302  31.394  21.989   0.927
20632W        W92303   1.200  19.789  14.985
20633W        W92304  11.213  23.958   1.789
20634W        W92305   7.218  26.122   0.481
20635W        W92306  22.052   5.131   1.467
20636W        W92307  35.458   0.763  11.297
20637W        W92308   6.945  20.104  10.713
20638W        W92309   2.537  32.266  12.953
20639W        W92310   4.247   0.517   1.503
20640W        W92311  14.165  31.268  11.156
20641W        W92312  41.588  32.444   1.314
20642W        W92313   9.487   2.393  10.518
20643W        W92314  36.804   5.332   4.615
20644W        W92315  40.491  17.802   4.329
20645W        W92316   3.206   3.911   2.250
20646W        W92317  18.557  29.185  13.579
20647W        W92318  25.766   1.613  10.716
20648W        W92319  37.545   5.456   4.208
20649W        W92320  31.417  19.499   2.242
20650W        W92321  12.729  29.907   0.039
20651W        W92322  33.946  11.974  13.745
20652W        W92323  27.463  10.083   3.178
20653W        W92324  17.215  17.236   1.218
20654W        W92325   9.917  17.457   1.613
20655W        W92326  40.716  40.914   5.051
20656W        W92327  39.054  14.478   2.868
20657W        W92328   3.243  12.287  14.462
20658W        W92329   5.711  17.070   1.389
20659W        W92330   4.732   5.642  13.901
20660W        W92331   5.666  12.827   3.184
20661W        W92332  11.390   3.361   0.961
20662W        W92333   4.242  34.819  13.543
20663W        W92334  30.748  14.330  12.912
20664W        W92335   5.801   5.935   0.387
20665W        W92336  33.925   3.451   1.982
20666W        W92337  24.702   5.882  14.726
20667W        W92338  42.350  37.643  11.374
20668W        W92339  26.158  34.382  12.370
20669W        W92340  13.589  33.972  13.479
20670W        W92341  42.088   4.922  12.535
20671W        W92342  40.302  28.111  13.787
20672W        W92343  39.939  11.148   1.644
20673W        W92344  13.688  20.533  12.105
20674W        W92345  29.526  23.103   1.129
20675W        W92346   5.015  20.053  14.055
20676W        W92347  24.568  27.118  14.050
20677W        W92348   5.910   1.250   4.636
20678W        W92349  10.811  29.866   0.458
20679W        W92350   8.208  26.462   2.153
20680W        W92351  18.522  37.275  14.435
20681W        W92352   0.229   8.893   0.848
20682W        W92353   7.451  27.542   3.616
20683W        W92354  44.968  31.904   3.374
20684W        W92355   3.274  41.280  11.130
20685W        W92356  13.331  33.264  12.254
20686W        W92357   2.976  23.667   3.748
20687W        W92358  15.147  41.641   4.346
20688W        W92359  28.174  16.673  12.247
20689W        W92360   1.809   8.770  12.482
20690W        W92361  25.985  30.229   2.330
20691W        W92362  19.680  11.833   1.662
20692W        W92363   0.491  39.236  11.980
20693W        W92364  38.604   8.804  14.670
20694W        W92365  35.579   8.482   3.478
20695W        W92366  11.713  16.254  11.095
20696W        W92367  32.914  24.107  10.851
20697W        W92368  15.922  21.088  14.304
20698W        W92369  37.338  13.117  13.428
20699W        W92370  30.831   3.730  14.499
20700W        W92371  39.853   6.434  11.113
20701W        W92372  17.561  42.566  12.443
20702W        W92373   7.834   9.070   0.232
20703W        W92374   8.815  37.857  14.876
20704W        W92375  44.328   7.471  11.627
20705W        W92376  42.406  14.221  14.965
20706W        W92377  33.443  23.454  14.487
20707W        W92378  32.059  34.959   0.252
20708W        W92379  44.554  35.679  12.321
20709W        W92380  37.239  13.423   0.940
20710W        W92381   2.360  25.779  12.963
20711W        W92382  35.810  13.670   0.780
20712W        W92383  28.979  11.137  14.831
20713W        W92384  24.787   3.347  13.839
20714W        W92385   8.890   1.762   3.683
20715W        W92386  17.854  44.349   0.679
20716W        W92387   4.503  19.365   2.698
20717W        W92388   9.642  15.593  12.857
20718W        W92389  44.029  15.901   1.379
20719W        W92390  32.483   2.488   0.851
20720W        W92391  33.562  34.565  10.583
20721W        W92392  11.941  42.312  14.348
20722W        W92393  35.593  35.896  10.576
20723W        W92394   2.004  14.622  14.999
20724W        W92395   2.524  44.948  13.375
20725W        W92396  26.029  16.317  12.023
20726W        W92397  31.896  13.894  11.622
20727W        W92398  34.824   3.861   4.055
20728W        W92399  37.915  18.763   3.627
20729W        W92400   7.726  21.059   4.670
20730W        W92401  21.648  38.007  14.435
20731W        W92402  43.610  30.204  12.614
20732W        W92403  40.552  28.696   4.156
20733W        W92404  14.671  43.975  11.210
20734W        W92405  40.437  22.978   4.625
20735W        W92406  29.210  24.670   1.226
20736W        W92407  16.901  37.747  14.331
20737W        W92408   8.505  41.377  14.920
20738W        W92409  39.438  11.597  11.749
20739W        W92410   4.900  27.941   3.715
20740W        W92411  34.127  36.808  14.454
20741W        W92412  29.092  39.666  12.373
20742W        W92413  25.998  33.948   3.135
20743W        W92414   1.365  19.703   4.596
20744W        W92415  22.003  30.873   1.804
20745W        W92416  37.323  38.505  13.519
20746W        W92417  20.639  42.188   2.241
20747W        W92418  12.283  36.578   2.300
20748W        W92419  16.593  23.412   3.651
20749W        W92420   8.304  33.600  13.947
20750W        W92421   5.289  29.185  13.789
20751W        W92422  27.627  26.301   5.076
20752W        W92423  31.678   1.748   3.123
20753W        W92424  16.171  17.785   1.404
20754W        W92425  25.671  29.461  13.305
20755W        W92426  34.113  28.947   3.957
20756W        W92427  42.882  35.591  13.216
20757W        W92428  22.028  29.725  11.174
20758W        W92429  37.395   9.049   0.386
20759W        W92430  17.075   7.268   0.235
20760W        W92431  10.403  19.270   0.864
20761W        W92432  25.597  44.363  12.139
20762W        W92433  21.512  16.018  12.416
20763W        W92434   9.362  38.200   4.590
20764W        W92435   1.824  18.076  13.971
20765W        W92436  21.312  34.161   3.153
20766W        W92437  30.982  33.910   0.371
20767W        W92438  13.872  19.110  10.810
20768W        W92439  43.896  14.572   1.910
20769W        W92440   1.044  23.135   2.349
20770W        W92441   2.331  28.535  14.887
20771W        W92442   6.626   8.975   2.429
20772W        W92443  12.354   6.001  12.645
20773W        W92444  39.801  27.207  14.743
20774W        W92445   1.938   9.256   1.095
20775W        W92446   1.127   2.738   3.159
20776W        W92447  21.773  43.785  12.454
20777W        W92448   3.919  18.828  11.419
20778W        W92449  19.909  22.986   5.501
20779W        W92450  11.643  24.252  10.685
20780W        W92451  22.152   2.280  13.591
20781W        W92452  41.265  24.865  11.669
20782W        W92453   8.167  26.970  10.805
20783W        W92454  23.318  34.506   1.291
20784W        W92455  40.200  23.193   3.111
20785W        W92456  17.810  42.375  10.719
20786W        W92457  16.769  44.332  14.785
20787W        W92458  14.762  11.861  14.783
20788W        W92459   0.713  15.166   0.784
20789W        W92460   8.594  27.044   3.243
20790W        W92461   9.108  10.225   0.248
20791W        W92462   2.853   6.900   0.278
20792W        W92463   8.731   1.552   0.872
20793W        W92464  17.385  36.402   1.841
20794W        W92465   2.832  13.616   1.812
20795W        W92466  38.467  19.718  13.410
20796W        W92467  28.600   5.905   2.679
20797W        W92468  38.093   3.323  11.668
20798W        W92469  29.934  40.146   2.215
20799W        W92470  18.473   2.405  11.483
20800W        W92471  29.754  37.456   3.052
20801W        W92472   3.654  30.518  10.741
20802W        W92473  21.460  25.519  10.577
20803W        W92474   8.581  39.232   2.688
20804W        W92475  19.807  12.817  12.946
20805W        W92476  16.517  23.542  12.920
20806W        W92477  31.101  27.409   4.225
20807W        W92478   6.852   4.416  12.908
20808W        W92479  20.571  18.905  10.750
20809W        W92480   6.443  12.406   1.177
20810W        W92481  28.373  25.952   1.877
20811W        W92482  27.118  32.504  14.435
20812W        W92483  36.038  42.683  13.919
20813W        W92484  20.274  33.141   0.847
20814W        W92485  30.662  12.727   2.682
20815W        W92486  17.336  15.184  12.595
20816W        W92487  28.658  25.185   3.371
20817W        W92488  29.434  37.536  11.956
20818W        W92489   6.834  20.249   1.246
20819W        W92490  12.238  44.915  12.277
20820W        W92491  36.569  43.817   2.933
20821W        W92492  12.174  31.010   1.525
20822W        W92493  12.885  11.642  12.498
20823W        W92494  31.075  10.412   3.884
20824W        W92495  31.423   4.411   1.988
20825W        W92496  37.107  22.736  14.364
20826W        W92497  22.682   0.780  13.440
20827W        W92498  36.402  13.135  11.346
20828W        W92499  22.146   2.211   3.135
20829W        W92500  33.485  10.422  14.240
20830W        W92501  42.041  33.650   3.260
20831W        W92502   5.373  15.615   3.879
20832W        W92503   8.475   1.357  11.216
20833W        W92504   3.447   7.603   0.187
20834W        W92505  42.978  32.641  11.073
20835W        W92506  41.594   8.402   3.278
20836W        W92507   8.143  41.808   2.007
20837W        W92508   1.942  32.951   0.294
20838W        W92509  33.468   7.241   4.701
20839W        W92510  33.040  28.541  12.167
20840W        W92511  28.750  12.988  13.021
20841W        W92512  18.062  24.895   3.632
20842W        W92513  25.118   6.722   3.959
20843W        W92514   5.100  21.313   1.715
20844W        W92515   4.368  42.999  13.698
20845W        W92516  14.831  38.355  12.028
20846W        W92517  40.195   3.902   2.103
20847W        W92518  14.233  27.754  14.790
20848W        W92519   1.286  10.387  14.638
20849W        W92520  40.576   7.287  11.669
20850W        W92521   5.300   7.172  13.567
20851W        W92522  25.621  38.611  13.813
20852W        W92523  26.926   6.881   4.311
20853W        W92524  34.440  20.868  11.356
20854W        W92525  44.883  43.177   3.668
20855W        W92526  18.132  11.818   4.551
20856W        W92527  19.114  27.976   0.109
20857W        W92528  31.525  42.048   0.866
20858W        W92529  28.676  22.524   2.745
20859W        W92530   9.030   1.289  11.155
20860W        W92531   2.172   3.510   3.273
20861W        W92532  43.584  28.678   1.843
20862W        W92533  24.594   5.399  14.585
20863W        W92534  24.915  42.563  11.611
20864W        W92535  27.652  34.945   0.349
20865W        W92536  13.938  44.022   2.260
20866W        W92537  36.526  22.527   1.665
20867W        W92538   6.615   8.212  11.248
20868W        W92539  25.193   5.162   3.419
20869W        W92540  18.713  15.219   1.189
20870W        W92541  31.005  23.221  11.948
20871W        W92542  26.170  44.782   1.208
20872W        W92543  44.995   7.156   4.219
20873W        W92544  11.224  42.833   1.627
20874W        W92545  33.480  24.143   2.667
20875W        W92546  40.770  44.962  11.369
20876W        W92547   1.417  32.173   4.471
20877W        W92548  25.430   4.461   0.458
20878W        W92549   6.589  41.736   3.632
20879W        W92550  40.582  15.533  12.495
20880W        W92551  13.414  32.810  11.956
20881W        W92552  31.526  34.987   0.031
20882W        W92553  30.895  11.753   3.582
20883W        W92554   2.328  32.711   1.779
20884W        W92555   0.536  11.681   4.430
20885W        W92556   1.713  27.181   3.722
20886W        W92557   0.396  29.420  14.432
20887W        W92558  43.376  30.368   1.173
20888W        W92559  25.159   8.444   3.251
20889W        W92560  19.215  38.393  14.280
20890W        W92561  41.031   5.643  12.103
20891W        W92562  32.045  29.464  11.855
20892W        W92563  44.248   9.749   2.673
20893W        W92564  16.165  14.751   4.519
20894W        W92565  34.680  31.070  12.414
20895W        W92566   8.500   0.999   4.105
20896W        W92567   0.162  27.220  13.043
20897W        W92568  38.893  23.040  14.554
20898W        W92569  44.514  39.585   5.747
20899W        W92570  26.457  16.817  13.138
20900W        W92571  40.396   1.345  12.033
20901W        W92572  15.625   3.437   4.191
20902W        W92573  15.147  16.604  14.838
20903W        W92574  24.997   7.948  12.931
20904W        W92575  13.688   1.026  14.004
20905W        W92576   4.957  42.319   0.815
20906W        W92577  25.430  17.098   3.251
20907W        W92578  40.920  11.628  13.610
20908W        W92579  41.314  17.535  11.586
20909W        W92580   6.792  28.177   3.990
20910W        W92581  38.817  13.266  13.129
20911W        W92582   4.508  38.751   3.191
20912W        W92583  36.407  24.182  13.254
20913W        W92584  19.836  16.250   4.729
20914W        W92585  35.586  28.712   4.178
20915W        W92586  36.139   3.251  10.746
20916W        W92587   1.346  43.976   1.211
20917W        W92588  10.085  17.361  10.886
20918W        W92589   0.334  10.988  11.978
20919W        W92590  32.533   6.358  14.433
20920W        W92591  41.476   1.377   0.762
20921W        W92592   8.615  41.994   2.206
20922W        W92593   8.225  18.813   3.984
20923W        W92594   8.257  16.131  14.368
20924W        W92595  25.039  12.851  11.645
20925W        W92596   3.649  20.163  14.547
20926W        W92597  32.244   5.856  14.742
20927W        W92598  11.132  32.962   1.771
20928W        W92599  36.575   9.737   2.858
20929W        W92600  30.068  26.704  14.040
20930W        W92601  31.164  44.233   4.159
20931W        W92602  22.257  40.801  11.537
20932W        W92603  24.115  39.960   0.315
20933W        W92604  39.783  36.574   0.729
20934W        W92605  23.751   3.731   0.513
20935W        W92606   9.269  11.611   0.064
20936W        W92607  31.857  42.458   2.437
20937W        W92608  29.607  36.581   2.203
20938W        W92609   0.468  11.685  13.869
20939W        W92610  28.943  24.583  10.761
20940W        W92611   1.328  42.815  10.678
20941W        W92612  13.837   0.178   0.774
20942W        W92613  30.064   4.936  13.038
20943W        W92614  17.529   7.222   0.465
20944W        W92615  11.219   1.007  13.470
20945W        W92616   9.276   7.201  11.226
20946W        W92617  41.726  34.591   3.257
20947W        W92618  23.187  32.959   4.144
20948W        W92619  16.817  14.224  12.069
20949W        W92620  25.263  29.481   1.326
20950W        W92621  30.471  22.544  12.075
20951W        W92622  26.476   6.684   4.513
20952W        W92623  24.954  11.754   4.995
20953W        W92624   5.912   7.241   3.083
20954W        W92625  28.104  18.268  13.446
20955W        W92626  19.101  39.350  12.580
20956W        W92627  22.295  29.930  11.684
20957W        W92628  31.398   1.349  10.459
20958W        W92629  36.972   4.732  13.622
20959W        W92630  18.867  26.953   1.651
20960W        W92631  37.487  39.291   5.136
20961W        W92632  31.798  25.540  11.563
20962W        W92633  16.637  10.336   0.238
20963W        W92634  19.093  23.069   3.325
20964W        W92635  26.658  34.796   2.822
20965W        W92636  43.328  44.249  10.416
20966W        W92637  12.368   3.869   4.597
20967W        W92638  37.468  19.117   1.931
20968W        W92639  19.056  32.904   0.140
20969W        W92640   9.936  21.110  12.581
20970W        W92641  32.969  36.756   1.470
20971W        W92642   0.555  39.714  13.995
20972W        W92643   7.757  10.350  13.305
20973W        W92644  41.945   3.267   4.073
20974W        W92645  18.783  22.584  12.506
20975W        W92646   3.935  14.281  14.404
20976W        W92647  21.760   2.595   2.380
20977W        W92648  32.373  10.901  11.180
20978W        W92649  12.355  28.201  12.120
20979W        W92650   1.232  41.301  13.344
20980W        W92651  10.192   2.257   3.560
20981W        W92652  16.928   0.682  13.227
20982W        W92653  30.923  17.646   2.309
20983W        W92654  13.982  34.405  14.340
20984W        W92655  36.471  43.507  13.892
20985W        W92656  20.045   1.401   2.340
20986W        W92657  24.758  33.789  12.138
20987W        W92658  34.101   0.719   2.785
20988W        W92659  37.880  19.750   4.573
20989W        W92660  10.303  23.609  13.768
20990W        W92661  41.752   8.643   0.720
20991W        W92662  38.411  24.629   4.509
20992W        W92663  19.022  41.829   2.246
20993W        W92664  29.424  36.306  12.578
20994W        W92665  23.258  23.231  11.505
20995W        W92666   0.531  20.956  14.920
20996W        W92667   6.875   9.710  13.128
20997W        W92668  17.652   2.275   3.203
20998W        W92669  28.038  24.678   4.984
20999W        W92670   6.196  16.289  11.199
21000W        W92671  38.642  24.559   4.033
21001W        W92672   7.638  42.047  11.155
21002W        W92673  19.714  42.266  11.184
21003W        W92674   9.237  11.155  11.437
21004W        W92675  43.692  17.144  14.440
21005W        W92676  16.189  32.031  14.515
21006W        W92677  18.554   8.421   0.855
21007W        W92678   7.287  23.615   0.741
21008W        W92679   6.207  12.302  10.671
21009W        W92680   9.772   6.122   4.174
21010W        W92681  42.284  35.316  13.853
21011W        W92682   3.854   5.212  10.711
21012W        W92683   8.463  10.573  11.165
21013W        W92684  21.609  24.678  13.304
21014W        W92685   7.883  15.231   4.322
21015W        W92686  14.246  32.399   4.094
21016W        W92687   2.023  18.149  11.160
21017W        W92688  20.077   9.121  11.990
21018W        W92689  41.456  11.125   1.024
21019W        W92690  32.375  41.147  11.983
21020W        W92691  19.136   5.735   0.872
21021W        W92692  21.246  10.073  11.673
21022W        W92693  22.015  31.118   3.759
21023W        W92694  35.604  10.694  13.462
21024W        W92695   3.675  27.256  10.569
21025W        W92696  38.058   8.717   1.854
21026W        W92697  16.774  35.790  13.321
21027W        W92698  14.587  14.137   0.956
21028W        W92699  25.712  20.368   2.970
21029W        W92700  28.025  27.489   1.255
21030W        W92701   0.553   2.392  12.627
21031W        W92702  21.221   1.477   3.264
21032W        W92703   3.741   3.366  13.052
21033W        W92704   4.695  41.577  12.356
21034W        W92705  43.341   0.542   1.575
21035W        W92706   2.226  35.591  13.996
21036W        W92707  29.159  36.399   0.758
21037W        W92708  17.882   2.459   2.758
21038W        W92709  13.255  26.922  14.935
21039W        W92710  20.419  40.683  12.453
21040W        W92711  16.786  37.929   3.042
21041W        W92712  29.413  33.593  12.658
21042W        W92713  32.451  18.097   1.695
21043W        W92714  38.129  25.871  12.034
21044W        W92715   3.467   9.713  14.004
21045W        W92716  42.719   9.392   4.336
21046W        W92717   7.367  11.121  11.516
21047W        W92718  21.662   7.659   3.735
21048W        W92719  21.500  16.718   1.817
21049W        W92720  26.212  39.129   1.800
21050W        W92721  18.072  20.717   2.706
21051W        W92722  38.557  38.909   0.774
21052W        W92723  18.600  30.564   1.807
21053W        W92724  12.622  36.967  14.880
21054W        W92725  43.430   8.903   4.246
21055W        W92726  21.533   4.145   5.011
21056W        W92727  29.908  34.501  11.656
21057W        W92728  41.265  19.612  14.734
21058W        W92729   2.341   2.197   0.055
21059W        W92730  43.395  36.319   2.713
21060W        W92731  27.985  19.569   0.741
21061W        W92732   1.435   8.201  10.772
21062W        W92733  37.058  20.181  12.520
21063W        W92734  11.788  30.007  13.413
21064W        W92735  10.705  10.609  11.923
21065W        W92736  42.287  40.399  13.345
21066W        W92737  20.339  44.814  13.961
21067W        W92738   2.831  41.487   2.156
21068W        W92739  17.554  11.138   1.370
21069W        W92740  19.788  29.625   4.142
21070W        W92741  27.144  15.026  12.443
21071W        W92742  25.071  10.602  11.582
21072W        W92743  34.011   0.918  13.574
21073W        W92744   7.420  17.769   4.670
21074W        W92745   7.788  33.900   0.982
21075W        W92746  30.843  43.912  12.849
21076W        W92747   7.435   5.743  14.290
21077W        W92748   7.869  19.654   3.565
21078W        W92749  22.914   1.840   2.307
21079W        W92750  37.888  35.508   3.065
21080W        W92751  21.524  31.637  12.397
21081W        W92752  33.867   8.614  12.854
21082W        W92753  42.144  11.115  12.074
21083W        W92754   6.847  44.923  10.408
21084W        W92755   0.161  11.256   3.712
21085W        W92756   2.663   5.265  13.501
21086W        W92757  23.137  40.949   1.286
21087W        W92758   8.173  17.252   3.661
21088W        W92759   5.774  10.492  13.376
21089W        W92760   7.102  22.765  12.894
21090W        W92761  26.010  26.120   4.069
21091W        W92762   8.852  20.196  11.955
21092W        W92763  37.583  27.006   3.397
21093W        W92764   8.333  34.545  12.947
21094W        W92765  20.523  17.527   2.156
21095W        W92766  10.660  14.602   4.293
21096W        W92767   5.268  10.610   1.986
21097W        W92768  29.770  23.125  13.062
21098W        W92769  11.415  17.051   4.037
21099W        W92770  39.085  20.580  10.657
21100W        W92771  23.517  29.394  14.257
21101W        W92772  41.884  30.657  11.556
21102W        W92773  36.455  24.125  11.035
21103W        W92774  30.520  38.347   4.196
21104W        W92775  30.522   3.700   1.330
21105W        W92776  18.499  32.040  14.869
21106W        W92777  22.729  21.815   0.028
21107W        W92778  29.412  18.996   4.098
21108W        W92779  40.759   4.189  13.522
21109W        W92780  24.178  19.106   4.311
21110W        W92781  28.947   5.874   3.307
21111W        W92782  10.311   1.713  12.575
21112W        W92783  42.315  28.516   2.269
21113W        W92784   7.643   9.421   4.538
21114W        W92785   5.709  33.918  13.030
21115W        W92786  41.119  17.768  14.300
21116W        W92787  23.139  11.925   4.594
21117W        W92788   7.136  20.555   4.344
21118W        W92789  22.109  32.974   4.113
21119W        W92790  29.353   8.755  11.861
21120W        W92791  37.824  39.976   0.470
21121W        W92792  24.154  43.264   2.998
21122W        W92793  20.713  27.062  10.013
21123W        W92794  42.417  43.792   2.424
21124W        W92795   7.201  26.457  10.573
21125W        W92796  11.057  20.613  13.770
21126W        W92797  33.842  42.799   0.242
21127W        W92798   4.331   1.481   1.341
21128W        W92799  21.087  34.591  14.929
21129W        W92800   8.436   1.365   0.473
21130W        W92801  39.512   1.409  12.925
21131W        W92802  27.105  23.228  14.003
21132W        W92803  35.897  40.026   5.131
21133W        W92804  28.376  21.108   2.710
21134W        W92805  30.832   8.743  11.775
21135W        W92806   9.794  44.868   1.771
21136W        W92807  39.773  30.081  12.398
21137W        W92808   5.174  31.270   1.437
21138W        W92809   1.875  19.296  14.514
21139W        W92810  15.952  43.832  12.700
21140W        W92811  37.305  36.096  11.989
21141W        W92812  12.747  19.350   1.763
21142W        W92813  17.601  42.033   4.114
21143W        W92814  14.164  11.617  12.928
21144W        W92815  18.009   8.039   0.893
21145W        W92816  24.967   8.937   2.310
21146W        W92817   3.432  42.923  11.499
21147W        W92818   9.304   4.939  11.238
21148W        W92819  17.793  16.021  14.977
21149W        W92820  20.745  12.812   3.201
21150W        W92821  27.787  18.127   1.743
21151W        W92822  38.285  41.742  11.501
21152W        W92823  39.213  23.265   1.073
21153W        W92824  26.623   1.449   4.095
21154W        W92825  16.722  21.684  13.579
21155W        W92826  32.040  24.408  11.175
21156W        W92827  41.872  17.211   0.439
21157W        W92828  12.222  44.680  11.808
21158W        W92829  18.687  34.082  11.002
21159W        W92830  30.444   5.755  12.888
21160W        W92831  16.142  21.058   0.026
21161W        W92832  37.427   8.887  13.409
21162W        W92833  32.214  24.105  14.742
21163W        W92834  16.448  17.044   0.864
21164W        W92835   9.718  38.082  13.635
21165W        W92836  10.924   7.311  10.493
21166W        W92837  28.919   8.366  13.831
21167W        W92838  35.284   7.241   0.319
21168W        W92839  31.114  34.311   0.721
21169W        W92840   6.710  35.546  14.721
21170W        W92841  37.817   6.358   2.238
21171W        W92842  40.592  39.854  11.629
21172W        W92843  29.081   0.654   0.793
21173W        W92844  34.007  15.237  14.304
21174W        W92845  40.491  15.855  10.533
21175W        W92846  13.129  44.065   3.699
21176W        W92847  39.694   9.793   1.199
21177W        W92848  44.046   0.210   4.297
21178W        W92849  12.890   0.708   3.311
21179W        W92850  37.308  18.710  11.561
21180W        W92851  18.863  27.958   2.717
21181W        W92852   3.831  14.656   0.766
21182W        W92853   9.656  21.059   0.457
21183W        W92854  15.457  29.995   5.121
21184W        W92855   5.007   7.419  12.548
21185W        W92856  11.915  31.889  12.395
21186W        W92857  25.840  24.491   1.716
21187W        W92858  16.031  28.543  12.186
21188W        W92859  26.151   2.390  13.006
21189W        W92860  16.609   0.818  14.948
21190W        W92861  24.587   4.367   3.209
21191W        W92862  20.653  44.180  11.467
21192W        W92863  37.118  32.908   0.033
21193W        W92864  35.938  33.890  12.572
21194W        W92865   3.845   9.277   2.758
21195W        W92866  11.229  44.412  13.527
21196W        W92867  22.473  40.491  13.911
21197W        W92868   4.438  28.116  11.635
21198W        W92869   5.390   9.210   2.732
21199W        W92870  22.642  20.753  12.522
21200W        W92871  29.747  40.068   0.585
21201W        W92872   4.895  32.675   1.704
21202W        W92873  44.251  20.615   1.462
21203W        W92874  24.240  29.023   2.059
21204W        W92875  32.946  33.704   3.341
21205W        W92876  12.196  13.915   3.195
21206W        W92877  26.565  37.370   2.658
21207W        W92878   4.484  11.793  14.433
21208W        W92879  32.387   4.392   1.278
21209W        W92880  44.355   0.528   1.817
21210W        W92881  13.337  15.437  10.003
21211W        W92882   7.488  42.951   2.181
21212W        W92883  19.551  14.780  13.793
21213W        W92884  12.106   7.315   2.337
21214W        W92885   2.310  21.637   2.462
21215W        W92886  15.758   5.329  12.855
21216W        W92887  43.136  11.544  10.147
21217W        W92888  24.398   0.768   3.613
21218W        W92889  17.013  30.991   2.239
21219W        W92890  32.135  12.349   3.414
21220W        W92891  42.889  44.228  14.298
21221W        W92892  33.394  39.733   0.317
21222W        W92893   4.991  34.467   1.758
21223W        W92894   2.209  12.534   1.337
21224W        W92895  21.931  32.638   2.950
21225W        W92896  33.029  32.666   2.833
21226W        W92897  27.379  40.410   4.157
21227W        W92898   7.660  19.343  13.841
21228W        W92899   9.541  13.853   0.790
21229W        W92900  10.636   9.810   3.783
21230W        W92901   4.834   0.220  13.061
21231W        W92902  31.061  36.108   3.366
21232W        W92903  42.061  18.557   0.024
21233W        W92904  26.068  30.586   4.572
21234W        W92905  16.691   3.457   1.797
21235W        W92906  14.818   5.985   1.254
21236W        W92907  11.642   2.342  13.265
21237W        W92908  25.684  12.860   0.713
21238W        W92909  17.281  39.814   4.971
21239W        W92910  42.791  13.873   3.248
21240W        W92911   5.544  32.397  12.192
21241W        W92912  18.253  38.929  10.561
21242W        W92913  11.401  21.149   3.650
21243W        W92914  27.437   4.445  13.867
21244W        W92915  27.468  26.043  12.951
21245W        W92916   5.166   4.657   2.764
21246W        W92917  24.780  11.806  13.895
21247W        W92918  25.596   9.824  13.314
21248W        W92919  35.787   7.066  14.765
21249W        W92920  33.470  10.210  11.459
21250W        W92921  20.738  41.115  12.362
21251W        W92922  24.683  43.424  13.319
21252W        W92923  13.100   4.029  12.640
21253W        W92924   1.509  31.181  11.163
21254W        W92925   7.269  19.506  12.094
21255W        W92926  22.135   3.569  12.471
21256W        W92927  18.155  39.531   4.262
21257W        W92928  23.505  15.458   0.507
21258W        W92929  42.894  21.121   1.396
21259W        W92930  34.033  32.253   0.018
21260W        W92931  15.047  10.400  13.006
21261W        W92932  29.033  43.616  14.942
21262W        W92933  42.860  32.486  11.564
21263W        W92934   1.702  37.350   0.684
21264W        W92935  30.916  31.547   0.373
21265W        W92936  29.575  26.644  13.273
21266W        W92937  18.131   7.154  13.704
21267W        W92938  30.628   0.972   1.454
21268W        W92939  33.082  13.425   1.639
21269W        W92940  33.652  28.916  13.894
21270W        W92941  10.413  42.928  11.607
21271W        W92942  14.474  42.311   2.119
21272W        W92943   7.311  22.794   4.789
21273W        W92944  20.290   6.248   0.125
21274W        W92945  36.446  37.316  13.942
21275W        W92946  27.637   1.521  13.982
21276W        W92947  35.936  16.828   4.263
21277W        W92948   9.941  25.207  12.931
21278W        W92949   5.151  18.785   4.058
21279W        W92950  39.024   0.903  14.199
21280W        W92951  29.872  26.193  13.911
21281W        W92952   8.815  34.701  13.017
21282W        W92953  10.901   3.197  13.098
21283W        W92954  44.560  37.214   0.948
21284W        W92955  25.987   7.217   0.786
21285W        W92956  44.259  22.222   3.552
21286W        W92957  36.853   5.775   1.732
21287W        W92958  36.432  30.055   3.095
21288W        W92959  37.760   2.275   2.203
21289W        W92960  14.800  14.394   2.242
21290W        W92961  43.168  23.976   2.153
21291W        W92962  19.595  14.929  12.934
21292W        W92963  34.127  41.395  13.817
21293W        W92964   4.687  20.465  12.974
21294W        W92965   6.000  23.794   1.568
21295W        W92966  16.134  19.708  12.922
21296W        W92967  35.722  22.045   2.160
21297W        W92968  28.245   2.807   2.410
21298W        W92969   4.015  28.502  12.207
21299W        W92970   2.149  25.975  13.416
21300W        W92971   0.891  11.895  10.193
21301W        W92972  27.070  12.085   0.074
21302W        W92973   6.284   6.752  14.090
21303W        W92974  13.516  22.531   2.166
21304W        W92975  17.636  27.131  12.597
21305W        W92976  12.837  26.404   3.254
21306W        W92977  30.179   4.455  14.109
21307W        W92978   8.304  30.264  12.438
21308W        W92979  31.523  28.794  14.343
21309W        W92980  25.738  15.129   4.523
21310W        W92981  33.378   1.379  11.017
21311W        W92982  21.268  17.022   4.221
21312W        W92983  14.609  22.352  11.108
21313W        W92984  12.135  42.485   2.810
21314W        W92985  20.715   6.369  13.872
21315W        W92986   0.766  23.259   1.328
21316W        W92987  29.720  18.467  12.765
21317W        W92988  37.905  25.556  11.230
21318W        W92989  13.245  10.872  12.152
21319W        W92990  40.004  30.340  11.351
21320W        W92991  27.526  21.434  13.720
21321W        W92992  39.886  13.647  10.728
21322W        W92993  42.309  17.922  12.386
21323W        W92994  15.210   3.878  13.369
21324W        W92995   9.278  43.195   4.501
21325W        W92996  24.214  30.595  10.926
21326W        W92997  19.772  17.038   4.494
21327W        W92998   0.836  37.323  11.025
21328W        W92999   4.301  25.243   2.296
21329W        W93000  11.221   0.766   2.328
21330W        W93001  13.853  14.492  12.714
21331W        W93002   7.070  20.177   3.246
21332W        W93003   5.807  36.433   3.538
21333W        W93004   7.797   0.267   3.149
21334W        W93005   2.751   3.332  13.377
21335W        W93006  31.991   1.750  14.929
21336W        W93007  16.180  22.694   1.630
21337W        W93008  20.218  23.142   5.115
21338W        W93009   1.926   3.731  10.708
21339W        W93010   6.495  31.088   0.798
21340W        W93011   0.283   2.985  11.369
21341W        W93012  20.496  20.373   0.827
21342W        W93013  31.903  34.917  14.695
21343W        W93014  35.847  20.829  12.870
21344W        W93015  24.986  19.744   2.313
21345W        W93016  26.141   5.730   1.679
21346W        W93017  20.958   7.939  13.435
21347W        W93018  41.463  35.018   3.393
21348W        W93019  20.282  40.545  12.937
21349W        W93020  40.718   0.837   0.860
21350W        W93021  43.799  18.763  14.450
21351W        W93022  29.918  12.541  13.925
21352W        W93023  11.688  11.643   4.967
21353W        W93024  38.504  37.660   0.372
21354W        W93025  15.774  32.134  14.845
21355W        W93026   6.692   5.828   4.101
21356W        W93027  39.006  16.361  13.934
21357W        W93028   8.241  11.268   0.048
21358W        W93029  21.488  38.028   0.808
21359W        W93030  44.769   4.465  11.136
21360W        W93031  32.638  20.061   1.378
21361W        W93032  37.598   0.936   1.263
21362W        W93033  38.326  20.061  13.011
21363W        W93034  44.977  25.661   3.655
21364W        W93035   7.142  37.525   9.885
21365W        W93036  20.186  20.787  10.738
21366W        W93037  24.635   3.223  10.724
21367W        W93038  37.318   9.631   5.121
21368W        W93039  37.787  31.756   2.335
21369W        W93040  24.570  12.684  13.464
21370W        W93041  23.233   4.786  12.996
21371W        W93042   6.238  34.304   0.563
21372W        W93043  34.039  37.473   2.332
21373W        W93044   4.197  40.575  13.433
21374W        W93045  31.923  18.120  12.429
21375W        W93046  20.847  40.530  11.139
21376W        W93047  44.200  39.117   1.777
21377W        W93048  16.225  33.945  13.339
21378W        W93049  14.644  36.713  12.357
21379W        W93050  42.287  14.992   3.772
21380W        W93051  21.103  41.383  11.621
21381W        W93052  36.390  17.254  13.952
21382W        W93053  24.145  27.926   4.145
21383W        W93054  29.185   2.814   4.742
21384W        W93055  27.616   9.826  12.916
21385W        W93056   8.106  28.046   1.647
21386W        W93057  26.846  33.427   2.865
21387W        W93058   0.795  39.943   2.185
21388W        W93059  22.485  39.336  12.763
21389W        W93060  22.594  27.744   2.783
21390W        W93061   4.344  37.269  10.424
21391W        W93062  25.968  40.309  12.435
21392W        W93063   6.512   7.146   1.362
21393W        W93064  12.213   0.299   4.503
21394W        W93065   0.245  34.159  12.478
21395W        W93066  29.935  30.937   2.968
21396W        W93067  31.190  13.329   0.424
21397W        W93068  34.574   5.296  13.417
21398W        W93069   6.163  21.015   3.770
21399W        W93070  15.177  38.779   3.322
21400W        W93071  34.429  39.283  12.919
21401W        W93072  34.638  18.096   2.359
21402W        W93073   3.965  15.040  11.659
21403W        W93074  16.361  13.636  14.736
21404W        W93075   8.965   1.494   4.136
21405W        W93076  42.488  33.841   4.913
21406W        W93077  33.670  20.024  13.392
21407W        W93078  37.912  27.927  14.041
21408W        W93079  16.122   7.265   0.337
21409W        W93080  25.668   4.872  10.923
21410W        W93081   6.312  23.419  11.956
21411W        W93082  30.040   6.784   1.257
21412W        W93083  26.485  31.503  10.613
21413W        W93084  31.537  31.232  14.389
21414W        W93085  44.321  26.947   4.560
21415W        W93086  36.587  31.407   4.067
21416W        W93087  21.022  32.508   1.214
21417W        W93088  44.384  15.812   1.009
21418W        W93089  27.627  28.494   4.704
21419W        W93090  37.984  39.865  12.978
21420W        W93091   3.796   3.690   2.872
21421W        W93092  37.406  23.160  11.172
21422W        W93093   3.925   5.481  12.477
21423W        W93094  21.693   0.740   2.122
21424W        W93095  41.019   1.327   3.200
21425W        W93096  24.316   1.968  12.876
21426W        W93097   0.023  43.413   4.123
21427W        W93098  25.100   6.836  12.007
21428W        W93099  34.346  25.588  14.606
21429W        W93100  34.839  42.288  12.190
21430W        W93101   9.712  32.176   2.935
21431W        W93102  29.540  32.032  13.573
21432W        W93103  20.998   0.584  14.005
21433W        W93104  25.865  15.365  12.123
21434W        W93105   4.386  37.546  14.555
21435W        W93106  33.156   6.383   0.846
21436W        W93107  27.262   7.753   4.253
21437W        W93108   9.389  30.854   3.182
21438W        W93109  23.009  22.974  11.906
21439W        W93110  36.905   2.725  10.682
21440W        W93111   7.126   3.925  14.454
21441W        W93112  20.881  35.010  14.307
21442W        W93113  30.927  10.960  11.116
21443W        W93114  30.224  24.658  11.607
21444W        W93115   8.646  17.201   1.909
21445W        W93116  30.150  17.181  10.714
21446W        W93117   2.021  20.102  12.051
21447W        W93118  35.207   0.604   1.958
21448W        W93119   6.413  26.468  10.934
21449W        W93120  10.294  39.409   2.365
21450W        W93121  44.340  38.523  14.909
21451W        W93122   1.827  23.150   1.304
21452W        W93123  15.061   6.504  11.535
21453W        W93124  16.733  29.050   3.758
21454W        W93125  39.431  30.935  11.944
21455W        W93126  42.365   0.882  13.316
21456W        W93127  42.776   3.689   2.919
21457W        W93128   2.776  18.021  11.565
21458W        W93129  13.313  32.402   2.938
21459W        W93130   4.394  36.128  13.825
21460W        W93131  33.815  26.477  12.624
21461W        W93132  29.910  37.679  11.166
21462W        W93133   2.997  24.856  14.497
21463W        W93134  34.168   8.690  10.777
21464W        W93135  12.570  39.577   4.085
21465W        W93136   2.114  40.340   3.258
21466W        W93137  37.133  24.732   1.144
21467W        W93138  42.219  13.715  13.247
21468W        W93139  32.997  28.446   1.774
21469W        W93140  28.204   9.239  12.516
21470W        W93141  13.826  10.073   5.093
21471W        W93142   6.500  30.413   3.282
21472W        W93143   2.871  14.248  14.446
21473W        W93144  24.303  42.834  10.161
21474W        W93145   8.426  17.969  13.556
21475W        W93146  13.096  19.688  12.871
21476W        W93147  32.501   6.899  14.443
21477W        W93148  18.234   7.252  12.835
21478W        W93149   6.737   8.677  12.864
21479W        W93150   7.530   6.249   1.395
21480W        W93151  18.575  37.852  12.474
21481W        W93152  25.122  21.901   4.295
21482W        W93153  42.304  40.072  14.557
21483W        W93154  39.786  23.069   3.491
21484W        W93155   3.774  33.912   0.827
21485W        W93156  44.314  38.504   2.242
21486W        W93157  27.113  20.492  14.234
21487W        W93158  10.344  11.832  12.165
21488W        W93159   4.987  19.286  11.173
21489W        W93160   2.678   1.249   1.907
21490W        W93161   4.466  10.647  14.322
21491W        W93162   5.826  42.565  14.771
21492W        W93163  39.543   6.587   2.797
21493W        W93164  41.557  33.891   3.354
21494W        W93165   7.484   1.484   4.673
21495W        W93166  27.825  43.982  10.526
21496W        W93167  32.929  44.187   1.106
21497W        W93168  38.459  22.151  11.410
21498W        W93169  17.077  32.422   1.322
21499W        W93170   0.784  31.210  14.309
21500W        W93171  35.025  42.645   0.766
21501W        W93172  39.782  14.492   4.112
21502W        W93173   8.975  30.591  12.975
21503W        W93174  28.466  21.263  13.599
21504W        W93175   3.315  12.560   0.450
21505W        W93176   2.680  32.978  13.767
21506W        W93177  20.748  37.310  13.873
21507W        W93178  23.181  19.143   2.327
21508W        W93179  35.502   6.641  12.519
21509W        W93180  30.475  15.169   3.121
21510W        W93181  23.195  44.921   4.192
21511W        W93182   5.064  19.308  14.580
21512W        W93183   9.623   3.173   4.171
21513W        W93184  31.484  17.974  13.538
21514W        W93185  38.437  12.333   0.910
21515W        W93186  23.124  29.139  10.915
21516W        W93187  13.664  29.868  14.779
21517W        W93188  43.061  22.727   3.944
21518W        W93189  11.335  42.501  13.452
21519W        W93190  13.357  28.209  14.513
21520W        W93191  32.735  23.982   1.932
21521W        W93192   4.549  29.028  11.523
21522W        W93193  43.890  10.443   0.384
21523W        W93194  29.163  15.513   2.312
21524W        W93195  10.355  14.532   2.759
21525W        W93196  34.130  43.986   3.670
21526W        W93197   0.645  34.366  10.377
21527W        W93198  35.440  32.971   1.474
21528W        W93199  43.366   8.457   1.864
21529W        W93200  40.803   9.103   3.700
21530W        W93201  17.211  39.029  14.554
21531W        W93202  10.032  10.621   3.694
21532W        W93203  35.481  37.946  11.854
21533W        W93204   5.624  21.108   0.820
21534W        W93205  19.661  27.381   4.592
21535W        W93206  14.040   2.310  13.571
21536W        W93207  27.610  17.009   4.554
21537W        W93208  27.089  32.339  12.946
21538W        W93209   3.791  11.693  13.351
21539W        W93210  44.025   9.921   1.823
21540W        W93211   3.826   4.502  11.279
21541W        W93212   2.244  29.599   2.727
21542W        W93213  20.054  44.344  13.487
21543W        W93214  21.093   8.328   3.618
21544W        W93215  43.925  26.747   0.707
21545W        W93216  28.483   4.458  13.419
21546W        W93217  43.882   9.387   1.167
21547W        W93218  14.666  37.628  14.509
21548W        W93219  12.312  22.151  11.542
21549W        W93220  25.189  32.843  11.542
21550W        W93221  24.124   1.185   4.562
21551W        W93222   0.212   4.996  12.517
21552W        W93223  38.018   1.905   2.733
21553W        W93224  16.634  19.670  12.807
21554W        W93225  14.764  39.912  11.018
21555W        W93226  19.432  32.349  13.365
21556W        W93227  15.475  35.373   2.822
21557W        W93228  29.833  44.889  14.260
21558W        W93229  40.340  18.278  12.443
21559W        W93230   5.153  22.874   3.829
21560W        W93231  15.446   7.276   4.959
21561W        W93232  28.361   1.004  14.155
21562W        W93233  34.132  42.818  11.752
21563W        W93234  21.703  18.295   1.718
21564W        W93235   2.616   2.936  11.490
21565W        W93236   1.584  13.373  11.222
21566W        W93237  26.024  25.087  12.591
21567W        W93238   1.355  32.987  12.023
21568W        W93239  25.069  20.992  12.112
21569W        W93240  40.965   9.681  14.554
21570W        W93241  29.441  32.919   4.528
21571W        W93242  31.726   8.066   1.180
21572W        W93243  38.113  41.927  11.967
21573W        W93244  30.413  26.760  11.943
21574W        W93245  41.927  15.402  13.013
21575W        W93246  43.937  18.749   4.652
21576W        W93247  24.777  13.657   1.406
21577W        W93248  23.616  40.922  13.415
21578W        W93249  13.031  42.962  14.891
21579W        W93250   3.837  24.262  11.911
21580W        W93251  13.816  11.646   2.736
21581W        W93252  13.941   1.082   3.160
21582W        W93253   6.991   6.328   1.370
21583W        W93254  11.959   7.817   3.648
21584W        W93255  32.838  30.479   0.333
21585W        W93256  12.810   1.378   0.145
21586W        W93257   3.278  26.093  13.254
21587W        W93258  34.949  16.795  11.609
21588W        W93259   8.684  37.476  14.422
21589W        W93260  39.265  10.826  12.371
21590W        W93261   0.251  20.708   1.842
21591W        W93262  42.986  42.081  13.761
21592W        W93263   5.769   4.602  12.125
21593W        W93264  16.212  13.104   0.768
21594W        W93265  16.447  23.684   3.226
21595W        W93266  21.976  25.770   9.796
21596W        W93267  19.773  14.697   2.340
21597W        W93268  18.899  41.955   0.459
21598W        W93269   4.127  18.148   3.281
21599W        W93270  23.545  10.845  14.229
21600W        W93271   7.293  44.191   0.332
21601W        W93272  16.789   6.655  11.933
21602W        W93273   4.839  25.705   1.871
21603W        W93274  22.709  26.418  11.622
21604W        W93275  13.988  31.964   4.065
21605W        W93276  23.326   1.218  12.821
21606W        W93277  38.516  35.428   3.699
21607W        W93278  24.300  22.672  11.600
21608W        W93279  24.078  16.220  13.383
21609W        W93280  33.451   9.354   4.137
21610W        W93281  25.270  40.036   3.526
21611W        W93282  29.433  34.000  12.337
21612W        W93283  16.172  43.052  14.017
21613W        W93284  36.951  22.110   0.692
21614W        W93285   9.254  28.607   3.900
21615W        W93286   0.669  24.656   4.269
21616W        W93287  37.106  25.345   4.644
21617W        W93288   8.902  26.131   2.656
21618W        W93289   0.470   5.211   2.387
21619W        W93290  19.725   4.178   1.320
21620W        W93291  44.470  40.730  11.908
21621W        W93292  16.407  10.891  12.893
21622W        W93293  23.139  28.985   2.595
21623W        W93294   5.489   7.949   2.706
21624W        W93295  16.072  35.003   0.719
21625W        W93296  43.418  38.599  13.093
21626W        W93297   3.607  18.110  10.465
21627W        W93298  24.509   4.702   2.830
21628W        W93299   9.361   6.803  14.496
21629W        W93300  39.542  38.390   2.819
21630W        W93301  13.730  23.761  11.751
21631W        W93302  22.290  34.960   3.349
21632W        W93303  33.397  16.705  11.557
21633W        W93304  22.286  24.377  12.350
21634W        W93305  23.653   3.648   2.798
21635W        W93306   8.688  24.463  11.583
21636W        W93307  37.965  41.411  11.947
21637W        W93308  12.349  21.623  14.852
21638W        W93309  26.348  32.453  13.473
21639W        W93310  42.964  10.867   3.764
21640W        W93311   7.306  22.777   2.222
21641W        W93312  19.547  42.050  14.334
21642W        W93313  41.967  15.663  13.855
21643W        W93314  43.931  31.721  11.599
21644W        W93315  19.721   3.793  13.754
21645W        W93316   7.561   8.808  14.412
21646W        W93317  10.871  19.184   2.219
21647W        W93318  36.322  29.820  10.336
21648W        W93319  25.715  33.161   3.257
21649W        W93320  14.216   3.422  14.580
21650W        W93321   7.781  35.934   1.383
21651W        W93322  19.722   7.401   3.868
21652W        W93323  34.422  19.612  14.958
21653W        W93324  33.690   6.796  14.809
21654W        W93325  14.220  34.069   2.176
21655W        W93326  36.847   5.372   3.762
21656W        W93327  21.108   8.490   1.872
21657W        W93328  14.250  30.978  11.570
21658W        W93329  44.071   3.867  12.041
21659W        W93330  22.988  31.413  10.671
21660W        W93331   7.474  41.060   3.930
21661W        W93332  35.010   1.507   1.324
21662W        W93333  34.080   1.808   3.176
21663W        W93334   8.093  34.909   3.426
21664W        W93335  16.873   7.653   4.838
21665W        W93336  28.159   7.774  11.088
21666W        W93337  35.355   0.789   2.419
21667W        W93338  36.946   9.931   1.295
21668W        W93339  32.672   6.729   3.340
21669W        W93340   7.722   6.488  12.937
21670W        W93341   1.019   4.777   1.250
21671W        W93342   8.873  27.366   1.223
21672W        W93343  35.075   8.882   5.057
21673W        W93344   5.946  36.088   1.754
21674W        W93345   8.700   3.899  12.967
21675W        W93346  43.892  21.867   3.716
21676W        W93347  20.646  24.562   4.076
21677W        W93348   2.319  17.831   4.108
21678W        W93349  13.691  32.843   4.724
21679W        W93350   6.162  42.424  13.457
21680W        W93351  20.276   4.995   1.959
21681W        W93352   9.356   3.954   1.847
21682W        W93353   0.646  40.069  10.641
21683W        W93354  20.701  34.341   2.350
21684W        W93355  32.603  43.222   0.769
21685W        W93356  36.891  21.025  11.765
21686W        W93357  10.992  23.058  14.140
21687W        W93358  12.779  41.564   0.784
21688W        W93359  39.590  12.253   4.678
21689W        W93360  32.617   0.885  13.464
21690W        W93361  35.421  38.406   1.900
21691W        W93362  38.501  31.440  12.861
21692W        W93363  18.881   9.560   3.759
21693W        W93364  12.443   6.119  11.104
21694W        W93365   0.387   8.210  13.419
21695W        W93366  21.060  40.415   9.751
21696W        W93367   3.650  21.448  12.423
21697W        W93368  41.359  43.682   1.421
21698W        W93369   0.503  31.686  12.501
21699W        W93370  27.664  21.121   3.434
21700W        W93371  42.338  21.218  13.921
21701W        W93372   8.072  41.484   3.779
21702W        W93373  32.726  15.694   0.303
21703W        W93374  14.780  30.758   4.947
21704W        W93375  30.415  12.393   1.703
21705W        W93376  30.869   0.807   2.801
21706W        W93377  35.488  32.165  11.512
21707W        W93378  23.627   7.774   4.208
21708W        W93379  12.852  18.393  13.228
21709W        W93380   9.799  33.433   1.815
21710W        W93381  44.900  19.249   3.558
21711W        W93382   6.118  16.020  14.310
21712W        W93383   0.987  21.736  11.463
21713W        W93384  37.521  36.891   4.340
21714W        W93385  15.114  28.465   3.680
21715W        W93386   6.938   5.041  11.450
21716W        W93387   2.857  34.316  14.013
21717W        W93388  32.845  15.418  12.436
21718W        W93389  24.678  22.752   0.665
21719W        W93390  19.588  19.605   1.414
21720W        W93391  23.271  23.819   2.226
21721W        W93392   9.546   1.052   4.306
21722W        W93393  27.216   1.856  12.034
21723W        W93394  29.404  31.489   0.404
21724W        W93395  27.444  40.738   2.129
21725W        W93396  33.058  36.011  12.541
21726W        W93397  10.914  21.744  13.024
21727W        W93398  30.954  19.322   3.585
21728W        W93399   2.445  39.977  13.561
21729W        W93400  13.851  10.730  11.186
21730W        W93401  13.026  27.512  13.386
21731W        W93402  17.761   3.942  12.584
21732W        W93403  19.039  23.685  13.949
21733W        W93404  22.781  32.138  14.278
21734W        W93405  44.494  10.627  12.329
21735W        W93406   0.571  28.520   2.818
21736W        W93407   4.606  25.290   2.788
21737W        W93408  42.665  14.315   5.061
21738W        W93409  38.925  30.039   2.693
21739W        W93410  40.111   5.520   0.394
21740W        W93411  31.788  16.253  14.614
21741W        W93412   1.738   7.161   0.707
21742W        W93413  20.028  12.309   2.164
21743W        W93414   4.866  22.961   4.961
21744W        W93415  43.473  20.289  10.540
21745W        W93416  29.656  22.735   3.786
21746W        W93417   2.904  39.736  13.485
21747W        W93418  11.586  40.290   2.797
21748W        W93419   7.747  13.570  12.559
21749W        W93420  10.511  29.162   2.285
21750W        W93421  43.337  32.659  14.776
21751W        W93422  13.093  37.568  11.648
21752W        W93423  24.174   8.279   2.338
21753W        W93424  38.988  10.021   1.772
21754W        W93425  36.062  17.979   3.313
21755W        W93426   7.250  22.630   0.291
21756W        W93427   2.375   3.866  12.587
21757W        W93428  23.085  30.382  13.590
21758W        W93429  11.272  34.443  10.695
21759W        W93430  39.405   0.776   5.016
21760W        W93431  36.607   4.588  10.390
21761W        W93432   1.954  38.841  13.566
21762W        W93433  30.067  44.206  11.505
21763W        W93434  33.815   5.355  10.974
21764W        W93435  12.230   8.141  14.274
21765W        W93436  24.814  14.562  12.147
21766W        W93437  41.723  10.213  11.894
21767W        W93438  36.924  25.249  11.124
21768W        W93439   0.178  40.998   3.703
21769W        W93440  22.490  32.928   2.362
21770W        W93441  23.151  19.221   4.328
21771W        W93442  35.258  43.337  10.809
21772W        W93443  33.725  32.170  11.095
21773W        W93444  31.354   6.763   4.878
21774W        W93445  44.016   0.450   3.073
21775W        W93446  39.705   8.640   3.166
21776W        W93447  25.021  30.603  11.996
21777W        W93448   9.764  20.553   0.291
21778W        W93449  20.830  41.761   0.887
21779W        W93450  26.586  24.585  11.485
21780W        W93451  10.105   3.087  11.980
21781W        W93452   2.498  28.567   2.271
21782W        W93453  23.787  33.860  14.822
21783W        W93454   8.900  37.932  14.262
21784W        W93455  14.530  36.063   1.937
21785W        W93456  42.814  25.203  13.548
21786W        W93457   5.149   0.798  12.491
21787W        W93458   2.081   4.764  10.755
21788W        W93459  35.917  35.416   0.009
21789W        W93460  36.376  28.053  13.837
21790W        W93461  22.468  36.860  13.473
21791W        W93462  26.701   5.760   0.779
21792W        W93463  19.341  37.497  11.867
21793W        W93464  20.330  13.074   4.067
21794W        W93465  42.890  33.083   4.697
21795W        W93466  24.736  40.319   2.237
21796W        W93467  22.271   1.356  11.472
21797W        W93468   7.633  29.561  12.550
21798W        W93469  41.810  23.304   4.599
21799W        W93470   7.407   6.287   3.209
21800W        W93471  35.741  29.755   2.407
21801W        W93472  10.186   1.844  10.772
21802W        W93473  28.598   5.589  12.664
21803W        W93474  13.621  29.057   0.346
21804W        W93475  22.319  10.569   2.779
21805W        W93476  23.946  28.192  10.100
21806W        W93477  23.593  15.787   3.256
21807W        W93478  30.131  13.183   4.131
21808W        W93479   8.529   7.059   2.349
21809W        W93480  30.159  31.525   0.858
21810W        W93481   4.256   7.635  10.655
21811W        W93482  27.384  39.526  12.080
21812W        W93483  11.397  16.246  14.805
21813W        W93484  31.912  19.747  13.504
21814W        W93485  22.928  13.442   3.195
21815W        W93486  11.388  42.245  11.593
21816W        W93487  24.014  27.909   1.395
21817W        W93488  24.574  17.795  10.729
21818W        W93489  12.097  17.591   1.317
21819W        W93490  35.463  32.642   0.753
21820W        W93491  31.079  34.288  13.067
21821W        W93492  12.727   7.333  13.535
21822W        W93493   1.543  43.374  11.495
21823W        W93494  44.711  31.975   1.432
21824W        W93495  25.096   1.660  11.082
21825W        W93496   8.006  40.145   3.696
21826W        W93497  29.650  11.760  14.760
21827W        W93498   6.531  19.881   3.301
21828W        W93499  38.813  22.672  10.861
21829W        W93500  43.327  26.217   4.377
21830W        W93501   6.670  38.996   1.270
21831W        W93502  37.958  40.945  11.662
21832W        W93503  27.483   3.458   1.889
21833W        W93504   3.071  20.430   9.876
21834W        W93505  21.296  29.570  10.631
21835W        W93506  22.614  28.911  14.050
21836W        W93507  27.281   9.750  10.098
21837W        W93508  12.653  35.109  12.451
21838W        W93509   0.743  13.694   0.857
21839W        W93510   6.668  20.608  13.462
21840W        W93511  28.201  29.373  12.818
21841W        W93512  20.480  14.255  11.533
21842W        W93513  15.608  43.746  11.056
21843W        W93514  17.739  34.970   3.593
21844W        W93515  29.409  38.640   0.047
21845W        W93516   8.899  41.412  12.039
21846W        W93517  42.772  20.673   2.204
21847W        W93518  17.123  42.643  10.033
21848W        W93519   9.493  22.272   4.508
21849W        W93520  21.309   4.408  11.615
21850W        W93521  32.547  22.203   3.812
21851W        W93522  44.459  40.880  11.398
21852W        W93523  30.141  29.010   3.749
21853W        W93524   7.256   1.975  12.439
21854W        W93525  31.694  30.954  12.579
21855W        W93526  24.526   0.591  12.373
21856W        W93527  43.981   9.163  13.889
21857W        W93528  22.700  22.403   3.745
21858W        W93529  24.484  37.470  14.131
21859W        W93530  19.711  36.959  12.890
21860W        W93531  26.416  26.380  12.982
21861W        W93532  17.599  16.342   3.685
21862W        W93533  25.989  17.544   4.121
21863W        W93534  38.441  34.601   2.259
21864W        W93535  23.498   9.116   4.610
21865W        W93536  16.712  36.541  10.681
21866W        W93537  33.581   9.875   4.135
21867W        W93538  28.045  31.959  13.627
21868W        W93539  29.871  16.732  11.608
21869W        W93540   9.498   9.902   2.892
21870W        W93541  35.876   1.864  12.943
21871W        W93542  11.681  26.999   0.917
21872W        W93543  38.452   9.312  12.433
21873W        W93544  25.029  22.037   0.214
21874W        W93545   7.247   8.661  11.573
21875W        W93546  19.562  23.211   4.111
21876W        W93547  15.708  39.670   2.655
21877W        W93548   9.746  12.152  14.802
21878W        W93549  14.053  41.388  13.849
21879W        W93550  37.018  10.148   1.763
21880W        W93551   3.287  34.389   3.422
21881W        W93552   1.950  21.283   4.401
21882W        W93553  32.237  31.519   2.446
21883W        W93554  11.540   0.251   5.018
21884W        W93555  30.393  34.543   1.189
21885W        W93556  12.457  16.154   3.831
21886W        W93557  24.743  34.624   0.249
21887W        W93558  36.569  44.225  13.343
21888W        W93559  43.558   6.341   2.804
21889W        W93560   3.517  21.162   2.253
21890W        W93561  41.377   7.302   0.376
21891W        W93562  23.179  39.400  14.205
21892W        W93563  29.238   8.715  14.176
21893W        W93564  24.775  36.046   1.845
21894W        W93565  37.488  39.723  12.922
21895W        W93566  36.994   9.352  12.478
21896W        W93567  23.158  18.074   3.822
21897W        W93568  14.899  26.425  14.043
21898W        W93569  10.725  10.907   1.646
21899W        W93570  40.555  38.789   0.825
21900W        W93571  42.782   3.276   0.539
21901W        W93572  15.105  36.569  12.524
21902W        W93573   7.851  27.753  12.158
21903W        W93574  25.681  36.322   4.654
21904W        W93575  20.747  28.535   1.173
21905W        W93576  42.998  29.061   0.056
21906W        W93577  16.083   1.733  14.892
21907W        W93578  20.180  31.524   3.638
21908W        W93579  29.154   0.888  14.284
21909W        W93580  23.755  43.935  11.184
21910W        W93581  22.173  16.700  12.335
21911W        W93582  29.970   8.190   9.828
21912W        W93583  26.939  17.071   0.435
21913W        W93584   6.896  26.577   0.418
21914W        W93585  25.587  16.636  12.041
21915W        W93586  37.652  29.945  11.093
21916W        W93587  41.095   2.501   0.001
21917W        W93588  36.983  22.567   4.546
21918W        W93589  19.110  41.610   1.733
21919W        W93590  36.934  44.389  10.712
21920W        W93591   7.146  36.603  13.045
21921W        W93592   9.697   2.460  11.946
21922W        W93593  44.389   8.347   1.974
21923W        W93594  33.769  41.303  10.571
21924W        W93595  37.657   2.879  14.701
21925W        W93596  21.091   3.907   2.335
21926W        W93597   8.031  29.543   0.368
21927W        W93598   2.629  31.554  11.101
21928W        W93599  34.818   2.672  11.423
21929W        W93600  18.992  13.413   0.847
21930W        W93601  35.734  25.884  13.517
21931W        W93602  22.308   9.333   1.443
21932W        W93603  38.004  11.684  11.958
21933W        W93604  22.162  32.412  11.394
21934W        W93605  31.097   7.507  11.276
21935W        W93606   5.327  31.541  11.618
21936W        W93607   4.923  25.679   3.676
21937W        W93608  13.578   9.888  12.484
21938W        W93609  15.360   7.355   2.847
21939W        W93610  19.466  23.683  13.234
21940W        W93611  19.656  35.425   0.892
21941W        W93612   3.019  40.484  13.769
21942W        W93613   7.876  19.287   2.681
21943W        W93614  16.561  10.717  10.843
21944W        W93615  16.064  22.644  10.999
21945W        W93616  14.462  33.079  11.451
21946W        W93617  26.574   4.004   5.008
21947W        W93618   2.923   9.770   1.917
21948W        W93619   7.559  24.602  13.938
21949W        W93620  16.720  31.121   1.392
21950W        W93621  27.464  29.215   1.591
21951W        W93622  20.817  39.948   0.714
21952W        W93623  14.661  15.099  12.400
21953W        W93624  39.485  31.142   4.315
21954W        W93625  39.572  28.688  11.068
21955W        W93626  12.641  31.893   2.670
21956W        W93627   8.290  18.964   2.808
21957W        W93628  24.957  21.210  12.550
21958W        W93629  24.773  32.693   4.394
21959W        W93630  24.442   1.896   2.748
21960W        W93631  44.944   8.460  11.638
21961W        W93632  13.040  42.045   0.715
21962W        W93633   2.417   2.684   1.937
21963W        W93634  27.906   9.697  13.374
21964W        W93635  42.805  34.847   4.967
21965W        W93636   3.207   3.824   1.434
21966W        W93637   4.408  42.494  13.926
21967W        W93638   9.191  21.880   4.316
21968W        W93639  10.098  30.587  11.619
21969W        W93640  24.089   9.241  11.711
21970W        W93641  41.875   8.225  12.630
21971W        W93642   0.844  10.257   2.642
21972W        W93643   7.821  42.042   4.396
21973W        W93644   3.842  27.843  12.447
21974W        W93645  21.665   3.441  12.260
21975W        W93646  33.496  35.096   2.804
21976W        W93647  29.941  20.679  14.943
21977W        W93648  37.511  18.271   1.657
21978W        W93649  36.204  36.408   9.734
21979W        W93650  32.108  30.928   0.006
21980W        W93651   8.880  25.428  11.396
21981W        W93652  28.659  32.920  10.941
21982W        W93653  41.725  39.433   0.635
21983W        W93654  14.801   2.216   2.297
21984W        W93655   4.936  28.179  12.979
21985W        W93656  44.083  21.432   4.622
21986W        W93657  10.411   7.148  10.589
21987W        W93658  26.549  24.045   1.918
21988W        W93659  21.030  20.259   1.242
21989W        W93660   8.280   9.855   3.873
21990W        W93661  30.151  27.571  12.213
21991W        W93662  34.392  40.363  13.252
21992W        W93663   4.251  26.504  13.491
21993W        W93664  34.179   5.066  14.150
21994W        W93665  30.913  23.176  10.990
21995W        W93666   4.840   3.466   5.077
21996W        W93667  23.266  12.572   4.453
21997W        W93668  21.627  41.525  12.583
21998W        W93669   6.506  35.933  11.537
21999W        W93670  37.965  36.527  14.902
22000W        W93671   3.882  43.346  12.131
22001W        W93672  18.533   0.244   3.333
22002W        W93673  11.184   8.223   1.533
22003W        W93674  28.679  18.991  13.404
22004W        W93675   5.610  20.203   3.420
22005W        W93676  18.470  33.651   3.549
22006W        W93677  13.335  22.611   3.650
22007W        W93678   9.052  38.452   3.219
22008W        W93679  30.934  21.932   1.939
22009W        W93680  36.578  43.499  12.524
22010W        W93681  42.722  12.448   3.345
22011W        W93682  14.164   7.667  14.347
22012W        W93683  39.960   3.789  13.804
22013W        W93684  34.101  12.759   4.569
22014W        W93685  32.134  13.112  10.722
22015W        W93686   6.934  28.510   0.117
22016W        W93687  11.105   9.970  11.947
22017W        W93688  25.516  40.416  12.227
22018W        W93689  35.345  11.086   2.752
22019W        W93690   9.005   9.358  10.589
22020W        W93691  17.563  26.936   1.391
22021W        W93692  41.880  32.165   4.615
22022W        W93693  17.208  37.875   2.653
22023W        W93694  29.778  29.489  11.600
22024W        W93695  34.584  10.796  12.498
22025W        W93696  43.288  36.780  13.808
22026W        W93697  29.548  25.480   1.099
22027W        W93698   8.772  30.713   1.001
22028W        W93699  25.078   7.280   0.393
22029W        W93700   0.438  19.988  11.984
22030W        W93701   1.975  15.513   3.363
22031W        W93702  21.683  40.533   9.814
22032W        W93703  42.503  27.198  12.021
22033W        W93704  30.966  15.858  12.659
22034W        W93705  20.316  24.535  14.856
22035W        W93706  26.992  12.586  14.858
22036W        W93707  44.382  21.997   9.429
22037W        W93708  22.637  21.550   4.274
22038W        W93709   2.275  30.922  12.493
22039W        W93710  37.456  27.698   4.598
22040W        W93711  44.146  27.545  12.942
22041W        W93712  20.712   5.659   4.286
22042W        W93713  29.921   5.909   0.228
22043W        W93714  10.354  10.352   2.222
22044W        W93715  16.320  40.352   3.338
22045W        W93716  43.576  29.567  13.345
22046W        W93717  15.328   0.307  14.739
22047W        W93718  22.605   1.427   4.850
22048W        W93719   1.517  15.252   2.466
22049W        W93720  38.309  18.150  13.767
22050W        W93721  44.088  17.409  13.858
22051W        W93722   0.879   6.655  10.768
22052W        W93723  25.712  27.768  10.288
22053W        W93724  29.047  26.398  11.493
22054W        W93725  44.812  12.832   2.843
22055W        W93726   0.763  12.437   3.279
22056W        W93727  40.067  41.709   3.019
22057W        W93728  34.868  38.370   2.738
22058W        W93729  13.170  24.226   3.342
22059W        W93730  42.932  13.216   4.429
22060W        W93731  36.941   5.622   2.739
22061W        W93732   3.689   6.700  12.029
22062W        W93733  23.431  12.325   2.193
22063W        W93734   7.156  36.786  13.915
22064W        W93735  21.924  14.148  14.540
22065W        W93736  33.965  18.323  14.530
22066W        W93737  11.765   5.980   1.205
22067W        W93738  26.509  30.606   1.785
22068W        W93739  32.615  30.864   1.280
22069W        W93740  31.797   0.500   0.919
22070W        W93741  32.415  43.528  11.985
22071W        W93742  11.600  24.638   4.800
22072W        W93743  29.257  18.781   3.650
22073W        W93744   9.069  19.449   4.475
22074W        W93745   5.331   2.428  14.312
22075W        W93746  10.159  12.062   4.578
22076W        W93747  21.889  44.955   3.492
22077W        W93748   5.469  24.572   3.992
22078W        W93749  37.043  15.716  10.130
22079W        W93750  28.955  35.828   1.372
22080W        W93751   4.271  15.402   0.048
22081W        W93752  19.920  15.906  10.703
22082W        W93753  16.299  32.744  12.984
22083W        W93754  36.382   9.644  12.374
22084W        W93755  17.827  38.961   2.844
22085W        W93756   2.233   9.720  10.538
22086W        W93757  12.821  13.187  13.665
22087W        W93758   6.319  43.032   0.726
22088W        W93759  13.249   6.797   3.101
22089W        W93760  43.428  19.440   5.014
22090W        W93761   1.386  24.710  13.001
22091W        W93762  34.485  35.246   0.788
22092W        W93763  16.567   8.095   4.783
22093W        W93764   4.203  42.039   2.470
22094W        W93765  32.468  32.122   2.165
22095W        W93766   5.426  38.034  13.764
22096W        W93767   2.355  26.077   4.517
22097W        W93768  19.700  17.199   1.669
22098W        W93769  23.552   3.651  12.392
22099W        W93770  31.621  21.291  13.997
22100W        W93771  21.616  13.537   0.425
22101W        W93772  28.329  15.634   0.102
22102W        W93773   7.870  13.504   1.831
22103W        W93774  13.189  37.899  12.070
22104W        W93775  29.439   9.151  10.142
22105W        W93776   7.660  31.979   4.673
22106W        W93777  42.446  11.913   4.255
22107W        W93778   2.235  18.315   1.748
22108W        W93779  30.134   5.752  14.792
22109W        W93780  33.784  21.525   3.643
22110W        W93781   0.935  38.935   0.839
22111W        W93782  29.188  22.758  10.769
22112W        W93783  43.788  29.664  11.048
22113W        W93784  36.241   5.616   0.427
22114W        W93785  22.134  37.106  11.577
22115W        W93786  25.704  29.529   4.351
22116W        W93787  44.565  20.473   3.800
22117W        W93788  14.569   3.792  14.507
22118W        W93789  27.665  15.155   3.678
22119W        W93790  32.106  10.146   2.610
22120W        W93791  14.405  26.400  13.922
22121W        W93792   2.249   0.232  11.513
22122W        W93793  18.931  39.084  14.771
22123W        W93794  41.601  37.048  10.409
22124W        W93795  29.890   6.940  10.424
22125W        W93796  11.293  42.999   1.139
22126W        W93797  29.689  24.516   4.093
22127W        W93798   5.863  25.696   4.588
22128W        W93799  43.850  44.530   3.072
22129W        W93800  32.550  42.147  14.695
22130W        W93801  13.159  35.574   0.518
22131W        W93802   9.399  31.315   3.402
22132W        W93803  38.013  39.697   9.561
22133W        W93804  39.807   5.364   3.286
22134W        W93805   7.843   8.943   4.535
22135W        W93806  36.184  21.540  12.483
22136W        W93807  42.597   2.623   4.091
22137W        W93808  10.850  11.697  11.275
22138W        W93809   8.442  38.706  14.937
22139W        W93810  35.833   7.238  13.631
22140W        W93811  30.358  10.602   1.499
22141W        W93812   3.982   5.494   3.864
22142W        W93813  14.698   7.576   3.184
22143W        W93814  29.640  41.986   1.723
22144W        W93815  23.700  22.356   2.744
22145W        W93816  38.418  33.653  11.389
22146W        W93817  14.628  21.426   3.305
22147W        W93818  23.054  21.658  14.456
22148W        W93819  33.018  18.681   1.019
22149W        W93820  18.777  38.040   1.703
22150W        W93821  34.299   8.192  14.951
22151W        W93822  17.257  21.965  11.175
22152W        W93823  18.775  36.877  10.794
22153W        W93824  30.753  25.081  12.800
22154W        W93825  36.021  15.089  10.679
22155W        W93826  28.129  27.190  12.932
22156W        W93827  25.774   8.264  14.465
22157W        W93828  43.369  29.082  13.424
22158W        W93829   6.815  24.459  12.570
22159W        W93830   1.658  39.427  11.276
22160W        W93831  20.554   8.075  14.637
22161W        W93832  15.870  41.085  13.837
22162W        W93833   3.424  42.101   0.380
22163W        W93834   3.326  40.063  13.906
22164W        W93835  36.761   9.151  14.927
22165W        W93836  31.477  33.117   1.464
22166W        W93837  24.396  38.375   5.193
22167W        W93838  34.793  23.683  14.971
22168W        W93839   4.722  30.659   2.825
22169W        W93840  12.947   0.726  13.090
22170W        W93841  15.179  44.826   4.125
22171W        W93842   3.763  40.452   3.120
22172W        W93843  28.256  26.588  10.798
22173W        W93844  14.728   2.822  13.095
22174W        W93845   6.895  20.114   4.117
22175W        W93846   7.745  44.887   0.853
22176W        W93847  25.921  24.917  13.985
22177W        W93848  44.221  33.804   4.478
22178W        W93849  40.433   2.687  12.515
22179W        W93850  30.992  38.827  12.006
22180W        W93851  12.162  11.913  14.505
22181W        W93852  39.083  42.199  11.066
22182W        W93853  20.838  35.931   1.054
22183W        W93854  31.531  43.406   1.453
22184W        W93855  41.335   0.284   0.447
22185W        W93856  37.067  20.023   1.585
22186W        W93857  15.874  26.094  13.758
22187W        W93858  35.669   0.015  13.825
22188W        W93859  38.951  28.120   4.126
22189W        W93860  37.048  31.664   1.207
22190W        W93861  23.219   5.671  14.056
22191W        W93862  12.337   2.214   2.922
22192W        W93863  11.862  35.609   5.103
22193W        W93864  17.015   3.164  11.512
22194W        W93865  38.968  33.224  10.375
22195W        W93866   7.161   4.806   3.297
22196W        W93867  13.054  26.772  12.892
22197W        W93868  35.072   8.123  13.518
22198W        W93869  36.490  41.852   4.063
22199W        W93870   8.422  31.924   2.560
22200W        W93871   1.876   6.892   4.108
22201W        W93872  23.276  32.061  12.504
22202W        W93873  37.995  31.215  10.787
22203W        W93874  39.555  12.088  14.315
22204W        W93875  43.893  22.015   2.314
22205W        W93876  20.502  28.512  11.097
22206W        W93877  31.281  39.916   3.237
22207W        W93878  28.062  28.188  11.914
22208W        W93879  41.567  42.347  12.975
22209W        W93880  35.849  22.673   0.285
22210W        W93881  43.905  19.571   1.986
22211W        W93882  26.916  15.603   1.489
22212W        W93883   8.296  13.724   4.563
22213W        W93884   8.354  26.157   1.737
22214W        W93885  36.306  23.071  14.521
22215W        W93886  25.373  40.617   0.906
22216W        W93887  44.767  23.086   0.094
22217W        W93888  18.583  36.371   3.074
22218W        W93889  27.226   1.919   1.023
22219W        W93890  28.518   6.492   3.506
22220W        W93891  40.371   2.979  13.989
22221W        W93892  32.083  12.844   3.576
22222W        W93893   8.069  25.563   4.118
22223W        W93894  42.202  43.299   1.122
22224W        W93895  19.205  28.419   4.923
22225W        W93896   3.367  43.330  12.324
22226W        W93897   0.857  33.897  12.687
22227W        W93898  29.710  30.507   0.297
22228W        W93899  34.116  18.820   2.870
22229W        W93900   8.426  24.167  14.137
22230W        W93901  25.608  25.516   3.096
22231W        W93902   9.268  33.462   1.671
22232W        W93903  34.319  31.367  13.287
22233W        W93904  20.304  30.260   3.204
22234W        W93905   6.163   2.437  10.797
22235W        W93906   1.369  36.751  12.297
22236W        W93907  27.157  36.838   4.488
22237W        W93908  27.434  28.638  10.727
22238W        W93909  19.891  31.154  14.875
22239W        W93910  30.901  32.045   4.076
22240W        W93911  14.075   6.923   4.365
22241W        W93912   8.852  14.588  13.612
22242W        W93913  39.649  34.082   0.288
22243W        W93914  18.388  22.628   4.515
22244W        W93915  35.855  13.211   2.604
22245W        W93916   9.863   6.408   2.743
22246W        W93917  17.787  14.267   3.332
22247W        W93918  30.236  32.615  11.986
22248W        W93919  35.541  38.987   3.862
22249W        W93920   6.237  14.201   2.678
22250W        W93921  20.952  30.693  10.914
22251W        W93922  15.191   1.459   2.883
22252W        W93923  10.118  28.966   4.099
22253W        W93924  31.574  30.044   4.691
22254W        W93925  44.450  31.182   3.624
22255W        W93926   8.332  26.800   0.699
22256W        W93927   9.757  22.005  14.382
22257W        W93928  21.758  17.135   2.643
22258W        W93929  39.908  21.770  13.013
22259W        W93930  19.335   1.936   1.297
22260W        W93931   8.566   1.851  11.470
22261W        W93932  20.824   6.885  11.151
22262W        W93933  39.005  30.224   1.294
22263W        W93934  22.148  39.833  11.672
22264W        W93935   8.195  42.550   2.695
22265W        W93936  36.346  16.550   0.395
22266W        W93937  19.794  40.995  11.940
22267W        W93938   6.403   4.272   3.236
22268W        W93939   4.348  37.379   2.209
22269W        W93940  42.966  40.904   1.427
22270W        W93941  33.684  28.890  12.524
22271W        W93942  21.294  38.455   1.890
22272W        W93943   4.835   3.803   2.010
22273W        W93944   9.396   8.501  12.426
22274W        W93945  32.696  33.176   1.401
22275W        W93946   2.346  16.402   3.904
22276W        W93947  41.006  37.872  10.993
22277W        W93948   5.490   7.471   2.895
22278W        W93949  19.000  17.535   1.334
22279W        W93950  30.610  24.783  11.949
22280W        W93951  32.906  36.894  11.615
22281W        W93952  44.536  38.534   0.859
22282W        W93953   3.641  12.373  13.100
22283W        W93954  20.271   2.678  14.595
22284W        W93955  42.119  15.666   3.241
22285W        W93956  26.154  26.440   2.140
22286W        W93957  18.081  14.649  10.607
22287W        W93958   3.873  42.415  11.982
22288W        W93959  39.319  13.232  11.137
22289W        W93960  28.646  24.182  11.099
22290W        W93961   7.326   3.890  13.005
22291W        W93962  39.771   3.748  13.315
22292W        W93963   9.796  23.453   1.809
22293W        W93964   6.206  43.027   3.096
22294W        W93965  34.419  32.316  14.623
22295W        W93966  26.735  20.736   0.398
22296W        W93967  20.586  14.292  14.928
22297W        W93968   4.408  40.386   0.353
22298W        W93969  13.273   0.215   1.650
22299W        W93970  25.744  26.170  13.023
22300W        W93971  30.881  22.013   1.033
22301W        W93972   4.500  18.686   0.888
22302W        W93973  15.837  43.392  11.650
22303W        W93974  25.234  41.678   4.126
22304W        W93975   2.169  43.498   1.313
22305W        W93976  24.886  38.473  13.485
22306W        W93977   3.896  27.008  11.660
22307W        W93978  15.292   0.488  10.392
22308W        W93979  10.671  26.446   1.226
22309W        W93980  29.024  21.760  12.564
22310W        W93981  43.682  10.308   1.770
22311W        W93982  21.706   2.249   0.821
22312W        W93983  29.064  34.499   3.632
22313W        W93984  37.933  37.337   2.278
22314W        W93985   2.591  20.387  10.169
22315W        W93986  44.652   2.545   4.980
22316W        W93987  21.330  31.819   3.392
22317W        W93988   4.183  15.778   3.724
22318W        W93989  30.918  20.433  14.751
22319W        W93990  35.658   4.187   4.102
22320W        W93991   2.472  28.639   2.834
22321W        W93992   2.454   6.217  10.315
22322W        W93993   9.881  27.992  14.672
22323W        W93994  36.415   2.593   2.056
22324W        W93995  12.367  14.682  12.977
22325W        W93996  15.122  14.202  13.287
22326W        W93997  17.173  37.363   4.701
22327W        W93998  36.112  24.194   4.540
22328W        W93999  10.338   1.481   0.332
22329W        W94000  13.826  25.698   0.626
22330W        W94001  12.177   0.210   2.736
22331W        W94002  18.313  31.112   3.405
22332W        W94003   9.755   3.838  14.534
22333W        W94004  41.208  31.600  10.776
22334W        W94005  35.118  42.885   2.474
22335W        W94006  39.836  25.916   0.212
22336W        W94007  15.562  18.082   1.251
22337W        W94008   2.222  19.596   4.671
22338W        W94009  21.996   6.904   0.405
22339W        W94010   0.918  16.452  10.111
22340W        W94011  28.196  35.273  11.939
22341W        W94012  44.117  32.546   3.238
22342W        W94013  15.488  31.369   1.424
22343W        W94014  33.299  13.147   4.707
22344W        W94015  10.305  34.581  13.636
22345W        W94016  31.919  13.945  13.656
22346W        W94017  26.058   4.462  13.837
22347W        W94018   4.842  25.421  11.468
22348W        W94019  16.040  30.138   2.237
22349W        W94020  30.568  11.073   0.265
22350W        W94021   4.819  27.892   4.613
22351W        W94022  18.480  34.369   2.735
22352W        W94023   7.036  43.569   1.061
22353W        W94024  17.833  28.946  12.673
22354W        W94025  41.801  30.166   0.946
22355W        W94026  32.073  26.843   2.700
22356W        W94027  22.146  27.626   4.640
22357W        W94028  21.026  18.037   1.203
22358W        W94029  16.654  15.184   1.790
22359W        W94030  32.625   5.852  14.353
22360W        W94031  44.477  26.821   1.767
22361W        W94032  34.639   6.922  10.806
22362W        W94033  16.699  24.852  13.779
22363W        W94034  11.486  15.729   2.712
22364W        W94035  43.259  43.500   2.504
22365W        W94036  39.831  42.894  14.458
22366W        W94037  36.854   2.282  12.175
22367W        W94038   8.720   5.642  11.920
22368W        W94039  10.095  36.349  10.926
22369W        W94040  36.342  13.183   2.416
22370W        W94041  20.398  17.758  13.470
22371W        W94042   3.897  42.946  13.460
22372W        W94043   7.943  19.598  12.867
22373W        W94044  21.466  21.096  10.798
22374W        W94045  42.981   1.981  13.176
22375W        W94046  12.354   9.286   4.562
22376W        W94047  11.892  29.697   4.012
22377W        W94048   4.079  31.088  13.264
22378W        W94049  17.336  20.257  14.924
22379W        W94050  21.507  14.744  10.969
22380W        W94051  33.363  22.209  12.593
22381W        W94052  34.934  39.256  12.795
22382W        W94053  20.679  27.422   5.358
22383W        W94054  43.527  41.519   2.669
22384W        W94055  33.613  37.553   1.428
22385W        W94056  29.734  16.003  12.372
22386W        W94057  35.594  43.112   3.579
22387W        W94058   6.214  26.096   1.376
22388W        W94059  14.276   0.241  11.029
22389W        W94060  12.613  34.110  13.090
22390W        W94061  27.076   2.817   0.854
22391W        W94062  16.759  27.200  14.551
22392W        W94063  10.234  24.668   4.038
22393W        W94064   2.483  33.522  13.999
22394W        W94065  19.370  38.452  11.756
22395W        W94066  31.338  44.356   1.695
22396W        W94067  33.674  39.021   4.282
22397W        W94068  33.462   5.081   3.348
22398W        W94069  36.585  11.722   0.066
22399W        W94070   2.452  42.265  12.636
22400W        W94071  43.498   7.605   3.810
22401W        W94072  40.783  15.086  13.618
22402W        W94073  31.660   5.449   4.527
22403W        W94074  36.457  17.025  13.478
22404W        W94075   1.889   6.988   1.615
22405W        W94076  44.775  38.081  14.079
22406W        W94077  24.908  26.196   4.128
22407W        W94078   1.744   4.936  13.324
22408W        W94079   6.652  23.648   4.557
22409W        W94080  40.896  38.270  11.322
22410W        W94081   8.455  40.894   4.150
22411W        W94082  27.194  44.334  12.967
22412W        W94083  41.536   2.497   2.213
22413W        W94084  11.813  21.326   1.804
22414W        W94085  31.879  39.071  13.017
22415W        W94086  17.309   5.897   3.727
22416W        W94087  27.467  27.697  12.393
22417W        W94088   5.888  30.161   0.947
22418W        W94089  42.268  18.241   1.248
22419W        W94090   8.375  31.946  13.449
22420W        W94091  17.851  33.572   4.193
22421W        W94092  40.009  29.502   2.068
22422W        W94093  27.327  15.926  12.489
22423W        W94094   8.308  30.526   3.957
22424W        W94095  41.837  17.805   2.735
22425W        W94096  28.772  11.148   1.598
22426W        W94097   6.691  23.450   3.693
22427W        W94098  23.370  12.119  13.977
22428W        W94099  39.701  16.476   3.132
22429W        W94100  31.581  20.493   4.291
22430W        W94101  35.031  32.805  12.962
22431W        W94102  38.890   4.828  13.451
22432W        W94103  15.688  20.382   0.072
22433W        W94104  14.885  16.491   4.093
22434W        W94105  37.306  30.723  12.423
22435W        W94106   1.768  38.813  12.068
22436W        W94107  40.936   3.188  10.563
22437W        W94108   7.220   2.758  11.609
22438W        W94109   8.315  16.901   0.924
22439W        W94110  38.891  36.580  14.740
22440W        W94111  44.911  39.234   2.827
22441W        W94112  44.660   6.934   3.209
22442W        W94113  44.581  39.375   2.119
22443W        W94114   5.754  23.237   0.801
22444W        W94115   5.343   8.250   0.260
22445W        W94116  20.765  17.929  14.947
22446W        W94117  15.198   2.928   2.720
22447W        W94118  27.140  15.207  13.958
22448W        W94119  24.880   2.205   3.708
22449W        W94120  25.965   2.789  11.653
22450W        W94121  36.286   4.416  11.354
22451W        W94122  40.087   0.996   2.362
22452W        W94123  41.561  34.169  11.225
22453W        W94124  17.116  39.835   2.964
22454W        W94125  28.514  25.452   1.906
22455W        W94126   2.401  22.635   0.338
22456W        W94127   9.206  29.978   4.534
22457W        W94128  40.605  39.766   3.371
22458W        W94129  33.835   4.424  14.920
22459W        W94130  25.563  40.260  12.731
22460W        W94131   9.225   4.421  12.369
22461W        W94132  41.253  34.896   4.166
22462W        W94133  36.401  18.278   0.200
22463W        W94134  38.306  28.160   1.140
22464W        W94135  19.586  34.068  12.500
22465W        W94136  44.072  29.004   2.519
22466W        W94137   7.750  30.143  14.382
22467W        W94138  25.154  37.397   0.398
22468W        W94139  11.106  35.688   2.335
22469W        W94140  18.044  37.369  11.910
22470W        W94141   8.283   1.472  11.673
22471W        W94142   7.632   3.761  14.408
22472W        W94143  26.538  17.266  14.499
22473W        W94144   7.300   7.681   1.535
22474W        W94145  27.660  14.636   2.402
22475W        W94146  18.038  43.916   1.768
22476W        W94147  28.599  32.024   1.646
22477W        W94148   8.044  24.986  11.064
22478W        W94149   8.203  29.405   2.892
22479W        W94150  11.698  42.058  10.740
22480W        W94151  15.368  34.806  14.361
22481W        W94152  10.153  18.825   0.762
22482W        W94153   5.557   9.166  13.358
22483W        W94154  27.525  16.124   3.848
22484W        W94155   0.296  31.355   4.064
22485W        W94156   0.826  25.714  13.548
22486W        W94157   2.234   5.154   4.201
22487W        W94158  10.806  35.479  10.451
22488W        W94159  42.752  12.828   2.709
22489W        W94160   2.788  42.370  13.954
22490W        W94161  39.231   2.857   0.704
22491W        W94162  33.930   4.256  12.554
22492W        W94163  40.461  25.044   3.221
22493W        W94164  27.230  26.014  14.442
22494W        W94165  30.995  11.613   4.070
22495W        W94166  36.475  23.819   0.019
22496W        W94167  10.867  27.897  10.637
22497W        W94168  37.437  44.182   1.809
22498W        W94169  13.224  35.098  11.880
22499W        W94170  43.202  29.919   0.992
22500W        W94171  36.667  29.582  13.928
22501W        W94172  14.185   8.450  13.255
22502W        W94173  22.578  11.300   0.390
22503W        W94174  32.459   8.892   2.776
22504W        W94175   4.925  16.560   4.577
22505W        W94176  10.712   3.257   0.380
22506W        W94177   0.778  32.325   1.815
22507W        W94178  35.352  10.420   4.155
22508W        W94179  21.659  17.064  13.990
22509W        W94180  39.781  33.583   3.513
22510W        W94181  20.478  35.317   2.363
22511W        W94182  32.490  39.131  13.310
22512W        W94183  38.148  29.554  11.656
22513W        W94184  30.538   4.210  12.953
22514W        W94185  35.542  36.599  13.441
22515W        W94186  15.429  17.534   0.701
22516W        W94187   1.320  34.585   0.764
22517W        W94188  18.727  21.575  14.765
22518W        W94189   5.383  27.924  12.944
22519W        W94190  30.393  42.517   0.694
22520W        W94191   8.221   2.514   1.201
22521W        W94192  34.527  32.070  14.134
22522W        W94193  28.887  33.977  13.520
22523W        W94194  21.448   8.691   2.875
22524W        W94195   7.243  42.428  10.561
22525W        W94196  43.999  36.935   4.830
22526W        W94197  16.575  28.592  12.120
22527W        W94198   7.573  13.637   2.239
22528W        W94199  36.008  18.474   1.234
22529W        W94200  17.581  22.914   1.301
22530W        W94201  32.633   4.453  12.167
22531W        W94202   1.812  23.617   3.386
22532W        W94203   1.498   0.317   2.778
22533W        W94204  38.348  39.540   2.983
22534W        W94205  14.778  30.968  11.363
22535W        W94206  18.354  21.015   3.435
22536W        W94207  24.262  17.535   1.187
22537W        W94208  37.323   9.227  11.090
22538W        W94209   6.422  18.608   4.102
22539W        W94210  32.794  12.936  12.978
22540W        W94211  40.575  42.718  13.736
22541W        W94212  24.648  31.892   0.347
22542W        W94213  21.215  16.724  12.087
22543W        W94214  30.490  27.632  13.789
22544W        W94215  10.729  44.457   3.815
22545W        W94216   5.767  23.793  12.327
22546W        W94217   1.277  18.770   0.048
22547W        W94218  20.906  41.547  12.060
22548W        W94219  38.358  11.668   0.329
22549W        W94220  15.319   3.946   1.852
22550W        W94221  20.706  12.109   1.021
22551W        W94222   5.875  27.188   3.862
22552W        W94223  38.171  24.166   4.579
22553W        W94224   7.045  21.880   4.931
22554W        W94225  27.461  25.534  11.141
22555W        W94226   7.632  12.302   0.258
22556W        W94227  44.898  21.341  12.159
22557W        W94228  27.199  17.927   4.157
22558W        W94229   7.865   5.438  13.008
22559W        W94230  43.047  26.066  13.406
22560W        W94231   6.335  24.111  10.787
22561W        W94232  10.820  33.442  11.959
22562W        W94233  15.403   3.686   3.707
22563W        W94234   6.971  19.297   3.717
22564W        W94235  31.957  25.755  12.029
22565W        W94236  40.001  42.965  13.527
22566W        W94237   0.299  36.385  11.594
22567W        W94238  44.282   4.439  14.355
22568W        W94239  43.766  11.481   3.593
22569W        W94240   6.431   8.727   4.999
22570W        W94241  24.918   7.054  14.529
22571W        W94242  36.461   8.663  11.673
22572W        W94243  44.722  21.130   2.237
22573W        W94244   1.754   5.866  14.259
22574W        W94245  22.694  38.005   3.210
22575W        W94246  19.686  16.093   1.481
22576W        W94247   5.788  32.873   0.188
22577W        W94248  14.376  43.551  14.861
22578W        W94249  30.151  21.151  14.863
22579W        W94250  38.263  18.821   1.882
22580W        W94251  31.733  42.915   2.199
22581W        W94252  31.951  37.611   4.541
22582W        W94253  38.887  40.309  14.708
22583W        W94254   9.748  44.947  14.988
22584W        W94255   9.233  34.405  11.950
22585W        W94256  20.146  38.120   1.190
22586W        W94257  34.990   5.395  11.511
22587W        W94258  23.748  25.490   2.391
22588W        W94259  21.727  20.130   0.696
22589W        W94260  23.188  42.218   4.364
22590W        W94261  41.059  32.224   0.658
22591W        W94262  18.081  41.016  12.539
22592W        W94263  41.053   9.578   3.784
22593W        W94264  44.399   2.406   2.768
22594W        W94265  20.128  36.983  10.883
22595W        W94266  33.072  11.334  13.083
22596W        W94267  36.074   3.315   0.457
22597W        W94268   8.780  11.871   4.189
22598W        W94269  44.845  40.821   0.285
22599W        W94270  41.138  24.132   5.017
22600W        W94271  22.987  43.355  11.132
22601W        W94272   7.629   7.781  14.826
22602W        W94273  38.782   8.874  10.565
22603W        W94274  43.031   1.005  14.918
22604W        W94275  44.430  10.137   3.611
22605W        W94276  41.844   6.729   2.759
22606W        W94277  30.432  44.335  10.699
22607W        W94278  30.395   3.432   2.348
22608W        W94279  12.169   9.691  11.975
22609W        W94280  16.053  28.435   1.774
22610W        W94281   3.873  38.003   1.808
22611W        W94282  14.901  31.978  12.636
22612W        W94283  15.547   8.913  14.590
22613W        W94284  31.391  35.841  12.478
22614W        W94285  42.267  10.670  13.036
22615W        W94286   1.489  10.179   2.727
22616W        W94287  40.827   9.599  14.058
22617W        W94288  23.700  13.966   0.262
22618W        W94289  32.939  27.117  12.569
22619W        W94290   2.235  31.184  11.630
22620W        W94291  38.942  20.648   4.073
22621W        W94292   4.699  22.644  11.324
22622W        W94293  33.346  22.078  14.028
22623W        W94294  33.317   3.101  11.562
22624W        W94295  40.955  12.933  14.004
22625W        W94296   4.219  23.536   2.734
22626W        W94297   0.045  28.738   1.920
22627W        W94298  26.129  15.725  13.890
22628W        W94299  27.366  31.566  12.420
22629W        W94300  24.027  41.313  13.990
22630W        W94301  40.562  13.966   0.760
22631W        W94302  25.552   5.699   1.527
22632W        W94303  24.082  33.809  10.087
22633W        W94304  44.627  17.647   5.029
22634W        W94305  44.657  10.929   3.397
22635W        W94306  40.378  37.874   0.023
22636W        W94307   4.496  44.432   3.187
22637W        W94308   9.165  37.625  14.589
22638W        W94309   9.204  44.717   0.838
22639W        W94310   1.054  12.247  10.636
22640W        W94311  33.268  33.043  14.243
22641W        W94312  12.204  41.227   4.822
22642W        W94313   0.168  21.225   3.063
22643W        W94314  25.215  34.407   4.402
22644W        W94315  12.186   0.848   0.442
22645W        W94316  23.134  16.276   4.526
22646W        W94317  35.354  37.885   0.870
22647W        W94318  38.789  16.647  12.919
22648W        W94319  43.728  34.960  13.917
22649W        W94320  16.631  33.894  12.936
22650W        W94321  13.248  11.730  11.608
22651W        W94322  42.290   1.762   0.834
22652W        W94323  15.552  10.549  14.932
22653W        W94324   9.281   3.714   0.856
22654W        W94325   4.209   9.870  13.352
22655W        W94326  14.836  14.304   3.102
22656W        W94327  30.351  31.177  14.815
22657W        W94328  25.955  14.037   3.247
22658W        W94329  14.252  17.768   4.744
22659W        W94330  32.477  34.149   2.176
22660W        W94331  36.958  18.032   4.242
22661W        W94332  39.899  25.488  10.652
22662W        W94333   9.909  34.353   0.712
22663W        W94334  21.246  28.783  14.814
22664W        W94335  23.719  40.880  13.982
22665W        W94336  31.623  42.342   4.590
22666W        W94337   9.353   7.337   4.221
22667W        W94338  24.583  39.000   4.534
22668W        W94339  13.401   0.985   3.168
22669W        W94340   0.313  32.501   4.716
22670W        W94341  18.018  22.270  12.947
22671W        W94342   2.386   6.015   2.405
22672W        W94343  10.087  38.244   0.453
22673W        W94344   0.018  31.659  13.491
22674W        W94345  13.785  13.755  10.623
22675W        W94346  40.985  28.000  14.410
22676W        W94347  41.396  19.323  11.636
22677W        W94348  17.507  35.771  12.842
22678W        W94349  11.824   9.343  13.995
22679W        W94350  23.873  24.115  10.724
22680W        W94351   8.861  36.460  14.695
22681W        W94352  14.644  43.067  14.894
22682W        W94353  13.146   7.414   4.229
22683W        W94354  32.855  15.256  12.923
22684W        W94355  36.983  37.580   3.366
22685W        W94356  39.624  15.774  12.960
22686W        W94357  39.026  27.449   1.305
22687W        W94358  25.463  18.645   4.412
22688W        W94359  15.150  17.163   1.341
22689W        W94360   2.584  23.436  12.913
22690W        W94361   4.675  15.023   3.644
22691W        W94362   0.445  32.195  12.461
22692W        W94363  27.810   4.514  12.860
22693W        W94364  33.324  22.208   4.166
22694W        W94365  12.398  17.708  12.131
22695W        W94366  38.275   8.167   4.615
22696W        W94367   7.767  36.968   0.966
22697W        W94368   0.154  21.893  10.974
22698W        W94369  17.905  18.520   2.370
22699W        W94370  38.033  32.938  10.596
22700W        W94371  41.813  18.996   4.576
22701W        W94372  42.138  17.374  13.672
22702W        W94373  29.260  22.984  13.076
22703W        W94374  25.175  17.086   5.068
22704W        W94375  32.599  29.487  14.836
22705W        W94376   1.378  38.936  13.894
22706W        W94377  11.176   4.995  14.777
22707W        W94378  20.057  44.092   2.235
22708W        W94379   3.925  19.239   3.461
22709W        W94380  39.801  19.010   0.017
22710W        W94381  29.179  19.581   5.009
22711W        W94382  44.335   6.374  14.804
22712W        W94383  13.663  33.984   1.788
22713W        W94384   9.228  32.824  10.608
22714W        W94385   4.384  12.850  11.285
22715W        W94386   0.404   3.020   4.910
22716W        W94387  33.872  22.664  12.884
22717W        W94388  39.931  43.238   2.820
22718W        W94389  30.492  33.958  12.085
22719W        W94390  12.318  25.212   4.751
22720W        W94391  29.453  43.215  14.212
22721W        W94392  15.928  36.096   3.200
22722W        W94393   0.404   5.790   4.209
22723W        W94394   6.708  24.598   3.146
22724W        W94395   2.411  12.811  11.556
22725W        W94396  21.036  20.848  13.913
22726W        W94397  43.376  42.660   2.195
22727W        W94398   7.387  30.119  10.772
22728W        W94399  37.720   8.189  13.673
22729W        W94400  24.655  24.596   1.244
22730W        W94401  43.507  26.605  11.542
22731W        W94402  17.546  42.944   2.697
22732W        W94403  30.918   0.523  13.827
22733W        W94404  31.623  33.687  11.529
22734W        W94405  15.750  41.952  11.561
22735W        W94406   4.448  41.497   1.829
22736W        W94407  34.381  18.338  14.229
22737W        W94408   8.911   8.581  14.939
22738W        W94409  13.317  38.150  10.722
22739W        W94410  24.165   1.622   3.655
22740W        W94411  32.208  36.113   4.107
22741W        W94412  39.428  11.729   9.992
22742W        W94413  20.590  25.974  10.762
22743W        W94414   2.425   5.798  12.825
22744W        W94415  33.144  40.803   1.927
22745W        W94416  37.937  27.034  11.626
22746W        W94417  33.711  42.236  13.902
22747W        W94418  22.714  38.833   5.159
22748W        W94419  21.988  19.674   0.203
22749W        W94420   1.970  30.039  13.330
22750W        W94421  43.420  33.969  13.535
22751W        W94422  11.832  35.645  13.566
22752W        W94423  18.944  15.130   3.417
22753W        W94424  37.138   5.697   1.313
22754W        W94425  38.002   0.558   2.826
22755W        W94426  43.126   0.371   4.191
22756W        W94427   4.421  10.091  12.909
22757W        W94428  28.714   3.274   3.126
22758W        W94429   3.344   7.921   4.221
22759W        W94430  35.443  33.175  12.491
22760W        W94431  13.902  23.818  13.450
22761W        W94432   0.329  25.014  13.527
22762W        W94433  24.956  36.528  12.514
22763W        W94434  11.117  40.482  13.931
22764W        W94435  31.405  27.680   3.846
22765W        W94436   6.608  18.130   4.121
22766W        W94437   0.036   1.965  14.996
22767W        W94438  37.098  35.644   2.318
22768W        W94439  13.591   9.634   0.300
22769W        W94440  41.551  18.384  10.701
22770W        W94441  32.924   3.169  11.160
22771W        W94442  29.063  14.232  14.298
22772W        W94443  39.887  11.639  13.419
22773W        W94444   9.331  13.640  11.111
22774W        W94445  13.827   8.069   3.148
22775W        W94446  29.351  21.245  14.468
22776W        W94447  10.473   5.111  13.669
22777W        W94448  18.912  42.097   1.817
22778W        W94449  22.053  23.962   1.873
22779W        W94450  16.830  37.719   1.664
22780W        W94451   3.397  31.663   4.197
22781W        W94452  16.346  15.403  11.559
22782W        W94453  17.275   6.441  11.929
22783W        W94454  28.230  44.803   4.160
22784W        W94455  38.795   8.339  13.834
22785W        W94456  38.397   1.471  14.375
22786W        W94457  42.112  11.666  10.830
22787W        W94458  38.298  25.512   1.296
22788W        W94459  23.733   6.840   3.431
22789W        W94460  20.120  11.682  11.235
22790W        W94461  42.771  40.299  13.447
22791W        W94462  11.726  24.838  11.949
22792W        W94463  28.405   8.734  13.465
22793W        W94464   3.968  28.523   3.200
22794W        W94465  30.942  44.475  13.954
22795W        W94466  35.951  27.027   4.567
22796W        W94467  24.514  23.308  13.789
22797W        W94468   9.713  37.565   4.398
22798W        W94469  36.114  29.432   0.878
22799W        W94470  41.617   4.691  14.899
22800W        W94471  15.261  43.774   3.256
22801W        W94472   3.944  30.023   4.693
22802W        W94473  11.922  21.545   4.841
22803W        W94474  11.243  16.851   2.386
22804W        W94475  41.480  30.846  11.198
22805W        W94476  34.660  21.842  12.511
22806W        W94477  33.030  16.679  14.271
22807W        W94478   1.272  40.969   4.717
22808W        W94479   0.855  40.900   1.159
22809W        W94480  25.747  15.055   3.094
22810W        W94481  34.812  41.752   0.406
22811W        W94482   0.053  23.551  12.471
22812W        W94483  28.123   5.300   4.723
22813W        W94484  16.313  19.174  13.434
22814W        W94485  14.850  32.926  12.243
22815W        W94486  37.873   9.569  14.355
22816W        W94487  34.028  25.218  13.402
22817W        W94488  30.513  13.831  13.800
22818W        W94489  36.915  23.100  13.469
22819W        W94490  10.128  13.674   2.556
22820W        W94491  31.973  37.391   2.654
22821W        W94492  17.414   9.765   4.132
22822W        W94493   9.671  25.001  11.460
22823W        W94494   7.396  20.635  11.143
22824W        W94495  16.210  13.244   5.008
22825W        W94496   5.963  31.093   3.675
22826W        W94497   4.225  29.956  14.062
22827W        W94498   4.007  16.140   1.738
22828W        W94499  41.138  10.923  12.550
22829W        W94500  17.026  42.974   2.718
22830W        W94501   0.443  32.131  14.959
22831W        W94502  35.771  41.462   0.304
22832W        W94503  37.003  21.183  12.247
22833W        W94504  13.045  25.659   3.024
22834W        W94505   5.322   3.583   2.000
22835W        W94506  28.960  16.818  13.518
22836W        W94507  10.814  23.620  13.456
22837W        W94508  34.632  42.840  14.837
22838W        W94509  16.196   8.278   4.333
22839W        W94510  40.335  39.555   4.576
22840W        W94511  35.466  28.937   2.896
22841W        W94512  28.474  16.526  11.468
22842W        W94513  30.525  23.482   4.667
22843W        W94514  36.508   3.242   0.773
22844W        W94515   7.965  16.536  12.604
22845W        W94516  43.981   9.141   0.731
22846W        W94517  33.679  37.262   4.559
22847W        W94518  26.565  31.308   0.330
22848W        W94519  38.787  35.277   3.000
22849W        W94520  12.981  10.268   3.295
22850W        W94521  36.609  28.146  13.373
22851W        W94522   3.098  15.359   2.670
22852W        W94523  12.378   6.264  13.091
22853W        W94524  33.143  25.373  13.842
22854W        W94525  21.328   3.193   0.868
22855W        W94526   5.397  28.951  10.539
22856W        W94527  36.578   5.572  14.246
22857W        W94528  35.065  13.507  13.763
22858W        W94529  44.490  43.414  13.944
22859W        W94530  44.938  24.377  13.986
22860W        W94531  35.937   7.910   0.269
22861W        W94532  24.044  17.250   4.169
22862W        W94533   8.388  23.857  14.553
22863W        W94534  10.619  25.953  13.375
22864W        W94535  14.275  28.958   4.184
22865W        W94536  16.156  19.515   0.729
22866W        W94537  15.238  23.992  12.955
22867W        W94538   8.654   7.589   3.657
22868W        W94539  29.168  12.666  11.376
22869W        W94540  22.142  31.983   1.044
22870W        W94541  20.863  17.825   5.043
22871W        W94542  40.876   0.599   0.412
22872W        W94543   3.798  23.099   4.062
22873W        W94544  35.039   5.553  13.433
22874W        W94545  10.626  30.312  10.491
22875W        W94546   2.940   1.671  14.878
22876W        W94547  34.865   3.879  10.491
22877W        W94548   5.236   9.387   2.267
22878W        W94549  12.450  20.113  11.987
22879W        W94550  42.530  26.931  14.794
22880W        W94551   9.272  44.343   2.883
22881W        W94552  10.269   3.913   3.157
22882W        W94553   2.895   2.788  11.927
22883W        W94554  15.570  30.388   3.721
22884W        W94555   6.242  42.231   1.829
22885W        W94556   7.741   3.238  14.405
22886W        W94557  29.646  15.470   4.488
22887W        W94558  30.551  18.455   2.264
22888W        W94559  34.582   6.414  10.726
22889W        W94560  31.452  36.875  10.652
22890W        W94561  22.750  32.985  14.689
22891W        W94562  37.302  26.021   0.983
22892W        W94563  31.983  16.324  11.032
22893W        W94564  24.618  14.031   4.720
22894W        W94565  35.821   3.328   4.752
22895W        W94566  22.188   4.826   0.211
22896W        W94567  23.616  38.782   0.794
22897W        W94568  32.804  26.631  12.474
22898W        W94569  31.611   3.422  13.357
22899W        W94570  14.218  43.295  12.001
22900W        W94571  21.073  38.498  13.895
22901W        W94572  36.450   9.618   2.356
22902W        W94573   0.267  13.275   0.073
22903W        W94574   0.767  24.907  11.002
22904W        W94575  13.862  23.687  12.583
22905W        W94576  22.264  27.717   3.677
22906W        W94577   0.722  36.002  14.264
22907W        W94578  17.804  22.519   3.166
22908W        W94579  21.748   5.469  11.658
22909W        W94580  32.142  24.428  13.366
22910W        W94581  21.485   5.250   2.436
22911W        W94582  13.657  10.352  14.271
22912W        W94583  33.416  12.563   3.313
22913W        W94584   6.667  23.902  14.526
22914W        W94585  18.139  37.635  13.342
22915W        W94586  20.582  44.191   2.268
22916W        W94587   6.234  33.105   1.025
22917W        W94588   1.868   5.686   0.791
22918W        W94589  42.450  26.933  12.922
22919W        W94590   9.823  11.856   1.291
22920W        W94591  38.662   7.849   4.377
22921W        W94592   3.879  26.448  12.888
22922W        W94593  17.164  37.077  12.812
22923W        W94594  28.416   1.547   3.380
22924W        W94595  21.765   3.520   1.007
22925W        W94596  34.178  27.544   0.884
22926W        W94597  33.320   9.164   4.586
22927W        W94598  20.587  32.608  10.619
22928W        W94599   3.454  21.078   0.482
22929W        W94600  30.150  40.854   0.210
22930W        W94601  44.228  24.997  12.978
22931W        W94602  32.416  19.141   4.910
22932W        W94603  42.055  33.539   4.206
22933W        W94604  17.797  11.118   4.921
22934W        W94605  13.341   6.062  13.624
22935W        W94606  19.235  16.350  13.958
22936W        W94607  42.035  28.952   4.306
22937W        W94608  12.252  25.997   1.764
22938W        W94609   2.738  13.127   0.569
22939W        W94610  43.002  38.915  12.650
22940W        W94611   6.640  23.436  12.602
22941W        W94612   3.396  12.965  11.563
22942W        W94613   7.599  31.093  12.287
22943W        W94614  12.694  19.898  12.615
22944W        W94615  39.262   0.387   0.479
22945W        W94616  42.645  20.724   3.843
22946W        W94617  11.614   9.232  11.423
22947W        W94618  33.022  33.008  13.774
22948W        W94619  35.718  15.598  11.479
22949W        W94620  26.061  29.527   4.745
22950W        W94621  44.638  33.176  11.695
22951W        W94622   6.927  27.658   2.983
22952W        W94623   6.646  42.059  13.553
22953W        W94624  32.136  29.883   3.663
22954W        W94625  44.917  31.553   2.703
22955W        W94626   8.703  15.724   1.157
22956W        W94627  36.010  39.973  13.107
22957W        W94628  13.186  20.939  14.185
22958W        W94629  35.297  44.314   0.160
22959W        W94630  27.014  23.090  14.834
22960W        W94631  30.864  35.457  10.607
22961W        W94632  11.486  20.715  14.072
22962W        W94633  18.007  11.690  11.450
22963W        W94634   1.897  25.956  10.416
22964W        W94635  13.646  17.131   3.653
22965W        W94636   8.103  33.465   4.132
22966W        W94637  11.795  15.818   0.844
22967W        W94638   4.992  36.005   3.634
22968W        W94639   1.987  44.224   3.845
22969W        W94640  27.592  43.223  14.451
22970W        W94641  28.632  10.654  12.011
22971W        W94642  34.734   1.327  11.663
22972W        W94643  34.087  28.209  11.066
22973W        W94644   8.384  14.823  11.111
22974W        W94645  23.195  15.792  13.700
22975W        W94646  37.539   2.780   1.502
22976W        W94647   9.771  36.905  10.616
22977W        W94648   1.304  28.372  13.692
22978W        W94649  23.123  40.749   1.763
22979W        W94650  27.052  34.446   3.069
22980W        W94651  39.140  40.945  12.984
22981W        W94652  26.500  29.461   5.053
22982W        W94653   6.924  35.319  12.015
22983W        W94654  43.361  32.523   0.647
22984W        W94655  41.404  11.333   1.501
22985W        W94656  27.470  25.616  14.229
22986W        W94657   7.187  13.675  11.952
22987W        W94658  41.611  28.450  13.444
22988W        W94659  30.140   9.773  12.806
22989W        W94660   2.100  24.761  14.424
22990W        W94661  25.813  23.020  11.976
22991W        W94662   4.443  23.693  14.292
22992W        W94663  27.989  40.389   2.871
22993W        W94664   1.397  19.556  12.604
22994W        W94665  21.028  29.453   3.230
22995W        W94666  24.673  32.755  12.435
22996W        W94667  10.152  11.522   0.080
22997W        W94668  32.664  12.139   0.456
22998W        W94669  14.730  10.860  12.202
22999W        W94670  27.749  23.892   2.775
23000W        W94671  27.054  25.439   4.635
23001W        W94672  36.595  21.110  11.194
23002W        W94673  25.043   2.339  10.737
23003W        W94674   9.966   1.346   4.166
23004W        W94675   7.660  37.154   4.092
23005W        W94676   2.126  14.681   0.838
23006W        W94677   5.183  16.828   0.107
23007W        W94678  24.010  28.667   2.683
23008W        W94679  37.147  17.785   0.919
23009W        W94680  27.683  16.331  12.558
23010W        W94681  44.736  34.011  11.137
23011W        W94682  25.329  23.608   1.305
23012W        W94683  29.920  26.645   3.138
23013W        W94684  27.122  10.254  14.562
23014W        W94685  26.819  40.069   4.724
23015W        W94686   7.621  27.811  13.907
23016W        W94687  32.283  27.428  12.023
23017W        W94688  31.206  34.835  11.665
23018W        W94689  39.481   0.440   3.075
23019W        W94690  40.931  36.008  11.709
23020W        W94691   6.896  28.439   4.844
23021W        W94692  20.572  33.008  12.916
23022W        W94693  18.282   0.739  13.408
23023W        W94694  21.543  39.759  12.810
23024W        W94695  32.373  15.662  12.519
23025W        W94696  31.399  42.391  11.190
23026W        W94697  31.194   5.586   4.090
23027W        W94698  28.922  17.598  14.398
23028W        W94699  37.310  11.781   2.738
23029W        W94700  24.009  26.966  12.646
23030W        W94701  36.349   2.455  14.263
23031W        W94702  22.962  25.452  11.499
23032W        W94703   1.035  17.611   4.587
23033W        W94704  14.776  23.750  13.602
23034W        W94705  24.547  23.666  12.205
23035W        W94706  40.569  36.909   0.569
23036W        W94707  43.261   8.563   0.691
23037W        W94708  44.021  41.213   0.287
23038W        W94709   0.940  31.954  11.227
23039W        W94710  15.096   2.584   0.462
23040W        W94711  23.260  41.462   2.682
23041W        W94712  17.542  43.838   1.925
23042W        W94713  27.548   3.264  12.528
23043W        W94714  43.388  33.320  14.347
23044W        W94715   9.283  30.437   2.872
23045W        W94716  44.040  17.563   4.204
23046W        W94717  24.837  17.238  13.990
23047W        W94718   3.406   4.045  11.673
23048W        W94719  35.356  32.837   3.019
23049W        W94720   0.604  34.458   2.257
23050W        W94721   0.894  30.195  13.029
23051W        W94722  10.660   8.667   0.667
23052W        W94723  34.398  17.155   2.742
23053W        W94724  39.808  34.625   3.198
23054W        W94725  38.259  36.805   1.229
23055W        W94726  43.382   4.994   1.747
23056W        W94727  29.853  14.336  12.162
23057W        W94728  37.123  38.797   2.222
23058W        W94729  15.889   7.662  12.130
23059W        W94730  35.908  40.616   1.931
23060W        W94731   3.399  12.326  13.557
23061W        W94732  32.511  13.258  11.894
23062W        W94733  25.595  26.701   1.239
23063W        W94734  29.396  42.411   0.044
23064W        W94735   3.381  12.051   1.873
23065W        W94736  26.227  10.179   0.957
23066W        W94737  40.345  31.185   2.309
23067W        W94738   3.294  23.731  12.580
23068W        W94739  43.061  25.538   3.799
23069W        W94740   9.729  17.351  12.171
23070W        W94741  20.248  34.914  10.514
23071W        W94742  42.142  40.222  10.687
23072W        W94743  13.170   5.367   2.467
23073W        W94744  27.648  38.354   3.108
23074W        W94745   6.252   3.612  14.490
23075W        W94746  25.934  25.479  10.560
23076W        W94747   7.116  22.771   3.398
23077W        W94748  43.801  17.704   0.205
23078W        W94749  27.058  29.508   1.268
23079W        W94750   6.230  22.034  14.316
23080W        W94751   7.167  27.994   1.329
23081W        W94752   6.068   0.374   2.652
23082W        W94753   6.630  20.525   1.625
23083W        W94754  36.367  43.526   1.015
23084W        W94755  12.559  23.985   1.997
23085W        W94756  17.984  40.809   0.251
23086W        W94757  31.347  37.959   2.349
23087W        W94758  26.516  12.218   3.180
23088W        W94759  29.645  11.212   4.085
23089W        W94760  40.153  39.133   1.383
23090W        W94761  22.263  12.904  11.593
23091W        W94762  19.660  18.978   1.270
23092W        W94763   3.973  44.812  14.526
23093W        W94764  40.892  21.551   0.998
23094W        W94765  18.346  30.069  12.571
23095W        W94766   6.450  16.034  13.813
23096W        W94767  37.758   9.457   0.356
23097W        W94768  24.291  28.162  12.519
23098W        W94769  19.579  27.974  10.475
23099W        W94770   4.026   8.764  12.984
23100W        W94771  23.899  17.358  13.631
23101W        W94772  21.679  18.843  11.706
23102W        W94773  30.014   1.816   0.989
23103W        W94774  38.596  41.519  13.422
23104W        W94775  19.947  36.159  11.657
23105W        W94776  26.039  35.421  10.768
23106W        W94777  16.165  38.093   2.351
23107W        W94778  17.587   2.542   1.177
23108W        W94779  18.664  44.275  14.567
23109W        W94780  15.817  17.888  14.119
23110W        W94781  36.495   6.288  13.225
23111W        W94782  22.717  36.403   2.369
23112W        W94783  13.591  41.480  14.057
23113W        W94784  19.669  37.109   3.751
23114W        W94785  10.245  11.539   1.454
23115W        W94786  23.573   9.279   2.220
23116W        W94787  18.774  34.436  13.560
23117W        W94788   1.429   2.869   4.067
23118W        W94789  20.551  10.318   2.196
23119W        W94790  22.037  19.733   2.747
23120W        W94791  40.604   5.177  11.644
23121W        W94792  39.188  31.881   1.999
23122W        W94793  28.411   7.371   4.117
23123W        W94794  39.461  15.188  10.724
23124W        W94795  17.124  33.376   2.006
23125W        W94796  35.376   3.010  10.579
23126W        W94797  39.308  34.797  14.416
23127W        W94798   6.715  29.031  12.330
23128W        W94799  39.447  27.696   3.662
23129W        W94800  42.295   1.475   2.267
23130W        W94801  25.160   1.393   4.436
23131W        W94802  15.645  18.188  14.884
23132W        W94803  12.774   6.272  11.452
23133W        W94804  18.925  27.519  11.890
23134W        W94805   2.972   9.338   4.187
23135W        W94806  20.197  42.119   0.659
23136W        W94807  27.428  43.848  12.911
23137W        W94808  40.356  16.275   0.762
23138W        W94809   4.881  10.334  10.854
23139W        W94810  30.497  37.076   2.327
23140W        W94811   0.957  30.465   3.292
23141W        W94812  31.979  18.060  13.892
23142W        W94813   6.568  20.388   3.149
23143W        W94814  35.423  16.877   0.281
23144W        W94815   2.681   4.372   1.426
23145W        W94816   5.290  13.543  14.010
23146W        W94817  22.124  41.330   3.950
23147W        W94818  38.940  37.929  13.680
23148W        W94819  14.185   6.875  10.473
23149W        W94820  27.392  32.390  13.438
23150W        W94821   5.348  42.687   2.662
23151W        W94822  19.464  30.070  14.105
23152W        W94823   3.701  13.295   4.151
23153W        W94824  37.437   3.210  11.382
23154W        W94825  21.487  39.542  14.304
23155W        W94826  33.524  17.669  13.522
23156W        W94827   2.608  21.688  14.577
23157W        W94828  33.255  15.482   1.555
23158W        W94829   2.357   4.306   2.243
23159W        W94830   1.201   1.678   0.804
23160W        W94831  42.506  42.289  13.128
23161W        W94832  25.365   8.490  11.618
23162W        W94833  22.794  19.693  11.055
23163W        W94834   5.210  43.004  12.830
23164W        W94835  28.596  28.969  11.205
23165W        W94836   4.538  36.295   0.518
23166W        W94837  31.015  28.995  14.291
23167W        W94838  35.570  37.285  10.670
23168W        W94839  25.273   5.802  12.486
23169W        W94840  39.911  25.731   3.903
23170W        W94841  22.594  23.266   2.115
23171W        W94842  29.664  27.620  12.930
23172W        W94843  20.310  32.314   0.274
23173W        W94844  14.089  11.775  10.702
23174W        W94845  33.076  15.092  13.385
23175W        W94846  35.810  30.159   4.174
23176W        W94847  28.493  32.003   3.989
23177W        W94848  14.476  33.374  14.311
23178W        W94849   6.783   7.813   0.213
23179W        W94850   6.128  20.213   3.383
23180W        W94851  21.465  23.697   3.194
23181W        W94852  41.810   6.310   2.430
23182W        W94853   4.362  43.441   3.799
23183W        W94854  35.593   3.846   1.845
23184W        W94855  35.780  11.783   4.170
23185W        W94856   8.409  34.425  10.723
23186W        W94857  32.579  13.038   3.732
23187W        W94858  38.478  23.208   3.100
23188W        W94859   5.660  36.388   0.214
23189W        W94860   1.788  22.693   1.035
23190W        W94861   2.925  28.441   2.021
23191W        W94862  32.334  40.344   1.207
23192W        W94863  25.233  11.899  13.000
23193W        W94864  31.615   5.287   3.521
23194W        W94865   2.722  29.106   4.768
23195W        W94866  31.645  23.717  11.400
23196W        W94867  30.369  42.955   4.530
23197W        W94868  41.418  34.372  12.504
23198W        W94869  13.117  31.765  11.469
23199W        W94870  20.776  22.189   0.553
23200W        W94871  22.352  44.393   0.366
23201W        W94872  36.247  34.183   0.790
23202W        W94873  17.037  29.043   0.783
23203W        W94874  12.203   7.871   4.597
23204W        W94875  37.288  37.706   2.729
23205W        W94876  20.045  30.125   3.657
23206W        W94877  40.164  32.618  11.913
23207W        W94878  31.692  11.278   3.735
23208W        W94879  11.667  31.991   1.818
23209W        W94880   2.529  26.145   4.034
23210W        W94881  33.961  37.522   4.152
23211W        W94882  13.794   0.314  11.244
23212W        W94883  24.917  41.975   3.847
23213W        W94884   8.101  39.564  13.086
23214W        W94885   0.821   0.275  10.234
23215W        W94886  44.442   7.171  12.037
23216W        W94887  41.861  11.485   1.225
23217W        W94888  41.487  14.819   0.154
23218W        W94889  36.805  21.239   1.227
23219W        W94890   1.000  40.596  13.878
23220W        W94891  23.750  18.040  11.043
23221W        W94892  37.249  22.291  10.170
23222W        W94893  23.467  27.201  12.412
23223W        W94894  22.660   3.726  13.824
23224W        W94895   4.491  31.263  14.470
23225W        W94896  15.315   6.738  11.135
23226W        W94897   3.413  39.365  11.535
23227W        W94898  36.657  32.546   3.754
23228W        W94899  27.787  13.686  11.544
23229W        W94900  39.263  43.543  12.333
23230W        W94901  30.643  26.718   2.016
23231W        W94902  16.555  28.749   2.384
23232W        W94903  32.185  43.395  13.787
23233W        W94904  21.144   2.700  12.246
23234W        W94905  31.235  30.607   1.401
23235W        W94906   0.334   1.051  11.568
23236W        W94907  17.025  21.570  11.612
23237W        W94908   1.711  12.090  11.857
23238W        W94909  32.324  28.721   0.314
23239W        W94910  13.064  10.066  13.011
23240W        W94911  37.472   5.144   0.831
23241W        W94912  22.071  23.833  11.465
23242W        W94913  16.735  33.351  10.829
23243W        W94914  12.320   0.706  11.584
23244W        W94915  18.342  25.094  14.512
23245W        W94916  24.996  24.112  11.912
23246W        W94917  26.978   3.195  12.059
23247W        W94918  42.474  11.665   2.827
23248W        W94919  33.632  20.865  12.634
23249W        W94920  13.204  43.288   0.340
23250W        W94921  18.595  40.936  10.712
23251W        W94922  38.869  19.780   0.018
23252W        W94923  31.873  39.599  14.875
23253W        W94924  37.753   2.814  11.534
23254W        W94925  36.375  14.374  11.204
23255W        W94926  44.049  14.453   3.687
23256W        W94927  36.580   0.774   2.738
23257W        W94928  23.624  26.738  14.482
23258W        W94929  26.157  33.391  10.636
23259W        W94930   0.017  41.679   3.645
23260W        W94931  43.728  24.568  11.074
23261W        W94932  26.310  27.922  10.976
23262W        W94933  15.842  29.699  12.062
23263W        W94934  10.871  24.184   0.233
23264W        W94935  16.149  25.617  14.299
23265W        W94936  20.278  21.552  13.220
23266W        W94937  38.295   1.117  11.895
23267W        W94938  33.927  36.070  14.919
23268W        W94939  31.102  39.636  10.909
23269W        W94940   0.950  12.759  10.758
23270W        W94941  42.785  15.252  11.239
23271W        W94942  14.861  11.073   4.146
23272W        W94943   2.254  13.275  12.608
23273W        W94944  10.380  33.117   0.487
23274W        W94945  39.859  22.295  13.947
23275W        W94946  36.549  29.571   0.362
23276W        W94947  11.392  34.537   0.896
23277W        W94948  37.080  21.566  12.611
23278W        W94949  11.230  39.531  13.023
23279W        W94950  10.158   0.224  13.403
23280W        W94951  23.725   5.536  13.324
23281W        W94952  24.043  26.418  14.448
23282W        W94953  13.841   9.395   3.594
23283W        W94954  29.329  29.542   3.717
23284W        W94955  24.124  12.117  13.807
23285W        W94956  12.871  25.347  13.804
23286W        W94957  34.600  13.211   3.879
23287W        W94958  28.606  26.654  11.586
23288W        W94959  32.397  38.130   3.726
23289W        W94960   1.511  12.681   0.247
23290W        W94961   5.299   3.854  11.083
23291W        W94962  13.220  22.440   0.928
23292W        W94963   8.122  26.467  10.650
23293W        W94964  31.183  14.678   4.657
23294W        W94965  38.988  37.530  14.621
23295W        W94966   4.442  40.100   1.758
23296W        W94967   7.233  27.284   2.226
23297W        W94968  11.546  21.446  11.155
23298W        W94969  15.660  20.491  10.780
23299W        W94970   2.727  25.197   2.740
23300W        W94971  12.186  20.905   1.776
23301W        W94972  19.451  12.211  13.985
23302W        W94973   9.750  43.020  12.094
23303W        W94974  44.248  40.787  12.439
23304W        W94975  23.996  40.383   1.253
23305W        W94976  43.204  27.665   4.140
23306W        W94977  38.126   1.310  13.859
23307W        W94978   9.791  33.426  13.677
23308W        W94979  42.398  25.119  12.125
23309W        W94980  21.531  38.049   5.465
23310W        W94981  17.794  16.888   0.339
23311W        W94982   5.120  24.074  14.328
23312W        W94983   4.461  36.534  13.463
23313W        W94984  42.919  42.420   3.440
23314W        W94985  14.731  33.423   3.672
23315W        W94986   3.261  19.660   4.657
23316W        W94987  42.938  12.149  14.986
23317W        W94988  11.696   6.940   0.877
23318W        W94989  35.067  39.172   5.000
23319W        W94990  20.270   9.612  13.243
23320W        W94991   5.670  41.927  13.561
23321W        W94992  42.728  16.724  12.489
23322W        W94993  14.328  11.899  12.492
23323W        W94994  23.036  31.833   2.752
23324W        W94995   6.949   0.882   1.500
23325W        W94996  32.097  41.614  12.687
23326W        W94997  12.407   2.304  14.998
23327W        W94998  23.942   0.683   4.349
23328W        W94999  31.642  29.898   3.468
23329W        W95000  21.993  11.655   1.913
23330W        W95001  12.074   2.699   3.259
23331W        W95002  44.382  14.290   1.885
23332W        W95003  32.673  31.109  11.824
23333W        W95004  43.982  36.406   1.304
23334W        W95005  17.612  13.386   2.671
23335W        W95006  39.474   6.921   3.630
23336W        W95007  17.148   3.711   1.509
23337W        W95008  23.980  37.482   3.660
23338W        W95009  37.943  44.422  14.922
23339W        W95010  43.769   3.364   3.669
23340W        W95011  21.421  36.433   3.631
23341W        W95012  41.924  34.725   0.902
23342W        W95013  36.382  16.122   4.342
23343W        W95014   7.859  41.994  12.973
23344W        W95015  16.583   4.889   0.671
23345W        W95016   4.993   6.340   3.305
23346W        W95017  35.640  20.619   2.269
23347W        W95018  25.210  16.244  14.073
23348W        W95019  30.618  20.663   2.171
23349W        W95020  39.102  33.786   0.866
23350W        W95021  19.641  20.187  14.087
23351W        W95022  34.169  30.781  13.769
23352W        W95023   0.748  38.137  12.028
23353W        W95024  29.002  41.210   0.961
23354W        W95025  40.423  19.550   3.411
23355W        W95026   4.465  13.304   4.376
23356W        W95027   4.753  34.087   2.012
23357W        W95028  34.239  12.803   1.897
23358W        W95029   8.834  22.191  11.757
23359W        W95030  32.900  37.999   3.187
23360W        W95031  12.465   4.914   2.853
23361W        W95032   7.206  16.454   3.923
23362W        W95033  26.169  36.925   2.171
23363W        W95034  22.674   9.746  11.862
23364W        W95035  39.037  29.579  14.755
23365W        W95036  21.488  17.602   0.383
23366W        W95037   4.038  35.277  14.351
23367W        W95038   3.290  18.069   0.901
23368W        W95039  12.126  25.479  10.832
23369W        W95040  28.192  34.373   1.874
23370W        W95041  29.567  34.708  13.508
23371W        W95042  22.119   2.644  14.494
23372W        W95043  11.113  39.421  10.668
23373W        W95044  38.023  31.859   3.300
23374W        W95045  11.231   2.996  13.488
23375W        W95046  14.685   3.633   3.129
23376W        W95047  43.298  30.576  11.444
23377W        W95048  16.455   5.810  10.295
23378W        W95049  18.344  26.618  12.348
23379W        W95050  19.462  32.617   1.497
23380W        W95051  31.003  26.153  14.485
23381W        W95052  36.350  32.955   1.977
23382W        W95053  13.821  14.723  11.194
23383W        W95054  26.430   1.832  11.478
23384W        W95055  31.405  37.015   4.232
23385W        W95056   9.412  29.527  12.020
23386W        W95057  40.239   0.062   4.559
23387W        W95058  12.256  12.111   0.766
23388W        W95059  18.292  27.245  12.956
23389W        W95060  41.951   7.127  12.374
23390W        W95061  23.558  13.332  14.519
23391W        W95062  32.862  32.228   3.536
23392W        W95063   1.326  35.902  10.657
23393W        W95064   0.278  35.326  14.392
23394W        W95065  21.653  24.422   3.649
23395W        W95066  18.119  27.989  10.857
23396W        W95067  20.482  28.311   0.743
23397W        W95068  38.982  18.085   2.731
23398W        W95069  10.298  10.107  12.527
23399W        W95070   9.361   3.350   4.608
23400W        W95071  43.526  20.002   3.193
23401W        W95072  39.034  21.594  10.424
23402W        W95073  36.875  37.866   1.540
23403W        W95074  44.711  13.095   5.053
23404W        W95075   6.226  22.715  12.949
23405W        W95076  32.385  22.457   1.950
23406W        W95077   2.807  33.656   1.235
23407W        W95078  28.864  16.856   1.340
23408W        W95079   0.421  19.777   4.669
23409W        W95080  15.106   4.856  14.308
23410W        W95081   0.137  16.815  12.589
23411W        W95082  41.363  16.357   0.872
23412W        W95083  41.268   5.411   3.354
23413W        W95084  38.892  18.906   2.344
23414W        W95085  35.551  12.616  12.493
23415W        W95086  14.545  41.361   2.409
23416W        W95087  29.179  12.512   0.386
23417W        W95088  38.611  35.891  14.037
23418W        W95089  41.035  41.822   2.648
23419W        W95090  33.936  43.291   0.112
23420W        W95091  10.172  43.222   0.831
23421W        W95092  32.075   5.194   3.769
23422W        W95093  14.007  27.873  13.038
23423W        W95094  19.854  13.681  13.079
23424W        W95095  15.574  43.523   2.895
23425W        W95096  13.419  35.925  14.515
23426W        W95097   3.195  14.879   2.829
23427W        W95098   1.220  28.043   1.440
23428W        W95099   1.357  11.136   4.153
23429W        W95100  38.426   5.647   4.611
23430W        W95101  29.927  26.575  12.108
23431W        W95102  26.238  26.752   1.747
23432W        W95103  39.498  10.246   3.428
23433W        W95104  26.589  29.867  11.527
23434W        W95105   5.369  24.415   0.822
23435W        W95106  24.775  42.588   0.371
23436W        W95107  44.353  21.248  10.974
23437W        W95108  27.234  32.114  11.522
23438W        W95109   3.937  20.826   1.307
23439W        W95110  14.877  21.120   2.975
23440W        W95111   3.197  13.002   2.177
23441W        W95112   3.140  11.096  12.970
23442W        W95113  21.479  25.013   2.217
23443W        W95114   3.505   2.079   0.473
23444W        W95115  39.008  42.438   2.228
23445W        W95116  28.663  28.451  14.496
23446W        W95117  35.593   9.185  11.707
23447W        W95118   0.668  37.322  13.924
23448W        W95119   1.981  17.550   3.246
23449W        W95120  35.279  31.314   4.095
23450W        W95121  18.585   9.831   2.332
23451W        W95122   0.450  37.515   1.412
23452W        W95123  28.498   2.294  14.961
23453W        W95124  30.957  23.218  10.453
23454W        W95125  19.034  16.036  10.855
23455W        W95126  28.505  28.437   1.849
23456W        W95127   2.887  41.493  14.253
23457W        W95128  14.643   1.389  12.165
23458W        W95129  17.194   8.489  13.319
23459W        W95130   9.381  15.060   4.799
23460W        W95131  42.763   4.366   1.517
23461W        W95132  44.874  39.611  10.631
23462W        W95133  30.382   6.654   0.506
23463W        W95134   8.880   3.691   1.689
23464W        W95135  30.888   5.652  14.458
23465W        W95136  23.575  27.392   2.536
23466W        W95137  40.239   0.378  14.005
23467W        W95138   8.263  14.053   1.214
23468W        W95139   7.237  19.484  14.103
23469W        W95140  27.437  27.033   4.359
23470W        W95141  18.027  22.478  11.042
23471W        W95142  27.963   6.285   1.718
23472W        W95143  17.096  23.423   1.911
23473W        W95144  25.969  40.986   0.068
23474W        W95145  35.770  14.807   4.998
23475W        W95146  20.186  35.423   0.215
23476W        W95147   0.781  16.293  12.452
23477W        W95148   2.869  15.776  10.122
23478W        W95149  18.577  20.425  12.345
23479W        W95150  24.338  22.994  13.414
23480W        W95151  22.954  11.600   1.764
23481W        W95152   4.141  29.997  12.934
23482W        W95153  11.914  21.785  11.382
23483W        W95154  14.243  12.528  14.292
23484W        W95155  15.005  31.298   1.209
23485W        W95156  28.133  12.172  11.940
23486W        W95157   8.930   2.719  13.575
23487W        W95158  33.972  40.531   4.086
23488W        W95159  36.725   0.815   3.319
23489W        W95160  31.597  23.043   4.369
23490W        W95161  43.922   5.579   0.906
23491W        W95162   5.275   8.986  11.661
23492W        W95163  40.585   1.014   2.216
23493W        W95164  42.816  30.265  10.607
23494W        W95165   3.933  13.086  13.556
23495W        W95166   5.782  39.514  14.309
23496W        W95167   3.316  33.154   4.145
23497W        W95168   7.849  23.012   4.769
23498W        W95169  26.449  39.912   4.346
23499W        W95170   0.051  42.530   4.223
23500W        W95171  27.988  30.464  11.391
23501W        W95172  10.176  27.213   4.295
23502W        W95173  21.485   2.404   1.982
23503W        W95174  34.924  34.195  11.158
23504W        W95175  18.164  39.301   4.710
23505W        W95176  38.504  40.517   3.125
23506W        W95177   3.886  40.424  14.290
23507W        W95178  32.642   6.144  13.744
23508W        W95179   1.840  30.337   4.653
23509W        W95180  39.944   0.427   4.335
23510W        W95181   7.784  15.699   4.554
23511W        W95182  36.130  44.997  12.876
23512W        W95183  41.733  36.560  10.536
23513W        W95184   6.216  23.265  12.894
23514W        W95185  33.866  41.702  14.539
23515W        W95186  14.867  22.081   1.461
23516W        W95187   4.365  17.491  10.379
23517W        W95188  16.258  28.152   3.694
23518W        W95189  33.756   5.404   3.621
23519W        W95190  28.088  11.781  13.594
23520W        W95191  24.453   9.758   4.507
23521W        W95192   2.346  41.100   1.023
23522W        W95193  24.696  13.580   0.351
23523W        W95194   5.234  24.103   1.328
23524W        W95195  16.198   5.864   3.922
23525W        W95196  24.276  32.402   2.920
23526W        W95197  43.520  11.800  10.377
23527W        W95198  35.298   4.777  12.021
23528W        W95199  20.212  43.192  14.558
23529W        W95200  29.512  30.653   0.990
23530W        W95201   7.891  36.411  13.499
23531W        W95202  42.111  42.870   5.017
23532W        W95203  30.693  25.280  10.476
23533W        W95204  19.042   2.345   1.119
23534W        W95205  25.007  37.846  14.574
23535W        W95206  43.387  41.944  11.954
23536W        W95207  23.541  11.652   4.407
23537W        W95208   6.195  13.951  10.189
23538W        W95209  36.456  24.749   3.381
23539W        W95210   6.380  15.474   1.836
23540W        W95211  40.283   1.806  14.336
23541W        W95212  30.356  14.741   1.761
23542W        W95213   7.403  40.806   3.485
23543W        W95214  41.510   1.550  14.443
23544W        W95215  39.441  16.025   2.358
23545W        W95216  41.541  44.522  14.876
23546W        W95217  44.065  34.213   0.956
23547W        W95218  34.582  40.418  12.246
23548W        W95219  42.292  26.070   2.804
23549W        W95220   1.448  17.366   3.268
23550W        W95221  11.132  23.429  11.947
23551W        W95222  44.955  10.760  14.504
23552W        W95223  11.266   1.519  14.331
23553W        W95224  22.764  15.392  12.494
23554W        W95225  44.722  41.925   1.208
23555W        W95226  43.765   9.887  11.778
23556W        W95227  17.014  36.902   4.891
23557W        W95228  15.821  31.534   3.730
23558W        W95229  15.991  41.044  12.106
23559W        W95230  31.156  43.265   4.584
23560W        W95231   6.467  40.581  13.618
23561W        W95232   7.638   8.474  11.254
23562W        W95233  10.419  35.851   4.087
23563W        W95234  27.012  41.084   1.669
23564W        W95235   1.222  38.312  14.868
23565W        W95236  24.509  27.334   1.936
23566W        W95237  11.380  26.517  11.112
23567W        W95238   6.685  10.620   1.662
23568W        W95239  32.415  29.971  13.947
23569W        W95240   5.101  35.480  11.218
23570W        W95241   5.665  27.215  13.926
23571W        W95242  44.533  36.936  10.550
23572W        W95243  23.387  26.718   3.329
23573W        W95244  36.333  26.244   3.525
23574W        W95245  33.970   1.667   4.361
23575W        W95246  33.036  30.497  10.614
23576W        W95247   3.967  38.960  14.666
23577W        W95248   6.432  28.199   2.294
23578W        W95249  10.296  18.713   4.522
23579W        W95250  44.521  42.538   4.376
23580W        W95251  37.531  11.085   3.321
23581W        W95252  24.242  10.304   0.404
23582W        W95253  28.923   8.717  13.316
23583W        W95254  43.551  13.551   1.374
23584W        W95255  33.226  29.118   4.586
23585W        W95256  10.673  23.547  10.729
23586W        W95257   7.272  42.282  14.497
23587W        W95258  40.759  13.966  13.732
23588W        W95259   4.824  37.366   4.642
23589W        W95260  22.390  26.450  10.102
23590W        W95261   3.767   4.833   0.970
23591W        W95262  14.300  28.703  14.893
23592W        W95263   6.122  34.024   2.373
23593W        W95264  12.751  14.841   2.645
23594W        W95265  24.552  22.677   4.378
23595W        W95266  17.965  17.325  13.819
23596W        W95267  21.693  27.026  10.987
23597W        W95268  42.936  10.600  11.080
23598W        W95269  11.889  44.607  12.725
23599W        W95270  12.803  35.828   3.769
23600W        W95271  34.376  19.277   2.957
23601W        W95272  39.295  31.356   2.205
23602W        W95273  15.559  22.559  14.426
23603W        W95274  40.598   5.826   2.285
23604W        W95275  27.594  39.933   1.460
23605W        W95276  39.021  21.580   0.435
23606W        W95277  11.370  40.793  11.135
23607W        W95278   3.454  20.728   4.601
23608W        W95279  23.934  14.231  13.052
23609W        W95280  11.065  19.733  12.015
23610W        W95281  43.806  30.094  14.379
23611W        W95282  17.205   4.112  10.434
23612W        W95283  35.812   1.935   4.377
23613W        W95284  16.941  43.921   3.708
23614W        W95285  43.661  24.016   3.752
23615W        W95286  43.828  31.018  13.953
23616W        W95287   6.849   5.732  12.844
23617W        W95288  34.485  19.335  11.426
23618W        W95289  17.835  27.608   2.292
23619W        W95290  31.465  12.393   3.620
23620W        W95291  26.048  15.059  12.506
23621W        W95292   0.798   4.867   4.525
23622W        W95293   6.172  37.572  11.519
23623W        W95294  38.585  42.853  13.930
23624W        W95295  18.707  14.126   9.941
23625W        W95296  31.702  21.104  12.006
23626W        W95297   7.391  18.687  10.719
23627W        W95298   7.237  39.256  13.352
23628W        W95299  28.491  20.543  11.842
23629W        W95300  18.614  23.243   3.246
23630W        W95301  34.973  34.714  11.357
23631W        W95302  41.019  31.359   0.257
23632W        W95303   0.679   9.244  14.828
23633W        W95304  14.426  38.403  14.996
23634W        W95305  25.582   5.228   1.294
23635W        W95306  10.589  26.480   4.674
23636W        W95307  35.851  16.264  14.905
23637W        W95308  15.090  24.174   4.812
23638W        W95309  37.606  41.336  13.263
23639W        W95310  23.592  44.346  13.934
23640W        W95311  18.520   5.184  12.570
23641W        W95312  16.614  26.088  13.113
23642W        W95313   9.597  32.643   1.339
23643W        W95314  29.904  31.360   1.734
23644W        W95315  43.329  36.947  13.297
23645W        W95316   9.637  25.677   4.171
23646W        W95317   5.212   1.215   0.179
23647W        W95318   5.812  30.989  13.741
23648W        W95319  10.302   3.967   1.900
23649W        W95320  44.964  17.352   0.774
23650W        W95321   5.811  19.112  10.708
23651W        W95322  37.019  21.573  13.113
23652W        W95323   2.352  34.028   0.668
23653W        W95324  10.422  38.073   3.181
23654W        W95325  25.578  13.138   3.420
23655W        W95326  25.678  22.628  13.476
23656W        W95327   1.357  36.301  13.557
23657W        W95328  29.103  31.859   1.231
23658W        W95329  37.723  36.906   5.197
23659W        W95330   0.616  15.310   3.853
23660W        W95331  22.107  10.260  10.724
23661W        W95332  19.968  39.418  11.563
23662W        W95333   6.741  18.665  14.726
23663W        W95334  44.844  19.736   5.361
23664W        W95335  19.746  16.776  12.796
23665W        W95336  37.466  37.342   1.876
23666W        W95337  16.200   0.470   0.398
23667W        W95338   0.420  12.646   2.599
23668W        W95339  23.477   5.760  12.934
23669W        W95340  24.546  35.859  12.039
23670W        W95341  23.138  34.799  13.910
23671W        W95342   6.915  41.914  11.621
23672W        W95343  17.176   4.810   3.660
23673W        W95344  18.032  39.865   2.796
23674W        W95345   4.274  16.605  13.422
23675W        W95346  20.149  39.535  10.609
23676W        W95347  15.136  20.307  10.707
23677W        W95348  40.501   3.780   3.628
23678W        W95349  26.697  12.750  12.912
23679W        W95350   8.877   3.893  11.926
23680W        W95351   3.248  31.508  11.512
23681W        W95352  39.881   6.947   1.266
23682W        W95353  24.648  36.004   1.260
23683W        W95354  12.602  18.744  12.117
23684W        W95355  21.489  42.058  12.467
23685W        W95356   3.495  20.044  11.959
23686W        W95357  42.801  22.692  10.262
23687W        W95358  11.278  37.949   3.713
23688W        W95359  15.507   7.537   0.813
23689W        W95360  26.659   2.304  13.761
23690W        W95361  14.867  20.116  13.012
23691W        W95362  35.593  11.307   2.271
23692W        W95363  12.719  31.590   3.170
23693W        W95364  26.561  40.517   2.287
23694W        W95365  34.528  17.769  12.105
23695W        W95366   6.890  44.462  14.965
23696W        W95367  11.282  34.405   1.825
23697W        W95368  16.596  22.496  13.048
23698W        W95369   3.828  44.453  11.524
23699W        W95370  29.985  20.707   4.767
23700W        W95371  23.795  28.727  10.254
23701W        W95372   9.960   2.893  14.366
23702W        W95373  20.232  11.885  14.429
23703W        W95374  21.902  24.011   4.930
23704W        W95375  35.390   8.294   4.469
23705W        W95376   2.425  33.034  13.315
23706W        W95377   7.473  41.087   0.444
23707W        W95378  22.663  42.534  11.639
23708W        W95379  41.767  43.515  14.925
23709W        W95380   5.168   3.925  11.602
23710W        W95381  17.507  25.591   2.554
23711W        W95382  30.176   8.136  13.531
23712W        W95383  35.578  30.888  14.550
23713W        W95384  10.092  19.466   2.261
23714W        W95385  34.135  39.290   1.276
23715W        W95386  41.892  31.252   0.081
23716W        W95387   9.676   1.961  10.742
23717W        W95388  16.639  20.946   9.986
23718W        W95389  36.114  42.693  12.431
23719W        W95390  25.963  25.081   2.378
23720W        W95391  41.428   0.340  13.496
23721W        W95392   3.320  41.852  12.499
23722W        W95393   9.257  29.087   4.128
23723W        W95394  15.633  16.787  14.922
23724W        W95395  35.536  13.685   2.656
23725W        W95396  43.756  39.332   4.140
23726W        W95397   1.313  19.059  12.469
23727W        W95398  30.885   6.015  12.901
23728W        W95399  22.829  30.914  12.006
23729W        W95400  13.008  31.825  11.975
23730W        W95401   1.001  29.620   3.579
23731W        W95402  12.597  33.008   0.882
23732W        W95403  27.393   9.896  11.933
23733W        W95404  15.597  27.431   3.815
23734W        W95405  18.660  11.426  14.937
23735W        W95406  41.911  32.896   2.418
23736W        W95407  11.413  11.843   3.244
23737W        W95408  37.393  41.217  11.299
23738W        W95409  25.470  10.327  11.392
23739W        W95410  27.742  34.579   0.809
23740W        W95411  14.858  30.397   1.169
23741W        W95412  39.792  21.136   3.342
23742W        W95413   5.892   5.751  14.077
23743W        W95414  33.360  26.255   0.712
23744W        W95415  32.366  22.471  14.157
23745W        W95416  14.234  35.589   2.245
23746W        W95417  44.349  43.030   2.658
23747W        W95418  26.239  27.512   4.117
23748W        W95419  22.222  19.189   1.981
23749W        W95420  25.419  33.935  13.463
23750W        W95421  42.777  22.923   4.651
23751W        W95422  33.641   0.734  13.253
23752W        W95423  43.887  38.039   3.200
23753W        W95424   1.719  40.942  11.533
23754W        W95425  19.689   6.965   0.562
23755W        W95426  27.962  13.424   1.204
23756W        W95427   1.210   7.960  13.801
23757W        W95428  29.843  23.282   2.211
23758W        W95429  35.855  43.971   0.417
23759W        W95430  41.491   3.412  12.194
23760W        W95431  32.186  19.832  10.789
23761W        W95432  11.787  14.593  10.677
23762W        W95433  18.867  28.671  14.006
23763W        W95434   6.756  33.590  12.684
23764W        W95435  34.614  13.871  10.956
23765W        W95436  38.766  13.597  11.819
23766W        W95437  28.612  28.930   0.003
23767W        W95438  24.225  14.589   1.409
23768W        W95439   1.904  18.428  11.575
23769W        W95440   5.246  24.936  14.813
23770W        W95441  41.549   1.396   3.169
23771W        W95442  42.726  31.188  13.970
23772W        W95443  28.351  41.537  12.522
23773W        W95444  21.056  39.372   0.693
23774W        W95445  11.117  27.048   0.661
23775W        W95446  28.927  13.210  13.506
23776W        W95447   7.286  41.547   4.963
23777W        W95448  16.531   4.167  14.926
23778W        W95449  24.690  17.930   4.597
23779W        W95450  18.234  16.580  13.318
23780W        W95451   7.388   0.955  12.519
23781W        W95452  18.055  24.127  10.669
23782W        W95453  26.487  37.338   0.785
23783W        W95454  42.510  40.504  14.800
23784W        W95455  39.254  23.628   0.679
23785W        W95456  38.694  22.349   2.654
23786W        W95457  31.451  32.632  14.484
23787W        W95458  19.118  39.321   0.502
23788W        W95459  34.340   2.758  14.365
23789W        W95460  28.583  37.949  12.800
23790W        W95461   7.312  30.504  13.519
23791W        W95462  18.005  35.677  12.449
23792W        W95463  31.099  24.548  10.725
23793W        W95464  19.477   7.433   4.880
23794W        W95465  36.292  22.840   2.011
23795W        W95466  17.270  16.184   2.896
23796W        W95467  16.294  28.394  13.352
23797W        W95468   6.037   9.969   4.501
23798W        W95469  27.216  44.741   0.246
23799W        W95470  16.595  10.584   0.994
23800W        W95471  20.064   4.726  14.584
23801W        W95472  20.079  13.837  14.232
23802W        W95473  29.401  10.735   4.031
23803W        W95474  29.447  19.205   4.575
23804W        W95475  15.152  36.396   4.547
23805W        W95476  42.355   9.058   0.803
23806W        W95477  12.068  39.780  14.435
23807W        W95478  20.306  12.764  13.107
23808W        W95479   4.241  28.149  13.376
23809W        W95480  44.834  25.636  11.509
23810W        W95481   8.643  37.343  11.461
23811W        W95482  25.544  12.890  11.736
23812W        W95483  35.443  25.909  11.757
23813W        W95484  44.691  12.394  12.972
23814W        W95485   7.293  29.570  11.637
23815W        W95486  18.470  29.861  14.260
23816W        W95487   7.368  10.054   1.676
23817W        W95488  27.029  39.751   1.070
23818W        W95489  24.494   2.390   1.900
23819W        W95490   0.482   4.325   3.422
23820W        W95491  34.235  44.739  13.998
23821W        W95492   5.858   6.353  11.219
23822W        W95493  34.395  40.204   4.066
23823W        W95494  25.772  17.884  10.247
23824W        W95495  12.781  21.947  14.885
23825W        W95496  31.246  16.212  11.533
23826W        W95497   9.693  26.250  14.415
23827W        W95498   9.245  17.105  10.754
23828W        W95499  21.986  26.551  12.545
23829W        W95500  34.913  40.344   5.124
23830W        W95501  19.211  13.128   3.263
23831W        W95502  17.607   9.173  10.588
23832W        W95503  37.332  37.344  14.078
23833W        W95504  34.633  10.329   1.054
23834W        W95505  23.305  35.941  11.117
23835W        W95506  15.487  18.586   4.224
23836W        W95507  11.737  44.818  14.562
23837W        W95508   7.177   7.744  11.556
23838W        W95509  35.388  10.416  14.263
23839W        W95510  31.545   1.990   4.552
23840W        W95511  40.020  27.645  11.512
23841W        W95512   1.514  26.674  10.740
23842W        W95513   5.984  39.103   4.577
23843W        W95514  36.444  39.125  14.355
23844W        W95515  32.522  42.371   4.080
23845W        W95516   6.389   9.774   3.314
23846W        W95517  26.152   6.209   1.862
23847W        W95518  35.192  21.489   3.201
23848W        W95519  38.383  30.000  11.527
23849W        W95520  26.650   8.243   1.478
23850W        W95521   2.921  15.174  11.664
23851W        W95522   5.071  15.306   1.814
23852W        W95523   1.220  37.530  13.346
23853W        W95524   7.599  42.416   2.193
23854W        W95525  44.395  31.414   4.532
23855W        W95526  20.169   0.495   2.711
23856W        W95527  23.091  37.754   4.473
23857W        W95528   5.889  34.058   1.761
23858W        W95529  13.472  32.393   1.870
23859W        W95530   0.384  27.056   1.729
23860W        W95531  29.725  15.088  11.757
23861W        W95532   8.965  39.000   2.381
23862W        W95533  10.897   0.887   1.755
23863W        W95534  42.506  40.987  10.232
23864W        W95535   6.738  28.951  11.420
23865W        W95536  21.509  30.852   2.213
23866W        W95537   0.142   4.827   2.252
23867W        W95538  12.811  12.365  13.038
23868W        W95539   1.063  28.122  11.094
23869W        W95540  18.779   8.687  10.593
23870W        W95541   4.947  31.487   0.373
23871W        W95542   3.412  12.930   0.881
23872W        W95543  37.116  25.355  11.576
23873W        W95544  12.218  33.787  13.505
23874W        W95545  37.833   9.148  11.104
23875W        W95546   0.700  15.812  10.685
23876W        W95547  42.997  36.177   2.421
23877W        W95548   9.220  44.639  12.764
23878W        W95549  14.036   6.265   2.148
23879W        W95550   3.458  18.241  10.938
23880W        W95551  26.147  15.265  12.986
23881W        W95552  14.767   7.585  13.550
23882W        W95553  25.638  35.021   1.324
23883W        W95554  39.331  37.937   1.056
23884W        W95555  30.559  35.437   2.873
23885W        W95556  22.829   8.727  12.445
23886W        W95557  40.541   9.553   3.706
23887W        W95558  41.372  34.565   4.632
23888W        W95559  38.717  24.500  12.218
23889W        W95560  26.698  12.052  12.371
23890W        W95561   2.894   6.769   2.740
23891W        W95562   9.850  33.298   3.213
23892W        W95563  41.814  33.781   3.795
23893W        W95564   8.048  33.461   2.815
23894W        W95565  21.683  21.998  12.030
23895W        W95566   6.843  44.806  12.137
23896W        W95567  30.587  37.782  13.190
23897W        W95568  18.875  20.341  13.590
23898W        W95569   7.766   9.390  11.685
23899W        W95570  37.161  31.631  11.650
23900W        W95571  14.295   4.691   5.125
23901W        W95572  22.599  18.974   2.740
23902W        W95573   2.671  21.021  13.521
23903W        W95574  22.829  12.106  13.840
23904W        W95575  27.436  23.330   0.724
23905W        W95576  21.980  11.926  11.489
23906W        W95577  20.669  20.708  10.556
23907W        W95578  28.438  37.535  12.494
23908W        W95579  39.604  10.788   0.410
23909W        W95580  41.639   7.120   1.424
23910W        W95581  44.777   1.921  11.580
23911W        W95582  14.022  24.978  10.849
23912W        W95583  44.358  17.674   3.003
23913W        W95584  29.572  38.817   1.165
23914W        W95585  22.782  24.266  11.927
23915W        W95586  16.647  22.678   1.889
23916W        W95587   8.316  22.346  14.194
23917W        W95588  28.361  43.082   3.657
23918W        W95589  33.894   3.524   1.471
23919W        W95590  16.554  16.617   4.740
23920W        W95591  34.416  10.761   3.669
23921W        W95592  21.716  11.218  12.877
23922W        W95593  43.223  20.175   0.421
23923W        W95594  21.486  27.592   0.472
23924W        W95595  40.031   4.817  12.403
23925W        W95596   8.122  28.509  14.245
23926W        W95597  24.207   3.514   2.658
23927W        W95598  19.540  27.199  11.123
23928W        W95599  31.904  32.823  11.512
23929W        W95600  37.000   4.960  12.473
23930W        W95601   6.200  26.961   0.207
23931W        W95602   4.420  39.096   1.925
23932W        W95603  16.095  34.411   3.296
23933W        W95604  40.054  25.062  14.652
23934W        W95605  36.453  14.609  12.095
23935W        W95606  35.837   9.365   4.165
23936W        W95607  32.986  43.262  14.405
23937W        W95608   6.527  41.218  10.994
23938W        W95609  24.935   5.201  13.631
23939W        W95610  19.681  38.427   3.812
23940W        W95611  43.857  37.642  13.342
23941W        W95612  14.294   7.392   4.517
23942W        W95613  41.259  43.020   2.807
23943W        W95614  39.983  10.405   5.172
23944W        W95615   4.504  14.583   2.331
23945W        W95616  24.792  22.014  11.477
23946W        W95617  16.079  11.869   3.286
23947W        W95618   9.358   6.877   1.901
23948W        W95619  22.733  23.048   3.095
23949W        W95620  38.817  26.989  12.639
23950W        W95621  39.705  10.360  13.082
23951W        W95622   7.750  24.517   1.473
23952W        W95623  30.010  36.085  10.644
23953W        W95624  19.189  34.807  12.099
23954W        W95625   6.926   6.111  13.550
23955W        W95626  38.871   6.243   3.693
23956W        W95627  10.870  41.724  12.431
23957W        W95628  36.986  23.628  11.633
23958W        W95629  17.880  24.459   0.361
23959W        W95630   8.241  31.492  13.263
23960W        W95631  24.762  40.750  13.871
23961W        W95632  23.423  37.279  13.465
23962W        W95633   1.128  12.866  12.170
23963W        W95634  27.127   4.488  10.746
23964W        W95635  31.415  30.112  13.795
23965W        W95636   8.941  37.709   2.356
23966W        W95637   7.534  22.029   1.831
23967W        W95638  28.583  22.624  12.324
23968W        W95639   6.811   8.330   4.573
23969W        W95640  20.063  42.439   0.226
23970W        W95641  26.631  40.506   0.295
23971W        W95642  34.890  31.304   4.443
23972W        W95643  25.434  27.578  11.216
23973W        W95644   5.708   2.292  10.999
23974W        W95645  43.432  41.342  14.438
23975W        W95646   3.769  32.356  14.418
23976W        W95647  37.940  13.958   4.882
23977W        W95648  44.388  42.553  14.733
23978W        W95649  25.545  35.975  11.113
23979W        W95650  25.736  34.582   2.151
23980W        W95651  42.917   3.792   0.335
23981W        W95652  42.273  19.363   3.485
23982W        W95653  42.353  19.617   2.982
23983W        W95654  31.211  27.898  11.126
23984W        W95655  32.128  41.971  11.480
23985W        W95656  20.493  21.293  10.361
23986W        W95657  10.741  14.819  12.285
23987W        W95658  43.249  19.574   3.352
23988W        W95659  30.879  35.961   3.839
23989W        W95660  17.582   3.699   1.803
23990W        W95661  36.470  31.563  13.769
23991W        W95662  43.863  28.413  11.917
23992W        W95663  25.647   4.140  13.078
23993W        W95664  11.071  30.452   1.282
23994W        W95665  35.136  23.448  11.083
23995W        W95666  11.259  39.332  13.868
23996W        W95667  12.259  27.641   3.404
23997W        W95668  42.753  44.384   2.214
23998W        W95669  10.832  22.613   2.924
23999W        W95670   1.388  38.028  11.184
24000W        W95671  18.818  27.375   3.392
24001W        W95672  13.790  41.207  11.749
24002W        W95673  27.550  13.732   1.326
24003W        W95674  43.511  43.432   3.982
24004W        W95675   4.272  34.075  13.755
24005W        W95676  44.840  44.787   4.927
24006W        W95677   9.896   6.905   2.322
24007W        W95678   1.248  26.150  14.877
24008W        W95679  16.128  21.594  11.403
24009W        W95680  40.979  43.584   1.940
24010W        W95681  20.097  14.211   0.843
24011W        W95682  31.182   1.965  14.238
24012W        W95683  44.173  26.911   3.538
24013W        W95684  25.897   7.609   0.372
24014W        W95685  13.358   6.908   1.587
24015W        W95686  19.509   1.024  14.556
24016W        W95687   4.591  34.500  13.722
24017W        W95688   9.250  36.166  14.437
24018W        W95689  25.953  28.919  12.436
24019W        W95690  44.690  20.461  14.524
24020W        W95691  17.146  40.341  14.883
24021W        W95692  11.250  25.713  14.866
24022W        W95693  16.833   3.242  10.387
24023W        W95694  18.100  33.841   2.291
24024W        W95695  28.569   2.682  13.810
24025W        W95696  28.055  18.499   0.591
24026W        W95697  31.491  43.332   0.274
24027W        W95698  22.593  27.114   1.597
24028W        W95699  13.379  11.569   1.207
24029W        W95700  24.134  43.852  12.675
24030W        W95701   2.565  25.465   0.813
24031W        W95702   2.961  39.235   3.844
24032W        W95703   0.515   7.253   4.142
24033W        W95704  41.111  21.457   3.659
24034W        W95705  25.768  10.008   1.348
24035W        W95706  21.173  19.070  10.787
24036W        W95707  34.680  33.519  14.559
24037W        W95708  40.048  12.089  13.548
24038W        W95709  25.652  38.420   3.137
24039W        W95710  33.470  21.604  13.901
24040W        W95711   2.693  14.805   4.410
24041W        W95712  10.887   4.328  12.939
24042W        W95713   2.007  38.856   3.673
24043W        W95714   6.342  13.157  14.882
24044W        W95715  23.033  33.512  11.629
24045W        W95716  14.248  37.632  12.145
24046W        W95717  44.810   6.420   0.130
24047W        W95718   8.803   9.411   2.235
24048W        W95719  24.155  32.384  14.923
24049W        W95720  42.365  29.466  10.564
24050W        W95721  33.660  21.439   1.878
24051W        W95722  28.291   4.361   1.286
24052W        W95723  30.852   1.414   0.628
24053W        W95724   3.195   9.293   4.678
24054W        W95725  32.893  13.067  13.620
24055W        W95726   8.135  30.185   2.679
24056W        W95727  24.038  33.405   1.353
24057W        W95728  41.366  15.076  12.394
24058W        W95729  12.625  40.464   4.245
24059W        W95730  31.004  43.674   4.882
24060W        W95731   8.835  15.615  13.336
24061W        W95732  37.337   4.930   2.313
24062W        W95733   3.882   7.065  10.808
24063W        W95734  32.102  21.221  13.804
24064W        W95735   7.689  15.550  10.772
24065W        W95736  11.110  12.282  12.537
24066W        W95737  11.948  26.099   5.022
24067W        W95738  24.824  42.492   4.020
24068W        W95739   3.759  41.202   2.140
24069W        W95740   2.407  20.391   4.896
24070W        W95741  19.619   2.040  13.115
24071W        W95742  33.317  22.663  12.010
24072W        W95743  26.028  19.115  10.772
24073W        W95744  21.105  42.507   0.939
24074W        W95745  17.673  13.270   0.184
24075W        W95746  33.588  10.094   1.912
24076W        W95747  15.107  19.132   3.631
24077W        W95748  44.510  33.617  14.002
24078W        W95749  37.092   0.011   2.744
24079W        W95750   6.220  30.412  10.330
24080W        W95751  23.565   2.828   3.186
24081W        W95752  33.175   9.553   1.558
24082W        W95753  26.777   2.329   0.147
24083W        W95754  21.660   6.194   0.058
24084W        W95755  23.768  41.307   0.289
24085W        W95756   1.235  43.691   1.634
24086W        W95757  17.208   5.962   4.587
24087W        W95758   2.048  10.109   0.911
24088W        W95759  13.666  14.965  12.950
24089W        W95760  37.055  29.244   1.205
24090W        W95761  28.054  28.827  13.929
24091W        W95762  16.097  12.280  13.493
24092W        W95763  41.890  24.564  13.852
24093W        W95764  19.342  34.355   1.818
24094W        W95765  18.061   0.350  12.466
24095W        W95766  10.630   8.383   3.630
24096W        W95767  33.023  30.386  11.852
24097W        W95768  35.496  23.796  12.055
24098W        W95769  19.657  12.895  12.436
24099W        W95770  33.668  22.658   1.005
24100W        W95771   6.451  31.389   4.312
24101W        W95772  44.375  14.611   1.176
24102W        W95773  21.567  36.813  14.991
24103W        W95774  30.056  35.268  14.436
24104W        W95775  13.701  33.452  12.586
24105W        W95776  43.459   9.156  13.808
24106W        W95777  36.956  13.571   2.244
24107W        W95778  17.304  25.646  13.565
24108W        W95779  38.537  21.751  14.198
24109W        W95780   5.786  15.954   3.887
24110W        W95781  34.911  20.679  12.474
24111W        W95782  14.141   0.521  14.744
24112W        W95783  13.859   3.904   0.981
24113W        W95784  19.113  26.148   0.751
24114W        W95785  32.591  36.510   2.837
24115W        W95786  12.670  29.025   0.410
24116W        W95787  37.030  42.712   4.167
24117W        W95788  34.799  29.969  11.692
24118W        W95789  18.645   4.407  13.278
24119W        W95790  39.074  43.940   2.712
24120W        W95791   3.936  20.097   1.906
24121W        W95792   7.729  30.968  14.145
24122W        W95793   5.295  34.105  10.767
24123W        W95794  43.278  31.522  14.596
24124W        W95795   3.169  38.424   1.669
24125W        W95796   1.311   8.919   0.329
24126W        W95797  33.448  29.722   4.146
24127W        W95798  22.648   6.364  14.047
24128W        W95799  11.348  38.218   4.288
24129W        W95800  44.405  34.508  11.641
24130W        W95801  41.949  15.200   3.409
24131W        W95802  18.906  42.232   4.600
24132W        W95803  18.258  15.533   0.448
24133W        W95804  43.059  37.446   1.901
24134W        W95805  19.210  25.757  10.723
24135W        W95806  21.824  14.260   2.690
24136W        W95807  28.028  13.236  11.618
24137W        W95808  26.402  26.149   3.242
24138W        W95809  30.459  35.006  11.105
24139W        W95810  28.466  30.917  12.107
24140W        W95811   2.270  28.326   3.210
24141W        W95812  28.054  11.783  14.617
24142W        W95813  37.488   4.871  12.379
24143W        W95814  37.550  38.889   5.445
24144W        W95815  42.898  24.282  14.762
24145W        W95816   3.374  27.547  12.543
24146W        W95817  20.058  40.695   1.682
24147W        W95818  39.762  44.301  14.348
24148W        W95819  24.701  25.619   2.182
24149W        W95820  37.583   7.375  11.110
24150W        W95821  44.735   7.056  14.298
24151W        W95822  15.572  17.745  14.562
24152W        W95823  39.277  27.279  14.774
24153W        W95824  37.604  26.527   3.196
24154W        W95825   2.775  12.224  10.668
24155W        W95826  43.828  24.533  11.970
24156W        W95827  39.204  28.535  12.563
24157W        W95828  30.138  33.386   1.846
24158W        W95829  21.332  28.778  12.955
24159W        W95830  34.048  42.474   1.121
24160W        W95831  36.615  13.591  11.864
24161W        W95832   2.451  40.810   4.702
24162W        W95833  20.650   4.909   0.803
24163W        W95834  32.354  33.816  12.561
24164W        W95835  22.970  33.126   2.432
24165W        W95836   8.422  27.744  13.376
24166W        W95837  44.915   2.191  12.081
24167W        W95838  20.090  31.599   2.722
24168W        W95839  31.505  43.368  13.372
24169W        W95840  21.563  43.821   0.478
24170W        W95841  42.952   6.672  11.848
24171W        W95842  25.584  30.631  14.386
24172W        W95843  41.337   3.427  14.327
24173W        W95844   5.232  21.351  11.200
24174W        W95845  33.568   7.927  14.351
24175W        W95846  23.563  42.089   2.746
24176W        W95847  14.261  22.726   4.449
24177W        W95848   0.856  18.406  10.649
24178W        W95849  29.273  31.452  12.104
24179W        W95850  29.434  28.698   0.795
24180W        W95851  26.544  12.780   1.183
24181W        W95852   8.342  24.367   0.862
24182W        W95853  27.477  11.447  12.861
24183W        W95854  40.240  31.569  10.988
24184W        W95855   7.323  18.808   4.598
24185W        W95856  38.327  13.599  10.464
24186W        W95857  14.369  44.454  14.025
24187W        W95858  15.558  38.451   0.678
24188W        W95859  22.031   4.809  10.589
24189W        W95860  33.821  14.678  10.708
24190W        W95861   7.351  41.109  11.194
24191W        W95862  19.295  37.136  10.731
24192W        W95863  11.809  24.140   2.603
24193W        W95864   3.723  20.796  11.473
24194W        W95865  20.514  29.387   3.125
24195W        W95866  15.337  44.245   1.068
24196W        W95867  42.045  42.620  13.038
24197W        W95868  42.575  42.758  13.998
24198W        W95869  15.903   5.322  14.211
24199W        W95870  35.569  27.205   2.241
24200W        W95871  21.091  44.273  12.692
24201W        W95872  23.535  30.173   3.200
24202W        W95873  34.501  15.907   4.304
24203W        W95874  16.558   9.712   4.413
24204W        W95875  31.074  33.945  12.012
24205W        W95876  32.865  26.566   2.306
24206W        W95877  19.218  35.444  13.873
24207W        W95878  10.742  33.506  10.520
24208W        W95879  17.688  17.256   3.728
24209W        W95880   0.550   3.316  14.039
24210W        W95881   7.375  23.305   2.231
24211W        W95882  36.399  29.892   0.967
24212W        W95883  39.879  21.518  13.517
24213W        W95884  41.427  37.620  14.298
24214W        W95885  16.034  37.502  12.048
24215W        W95886  31.917  42.275  11.146
24216W        W95887   2.322   3.416  12.170
24217W        W95888  15.413  23.592   2.963
24218W        W95889  14.149  21.142  12.120
24219W        W95890  18.320  19.994   1.253
24220W        W95891  14.217  44.534   4.156
24221W        W95892   8.149   8.280   0.058
24222W        W95893   3.987   9.722  13.956
24223W        W95894  23.337  13.257  11.961
24224W        W95895  36.593   6.768   4.535
24225W        W95896  33.880  26.019  13.846
24226W        W95897  42.931  15.713   3.896
24227W        W95898  30.640  14.608   1.327
24228W        W95899  26.191  38.758   3.703
24229W        W95900   3.441  16.987   3.691
24230W        W95901  31.925  31.662  14.533
24231W        W95902  38.209  34.825  11.170
24232W        W95903  36.628  11.562   2.128
24233W        W95904   5.756  43.185   0.475
24234W        W95905  33.171  19.059  14.818
24235W        W95906  40.442  35.199   2.783
24236W        W95907  37.079  20.827  13.253
24237W        W95908  15.129  18.465   2.808
24238W        W95909   8.732  42.391   3.566
24239W        W95910  36.914   7.241   4.036
24240W        W95911  12.133  37.852   1.018
24241W        W95912  14.787   6.648  13.737
24242W        W95913  20.244   3.784   4.543
24243W        W95914  17.806  32.942  12.520
24244W        W95915  37.583  10.760   0.386
24245W        W95916  13.674   0.932   2.045
24246W        W95917  36.498  27.004  11.209
24247W        W95918  11.741  28.237   3.684
24248W        W95919  44.684  33.998   4.302
24249W        W95920  33.868  44.784   1.158
24250W        W95921  17.242  43.284  12.965
24251W        W95922  28.978  34.364   1.322
24252W        W95923  43.541  28.201   4.017
24253W        W95924  44.566  28.965  12.451
24254W        W95925  33.059  10.102   4.805
24255W        W95926  18.223  15.268   2.367
24256W        W95927  12.433  37.896   2.133
24257W        W95928  27.504  36.297   1.751
24258W        W95929   3.955   4.551  13.556
24259W        W95930  12.612  28.656  13.382
24260W        W95931  29.039  20.128  13.244
24261W        W95932  43.492  40.257  12.894
24262W        W95933  19.844   9.075   2.103
24263W        W95934   3.487   6.249  12.116
24264W        W95935   5.619  27.175  11.848
24265W        W95936   0.614  43.434   3.225
24266W        W95937   5.248  39.513  14.490
24267W        W95938  38.496  10.803  14.313
24268W        W95939  20.584   2.838  14.215
24269W        W95940  26.352   9.272   1.299
24270W        W95941  37.352  11.524  13.966
24271W        W95942  13.296  33.805   0.930
24272W        W95943  17.589  30.629  12.479
24273W        W95944  15.852  42.833  14.340
24274W        W95945   4.057  39.434  13.898
24275W        W95946  19.516   8.100   1.306
24276W        W95947   5.317   6.676  14.518
24277W        W95948  31.931  36.520  11.457
24278W        W95949  16.410  35.097   3.549
24279W        W95950  28.448  23.039  10.570
24280W        W95951  18.911  21.774   4.550
24281W        W95952  44.678   0.784   1.444
24282W        W95953  31.391   5.165  11.999
24283W        W95954   6.367  42.460   2.657
24284W        W95955  21.685  37.356  12.542
24285W        W95956  22.574   3.900  14.775
24286W        W95957  32.388   0.730  13.033
24287W        W95958  26.650   3.707  10.535
24288W        W95959  35.792  30.563  11.988
24289W        W95960  38.282  28.158   0.629
24290W        W95961   2.201  20.124  12.951
24291W        W95962   7.288  38.040   3.264
24292W        W95963  27.054   7.459  13.917
24293W        W95964  42.255   8.102   4.093
24294W        W95965  37.091  10.108   5.015
24295W        W95966   4.881   8.632  10.329
24296W        W95967  15.691   1.596   0.858
24297W        W95968  20.313  23.556   1.248
24298W        W95969   1.369  27.235  11.450
24299W        W95970  10.852  25.414   1.358
24300W        W95971  24.136  36.885  11.574
24301W        W95972   7.462  16.109  13.875
24302W        W95973  10.349   8.744  14.766
24303W        W95974  19.112  10.345  13.612
24304W        W95975   6.884  11.299   2.402
24305W        W95976  22.503  31.530   0.291
24306W        W95977   4.698  26.579  10.235
24307W        W95978   4.005  25.959  12.630
24308W        W95979  33.794  33.890   2.772
24309W        W95980  44.780  27.088  11.586
24310W        W95981  34.967  22.178  11.614
24311W        W95982  38.406  36.551  14.528
24312W        W95983  23.885  28.656   2.110
24313W        W95984   7.756   2.215   3.739
24314W        W95985  23.064  39.919  14.891
24315W        W95986  18.231  24.537  13.004
24316W        W95987   9.309  21.471  12.037
24317W        W95988  22.000  33.976  12.410
24318W        W95989  17.347  26.262  14.562
24319W        W95990  24.457  24.139   1.382
24320W        W95991  39.063  16.136   5.154
24321W        W95992  40.889  41.418  14.526
24322W        W95993  43.512   7.308  10.575
24323W        W95994  19.781   9.242  11.092
24324W        W95995   7.975   1.751   0.429
24325W        W95996  30.946   2.698  12.158
24326W        W95997  22.481   4.224   2.454
24327W        W95998  32.169  33.079   3.704
24328W        W95999  41.050  28.696   0.020
24329W        W96000  27.101  10.938   3.758
24330W        W96001  34.933   4.370   4.680
24331W        W96002   1.887   2.196   0.330
24332W        W96003  44.241   6.947  14.165
24333W        W96004  41.084  10.891   2.312
24334W        W96005  36.171   6.627  13.003
24335W        W96006  19.740  31.638  14.968
24336W        W96007  17.015  16.590  10.337
24337W        W96008   2.888  34.383  10.714
24338W        W96009  22.825  20.576   2.351
24339W        W96010  21.181  19.032   4.132
24340W        W96011  12.693  26.259  13.046
24341W        W96012   7.665   5.651   1.409
24342W        W96013   1.255   0.303   4.944
24343W        W96014   9.168  31.492   0.973
24344W        W96015  10.215  31.171   2.279
24345W        W96016  25.769  32.807   1.822
24346W        W96017   0.742  15.679   0.997
24347W        W96018   9.175  23.655  11.470
24348W        W96019  11.514   0.227  13.333
24349W        W96020  19.679  16.041   4.291
24350W        W96021  18.052   4.383  14.810
24351W        W96022  32.067  30.071   0.242
24352W        W96023  24.516  18.678  10.811
24353W        W96024  27.392  43.844   1.385
24354W        W96025  11.191  40.196   4.625
24355W        W96026  14.699  23.017   4.538
24356W        W96027   0.348  41.512  12.551
24357W        W96028   9.227  22.030  14.179
24358W        W96029  23.285  10.795   0.552
24359W        W96030  17.510   8.617   2.940
24360W        W96031  35.554  23.277  12.037
24361W        W96032  44.313  21.941  12.984
24362W        W96033  39.836  40.322  14.667
24363W        W96034  32.418  13.780   0.899
24364W        W96035   0.910   1.287  11.438
24365W        W96036  26.379  14.726  12.676
24366W        W96037  31.335  40.402   3.419
24367W        W96038  16.310  33.910   0.713
24368W        W96039  18.297  26.794  14.845
24369W        W96040  33.431  44.391   1.224
24370W        W96041  43.063  14.152   0.396
24371W        W96042  30.220  41.260  14.842
24372W        W96043   9.699  44.789  12.873
24373W        W96044  14.232  17.762  14.206
24374W        W96045  19.155   2.906   0.242
24375W        W96046   9.426  30.882   1.717
24376W        W96047  22.174   7.678  14.896
24377W        W96048   8.197   0.003  11.544
24378W        W96049  19.120  15.356   3.859
24379W        W96050  42.875  14.689   2.181
24380W        W96051  20.279  19.923   4.142
24381W        W96052  43.415   1.084   2.567
24382W        W96053   3.401  39.448  12.619
24383W        W96054   8.088   6.423   2.646
24384W        W96055  23.108  18.320   0.623
24385W        W96056  19.268  26.547   4.150
24386W        W96057  27.599  35.822   2.710
24387W        W96058   8.745  35.826   0.786
24388W        W96059  43.378  14.323  14.816
24389W        W96060  13.113  14.302  12.664
24390W        W96061  18.407  20.119  14.834
24391W        W96062   0.911  25.262   3.605
24392W        W96063   8.908  43.381  12.904
24393W        W96064  23.029   0.866  13.051
24394W        W96065  23.744  20.169  13.385
24395W        W96066  33.398   0.813   2.451
24396W        W96067  10.711  24.661   2.495
24397W        W96068  13.690  29.823   2.300
24398W        W96069  12.853  37.633   2.890
24399W        W96070  11.978  37.359  10.963
24400W        W96071  13.124   4.277   3.725
24401W        W96072  25.088   6.102  11.481
24402W        W96073  42.529   9.244  12.915
24403W        W96074  42.378  21.228   0.272
24404W        W96075  36.010  16.768  14.468
24405W        W96076  44.025  26.641  12.467
24406W        W96077  29.674  33.422  11.663
24407W        W96078  33.953  20.804  13.031
24408W        W96079  31.004   3.054  12.560
24409W        W96080  16.650  22.429  11.684
24410W        W96081  39.335  37.403   1.778
24411W        W96082  15.594  41.316   1.060
24412W        W96083  34.951   9.713   3.391
24413W        W96084  36.095   0.943   2.827
24414W        W96085   8.197   8.627  10.157
24415W        W96086  32.922  43.464  11.891
24416W        W96087  22.945  11.736   3.134
24417W        W96088  29.482  21.441  12.380
24418W        W96089  15.853  24.505   4.294
24419W        W96090  13.299  16.565   3.672
24420W        W96091  25.054  13.229   0.616
24421W        W96092   3.433   5.647   0.440
24422W        W96093  24.847   1.755   3.023
24423W        W96094  30.394   6.145  11.095
24424W        W96095   9.619  31.982  12.067
24425W        W96096  31.234  17.131  11.636
24426W        W96097   3.276  11.169   4.512
24427W        W96098   2.385  41.735   2.252
24428W        W96099  17.701  37.550   1.941
24429W        W96100  40.021  43.546   3.663
24430W        W96101  10.728   8.430  13.884
24431W        W96102  11.775  38.931   1.989
24432W        W96103  11.796  22.593  13.396
24433W        W96104   0.192  10.659   1.467
24434W        W96105  18.154   7.094  10.482
24435W        W96106  19.237  29.379  14.802
24436W        W96107  17.828   2.621   1.922
24437W        W96108  43.034  29.515  14.815
24438W        W96109  12.328  37.130   5.048
24439W        W96110  34.415  11.379  13.541
24440W        W96111  38.307  17.302  13.514
24441W        W96112   4.564  13.626  11.130
24442W        W96113  19.164  37.904  14.456
24443W        W96114  18.061  38.462   2.816
24444W        W96115  10.723   2.645  10.394
24445W        W96116  30.972  15.251   2.168
24446W        W96117  16.079  44.188   3.644
24447W        W96118  27.114  40.910  14.649
24448W        W96119  27.005  12.806   0.350
24449W        W96120  20.056  25.960   4.193
24450W        W96121  20.575  35.413  12.779
24451W        W96122   1.334  10.786   0.827
24452W        W96123  15.637  14.788  11.165
24453W        W96124  31.646  16.307   0.944
24454W        W96125  19.738  21.524   4.479
24455W        W96126   3.230  25.262   0.434
24456W        W96127   2.987  31.009  14.242
24457W        W96128  41.249  31.544   2.262
24458W        W96129  43.063  16.217   3.788
24459W        W96130  32.663  38.858   0.133
24460W        W96131  16.927  13.532   4.736
24461W        W96132  39.433   1.980   0.959
24462W        W96133  29.612  44.765  12.039
24463W        W96134  21.788  23.738  14.744
24464W        W96135  14.003  13.739   4.973
24465W        W96136   5.571  39.858  13.064
24466W        W96137  15.861  40.337  14.228
24467W        W96138  23.122  40.077   3.527
24468W        W96139  34.820  41.190   0.681
24469W        W96140  38.188  10.454  12.030
24470W        W96141  14.584  34.020  10.574
24471W        W96142  10.813  31.474  11.974
24472W        W96143  21.148  19.070  12.530
24473W        W96144   7.198  26.535   4.596
24474W        W96145   7.310   5.308   2.888
24475W        W96146   3.767  40.299  13.308
24476W        W96147  24.505  32.519   3.375
24477W        W96148   3.697  29.157  13.792
24478W        W96149  11.541  33.599  14.887
24479W        W96150   4.844  25.682  12.130
24480W        W96151   6.376  21.680   0.800
24481W        W96152   6.742  14.611   2.126
24482W        W96153  25.287  38.962   3.880
24483W        W96154  14.369  14.640  13.101
24484W        W96155  23.419  29.894   2.316
24485W        W96156   0.775  19.659   0.290
24486W        W96157   7.294  24.624   4.771
24487W        W96158  15.261  42.846  10.234
24488W        W96159   6.901  25.007   2.348
24489W        W96160  35.601  41.925   2.113
24490W        W96161  19.184   1.911   0.348
24491W        W96162   5.048  11.858  11.951
24492W        W96163   4.745   6.445   2.385
24493W        W96164   2.329  18.881   2.594
24494W        W96165   1.202   8.854  14.358
24495W        W96166  38.022  27.185   3.590
24496W        W96167  41.660  27.121  11.088
24497W        W96168  28.569   0.212   4.201
24498W        W96169  29.445  44.242  14.546
24499W        W96170  39.822  36.470  14.969
24500W        W96171  17.530  13.881  13.333
24501W        W96172  32.628   5.621  11.912
24502W        W96173  28.677  44.029  10.700
24503W        W96174  20.103  31.026   2.018
24504W        W96175  34.469  38.312   1.287
24505W        W96176  11.004  12.073   3.497
24506W        W96177  28.405  13.766   0.708
24507W        W96178  26.572  44.775  11.628
24508W        W96179  17.519  25.590  14.049
24509W        W96180  24.486   5.972  10.743
24510W        W96181   9.770  32.669   2.654
24511W        W96182  26.986   5.511  14.416
24512W        W96183  20.351  12.462   9.916
24513W        W96184  15.676  10.144   4.160
24514W        W96185  40.546  17.820   0.415
24515W        W96186  33.529  11.918  10.414
24516W        W96187   3.712  20.051  13.066
24517W        W96188  26.467  40.400  12.383
24518W        W96189  33.448   3.551   0.837
24519W        W96190  30.452  12.181  11.995
24520W        W96191   2.905  43.651  11.220
24521W        W96192  40.414  35.888  14.377
24522W        W96193  18.131  24.058   1.495
24523W        W96194  14.609  41.949  13.153
24524W        W96195   1.463   4.738   0.973
24525W        W96196  34.346  28.695   0.421
24526W        W96197  38.035  42.702  13.079
24527W        W96198  37.528  27.687   0.857
24528W        W96199  44.930  18.013  14.950
24529W        W96200  30.689   2.873  11.745
24530W        W96201   4.755   3.397   4.581
24531W        W96202  16.737  27.236  13.551
24532W        W96203  32.873  10.511   1.417
24533W        W96204  31.881  28.556   1.787
24534W        W96205   8.158  32.686  11.199
24535W        W96206  13.849  30.039  11.551
24536W        W96207   3.219   1.385  10.942
24537W        W96208  17.707  25.369   2.123
24538W        W96209  16.671  32.812   4.181
24539W        W96210   3.698  16.181   4.597
24540W        W96211  19.320  22.838  10.677
24541W        W96212  18.086  28.725   3.171
24542W        W96213   7.399  32.861   2.403
24543W        W96214   9.806  28.052   2.295
24544W        W96215  10.287  32.189   0.165
24545W        W96216  20.699  38.857  13.906
24546W        W96217  23.077   8.485   2.881
24547W        W96218  35.156  40.146   2.392
24548W        W96219  30.287  36.417  14.799
24549W        W96220  11.293  15.126  14.347
24550W        W96221   2.285   6.707  11.973
24551W        W96222  10.074  33.272  14.851
24552W        W96223  37.504  26.946  13.495
24553W        W96224   2.551  10.418  12.948
24554W        W96225  13.319  44.324   1.872
24555W        W96226  32.714   3.973  11.965
24556W        W96227  21.756  36.133   2.010
24557W        W96228  40.482   4.143   0.285
24558W        W96229  28.721  42.290   2.552
24559W        W96230  21.787  21.722  12.574
24560W        W96231  11.902  27.883  13.918
24561W        W96232  19.508  29.914   2.848
24562W        W96233  14.628  12.420   3.406
24563W        W96234  29.901  18.324  11.416
24564W        W96235  34.668  21.804   1.173
24565W        W96236  24.092  14.228  10.607
24566W        W96237   7.408  35.085   4.884
24567W        W96238  31.876   2.874   0.341
24568W        W96239  26.550  29.056   4.254
24569W        W96240  13.342  37.878   5.035
24570W        W96241  28.143  40.286  10.557
24571W        W96242  13.922  43.512   3.181
24572W        W96243  24.982  44.109  13.582
24573W        W96244  40.536  14.900   2.238
24574W        W96245  43.769  40.564  14.085
24575W        W96246   5.475  43.395   1.855
24576W        W96247   3.610  13.545   0.282
24577W        W96248  21.222  37.820  10.949
24578W        W96249   8.331   5.900  10.524
24579W        W96250   5.805  20.503  10.999
24580W        W96251  18.808  29.155   1.828
24581W        W96252  35.662  35.884   1.515
24582W        W96253   9.215   6.205   0.215
24583W        W96254  37.438   6.555  13.552
24584W        W96255  31.734   2.748  12.926
24585W        W96256   1.692  29.201   2.111
24586W        W96257  18.935  38.912   2.781
24587W        W96258  36.412  21.104  10.236
24588W        W96259   6.295  36.917  10.779
24589W        W96260  23.976   8.657  10.623
24590W        W96261   9.425  17.154   4.367
24591W        W96262  13.098  16.734  11.078
24592W        W96263  13.749  38.794  12.436
24593W        W96264  19.774  11.154   1.439
24594W        W96265  12.900   8.033  14.772
24595W        W96266   3.471  14.779   4.115
24596W        W96267  22.207  15.120   3.922
24597W        W96268  34.339  41.360   1.290
24598W        W96269   1.186  33.549  14.423
24599W        W96270   3.293  24.713  13.466
24600W        W96271  40.042  19.305  12.833
24601W        W96272  36.845  25.135   0.515
24602W        W96273  37.945  34.385  14.742
24603W        W96274  16.663  17.729   2.846
24604W        W96275  23.324  12.201  14.762
24605W        W96276  43.461   0.387  12.446
24606W        W96277  13.337  13.257  11.546
24607W        W96278  18.481  11.680   2.905
24608W        W96279  20.341  11.717  13.946
24609W        W96280  28.661   1.818   4.147
24610W        W96281  22.529  11.803  13.515
24611W        W96282  34.511  33.348   4.132
24612W        W96283  23.222  22.217   3.022
24613W        W96284   6.233  21.290   5.048
24614W        W96285  39.794  22.693  10.992
24615W        W96286  23.290  28.080   3.149
24616W        W96287  15.826  35.001  11.875
24617W        W96288  27.892  23.656  13.896
24618W        W96289  14.648  38.268  11.017
24619W        W96290  15.274   2.345  12.589
24620W        W96291  24.684   1.514  13.598
24621W        W96292  41.523  31.971   0.012
24622W        W96293  37.579  27.923   0.187
24623W        W96294  25.220  25.393   3.888
24624W        W96295  23.693  38.278   0.813
24625W        W96296  12.851  13.269  10.577
24626W        W96297  19.745  41.880   0.844
24627W        W96298   3.673  23.186   3.562
24628W        W96299   9.029   9.752   4.557
24629W        W96300   0.284  42.119  14.923
24630W        W96301  24.906  28.193  11.753
24631W        W96302  12.220  30.999  11.478
24632W        W96303   9.969  21.873   3.196
24633W        W96304   4.340  23.074  11.970
24634W        W96305   5.276  19.226  10.664
24635W        W96306  42.450  10.862   2.122
24636W        W96307  28.098  20.311   3.130
24637W        W96308  42.908  30.213  14.281
24638W        W96309  20.861  38.301   3.074
24639W        W96310  35.087  30.669  14.482
24640W        W96311   5.919  17.198   3.111
24641W        W96312   0.443   4.433   2.898
24642W        W96313  30.907   0.818  10.472
24643W        W96314  13.440  13.768  13.362
24644W        W96315  31.651  43.264  13.874
24645W        W96316  15.094  16.768  10.715
24646W        W96317  32.705  34.795   5.021
24647W        W96318  31.376  11.206   0.696
24648W        W96319  32.140   8.218   2.642
24649W        W96320   2.744  18.137  14.058
24650W        W96321  33.771  27.122   9.933
24651W        W96322  27.747  11.716   1.503
24652W        W96323  24.668   3.210   2.365
24653W        W96324  34.656   2.203  14.402
24654W        W96325  17.306  17.133  13.003
24655W        W96326  19.718  32.005   2.775
24656W        W96327  24.493  14.565   0.977
24657W        W96328  22.592   3.815  12.547
24658W        W96329  41.993  18.824   4.111
24659W        W96330   0.348  18.700  10.779
24660W        W96331  34.529  17.580  13.070
24661W        W96332  22.919  18.722   3.127
24662W        W96333   4.784  11.871   1.976
24663W        W96334   9.410  33.397   2.909
24664W        W96335  22.452  23.508  12.329
24665W        W96336  15.692   4.752   1.523
24666W        W96337  28.063  29.667   0.477
24667W        W96338  41.371  30.945   4.327
24668W        W96339  36.898  44.332  12.943
24669W        W96340  19.558   9.686   2.632
24670W        W96341   4.555   9.790  14.871
24671W        W96342  39.002   1.620  10.923
24672W        W96343   2.399  39.424   1.352
24673W        W96344   6.079  33.852   0.355
24674W        W96345  20.038   1.169  12.348
24675W        W96346  42.380   5.396  10.893
24676W        W96347  10.484   9.601   2.850
24677W        W96348  35.255  28.458  11.178
24678W        W96349  28.871  20.506   1.402
24679W        W96350  17.288  26.441  11.188
24680W        W96351  22.646  19.368   1.754
24681W        W96352  17.173  38.390   4.261
24682W        W96353  39.858  27.955   2.007
24683W        W96354  17.035  33.466   0.431
24684W        W96355  17.082  11.897   2.268
24685W        W96356  26.477  34.056   2.268
24686W        W96357  37.602  35.524   3.966
24687W        W96358  13.069  33.784  12.038
24688W        W96359   4.213  19.668  14.256
24689W        W96360   4.897  25.220  13.101
24690W        W96361  22.941  24.997  13.108
24691W        W96362  30.953  22.762  14.220
24692W        W96363  34.196  44.393  13.586
24693W        W96364  19.059  44.562   3.128
24694W        W96365  36.795  14.630   0.378
24695W        W96366  27.849  26.074   4.032
24696W        W96367  33.506  31.692   1.438
24697W        W96368  24.683  24.020   4.367
24698W        W96369  24.774   6.819   3.351
24699W        W96370  21.422  11.624   0.481
24700W        W96371   0.694  17.263  14.299
24701W        W96372  10.234  44.338  10.478
24702W        W96373  21.647  28.863  11.640
24703W        W96374  32.663   0.075  13.965
24704W        W96375  36.064  36.070   0.994
24705W        W96376  11.644  15.264   2.840
24706W        W96377  11.787  15.114   4.733
24707W        W96378  35.421  35.981   2.839
24708W        W96379  26.765  24.953   3.751
24709W        W96380  44.402  43.009   0.269
24710W        W96381  32.306  22.981  10.818
24711W        W96382  30.837   5.857   4.930
24712W        W96383  19.706  10.840   0.568
24713W        W96384  33.376   4.260   2.528
24714W        W96385   3.823  30.962   2.533
24715W        W96386  27.192  32.057   4.247
24716W        W96387  35.650  21.957  14.768
24717W        W96388  28.837  41.700  11.271
24718W        W96389  38.304  22.660   3.219
24719W        W96390  31.533  15.206  11.393
24720W        W96391  16.552  15.207   3.648
24721W        W96392  27.925   8.348  11.003
24722W        W96393  23.103   9.596   3.837
24723W        W96394  12.029  17.176  11.089
24724W        W96395  33.367  33.202   2.293
24725W        W96396   6.809  12.046   1.110
24726W        W96397   6.003  29.249   2.775
24727W        W96398  24.504  33.174  14.253
24728W        W96399  27.634   8.742   3.210
24729W        W96400  36.054  22.040   0.510
24730W        W96401   5.776  38.787   1.716
24731W        W96402  32.556  30.649   0.782
24732W        W96403  12.825  37.936   3.339
24733W        W96404  14.135  15.102  13.142
24734W        W96405  15.850  40.517   0.296
24735W        W96406   1.396  29.921   0.876
24736W        W96407  37.280   6.839   3.944
24737W        W96408  20.408  19.564   2.373
24738W        W96409  23.785   8.107   4.547
24739W        W96410  14.168   1.285   2.723
24740W        W96411  31.011   7.682   4.644
24741W        W96412   8.135  24.115   1.361
24742W        W96413  18.334  15.390   4.146
24743W        W96414  32.968  43.215  11.458
24744W        W96415  20.284   1.245   4.590
24745W        W96416  19.369  23.459   1.663
24746W        W96417   0.550   2.340  13.134
24747W        W96418  15.244  42.928   1.514
24748W        W96419   2.458  33.077   4.838
24749W        W96420   5.249  27.465   0.505
24750W        W96421  30.291  18.916   1.875
24751W        W96422  37.882  26.934   2.653
24752W        W96423  13.657  33.971   2.829
24753W        W96424   6.634  12.794  12.064
24754W        W96425  18.491  10.193   4.610
24755W        W96426   6.241  23.310   1.823
24756W        W96427  23.480   4.148  11.652
24757W        W96428  27.740  14.170   2.166
24758W        W96429  13.889  16.504  12.078
24759W        W96430  35.557  30.736   2.219
24760W        W96431  15.531  31.046  13.895
24761W        W96432  10.379  18.695   2.796
24762W        W96433  15.840  26.928  14.367
24763W        W96434   3.339  40.458   1.753
24764W        W96435  13.705   2.749   1.430
24765W        W96436  43.578   2.460   1.316
24766W        W96437  19.622  23.561  12.396
24767W        W96438  25.569  31.659   4.230
24768W        W96439   1.471  41.077   3.177
24769W        W96440  20.092  37.277   0.823
24770W        W96441  37.173  42.888   0.903
24771W        W96442  25.471  37.519   3.758
24772W        W96443  17.451  27.109   2.328
24773W        W96444  22.797  34.577   1.247
24774W        W96445  36.862   0.034   0.315
24775W        W96446   9.312   7.760   4.546
24776W        W96447  12.786  33.878  14.931
24777W        W96448  17.654  26.868   4.283
24778W        W96449  37.380  10.596  12.020
24779W        W96450  12.787   5.925   0.390
24780W        W96451  23.016  12.161  14.348
24781W        W96452  29.929  40.995   2.937
24782W        W96453  20.689   7.377  11.105
24783W        W96454  34.362  20.639  11.943
24784W        W96455  17.189  41.116   1.444
24785W        W96456  20.198  41.579   4.687
24786W        W96457  18.758  13.871   4.391
24787W        W96458  13.594  36.088   1.737
24788W        W96459  20.728  23.936   4.230
24789W        W96460  20.250  31.609  14.959
24790W        W96461  15.311  32.577  13.001
24791W        W96462   5.381  42.448  11.982
24792W        W96463  29.011   4.444  13.347
24793W        W96464  23.926  25.291   3.265
24794W        W96465  41.045   0.822   5.072
24795W        W96466  10.799  17.154  14.363
24796W        W96467   1.930  30.108   1.916
24797W        W96468  20.562  28.561   2.600
24798W        W96469   6.731  24.899  11.144
24799W        W96470  29.718   8.911   0.188
24800W        W96471   0.872  33.872   0.377
24801W        W96472  44.949  21.694   3.155
24802W        W96473  19.633  37.666   2.934
24803W        W96474   5.498  17.621  12.914
24804W        W96475  23.715  39.543   1.456
24805W        W96476  21.727  41.227   3.168
24806W        W96477  25.583  39.779   3.174
24807W        W96478  43.889  15.977  12.149
24808W        W96479  39.107  33.283  13.792
24809W        W96480  37.458  39.788   4.990
24810W        W96481  40.478  12.623  12.920
24811W        W96482  36.588  24.375  14.858
24812W        W96483  34.302   0.916   3.673
24813W        W96484  28.274   0.597  13.829
24814W        W96485  34.291  25.201   4.115
24815W        W96486  35.089   1.680   2.271
24816W        W96487  43.404  10.791  11.226
24817W        W96488   6.182  36.052  12.445
24818W        W96489  25.044  12.392   3.301
24819W        W96490   9.233  16.590  12.089
24820W        W96491  23.541  32.436  13.585
24821W        W96492  25.684   4.175  11.597
24822W        W96493  30.072  23.926   3.466
24823W        W96494  17.193  28.305   0.321
24824W        W96495   0.161  12.377   2.956
24825W        W96496  36.805  30.171   2.204
24826W        W96497   8.400  28.986  12.207
24827W        W96498  33.015   7.163  14.435
24828W        W96499   1.339  22.185   3.232
24829W        W96500  33.124  16.552   2.102
24830W        W96501  26.679   4.008  12.402
24831W        W96502  13.904  31.565   0.976
24832W        W96503  14.122  43.373  11.070
24833W        W96504   7.867  39.001   2.293
24834W        W96505   6.990  39.424  12.458
24835W        W96506   2.170  40.957   3.755
24836W        W96507  18.152   7.678   1.907
24837W        W96508   6.247  23.250   0.619
24838W        W96509   0.929  22.333   4.163
24839W        W96510  35.630  21.544  11.599
24840W        W96511  25.234  32.892   1.834
24841W        W96512  44.477  28.888  11.192
24842W        W96513  44.945  30.468  12.433
24843W        W96514  17.265  13.675   1.262
24844W        W96515   3.323  18.664   3.113
24845W        W96516  26.105  33.358   4.436
24846W        W96517   0.977  19.699  11.026
24847W        W96518  17.739  26.711  11.042
24848W        W96519  27.474  29.245   2.109
24849W        W96520  26.597  43.225   0.741
24850W        W96521  13.113  24.690  14.367
24851W        W96522  41.020  29.228   1.467
24852W        W96523  26.285  41.942  13.887
24853W        W96524   5.951  24.032  13.578
24854W        W96525  41.320  10.291  12.530
24855W        W96526  17.679  29.163  14.471
24856W        W96527  40.708   5.135   4.199
24857W        W96528  43.232  43.888   4.171
24858W        W96529  24.085   3.629   0.114
24859W        W96530  22.038   0.715   2.733
24860W        W96531  14.244   4.421   4.690
24861W        W96532  44.976  28.291   1.686
24862W        W96533  23.126  12.350  12.073
24863W        W96534  24.602   8.692  12.046
24864W        W96535  27.719  42.971  10.716
24865W        W96536  20.116  12.217  11.378
24866W        W96537  33.587  30.906  11.146
24867W        W96538  22.742   1.438  14.064
24868W        W96539   4.968  22.491  13.938
24869W        W96540   0.282   3.004   2.752
24870W        W96541  14.675   9.055   4.170
24871W        W96542   7.341   0.987  11.160
24872W        W96543  36.191   1.375   1.185
24873W        W96544  10.411   3.212   4.488
24874W        W96545  44.934  39.713   4.219
24875W        W96546  44.923  17.290  12.521
24876W        W96547  42.937  13.294  14.236
24877W        W96548  36.508  13.238  14.010
24878W        W96549  10.863  37.846   4.896
24879W        W96550  25.829  27.265  11.964
24880W        W96551  30.144  22.720   4.456
24881W        W96552  26.015  16.040  10.723
24882W        W96553   5.307  35.478   0.096
24883W        W96554  17.156   0.679   4.122
24884W        W96555  38.783  42.958   4.946
24885W        W96556  18.089  23.587  12.834
24886W        W96557  15.991  33.694   4.547
24887W        W96558  16.972  11.424   4.102
24888W        W96559  23.415  33.984   4.881
24889W        W96560   4.669  26.301   2.728
24890W        W96561   5.438  41.951   0.316
24891W        W96562  43.523  30.128  12.131
24892W        W96563  13.627  17.078   1.850
24893W        W96564  15.555  12.250  12.544
24894W        W96565  33.426   6.651  11.979
24895W        W96566  32.537  16.629  14.049
24896W        W96567   7.557  25.599   4.138
24897W        W96568   7.169  41.515   0.450
24898W        W96569  22.634   6.691  14.528
24899W        W96570  37.365  24.012  11.188
24900W        W96571  35.559  22.530   2.407
24901W        W96572  41.594  23.143   2.636
24902W        W96573  38.607  37.355   2.944
24903W        W96574   4.410  43.478   0.366
24904W        W96575  24.011  29.896   0.867
24905W        W96576  42.938   0.247   1.710
24906W        W96577  19.690   0.726   3.808
24907W        W96578  38.295  44.679  11.964
24908W        W96579  14.998   0.937   4.603
24909W        W96580  32.588  40.700  12.886
24910W        W96581  17.851   3.838  13.916
24911W        W96582   0.225   7.255  11.605
24912W        W96583  35.926  30.122  14.306
24913W        W96584  29.308  28.497   4.899
24914W        W96585   5.817  25.153   1.567
24915W        W96586  29.482   2.957   4.356
24916W        W96587   0.238  40.455  11.634
24917W        W96588  33.204  33.123  13.287
24918W        W96589  40.878  24.301   2.282
24919W        W96590  13.808  17.267  13.446
24920W        W96591  19.536  40.095  14.331
24921W        W96592  22.985   4.217  11.713
24922W        W96593  11.247  16.817   4.827
24923W        W96594  30.655  35.336  12.996
24924W        W96595  26.134  10.099   3.481
24925W        W96596  17.967  37.145   2.257
24926W        W96597  26.759  27.178  13.239
24927W        W96598  14.348  10.850  10.948
24928W        W96599  44.019  40.369   4.136
24929W        W96600  17.679  17.168  12.048
24930W        W96601  23.744  19.139   1.354
24931W        W96602   2.701  42.314  11.948
24932W        W96603  22.984  40.704  10.290
24933W        W96604  26.086  17.139   2.304
24934W        W96605  25.592  39.070  14.039
24935W        W96606   1.446  34.243   2.087
24936W        W96607  14.749  30.862   1.362
24937W        W96608  20.553  13.077   1.881
24938W        W96609   6.060   8.631   1.772
24939W        W96610  23.234  13.703  14.341
24940W        W96611   6.536  33.489  10.881
24941W        W96612  21.697  11.562   1.428
24942W        W96613  20.232  44.947   0.794
24943W        W96614  19.686  25.515  14.796
24944W        W96615  13.681  37.812   0.667
24945W        W96616  22.960   0.387   1.157
24946W        W96617  16.346  39.059   1.733
24947W        W96618  23.506  16.379  12.613
24948W        W96619   7.212  32.591  11.451
24949W        W96620   5.784  10.798  12.369
24950W        W96621  21.215  34.417   2.237
24951W        W96622   2.806  23.008  12.629
24952W        W96623   2.313  40.286   1.441
24953W        W96624   7.276  43.824  10.627
24954W        W96625   0.251  20.663   1.224
24955W        W96626  29.630  24.076  11.032
24956W        W96627   7.224   2.347   2.086
24957W        W96628   1.076   2.042  14.928
24958W        W96629  23.492   0.166   3.251
24959W        W96630  27.903   9.965   0.792
24960W        W96631  25.286  35.533  11.058
24961W        W96632   5.268  28.959   3.170
24962W        W96633   9.244  32.017   4.635
24963W        W96634  23.574   4.493   3.221
24964W        W96635  17.027   8.553   4.391
24965W        W96636  36.310  17.574   4.079
24966W        W96637  44.047  13.242   2.210
24967W        W96638  34.445  37.351  10.137
24968W        W96639  39.453  25.416  13.923
24969W        W96640   3.807  34.033   1.368
24970W        W96641  16.295   0.211   2.728
24971W        W96642   8.778  23.669   1.142
24972W        W96643   2.384  31.434   2.298
24973W        W96644  38.065  24.230  13.847
24974W        W96645  31.391  41.326   0.426
24975W        W96646   6.723   5.460   0.433
24976W        W96647  20.795   8.554   3.979
24977W        W96648  43.348  44.272  11.671
24978W        W96649   5.262  27.508  13.522
24979W        W96650   3.304  26.378   1.452
24980W        W96651  22.631  27.719  13.396
24981W        W96652  32.796  12.905  11.012
24982W        W96653   4.654  12.000   0.320
24983W        W96654  28.569  28.452  11.186
24984W        W96655  36.523   4.874   5.168
24985W        W96656  11.748  27.391  11.607
24986W        W96657  34.499  10.143   3.102
24987W        W96658  44.042  37.627  10.891
24988W        W96659  36.350  44.679  11.566
24989W        W96660  38.109  25.268   0.039
24990W        W96661  17.176  39.321   4.709
24991W        W96662   6.901   6.261   3.265
24992W        W96663  33.177   9.209  14.290
24993W        W96664  37.113  10.253  12.961
24994W        W96665  30.906  34.417   0.261
24995W        W96666   5.683   2.505  11.499
24996W        W96667  43.273  17.105  12.952
24997W        W96668  16.542   4.922  11.434
24998W        W96669  38.427  40.538  13.394
24999W        W96670  20.456  24.177  12.130
25000W        W96671  19.442  33.180   5.099
25001W        W96672  24.249  28.048  14.808
25002W        W96673  35.937  36.873  12.650
25003W        W96674  32.300   0.479   0.860
25004W        W96675  20.695  27.685  12.918
25005W        W96676  23.243   8.587  11.103
25006W        W96677   7.762  37.587   4.373
25007W        W96678  21.716  39.142   2.667
25008W        W96679   5.474  36.147   0.662
25009W        W96680   4.768  41.862   1.673
25010W        W96681  41.980  36.970   0.440
25011W        W96682  38.596  16.198   4.856
25012W        W96683   8.249  41.762   2.521
25013W        W96684  34.849  19.909   4.109
25014W        W96685   5.850  40.494  12.371
25015W        W96686  39.823  14.921  14.521
25016W        W96687  24.093  26.106   3.523
25017W        W96688   1.378   6.748  14.836
25018W        W96689  18.844  42.993  10.342
25019W        W96690  30.008  30.892   0.091
25020W        W96691  27.743   5.816  13.807
25021W        W96692  16.541  29.992   0.755
25022W        W96693   5.268  10.156   4.717
25023W        W96694   6.104  23.587  13.326
25024W        W96695  42.021  19.992  14.831
25025W        W96696  36.084  11.396   1.501
25026W        W96697  39.365  36.862  12.073
25027W        W96698  12.358  16.070   2.387
25028W        W96699  37.114  30.171   0.340
25029W        W96700   0.030  25.973  11.171
25030W        W96701  41.307  21.549  12.886
25031W        W96702  37.584   0.240   4.156
25032W        W96703  38.093   4.949  13.901
25033W        W96704   8.633  17.624  11.635
25034W        W96705  10.066  36.816   1.852
25035W        W96706  34.558  11.252   4.237
25036W        W96707  27.690  15.650  11.047
25037W        W96708  23.028   0.247  11.016
25038W        W96709   1.439  41.801   1.353
25039W        W96710  39.458  17.359   3.270
25040W        W96711  19.613  11.885  12.824
25041W        W96712  17.975  16.739  12.056
25042W        W96713  19.650  12.088  11.570
25043W        W96714  43.052  37.924  13.890
25044W        W96715  27.594  20.007   4.207
25045W        W96716  24.450  21.241   0.197
25046W        W96717  22.225  12.116   3.665
25047W        W96718  31.887   1.296   3.383
25048W        W96719  15.225  22.536   0.018
25049W        W96720  12.461  17.568   0.470
25050W        W96721   3.126  36.499   1.847
25051W        W96722   3.836  29.030  12.860
25052W        W96723  41.101  15.528  12.404
25053W        W96724  15.335  37.756   1.789
25054W        W96725  30.453  30.488   3.661
25055W        W96726  23.014  20.180  13.949
25056W        W96727  25.660  25.336   4.563
25057W        W96728  13.793  40.949   3.103
25058W        W96729   1.703  41.859   3.399
25059W        W96730   0.779  32.566  10.701
25060W        W96731  14.082  15.752  12.465
25061W        W96732  32.520  24.272   3.916
25062W        W96733  15.719  30.613  12.107
25063W        W96734  22.026  35.309  11.241
25064W        W96735  29.540  20.665   3.117
25065W        W96736  33.010   6.010  12.627
25066W        W96737  30.908  23.103  13.233
25067W        W96738  39.435  10.986  10.591
25068W        W96739   5.212   6.774   1.329
25069W        W96740  38.904  16.207   0.452
25070W        W96741  21.319  41.913   3.253
25071W        W96742  11.848  10.561   2.222
25072W        W96743  10.177  15.501   1.280
25073W        W96744  28.159  15.162  13.880
25074W        W96745   3.488   2.467  14.720
25075W        W96746  22.060  37.614   2.684
25076W        W96747   0.837  35.827  12.906
25077W        W96748  10.959  12.669   4.392
25078W        W96749  35.097  23.504  13.395
25079W        W96750   1.000  15.357  10.780
25080W        W96751  33.940  33.029   2.903
25081W        W96752  43.857  24.302   4.143
25082W        W96753  25.722  29.508  11.636
25083W        W96754  12.253  38.339   1.812
25084W        W96755  20.134   4.082  12.091
25085W        W96756  24.596  14.203  11.505
25086W        W96757  25.255  19.400   3.261
25087W        W96758   8.172   2.158  13.839
25088W        W96759  19.564  11.073  13.788
25089W        W96760  41.465  35.446  14.981
25090W        W96761  29.578  32.109  14.084
25091W        W96762   4.797  23.703  13.470
25092W        W96763  11.759  31.085   4.330
25093W        W96764  10.842   3.354   0.877
25094W        W96765  30.168  15.225  11.490
25095W        W96766  27.883  39.153   1.839
25096W        W96767  24.852  42.764  12.982
25097W        W96768  25.081  10.628  10.555
25098W        W96769  43.332  24.021   4.956
25099W        W96770  29.850   1.249  14.317
25100W        W96771  43.584   8.184   0.901
25101W        W96772   8.411  14.594  12.208
25102W        W96773   6.851  12.273   2.852
25103W        W96774  26.631  34.069  13.556
25104W        W96775  38.945   8.016  13.294
25105W        W96776  25.778   9.567   2.260
25106W        W96777  42.473   3.213  12.652
25107W        W96778  38.096  15.147   2.113
25108W        W96779  39.722  31.423  14.850
25109W        W96780   8.368  35.049  12.866
25110W        W96781  21.572  23.710  11.494
25111W        W96782  32.883  15.566  11.037
25112W        W96783   4.839  40.839   0.961
25113W        W96784  40.406  20.020   2.099
25114W        W96785  14.594  15.052   1.015
25115W        W96786  41.602  24.575  11.958
25116W        W96787  17.087  13.263  13.881
25117W        W96788  34.561  44.213   1.448
25118W        W96789   4.737  38.671  11.564
25119W        W96790  38.318  37.336  14.911
25120W        W96791  35.963   3.372   1.932
25121W        W96792  23.708  35.732  13.429
25122W        W96793   4.901  33.195   1.744
25123W        W96794  15.742  23.533   3.346
25124W        W96795   5.599  39.395   4.790
25125W        W96796  14.989   1.725  11.556
25126W        W96797  19.793  17.183   3.225
25127W        W96798   2.845  19.613  10.498
25128W        W96799  41.930   5.706  10.463
25129W        W96800   6.844  32.564   1.995
25130W        W96801  29.227  23.486   3.420
25131W        W96802  44.576   3.989  12.037
25132W        W96803  22.504  38.607  12.145
25133W        W96804   1.817   1.943   3.116
25134W        W96805  12.796  26.379  11.679
25135W        W96806   4.752   6.210   4.562
25136W        W96807  28.016  38.846   0.383
25137W        W96808   3.160  20.918   0.863
25138W        W96809  33.043   5.506   4.164
25139W        W96810  14.096  14.243  11.758
25140W        W96811  40.568  31.945   3.740
25141W        W96812  12.318  34.422   1.862
25142W        W96813  36.349  44.575  14.977
25143W        W96814  23.587  23.144  10.392
25144W        W96815  36.096  18.703  10.905
25145W        W96816  44.483  16.659   1.658
25146W        W96817  35.851  40.865   3.238
25147W        W96818  32.411   0.511  13.909
25148W        W96819  44.511  13.536  12.507
25149W        W96820  37.120  40.502  11.843
25150W        W96821   3.961  40.546  12.504
25151W        W96822  23.085   0.890   4.323
25152W        W96823  26.870   5.261  14.887
25153W        W96824   5.253  17.861   0.830
25154W        W96825  42.409  28.671   1.210
25155W        W96826  25.476   6.322   0.521
25156W        W96827  32.037  27.259   0.783
25157W        W96828  17.271  31.846  11.173
25158W        W96829  23.617  30.392   3.663
25159W        W96830  38.143   4.346   0.443
25160W        W96831  23.028   1.288   1.256
25161W        W96832  10.096  43.979   0.474
25162W        W96833  37.438  33.656  14.832
25163W        W96834  18.532  24.348   2.907
25164W        W96835   3.436  32.649   0.324
25165W        W96836   3.477  25.134   3.287
25166W        W96837   0.492   8.501   3.219
25167W        W96838  41.381  32.041  12.000
25168W        W96839   7.395  34.907   0.155
25169W        W96840   9.106  17.774   4.598
25170W        W96841  32.082  30.917  14.008
25171W        W96842  29.948  43.655   2.535
25172W        W96843  20.147  25.243  10.765
25173W        W96844  39.053   1.178  12.822
25174W        W96845   2.318   3.297  11.282
25175W        W96846  39.513   6.460   0.451
25176W        W96847  22.341  19.371  11.943
25177W        W96848  20.128  16.676   4.597
25178W        W96849   4.720  31.816  12.864
25179W        W96850   9.307  15.750   1.884
25180W        W96851  13.921   8.359  10.557
25181W        W96852  41.802   8.132   2.552
25182W        W96853  11.609   9.712  12.032
25183W        W96854  27.221   1.510   1.818
25184W        W96855  43.353  21.081   0.515
25185W        W96856   2.421  36.143  14.880
25186W        W96857   3.266  40.966   3.748
25187W        W96858  15.744  25.698  12.336
25188W        W96859  38.829  12.664  12.577
25189W        W96860  26.198  21.680   3.572
25190W        W96861  31.138   4.205   2.354
25191W        W96862  37.683   9.461   2.116
25192W        W96863   4.235  15.311   2.754
25193W        W96864  44.427  10.312   4.643
25194W        W96865  17.339   2.920  11.190
25195W        W96866  27.558  30.911  13.774
25196W        W96867  44.223  37.935  10.473
25197W        W96868  16.882  13.895  11.479
25198W        W96869   3.237   8.083   0.175
25199W        W96870  23.212  17.775   2.231
25200W        W96871  27.373  31.903   4.708
25201W        W96872  23.417  11.964  12.995
25202W        W96873   6.261  38.528   3.210
25203W        W96874  13.260  15.449   5.175
25204W        W96875  12.391  26.712   3.891
25205W        W96876  32.729  36.471   1.102
25206W        W96877   4.083  25.471   2.764
25207W        W96878   3.459  27.091   2.909
25208W        W96879   9.679  11.493  13.809
25209W        W96880  15.464  19.683  11.229
25210W        W96881  26.513  39.808  10.280
25211W        W96882  20.098  22.701  10.163
25212W        W96883  14.586   0.381   3.640
25213W        W96884   4.854  31.524   3.156
25214W        W96885  19.384   4.709   3.826
25215W        W96886  12.637   7.744   2.884
25216W        W96887   8.697   5.522  13.838
25217W        W96888  35.448   0.194   2.192
25218W        W96889   3.175  29.431   2.767
25219W        W96890  39.595  25.144   1.311
25220W        W96891  22.425  19.020   0.814
25221W        W96892   0.023  24.801  14.730
25222W        W96893  19.300  40.164  11.064
25223W        W96894  10.579  42.632  12.937
25224W        W96895  22.116  13.680   4.624
25225W        W96896   6.330   1.327  12.905
25226W        W96897  11.370  15.071  12.191
25227W        W96898  43.637  24.098   2.820
25228W        W96899  14.602  22.314  11.899
25229W        W96900  24.794  15.594  14.245
25230W        W96901  42.403  16.039  10.623
25231W        W96902  40.086  16.212   0.258
25232W        W96903  43.302  39.069   4.214
25233W        W96904  44.412  22.670   5.256
25234W        W96905  36.526   8.186   0.063
25235W        W96906  28.484  21.575   0.282
25236W        W96907  14.795  14.593  11.215
25237W        W96908  29.765  25.466  12.763
25238W        W96909  34.893   5.049   4.090
25239W        W96910  33.708   4.938  14.339
25240W        W96911  20.744  18.555  12.035
25241W        W96912   0.301   3.890   4.689
25242W        W96913  16.814   7.566   1.688
25243W        W96914  12.638  24.512  14.521
25244W        W96915  40.976   5.039  14.547
25245W        W96916  14.683  10.040   1.441
25246W        W96917  12.014  14.871  11.074
25247W        W96918   0.923   9.928  12.699
25248W        W96919  41.278  15.721  13.321
25249W        W96920  20.736  40.408   0.433
25250W        W96921  22.496  32.112   1.433
25251W        W96922  20.700  26.184  13.497
25252W        W96923  15.783  38.048   4.599
25253W        W96924  13.918  17.682   1.792
25254W        W96925   3.831  27.843  13.373
25255W        W96926   4.409  43.869  11.990
25256W        W96927  37.853  32.496  10.772
25257W        W96928  43.663  30.934  11.321
25258W        W96929  33.864  42.126   2.395
25259W        W96930   5.893  10.117   3.901
25260W        W96931  38.614  39.432  13.500
25261W        W96932  11.874  33.556  12.436
25262W        W96933   7.617   6.584  13.559
25263W        W96934  24.521   2.898  13.863
25264W        W96935  34.201  43.705  11.523
25265W        W96936  21.815  34.413  13.901
25266W        W96937   1.711  37.113  13.974
25267W        W96938  15.671  41.593   3.010
25268W        W96939  16.803  32.884  12.795
25269W        W96940   0.532  25.539   4.529
25270W        W96941  31.916  15.269   2.299
25271W        W96942   3.944  10.728  12.464
25272W        W96943  42.406   9.948  13.461
25273W        W96944  34.164  37.855   9.691
25274W        W96945  11.155   7.177  13.886
25275W        W96946   1.852  38.319   4.343
25276W        W96947  23.596  32.392   3.623
25277W        W96948  30.513   9.082  11.070
25278W        W96949   3.543  42.611   0.195
25279W        W96950  29.750  22.696   0.932
25280W        W96951  29.938  13.660  11.649
25281W        W96952  29.987  19.291   4.419
25282W        W96953  22.250  24.607  11.020
25283W        W96954  17.822  19.623  10.718
25284W        W96955  31.450   2.693  13.463
25285W        W96956  27.915   9.367   5.343
25286W        W96957  34.144   8.844   2.644
25287W        W96958  43.925  25.356  11.622
25288W        W96959  30.987  23.495   4.412
25289W        W96960  16.092   1.401  12.015
25290W        W96961  11.126  20.759   3.113
25291W        W96962  27.186   1.766  14.010
25292W        W96963  20.565   9.814  11.573
25293W        W96964   9.707  19.002  13.545
25294W        W96965  43.141  15.842   3.430
25295W        W96966  31.113   3.636  11.895
25296W        W96967  12.662  19.569   3.671
25297W        W96968  44.277  16.659  12.503
25298W        W96969  26.835  42.266   2.877
25299W        W96970   0.447  13.590   1.305
25300W        W96971  19.831   7.138  11.009
25301W        W96972  28.434   4.171   4.250
25302W        W96973  43.754  11.646   0.967
25303W        W96974  35.140  29.265  12.567
25304W        W96975  16.025  41.810   1.827
25305W        W96976  43.561  36.375  13.984
25306W        W96977  38.322   3.625   1.870
25307W        W96978  44.064  17.732  11.114
25308W        W96979  42.041  10.228  13.802
25309W        W96980  27.035  17.325   2.238
25310W        W96981  26.961  43.703   4.078
25311W        W96982  33.799  23.561  10.394
25312W        W96983  26.258  33.007   4.790
25313W        W96984  18.692  27.123  12.202
25314W        W96985  42.041  21.445  14.921
25315W        W96986   0.450  32.968  10.723
25316W        W96987   0.906  29.948   1.672
25317W        W96988   8.639  21.715   1.902
25318W        W96989   1.750  39.515   4.539
25319W        W96990  23.502  13.107  12.420
25320W        W96991  22.110  40.823  10.586
25321W        W96992  11.040  15.855  11.625
25322W        W96993  43.010  28.048   1.028
25323W        W96994  40.777  43.397  12.473
25324W        W96995  16.073   6.462  11.482
25325W        W96996  29.110   1.245  13.908
25326W        W96997  26.960  16.733   2.766
25327W        W96998  36.381  40.326  13.050
25328W        W96999  20.982  33.005   2.512
25329W        W97000  42.350  14.735   2.297
25330W        W97001  18.994  26.173   9.964
25331W        W97002  16.328  42.770  13.615
25332W        W97003  18.995  12.339   5.405
25333W        W97004  10.306  29.770   4.654
25334W        W97005   5.630  30.351  14.339
25335W        W97006  36.069   5.312   2.406
25336W        W97007  32.427  39.457  13.719
25337W        W97008   1.650  39.348  14.887
25338W        W97009  32.872  29.594  14.407
25339W        W97010  14.371  39.353  14.460
25340W        W97011  10.578  30.377   1.168
25341W        W97012   9.935  30.504  12.870
25342W        W97013  37.521  21.743  13.193
25343W        W97014  38.197   6.783  14.493
25344W        W97015  20.183  43.937  14.957
25345W        W97016  14.275  35.121   0.281
25346W        W97017   8.491  10.813   2.805
25347W        W97018  42.995   7.157  10.519
25348W        W97019   5.993  31.052   0.940
25349W        W97020  26.579  27.749  12.494
25350W        W97021  38.084  42.477  10.378
25351W        W97022  24.270   8.848  13.461
25352W        W97023  28.136   9.067  11.472
25353W        W97024   9.787  13.542  13.046
25354W        W97025   7.266  33.512  12.635
25355W        W97026  23.952  31.050  14.051
25356W        W97027   9.546  18.244   2.577
25357W        W97028  22.235  23.402  13.102
25358W        W97029  39.422  23.788   2.537
25359W        W97030   0.999  33.081   0.629
25360W        W97031  24.031  18.810  13.917
25361W        W97032  39.948  33.059  11.167
25362W        W97033  22.103  20.082  10.965
25363W        W97034  11.521  25.020  11.249
25364W        W97035  44.344  40.747  10.128
25365W        W97036  24.939  42.749  12.096
25366W        W97037  40.496  33.904  12.628
25367W        W97038  18.740  23.055  12.315
25368W        W97039  40.006  40.424   1.164
25369W        W97040  20.493  27.921  10.528
25370W        W97041   0.912   6.469  11.595
25371W        W97042   8.956  28.700   2.317
25372W        W97043  24.653  12.158  14.420
25373W        W97044  14.615  33.659  13.879
25374W        W97045  34.328   9.191  14.997
25375W        W97046  18.384  21.802   4.642
25376W        W97047  41.995  18.829   0.464
25377W        W97048  43.926   2.435  12.957
25378W        W97049  16.189  35.653  14.837
25379W        W97050  41.035  16.131   1.712
25380W        W97051   9.650   4.655   0.806
25381W        W97052  38.815  28.996  13.370
25382W        W97053  31.194   7.302   3.695
25383W        W97054   0.038   9.907   1.899
25384W        W97055  13.036  22.037  13.538
25385W        W97056  28.475   4.633   3.402
25386W        W97057   9.699  26.913  12.568
25387W        W97058  30.183  42.762  13.852
25388W        W97059  33.137  29.029   0.344
25389W        W97060  42.445   1.041   3.195
25390W        W97061  34.314  44.879  12.689
25391W        W97062   9.813   3.658   1.750
25392W        W97063  27.642   5.382  13.530
25393W        W97064  24.126  15.464   1.315
25394W        W97065  38.527  31.746   3.306
25395W        W97066  19.153  39.040   4.742
25396W        W97067  24.539   3.472   1.326
25397W        W97068  31.963  12.092  13.075
25398W        W97069  34.872   5.317   2.649
25399W        W97070  43.049  37.144  12.425
25400W        W97071   9.367  17.488   3.204
25401W        W97072  18.272  21.545  11.871
25402W        W97073   7.025   6.536   0.880
25403W        W97074  19.134  38.857   0.207
25404W        W97075  39.536  22.007   2.583
25405W        W97076  19.071  28.079  11.199
25406W        W97077  24.567  29.067  11.210
25407W        W97078  39.392  33.008  11.945
25408W        W97079  24.519  19.601   1.266
25409W        W97080   3.686  36.946   0.264
25410W        W97081  24.259  17.326  14.862
25411W        W97082   5.288  24.386   3.561
25412W        W97083  28.470  21.698   2.236
25413W        W97084   8.631   2.702   1.862
25414W        W97085  30.979  12.942  12.035
25415W        W97086   5.892  28.151   0.828
25416W        W97087  39.837  30.042  14.831
25417W        W97088  12.376  18.487   2.346
25418W        W97089   1.034  35.419  13.844
25419W        W97090  27.061   3.016   1.879
25420W        W97091  11.061  12.510  10.922
25421W        W97092  12.609  40.503   2.761
25422W        W97093   4.457  31.468  12.545
25423W        W97094   6.107  44.861  12.803
25424W        W97095   5.472  41.084   0.185
25425W        W97096  11.658  20.835   1.900
25426W        W97097  26.568   6.223  13.646
25427W        W97098  42.343  23.965   5.099
25428W        W97099  11.254  35.417  10.757
25429W        W97100   7.243  30.091   0.780
25430W        W97101  22.447  21.128   3.577
25431W        W97102  43.973  38.133  13.459
25432W        W97103  37.450  32.991   3.708
25433W        W97104  12.558  24.545   0.021
25434W        W97105   1.822  11.736  10.558
25435W        W97106  41.570   8.977   4.154
25436W        W97107  44.428   1.050   0.805
25437W        W97108  14.688   6.875  12.685
25438W        W97109  22.238  37.601   4.001
25439W        W97110  19.981   6.054   2.771
25440W        W97111  36.654  29.636   1.341
25441W        W97112   2.967   2.481   3.231
25442W        W97113  44.785  23.737   2.744
25443W        W97114  37.805  28.232   2.491
25444W        W97115  23.579   8.357  12.423
25445W        W97116  25.414  25.787  10.611
25446W        W97117   3.371  20.763  10.651
25447W        W97118  13.769  25.194  13.846
25448W        W97119  13.907  36.102   0.415
25449W        W97120  29.634  37.079   2.319
25450W        W97121  11.237  18.268  10.434
25451W        W97122  23.263  26.624  13.927
25452W        W97123  25.788  27.544  14.477
25453W        W97124  31.610   2.251   3.797
25454W        W97125  23.453   8.831  10.665
25455W        W97126  34.982   6.893   1.649
25456W        W97127  29.075   0.707   3.640
25457W        W97128  16.635  40.748   3.176
25458W        W97129   1.244   4.961  12.392
25459W        W97130  24.604   1.180  14.775
25460W        W97131   4.320  25.716  11.221
25461W        W97132  10.389  43.950  13.500
25462W        W97133  25.602  39.788   0.093
25463W        W97134  16.366  15.229   4.576
25464W        W97135  29.284  21.831   1.854
25465W        W97136  22.692  28.720   0.403
25466W        W97137  17.025   9.826   1.206
25467W        W97138  43.814  33.517   2.325
25468W        W97139   2.306  34.913   1.324
25469W        W97140  25.967  15.718  14.964
25470W        W97141   5.813  34.867   0.359
25471W        W97142  21.141  15.127   2.650
25472W        W97143  23.951  28.613  11.161
25473W        W97144  11.151  34.140  12.571
25474W        W97145  17.090  19.192  10.725
25475W        W97146   8.602  18.964  11.555
25476W        W97147  29.982  11.965  11.450
25477W        W97148  37.693  12.681   3.177
25478W        W97149  26.687  21.037  12.955
25479W        W97150  23.963   0.017   0.384
25480W        W97151  41.341  25.296  13.711
25481W        W97152  36.984  18.562   1.236
25482W        W97153  43.931  43.967   2.190
25483W        W97154  22.589  43.797   0.256
25484W        W97155   8.781  13.229  13.170
25485W        W97156  25.707   4.938   4.258
25486W        W97157  12.395   3.340   0.245
25487W        W97158   6.330  14.641  14.015
25488W        W97159  41.780  16.711   4.099
25489W        W97160  42.238   3.282   2.768
25490W        W97161  37.568  35.044   3.778
25491W        W97162   9.707  34.137   2.569
25492W        W97163  12.544  20.062   2.240
25493W        W97164  27.494  34.540   1.277
25494W        W97165  26.060  13.782  11.100
25495W        W97166  20.182  28.415   0.315
25496W        W97167  43.327   1.859  12.804
25497W        W97168  39.575  44.773  14.449
25498W        W97169  16.505  15.052   0.034
25499W        W97170  19.493  34.606  14.838
25500W        W97171   9.191   2.516  10.928
25501W        W97172  12.641  20.522  14.678
25502W        W97173  36.063  39.181   0.035
25503W        W97174  23.665  21.846  12.706
25504W        W97175  30.616  39.083   4.693
25505W        W97176   1.479  23.769  12.027
25506W        W97177  30.380  44.244   3.763
25507W        W97178  11.746  28.622  14.484
25508W        W97179  27.802  23.707   4.098
25509W        W97180   4.741  36.524   3.390
25510W        W97181  14.849  16.173  13.901
25511W        W97182  34.184  14.825  14.012
25512W        W97183  25.943  15.591  13.406
25513W        W97184  31.542  33.458  13.360
25514W        W97185  34.842  20.609   1.771
25515W        W97186  33.018  43.420   0.504
25516W        W97187   0.904  35.632  10.751
25517W        W97188  36.494  19.054   0.759
25518W        W97189  35.139  29.052   0.305
25519W        W97190  27.687   0.960  11.963
25520W        W97191  20.197  19.265   0.707
25521W        W97192  11.195  12.799   0.697
25522W        W97193  10.859   9.219   1.207
25523W        W97194   8.815   9.183   3.754
25524W        W97195   3.591   7.981  14.219
25525W        W97196  23.246  21.561  13.737
25526W        W97197   8.306  35.478  11.067
25527W        W97198  25.412  39.660   0.787
25528W        W97199  13.403   6.387   3.408
25529W        W97200   4.400  32.694  14.133
25530W        W97201  41.302  21.472   2.418
25531W        W97202  12.751  19.537  14.851
25532W        W97203  28.154  16.077  10.624
25533W        W97204  29.775  32.136  12.402
25534W        W97205  20.323  35.951   1.040
25535W        W97206  24.741  12.190  13.521
25536W        W97207  23.565  10.086   4.510
25537W        W97208  19.515  44.488   4.579
25538W        W97209  19.100  22.250   0.791
25539W        W97210  36.926   5.942   0.890
25540W        W97211   4.478  28.531   1.379
25541W        W97212  36.342   8.866   3.332
25542W        W97213   3.200   2.229  11.570
25543W        W97214   7.330   4.051   2.278
25544W        W97215  13.886   8.965  14.026
25545W        W97216  41.883  34.938  11.577
25546W        W97217  12.318  41.484  13.274
25547W        W97218  11.930  35.519  12.923
25548W        W97219  12.118   5.998   1.829
25549W        W97220  13.463   4.267  13.566
25550W        W97221   0.400  23.091   3.176
25551W        W97222   5.317  34.916  12.017
25552W        W97223  16.048   0.662   2.744
25553W        W97224  31.169  39.056  14.989
25554W        W97225  15.693  10.311   3.656
25555W        W97226  37.956   4.830   0.395
25556W        W97227  40.224  31.898  11.544
25557W        W97228  21.701  31.579   4.470
25558W        W97229  39.853   8.777  11.722
25559W        W97230  25.497  24.654   0.746
25560W        W97231  36.843  38.702  11.411
25561W        W97232  28.161  34.885   1.739
25562W        W97233  26.412  26.536  11.894
25563W        W97234   2.299   2.295  11.325
25564W        W97235  36.456  15.425  14.835
25565W        W97236   5.306  25.932   1.838
25566W        W97237  44.715   5.385   1.760
25567W        W97238  11.709  13.560   3.075
25568W        W97239  13.886  31.989   3.202
25569W        W97240   9.807  35.640  11.984
25570W        W97241   6.053  40.413  11.489
25571W        W97242  43.870  27.429   3.603
25572W        W97243  41.931  37.828  11.891
25573W        W97244  44.531  30.593   2.010
25574W        W97245  40.239  27.815  11.943
25575W        W97246  44.274   9.716  12.607
25576W        W97247   1.923  37.830   0.629
25577W        W97248   9.429  10.152  11.545
25578W        W97249  44.980  16.118  13.970
25579W        W97250  38.488  18.501   0.726
25580W        W97251  10.356  14.616  14.962
25581W        W97252  35.230  10.650   3.076
25582W        W97253  15.948  10.421  12.070
25583W        W97254   4.473  17.147   3.364
25584W        W97255   8.567  42.363   4.051
25585W        W97256  11.758   0.431   1.801
25586W        W97257  33.149  20.142   3.598
25587W        W97258   2.770  37.910   0.303
25588W        W97259   7.197  20.008  11.167
25589W        W97260  15.801  30.413   1.758
25590W        W97261  33.558  43.580   3.388
25591W        W97262   2.188  29.597  12.140
25592W        W97263   5.795  42.735  14.274
25593W        W97264  42.525  16.908   0.017
25594W        W97265  17.630  10.664   2.588
25595W        W97266   7.873  33.056   2.277
25596W        W97267  39.171  44.289  11.089
25597W        W97268  35.230  38.978   0.074
25598W        W97269  10.289  19.569  11.127
25599W        W97270  38.082  32.535  14.454
25600W        W97271  19.426  44.957   2.344
25601W        W97272   6.887  20.100   1.791
25602W        W97273   5.665  31.630  13.357
25603W        W97274  14.814  27.949  12.709
25604W        W97275   2.167  20.104   3.475
25605W        W97276   9.136  19.264   2.660
25606W        W97277  42.975  16.558   0.105
25607W        W97278  14.299  33.880  14.245
25608W        W97279   3.940  38.540  10.466
25609W        W97280  36.568  42.220   4.944
25610W        W97281  32.685  23.719  14.019
25611W        W97282   3.739  27.468  14.241
25612W        W97283  13.987   2.933   0.825
25613W        W97284   9.145  17.412  14.862
25614W        W97285  28.695  10.659  11.184
25615W        W97286  14.792  14.192   0.500
25616W        W97287  17.042  30.721   1.477
25617W        W97288  19.649   8.647   2.388
25618W        W97289  27.720  11.258  14.215
25619W        W97290  31.984  16.689  13.488
25620W        W97291  23.399  20.602   3.290
25621W        W97292  15.758  19.532  11.604
25622W        W97293  33.982   6.344   4.069
25623W        W97294  33.581   8.238  12.607
25624W        W97295   1.035  32.945   4.361
25625W        W97296  42.351  38.461  12.386
25626W        W97297  19.447   2.253  13.610
25627W        W97298  43.346  44.538  12.655
25628W        W97299  19.641  34.198   3.361
25629W        W97300  20.085  21.318  12.442
25630W        W97301  44.648  27.016   3.707
25631W        W97302  15.249  25.682  14.481
25632W        W97303  21.529  42.498  13.328
25633W        W97304  34.689  13.380   1.278
25634W        W97305  15.237  21.681   2.570
25635W        W97306  44.051  24.836  11.618
25636W        W97307  18.338  29.520  12.959
25637W        W97308  21.641  32.369  12.926
25638W        W97309  44.301  44.952  10.940
25639W        W97310  19.601  43.252  11.567
25640W        W97311  12.470  15.252  13.941
25641W        W97312  40.265  35.284  13.739
25642W        W97313  32.811   2.307   1.213
25643W        W97314  43.217  32.996   0.765
25644W        W97315  39.930  13.210   0.368
25645W        W97316  30.841  40.640   0.789
25646W        W97317  34.597  21.282   2.798
25647W        W97318  21.643  29.630   4.667
25648W        W97319  29.632  11.251   4.698
25649W        W97320   5.391  17.730  14.188
25650W        W97321  14.347   0.717  11.973
25651W        W97322  30.154   0.343  11.653
25652W        W97323   9.077  31.658  12.903
25653W        W97324  34.855   1.381   1.844
25654W        W97325  34.809   8.796   3.277
25655W        W97326   0.231  34.557  13.371
25656W        W97327  22.513  22.855   1.395
25657W        W97328  25.951   5.604   1.209
25658W        W97329  13.826  12.824  14.254
25659W        W97330  23.776  26.495   0.808
25660W        W97331  32.728   8.748   4.140
25661W        W97332  31.532  40.043   0.807
25662W        W97333  29.574   0.836   3.598
25663W        W97334   8.283   3.231  10.664
25664W        W97335  30.545  27.174   2.264
25665W        W97336   1.546  36.199  14.037
25666W        W97337  18.198   3.765   1.256
25667W        W97338   6.750  35.857   1.177
25668W        W97339  24.927  14.635   4.145
25669W        W97340  28.701  32.468  12.099
25670W        W97341   4.448   5.056   0.405
25671W        W97342   5.572  20.080  13.991
25672W        W97343  23.249  23.162   4.140
25673W        W97344  17.720   7.690  12.084
25674W        W97345  12.690  19.865  13.541
25675W        W97346  40.041   7.938  12.127
25676W        W97347  43.336   0.045   0.369
25677W        W97348  25.241  28.603   1.392
25678W        W97349  23.734   6.342   3.230
25679W        W97350  27.395  40.358   1.778
25680W        W97351  43.407  10.792   4.671
25681W        W97352  32.035  21.757  12.511
25682W        W97353  17.531  39.050   2.390
25683W        W97354   6.254  37.837  13.000
25684W        W97355  34.299  24.279   4.146
25685W        W97356  32.093  29.529  14.822
25686W        W97357  41.936  10.320   4.534
25687W        W97358   6.205  44.383   3.698
25688W        W97359   2.042  12.303  12.176
25689W        W97360  31.123  18.524   3.476
25690W        W97361   8.106  11.532  11.098
25691W        W97362  10.521  12.686   4.115
25692W        W97363  30.250  39.077   4.272
25693W        W97364   4.593  39.724   3.638
25694W        W97365  29.917   9.640  11.490
25695W        W97366   8.525  27.235  14.932
25696W        W97367  42.387  25.656  14.390
25697W        W97368  34.941  10.624   4.607
25698W        W97369  24.551   9.716   0.236
25699W        W97370  26.098  27.744   4.558
25700W        W97371  18.809  11.353   0.631
25701W        W97372  25.766  14.882  12.000
25702W        W97373  25.394  38.297  10.778
25703W        W97374  12.646  42.679  11.574
25704W        W97375  43.699  29.743  13.823
25705W        W97376  23.491  41.345  13.951
25706W        W97377  44.437   3.910  13.803
25707W        W97378  23.067   9.278  11.511
25708W        W97379   9.123  26.367  10.431
25709W        W97380  17.834  19.335   0.242
25710W        W97381  21.742  32.105  12.432
25711W        W97382  23.193  36.621   2.380
25712W        W97383  33.462  26.178  12.869
25713W        W97384   3.988  44.758   2.219
25714W        W97385   2.535  43.303  12.846
25715W        W97386  26.167  25.452  13.360
25716W        W97387  17.195  32.863  14.405
25717W        W97388  29.141  19.782   1.718
25718W        W97389  30.019  26.594  14.555
25719W        W97390  26.947   6.376  11.903
25720W        W97391   0.034  36.393  13.799
25721W        W97392  39.569  19.644  10.681
25722W        W97393  40.157  36.240  12.433
25723W        W97394  18.215  19.323  13.885
25724W        W97395  43.547   3.425   0.091
25725W        W97396   5.240   3.747   4.359
25726W        W97397  16.773  34.862  11.918
25727W        W97398  14.274  12.200   4.327
25728W        W97399   9.929  39.867  13.828
25729W        W97400  34.357  29.551   4.060
25730W        W97401  15.550  43.441  13.531
25731W        W97402  19.441  30.549   3.245
25732W        W97403   7.131  34.000  12.768
25733W        W97404   0.888   3.668  12.643
25734W        W97405   7.750  44.356   4.625
25735W        W97406  18.065   3.746  12.194
25736W        W97407  29.480   2.428  12.961
25737W        W97408   9.182  33.903   1.972
25738W        W97409   3.801  22.940   2.237
25739W        W97410  16.860  40.444   3.539
25740W        W97411  36.423  11.061   1.983
25741W        W97412  28.207  18.579   3.276
25742W        W97413  28.903  30.904   2.444
25743W        W97414   5.207  31.912  12.965
25744W        W97415  38.466  27.724   2.148
25745W        W97416  14.833  10.554  10.790
25746W        W97417  41.959   4.830   0.282
25747W        W97418  37.481   2.465   0.147
25748W        W97419  32.713   8.486  14.396
25749W        W97420  19.324   8.187   2.418
25750W        W97421  11.924  38.447   2.239
25751W        W97422  42.052  43.931  12.592
25752W        W97423  13.158  26.648   0.445
25753W        W97424  29.511   1.175  13.475
25754W        W97425  33.477  24.453  11.234
25755W        W97426  29.339  28.086  10.411
25756W        W97427  33.515   4.224   3.978
25757W        W97428  25.958  15.308  11.220
25758W        W97429  31.945  40.558   1.466
25759W        W97430  21.203  21.747  10.559
25760W        W97431   1.348  17.178   4.590
25761W        W97432   4.027  18.528   0.761
25762W        W97433  19.666  26.382  14.835
25763W        W97434  31.634  30.922   1.604
25764W        W97435  38.789  14.675   2.480
25765W        W97436   1.463  35.295  13.591
25766W        W97437  12.751  34.937  12.930
25767W        W97438   5.267   9.664   4.910
25768W        W97439  20.709  11.113  14.351
25769W        W97440  27.076  31.046  13.488
25770W        W97441  23.915  33.271   0.869
25771W        W97442  40.450  20.626  12.961
25772W        W97443   8.121  21.871  12.421
25773W        W97444   0.271   7.807  14.343
25774W        W97445  38.337  29.902  14.774
25775W        W97446   0.985  44.880  13.080
25776W        W97447  44.409   0.009   1.816
25777W        W97448  28.495  12.577  14.076
25778W        W97449  16.198   3.799  14.993
25779W        W97450  38.049  19.254   4.556
25780W        W97451  14.711  38.848  12.926
25781W        W97452  11.572  26.917  11.457
25782W        W97453  28.904  32.624   2.623
25783W        W97454  27.536  23.167  14.832
25784W        W97455  19.844  11.879  14.084
25785W        W97456  39.540  13.561   4.064
25786W        W97457  11.086  24.257  12.147
25787W        W97458  27.091  28.570  13.573
25788W        W97459  26.051  38.866   4.715
25789W        W97460   2.203  42.445  11.769
25790W        W97461  44.880   2.685   2.892
25791W        W97462  29.622   9.883   5.204
25792W        W97463   9.004  18.229  12.860
25793W        W97464   1.661   8.811  11.539
25794W        W97465   1.492   3.649  14.017
25795W        W97466  43.356  13.239   4.773
25796W        W97467  10.553  41.394   1.328
25797W        W97468  40.036  10.597   3.767
25798W        W97469  33.506  37.039   5.000
25799W        W97470  29.375  29.502   0.333
25800W        W97471   1.243   0.338  14.197
25801W        W97472   6.279   5.349  10.667
25802W        W97473  12.449  29.329  13.577
25803W        W97474  16.534  38.566  13.926
25804W        W97475  24.425   2.547   3.670
25805W        W97476  14.045  15.955   4.628
25806W        W97477  25.660  14.102   1.452
25807W        W97478  38.060  28.047  12.358
25808W        W97479  18.513  38.408  11.678
25809W        W97480   4.784  19.070  10.593
25810W        W97481  38.479  28.520  13.078
25811W        W97482   5.999  21.581  14.422
25812W        W97483  31.876   8.947   3.334
25813W        W97484  22.505  23.898  14.092
25814W        W97485  44.852  41.035  11.068
25815W        W97486  43.109  30.493  12.512
25816W        W97487  10.168  44.381   3.344
25817W        W97488  16.601   4.294   4.597
25818W        W97489  38.413  17.160  12.619
25819W        W97490  40.851   5.180   0.040
25820W        W97491  25.733  13.261   4.444
25821W        W97492  37.379  22.798   3.273
25822W        W97493  38.657  37.667  12.330
25823W        W97494  12.100  23.219   0.835
25824W        W97495   3.749  16.314   1.273
25825W        W97496  28.774  12.717  10.388
25826W        W97497  10.908   1.923   4.228
25827W        W97498   2.243   9.969  14.431
25828W        W97499  36.590   4.454  13.423
25829W        W97500  11.387  28.431  11.154
25830W        W97501   4.901  13.156   2.400
25831W        W97502  36.026  37.516  10.608
25832W        W97503   9.722  14.759   3.701
25833W        W97504   5.917  28.360   3.109
25834W        W97505  33.285  24.534   4.770
25835W        W97506   4.809   3.718  14.968
25836W        W97507   4.793  16.629   2.848
25837W        W97508   7.493  19.270   3.707
25838W        W97509  16.486  40.969  12.064
25839W        W97510  21.039  27.707   0.671
25840W        W97511  25.974  39.327   2.670
25841W        W97512  16.414   7.868   0.291
25842W        W97513  32.480  35.878   1.406
25843W        W97514   1.393  21.426   2.401
25844W        W97515  44.524  23.025  13.802
25845W        W97516  29.421  15.910  14.057
25846W        W97517  16.809  12.753  12.601
25847W        W97518  22.700  10.901  12.897
25848W        W97519  21.654   5.913  14.055
25849W        W97520  24.161  30.490  14.822
25850W        W97521  18.183   0.330  10.983
25851W        W97522  35.371   3.952  13.367
25852W        W97523  10.426  26.169  14.882
25853W        W97524  21.475  10.493   2.374
25854W        W97525  24.528  22.595   1.462
25855W        W97526  44.727  36.131  12.469
25856W        W97527  30.129   7.601   4.508
25857W        W97528  36.643  20.766   0.546
25858W        W97529   3.065  41.214   0.799
25859W        W97530  24.215  36.479  13.379
25860W        W97531  41.785   3.047  11.363
25861W        W97532  28.064  22.465   4.613
25862W        W97533   2.512  16.241  12.635
25863W        W97534  34.410  40.840   1.331
25864W        W97535  31.403   8.594  14.946
25865W        W97536  10.314  16.043  12.020
25866W        W97537   7.996  41.547  13.253
25867W        W97538  29.276  24.442  11.129
25868W        W97539  40.808  29.168   0.097
25869W        W97540  29.515  22.399   1.997
25870W        W97541   8.146  14.214   3.394
25871W        W97542  20.565  18.294   0.319
25872W        W97543   2.644  39.008  12.395
25873W        W97544  11.234  36.954  10.982
25874W        W97545  14.774  19.972   1.750
25875W        W97546  38.184   4.710  10.661
25876W        W97547  37.913  15.290   4.549
25877W        W97548  22.801  20.876  13.025
25878W        W97549  17.579   7.824   2.932
25879W        W97550  35.174  14.984   3.443
25880W        W97551   3.334  13.437   0.746
25881W        W97552  28.675  18.020   1.867
25882W        W97553  31.523   9.844  13.518
25883W        W97554   8.659   9.874  11.025
25884W        W97555   4.966  24.218   4.570
25885W        W97556   3.721  44.392  12.035
25886W        W97557  14.778  38.143   2.666
25887W        W97558   3.896  17.685  10.507
25888W        W97559  14.627  11.316   0.399
25889W        W97560  11.093   9.790   0.455
25890W        W97561   8.205  11.231   2.847
25891W        W97562  34.689  33.170  13.069
25892W        W97563   2.638  18.281   4.236
25893W        W97564  30.611   2.921   4.350
25894W        W97565  37.071  37.520   3.876
25895W        W97566  36.623  22.515   0.766
25896W        W97567  25.676  21.315   2.679
25897W        W97568   3.238  29.599  12.078
25898W        W97569   2.470  37.481   0.496
25899W        W97570  30.167  29.003   2.736
25900W        W97571   2.592  29.725   5.217
25901W        W97572  37.889   9.816   2.865
25902W        W97573  31.175  20.855   3.275
25903W        W97574  22.937   8.874  10.784
25904W        W97575   2.319  41.324   1.922
25905W        W97576   6.780  19.571   4.140
25906W        W97577  17.963  42.001   2.326
25907W        W97578  34.274  23.634   0.076
25908W        W97579  34.621  18.584   0.616
25909W        W97580  17.706  10.313  11.525
25910W        W97581   3.978  10.616  13.865
25911W        W97582  16.876  20.705  13.930
25912W        W97583  17.093  34.423  11.188
25913W        W97584   6.697  21.196   3.749
25914W        W97585  43.569  29.678   3.311
25915W        W97586  30.269  40.246  11.946
25916W        W97587  37.926   3.288  14.883
25917W        W97588   0.709  14.631   2.408
25918W        W97589   1.906  41.940   1.514
25919W        W97590  15.776  25.560   1.676
25920W        W97591  26.088  10.318   2.997
25921W        W97592  36.868  27.516   3.906
25922W        W97593   9.138  40.836  12.601
25923W        W97594  43.236  35.969  11.168
25924W        W97595  29.794  37.512   1.379
25925W        W97596  38.430   9.428   3.292
25926W        W97597  24.971  19.776  13.440
25927W        W97598  37.034  30.195   3.663
25928W        W97599  22.796  44.951   0.935
25929W        W97600   5.477  12.765   3.644
25930W        W97601  13.695  32.649  13.891
25931W        W97602  16.329  31.087  12.378
25932W        W97603  24.894  16.637  11.092
25933W        W97604   7.739  17.032   4.569
25934W        W97605  22.727   0.950   4.689
25935W        W97606  28.456  33.544  13.013
25936W        W97607   1.972  43.923  14.905
25937W        W97608  32.058  15.829   3.273
25938W        W97609  43.620  41.137  10.951
25939W        W97610  30.132  35.467   3.163
25940W        W97611  22.409  24.810   5.658
25941W        W97612  36.100  26.484   2.270
25942W        W97613  14.059  19.435   2.003
25943W        W97614  43.156  41.230   3.101
25944W        W97615  29.665  30.498   2.756
25945W        W97616  38.291  11.651  12.576
25946W        W97617   0.824  37.727  13.012
25947W        W97618  34.360   3.810   4.358
25948W        W97619  12.537  27.570  13.403
25949W        W97620  44.933  40.785   2.813
25950W        W97621  32.157  35.964  13.116
25951W        W97622  16.536  13.606  11.093
25952W        W97623   1.864  20.582  14.921
25953W        W97624   9.188  20.047  13.899
25954W        W97625  26.804  21.131  14.804
25955W        W97626  15.578  27.621   2.576
25956W        W97627   6.846  24.881   5.020
25957W        W97628   7.479  41.615  10.290
25958W        W97629  18.070   2.945   2.757
25959W        W97630  21.021  12.721   4.497
25960W        W97631  16.502   7.020   2.543
25961W        W97632  25.972  26.657  12.929
25962W        W97633  10.444  30.220   2.366
25963W        W97634  28.100   1.950   0.834
25964W        W97635  40.770  39.717   0.931
25965W        W97636  36.562  15.850   3.346
25966W        W97637  14.661  43.249  13.046
25967W        W97638   3.594  11.038  12.676
25968W        W97639  34.759  10.248  11.123
25969W        W97640  17.446  35.687   1.322
25970W        W97641  22.290  31.893   2.002
25971W        W97642  42.880   4.301   1.033
25972W        W97643  24.775  38.524  14.938
25973W        W97644  24.024  19.144   2.772
25974W        W97645  39.866  14.756   1.483
25975W        W97646  12.367  40.287   2.330
25976W        W97647  30.658   7.326   1.224
25977W        W97648   0.778   8.744   4.317
25978W        W97649  19.995   3.030  13.596
25979W        W97650  27.156  15.809   4.246
25980W        W97651  18.012  30.878   2.229
25981W        W97652   5.271  23.492  11.773
25982W        W97653  33.180  40.974  12.373
25983W        W97654  34.855  11.940   4.225
25984W        W97655  11.629  14.891  13.491
25985W        W97656  40.898  42.293   1.230
25986W        W97657  20.791  14.392   4.144
25987W        W97658  28.114  10.291   9.952
25988W        W97659  24.482   0.349   1.438
25989W        W97660  20.161   2.187   1.878
25990W        W97661  31.392  41.602   4.363
25991W        W97662   5.215  41.954  10.816
25992W        W97663  21.986   8.435   0.415
25993W        W97664  34.795  42.959   3.973
25994W        W97665  27.292  21.677   3.223
25995W        W97666  19.680   3.673   1.335
25996W        W97667  39.253  30.572   4.246
25997W        W97668  22.234  43.752   2.845
25998W        W97669  20.007   8.717  13.069
25999W        W97670  44.200  41.089  14.810
26000W        W97671  10.922  11.580  12.852
26001W        W97672  33.051  36.205   2.639
26002W        W97673  41.476  27.996   1.310
26003W        W97674   9.442  34.502  10.284
26004W        W97675  15.110   9.767  11.507
26005W        W97676   2.795  21.549   3.673
26006W        W97677  17.525  17.040  13.877
26007W        W97678  27.027  19.652   2.124
26008W        W97679  31.700  37.518   4.069
26009W        W97680  10.712  21.697   1.333
26010W        W97681  13.788   1.933  12.171
26011W        W97682  13.045  22.367  12.913
26012W        W97683  28.738   8.702   0.888
26013W        W97684  20.134  22.618   2.259
26014W        W97685  13.075  31.213   0.695
26015W        W97686  32.990  29.493  11.916
26016W        W97687  30.942  17.555  11.706
26017W        W97688  44.299  16.788  11.587
26018W        W97689   1.190  36.984   0.435
26019W        W97690  37.964  18.526   2.214
26020W        W97691   1.271  35.525   3.261
26021W        W97692   3.241  22.069  13.401
26022W        W97693  33.549  37.600  14.268
26023W        W97694  18.523   6.343  13.344
26024W        W97695  32.035   1.019   2.329
26025W        W97696  14.565  16.106   3.854
26026W        W97697  15.881  42.082   1.412
26027W        W97698  20.513  25.815  13.042
26028W        W97699  40.384  10.507  10.649
26029W        W97700  44.738  37.537  14.316
26030W        W97701  31.504   8.766  12.463
26031W        W97702  38.060  33.605   1.222
26032W        W97703  42.295  43.270   3.979
26033W        W97704  43.961  10.726  12.395
26034W        W97705  24.086  15.259   2.603
26035W        W97706  21.226   8.817   3.770
26036W        W97707   7.460   6.574   3.825
26037W        W97708  23.011  19.038  11.577
26038W        W97709  23.042  12.559   3.415
26039W        W97710   5.118  24.695   0.473
26040W        W97711  21.583  31.063   0.377
26041W        W97712  37.740   8.360   1.450
26042W        W97713  21.092  40.118  11.996
26043W        W97714  44.298   3.035   1.885
26044W        W97715  23.674   2.341  13.824
26045W        W97716  17.892  12.480  11.604
26046W        W97717  44.385   5.147   0.556
26047W        W97718  30.371  13.552  12.433
26048W        W97719  17.717   3.654  13.452
26049W        W97720  32.983  35.517  12.794
26050W        W97721  20.538  15.478  13.007
26051W        W97722  40.748   5.391   2.508
26052W        W97723   6.462  40.172  11.690
26053W        W97724  36.532  20.308   3.432
26054W        W97725   3.759  35.851  12.510
26055W        W97726  44.697  14.728  13.547
26056W        W97727  19.465  28.469   3.673
26057W        W97728  13.762  20.002  10.481
26058W        W97729  15.544  30.518  10.658
26059W        W97730  34.979  31.635  14.391
26060W        W97731  18.285  13.744   0.747
26061W        W97732  35.064  33.715   3.204
26062W        W97733  39.498  41.813   2.876
26063W        W97734  39.397  18.263  12.432
26064W        W97735  20.153  42.106   4.743
26065W        W97736   5.873  42.279   2.193
26066W        W97737  33.828  22.901   4.622
26067W        W97738   0.987   6.211   4.713
26068W        W97739  39.747  20.668   0.755
26069W        W97740  12.930  17.387   2.532
26070W        W97741  24.641  13.999   2.734
26071W        W97742   9.148  39.882   4.537
26072W        W97743  19.029  10.819   2.330
26073W        W97744  34.639  15.761   1.360
26074W        W97745  29.175  43.947  12.897
26075W        W97746  41.551  41.870   2.673
26076W        W97747   7.376  22.735  13.754
26077W        W97748  13.568  37.644   4.617
26078W        W97749  31.049   3.838   0.517
26079W        W97750  21.239  30.452   2.946
26080W        W97751  42.018  19.628  13.448
26081W        W97752  21.026  18.571  12.486
26082W        W97753  23.972  24.689  12.067
26083W        W97754  15.064   2.717  11.751
26084W        W97755  16.451  29.879  13.144
26085W        W97756  34.591  44.295  13.284
26086W        W97757  13.960  26.640   2.335
26087W        W97758  13.238  32.887   1.869
26088W        W97759   4.778  32.753  13.089
26089W        W97760   0.444  28.754  11.639
26090W        W97761  34.008   9.807   2.724
26091W        W97762   5.352   9.417  13.773
26092W        W97763  23.559  42.773  12.132
26093W        W97764  31.502   0.354   2.390
26094W        W97765  16.866  20.121  12.646
26095W        W97766  13.328  14.239   5.101
26096W        W97767  36.517  35.389   1.278
26097W        W97768  14.301  19.111  13.580
26098W        W97769   5.142  24.344  13.881
26099W        W97770  36.482  40.293  11.719
26100W        W97771  38.775   8.305   4.578
26101W        W97772   1.304  22.103   0.041
26102W        W97773  38.020   4.297   1.817
26103W        W97774  27.110  20.523   4.039
26104W        W97775   3.730  30.341  12.952
26105W        W97776  38.382   5.721  13.343
26106W        W97777  23.541  37.630  14.333
26107W        W97778  16.179  17.312   1.232
26108W        W97779  43.039  20.049  12.616
26109W        W97780  28.469  38.340  11.157
26110W        W97781  27.955  39.505   3.562
26111W        W97782  17.817  43.760  14.030
26112W        W97783  28.681  37.510  10.610
26113W        W97784  28.450   1.890   2.199
26114W        W97785  42.911  25.423   1.444
26115W        W97786  34.562  10.215  12.957
26116W        W97787   9.216  43.815  12.212
26117W        W97788  27.658  35.568  11.133
26118W        W97789   9.473   3.359   0.514
26119W        W97790  18.097  36.959  14.155
26120W        W97791  33.330  37.444   2.886
26121W        W97792  42.882  44.216   0.242
26122W        W97793  33.055  31.163   4.109
26123W        W97794  31.446  23.473   4.144
26124W        W97795  24.175  33.529   4.683
26125W        W97796   6.867  21.558   4.446
26126W        W97797   9.157   2.967   4.894
26127W        W97798  11.333  12.381   0.382
26128W        W97799  14.736  24.585   1.569
26129W        W97800  19.963  22.748   1.768
26130W        W97801  32.632  17.132   1.401
26131W        W97802   7.486  16.696  12.573
26132W        W97803  22.976   7.456  13.362
26133W        W97804  43.954  21.978   1.288
26134W        W97805  15.937   9.464   3.034
26135W        W97806  21.542  11.014   2.307
26136W        W97807   3.216   6.012   0.761
26137W        W97808  18.989   6.300   2.664
26138W        W97809  35.466  10.085   2.170
26139W        W97810   8.647  19.167  10.674
26140W        W97811   0.613  36.145   1.483
26141W        W97812  30.897  42.872   0.722
26142W        W97813  32.575  13.156  12.540
26143W        W97814   9.211   9.793  12.187
26144W        W97815   9.630  39.074  11.503
26145W        W97816  20.528  30.167   1.857
26146W        W97817   2.535  42.135   3.154
26147W        W97818  37.903   5.159  10.531
26148W        W97819  39.121  32.979   0.558
26149W        W97820  31.786  22.566   2.813
26150W        W97821   7.476  37.353   1.217
26151W        W97822  31.924  26.446   5.042
26152W        W97823  17.469  17.065  12.513
26153W        W97824   2.888   3.699   0.006
26154W        W97825  42.767  12.770  12.922
26155W        W97826  22.608  14.020  10.207
26156W        W97827  36.847  15.387  12.065
26157W        W97828  32.891  26.652   5.090
26158W        W97829  41.056   5.436  14.241
26159W        W97830  14.394   4.276  11.144
26160W        W97831  37.292  41.521   0.577
26161W        W97832  42.722  38.583  11.978
26162W        W97833  28.227  21.278  12.067
26163W        W97834  38.482  17.623   1.133
26164W        W97835  20.304  19.039  11.173
26165W        W97836  31.370  24.961   0.783
26166W        W97837  17.231   6.274   3.127
26167W        W97838  29.796   7.550   5.408
26168W        W97839  18.547  16.589   1.299
26169W        W97840  26.382  22.132  12.395
26170W        W97841  22.514   4.337   3.399
26171W        W97842  11.437  10.637   3.242
26172W        W97843   4.842   6.569   4.166
26173W        W97844   9.632  39.879   0.408
26174W        W97845  34.345   6.684  11.152
26175W        W97846  16.177  17.302   0.033
26176W        W97847  29.691  18.028   3.765
26177W        W97848  37.731  43.919  13.973
26178W        W97849  15.229  32.905  11.885
26179W        W97850  13.835  39.104  10.829
26180W        W97851  38.996  24.218   4.178
26181W        W97852  22.753  38.950  12.999
26182W        W97853  13.073  10.890  13.425
26183W        W97854  18.130  38.111  10.917
26184W        W97855   2.520  12.202   3.191
26185W        W97856  18.626   0.835   2.154
26186W        W97857   3.710  36.186  14.492
26187W        W97858  20.202  29.033   4.926
26188W        W97859  22.628   6.886   0.911
26189W        W97860  11.307  17.790  11.232
26190W        W97861  29.306   6.892  14.915
26191W        W97862  24.310  26.557   1.688
26192W        W97863   0.837  25.484  14.938
26193W        W97864  26.705  12.176  11.529
26194W        W97865  33.340  36.103  13.836
26195W        W97866  24.226  13.172   0.831
26196W        W97867  17.989  21.606   2.910
26197W        W97868  33.939  26.974  12.539
26198W        W97869  36.534   7.034  14.217
26199W        W97870   4.204  10.018   4.105
26200W        W97871  31.602  26.409   4.588
26201W        W97872  13.139   2.409   2.829
26202W        W97873   4.851  27.224   1.927
26203W        W97874  15.783  39.703   1.375
26204W        W97875  20.202  42.913   0.396
26205W        W97876  23.365  40.282   1.708
26206W        W97877  23.661  34.354  13.607
26207W        W97878  23.512   6.477  11.480
26208W        W97879  19.331  31.954  10.240
26209W        W97880  21.007   1.196   0.740
26210W        W97881  17.502  33.393   2.732
26211W        W97882  39.147   7.938  10.812
26212W        W97883  19.083  31.595  12.564
26213W        W97884   4.187  20.570  12.369
26214W        W97885  21.193  22.976   4.568
26215W        W97886  29.771   9.349   5.133
26216W        W97887  34.414   1.940  14.877
26217W        W97888  33.997  24.229   3.294
26218W        W97889  35.079  37.614   1.333
26219W        W97890   4.391  11.561  14.913
26220W        W97891   2.751   0.823  14.236
26221W        W97892  29.479  40.455  14.833
26222W        W97893   0.178  43.439   2.251
26223W        W97894  27.575   0.781   0.399
26224W        W97895  27.578  29.606   1.279
26225W        W97896   9.683   6.318   0.007
26226W        W97897   6.426  22.294  10.537
26227W        W97898  31.628  18.966   4.225
26228W        W97899   2.767   0.384  13.490
26229W        W97900  16.011   5.682  11.220
26230W        W97901  24.875  26.561  12.030
26231W        W97902  22.257   4.793  14.406
26232W        W97903  24.661  17.226  13.044
26233W        W97904  14.279  20.076   4.665
26234W        W97905  40.913  26.887   1.734
26235W        W97906  40.939  19.559   0.145
26236W        W97907  12.135  25.496   1.631
26237W        W97908  27.894  41.032  11.020
26238W        W97909  26.419  17.147   4.055
26239W        W97910  13.884   0.348   4.141
26240W        W97911  35.062  10.610   0.923
26241W        W97912  17.972   8.634  13.997
26242W        W97913  32.760  36.884  14.492
26243W        W97914  42.488  44.702  14.990
26244W        W97915  10.721   4.357  12.038
26245W        W97916   5.813   3.666  11.086
26246W        W97917  40.623   5.815  11.249
26247W        W97918  29.747  27.495  11.171
26248W        W97919  30.178  30.121  12.312
26249W        W97920  29.550  29.676  12.398
26250W        W97921  19.662  28.387  12.485
26251W        W97922  11.856  33.658   0.698
26252W        W97923  31.897  35.413   0.836
26253W        W97924  34.175  12.365  13.527
26254W        W97925  33.127  10.617  11.610
26255W        W97926  32.303  21.215   5.065
26256W        W97927  42.226  36.361   4.106
26257W        W97928  22.625  22.887   3.582
26258W        W97929  16.489  41.355  14.069
26259W        W97930   7.186  33.550  14.978
26260W        W97931  27.638  43.593   3.675
26261W        W97932  11.569   9.995  11.259
26262W        W97933  38.694  44.833   1.177
26263W        W97934  11.698  25.576   2.313
26264W        W97935  41.877  37.163  14.924
26265W        W97936  19.005  14.102  12.203
26266W        W97937   4.431  15.036  12.559
26267W        W97938   0.412  10.814   3.736
26268W        W97939  26.440  21.692   3.123
26269W        W97940  25.696   9.397  13.615
26270W        W97941   6.261  21.583   0.294
26271W        W97942  39.684  19.359   1.827
26272W        W97943  28.227  15.885   1.380
26273W        W97944  32.055  10.922   1.457
26274W        W97945   4.554   3.835  13.493
26275W        W97946   1.970  20.965   1.691
26276W        W97947  13.610   3.387  12.961
26277W        W97948  10.327  18.124  12.096
26278W        W97949   2.937  22.752  13.616
26279W        W97950   2.651  22.551  12.916
26280W        W97951   8.498  18.463  13.705
26281W        W97952  21.952  15.417   0.458
26282W        W97953  14.527  37.540   0.423
26283W        W97954  18.293  40.883  14.834
26284W        W97955  34.860  40.137   4.328
26285W        W97956   3.584  44.724   4.051
26286W        W97957  41.840  24.477  14.847
26287W        W97958  35.006  20.140  11.606
26288W        W97959   6.765  22.876   4.647
26289W        W97960  17.878  35.221  14.355
26290W        W97961  40.402  40.488   0.496
26291W        W97962  19.815  40.025  13.411
26292W        W97963  19.802  18.501   2.759
26293W        W97964  34.562  21.040   0.793
26294W        W97965  31.537  26.735  13.090
26295W        W97966  37.374   3.860   2.209
26296W        W97967   2.441  22.047  13.030
26297W        W97968  16.422  31.104   0.231
26298W        W97969  38.537  38.437  10.717
26299W        W97970  34.961  37.112  12.475
26300W        W97971   9.421  18.536  13.988
26301W        W97972   9.931  13.795  14.879
26302W        W97973  18.174  15.012   1.917
26303W        W97974  30.700  26.219   3.329
26304W        W97975  22.462  29.984   4.557
26305W        W97976  24.495  40.822  13.343
26306W        W97977  13.155  39.557   0.792
26307W        W97978  18.630   9.804  11.824
26308W        W97979   2.575  22.657   4.470
26309W        W97980  23.275  25.549  14.906
26310W        W97981  34.362  21.180   4.123
26311W        W97982  36.327  26.899  12.971
26312W        W97983  21.026  43.746  12.790
26313W        W97984  22.018  32.500  14.777
26314W        W97985  25.730  30.821   0.734
26315W        W97986  29.395  25.738   4.693
26316W        W97987  22.082  38.522   4.540
26317W        W97988  13.567   4.018   3.781
26318W        W97989  32.077   9.735   4.885
26319W        W97990  30.681  44.109   2.402
26320W        W97991  38.050  24.977  14.311
26321W        W97992   7.194  43.116   1.264
26322W        W97993   4.518   0.545   5.073
26323W        W97994  33.865  27.131   0.827
26324W        W97995  16.229  12.694  11.780
26325W        W97996  35.557   7.378  12.971
26326W        W97997  31.148  17.194  10.713
26327W        W97998  31.843  39.021  11.560
26328W        W97999  12.791  20.821  11.753
26329W        W98000   8.152   4.698   1.817
26330W        W98001  13.797  10.437  12.587
26331W        W98002  24.669  35.015   1.158
26332W        W98003  14.801   0.904   2.793
26333W        W98004  39.196  18.230  13.894
26334W        W98005  25.290  14.242  13.227
26335W        W98006   3.945  29.034   0.300
26336W        W98007  31.563  31.027  13.912
26337W        W98008  16.896  28.015   0.023
26338W        W98009  37.530  23.305   3.172
26339W        W98010  30.628  33.096  13.386
26340W        W98011  26.546   1.161  14.548
26341W        W98012   2.884   4.604  14.492
26342W        W98013  20.288  43.422  11.030
26343W        W98014  41.879  15.089   4.925
26344W        W98015  10.895   4.281   0.743
26345W        W98016  22.672  38.467  10.045
26346W        W98017  12.909  27.167  10.984
26347W        W98018  37.884  36.027  14.927
26348W        W98019  20.478   5.936   2.721
26349W        W98020  22.602  35.564   1.430
26350W        W98021  33.169  33.978   0.439
26351W        W98022  18.864  35.931  10.046
26352W        W98023  25.680   9.671   3.103
26353W        W98024  21.161  32.001   1.439
26354W        W98025  44.558  25.803  12.823
26355W        W98026  10.799  39.858   1.818
26356W        W98027  35.773  26.068   2.187
26357W        W98028   6.270  21.843  13.830
26358W        W98029  35.541   7.490   0.993
26359W        W98030   9.790  17.766  10.715
26360W        W98031  37.862  27.016   1.761
26361W        W98032  15.817  21.970  11.136
26362W        W98033  15.649  44.091  10.671
26363W        W98034  13.484   0.249  13.586
26364W        W98035  10.075   7.812  13.794
26365W        W98036  29.949   6.432   0.354
26366W        W98037  23.580  35.807   2.312
26367W        W98038   5.262  28.072  12.452
26368W        W98039   5.784  11.701   1.096
26369W        W98040  14.119  43.992  14.102
26370W        W98041  18.712   9.289   4.164
26371W        W98042  43.600  36.560  14.468
26372W        W98043   2.269   2.914   1.478
26373W        W98044  32.339  42.238  14.212
26374W        W98045  37.385  37.834   0.932
26375W        W98046  16.723  29.653  14.468
26376W        W98047  38.775  34.089  11.082
26377W        W98048   0.470  24.048   3.616
26378W        W98049   4.789  24.165  13.293
26379W        W98050  37.508  34.664  14.954
26380W        W98051   9.299   6.278  14.636
26381W        W98052   8.313  14.556   1.157
26382W        W98053  22.979  42.905  14.339
26383W        W98054   7.849   7.806  12.832
26384W        W98055  31.917  13.455   4.812
26385W        W98056  23.060  42.374   2.488
26386W        W98057  26.690  27.425   3.310
26387W        W98058   0.177  23.973   1.295
26388W        W98059  13.208  18.998  14.603
26389W        W98060  41.597  39.893   4.745
26390W        W98061  43.834   8.868  13.480
26391W        W98062  26.762  34.920  11.934
26392W        W98063  12.655  28.216  11.190
26393W        W98064  11.799   5.916  14.445
26394W        W98065  24.982  23.952   2.789
26395W        W98066  16.708  16.583   2.283
26396W        W98067  41.774  29.434   2.145
26397W        W98068  43.070  10.415   3.528
26398W        W98069   7.100  36.405   0.407
26399W        W98070  28.760  23.470  12.003
26400W        W98071  38.412  22.456  14.720
26401W        W98072  43.023  13.758  14.444
26402W        W98073  32.103  43.971   0.383
26403W        W98074  13.851  15.683  13.914
26404W        W98075   1.743  26.032  14.878
26405W        W98076  26.190  26.216   1.663
26406W        W98077  35.983   9.828   0.333
26407W        W98078  36.907  15.657   4.903
26408W        W98079  42.936   2.535  11.948
26409W        W98080  39.860   6.141  12.447
26410W        W98081  30.585   5.994  14.891
26411W        W98082   1.820  14.139   0.215
26412W        W98083  24.268  43.429   1.830
26413W        W98084  25.263  33.507  11.527
26414W        W98085  25.272  40.807  12.762
26415W        W98086   3.667  11.114   3.817
26416W        W98087  44.356  34.373  11.155
26417W        W98088  23.445  33.371  14.098
26418W        W98089  44.683  14.251   2.321
26419W        W98090  20.549  33.701  14.674
26420W        W98091  27.481  38.899   1.550
26421W        W98092  26.917   6.886   3.807
26422W        W98093   1.035  35.004   0.905
26423W        W98094  22.096  14.331  11.883
26424W        W98095  11.787  17.384   4.375
26425W        W98096  36.537  36.256  10.633
26426W        W98097  40.149  40.755  12.870
26427W        W98098  20.118   0.515  11.521
26428W        W98099  41.429   8.384  14.943
26429W        W98100   6.634  12.382  13.954
26430W        W98101  26.673  33.550   2.306
26431W        W98102   4.387  18.817  11.843
26432W        W98103  23.131  23.639   1.184
26433W        W98104  42.160  14.469   4.982
26434W        W98105  37.198  34.522  11.952
26435W        W98106  22.079  38.991   1.949
26436W        W98107   5.112   3.283   0.845
26437W        W98108  10.968   4.806   2.293
26438W        W98109   8.166  29.521  13.913
26439W        W98110  20.357  33.539  10.370
26440W        W98111  15.153   6.350   1.480
26441W        W98112  20.845  27.766  13.887
26442W        W98113   5.373  37.829  12.881
26443W        W98114  30.112   2.092   2.739
26444W        W98115   1.981  26.018  13.909
26445W        W98116  42.937  19.050  14.409
26446W        W98117  22.267  10.691   0.404
26447W        W98118  12.132   5.670   3.211
26448W        W98119   4.809  23.982  12.307
26449W        W98120  29.590  13.746   0.321
26450W        W98121  23.983  26.138   4.593
26451W        W98122  37.945  21.855   0.930
26452W        W98123  39.903   5.647  11.803
26453W        W98124  28.285  36.092  12.904
26454W        W98125  15.745  20.691   1.041
26455W        W98126  41.051   5.936  12.534
26456W        W98127  14.774  34.464  13.064
26457W        W98128  26.325  44.354   4.123
26458W        W98129  42.854  32.360   3.202
26459W        W98130  30.190  23.458  13.037
26460W        W98131  40.796   3.645  10.746
26461W        W98132   5.616  18.738   2.345
26462W        W98133  41.067  28.163  13.890
26463W        W98134   8.809   7.046   4.803
26464W        W98135  40.326  15.123   4.918
26465W        W98136   5.234  13.151   2.834
26466W        W98137  17.863   2.830   0.848
26467W        W98138   6.105   2.479  11.822
26468W        W98139   1.692  42.475  11.638
26469W        W98140   5.907  32.390  10.661
26470W        W98141  15.928   7.282  10.167
26471W        W98142   1.660  22.346  14.750
26472W        W98143  10.378  20.853  14.547
26473W        W98144  13.824  39.773  14.781
26474W        W98145   0.617  24.204   0.379
26475W        W98146   5.744   4.415   4.592
26476W        W98147   4.266  16.078  12.536
26477W        W98148   3.917  21.976  14.238
26478W        W98149  34.817  43.358  14.990
26479W        W98150  35.651  14.032  13.412
26480W        W98151  44.578  23.515   9.764
26481W        W98152  24.252  44.784   2.735
26482W        W98153  27.252  36.019  11.120
26483W        W98154  17.761   5.313   9.981
26484W        W98155   1.657   3.321   2.015
26485W        W98156  34.479  26.167   2.325
26486W        W98157  23.321  29.758  12.557
26487W        W98158   4.669   4.457  14.273
26488W        W98159   1.182  38.875   4.083
26489W        W98160  12.797  10.295  10.949
26490W        W98161  26.230  25.634  11.519
26491W        W98162   0.168  11.179  10.241
26492W        W98163  25.627  14.653  14.304
26493W        W98164  26.910  37.873   4.414
26494W        W98165  36.651  43.879  11.601
26495W        W98166  14.166   2.487   3.193
26496W        W98167  28.513   6.125  13.788
26497W        W98168   4.233  31.827   4.694
26498W        W98169  28.618   3.450   2.653
26499W        W98170  35.137  24.074  12.973
26500W        W98171  20.823  33.017  11.509
26501W        W98172  44.484   0.844  10.727
26502W        W98173  26.977  19.816   5.161
26503W        W98174   2.275  32.580  10.563
26504W        W98175   4.565  27.026   0.299
26505W        W98176  37.325  32.435  11.980
26506W        W98177  24.474  35.706   3.221
26507W        W98178  10.247   0.898   1.371
26508W        W98179   4.410  26.956   1.983
26509W        W98180   9.155   4.449  11.470
26510W        W98181  39.905  40.475   1.674
26511W        W98182  44.940  37.793  10.963
26512W        W98183  33.369  21.747   0.815
26513W        W98184  15.320  11.190   2.321
26514W        W98185  28.162   1.923  12.657
26515W        W98186   1.386  24.428  13.455
26516W        W98187  41.009   3.787  11.187
26517W        W98188  17.782  26.710   0.878
26518W        W98189  31.051   9.417  13.962
26519W        W98190  17.283   5.359   3.761
26520W        W98191  35.418  15.559   0.276
26521W        W98192  26.638  23.229  11.540
26522W        W98193   8.846   2.809  10.661
26523W        W98194  27.499  30.574  11.138
26524W        W98195  43.626  15.355   2.250
26525W        W98196   4.727  40.746   5.064
26526W        W98197  38.248  32.544  12.304
26527W        W98198  24.308  22.742   1.016
26528W        W98199  42.346  33.312  11.202
26529W        W98200  40.921  32.303  12.510
26530W        W98201  13.718  11.630   0.051
26531W        W98202   1.692  35.794   0.327
26532W        W98203   2.822  21.485  12.490
26533W        W98204  36.492  31.543   4.567
26534W        W98205  38.411  14.168   2.359
26535W        W98206   8.691  15.692   4.103
26536W        W98207  18.701  32.954   2.880
26537W        W98208   7.935  14.093  14.299
26538W        W98209  15.779  19.077  12.084
26539W        W98210  21.689  24.145   5.379
26540W        W98211  17.869  43.497  14.534
26541W        W98212   3.617  19.284   3.895
26542W        W98213  19.192   3.893  13.725
26543W        W98214  40.777  40.991   9.972
26544W        W98215  29.995  30.879  11.439
26545W        W98216  31.159  12.859   2.539
26546W        W98217  15.806  24.641   0.496
26547W        W98218  32.820   3.753   4.132
26548W        W98219  34.379  31.343   4.147
26549W        W98220  24.576  11.230   0.508
26550W        W98221  39.033  36.139  13.390
26551W        W98222  21.950  38.074  14.031
26552W        W98223  14.194  43.083  14.665
26553W        W98224  30.910  32.994  12.970
26554W        W98225  17.831   6.778   4.703
26555W        W98226  26.679  26.460   4.986
26556W        W98227  19.954  12.425  12.412
26557W        W98228  24.118  25.264  12.941
26558W        W98229  21.102  12.659   2.702
26559W        W98230  13.068   9.741  12.572
26560W        W98231  40.892  13.654   2.117
26561W        W98232  40.849   3.751  13.801
26562W        W98233  32.235  11.324   0.360
26563W        W98234  40.863  29.192   2.329
26564W        W98235  16.677  20.552  12.931
26565W        W98236  25.732   0.952   1.420
26566W        W98237  32.700   4.300  13.062
26567W        W98238  31.535   5.415  11.520
26568W        W98239  10.269  41.744   4.151
26569W        W98240   3.412  18.123   4.520
26570W        W98241   9.136  20.353   3.307
26571W        W98242  15.603   7.899  14.848
26572W        W98243   3.200  16.724   4.105
26573W        W98244  34.443  36.064   4.735
26574W        W98245   9.358  32.044  13.098
26575W        W98246   4.488  27.186  11.058
26576W        W98247   7.777  23.294  13.338
26577W        W98248   1.953  20.799   0.369
26578W        W98249  32.830  34.960   2.035
26579W        W98250  18.199  37.435   1.865
26580W        W98251  31.896  43.692   2.724
26581W        W98252  42.355  15.121   2.671
26582W        W98253  39.819  20.242   3.736
26583W        W98254  40.927  16.822   2.952
26584W        W98255  44.189  22.924   0.737
26585W        W98256  34.408  14.574  12.636
26586W        W98257  33.890   5.834  13.133
26587W        W98258  38.492  10.100  12.274
26588W        W98259  34.113  20.734   3.169
26589W        W98260  44.055  39.455   1.396
26590W        W98261  15.601  26.554   3.836
26591W        W98262  39.341  13.356  12.955
26592W        W98263   3.918  14.536   4.090
26593W        W98264  32.261   1.097  14.407
26594W        W98265   8.365  26.078  12.419
26595W        W98266  32.885  32.057   5.013
26596W        W98267  17.632  32.634  13.446
26597W        W98268   9.868  32.109   3.404
26598W        W98269  16.770  44.151   4.153
26599W        W98270   4.024  42.541   0.378
26600W        W98271  23.782  16.054   2.284
26601W        W98272  19.833  23.547  10.275
26602W        W98273   0.051  39.831   3.303
26603W        W98274  43.760  24.075  10.596
26604W        W98275  18.666  37.498   3.673
26605W        W98276  23.765  35.980  10.911
26606W        W98277  39.278  37.455  13.812
26607W        W98278   7.379  43.989   4.566
26608W        W98279  13.955  34.605  14.829
26609W        W98280  22.077   5.759   2.116
26610W        W98281  27.560   7.355  11.451
26611W        W98282  30.739  26.045  13.350
26612W        W98283  19.825  35.639   3.160
26613W        W98284   2.685  11.189   4.061
26614W        W98285  31.449  21.706  13.751
26615W        W98286  32.053  29.099   4.331
26616W        W98287  44.949   6.541  13.806
26617W        W98288  41.373  20.973   0.364
26618W        W98289  41.366  36.554   0.909
26619W        W98290   1.267  29.020  14.417
26620W        W98291  42.279  13.711   1.659
26621W        W98292  18.256   2.029  12.899
26622W        W98293  30.254  11.652  12.989
26623W        W98294   2.689   0.767   4.261
26624W        W98295   9.496  44.393  13.174
26625W        W98296  17.557  24.172  10.332
26626W        W98297   8.376   8.914   4.621
26627W        W98298  21.142  11.375  14.230
26628W        W98299   5.525  14.200   1.249
26629W        W98300  21.215  28.314   1.205
26630W        W98301   1.876  31.929   4.533
26631W        W98302  38.767  35.834   4.555
26632W        W98303  44.395  35.956  14.452
26633W        W98304  29.524  19.740   1.350
26634W        W98305  12.830  35.335  11.500
26635W        W98306  33.627  29.836  14.422
26636W        W98307  39.461  28.127   4.865
26637W        W98308   9.918  35.691   4.191
26638W        W98309   4.346  40.541   4.173
26639W        W98310  27.365  35.098   4.089
26640W        W98311  20.661  16.664   4.658
26641W        W98312  35.615  31.994  14.946
26642W        W98313   7.357  34.497  14.386
26643W        W98314  27.644  30.442   2.649
26644W        W98315  22.059  15.097  13.836
26645W        W98316  28.247   9.242  14.316
26646W        W98317  22.065  28.618  12.410
26647W        W98318  34.537   9.408  13.385
26648W        W98319   6.661  13.718   2.430
26649W        W98320  24.199   6.473  14.808
26650W        W98321  35.423   6.414   0.601
26651W        W98322  25.180  13.362  14.338
26652W        W98323  12.741   3.869   2.390
26653W        W98324  29.432   6.307  13.325
26654W        W98325  34.656  20.271   1.264
26655W        W98326  19.125  34.157   0.637
26656W        W98327   5.018  29.407   3.158
26657W        W98328  41.450  20.075   2.124
26658W        W98329  22.261  29.218  13.130
26659W        W98330  20.585  28.545   3.112
26660W        W98331  25.985  36.295   0.168
26661W        W98332  26.556   9.625  13.433
26662W        W98333  24.047  30.602  13.813
26663W        W98334  13.645   1.411   1.828
26664W        W98335  30.900  18.458  11.564
26665W        W98336  38.962  33.802   2.244
26666W        W98337   9.365  40.277  13.081
26667W        W98338  25.140   3.001   2.258
26668W        W98339  43.758   4.557  11.903
26669W        W98340  44.391  23.781   4.542
26670W        W98341  43.108  18.717  13.104
26671W        W98342   5.371  40.894  12.374
26672W        W98343  13.107  20.399  11.601
26673W        W98344  19.227  26.139  12.884
26674W        W98345  22.190  31.892  10.457
26675W        W98346  20.352  35.918   4.624
26676W        W98347  23.618  42.511   1.227
26677W        W98348  26.690   1.708   2.768
26678W        W98349  17.120   8.302   2.738
26679W        W98350  30.049  11.173  11.952
26680W        W98351  39.455   9.920  13.287
26681W        W98352  26.961  37.859  14.379
26682W        W98353  27.642  17.527  14.884
26683W        W98354  40.333  29.875   2.295
26684W        W98355  34.594   2.902  13.108
26685W        W98356  17.311   7.997   1.381
26686W        W98357  20.932  14.777   2.938
26687W        W98358  25.221  15.098   3.669
26688W        W98359   2.249  42.276   2.255
26689W        W98360  23.696  19.046   2.215
26690W        W98361  15.353  40.548   3.642
26691W        W98362   4.337  43.953  13.731
26692W        W98363  23.072   9.987   2.853
26693W        W98364  25.242   3.807  13.089
26694W        W98365  42.555  37.029  12.435
26695W        W98366  40.433  31.964   5.118
26696W        W98367  35.118   9.876  12.600
26697W        W98368  36.479  41.591   2.917
26698W        W98369   2.754  19.315  10.958
26699W        W98370  16.058   5.852  13.012
26700W        W98371  28.927   6.546  10.911
26701W        W98372  35.133  41.310  10.255
26702W        W98373   8.917  44.319  11.684
26703W        W98374  34.602   1.627  10.582
26704W        W98375  26.337  37.444  13.962
26705W        W98376  12.290  18.622  14.043
26706W        W98377  18.325  31.143  13.970
26707W        W98378  17.998  25.552  12.934
26708W        W98379   1.388  20.816  10.964
26709W        W98380   0.872  43.068   4.622
26710W        W98381  44.263  21.795  11.169
26711W        W98382   6.705  16.671   2.130
26712W        W98383  13.921  31.049   3.197
26713W        W98384  30.452   6.359   2.689
26714W        W98385  18.301  24.654  13.525
26715W        W98386  44.922  15.165  13.373
26716W        W98387  18.291  27.628   4.085
26717W        W98388  41.146   8.323  13.446
26718W        W98389  14.010  32.808  13.067
26719W        W98390  25.110  14.715  13.105
26720W        W98391  34.851  30.912  11.555
26721W        W98392  26.629  42.052  11.580
26722W        W98393  36.529  19.188  12.048
26723W        W98394   5.669  34.474   3.586
26724W        W98395  39.741  18.212  13.896
26725W        W98396  23.668   7.795  13.553
26726W        W98397  34.506   0.198  13.523
26727W        W98398   6.092   2.561   1.288
26728W        W98399   6.923   6.978  12.468
26729W        W98400  18.057  33.458   4.630
26730W        W98401  22.421  24.088   0.910
26731W        W98402  13.436  22.173   1.313
26732W        W98403   0.672  15.621   0.495
26733W        W98404  41.834  41.389   1.668
26734W        W98405  18.653   4.432  14.549
26735W        W98406   9.548   2.141   4.188
26736W        W98407   6.723  42.312   4.660
26737W        W98408  10.632   0.676  11.871
26738W        W98409   9.272  13.558  12.390
26739W        W98410  10.112   4.364   2.306
26740W        W98411   0.400  33.081  11.975
26741W        W98412   9.441   8.596  14.914
26742W        W98413   5.875  15.585   2.568
26743W        W98414  34.426  23.466   4.444
26744W        W98415  32.339  39.660   3.838
26745W        W98416   2.946  20.023  10.200
26746W        W98417  27.040  12.160   0.955
26747W        W98418  41.277  22.233   3.260
26748W        W98419  16.629  31.830  14.722
26749W        W98420   2.685  32.056   0.399
26750W        W98421  42.578   2.759  13.122
26751W        W98422  30.034   1.573   2.759
26752W        W98423  41.557   8.673   3.719
26753W        W98424   5.698  38.958   1.195
26754W        W98425   8.706  17.250  14.526
26755W        W98426   5.708  11.852   3.215
26756W        W98427  22.506  10.630   2.304
26757W        W98428   4.441  26.116   4.954
26758W        W98429   4.966   7.526  14.330
26759W        W98430   5.312  20.230  12.687
26760W        W98431  36.062   7.783   2.423
26761W        W98432  19.519  22.774   3.330
26762W        W98433  16.607  15.876  10.718
26763W        W98434   4.103  44.877   0.477
26764W        W98435   8.808  34.919   1.352
26765W        W98436   3.001  43.838   1.239
26766W        W98437  10.848   4.430  10.727
26767W        W98438  12.763  30.657  14.343
26768W        W98439  24.199   3.306   3.522
26769W        W98440  16.468   8.317   3.822
26770W        W98441  30.462   1.221   2.803
26771W        W98442  39.575  21.731   0.376
26772W        W98443  44.742  37.956  14.601
26773W        W98444  24.222  15.214  14.271
26774W        W98445   7.696  26.500  13.845
26775W        W98446  31.087   1.485  14.052
26776W        W98447  33.382  15.863  12.417
26777W        W98448  42.464  22.900  14.397
26778W        W98449  44.726  37.396  12.847
26779W        W98450  15.127  44.735   1.818
26780W        W98451  31.689  15.263   3.741
26781W        W98452  26.543  40.531   1.172
26782W        W98453   4.902  19.001   2.770
26783W        W98454  41.835  42.997   0.006
26784W        W98455  27.143  11.951  14.527
26785W        W98456  38.123  26.950  13.903
26786W        W98457  23.586  27.531  13.637
26787W        W98458  37.246   8.468   1.325
26788W        W98459  16.638  36.453   3.237
26789W        W98460  21.582  33.817   2.308
26790W        W98461  12.300  29.824   2.264
26791W        W98462   5.299  31.243   3.345
26792W        W98463  10.131   9.141  13.454
26793W        W98464  38.958  26.528  12.403
26794W        W98465  28.240  18.692   4.668
26795W        W98466  36.428  42.867   2.567
26796W        W98467   5.044  22.496   5.212
26797W        W98468   3.969  18.477   1.825
26798W        W98469  15.064  23.780   3.947
26799W        W98470  15.180  28.683   1.105
26800W        W98471  41.873  29.205   1.330
26801W        W98472  21.229  24.523  14.586
26802W        W98473  40.376  37.379  14.873
26803W        W98474  11.385   3.544  12.159
26804W        W98475  11.299  23.569   0.820
26805W        W98476   0.528  18.168   2.901
26806W        W98477  12.732  26.330  14.017
26807W        W98478  27.752   6.295  10.674
26808W        W98479  38.536  40.045  12.887
26809W        W98480  36.075   7.380  14.068
26810W        W98481  20.680  30.911   0.650
26811W        W98482   2.907  27.829  14.772
26812W        W98483  12.095   8.664   2.330
26813W        W98484  25.380  36.133   4.254
26814W        W98485  35.674  44.408   4.363
26815W        W98486  38.641  38.224  12.036
26816W        W98487  34.838  42.545  14.370
26817W        W98488   2.905  36.303  14.833
26818W        W98489  43.083   3.754  11.985
26819W        W98490  17.769   1.815  13.022
26820W        W98491  13.666   3.366   5.019
26821W        W98492   3.943  27.040  12.875
26822W        W98493  11.352  33.214  12.815
26823W        W98494  38.750   6.239   2.183
26824W        W98495  13.540   2.176   0.297
26825W        W98496  35.466  34.144  13.900
26826W        W98497   4.820  34.789  11.978
26827W        W98498  14.720  17.200   3.150
26828W        W98499  28.953  37.584  12.554
26829W        W98500  29.171  33.876   3.858
26830W        W98501  25.744  10.591   2.185
26831W        W98502  29.154  25.563   4.265
26832W        W98503  41.450  29.853   2.764
26833W        W98504  44.439  12.988   1.277
26834W        W98505  40.711  17.029  14.051
26835W        W98506  31.863  30.944  10.645
26836W        W98507  43.281  41.803   0.322
26837W        W98508  12.150  17.302  14.857
26838W        W98509  10.068  37.427  11.947
26839W        W98510  16.862  27.970   4.567
26840W        W98511   2.897  35.529   1.697
26841W        W98512  35.940  25.934   3.684
26842W        W98513  11.188   7.375   3.801
26843W        W98514  16.323  15.125  12.426
26844W        W98515  10.803  23.766  11.581
26845W        W98516  13.917  38.075   1.074
26846W        W98517  36.176   3.816  13.810
26847W        W98518  44.333   8.936   5.090
26848W        W98519   3.780   9.189   3.281
26849W        W98520  42.990  21.066   0.887
26850W        W98521  37.267   3.489   0.307
26851W        W98522   7.264  14.252   0.013
26852W        W98523  26.482  31.901  13.487
26853W        W98524  25.735  42.203   3.879
26854W        W98525  41.003  31.180   0.775
26855W        W98526  28.444  20.679   3.973
26856W        W98527  15.656  37.314   1.110
26857W        W98528  12.314   9.747   0.884
26858W        W98529   0.861  42.326   2.882
26859W        W98530  43.094  34.505  14.191
26860W        W98531  24.305  27.074   3.224
26861W        W98532  42.092  11.185  10.992
26862W        W98533  22.450  10.856   3.182
26863W        W98534   5.222  18.589  14.673
26864W        W98535  22.723  12.302   1.698
26865W        W98536   7.413  28.514  11.494
26866W        W98537   0.729   0.338  12.864
26867W        W98538  25.287   3.826  14.501
26868W        W98539  25.406  30.188  13.945
26869W        W98540  42.263  19.055  12.844
26870W        W98541  10.048  20.857  11.592
26871W        W98542  35.918  24.870   3.664
26872W        W98543  22.162  19.712   1.773
26873W        W98544  11.674  29.060  14.855
26874W        W98545   7.293  29.698   3.333
26875W        W98546  23.030  18.738   4.524
26876W        W98547   9.621  25.218   1.179
26877W        W98548  21.112  15.192  13.984
26878W        W98549  25.489  16.135   0.380
26879W        W98550  16.075  34.436   4.723
26880W        W98551  35.096  13.102  11.928
26881W        W98552  23.018  36.563   1.165
26882W        W98553  13.315  13.737  10.834
26883W        W98554  27.146  10.707   4.227
26884W        W98555  27.566  34.018   2.412
26885W        W98556  34.587  30.175  14.047
26886W        W98557  32.494  35.362   1.346
26887W        W98558  21.698  25.212   2.890
26888W        W98559  43.889   1.465  13.330
26889W        W98560  25.750  44.955   0.901
26890W        W98561   6.209  28.041  11.974
26891W        W98562   7.280   4.256   1.695
26892W        W98563  29.179  38.465   4.736
26893W        W98564  22.150  18.662   2.202
26894W        W98565  39.796  29.692  10.295
26895W        W98566  15.732  28.757  13.303
26896W        W98567   6.836  19.604  12.827
26897W        W98568  22.993  44.479   1.207
26898W        W98569  38.187  43.836   0.869
26899W        W98570  35.372  10.768  13.909
26900W        W98571  33.112  17.911  13.795
26901W        W98572  10.956   5.625  13.340
26902W        W98573  33.951  14.977  11.791
26903W        W98574  18.209  12.891  14.662
26904W        W98575  19.502  37.788  10.625
26905W        W98576  16.627  16.095   4.628
26906W        W98577   9.304  34.086   0.578
26907W        W98578  10.804  12.179   2.474
26908W        W98579   5.345  29.537   4.018
26909W        W98580  35.135  35.178   0.374
26910W        W98581   5.695  32.215   2.896
26911W        W98582  42.027  29.768  13.361
26912W        W98583  27.696   4.504   3.807
26913W        W98584  13.594  41.967  14.327
26914W        W98585  32.419  24.425   4.928
26915W        W98586  16.773  33.337  13.252
26916W        W98587  23.946  28.406  11.661
26917W        W98588  30.594  33.593  10.520
26918W        W98589   8.318  12.236   1.002
26919W        W98590  40.463   7.488  12.156
26920W        W98591  31.927  28.952  11.633
26921W        W98592   8.784  19.096   1.914
26922W        W98593  24.993  31.565  12.165
26923W        W98594  20.156   5.704   0.915
26924W        W98595   5.419  28.350   1.049
26925W        W98596  34.130  35.414   1.816
26926W        W98597  19.870  39.323  14.710
26927W        W98598   8.486   8.257   1.814
26928W        W98599  23.946  16.267   2.760
26929W        W98600  24.698  21.118   2.265
26930W        W98601  23.977  21.186  12.252
26931W        W98602   1.270   4.014  12.602
26932W        W98603  34.188  28.253  14.443
26933W        W98604   1.307  21.997   4.982
26934W        W98605  14.746  44.762  10.063
26935W        W98606  31.397  11.072  10.944
26936W        W98607  15.697  12.328   2.617
26937W        W98608  36.514  39.854   2.421
26938W        W98609   9.340   9.689  11.704
26939W        W98610  38.399  36.002   2.642
26940W        W98611  21.762  36.555  10.926
26941W        W98612   7.592  23.571   3.418
26942W        W98613  13.862   6.542  14.873
26943W        W98614   0.055  34.112  13.532
26944W        W98615  43.818  41.853   5.129
26945W        W98616  38.559   2.273  12.567
26946W        W98617   2.188  27.118  14.968
26947W        W98618   2.264  15.349   2.022
26948W        W98619   3.810  32.997   4.331
26949W        W98620  27.299  27.977  13.546
26950W        W98621  42.385  43.615  14.424
26951W        W98622  13.827  42.979   0.064
26952W        W98623  19.806  23.507  11.091
26953W        W98624  43.994  32.613  14.416
26954W        W98625   9.241  36.329   4.547
26955W        W98626  21.256  14.194  12.036
26956W        W98627  30.294  24.928   2.010
26957W        W98628  32.963  44.732   3.430
26958W        W98629  27.057  18.830   4.685
26959W        W98630  32.490  34.377   3.679
26960W        W98631  27.022  44.830  12.962
26961W        W98632   3.964  37.459   1.728
26962W        W98633   6.244  38.922  10.665
26963W        W98634  40.638  31.776   0.065
26964W        W98635  31.843  36.070  11.687
26965W        W98636  38.480   0.333   2.831
26966W        W98637  39.487  37.958  14.493
26967W        W98638  27.568  24.672   4.743
26968W        W98639   2.433  30.059  12.091
26969W        W98640   9.707  25.048  12.373
26970W        W98641   8.409  44.789   3.681
26971W        W98642  15.697   0.552  12.072
26972W        W98643  39.710  37.051  14.522
26973W        W98644  11.629   3.094   2.643
26974W        W98645  13.431   5.895  10.296
26975W        W98646  30.053   0.587  13.799
26976W        W98647   6.320  21.494   2.602
26977W        W98648  14.408   8.210  12.867
26978W        W98649  40.075   0.409  13.489
26979W        W98650   9.130  38.485   4.223
26980W        W98651  23.643  12.796   2.292
26981W        W98652   3.265   8.861  14.478
26982W        W98653  19.904  27.992   2.843
26983W        W98654  24.583  17.221  12.515
26984W        W98655  35.499  11.315  14.560
26985W        W98656  15.066  20.627  12.002
26986W        W98657  12.823   3.205  12.510
26987W        W98658  40.497   6.649   0.102
26988W        W98659   7.238  34.971  11.633
26989W        W98660  18.713  11.644  13.510
26990W        W98661  18.541  11.476   5.403
26991W        W98662  44.850   3.829  11.605
26992W        W98663  26.565  21.984   1.319
26993W        W98664  41.958  14.847  11.086
26994W        W98665  43.368  20.675  13.724
26995W        W98666   0.729  29.452   1.772
26996W        W98667   5.725  26.729  12.665
26997W        W98668  42.392  27.655   4.544
26998W        W98669  35.976   7.453   4.192
26999W        W98670  24.026  40.219  14.811
27000W        W98671  26.291  16.541   0.371
27001W        W98672  27.019  36.321  12.188
27002W        W98673  29.202   8.371  10.567
27003W        W98674   6.137  12.698  13.814
27004W        W98675  22.230  27.051   0.496
27005W        W98676  17.730  21.815   0.465
27006W        W98677  25.575   9.904  13.829
27007W        W98678   4.648  17.179   2.257
27008W        W98679  28.874  22.273  12.579
27009W        W98680   5.618  13.361   0.406
27010W        W98681  10.789  26.628   2.136
27011W        W98682   4.810  10.841   1.794
27012W        W98683  15.942  36.561   4.122
27013W        W98684  38.384   2.712  13.890
27014W        W98685  35.165  19.095   3.639
27015W        W98686  12.673  22.515  11.610
27016W        W98687  31.141  28.810   1.333
27017W        W98688  18.032  21.728   3.805
27018W        W98689  21.637  28.132   2.862
27019W        W98690  13.109  19.175   1.383
27020W        W98691  23.045  37.532   3.428
27021W        W98692  10.616   1.263   1.531
27022W        W98693  37.557   8.716  11.054
27023W        W98694   7.903   6.001   4.940
27024W        W98695  42.958  22.757   0.454
27025W        W98696   3.217  37.579  11.218
27026W        W98697  25.587  18.984  13.262
27027W        W98698   7.745  10.093   0.349
27028W        W98699   6.313   3.008  12.455
27029W        W98700  36.462  27.412   2.422
27030W        W98701  25.415  42.741   3.300
27031W        W98702  18.602  18.801   3.767
27032W        W98703  32.993  28.517  14.502
27033W        W98704  23.590   9.228  11.938
27034W        W98705  21.693  29.740   1.800
27035W        W98706  33.164  38.137  10.970
27036W        W98707  15.227  42.163   4.247
27037W        W98708  25.769  25.453  14.905
27038W        W98709  18.641   4.364  11.941
27039W        W98710  29.934  11.711   3.417
27040W        W98711  23.917  31.016   1.302
27041W        W98712   1.560   9.978  10.993
27042W        W98713  19.310   4.741   0.853
27043W        W98714  15.558   1.969  12.836
27044W        W98715  16.640  39.646  10.833
27045W        W98716  30.853  10.357  13.778
27046W        W98717  27.097  18.050  14.216
27047W        W98718  38.059  42.287  13.390
27048W        W98719  38.598   1.143  14.031
27049W        W98720  39.865  22.818  13.997
27050W        W98721  10.658  33.653   4.620
27051W        W98722  20.562  18.205   1.394
27052W        W98723  40.785  17.517  12.557
27053W        W98724   7.719  24.243  11.657
27054W        W98725  39.779  19.429  14.703
27055W        W98726  15.197  34.236  13.287
27056W        W98727   9.596   5.950  12.945
27057W        W98728  26.833   9.582   9.684
27058W        W98729  23.580  17.862  11.491
27059W        W98730  15.148   5.985   2.723
27060W        W98731  36.968   6.192   1.366
27061W        W98732  34.489  36.022   3.281
27062W        W98733   3.894  42.011  14.366
27063W        W98734   3.429  42.451   4.115
27064W        W98735  40.450   9.477  10.575
27065W        W98736  39.105   5.199  14.443
27066W        W98737   2.273   5.380  13.087
27067W        W98738   2.487  41.454  10.770
27068W        W98739  34.069  10.360  12.085
27069W        W98740   3.886  32.465   1.956
27070W        W98741  39.394  39.131   2.199
27071W        W98742  14.384  15.767   1.824
27072W        W98743  44.366  39.440  11.840
27073W        W98744  27.746  18.688  11.556
27074W        W98745  24.927  38.578  10.664
27075W        W98746   2.498  17.309  12.028
27076W        W98747  20.812   1.307   0.258
27077W        W98748  20.467  21.080  13.346
27078W        W98749  26.304  29.685  12.494
27079W        W98750  20.108  42.969  11.329
27080W        W98751  40.804  26.796   1.225
27081W        W98752  39.574  39.080   0.009
27082W        W98753  10.095  39.100   1.977
27083W        W98754  15.546  27.541   0.541
27084W        W98755  38.526  12.626   0.511
27085W        W98756  24.066   0.522  12.825
27086W        W98757  27.184   1.176   0.425
27087W        W98758  40.626   5.423  14.587
27088W        W98759  13.206  11.945  10.558
27089W        W98760  23.960  30.152   3.971
27090W        W98761  42.261  34.890  12.500
27091W        W98762  11.119  34.183   4.112
27092W        W98763  17.373  28.701  12.751
27093W        W98764  19.776  27.814  14.305
27094W        W98765   9.120  22.595   1.404
27095W        W98766  29.247  17.832  13.448
27096W        W98767  16.514  37.255   2.321
27097W        W98768  43.872  31.562  13.039
27098W        W98769  23.018  44.813  10.695
27099W        W98770  16.262  40.330  11.416
27100W        W98771  22.740  31.425  12.027
27101W        W98772  29.917   2.391  10.508
27102W        W98773   0.282  13.827   1.781
27103W        W98774  26.223   2.980   3.637
27104W        W98775  37.097   4.189  13.490
27105W        W98776  25.689   1.491   3.305
27106W        W98777  42.329  38.015   1.721
27107W        W98778  38.485  33.013  12.928
27108W        W98779  11.750  43.599  11.560
27109W        W98780  17.720  33.963   1.579
27110W        W98781   6.008  43.286  13.019
27111W        W98782   0.746  29.453  11.164
27112W        W98783  35.474  42.234  11.051
27113W        W98784  18.009  19.202   0.892
27114W        W98785   3.214  43.681  14.412
27115W        W98786  38.257  34.000   4.231
27116W        W98787  44.083  38.287  11.491
27117W        W98788  27.241  24.581   1.778
27118W        W98789  35.661  34.416   2.455
27119W        W98790  43.629  22.710  13.069
27120W        W98791  31.456   3.908  10.641
27121W        W98792  33.297  12.727  10.894
27122W        W98793  30.722  42.484  10.692
27123W        W98794  28.873  21.666  13.458
27124W        W98795  33.476   1.121   3.467
27125W        W98796   9.115  34.388  14.541
27126W        W98797  28.729   9.246  12.528
27127W        W98798  28.006   1.252   2.156
27128W        W98799  34.717  35.066   2.240
27129W        W98800  40.801  20.966   3.184
27130W        W98801   2.869  17.576  10.424
27131W        W98802  22.399  42.084   3.328
27132W        W98803  35.489  34.312   2.924
27133W        W98804   6.940  12.131  13.027
27134W        W98805  32.482  37.162  11.464
27135W        W98806   9.477  37.182   4.650
27136W        W98807  25.008   1.405   3.936
27137W        W98808  19.659  31.980  13.652
27138W        W98809  39.944  26.133   3.531
27139W        W98810  17.069  24.096  11.526
27140W        W98811  10.107  24.592   1.312
27141W        W98812   8.765  22.156  14.430
27142W        W98813  42.467  41.390   0.361
27143W        W98814  27.680  33.582   2.660
27144W        W98815  42.790   3.409   0.027
27145W        W98816  30.549   3.822  10.654
27146W        W98817   6.906  10.848   3.906
27147W        W98818   7.206  18.713  12.515
27148W        W98819   5.255  29.413  10.742
27149W        W98820  21.661  22.597  10.675
27150W        W98821  21.502   0.386  11.065
27151W        W98822   1.902  23.196  12.441
27152W        W98823  29.554  34.400   4.611
27153W        W98824  26.977   8.161  10.606
27154W        W98825  40.308  29.521   4.685
27155W        W98826  12.425  33.071   2.300
27156W        W98827  11.143   0.471  11.179
27157W        W98828  41.899  12.373  11.970
27158W        W98829  29.113  10.269   0.525
27159W        W98830   7.843  15.820  12.097
27160W        W98831  40.376  19.819  11.955
27161W        W98832  36.034  32.159  10.817
27162W        W98833  33.059   7.405   3.910
27163W        W98834   5.581  38.136   1.429
27164W        W98835   3.380  16.173   4.151
27165W        W98836  10.604  23.176  13.365
27166W        W98837  44.238  16.241  13.874
27167W        W98838   7.248  30.372  11.203
27168W        W98839   7.810  40.499  11.036
27169W        W98840   3.704  32.013   2.118
27170W        W98841   2.908  25.074   0.812
27171W        W98842  17.212  26.684   2.632
27172W        W98843  15.302  17.273  10.700
27173W        W98844  40.244  13.276   3.665
27174W        W98845  32.227  33.106  14.282
27175W        W98846  12.415   9.567   4.102
27176W        W98847  10.429  17.657  10.645
27177W        W98848  19.028  17.553   3.163
27178W        W98849  11.256  15.772   4.060
27179W        W98850  18.610  23.455   4.063
27180W        W98851  31.114  12.838  11.172
27181W        W98852   5.242  40.970  10.577
27182W        W98853   4.190  30.484  14.928
27183W        W98854  43.795  11.729   4.776
27184W        W98855  24.994  23.951   0.377
27185W        W98856  33.432   8.906   0.441
27186W        W98857  33.962  36.203   2.662
27187W        W98858   4.312  20.096   0.352
27188W        W98859  10.105  28.740  11.630
27189W        W98860  21.914  32.888   0.205
27190W        W98861  34.628  19.142  14.820
27191W        W98862   0.401  42.061   0.871
27192W        W98863   7.849  14.796   4.594
27193W        W98864  22.641  36.619  14.342
27194W        W98865  18.278   7.147  14.217
27195W        W98866  15.356  15.697  13.209
27196W        W98867  19.262  43.118  13.807
27197W        W98868  17.607  36.150  11.885
27198W        W98869  41.294   5.808   1.707
27199W        W98870  21.590  39.571  13.285
27200W        W98871  29.224  23.095   4.632
27201W        W98872  32.279  43.955  10.644
27202W        W98873  32.695   9.873  14.465
27203W        W98874  43.176  21.550   0.745
27204W        W98875  30.664  16.258  12.817
27205W        W98876  35.427  15.348  11.124
27206W        W98877  39.322  36.281  11.206
27207W        W98878  42.768  29.120  14.587
27208W        W98879  40.947  44.096  11.394
27209W        W98880   0.082  25.638  12.970
27210W        W98881   8.924  20.940  10.768
27211W        W98882  18.781  39.463  12.974
27212W        W98883   4.846  37.500   2.128
27213W        W98884  17.316  31.850   3.135
27214W        W98885  22.052   1.472  12.435
27215W        W98886  43.475   5.832   4.143
27216W        W98887  37.775  14.547   2.335
27217W        W98888  41.472  22.729   4.010
27218W        W98889  30.991  15.608   4.656
27219W        W98890  34.120  24.040   2.450
27220W        W98891  25.657  26.368  11.618
27221W        W98892  37.542   9.298   0.816
27222W        W98893  39.093  24.207   1.325
27223W        W98894  34.084  15.627  13.528
27224W        W98895  27.571  40.545   4.617
27225W        W98896  41.435   1.294   4.142
27226W        W98897  30.100  25.205  14.593
27227W        W98898   3.764  39.383  11.895
27228W        W98899   4.807  19.891   3.335
27229W        W98900  14.174  42.559  12.554
27230W        W98901  30.964   9.916  11.166
27231W        W98902  42.531  37.464   1.872
27232W        W98903  24.586  31.929  12.082
27233W        W98904  42.095  39.948  14.067
27234W        W98905   9.594   9.642  12.934
27235W        W98906  24.460  41.922   3.167
27236W        W98907  41.492   1.765   2.809
27237W        W98908   6.884   5.907   1.897
27238W        W98909  42.484  44.919   1.689
27239W        W98910  20.743   7.192  13.628
27240W        W98911  14.870   5.864   3.641
27241W        W98912  20.511  23.001  10.267
27242W        W98913  34.883  25.499   0.523
27243W        W98914  25.580  28.235   1.361
27244W        W98915  20.887  26.504  11.955
27245W        W98916  29.766  27.989  13.592
27246W        W98917  37.140  35.576  13.131
27247W        W98918  12.202   7.920   4.082
27248W        W98919  22.033  35.426   0.583
27249W        W98920  40.785  24.808  14.451
27250W        W98921  18.152  20.056  14.368
27251W        W98922   2.479  12.834   1.667
27252W        W98923  22.426   5.027   0.622
27253W        W98924  44.946  20.349  11.096
27254W        W98925  34.152  33.485   2.721
27255W        W98926  41.061  11.389  12.775
27256W        W98927  18.055  38.930  12.971
27257W        W98928  26.884  23.078   0.730
27258W        W98929  20.306  21.641   2.274
27259W        W98930  19.648  35.968   0.740
27260W        W98931  12.687  16.279   0.840
27261W        W98932   3.782  12.650   4.901
27262W        W98933  16.647  31.061   3.629
27263W        W98934  32.323  12.958  11.174
27264W        W98935   7.887  20.983   4.151
27265W        W98936  26.600   5.159  12.288
27266W        W98937  29.318  32.467  13.341
27267W        W98938   7.795  19.026  10.732
27268W        W98939   3.477  31.249  11.905
27269W        W98940   3.234  19.775  12.699
27270W        W98941  11.354  39.376  11.124
27271W        W98942  44.323   5.693   0.583
27272W        W98943  10.091  28.828  14.932
27273W        W98944  39.580  18.832   3.108
27274W        W98945  43.827  34.646   0.507
27275W        W98946   0.768  13.369  13.064
27276W        W98947   2.920  38.891  14.954
27277W        W98948  41.823  23.575   2.802
27278W        W98949  37.339  14.391  10.705
27279W        W98950  44.161  16.305   3.483
27280W        W98951   5.784  43.184   1.505
27281W        W98952   5.542  33.692  11.000
27282W        W98953  32.501  29.672   2.255
27283W        W98954  13.263  18.003  12.443
27284W        W98955  29.056  24.794   1.709
27285W        W98956   7.330  25.528  13.763
27286W        W98957  34.498  11.625  10.718
27287W        W98958  35.593  10.282   3.149
27288W        W98959  29.246  10.836  14.479
27289W        W98960  16.198  16.509   2.321
27290W        W98961  14.211  38.831  14.850
27291W        W98962  18.058  29.921  13.430
27292W        W98963  30.810  35.845   1.687
27293W        W98964  40.406   6.829   1.234
27294W        W98965  21.255  24.834  11.061
27295W        W98966   9.138  37.278  14.179
27296W        W98967  23.179  16.255   0.094
27297W        W98968   6.851  35.648   2.693
27298W        W98969  26.704   4.583   2.229
27299W        W98970  10.908   3.334   4.593
27300W        W98971  39.721  40.843   1.314
27301W        W98972  12.847  43.213   3.770
27302W        W98973  15.669  23.682  12.152
27303W        W98974  13.641  35.983   0.847
27304W        W98975  27.227  23.345   0.252
27305W        W98976  43.889  35.120   0.254
27306W        W98977  10.390   4.479  12.960
27307W        W98978  10.762  30.849  12.915
27308W        W98979  40.688  32.496  10.928
27309W        W98980   3.417   2.890   0.046
27310W        W98981  16.471   2.693  12.046
27311W        W98982  30.333  40.303  11.086
27312W        W98983  42.929  12.611  11.074
27313W        W98984  13.648  37.327   1.347
27314W        W98985  25.256  28.279  14.878
27315W        W98986  35.310   2.324   2.854
27316W        W98987  26.594   1.977   3.201
27317W        W98988  32.287   8.740   2.307
27318W        W98989  31.572  23.032   2.788
27319W        W98990  20.018  39.958  10.862
27320W        W98991  25.578  31.700  12.063
27321W        W98992  32.438  27.002  12.353
27322W        W98993  31.694  10.721   1.789
27323W        W98994  15.786  12.320  13.898
27324W        W98995  16.902   3.267   1.351
27325W        W98996  23.593   1.524   1.871
27326W        W98997  19.045   0.758   2.729
27327W        W98998  44.594  40.328  11.018
27328W        W98999  41.221  37.470   2.349
27329W        W99000  34.931  10.328  10.646
27330W        W99001  18.724   0.702  12.155
27331W        W99002   9.728  22.731   4.629
27332W        W99003  42.165  30.840   1.638
27333W        W99004   5.274  33.431   2.029
27334W        W99005  25.079  21.721   2.098
27335W        W99006  43.470   5.734  13.607
27336W        W99007  10.879  29.495  12.993
27337W        W99008  28.456   4.249  14.988
27338W        W99009  21.940  31.217   2.777
27339W        W99010  10.113  10.353  12.122
27340W        W99011  23.917  21.915   3.129
27341W        W99012   2.493  20.839  11.054
27342W        W99013   0.874  44.937   4.867
27343W        W99014  38.284  17.651  12.002
27344W        W99015  27.277  35.407  11.970
27345W        W99016   5.884  17.772   4.511
27346W        W99017  40.966  44.733   4.225
27347W        W99018  43.722   4.221   1.342
27348W        W99019   8.610  18.504   1.740
27349W        W99020  22.989  37.048  10.543
27350W        W99021  15.070  33.059   0.863
27351W        W99022  34.624  21.766   2.367
27352W        W99023  29.618  44.098   1.807
27353W        W99024   6.847  15.819   2.737
27354W        W99025  31.603  30.439  12.486
27355W        W99026   1.807  22.657   3.857
27356W        W99027  19.493  15.430  12.905
27357W        W99028  22.385  44.346   1.734
27358W        W99029  22.279  34.992  10.923
27359W        W99030  38.243   3.396   1.205
27360W        W99031  33.394  44.313   2.604
27361W        W99032  14.827  21.531  11.333
27362W        W99033   5.656  28.619  10.884
27363W        W99034   9.655  31.088   2.239
27364W        W99035  39.503  39.972   4.534
27365W        W99036  43.532  16.766  12.081
27366W        W99037  19.998  43.803   1.266
27367W        W99038  15.668   7.484  13.533
27368W        W99039  15.072   7.126  13.529
27369W        W99040  30.164  23.763   4.352
27370W        W99041  23.874  37.559   0.262
27371W        W99042  35.517   9.475   3.764
27372W        W99043  10.844  15.753  10.249
27373W        W99044  19.626   8.317   2.816
27374W        W99045   9.566   5.264  12.466
27375W        W99046   7.207   1.250   1.738
27376W        W99047  21.159  12.561   0.348
27377W        W99048  36.220  16.562   4.618
27378W        W99049  42.367  39.589   4.155
27379W        W99050  11.299   7.813  11.158
27380W        W99051  33.593  18.362   4.002
27381W        W99052   9.557  20.778  11.421
27382W        W99053  26.457   5.388   2.494
27383W        W99054  41.044  44.771   3.285
27384W        W99055  24.519  39.835  14.279
27385W        W99056  35.210   7.781  12.053
27386W        W99057   6.973  24.026   1.948
27387W        W99058  11.608  27.999  10.143
27388W        W99059  21.906  27.186   4.517
27389W        W99060  43.863  41.368  11.363
27390W        W99061  44.874  34.135   1.855
27391W        W99062  25.352   5.452   0.869
27392W        W99063  39.592  16.801   2.730
27393W        W99064   1.573  43.744  14.234
27394W        W99065  44.486  23.486  12.524
27395W        W99066  29.114   5.722   1.251
27396W        W99067  19.884  39.057   4.930
27397W        W99068   8.960   8.699  13.632
27398W        W99069  20.120  43.120   4.639
27399W        W99070   6.491   6.806  11.568
27400W        W99071  22.626   8.372   1.001
27401W        W99072  35.293   7.244  11.500
27402W        W99073  10.639  13.217  12.433
27403W        W99074  24.186  16.905   5.012
27404W        W99075  43.417  17.735  14.550
27405W        W99076   8.887  25.589   1.896
27406W        W99077  18.011  39.860  11.650
27407W        W99078  38.044  20.988   3.222
27408W        W99079  15.305  38.547  11.681
27409W        W99080  34.715  42.048   1.814
27410W        W99081   4.104   2.572  14.771
27411W        W99082  40.107  26.989  14.348
27412W        W99083  19.189   2.845   3.752
27413W        W99084  24.221   5.335  14.181
27414W        W99085   4.869  37.778   3.199
27415W        W99086  31.845  22.738   3.563
27416W        W99087  24.546  10.662  14.720
27417W        W99088  33.630  44.998  13.240
27418W        W99089  41.718   4.458   2.378
27419W        W99090  38.530  19.686   2.262
27420W        W99091  19.290  40.225   0.792
27421W        W99092   9.109   6.301  11.200
27422W        W99093  22.440  14.525   1.890
27423W        W99094  10.183  10.804  11.894
27424W        W99095  23.568  24.795  11.065
27425W        W99096  38.833  34.453   4.957
27426W        W99097  44.804   4.460  12.004
27427W        W99098  15.015   9.674   1.320
27428W        W99099  29.738  13.372   2.362
27429W        W99100  40.005  23.158  12.656
27430W        W99101  34.635  36.928   4.499
27431W        W99102  19.786   4.831   1.872
27432W        W99103  14.143  10.621   2.616
27433W        W99104   4.967  13.318   4.198
27434W        W99105  19.581  12.893   1.700
27435W        W99106   0.631   8.443   9.940
27436W        W99107  22.102  31.117  13.871
27437W        W99108  35.928  17.318   2.328
27438W        W99109   6.804  10.285  13.448
27439W        W99110  21.191  14.274   1.630
27440W        W99111   2.235  39.537   3.710
27441W        W99112  33.981  33.512  13.851
27442W        W99113  27.156  28.418  11.616
27443W        W99114  24.405  39.857  14.785
27444W        W99115  35.866  37.322   3.705
27445W        W99116  26.647  41.886   5.142
27446W        W99117  31.092  18.053  11.858
27447W        W99118   9.115  35.990  12.566
27448W        W99119  35.179   3.342  12.896
27449W        W99120  37.843  30.887  14.689
27450W        W99121  44.946  35.402   1.506
27451W        W99122  26.659   8.128  11.044
27452W        W99123  22.395   3.321   1.191
27453W        W99124  22.381   9.496  14.710
27454W        W99125   6.808  23.123  10.873
27455W        W99126  30.687  37.843   2.811
27456W        W99127   0.798   9.515  12.388
27457W        W99128   2.133  23.145  10.101
27458W        W99129  44.826  33.113   4.382
27459W        W99130  15.823  30.072   4.071
27460W        W99131  40.480  15.336  10.702
27461W        W99132   2.529  29.593   3.738
27462W        W99133  21.807   1.395  13.914
27463W        W99134   4.337  23.940  13.015
27464W        W99135  38.339  19.221  13.480
27465W        W99136  19.490  41.035   4.068
27466W        W99137   3.237  20.263  12.955
27467W        W99138  35.373   5.448  11.157
27468W        W99139  36.949  41.971  11.225
27469W        W99140   3.247  19.419   0.051
27470W        W99141  29.551  30.891  13.332
27471W        W99142  14.711  15.060  10.982
27472W        W99143   3.745  16.765  14.805
27473W        W99144  27.146  12.373   2.712
27474W        W99145  42.759   8.252   1.272
27475W        W99146  36.046  35.603   1.773
27476W        W99147  26.990  36.253   1.509
27477W        W99148  12.132  39.331   1.489
27478W        W99149  38.834  15.863  14.034
27479W        W99150  40.433  44.048  14.882
27480W        W99151   6.215  39.350   2.912
27481W        W99152  18.293  43.978   2.674
27482W        W99153  36.958  34.954   0.793
27483W        W99154  44.441  31.233  12.310
27484W        W99155  40.475  36.942   1.085
27485W        W99156  35.316   9.326   4.217
27486W        W99157   5.634  21.108   3.769
27487W        W99158   3.218   8.877   4.346
27488W        W99159  13.580  19.654  12.035
27489W        W99160  27.629  32.657   2.879
27490W        W99161   5.794  39.426  13.291
27491W        W99162  41.080  30.564  12.076
27492W        W99163  36.911  21.225   0.674
27493W        W99164  25.270  18.003   0.260
27494W        W99165   9.363  40.969  11.458
27495W        W99166   8.485  44.779  14.149
27496W        W99167  44.190  14.921   3.819
27497W        W99168  33.956  25.738  10.744
27498W        W99169   1.855  30.119   2.420
27499W        W99170  35.054  13.077   3.620
27500W        W99171  30.119  20.037   0.498
27501W        W99172  29.137  17.022   4.852
27502W        W99173   8.353  19.690   4.476
27503W        W99174   0.114   1.383   0.742
27504W        W99175   3.939  43.771   3.723
27505W        W99176  30.030  23.178  11.702
27506W        W99177   7.736   9.067  12.860
27507W        W99178  43.847  39.889   1.239
27508W        W99179  23.024  12.598  14.890
27509W        W99180  16.130  23.305  13.880
27510W        W99181  19.166  26.946   4.807
27511W        W99182  15.653  10.285  13.822
27512W        W99183  16.006  18.813   3.682
27513W        W99184  31.494  32.562  11.643
27514W        W99185  35.883  40.170   4.227
27515W        W99186  41.049  14.701   4.594
27516W        W99187   6.190  38.490  13.831
27517W        W99188   4.482  23.707  11.664
27518W        W99189  25.208  17.288   0.755
27519W        W99190  14.639   3.172   1.861
27520W        W99191  30.258  24.367  11.179
27521W        W99192  44.739  20.212   4.208
27522W        W99193   2.634  15.823   3.800
27523W        W99194  38.372  24.227   3.683
27524W        W99195  14.504  10.281   4.267
27525W        W99196  10.646  40.875  14.306
27526W        W99197  29.184  23.857  10.267
27527W        W99198  24.352  39.943  12.833
27528W        W99199   3.334  37.644  12.057
27529W        W99200  21.527   2.894   4.568
27530W        W99201  28.515  13.101   0.351
27531W        W99202  34.444   8.595   2.296
27532W        W99203  36.544  17.797  10.989
27533W        W99204  14.698   6.210  12.338
27534W        W99205   0.948  35.484  12.058
27535W        W99206  30.085  36.882   4.520
27536W        W99207  11.332   5.742  10.589
27537W        W99208  27.461   4.191   4.139
27538W        W99209  19.289  29.127  14.337
27539W        W99210  33.964  18.634   0.914
27540W        W99211  22.269  18.806  11.141
27541W        W99212   8.558  36.565  13.266
27542W        W99213  40.509  33.493   0.337
27543W        W99214   7.399   3.503  11.187
27544W        W99215  34.835   2.058   0.405
27545W        W99216  12.581   4.363   4.629
27546W        W99217  21.297  31.992  12.711
27547W        W99218   0.293  26.153  10.688
27548W        W99219  37.548  24.018   1.294
27549W        W99220  24.490  36.557   2.219
27550W        W99221  39.211  43.769  13.832
27551W        W99222   3.176   8.581   2.626
27552W        W99223   8.349  19.174   3.294
27553W        W99224  18.556   0.943  11.445
27554W        W99225  43.499   6.224  14.277
27555W        W99226  27.861   8.725   0.425
27556W        W99227   5.754  43.061  12.625
27557W        W99228  42.504  15.264   4.169
27558W        W99229  16.112  29.166   1.000
27559W        W99230  25.124  14.826  14.551
27560W        W99231  18.299   4.154   4.267
27561W        W99232  12.265  26.927   1.646
27562W        W99233  24.015  14.063   1.449
27563W        W99234  40.812  36.576   2.780
27564W        W99235  32.044   2.457   0.598
27565W        W99236  36.249  21.633   0.238
27566W        W99237   2.819  16.674  12.554
27567W        W99238  43.573  11.321  13.842
27568W        W99239   7.270   8.749   0.281
27569W        W99240  33.089  35.566   3.881
27570W        W99241   5.726  23.391  12.014
27571W        W99242  43.187  12.230   3.201
27572W        W99243  12.325  28.047   4.734
27573W        W99244  32.615  21.829   3.206
27574W        W99245  20.797  33.414   3.174
27575W        W99246  30.993  20.978  12.461
27576W        W99247  38.002   4.887   2.467
27577W        W99248  10.575  35.545   0.233
27578W        W99249  11.682   2.612  10.692
27579W        W99250   4.013   8.676  11.138
27580W        W99251  12.462   2.560  12.087
27581W        W99252  28.078  11.336   2.773
27582W        W99253  19.841  28.053   1.458
27583W        W99254  11.877  20.279   4.143
27584W        W99255  15.702  23.131   1.709
27585W        W99256  44.058  10.237  12.521
27586W        W99257   0.866  40.301   1.190
27587W        W99258   7.318   0.844   4.696
27588W        W99259  30.696  17.746  11.092
27589W        W99260  20.568  11.823  13.011
27590W        W99261   1.196  39.233  11.472
27591W        W99262  12.832   6.480  10.968
27592W        W99263  29.028  35.880  14.660
27593W        W99264   2.143  43.182  11.139
27594W        W99265  12.695  32.889   1.837
27595W        W99266   9.168  23.459   1.383
27596W        W99267  11.845  16.334  11.980
27597W        W99268  39.989   0.012  13.133
27598W        W99269  13.485  38.737  13.664
27599W        W99270  29.615  17.078  14.487
27600W        W99271  28.964  33.473  13.563
27601W        W99272   6.814  18.272   4.568
27602W        W99273  39.415  18.385   2.821
27603W        W99274  24.652  20.581   2.209
27604W        W99275  30.923  29.600   3.669
27605W        W99276  19.194  43.973  13.594
27606W        W99277   7.545  20.664   2.997
27607W        W99278  32.629  36.677  13.385
27608W        W99279  23.551  12.360   2.718
27609W        W99280  25.014  44.866   0.320
27610W        W99281  31.102  11.757   0.649
27611W        W99282  17.837  34.888  11.065
27612W        W99283  33.653  23.584   3.275
27613W        W99284  16.705  21.392   2.687
27614W        W99285   4.635  27.405   4.706
27615W        W99286  44.684  30.509   5.103
27616W        W99287   4.783  30.694  13.847
27617W        W99288   5.685  27.029   2.964
27618W        W99289  40.210  15.270  11.163
27619W        W99290  44.044   6.711   2.001
27620W        W99291  35.183  10.015  11.827
27621W        W99292  43.404  24.348   3.420
27622W        W99293  22.661  27.564   4.611
27623W        W99294   0.949  10.766  14.492
27624W        W99295  12.668  21.726  12.018
27625W        W99296  20.194  27.503  11.102
27626W        W99297   8.264  23.685   2.305
27627W        W99298  37.406  35.277   0.819
27628W        W99299   2.940  43.752   3.776
27629W        W99300  20.455  19.569   1.427
27630W        W99301   3.287  18.337  13.873
27631W        W99302  16.837  27.776   2.236
27632W        W99303  10.139  34.470  12.172
27633W        W99304  18.675   1.272  11.019
27634W        W99305  30.964   8.220   4.454
27635W        W99306  25.916   0.073   0.424
27636W        W99307  11.440  11.381  10.243
27637W        W99308  27.478  24.447   2.214
27638W        W99309  41.273  42.581   5.006
27639W        W99310  26.080  31.791  14.818
27640W        W99311  12.342  40.778   3.412
27641W        W99312  31.282   5.867   4.558
27642W        W99313  30.525  24.180  12.874
27643W        W99314  43.225   6.253   4.285
27644W        W99315  21.793  22.865  12.366
27645W        W99316  23.424  19.576   3.167
27646W        W99317  39.494   9.115  11.238
27647W        W99318  42.923  18.971   4.571
27648W        W99319  35.422  44.905  11.450
27649W        W99320  34.137  19.005  13.438
27650W        W99321  30.950   9.082   1.371
27651W        W99322  35.009  30.242  13.445
27652W        W99323  33.107  37.875  11.406
27653W        W99324  24.027  32.562   2.302
27654W        W99325  37.747  11.271  14.365
27655W        W99326   9.616  19.270   2.359
27656W        W99327   4.786  17.182  10.346
27657W        W99328  17.775  31.558   4.891
27658W        W99329   7.730  40.797  11.510
27659W        W99330  20.946  21.324   0.238
27660W        W99331  34.595   4.363  10.917
27661W        W99332  27.571  23.005   1.934
27662W        W99333   0.682  19.298   1.742
27663W        W99334  36.289  22.188  13.565
27664W        W99335  20.372  39.406   1.242
27665W        W99336  31.993  27.128  14.531
27666W        W99337  20.155   4.683  12.554
27667W        W99338  44.911   9.960   3.792
27668W        W99339  32.654  21.487   1.378
27669W        W99340   5.774   1.497   1.919
27670W        W99341  16.115  14.005   4.049
27671W        W99342  24.162  19.916  11.154
27672W        W99343   2.469  40.785   3.314
27673W        W99344  11.806   0.009  11.950
27674W        W99345   8.176   2.670  13.840
27675W        W99346  11.435  44.305   5.001
27676W        W99347  44.963  28.564   4.111
27677W        W99348  17.730   6.630  11.088
27678W        W99349  16.272  41.338  13.591
27679W        W99350  28.293  43.068   4.664
27680W        W99351  35.549   0.788  13.377
27681W        W99352   6.206  16.586  11.649
27682W        W99353  23.509  41.475   4.662
27683W        W99354  10.203  23.198  13.042
27684W        W99355  34.545   5.060   2.365
27685W        W99356   1.960  16.954   4.058
27686W        W99357  22.146  16.603  11.411
27687W        W99358  44.562  31.431  13.662
27688W        W99359  28.373  31.873  10.258
27689W        W99360  17.970  39.317  14.841
27690W        W99361  28.644  39.533  12.609
27691W        W99362  30.398  25.496   3.575
27692W        W99363  38.246  44.827  14.811
27693W        W99364  21.252  41.013   0.192
27694W        W99365  30.192   6.867  13.813
27695W        W99366  17.200   1.552   2.229
27696W        W99367  18.857  34.714   4.554
27697W        W99368  25.728   2.657  12.413
27698W        W99369   1.480  28.026  14.038
27699W        W99370  36.987  21.484  14.851
27700W        W99371  19.215  35.194   2.093
27701W        W99372  32.320   4.303  11.764
27702W        W99373  22.552  36.076  13.815
27703W        W99374  42.403   7.610   2.737
27704W        W99375   6.559  39.786  12.622
27705W        W99376   4.407  23.666   0.535
27706W        W99377  13.418  29.493   4.958
27707W        W99378  18.582  30.923   1.378
27708W        W99379  30.409   9.843   1.930
27709W        W99380   0.693   2.737  11.193
27710W        W99381  18.978  35.412  11.593
27711W        W99382   7.702   1.926  14.974
27712W        W99383  10.983  31.926  11.086
27713W        W99384  38.771  27.218  14.891
27714W        W99385  38.152  41.841   1.419
27715W        W99386  27.184  25.991   2.712
27716W        W99387  33.609  28.883   3.796
27717W        W99388   2.783  24.611  13.573
27718W        W99389  29.060  20.456   3.176
27719W        W99390  34.606   0.322   4.158
27720W        W99391  42.435  17.615  14.073
27721W        W99392  25.584  38.218   4.386
27722W        W99393  22.439  12.131  11.533
27723W        W99394  16.005  42.430   4.583
27724W        W99395  41.494  40.079   0.698
27725W        W99396  18.693  43.084  13.867
27726W        W99397   4.733  17.179   0.742
27727W        W99398  32.460  21.949  14.121
27728W        W99399  24.774   4.918   2.116
27729W        W99400  39.375  22.751  14.795
27730W        W99401  25.731  12.701   0.201
27731W        W99402   0.536  27.026   2.694
27732W        W99403   4.735  42.584   4.718
27733W        W99404  36.169   7.582  11.177
27734W        W99405  13.768  27.090   1.546
27735W        W99406  13.990  27.654   3.233
27736W        W99407  24.530  28.543   2.838
27737W        W99408  32.403  36.873  13.834
27738W        W99409  36.904  30.422  12.604
27739W        W99410  12.909  32.563   0.906
27740W        W99411   4.136  11.286   3.716
27741W        W99412  24.678  21.440   1.846
27742W        W99413  37.086  37.896  13.467
27743W        W99414   2.259  11.012  11.143
27744W        W99415  40.034  43.973   2.338
27745W        W99416   8.679   3.186  10.985
27746W        W99417  35.273  27.635  11.539
27747W        W99418  32.996  29.690  12.389
27748W        W99419  38.868  13.985   2.836
27749W        W99420  36.510  38.078   1.223
27750W        W99421  24.048  36.104   2.342
27751W        W99422  15.498  32.067   5.075
27752W        W99423   2.685   7.385   0.880
27753W        W99424  20.021  15.030   4.163
27754W        W99425  40.610   2.414   0.090
27755W        W99426  33.289  17.686   4.270
27756W        W99427   5.925  30.492   2.258
27757W        W99428  16.108   0.668  10.619
27758W        W99429  22.331  12.428  12.401
27759W        W99430  18.566  23.813   4.902
27760W        W99431  21.698   8.971  14.773
27761W        W99432  22.103  34.028  10.950
27762W        W99433  43.950  34.470  12.133
27763W        W99434  29.647  23.750   3.716
27764W        W99435   4.872  12.345   3.260
27765W        W99436  38.944  38.935  10.471
27766W        W99437  24.515  28.120  13.775
27767W        W99438  43.241   5.342  13.857
27768W        W99439  35.569  11.533   0.315
27769W        W99440  16.657  22.786  14.790
27770W        W99441  25.606  43.662   0.510
27771W        W99442  43.196  32.999  13.073
27772W        W99443   4.812   9.982  10.244
27773W        W99444   9.827  39.886  14.765
27774W        W99445  35.064  25.252  12.778
27775W        W99446  23.071   7.437  11.066
27776W        W99447  26.995  38.052  11.508
27777W        W99448  30.652  33.994   3.670
27778W        W99449  33.723   8.823   4.056
27779W        W99450  18.077  33.380  13.338
27780W        W99451   4.271   9.877  11.596
27781W        W99452  29.081  15.592  13.850
27782W        W99453  27.376  39.788  10.799
27783W        W99454  12.235   5.994   3.601
27784W        W99455   2.992  19.622  13.564
27785W        W99456  25.130  24.146   4.157
27786W        W99457  30.617  26.013  11.538
27787W        W99458  18.683  44.899  10.749
27788W        W99459  35.834   7.013   0.273
27789W        W99460  25.505  35.577   3.234
27790W        W99461  42.031  27.125  14.938
27791W        W99462  35.753   9.172  14.950
27792W        W99463  44.537  26.217   3.289
27793W        W99464  43.227  23.124   4.894
27794W        W99465  17.776  29.421   3.145
27795W        W99466  15.189  34.068   2.186
27796W        W99467  43.498  32.800  14.316
27797W        W99468  21.268  19.969   0.875
27798W        W99469  19.078  37.950   3.967
27799W        W99470  35.893   0.437   2.121
27800W        W99471  19.047  42.881  12.110
27801W        W99472  13.381  32.087  11.776
27802W        W99473  32.300  24.652   3.114
27803W        W99474   5.221  28.746  14.063
27804W        W99475   5.844  19.425  12.036
27805W        W99476  31.641  17.189   1.063
27806W        W99477  20.481  37.589   1.842
27807W        W99478   0.298  32.940   3.723
27808W        W99479   9.715  23.290  14.796
27809W        W99480  29.356   6.863  10.648
27810W        W99481  28.664  30.490   4.043
27811W        W99482  16.941  36.919  14.956
27812W        W99483  23.070  40.521  10.747
27813W        W99484  12.956  14.973  14.782
27814W        W99485  34.342  21.828  11.123
27815W        W99486  16.860  19.634  13.745
27816W        W99487  41.902  31.135   1.985
27817W        W99488  17.550  17.663   4.705
27818W        W99489   5.622  24.605   0.396
27819W        W99490  16.248  20.645  11.639
27820W        W99491   7.396  16.191   3.228
27821W        W99492   3.584  37.790  12.496
27822W        W99493  39.044  10.436   2.142
27823W        W99494  17.373  22.902   9.889
27824W        W99495  41.220  18.719  11.347
27825W        W99496  15.576  32.482  13.900
27826W        W99497   9.284   3.875   4.574
27827W        W99498  27.058  32.159  12.435
27828W        W99499  34.631  32.866   1.305
27829W        W99500  41.576   4.421  11.884
27830W        W99501  23.173  30.149  11.216
27831W        W99502   2.333  13.950  14.495
27832W        W99503  15.327  15.629   4.304
27833W        W99504  16.652  31.506   0.479
27834W        W99505  12.747  15.310   4.296
27835W        W99506  39.499   0.907  13.987
27836W        W99507  29.943  37.567  13.092
27837W        W99508  25.575  44.074   1.843
27838W        W99509  24.234   2.728  13.436
27839W        W99510  13.936  27.227   2.013
27840W        W99511   3.455  22.195  10.424
27841W        W99512  20.832  24.671  12.458
27842W        W99513   5.459  40.858   3.139
27843W        W99514  14.032  32.475  11.065
27844W        W99515   1.401  38.278   2.769
27845W        W99516  14.112  24.355  13.479
27846W        W99517  13.245  27.636  13.846
27847W        W99518   3.302  29.450   4.469
27848W        W99519  25.777  30.088   1.764
27849W        W99520   1.664  40.086  12.619
27850W        W99521  23.773  33.178  10.716
27851W        W99522  24.831  29.573   4.027
27852W        W99523   7.199   4.386  14.771
27853W        W99524  13.208  14.162  11.635
27854W        W99525  35.021  20.155   0.399
27855W        W99526  35.706  37.897  13.465
27856W        W99527  23.561  42.844   0.238
27857W        W99528  19.302  14.916   9.564
27858W        W99529  33.277  33.781   4.937
27859W        W99530  19.305  10.657   1.891
27860W        W99531  30.872  35.981  12.723
27861W        W99532  23.976  32.759  11.080
27862W        W99533  38.850   0.277  11.955
27863W        W99534  21.965  12.205   1.179
27864W        W99535   4.615   3.789   2.485
27865W        W99536  44.775  44.433   1.036
27866W        W99537  10.362  34.144  10.459
27867W        W99538  39.557   7.594   4.192
27868W        W99539   9.632  17.659  13.497
27869W        W99540  22.021  13.481   2.273
27870W        W99541  44.465  39.869  12.601
27871W        W99542   8.794  22.579   4.099
27872W        W99543  11.072  12.372   0.948
27873W        W99544   9.156  22.491  14.861
27874W        W99545  24.003   4.334  13.382
27875W        W99546  38.485  27.172   4.895
27876W        W99547   5.691  28.857   1.472
27877W        W99548  32.545   4.381   2.912
27878W        W99549  37.093   6.435  12.571
27879W        W99550   8.463  10.809   1.288
27880W        W99551   1.719  40.989  12.484
27881W        W99552   1.360   3.757   2.690
27882W        W99553  18.178  15.566  11.271
27883W        W99554   3.236  39.844   1.262
27884W        W99555  42.786  31.583   1.254
27885W        W99556  36.849  37.446   2.889
27886W        W99557  23.710  25.159  12.133
27887W        W99558   7.802  27.842   3.851
27888W        W99559  27.130  33.760   2.348
27889W        W99560  10.589  20.620   3.838
27890W        W99561  18.985   5.397   1.671
27891W        W99562  29.890  14.147   2.357
27892W        W99563  30.319   6.320   1.312
27893W        W99564  13.185   6.874  11.082
27894W        W99565  23.707  27.462  11.656
27895W        W99566  28.618   0.810  11.106
27896W        W99567  15.176  13.667   3.341
27897W        W99568  39.334  41.419   0.484
27898W        W99569   6.285  34.142   3.253
27899W        W99570  13.397  27.184   1.936
27900W        W99571  24.294  22.291  14.105
27901W        W99572   4.377  20.296   1.723
27902W        W99573  36.441  44.800  13.299
27903W        W99574  30.898  30.035  14.593
27904W        W99575  20.146   5.231  14.678
27905W        W99576  28.152  24.615  13.780
27906W        W99577  20.233  29.635   3.760
27907W        W99578   4.819  14.231   1.355
27908W        W99579  33.842   0.878  12.612
27909W        W99580  39.483  27.715   2.812
27910W        W99581   2.715  36.033  12.508
27911W        W99582   8.944   6.816  12.469
27912W        W99583  16.230   6.292   4.632
27913W        W99584  32.383   3.673   3.716
27914W        W99585  21.504   2.570  11.713
27915W        W99586  22.637   0.405   0.729
27916W        W99587  23.980  26.162  12.051
27917W        W99588  39.987  13.146   3.216
27918W        W99589  36.864  23.412   2.395
27919W        W99590   2.275  29.613  14.411
27920W        W99591  34.521  16.082  13.355
27921W        W99592  13.067  32.837  12.356
27922W        W99593  36.956  20.099  11.996
27923W        W99594  34.896  36.849  14.441
27924W        W99595  33.937  16.744  13.754
27925W        W99596  33.014   1.273  12.175
27926W        W99597  28.990  19.267   4.211
27927W        W99598  38.771  43.032  14.385
27928W        W99599  37.111   2.997  11.063
27929W        W99600   0.203  14.714  13.610
27930W        W99601  40.523  31.157  13.981
27931W        W99602  25.735  36.008   5.095
27932W        W99603   0.318  34.315  11.539
27933W        W99604  38.075  30.760   1.518
27934W        W99605  18.501   8.839   3.165
27935W        W99606  26.645  37.072  14.273
27936W        W99607  24.501  20.078   2.957
27937W        W99608  17.183  31.672   4.159
27938W        W99609  19.528  14.584  13.309
27939W        W99610   8.373  20.832   0.481
27940W        W99611   0.515  44.816   0.672
27941W        W99612  13.125  31.598  14.669
27942W        W99613  14.157  37.947  14.750
27943W        W99614  15.994   7.820  14.492
27944W        W99615  31.113  26.717  10.297
27945W        W99616  19.275  38.220   1.713
27946W        W99617  27.347   8.085  12.092
27947W        W99618  34.349  15.815  12.429
27948W        W99619  23.517  25.091   0.060
27949W        W99620  38.516  19.848   4.143
27950W        W99621  23.485  22.341  12.502
27951W        W99622  14.154   2.018   1.060
27952W        W99623  17.599  22.605  13.000
27953W        W99624  22.439  14.117  14.488
27954W        W99625  27.751   0.457  13.913
27955W        W99626   9.367  44.958  11.513
27956W        W99627  23.218   8.726   4.790
27957W        W99628   2.021  29.181  12.430
27958W        W99629  29.505   3.728  14.425
27959W        W99630  25.473  21.988  11.227
27960W        W99631  17.355  39.537  12.874
27961W        W99632  28.211  27.639   0.797
27962W        W99633   0.225  39.204  12.924
27963W        W99634  29.689  43.363  11.915
27964W        W99635  12.263  31.130   4.489
27965W        W99636  16.602  32.324   0.016
27966W        W99637  38.763  18.503  11.554
27967W        W99638  44.913  44.333   1.889
27968W        W99639  34.452  14.533   0.371
27969W        W99640  26.253  14.177   3.667
27970W        W99641  40.494  13.717   3.759
27971W        W99642   5.689  25.443   0.792
27972W        W99643  13.213  12.623   5.262
27973W        W99644  20.768   0.005  12.701
27974W        W99645   2.976  35.449   2.213
27975W        W99646  24.811  30.870   0.338
27976W        W99647   5.356   7.443   3.405
27977W        W99648  29.163  23.199  11.707
27978W        W99649   3.345  43.784   3.348
27979W        W99650  25.095   7.693  13.895
27980W        W99651  27.069  20.676  12.942
27981W        W99652  14.962   8.899   0.994
27982W        W99653  34.963   2.549  10.540
27983W        W99654  42.770   1.443   4.574
27984W        W99655   5.469   3.662   3.888
27985W        W99656   6.841  44.039  10.383
27986W        W99657  40.867  25.558  14.936
27987W        W99658  14.257  39.043   1.237
27988W        W99659  19.445  12.709  14.759
27989W        W99660  43.406  43.944   2.246
27990W        W99661   4.789  38.315   2.311
27991W        W99662  38.904  17.594   0.728
27992W        W99663   0.179  26.897   4.380
27993W        W99664  33.432   4.676  14.710
27994W        W99665  11.105   5.920   3.835
27995W        W99666  22.555  14.008   1.108
27996W        W99667   8.229  27.331   4.408
27997W        W99668  20.167   3.582  11.963
27998W        W99669  43.766  15.560  13.424
27999W        W99670  44.452   0.263  11.579
28000W        W99671  10.029   6.337   2.257
28001W        W99672  43.937  43.126   3.701
28002W        W99673  25.129  17.566   3.623
28003W        W99674  10.143  28.523  12.544
28004W        W99675  32.988  41.552   1.280
28005W        W99676  36.435  41.580  13.322
28006W        W99677   0.878  25.431   0.883
28007W        W99678  13.797  44.367  12.576
28008W        W99679  31.451  11.154  13.042
28009W        W99680  14.870  31.068   0.379
28010W        W99681  38.848  11.193  13.555
28011W        W99682  18.683  16.844  13.412
28012W        W99683   5.913  42.557  12.565
28013W        W99684  35.316  26.287   2.336
28014W        W99685  31.350  36.303  12.730
28015W        W99686  22.806   1.774   1.300
28016W        W99687  14.334  34.893   1.603
28017W        W99688  16.305   4.756  13.218
28018W        W99689   8.827   4.745  12.386
28019W        W99690   6.208  18.403  14.047
28020W        W99691  37.394  16.703   0.965
28021W        W99692  26.481  44.062   1.384
28022W        W99693   5.815  34.819   1.288
28023W        W99694  21.314  21.269   1.208
28024W        W99695  12.337  16.577   4.651
28025W        W99696  12.702   7.650   1.402
28026W        W99697  12.084  18.773  12.070
28027W        W99698  21.724  41.941  10.646
28028W        W99699  35.239  28.183   4.602
28029W        W99700  25.980  11.224   4.455
28030W        W99701  21.120  26.691  12.902
28031W        W99702   3.272  44.496   2.273
28032W        W99703  20.181  30.916   1.267
28033W        W99704  23.180  37.057   1.316
28034W        W99705  31.620  14.885  14.993
28035W        W99706   0.383   8.384   0.980
28036W        W99707  32.159  15.087   3.854
28037W        W99708  21.224  40.342   0.667
28038W        W99709  17.165   9.783  12.827
28039W        W99710  22.291   9.719  13.785
28040W        W99711  35.169   1.920  14.447
28041W        W99712   8.777  28.958  14.461
28042W        W99713  10.601  11.132  11.912
28043W        W99714  42.589   8.768  11.127
28044W        W99715  43.408  34.590  14.880
28045W        W99716  20.082  26.836   5.656
28046W        W99717  26.177   2.475  10.745
28047W        W99718  44.944  12.284  12.103
28048W        W99719   5.282  19.754  14.376
28049W        W99720   9.688  25.101   3.255
28050W        W99721  26.979   1.247   1.373
28051W        W99722  21.975  39.969  12.129
28052W        W99723   4.356  14.958  13.102
28053W        W99724  38.860  36.822  11.535
28054W        W99725  44.049   4.276  13.921
28055W        W99726   5.228  18.110   2.431
28056W        W99727  40.975  28.698  11.513
28057W        W99728  18.216  14.763  14.908
28058W        W99729  27.606  26.115  14.799
28059W        W99730  14.825  13.816  11.754
28060W        W99731  41.078  16.453   2.591
28061W        W99732  27.387  15.193  12.026
28062W        W99733  10.377  20.736   1.893
28063W        W99734  40.630  19.961  12.424
28064W        W99735  35.268  10.270  11.032
28065W        W99736   3.099  23.782   4.626
28066W        W99737  27.525  22.041   3.564
28067W        W99738   1.561  25.981   2.312
28068W        W99739   5.329   6.821  10.755
28069W        W99740   5.220  15.577   1.401
28070W        W99741  19.076  19.067   0.872
28071W        W99742   8.457  15.174   3.109
28072W        W99743   5.894  42.714   0.784
28073W        W99744   3.350  29.524   5.010
28074W        W99745  12.164  42.624   5.058
28075W        W99746  21.492  13.631   1.504
28076W        W99747  29.059  37.409   3.745
28077W        W99748  29.244  42.783   0.389
28078W        W99749  34.083  34.453   0.908
28079W        W99750  32.470  38.566  10.683
28080W        W99751  38.454  17.181   2.216
28081W        W99752  10.681  23.249   2.662
28082W        W99753  13.889  16.643  11.530
28083W        W99754  19.630  30.917   3.584
28084W        W99755  31.369   5.290  13.134
28085W        W99756  22.077  37.312  14.414
28086W        W99757  12.495  27.961  11.612
28087W        W99758  10.302  31.927   1.742
28088W        W99759  36.462  33.828   2.365
28089W        W99760  25.189  40.558   2.131
28090W        W99761   3.248  13.759  11.992
28091W        W99762  27.960  31.055  11.991
28092W        W99763   5.292   1.698   4.161
28093W        W99764  21.598  42.117   2.306
28094W        W99765  39.316   4.289  11.541
28095W        W99766   8.924  30.623  13.844
28096W        W99767  41.074  10.686   0.363
28097W        W99768  16.660  21.778   0.462
28098W        W99769  13.690  21.128   0.067
28099W        W99770   7.898  40.957   2.189
28100W        W99771  11.577  34.453   4.116
28101W        W99772   3.809  14.802   1.755
28102W        W99773  40.518   5.923   3.198
28103W        W99774  10.285  27.418   2.361
28104W        W99775   9.773  28.951   3.376
28105W        W99776  11.792  24.670  14.230
28106W        W99777   1.877  26.602  12.081
28107W        W99778  14.763  40.475   4.544
28108W        W99779  24.919  23.623  13.027
28109W        W99780  44.457  36.540  13.997
28110W        W99781  14.085  21.792   2.663
28111W        W99782  34.001  18.765  14.276
28112W        W99783  24.046  25.312  13.859
28113W        W99784  13.621  44.642  11.496
28114W        W99785  38.966  44.875   3.049
28115W        W99786   6.916  13.226  11.873
28116W        W99787  25.518  43.619   3.490
28117W        W99788  43.794  33.958   4.179
28118W        W99789  34.446  26.963   1.679
28119W        W99790  15.624  30.960   3.665
28120W        W99791   0.731   2.703   0.347
28121W        W99792  14.124  43.488   2.689
28122W        W99793   8.306   1.002   3.087
28123W        W99794  36.536   7.830   3.327
28124W        W99795  26.311  22.579  13.915
28125W        W99796  24.590  11.254   2.394
28126W        W99797  28.578   2.419  13.374
28127W        W99798  21.618  32.843   4.248
28128W        W99799  44.051   3.859   2.062
28129W        W99800  29.731  35.267  10.377
28130W        W99801   1.402  27.650   2.236
28131W        W99802  10.082  28.157  13.718
28132W        W99803  29.642  44.058   2.326
28133W        W99804   3.449   4.952  13.894
28134W        W99805  39.024  13.105  13.973
28135W        W99806  10.671  27.968  13.348
28136W        W99807  34.025  44.070  10.649
28137W        W99808   9.927  18.798  12.519
28138W        W99809  19.829  27.585   1.224
28139W        W99810  28.541   4.305  13.938
28140W        W99811  34.082   4.882   2.134
28141W        W99812  44.516  39.554   1.649
28142W        W99813  43.365  13.088  10.753
28143W        W99814  17.007  42.788  10.533
28144W        W99815   8.729  38.897  12.603
28145W        W99816  26.227  20.690   0.496
28146W        W99817   0.359  15.357   4.438
28147W        W99818  14.813  33.531   4.932
28148W        W99819  20.074  29.566  10.637
28149W        W99820  28.912   1.530  12.083
28150W        W99821  39.344  15.088  12.419
28151W        W99822  23.686  11.395   1.033
28152W        W99823   5.216  34.808   2.300
28153W        W99824  26.791   5.026  10.001
28154W        W99825   2.318   1.498   3.650
28155W        W99826   6.900  13.398   3.768
28156W        W99827   3.059  19.267   2.240
28157W        W99828  32.594  20.479   4.166
28158W        W99829  44.786  12.634  14.915
28159W        W99830  32.167  18.595  13.048
28160W        W99831  30.559  36.085   0.718
28161W        W99832  31.570  29.759  11.144
28162W        W99833  21.660  10.701  12.793
28163W        W99834  10.646   8.127   0.756
28164W        W99835  24.735  28.186  14.964
28165W        W99836  28.030  33.390  13.309
28166W        W99837  12.039  33.972  10.632
28167W        W99838  38.021  28.670   2.308
28168W        W99839  27.282  24.902  10.372
28169W        W99840  36.041  13.329  13.426
28170W        W99841  12.716   3.685  12.661
28171W        W99842  20.402  23.401  14.388
28172W        W99843  11.556   6.357  14.483
28173W        W99844  15.613  13.609   1.388
28174W        W99845  21.668   3.936   1.614
28175W        W99846  36.964  38.140  11.469
28176W        W99847  34.862   9.978   1.361
28177W        W99848   2.386  22.797   3.138
28178W        W99849  24.506   4.162  11.116
28179W        W99850  34.389  29.682   1.405
28180W        W99851  25.902  26.329   3.024
28181W        W99852   9.593   6.308  12.467
28182W        W99853  40.386  27.923  12.448
28183W        W99854  13.778  11.117  14.862
28184W        W99855  27.613  26.981  14.295
28185W        W99856  16.039  38.832  14.239
28186W        W99857   9.435  43.796  11.755
28187W        W99858   3.258  28.020  12.380
28188W        W99859   7.358   1.869   3.628
28189W        W99860   3.887  12.837  12.344
28190W        W99861   7.422  25.581  14.282
28191W        W99862  24.618  41.499  14.706
28192W        W99863   5.273  26.240  11.918
28193W        W99864  28.478   5.432   3.646
28194W        W99865  17.274  40.271  14.032
28195W        W99866   6.707  10.579  14.397
28196W        W99867  11.751  29.904   2.746
28197W        W99868  34.103  23.763  11.877
28198W        W99869  13.200  31.823  12.820
28199W        W99870  38.992  10.719   3.214
28200W        W99871  33.864  42.942   1.260
28201W        W99872  32.433   4.521   2.175
28202W        W99873  30.043  25.400   0.952
28203W        W99874   9.264   7.807   3.206
28204W        W99875   1.958  31.971  14.757
28205W        W99876  44.486  44.353   0.145
28206W        W99877  42.936  13.881   4.997
28207W        W99878  36.962  24.715  14.702
28208W        W99879  15.246   6.717  14.583
28209W        W99880  36.826  28.500   4.494
28210W        W99881  30.143  13.535   3.162
28211W        W99882  14.820  43.397  10.560
28212W        W99883  27.342   9.945  11.003
28213W        W99884  44.999  44.199  11.076
28214W        W99885   1.149  31.432  14.014
28215W        W99886  43.908  26.135  14.413
28216W        W99887  36.882  44.877   4.234
28217W        W99888   2.938  25.801  12.148
28218W        W99889  35.417  17.922  11.898
28219W        W99890  37.630   4.254  13.516
28220W        W99891   9.357   9.027   0.796
28221W        W99892  44.485  22.299   4.908
28222W        W99893  29.176  37.393  10.637
28223W        W99894  35.595  17.596  10.565
28224W        W99895  31.362  26.267  10.247
28225W        W99896  29.932  35.874  13.715
28226W        W99897  30.300  21.105   1.250
28227W        W99898  34.375  23.047   3.809
28228W        W99899   9.247  22.613   1.904
28229W        W99900  23.244  41.431   2.168
28230W        W99901  37.577  11.684  11.622
28231W        W99902   5.236   1.308  12.482
28232W        W99903  24.260   4.017  10.652
28233W        W99904  27.816   6.186   5.149
28234W        W99905  33.884  42.908   4.296
28235W        W99906   7.472  33.330  10.165
28236W        W99907   8.088  21.197  12.479
28237W        W99908  38.285   1.920  11.618
28238W        W99909  32.131  36.572  12.478
28239W        W99910  40.046  12.309  13.057
28240W        W99911  24.257  21.349   2.412
28241W        W99912  20.934  26.484  12.459
28242W        W99913  21.574   6.696  12.395
28243W        W99914  37.903  34.147  13.328
28244W        W99915  20.978  22.118  14.616
28245W        W99916  42.584  24.074   0.253
28246W        W99917  18.968  17.314  13.923
28247W        W99918  17.873  12.689  12.465
28248W        W99919  38.117  43.331   1.620
28249W        W99920   5.123   4.864   4.597
28250W        W99921   7.529  25.959  12.002
28251W        W99922  26.901  37.301  11.177
28252W        W99923  19.085  11.972   2.337
28253W        W99924  34.504   4.873  10.953
28254W        W99925   2.317  22.975  12.922
28255W        W99926  11.149   9.852  14.305
28256W        W99927  13.125  38.378   4.934
28257W        W99928  32.030  12.615   2.553
28258W        W99929  43.570  23.979  11.846
28259W        W99930  17.354   4.331   0.937
28260W        W99931  18.798  33.423  14.830
28261W        W99932   6.853   1.187   3.510
28262W        W99933  24.093  37.242  11.202
28263W        W99934  36.347  35.378  13.304
28264W        W99935  44.023  43.599   5.230
28265W        W99936  28.016  34.985   3.346
28266W        W99937  30.076  10.897  11.490
28267W        W99938  25.672  36.873  14.467
28268W        W99939  29.665   5.107  10.217
28269W        W99940  26.536  12.663   4.546
28270W        W99941  25.796  40.525   4.683
28271W        W99942  27.007  37.079   3.221
28272W        W99943   5.992  15.101  13.347
28273W        W99944  40.914  22.198   0.347
28274W        W99945  32.737  38.054  12.560
28275W        W99946   8.065  44.284  10.653
28276W        W99947  40.483   1.432  12.935
28277W        W99948  31.500   7.521  12.478
28278W        W99949  34.947   2.816  12.767
28279W        W99950  26.550  43.997  13.503
28280W        W99951  35.296  18.048   0.955
28281W        W99952  22.413  12.274  10.627
28282W        W99953  18.037  28.973   4.367
28283W        W99954  44.827  19.312  12.471
28284W        W99955  14.199  16.240  12.636
28285W        W99956   4.170   6.931   0.281
28286W        W99957  38.282  37.385  13.941
28287W        W99958  43.018  35.838   3.268
28288W        W99959  17.684  14.731   2.586
28289W        W99960  38.658  21.082   4.987
28290W        W99961  13.649  20.327  13.448
28291W        W99962   3.254  29.496  10.741
28292W        W99963  33.005  42.396  11.187
28293W        W99964  20.459  11.971   9.726
28294W        W99965  34.441   7.810   3.120
28295W        W99966   6.179   9.547  11.383
28296W        W99967  37.392  12.606  13.802
28297W        W99968  38.281  13.256   2.706
28298W        W99969   0.075  38.242  10.735
28299W        W99970  19.579  28.362   0.782
28300W        W99971  44.808  28.193   4.515
28301W        W99972  18.351  43.430   1.739
28302W        W99973  26.040  18.236   1.404
28303W        W99974  39.499  25.956   1.589
28304W        W99975  25.305  24.979  14.406
28305W        W99976  42.063  44.175   3.249
28306W        W99977  42.433  12.873   3.322
28307W        W99978  26.212  22.988   1.397
28308W        W99979  24.581  30.024  13.523
28309W        W99980  32.893   8.346  12.024
28310W        W99981   4.742  42.083   3.906
28311W        W99982   9.385  33.388   3.411
28312W        W99983   7.466  10.845  11.945
28313W        W99984  37.073  37.418   0.707
28314W        W99985  27.998  25.540  12.001
28315W        W99986  35.873   7.651   4.648
28316W        W99987  19.707  38.371   4.336
28317W        W99988  38.033   9.871   1.344
28318W        W99989  37.295  32.604   4.544
28319W        W99990  25.038  20.170   3.614
28320W        W99991  11.368   9.355   3.728
28321W        W99992  19.804   0.277  11.865
28322W        W99993  32.388  19.226   1.961
28323W        W99994  23.414  42.049   3.236
28324W        W99995   3.750  38.516  14.779
28325W        W99996  37.237   4.025  11.975
28326W        W99997  29.412  37.500  12.824
28327W        W99998  26.498  17.306   0.412
28328W        W99999  19.012   7.732   1.968
28329W        W    0  28.604  13.689  12.259
28330W        W    1  16.567  10.159  10.748
28331W        W    2   3.014   6.633  13.404
28332W        W    3   8.362  11.159  13.527
28333W        W    4  22.904  18.652   4.034
28334W        W    5  32.260  19.486   2.437
28335W        W    6   8.756  12.861   1.502
28336W        W    7  43.372   2.976   2.813
28337W        W    8  37.281   8.457  13.646
28338W        W    9  29.447   9.742   3.648
28339W        W   10  39.862  17.083   0.377
28340W        W   11  12.154  14.389  14.833
28341W        W   12  29.175   4.813   0.868
28342W        W   13  10.730  25.596   4.338
28343W        W   14  22.259  15.244  11.082
28344W        W   15  11.122  19.297  13.810
28345W        W   16   2.404  37.172  10.743
28346W        W   17  30.822  36.924   1.866
28347W        W   18  29.889   2.752  13.244
28348W        W   19  25.166  32.477   4.099
28349W        W   20   6.929   4.683   0.743
28350W        W   21  35.982  40.040   3.735
28351W        W   22  15.778  16.095   1.300
28352W        W   23  35.940   6.202  12.811
28353W        W   24   8.859   1.860   1.331
28354W        W   25  44.166  25.318   4.703
28355W        W   26   2.920  29.255  13.847
28356W        W   27  22.109  44.409  10.686
28357W        W   28   0.808  13.545   9.989
28358W        W   29   0.242   1.767   1.841
28359W        W   30   4.474  12.703   1.609
28360W        W   31   7.669  17.395  11.170
28361W        W   32   9.157  26.887  10.520
28362W        W   33  19.511  26.140  10.170
28363W        W   34  42.548  21.583  12.277
28364W        W   35   5.789   0.453   4.876
28365W        W   36  40.522  29.924  12.560
28366W        W   37  35.800  38.361   3.709
28367W        W   38  22.246  43.061   0.165
28368W        W   39   1.912   6.838   4.626
28369W        W   40  15.853  16.599   1.420
28370W        W   41  15.254  35.666   3.636
28371W        W   42  32.519  15.770   0.768
28372W        W   43  32.233  24.965   0.449
28373W        W   44   1.998  13.616  11.476
28374W        W   45   5.959  19.805  13.326
28375W        W   46  18.306  37.894   1.502
28376W        W   47  20.090  20.446  13.361
28377W        W   48  32.955  35.739   4.790
28378W        W   49  10.147  20.083  12.808
28379W        W   50  19.474   1.046  11.568
28380W        W   51  12.434   5.934  14.986
28381W        W   52  15.649   2.714  13.392
28382W        W   53  16.569  21.372   0.093
28383W        W   54  15.068   9.766   0.433
28384W        W   55  28.782  24.003  10.643
28385W        W   56  15.831  36.544   1.543
28386W        W   57  31.860   6.233   1.279
28387W        W   58  40.366  42.139  11.596
28388W        W   59   9.365  15.540  11.996
28389W        W   60  21.553  12.784  12.429
28390W        W   61  22.643  37.944  14.915
28391W        W   62  10.026  38.415   3.120
28392W        W   63  39.729  13.140   2.769
28393W        W   64   3.772  20.707   2.297
28394W        W   65  27.940  22.756   3.266
28395W        W   66  21.322  31.544   1.176
28396W        W   67  17.997  20.741   4.652
28397W        W   68  40.784  10.014   3.933
28398W        W   69   9.822  30.639   3.014
28399W        W   70  36.323  43.306   4.092
28400W        W   71  18.636  35.149  14.696
28401W        W   72  23.682  18.782   3.599
28402W        W   73  26.127   1.438  10.400
28403W        W   74   0.895  43.995   4.324
28404W        W   75  34.000  28.706  14.715
28405W        W   76  39.157  44.786  12.333
28406W        W   77  11.872  16.414  14.360
28407W        W   78  31.826  29.973  14.777
28408W        W   79  29.656  19.757   0.467
28409W        W   80   4.490  40.940  14.068
28410W        W   81  12.440  24.667  11.591
28411W        W   82  15.946  28.406  12.894
28412W        W   83  17.771  15.848   3.624
28413W        W   84  24.577  18.269  10.517
28414W        W   85  26.490  31.861  14.361
28415W        W   86  43.464  40.879  10.544
28416W        W   87  30.050   8.402   0.968
28417W        W   88  11.439  42.469  14.317
28418W        W   89  30.865  41.895   2.720
28419W        W   90  10.426   1.772  10.324
28420W        W   91  41.122  12.191  14.430
28421W        W   92  30.412   2.832   1.952
28422W        W   93  44.724  23.537   0.888
28423W        W   94  43.800  38.777  10.649
28424W        W   95  44.894  17.766   4.600
28425W        W   96  39.510  26.431  10.553
28426W        W   97  40.932  21.111  14.397
28427W        W   98  30.615  12.262   3.708
28428W        W   99  36.306   2.974  14.339
28429W        W  100  17.689  13.116  12.222
28430W        W  101  16.681   5.715   2.241
28431W        W  102  26.571  17.295  13.257
28432W        W  103  12.370  35.994   2.845
28433W        W  104  39.348  37.598  12.790
28434W        W  105  43.771  30.892   2.256
28435W        W  106  19.642  26.316   0.369
28436W        W  107  39.518   1.762  11.172
28437W        W  108  28.437   4.305  12.036
28438W        W  109  30.188  44.238  14.838
28439W        W  110  39.919  16.669   0.057
28440W        W  111   9.250  10.289  13.425
28441W        W  112  10.884  15.390  14.183
28442W        W  113  37.452   4.816   5.316
28443W        W  114  21.019  44.409   0.746
28444W        W  115  28.770  15.580   0.959
28445W        W  116  37.099  12.905  14.152
28446W        W  117  26.770   0.667  12.525
28447W        W  118  13.360  23.018   3.993
28448W        W  119  36.676  11.754   3.819
28449W        W  120  35.052  32.082   4.165
28450W        W  121  16.163  16.301   2.828
28451W        W  122  18.540  39.893   0.945
28452W        W  123  18.497  37.459  11.690
28453W        W  124  30.008  31.477   2.862
28454W        W  125  12.610  31.827  10.068
28455W        W  126  44.806  36.081  14.748
28456W        W  127  38.927   1.654   3.187
28457W        W  128  21.489  34.379   0.980
28458W        W  129   5.195  11.492  14.091
28459W        W  130  27.067   4.829  13.949
28460W        W  131  29.313  16.703   4.124
28461W        W  132   1.314  32.603  10.712
28462W        W  133  23.651   4.151  12.459
28463W        W  134  44.902  11.913  13.073
28464W        W  135  17.397  38.855   4.098
28465W        W  136  23.423   4.440   2.350
28466W        W  137   8.979   5.609   3.613
28467W        W  138  32.009   9.450  14.783
28468W        W  139  10.388   9.310   1.042
28469W        W  140  28.167  26.454   1.866
28470W        W  141  41.551  17.244   4.594
28471W        W  142   2.813  37.071  14.160
28472W        W  143  12.925   2.824   2.178
28473W        W  144  22.927   1.017  14.830
28474W        W  145   8.303  41.751  12.887
28475W        W  146  21.661  40.335   0.345
28476W        W  147  29.956  39.499   4.563
28477W        W  148  43.590   3.795  14.302
28478W        W  149  21.039  23.214  10.153
28479W        W  150  33.968  23.668  11.378
28480W        W  151  36.353  43.272  14.339
28481W        W  152  17.062  29.962  12.123
28482W        W  153  43.057   7.625   2.427
28483W        W  154  42.460  18.706   3.896
28484W        W  155  15.551  17.434  11.144
28485W        W  156   1.026   6.964  11.724
28486W        W  157  42.695   6.535  13.423
28487W        W  158   8.310  39.891  11.571
28488W        W  159  13.035  34.831  10.670
28489W        W  160  43.514  25.093   3.076
28490W        W  161  20.052   2.725   1.876
28491W        W  162  44.733  37.427   3.285
28492W        W  163   2.420  10.893   2.698
28493W        W  164  26.306   2.956  14.450
28494W        W  165  26.301  36.232   2.703
28495W        W  166  32.703  33.602   1.714
28496W        W  167   1.818  12.054   0.690
28497W        W  168   4.940  35.973   5.052
28498W        W  169  43.453  20.084  11.970
28499W        W  170  21.045  11.476  14.718
28500W        W  171   2.435  23.039   4.175
28501W        W  172  32.544  19.686   3.054
28502W        W  173  37.571  17.220   1.763
28503W        W  174  43.433  18.778   3.050
28504W        W  175  18.786  17.065  10.617
28505W        W  176  40.095   6.677   0.847
28506W        W  177  44.049   2.798  13.310
28507W        W  178  39.945  37.297   4.168
28508W        W  179  33.563  39.271   2.384
28509W        W  180  11.396  32.689  13.846
28510W        W  181   6.344   2.724   1.700
28511W        W  182   1.980   9.243  11.497
28512W        W  183   2.250  16.031   3.463
28513W        W  184  15.218   7.702   3.226
28514W        W  185  30.542  12.820   3.712
28515W        W  186  40.017  31.297   4.280
28516W        W  187  10.423  16.558  12.046
28517W        W  188  24.529  27.202   0.588
28518W        W  189  29.450  10.310  13.012
28519W        W  190   7.977  38.885   0.918
28520W        W  191  11.649  10.643  14.356
28521W        W  192  13.571  16.801   2.304
28522W        W  193  13.074   0.054   2.647
28523W        W  194  32.589  30.699   3.783
28524W        W  195  27.916  43.019  12.001
28525W        W  196   3.562  28.399   4.439
28526W        W  197  34.300  26.647  14.449
28527W        W  198  31.687  44.241   4.169
28528W        W  199  16.574  25.211   4.232
28529W        W  200  27.047  19.846  14.109
28530W        W  201  15.571   7.784   3.710
28531W        W  202  15.604  39.032  13.006
28532W        W  203   4.269  40.991  11.654
28533W        W  204  33.810  10.592   1.433
28534W        W  205   7.427  26.586  11.443
28535W        W  206  22.216  37.374   4.998
28536W        W  207  33.501  23.651  13.605
28537W        W  208  14.270  17.299   2.357
28538W        W  209  34.371  42.033  12.109
28539W        W  210   6.906  22.258  10.996
28540W        W  211  30.183  14.589   2.406
28541W        W  212   4.760   5.932  12.566
28542W        W  213  24.678  19.815  12.978
28543W        W  214  30.399  28.502  14.702
28544W        W  215  20.493  14.984  12.886
28545W        W  216  36.578  39.861   1.001
28546W        W  217  15.964   8.335   3.864
28547W        W  218  39.559  22.488   3.361
28548W        W  219   9.799  33.786   4.671
28549W        W  220   5.269  10.659   4.539
28550W        W  221  41.738  36.765  12.246
28551W        W  222  12.747  16.353   4.244
28552W        W  223  18.840  29.526   4.139
28553W        W  224  21.927  18.756   3.346
28554W        W  225   2.729   3.714  11.341
28555W        W  226  22.606  33.437   2.226
28556W        W  227  23.741  35.918   0.764
28557W        W  228  37.064  15.311   4.042
28558W        W  229  43.307  33.981  11.460
28559W        W  230   9.138  12.319  10.352
28560W        W  231  20.794   4.510  14.931
28561W        W  232  31.486  36.792   3.206
28562W        W  233  42.874  32.537  13.033
28563W        W  234  39.063  42.273  11.557
28564W        W  235  32.686  41.291  11.557
28565W        W  236  25.051  40.680   1.298
28566W        W  237  42.342  13.796   0.736
28567W        W  238  33.068  28.018  12.202
28568W        W  239  36.322  14.632  13.086
28569W        W  240  31.372  35.083  14.552
28570W        W  241  23.204  15.523  12.210
28571W        W  242   9.968  14.364  13.153
28572W        W  243  43.232  10.638   0.914
28573W        W  244  26.922   7.695  12.931
28574W        W  245  20.157   7.309   1.094
28575W        W  246  15.952  13.718   5.058
28576W        W  247  25.380  21.224   3.907
28577W        W  248  12.761  13.782   3.376
28578W        W  249  30.301  39.504  13.825
28579W        W  250  32.331  11.175   0.890
28580W        W  251  14.331  25.796  11.995
28581W        W  252  27.970  38.367  13.265
28582W        W  253  14.224  13.080   0.197
28583W        W  254   0.018  25.352   0.898
28584W        W  255  41.297   8.560  12.089
28585W        W  256  20.497  17.552   2.704
28586W        W  257   4.913  14.377   1.872
28587W        W  258  31.006   1.171   3.605
28588W        W  259  36.058  30.399   4.560
28589W        W  260  30.798  29.696  13.335
28590W        W  261   4.291  18.263   2.760
28591W        W  262  11.205  14.618  12.386
28592W        W  263   2.513  20.916  10.258
28593W        W  264  35.467  17.822   4.493
28594W        W  265  10.176  21.393  11.473
28595W        W  266  26.635  12.491  11.098
28596W        W  267  35.500  24.547   4.172
28597W        W  268  11.860  34.121   4.745
28598W        W  269  19.932  17.799  12.922
28599W        W  270  25.093   1.376  12.406
28600W        W  271  20.118  21.610   1.256
28601W        W  272  27.659   9.847   4.194
28602W        W  273  10.661   8.238   1.408
28603W        W  274  43.188  32.879  11.474
28604W        W  275  43.469  11.666  13.108
28605W        W  276  22.602  13.779  12.142
28606W        W  277  42.851  39.380   2.749
28607W        W  278  27.888   1.704  14.384
28608W        W  279  30.061  21.106  13.509
28609W        W  280   1.821  27.499   4.774
28610W        W  281  11.839  12.749  14.554
28611W        W  282   3.746  29.607  10.633
28612W        W  283  35.935   7.616  10.725
28613W        W  284  29.443  12.293  13.062
28614W        W  285   8.963  11.560   1.854
28615W        W  286  19.652  11.607   1.198
28616W        W  287   4.271  28.995  13.889
28617W        W  288  42.908  26.518  11.601
28618W        W  289   8.938  43.979   4.677
28619W        W  290  18.233  23.193  12.513
28620W        W  291  43.299  15.842   1.770
28621W        W  292  17.203  14.776   0.115
28622W        W  293  33.945   1.337   4.810
28623W        W  294  26.520  36.944  11.123
28624W        W  295  21.745   6.419  11.130
28625W        W  296  35.069  29.698   2.984
28626W        W  297   0.975   1.819  13.493
28627W        W  298  27.180  39.495  11.612
28628W        W  299   3.342  33.873  13.323
28629W        W  300  26.544  31.373  11.106
28630W        W  301  28.425   7.140  13.871
28631W        W  302   8.252  19.162   1.798
28632W        W  303  18.301  43.004  11.615
28633W        W  304  32.537  41.018   0.767
28634W        W  305  35.454   8.433   0.671
28635W        W  306  31.642   4.743   3.300
28636W        W  307   4.891  13.242   1.186
28637W        W  308  40.001  29.361  13.782
28638W        W  309   3.955  39.017  11.187
28639W        W  310  40.399  33.375   0.881
28640W        W  311   1.346  30.391  10.549
28641W        W  312   9.210  41.347   0.663
28642W        W  313   4.175  28.007   0.389
28643W        W  314  19.522  42.712  10.971
28644W        W  315  34.340  42.452  14.575
28645W        W  316  12.497  31.167   2.385
28646W        W  317  29.904   6.903   3.782
28647W        W  318  40.000  24.385   3.846
28648W        W  319  37.902  14.227  11.479
28649W        W  320  10.182  14.883   4.145
28650W        W  321  20.152  28.178  12.514
28651W        W  322  19.648  40.350   4.857
28652W        W  323  40.032  41.445  11.431
28653W        W  324   6.706  24.985  14.424
28654W        W  325  31.156   8.033  13.166
28655W        W  326  39.494  35.047  12.465
28656W        W  327   6.407  11.213   3.305
28657W        W  328   5.579  10.074   4.298
28658W        W  329  22.145  10.074   2.816
28659W        W  330   4.407  16.357  12.968
28660W        W  331   4.715  33.690   1.660
28661W        W  332  23.145  36.698  14.813
28662W        W  333  34.421  42.393  12.511
28663W        W  334  24.571   6.785  11.956
28664W        W  335  18.579  16.300  11.592
28665W        W  336  42.987  14.336  10.737
28666W        W  337  24.523  38.490  14.483
28667W        W  338  24.645  12.745   3.270
28668W        W  339  13.158  11.409  13.399
28669W        W  340   3.208   6.712  10.457
28670W        W  341  34.884  24.126   3.099
28671W        W  342   6.754  16.938   0.204
28672W        W  343  40.390  22.061   2.206
28673W        W  344  23.305  44.013  12.090
28674W        W  345  29.782  42.248  12.372
28675W        W  346  19.631  21.616  13.517
28676W        W  347  34.812  22.171  14.665
28677W        W  348  44.861  34.637   1.732
28678W        W  349  39.791   4.366  12.460
28679W        W  350  20.037  36.750   2.194
28680W        W  351  29.419  43.689  13.277
28681W        W  352  18.162  16.491   1.648
28682W        W  353  14.552   6.679   4.180
28683W        W  354  40.435  10.709  11.122
28684W        W  355  18.450  25.991   1.963
28685W        W  356  21.242  32.986   1.555
28686W        W  357  37.865  37.116  10.672
28687W        W  358  19.568   6.356  11.940
28688W        W  359   4.325  30.373  12.072
28689W        W  360  28.521  42.841  11.127
28690W        W  361  15.471  13.015  10.322
28691W        W  362   0.765  28.127   3.588
28692W        W  363  18.175  27.029  10.972
28693W        W  364   8.583  30.936   3.726
28694W        W  365  17.989  23.786  11.972
28695W        W  366  22.250   6.216   4.577
28696W        W  367  13.709  38.849  14.999
28697W        W  368  29.150  25.096   0.437
28698W        W  369  44.948  42.583  13.051
28699W        W  370   1.953  40.030   3.678
28700W        W  371  10.274   4.908   4.936
28701W        W  372  43.309  16.510  11.496
28702W        W  373  42.953  43.946  11.646
28703W        W  374  12.817  37.093  11.225
28704W        W  375  13.204  25.976   1.690
28705W        W  376  18.272  32.168  12.065
28706W        W  377   9.261  17.393  12.497
28707W        W  378  38.827  12.579  10.742
28708W        W  379  35.514  30.382  14.476
28709W        W  380  20.990  21.281  14.724
28710W        W  381  44.471  11.677   9.960
28711W        W  382  44.684  41.158  10.097
28712W        W  383  28.388  40.080   4.338
28713W        W  384  13.748  37.808   1.567
28714W        W  385  26.562  14.174   4.955
28715W        W  386   5.404   9.213   1.781
28716W        W  387  15.400  19.065   2.303
28717W        W  388  27.265  34.859  11.966
28718W        W  389  25.065  20.709  11.611
28719W        W  390  22.238  26.509   4.972
28720W        W  391  36.664  22.307   2.751
28721W        W  392  43.269  16.237   3.042
28722W        W  393  23.686  42.504  11.167
28723W        W  394  28.758   5.991  12.920
28724W        W  395  26.645   8.155  10.189
28725W        W  396   7.207   0.440  11.682
28726W        W  397  30.097  22.962  12.704
28727W        W  398  33.481  23.814  12.543
28728W        W  399  17.586  15.806  13.226
28729W        W  400  10.144  18.992   1.247
28730W        W  401  15.389  25.441   1.359
28731W        W  402  10.719  32.392   4.741
28732W        W  403  17.117   8.897   4.768
28733W        W  404  31.053  26.624  14.272
28734W        W  405   0.498  35.840   3.766
28735W        W  406   5.759  28.980  12.616
28736W        W  407  40.462  32.246  14.932
28737W        W  408  21.484  12.869  13.400
28738W        W  409  26.977   9.004  14.020
28739W        W  410  32.679   9.754   0.874
28740W        W  411  42.954  44.094  13.410
28741W        W  412   3.981  10.645  10.638
28742W        W  413  33.518  31.571   0.068
28743W        W  414  30.048  40.228  13.057
28744W        W  415  26.435   4.133  13.964
28745W        W  416  10.330  23.173   1.525
28746W        W  417  11.752  44.982   1.191
28747W        W  418  29.179  33.359  14.856
28748W        W  419  27.438  16.060  14.828
28749W        W  420  25.190  13.759  11.064
28750W        W  421  16.677   8.740   1.604
28751W        W  422  18.653  11.864   0.864
28752W        W  423  28.670  36.542   1.686
28753W        W  424  15.440  44.754   1.390
28754W        W  425  29.456  34.752   0.939
28755W        W  426  17.793   1.485  12.638
28756W        W  427  37.971  39.531   0.926
28757W        W  428  41.562  29.977   3.272
28758W        W  429  41.021  15.633   2.730
28759W        W  430  13.291  39.308   3.736
28760W        W  431  25.649   1.370   4.296
28761W        W  432  17.389  20.544  11.477
28762W        W  433  28.456  33.550  13.525
28763W        W  434  41.998  28.477  12.051
28764W        W  435  13.787  22.717   2.824
28765W        W  436  34.980  43.024  11.725
28766W        W  437   7.358  19.176   0.280
28767W        W  438  18.438  44.860   1.252
28768W        W  439  18.210  30.882  11.416
28769W        W  440  39.156  32.202   2.925
28770W        W  441  23.113  39.495   0.241
28771W        W  442   5.964  12.754  10.905
28772W        W  443  30.123  16.387   4.599
28773W        W  444  11.499   6.034  14.916
28774W        W  445  19.254  34.522   3.147
28775W        W  446   5.926  18.487  10.580
28776W        W  447  26.731   4.959   2.651
28777W        W  448  12.750   9.869   3.089
28778W        W  449  24.169  43.974   3.459
28779W        W  450  37.567  42.907   2.433
28780W        W  451  11.884   8.243  12.993
28781W        W  452  10.953   4.159  11.626
28782W        W  453  29.506  18.061  11.160
28783W        W  454  22.996   7.962  14.218
28784W        W  455   8.336  15.685  10.302
28785W        W  456  25.284  21.668  14.968
28786W        W  457  14.709   3.724   1.843
28787W        W  458   2.753  23.124  14.011
28788W        W  459  26.781  44.594   4.055
28789W        W  460  36.726  40.004  10.540
28790W        W  461   7.032  33.890  10.367
28791W        W  462  24.488   4.785   0.798
28792W        W  463  12.491  20.581   2.156
28793W        W  464  37.935   7.082  14.853
28794W        W  465   9.769  15.477  12.364
28795W        W  466  21.683   7.211  13.558
28796W        W  467  43.927  44.305  12.428
28797W        W  468  22.748  22.702   2.696
28798W        W  469  10.369  32.172   2.228
28799W        W  470  13.610  40.793  12.663
28800W        W  471  44.486   5.898   4.179
28801W        W  472   7.430  35.019   0.683
28802W        W  473  18.404  13.389  10.212
28803W        W  474  30.529  19.751   1.817
28804W        W  475  27.681  22.553   2.815
28805W        W  476   7.479  39.680   1.965
28806W        W  477   1.677  29.137   1.159
28807W        W  478  28.438   6.097   5.059
28808W        W  479   4.303  21.181  14.940
28809W        W  480  10.186   1.895  12.095
28810W        W  481  40.685  34.974   0.325
28811W        W  482  16.712   0.727   2.374
28812W        W  483   6.288   2.530   2.189
28813W        W  484   9.916  43.801  11.361
28814W        W  485  11.829  23.483   0.042
28815W        W  486   9.269   7.867   1.872
28816W        W  487  25.715  29.905  14.883
28817W        W  488  41.501  36.357  12.046
28818W        W  489  29.422  14.234  12.917
28819W        W  490  37.316  31.072  14.557
28820W        W  491  25.324  12.204  14.926
28821W        W  492  14.609  39.425  13.604
28822W        W  493  42.958  21.569   3.440
28823W        W  494  17.573  42.527  13.852
28824W        W  495   9.341   8.202  12.822
28825W        W  496  37.681   7.593   4.979
28826W        W  497  25.582  18.383   2.258
28827W        W  498   1.864  28.397  12.673
28828W        W  499  41.057  36.399  11.401
28829W        W  500  14.848  17.671  10.575
28830W        W  501  12.620   6.181   2.388
28831W        W  502  17.569  41.363   2.702
28832W        W  503   5.360  35.397   4.413
28833W        W  504  36.003  27.868  12.024
28834W        W  505   6.835   3.448  13.251
28835W        W  506  24.017   1.956   4.132
28836W        W  507  11.708  13.276  14.530
28837W        W  508  19.210  33.284  12.570
28838W        W  509  28.582  23.276  13.904
28839W        W  510   1.931  29.463  11.714
28840W        W  511   2.498  18.769   1.784
28841W        W  512  16.189  32.241  13.090
28842W        W  513  37.790   6.918   4.089
28843W        W  514  30.530  41.439  11.538
28844W        W  515  28.570   9.175   0.800
28845W        W  516  28.013  13.156  14.411
28846W        W  517  39.729  43.085  13.078
28847W        W  518  27.658  28.582   2.774
28848W        W  519  31.350  31.627   3.334
28849W        W  520   3.437   2.685   1.886
28850W        W  521  22.967   4.402  10.652
28851W        W  522   7.725  36.633  11.737
28852W        W  523  24.199  15.745   2.373
28853W        W  524  22.066  26.580  13.592
28854W        W  525  39.657  14.099   1.310
28855W        W  526  20.826  25.678  14.404
28856W        W  527  27.339  14.742   4.746
28857W        W  528   8.195  36.635   1.006
28858W        W  529  39.808  27.642   3.215
28859W        W  530  24.150  19.458  10.253
28860W        W  531  29.010  36.807  13.923
28861W        W  532  26.619   6.797  11.824
28862W        W  533   3.767  26.687   0.213
28863W        W  534  32.656  20.531   0.755
28864W        W  535  28.088   8.520   3.167
28865W        W  536  24.535  35.698   4.074
28866W        W  537   1.697  23.423  13.392
28867W        W  538  33.475  43.816  13.018
28868W        W  539   4.714  27.112  11.903
28869W        W  540   2.916   9.334   0.722
28870W        W  541  44.344  40.456  10.558
28871W        W  542  15.430  19.560   3.564
28872W        W  543   0.820   5.782   3.593
28873W        W  544  35.111   6.446   3.129
28874W        W  545  38.843   9.174  11.940
28875W        W  546  36.577  33.829  12.032
28876W        W  547   9.971  38.463   9.946
28877W        W  548  29.279   8.196   2.818
28878W        W  549  25.652  37.698   4.216
28879W        W  550  29.491  21.428   2.075
28880W        W  551  28.487  39.478   2.621
28881W        W  552  39.691  12.082  11.674
28882W        W  553  36.862  42.548  11.934
28883W        W  554  41.375   3.011  12.533
28884W        W  555  18.625   3.016   3.837
28885W        W  556  19.711  15.169  14.747
28886W        W  557  32.117  31.340   4.169
28887W        W  558  40.321  15.341   0.793
28888W        W  559  44.723  22.546  14.903
28889W        W  560   9.996  29.386   2.656
28890W        W  561  28.151  27.665  13.181
28891W        W  562  22.460  23.743  12.782
28892W        W  563  18.983  37.443  14.319
28893W        W  564  23.223  29.869  13.065
28894W        W  565  25.763  26.524   1.734
28895W        W  566  26.108  11.250   3.448
28896W        W  567  34.244   5.792  10.385
28897W        W  568  44.328  39.807   2.236
28898W        W  569  41.039  32.472   2.764
28899W        W  570   0.091  17.624  10.976
28900W        W  571  20.517   0.008  12.251
28901W        W  572  11.156  36.312   4.180
28902W        W  573  22.218  16.038  12.866
28903W        W  574  12.344  28.614   2.534
28904W        W  575  14.743  44.245   0.312
28905W        W  576  17.335   9.236   1.181
28906W        W  577  17.099  16.270   2.421
28907W        W  578  19.599  21.080  11.895
28908W        W  579  25.822  33.779   1.750
28909W        W  580  16.099   9.384  13.315
28910W        W  581   5.062  38.733   2.431
28911W        W  582  23.567  37.373  10.251
28912W        W  583   4.956  17.275  12.773
28913W        W  584  23.959  21.112   0.940
28914W        W  585   6.340  33.730  10.473
28915W        W  586   6.866  40.288   1.484
28916W        W  587  42.075  25.619   2.780
28917W        W  588  41.291  34.365   3.346
28918W        W  589  10.275  16.996   0.949
28919W        W  590  14.434  38.153  10.162
28920W        W  591  14.106   1.638   1.929
28921W        W  592   3.342  22.561   2.886
28922W        W  593  18.138   1.877  11.939
28923W        W  594  18.697  12.142   2.748
28924W        W  595  17.767  38.973   0.212
28925W        W  596  42.009  14.188  12.492
28926W        W  597  15.491   6.608  10.669
28927W        W  598  11.236   0.708   1.372
28928W        W  599  27.292  37.229  11.905
28929W        W  600  31.072  20.268  12.016
28930W        W  601  14.641   2.281   3.925
28931W        W  602  30.013   9.339   4.173
28932W        W  603  37.813  20.298   0.914
28933W        W  604  16.585  30.105   3.590
28934W        W  605  38.976  19.041   3.238
28935W        W  606  18.202  19.865  13.871
28936W        W  607   4.668  33.122  10.096
28937W        W  608  12.284  15.627  10.962
28938W        W  609   8.840  19.565  14.883
28939W        W  610  33.406  38.956  14.299
28940W        W  611  11.436   0.514  14.480
28941W        W  612  19.750  31.455   4.429
28942W        W  613   1.406  34.304  11.360
28943W        W  614  27.692   6.318   5.652
28944W        W  615  23.545  27.113  12.915
28945W        W  616  15.088  18.823   0.360
28946W        W  617  40.607  13.215  12.060
28947W        W  618  30.534  41.196  11.996
28948W        W  619  43.496  25.639  12.948
28949W        W  620   0.918   3.226  12.393
28950W        W  621  14.226  13.805   3.724
28951W        W  622  42.845  29.635   2.799
28952W        W  623   1.481  23.627  13.866
28953W        W  624  30.978  19.108  13.305
28954W        W  625  18.199  38.841  13.924
28955W        W  626   8.783  21.165   4.923
28956W        W  627  24.567   5.312   0.491
28957W        W  628  23.600  30.316  13.642
28958W        W  629  22.194  12.366   3.190
28959W        W  630  22.742  31.120   1.901
28960W        W  631  42.015   5.654   0.380
28961W        W  632  18.933   2.666   1.526
28962W        W  633  39.576  34.098  12.673
28963W        W  634   8.433  19.562   0.802
28964W        W  635   0.115  18.157   0.433
28965W        W  636  44.098  41.718  14.863
28966W        W  637  31.256  12.101   2.322
28967W        W  638  26.092   9.736  12.398
28968W        W  639  15.496  18.383   1.667
28969W        W  640  42.700  15.589  13.411
28970W        W  641  14.155   8.985  11.126
28971W        W  642  32.237  17.261   9.886
28972W        W  643  20.962  44.250   1.904
28973W        W  644  10.623  19.493  12.131
28974W        W  645  32.214  39.881  14.553
28975W        W  646  25.576  14.109   2.834
28976W        W  647  22.965  25.445   0.841
28977W        W  648  44.235  21.028  12.382
28978W        W  649   3.319  43.011  14.285
28979W        W  650  13.024   4.548  13.506
28980W        W  651  33.119  22.298   4.676
28981W        W  652  15.501  35.028  13.813
28982W        W  653   5.958  14.150  13.355
28983W        W  654  25.685  39.782  12.582
28984W        W  655   5.327  44.905  12.686
28985W        W  656   4.386  12.322  13.472
28986W        W  657  26.086  12.598  12.002
28987W        W  658  32.057  36.819  13.010
28988W        W  659  17.246   3.496  12.853
28989W        W  660   3.845  22.974  13.962
28990W        W  661  16.571  18.928  14.985
28991W        W  662  31.522  26.525   0.902
28992W        W  663  33.339  40.044   4.631
28993W        W  664   9.433  17.064  11.567
28994W        W  665  10.440  12.378   0.318
28995W        W  666   8.424  39.064  14.003
28996W        W  667  36.949  16.633  10.462
28997W        W  668   3.053   7.825   3.720
28998W        W  669  27.478  27.898   3.754
28999W        W  670  12.848  12.631   4.897
29000W        W  671  22.141  41.479   9.788
29001W        W  672  20.277  33.521   2.343
29002W        W  673  37.387   3.158   0.674
29003W        W  674   7.223   4.934  12.121
29004W        W  675  32.988  40.907  14.566
29005W        W  676  26.671  42.031   2.457
29006W        W  677  34.370  37.578  10.988
29007W        W  678  17.076  10.313  13.128
29008W        W  679  29.703  30.508  12.946
29009W        W  680   1.110  12.252   3.635
29010W        W  681  16.693  39.925   4.159
29011W        W  682   3.940   0.260   2.315
29012W        W  683   9.453  18.137   4.361
29013W        W  684  17.578  24.052   1.753
29014W        W  685  37.937   3.842  13.508
29015W        W  686  11.666   3.088  12.170
29016W        W  687  40.873  32.740   1.857
29017W        W  688  26.720  41.003   3.262
29018W        W  689  37.043  19.219   3.609
29019W        W  690  34.109  24.512   0.270
29020W        W  691   4.566  35.955  10.376
29021W        W  692   2.827   7.877  13.162
29022W        W  693  10.210  20.140  13.971
29023W        W  694   2.253  30.129   2.762
29024W        W  695  42.460  15.568  11.939
29025W        W  696   0.297   6.125  10.938
29026W        W  697   0.660   7.907  11.514
29027W        W  698  32.767   2.101  13.071
29028W        W  699  25.588  41.822   2.119
29029W        W  700   0.792   0.277   0.652
29030W        W  701  39.340  20.486  14.974
29031W        W  702  22.663  42.428  10.726
29032W        W  703   5.962  44.915  14.068
29033W        W  704  18.889  19.211   3.743
29034W        W  705  35.208  28.961  11.471
29035W        W  706   8.149   2.717   1.676
29036W        W  707  44.337  40.964   5.206
29037W        W  708   4.461   5.727  12.951
29038W        W  709  32.194  11.686  14.991
29039W        W  710  39.767  26.251   4.247
29040W        W  711   9.093  16.373   1.227
29041W        W  712   7.743   4.260  11.549
29042W        W  713  11.630  39.702   0.372
29043W        W  714   1.721   8.812   0.982
29044W        W  715  22.749  18.793  13.437
29045W        W  716  36.447  44.814   0.985
29046W        W  717  35.632  43.038  12.907
29047W        W  718   2.530  25.682   2.735
29048W        W  719  25.512   5.627  14.976
29049W        W  720  12.379  18.715  14.923
29050W        W  721  12.072  34.644   3.763
29051W        W  722  32.163  13.099   2.755
29052W        W  723  39.222  26.325   1.861
29053W        W  724  36.886  30.412  14.924
29054W        W  725   8.006  39.039  14.925
29055W        W  726  32.447  31.430   0.381
29056W        W  727   0.786  37.115   2.342
29057W        W  728  11.741   6.672  12.176
29058W        W  729   7.739  43.360  13.450
29059W        W  730   4.867  29.450  12.566
29060W        W  731  27.704  44.564  13.995
29061W        W  732   2.839  34.563   3.622
29062W        W  733  21.995  21.077  13.993
29063W        W  734  18.524  21.608  12.803
29064W        W  735  12.377  33.715  12.396
29065W        W  736   0.917  14.748   1.449
29066W        W  737  20.271  31.491   2.253
29067W        W  738  13.906   2.452  10.724
29068W        W  739   0.306  18.272  13.920
29069W        W  740  28.077  24.402  13.215
29070W        W  741  30.019  32.919  14.862
29071W        W  742  31.432   5.414   2.706
29072W        W  743  14.399  44.892   3.782
29073W        W  744  42.858  38.903  13.979
29074W        W  745  40.423  24.146   0.178
29075W        W  746   0.853  12.217   0.525
29076W        W  747  38.777  40.185   4.914
29077W        W  748  26.581  37.263   9.916
29078W        W  749  33.502   0.274   2.285
29079W        W  750  27.507   4.635   1.347
29080W        W  751  39.017  29.396   4.524
29081W        W  752  24.458   5.588   0.064
29082W        W  753  21.486  35.218   1.793
29083W        W  754  10.137  19.930   3.042
29084W        W  755  19.668  35.932  13.014
29085W        W  756   0.455  14.208  13.384
29086W        W  757  14.078  17.015  14.848
29087W        W  758  19.672   0.399   1.889
29088W        W  759  23.645  31.205  12.247
29089W        W  760  40.416  27.378   2.425
29090W        W  761   6.131  42.197  14.926
29091W        W  762  31.346  26.397   3.293
29092W        W  763  17.807  33.435   0.799
29093W        W  764   2.536  13.286  11.774
29094W        W  765  39.308  12.497   0.133
29095W        W  766  10.646  36.946  14.887
29096W        W  767  33.212  16.506   3.824
29097W        W  768  31.369  37.861  11.012
29098W        W  769   4.415  25.574   1.306
29099W        W  770  25.522  42.864   5.194
29100W        W  771  12.865  16.293   2.407
29101W        W  772  11.273  22.472  13.302
29102W        W  773  43.704   6.324  11.640
29103W        W  774  36.543   1.314   4.165
29104W        W  775   6.257  35.132  12.569
29105W        W  776  36.633  17.647  14.697
29106W        W  777  14.126   4.318  11.557
29107W        W  778  28.200  14.791  12.546
29108W        W  779   4.442  20.580  14.457
29109W        W  780  40.019  26.005   4.652
29110W        W  781  36.142  24.479   0.441
29111W        W  782  40.108   1.768  12.045
29112W        W  783  17.202   0.917  12.814
29113W        W  784   6.959  25.076   3.227
29114W        W  785  21.729  40.837   0.317
29115W        W  786  28.745  42.959  10.676
29116W        W  787  36.576   9.352   3.431
29117W        W  788  44.201   1.681   2.240
29118W        W  789   9.280  11.394   3.709
29119W        W  790  30.599  41.183   0.204
29120W        W  791  33.132  17.147  12.451
29121W        W  792  41.557   3.229   4.407
29122W        W  793  33.467  32.972   4.263
29123W        W  794  20.655  28.147  12.095
29124W        W  795  43.022  11.618  11.917
29125W        W  796   6.251   3.328   4.978
29126W        W  797  10.376  19.681   2.660
29127W        W  798   2.262  19.731   2.117
29128W        W  799  34.495  13.113  12.904
29129W        W  800   6.447  17.948  13.167
29130W        W  801  42.883  43.394   2.166
29131W        W  802  32.448   9.166   3.255
29132W        W  803  25.085  43.080  13.342
29133W        W  804   4.338  16.757   0.505
29134W        W  805  36.153  34.104  12.989
29135W        W  806  23.585  36.857  12.122
29136W        W  807   6.858   9.657   3.130
29137W        W  808   6.668   9.664   1.654
29138W        W  809  14.835  13.068  13.563
29139W        W  810   7.916  39.045  13.901
29140W        W  811  44.872  30.714  14.305
29141W        W  812  27.133   8.814  10.144
29142W        W  813  20.767   9.671  13.967
29143W        W  814   0.510   0.975  10.565
29144W        W  815  23.411  10.319  10.925
29145W        W  816  36.494  27.058   0.071
29146W        W  817  12.677  32.503  12.423
29147W        W  818  26.952  12.655  11.461
29148W        W  819   2.993  10.394   0.121
29149W        W  820   6.260  26.393  11.938
29150W        W  821   5.913  16.180   0.259
29151W        W  822   9.824  12.943  13.707
29152W        W  823  23.787  44.410   4.435
29153W        W  824  14.087  39.013   1.723
29154W        W  825  37.436   3.808  13.322
29155W        W  826   3.201  22.039  11.976
29156W        W  827   9.881  37.373  10.789
29157W        W  828  22.713  37.985  14.370
29158W        W  829  23.677  10.891   1.957
29159W        W  830  34.988   9.726   4.408
29160W        W  831  26.524   5.465   3.624
29161W        W  832   2.020   6.445   1.745
29162W        W  833  31.463  32.094   1.177
29163W        W  834  20.206  25.985  13.871
29164W        W  835  36.631  22.817  14.119
29165W        W  836  29.049  24.987  14.929
29166W        W  837  27.245   3.028   0.356
29167W        W  838  11.375  29.519  12.863
29168W        W  839  14.227  42.229  13.553
29169W        W  840  40.546  19.334  11.988
29170W        W  841  12.865  24.155   0.240
29171W        W  842  39.552  42.102   3.745
29172W        W  843  37.520  31.467   4.383
29173W        W  844  30.619  18.068   3.760
29174W        W  845  24.418  36.456   1.219
29175W        W  846  44.523  23.235  14.296
29176W        W  847  38.370  32.234   3.225
29177W        W  848   9.034   3.982   4.125
29178W        W  849  18.565   4.761  10.722
29179W        W  850  17.683  26.635   2.265
29180W        W  851  21.664   9.494  14.775
29181W        W  852  31.238  37.146  13.097
29182W        W  853  34.625  41.530  14.672
29183W        W  854  34.045  32.393  12.862
29184W        W  855  27.770   7.367  13.005
29185W        W  856  40.793  39.330  12.335
29186W        W  857  28.519  38.945  11.920
29187W        W  858  28.594  28.343   3.852
29188W        W  859  42.035  12.538  10.858
29189W        W  860  32.205   6.297  14.013
29190W        W  861   9.638  44.897  11.987
29191W        W  862  14.825  38.433   3.891
29192W        W  863  21.757  14.103  14.043
29193W        W  864  44.724  13.691  10.165
29194W        W  865   8.896  37.777  11.611
29195W        W  866  11.452  32.443   3.006
29196W        W  867  34.806  26.823   2.649
29197W        W  868  25.496  28.233   4.138
29198W        W  869  16.559  27.319   0.338
29199W        W  870  34.137   7.840  13.084
29200W        W  871  25.552  44.281  11.146
29201W        W  872  12.351  42.789   1.032
29202W        W  873  19.121  39.119   3.217
29203W        W  874  35.845  23.352  14.550
29204W        W  875  14.905  23.726  11.178
29205W        W  876  26.163  29.587   1.331
29206W        W  877  37.407  25.227   2.164
29207W        W  878  27.521  39.580   1.070
29208W        W  879   3.774  14.535   0.268
29209W        W  880  20.695  15.868   0.472
29210W        W  881  28.023  37.377   0.817
29211W        W  882   8.821  33.802  14.507
29212W        W  883  38.638   1.971  13.511
29213W        W  884  11.443  19.345  12.537
29214W        W  885  30.659  25.647   0.567
29215W        W  886  42.128   4.219  10.727
29216W        W  887  43.312  43.341  10.916
29217W        W  888  30.271  36.605  14.331
29218W        W  889  26.281  36.470  11.063
29219W        W  890  36.636  28.535   1.030
29220W        W  891  10.540  17.119  10.727
29221W        W  892  23.256  31.566   1.247
29222W        W  893  32.202  33.892  10.590
29223W        W  894  38.107  26.744   2.129
29224W        W  895  17.833   9.071   2.859
29225W        W  896  29.608   7.350   0.908
29226W        W  897  35.016  43.876  14.829
29227W        W  898  14.638  16.576   4.528
29228W        W  899   4.540   5.913   9.936
29229W        W  900  24.044  35.615   1.631
29230W        W  901  27.909  35.093   4.351
29231W        W  902  17.796  18.251  10.940
29232W        W  903   1.466  39.019  14.403
29233W        W  904   3.808  14.612  11.415
29234W        W  905  20.076  16.305   1.747
29235W        W  906  29.463  44.350  10.318
29236W        W  907  39.973  20.823  13.019
29237W        W  908  30.606  27.513  11.548
29238W        W  909  17.846  26.722   1.773
29239W        W  910  19.609  22.295   3.176
29240W        W  911  30.451  30.955   0.973
29241W        W  912  37.223  33.091   1.498
29242W        W  913  11.324   1.233  11.364
29243W        W  914   9.188  12.706   1.228
29244W        W  915  35.493  10.650  11.321
29245W        W  916  26.245  32.856  11.313
29246W        W  917  11.405  41.518  13.388
29247W        W  918  26.718  30.000  12.397
29248W        W  919  14.615   3.383  12.399
29249W        W  920  40.352  26.398   3.744
29250W        W  921  13.161  20.399  14.021
29251W        W  922   1.941  33.922  14.435
29252W        W  923  34.230   3.762   1.129
29253W        W  924  15.232  41.928   4.760
29254W        W  925  36.664  12.468  14.424
29255W        W  926   2.182  22.539   5.358
29256W        W  927   0.146  23.248   0.481
29257W        W  928  14.040  12.569   1.346
29258W        W  929   6.521  32.947   2.028
29259W        W  930  36.443  20.531  14.598
29260W        W  931  37.950  17.797  14.600
29261W        W  932   9.530  29.443  13.567
29262W        W  933  39.859  33.659   4.013
29263W        W  934   6.360  20.988   1.350
29264W        W  935  22.017  24.482  11.922
29265W        W  936   5.974  23.151  14.790
29266W        W  937  32.663  17.251  12.894
29267W        W  938  13.564   2.088  13.826
29268W        W  939  19.605  11.818  10.015
29269W        W  940  15.109   2.784  12.264
29270W        W  941  21.769  19.347   1.791
29271W        W  942  35.565  40.455   3.345
29272W        W  943  30.309  32.938   0.989
29273W        W  944  27.621  26.666   4.685
29274W        W  945   7.299  34.551   2.990
29275W        W  946  21.772  28.639   3.763
29276W        W  947  11.645  30.105  11.635
29277W        W  948  42.798  20.441   0.289
29278W        W  949  14.131  12.408   3.588
29279W        W  950  38.914  44.157  13.669
29280W        W  951   2.044  42.286   3.167
29281W        W  952  43.028  15.233  11.708
29282W        W  953  40.120  36.219  11.677
29283W        W  954  15.152   0.214   3.269
29284W        W  955  43.739  12.669  13.950
29285W        W  956   0.685   8.626  13.413
29286W        W  957  14.864  41.006   4.529
29287W        W  958  24.829  25.655  14.725
29288W        W  959  42.545  31.568   2.702
29289W        W  960  21.180  44.508  14.920
29290W        W  961  14.689  21.167   4.316
29291W        W  962  19.009   9.305  11.229
29292W        W  963  43.420  27.118   2.850
29293W        W  964  22.104  11.164   0.221
29294W        W  965  24.015  34.820  12.488
29295W        W  966  16.140  15.093   4.113
29296W        W  967  41.441  37.100  12.483
29297W        W  968  23.439  10.792   3.256
29298W        W  969   2.911  42.425   2.246
29299W        W  970  29.441  31.331  11.621
29300W        W  971  20.288   4.644   3.966
29301W        W  972   3.149  35.974   1.470
29302W        W  973  41.600   0.864  11.194
29303W        W  974  37.893  26.022  11.567
29304W        W  975   7.377   4.835   3.751
29305W        W  976  36.281  11.349  11.945
29306W        W  977  25.665  40.454   1.876
29307W        W  978  40.876  19.190  11.627
29308W        W  979  44.504   4.283   2.878
29309W        W  980  20.188   5.361   0.178
29310W        W  981  25.546  42.963  14.879
29311W        W  982  39.021   4.341  12.857
29312W        W  983  32.898  28.926   1.924
29313W        W  984  43.031  25.191  14.013
29314W        W  985  31.531  31.998   4.636
29315W        W  986   0.732  17.270  11.901
29316W        W  987  40.958   7.396  12.466
29317W        W  988   3.158  13.176   1.665
29318W        W  989  11.246  29.069  11.962
29319W        W  990  11.262   4.465   1.937
29320W        W  991  39.775  10.776  13.882
29321W        W  992  25.564  42.826  13.383
29322W        W  993  33.026  40.454   2.428
29323W        W  994  28.986  31.883  11.996
29324W        W  995  15.768  33.111   1.644
29325W        W  996  40.869   0.258   3.330
29326W        W  997  44.466   1.011  11.994
29327W        W  998  17.020   0.165   3.236
29328W        W  999   6.928  39.952  11.229
29329W        W 1000  12.925  13.162   0.326
29330W        W 1001  17.154  13.269   0.338
29331W        W 1002  42.035  27.303   3.183
29332W        W 1003  29.574  16.037  11.585
29333W        W 1004  30.549  18.803  13.310
29334W        W 1005   3.263   6.106  13.462
29335W        W 1006   9.312   5.351   4.536
29336W        W 1007  30.156  15.883  12.086
29337W        W 1008  32.557  24.974  10.748
29338W        W 1009  25.181  20.830  13.991
29339W        W 1010  38.646  20.681   2.247
29340W        W 1011   2.796  21.613   1.666
29341W        W 1012  38.635  18.202   4.113
29342W        W 1013  26.111  43.969  14.278
29343W        W 1014  20.275   3.003   1.505
29344W        W 1015  20.352  31.909   1.939
29345W        W 1016   0.273  32.402  14.057
29346W        W 1017  19.908  37.577  14.388
29347W        W 1018  18.591  32.513  12.353
29348W        W 1019  18.602  43.433  10.722
29349W        W 1020  15.837  19.230  14.361
29350W        W 1021   9.111  27.126   1.691
29351W        W 1022  38.097  15.661  11.604
29352W        W 1023   4.269  35.869  12.673
29353W        W 1024  12.109  39.158  12.041
29354W        W 1025  24.696  24.601   3.732
29355W        W 1026   1.666  41.060   3.647
29356W        W 1027  35.973  24.253   1.855
29357W        W 1028  17.628  28.676  10.404
29358W        W 1029  32.831  21.643   0.380
29359W        W 1030  10.317  10.450   3.240
29360W        W 1031  44.518   2.283  12.437
29361W        W 1032  36.382  42.958   3.684
29362W        W 1033  11.780  24.603   4.311
29363W        W 1034  37.647  10.812  11.103
29364W        W 1035  19.705   2.484   4.623
29365W        W 1036  12.996  33.303  11.881
29366W        W 1037  21.491  19.060   4.659
29367W        W 1038  30.917  23.681  14.662
29368W        W 1039  10.300  16.230   4.560
29369W        W 1040  23.298  17.700   0.030
29370W        W 1041  40.991  20.742  12.291
29371W        W 1042  13.377  24.559  12.046
29372W        W 1043  38.942   0.550  11.523
29373W        W 1044  15.147   3.455   1.819
29374W        W 1045   9.775  39.390  14.565
29375W        W 1046   9.362  31.552  11.920
29376W        W 1047  42.490   7.226  11.353
29377W        W 1048  34.474  20.748   3.537
29378W        W 1049  41.499  28.533   3.742
29379W        W 1050  33.189  10.262  13.741
29380W        W 1051  20.096  11.589   1.472
29381W        W 1052   6.381  18.301  11.483
29382W        W 1053   6.685   1.692   4.151
29383W        W 1054  40.417   0.886   1.720
29384W        W 1055  40.312  11.843   4.631
29385W        W 1056   7.750  27.225  10.667
29386W        W 1057   2.698  14.787  11.400
29387W        W 1058  40.938  38.897  13.555
29388W        W 1059  41.967  17.386  11.577
29389W        W 1060  15.567   2.763   0.312
29390W        W 1061  26.497  11.361   2.086
29391W        W 1062  40.664  36.097   2.907
29392W        W 1063   1.938  30.897  11.180
29393W        W 1064   7.236  40.259  13.622
29394W        W 1065  26.583   3.288  13.494
29395W        W 1066   1.166  23.109  10.322
29396W        W 1067  43.768   7.094   3.161
29397W        W 1068  13.260  29.948  10.539
29398W        W 1069   8.763  22.939  13.945
29399W        W 1070  44.095   9.769  11.395
29400W        W 1071  13.747  32.416  11.668
29401W        W 1072  42.334  43.153  11.554
29402W        W 1073  39.454   3.738   1.555
29403W        W 1074  44.024  11.523  12.935
29404W        W 1075   5.821  42.396  11.735
29405W        W 1076  28.767  23.511   3.167
29406W        W 1077  12.851  21.397   3.697
29407W        W 1078  27.218   8.367   4.547
29408W        W 1079  17.406   0.957  10.892
29409W        W 1080  35.363  38.694   1.425
29410W        W 1081  43.034  11.595  12.806
29411W        W 1082  36.456   9.187  11.655
29412W        W 1083  25.138  22.741   1.791
29413W        W 1084  28.973  16.223   0.239
29414W        W 1085  29.169  19.458  11.031
29415W        W 1086  17.223   9.443   1.664
29416W        W 1087  26.075  24.018  13.495
29417W        W 1088  33.379   5.630  10.953
29418W        W 1089  25.456  22.537   2.148
29419W        W 1090  30.784  23.013   4.976
29420W        W 1091  38.366  20.461   1.798
29421W        W 1092   6.834   5.441   2.130
29422W        W 1093   5.164  26.135   0.321
29423W        W 1094  27.763  14.671   4.458
29424W        W 1095   3.410  33.996  11.443
29425W        W 1096   4.365  24.663   3.222
29426W        W 1097  41.700  34.865  12.534
29427W        W 1098  13.328   1.864  11.410
29428W        W 1099   6.636  19.076   4.052
29429W        W 1100  18.293   7.387   3.206
29430W        W 1101  17.317  15.565  11.495
29431W        W 1102  38.955  27.709   2.322
29432W        W 1103  39.241   7.187  12.943
29433W        W 1104  30.585  41.125   5.096
29434W        W 1105  33.143   4.760  13.468
29435W        W 1106  10.450   0.721  12.658
29436W        W 1107  13.068   9.188  13.154
29437W        W 1108  24.728  18.251  11.039
29438W        W 1109   4.951  23.065   1.995
29439W        W 1110   8.379  36.808   2.718
29440W        W 1111  16.634  40.469   4.229
29441W        W 1112  23.787  35.347   4.914
29442W        W 1113  25.097  17.612   2.147
29443W        W 1114   4.392   4.798   3.961
29444W        W 1115  14.014  32.979  11.203
29445W        W 1116  32.616   6.928   2.717
29446W        W 1117   5.388  31.572   2.948
29447W        W 1118   0.478  29.996   2.920
29448W        W 1119  20.358  34.425   1.954
29449W        W 1120  10.344  38.770   2.919
29450W        W 1121  33.093  18.149  14.702
29451W        W 1122  23.704  26.502   2.585
29452W        W 1123   5.693  42.333   4.903
29453W        W 1124  20.056  42.792  11.804
29454W        W 1125  16.252  36.029   0.773
29455W        W 1126  32.907  34.876   0.787
29456W        W 1127  26.491  39.501  13.481
29457W        W 1128  28.891  12.120   0.228
29458W        W 1129  18.719  44.475   4.994
29459W        W 1130  22.566   4.009  11.449
29460W        W 1131  20.552  27.367  13.971
29461W        W 1132  21.819  43.342   0.329
29462W        W 1133  40.903  14.835   3.161
29463W        W 1134  15.068   4.251  12.461
29464W        W 1135  15.846  14.876  12.125
29465W        W 1136  43.301  39.143  11.793
29466W        W 1137  12.053  37.314  13.197
29467W        W 1138  11.078  15.653   1.519
29468W        W 1139  30.623  11.763   0.871
29469W        W 1140  36.083   3.755  10.827
29470W        W 1141  17.754  35.550   0.004
29471W        W 1142  30.459  44.256  13.995
29472W        W 1143  39.055  21.996   2.759
29473W        W 1144  36.584  42.478   3.830
29474W        W 1145  29.483  21.863   0.008
29475W        W 1146  44.460  14.101   1.241
29476W        W 1147   6.147   3.541   2.545
29477W        W 1148   8.925  44.822   3.704
29478W        W 1149   3.325   8.373  12.858
29479W        W 1150  42.115  10.692  12.539
29480W        W 1151  12.876   8.186   2.825
29481W        W 1152  32.402  23.901  13.430
29482W        W 1153  30.013  39.348  12.613
29483W        W 1154  20.006  40.980   3.686
29484W        W 1155   7.803   3.476  10.571
29485W        W 1156   6.243  37.379  14.960
29486W        W 1157   6.373  27.058   3.651
29487W        W 1158  29.192   4.315   2.246
29488W        W 1159  23.532   3.217   1.180
29489W        W 1160  26.603  11.128  13.604
29490W        W 1161  36.969  33.676  14.036
29491W        W 1162  41.473   2.379  13.963
29492W        W 1163  28.202  16.165  13.393
29493W        W 1164   9.728  15.205   0.472
29494W        W 1165  35.436  18.294   0.369
29495W        W 1166  28.001   7.330   4.633
29496W        W 1167  36.165  41.468   4.310
29497W        W 1168  41.523   7.917  10.739
29498W        W 1169  21.545  35.515   0.416
29499W        W 1170   1.274  13.033   0.632
29500W        W 1171  21.969  11.833  14.545
29501W        W 1172  35.032  15.320   1.655
29502W        W 1173  33.408  32.622  13.988
29503W        W 1174  27.433  30.500   4.696
29504W        W 1175   7.678  40.307  10.588
29505W        W 1176   3.464  37.921   4.222
29506W        W 1177  17.281  43.953   1.467
29507W        W 1178  33.529  35.935  10.388
29508W        W 1179  10.843  14.836  14.265
29509W        W 1180  37.060  15.195  13.003
29510W        W 1181   4.974  25.106   4.814
29511W        W 1182  25.354  31.876   4.642
29512W        W 1183  33.683  28.514   1.069
29513W        W 1184  43.321  26.501  14.958
29514W        W 1185  33.335  19.156   5.053
29515W        W 1186  41.666  27.964  10.365
29516W        W 1187  40.411  30.362   1.000
29517W        W 1188   6.797  23.904  13.385
29518W        W 1189  20.215  16.089   0.317
29519W        W 1190  41.414  39.732   0.328
29520W        W 1191  34.510  35.768   0.604
29521W        W 1192  36.612  23.449   4.124
29522W        W 1193  17.028  40.674   2.375
29523W        W 1194  37.545  11.360  14.848
29524W        W 1195  19.236  26.307  10.938
29525W        W 1196  11.812  32.589  11.621
29526W        W 1197  23.797  27.632   4.523
29527W        W 1198   2.327  40.451   3.717
29528W        W 1199  35.917  34.955  13.808
29529W        W 1200  28.896   6.933  12.643
29530W        W 1201  26.595  15.962   3.701
29531W        W 1202  15.692  29.293  11.300
29532W        W 1203  37.437  11.553  10.644
29533W        W 1204  42.429  27.687   0.333
29534W        W 1205  33.424  20.554   4.489
29535W        W 1206   0.303  14.372   1.789
29536W        W 1207  15.562  24.500   1.375
29537W        W 1208  41.158  39.323  11.973
29538W        W 1209  12.408  32.887   4.214
29539W        W 1210  19.090  37.580  12.863
29540W        W 1211  26.088  31.493   0.250
29541W        W 1212   6.443  36.201  13.411
29542W        W 1213  41.433  19.325  10.775
29543W        W 1214  13.039  38.080  11.599
29544W        W 1215  10.415  39.222   4.704
29545W        W 1216   1.331  32.035   0.426
29546W        W 1217  14.957  36.802  11.039
29547W        W 1218  30.086  20.590  13.460
29548W        W 1219  11.868   6.649  14.790
29549W        W 1220   8.363  23.887   3.144
29550W        W 1221  36.547  29.394  14.429
29551W        W 1222   8.106  32.591  12.745
29552W        W 1223  27.428  25.246   1.218
29553W        W 1224   4.772  22.289  13.300
29554W        W 1225  35.634  23.461  13.393
29555W        W 1226  12.097  19.651  12.101
29556W        W 1227  34.890  11.320  10.843
29557W        W 1228  37.545  22.731   0.922
29558W        W 1229   4.868   5.694  11.228
29559W        W 1230  39.546  33.663  12.978
29560W        W 1231  13.825  19.177   4.702
29561W        W 1232  38.597  42.106  14.341
29562W        W 1233  22.907  33.990   2.774
29563W        W 1234  35.705   3.255  12.903
29564W        W 1235  17.588  34.680  11.929
29565W        W 1236  35.115  26.434  11.098
29566W        W 1237   8.630  31.680   4.091
29567W        W 1238   3.945  43.862   2.613
29568W        W 1239  41.048  34.960  11.266
29569W        W 1240  22.571  42.203   0.179
29570W        W 1241  28.745  20.701   2.465
29571W        W 1242   3.176  34.741   4.395
29572W        W 1243  28.519  36.052   3.798
29573W        W 1244   3.855  19.737   2.298
29574W        W 1245  11.720  24.497   2.253
29575W        W 1246  41.034  29.480  14.460
29576W        W 1247  32.625  26.773  10.597
29577W        W 1248   8.250  11.337  11.574
29578W        W 1249  28.389  40.101   0.761
29579W        W 1250  32.662   9.507   4.559
29580W        W 1251  29.916  22.317   1.235
29581W        W 1252  41.310  28.094   4.516
29582W        W 1253  21.715  17.647   2.409
29583W        W 1254  41.950  26.116   0.946
29584W        W 1255  40.457  32.917   2.203
29585W        W 1256  36.024  24.653   1.497
29586W        W 1257  13.566  38.821   0.497
29587W        W 1258  29.663  14.576  12.589
29588W        W 1259  27.925  23.517  14.822
29589W        W 1260  41.361  22.270  13.955
29590W        W 1261   1.004   6.419  14.376
29591W        W 1262   4.388  35.455   0.530
29592W        W 1263  26.792   0.979  12.127
29593W        W 1264   8.540  27.118  11.157
29594W        W 1265  29.498  12.188   3.085
29595W        W 1266  24.221  17.690   2.328
29596W        W 1267  14.643  22.633  12.913
29597W        W 1268  18.713   8.236  12.354
29598W        W 1269  11.853   3.242  10.041
29599W        W 1270  18.740   1.599  12.115
29600W        W 1271  34.560  35.138  14.057
29601W        W 1272  30.920  19.901  14.698
29602W        W 1273  41.081  33.353  14.301
29603W        W 1274  35.592  37.501  13.163
29604W        W 1275  22.971  41.718  10.313
29605W        W 1276  40.008  42.532   3.298
29606W        W 1277  13.280   2.273  10.649
29607W        W 1278  37.081  17.309  11.966
29608W        W 1279  13.411  41.417   5.120
29609W        W 1280  10.652  34.007   4.238
29610W        W 1281  24.469  25.027   0.981
29611W        W 1282   5.150  34.564   3.679
29612W        W 1283  21.248  13.740  14.513
29613W        W 1284  40.087  39.106  14.439
29614W        W 1285  31.864  38.542   3.084
29615W        W 1286   4.683  21.756  14.254
29616W        W 1287  24.671  31.429  13.590
29617W        W 1288   0.329  29.137   4.662
29618W        W 1289  22.110  37.354   3.543
29619W        W 1290  28.918   6.260  11.950
29620W        W 1291  11.019  23.593  11.084
29621W        W 1292  27.147  14.253  13.546
29622W        W 1293  22.969  25.521   3.671
29623W        W 1294  42.791  16.859  10.649
29624W        W 1295  27.143  20.206  10.925
29625W        W 1296  18.069  23.651   4.968
29626W        W 1297  20.106  24.047  12.522
29627W        W 1298  22.091  41.047   1.719
29628W        W 1299  41.733   8.837  13.774
29629W        W 1300  17.526  28.594   2.576
29630W        W 1301  19.835  33.647  12.144
29631W        W 1302  11.209   3.703   3.260
29632W        W 1303  30.200   6.214   4.928
29633W        W 1304  33.128  29.758  14.851
29634W        W 1305  31.694   0.696  13.474
29635W        W 1306  39.378  22.998  14.332
29636W        W 1307  23.440  44.335   1.432
29637W        W 1308   2.688  38.038  14.346
29638W        W 1309  44.843  14.076  14.892
29639W        W 1310  15.595  23.926  13.940
29640W        W 1311  13.795  33.890  14.382
29641W        W 1312   1.416  14.807   4.697
29642W        W 1313  11.719   4.875  11.986
29643W        W 1314  36.457  12.011  14.275
29644W        W 1315  33.148  34.379  10.849
29645W        W 1316  22.205  26.084  12.457
29646W        W 1317  17.533  31.634  13.405
29647W        W 1318  15.255  23.210  12.416
29648W        W 1319  17.821  24.917   1.320
29649W        W 1320  38.912  23.115  11.107
29650W        W 1321  14.583   3.241   2.762
29651W        W 1322  16.173  17.369   3.298
29652W        W 1323  28.478   7.852   1.076
29653W        W 1324   6.579  23.033   2.799
29654W        W 1325   7.127  26.696   3.696
29655W        W 1326  17.640  20.965  12.123
29656W        W 1327  29.079  20.254   2.688
29657W        W 1328  43.814  18.000  10.726
29658W        W 1329  23.119   3.356  11.196
29659W        W 1330  38.426  25.995  11.608
29660W        W 1331  38.441  10.729  12.907
29661W        W 1332  22.022  42.460  11.028
29662W        W 1333  24.540  36.587  11.625
29663W        W 1334  24.288  26.452   4.339
29664W        W 1335  30.965  19.532  13.025
29665W        W 1336  27.193  44.399   2.345
29666W        W 1337  43.542   4.091   1.967
29667W        W 1338  25.571   3.772  12.249
29668W        W 1339  37.034  24.942  12.941
29669W        W 1340   7.388  28.543   0.432
29670W        W 1341  11.789  41.908  14.813
29671W        W 1342  12.992  37.452  13.483
29672W        W 1343  15.326  12.367  14.102
29673W        W 1344  13.384  21.256  14.671
29674W        W 1345  27.008   4.542   1.484
29675W        W 1346  34.105  31.738   1.666
29676W        W 1347  43.447  22.669  13.556
29677W        W 1348   5.368  31.429  12.978
29678W        W 1349   0.643   2.937   3.309
29679W        W 1350  27.949  32.925  10.727
29680W        W 1351  20.216   4.906   1.442
29681W        W 1352  40.845  43.994   3.749
29682W        W 1353  38.909  34.021  12.044
29683W        W 1354  24.802   9.157   1.384
29684W        W 1355  41.433  38.482   2.900
29685W        W 1356  17.838  43.313   3.834
29686W        W 1357  14.566  30.697   4.480
29687W        W 1358  41.729  34.561  12.971
29688W        W 1359  15.840  37.100   4.293
29689W        W 1360  27.528  37.653  12.652
29690W        W 1361   3.795  27.524  11.493
29691W        W 1362   8.550   7.154  14.549
29692W        W 1363  36.034  42.206   3.161
29693W        W 1364  22.457  28.103  10.566
29694W        W 1365  37.610  34.660   4.483
29695W        W 1366   7.162  23.664  12.526
29696W        W 1367  40.767  32.508   2.325
29697W        W 1368  17.785   1.280   2.919
29698W        W 1369   2.252  11.250  12.394
29699W        W 1370  16.130  26.225  11.690
29700W        W 1371  41.340  23.473   1.273
29701W        W 1372  25.153  27.474   2.317
29702W        W 1373  35.670   9.644   1.823
29703W        W 1374   1.682  42.878  14.464
29704W        W 1375  23.974  18.223   0.509
29705W        W 1376  23.224  16.133   0.989
29706W        W 1377   5.347  20.639  13.307
29707W        W 1378  27.568  37.089  13.541
29708W        W 1379  36.983   2.705  11.908
29709W        W 1380  22.122   4.574  12.103
29710W        W 1381  28.144  41.535  10.631
29711W        W 1382  12.617  36.857   0.762
29712W        W 1383  21.485  24.002   0.725
29713W        W 1384  42.294  38.760   0.254
29714W        W 1385  41.427   1.896   1.874
29715W        W 1386  36.967  13.868  12.106
29716W        W 1387  15.617  14.326   0.830
29717W        W 1388  38.040  13.796  11.186
29718W        W 1389   3.251  30.842   4.368
29719W        W 1390  28.604  25.721   1.482
29720W        W 1391  40.409  39.296   3.360
29721W        W 1392  19.940  39.934  11.675
29722W        W 1393  23.597  20.546   4.849
29723W        W 1394  44.936  36.796   4.331
29724W        W 1395  25.161  41.530  13.526
29725W        W 1396   1.445   7.178   1.874
29726W        W 1397   8.819  43.082   1.680
29727W        W 1398  23.239  38.987   2.741
29728W        W 1399   5.758   4.908  12.536
29729W        W 1400  44.935  13.137  10.965
29730W        W 1401  25.104  38.583  13.004
29731W        W 1402   3.904  18.865   3.805
29732W        W 1403  30.875  17.291  12.944
29733W        W 1404  14.069  29.986   0.685
29734W        W 1405  34.805  34.827  11.913
29735W        W 1406  41.044  17.047   4.475
29736W        W 1407  21.220  20.612  13.489
29737W        W 1408  29.625  10.438  13.502
29738W        W 1409   3.227  22.909  14.648
29739W        W 1410  41.202  21.667   4.772
29740W        W 1411  39.577  23.473  11.543
29741W        W 1412   3.203  28.061  11.867
29742W        W 1413  36.283  14.104   9.861
29743W        W 1414  41.964  42.536   0.622
29744W        W 1415  33.611  23.965  12.004
29745W        W 1416  27.758  35.103  13.989
29746W        W 1417   2.386   2.269   4.130
29747W        W 1418  31.306  14.648  13.616
29748W        W 1419  26.058  39.336   1.344
29749W        W 1420  41.298  10.606   1.918
29750W        W 1421  28.756  44.368   4.725
29751W        W 1422  35.014  26.757  12.079
29752W        W 1423  12.199  42.868  11.402
29753W        W 1424  19.353  39.265  11.220
29754W        W 1425  17.376  25.085   2.627
29755W        W 1426   3.906  36.160  12.923
29756W        W 1427  25.447  28.859  12.468
29757W        W 1428  38.041  29.145   4.585
29758W        W 1429  35.849  10.375   2.384
29759W        W 1430  17.983  41.077   0.778
29760W        W 1431   0.375  10.090   4.241
29761W        W 1432  21.573  31.603   4.970
29762W        W 1433  25.285  33.973  10.291
29763W        W 1434  42.766  36.121   1.971
29764W        W 1435   5.356  37.468  12.086
29765W        W 1436  23.088  43.045  13.308
29766W        W 1437  37.326  43.433  13.322
29767W        W 1438  18.806  10.192   4.191
29768W        W 1439  33.217  23.051  14.221
29769W        W 1440  22.114  32.127  12.012
29770W        W 1441   6.440  15.981   1.769
29771W        W 1442  39.911  27.515  13.352
29772W        W 1443  28.897  40.871  11.608
29773W        W 1444  42.122  39.695   1.376
29774W        W 1445  23.717   4.884   2.293
29775W        W 1446  11.988  44.358   2.424
29776W        W 1447  40.400  33.359   4.017
29777W        W 1448   2.354  26.148  14.259
29778W        W 1449  25.600  12.419  11.936
29779W        W 1450  14.808   8.654   1.900
29780W        W 1451  12.913   5.791   2.218
29781W        W 1452  35.602   0.275  13.356
29782W        W 1453  39.532  40.112   2.264
29783W        W 1454  24.808  37.922   1.669
29784W        W 1455   9.828   7.627   3.225
29785W        W 1456  24.193  38.203  12.030
29786W        W 1457  33.966  23.958  12.390
29787W        W 1458  24.624   3.927   1.707
29788W        W 1459  42.597  41.890   3.585
29789W        W 1460  24.747  10.181   1.314
29790W        W 1461  44.149  20.692   1.997
29791W        W 1462  20.144  24.696  13.384
29792W        W 1463   9.406  13.120  13.927
29793W        W 1464  31.343   8.425   2.432
29794W        W 1465   4.298  24.883  14.918
29795W        W 1466  24.284  15.815   1.862
29796W        W 1467  30.550  26.489  13.546
29797W        W 1468  26.178   4.363  14.803
29798W        W 1469   5.138   3.421  13.075
29799W        W 1470   3.169  19.514   0.919
29800W        W 1471  44.899   5.257   4.550
29801W        W 1472  25.480  15.651   1.341
29802W        W 1473  44.212   1.488   4.768
29803W        W 1474  38.627  36.030   1.252
29804W        W 1475  29.205   7.436  10.645
29805W        W 1476  31.429  13.239  11.228
29806W        W 1477  21.212  33.148   4.249
29807W        W 1478   2.042  40.639   1.157
29808W        W 1479  30.289  31.147   1.436
29809W        W 1480   4.625  18.218  13.747
29810W        W 1481  29.820  44.298   1.317
29811W        W 1482  12.431  18.213  14.936
29812W        W 1483  25.088  21.737  10.871
29813W        W 1484  12.804  34.583  14.354
29814W        W 1485  18.650  18.680  11.092
29815W        W 1486  44.026  38.251   5.603
29816W        W 1487   4.376  31.614  14.062
29817W        W 1488  26.455  40.462  11.870
29818W        W 1489  24.666  20.716  11.966
29819W        W 1490   5.690  12.831   0.838
29820W        W 1491  13.099  22.169  10.659
29821W        W 1492  40.796  21.729   4.456
29822W        W 1493  11.349  31.939   3.895
29823W        W 1494  23.679  27.990  13.908
29824W        W 1495   4.844  35.510   4.705
29825W        W 1496  43.534  28.691  14.575
29826W        W 1497  15.537  20.824   4.739
29827W        W 1498  22.278  42.419   1.850
29828W        W 1499  29.995  34.146  12.955
29829W        W 1500  29.403   0.891   3.122
29830W        W 1501  37.332  39.153   1.906
29831W        W 1502  25.681   0.237  14.947
29832W        W 1503  28.528  41.001   0.973
29833W        W 1504  41.069  24.081   2.732
29834W        W 1505   5.756  32.536   2.001
29835W        W 1506  36.094  39.528  10.303
29836W        W 1507  43.879  21.219   3.418
29837W        W 1508   0.079  28.681   2.789
29838W        W 1509  31.461  19.969   0.804
29839W        W 1510   9.690  32.940  14.988
29840W        W 1511   1.050   7.362  13.047
29841W        W 1512  21.470   2.740  13.781
29842W        W 1513   0.612  33.903   3.359
29843W        W 1514  43.808  34.667   3.218
29844W        W 1515   2.857  36.429  11.028
29845W        W 1516  29.496  30.549   5.139
29846W        W 1517   9.083  25.517  10.948
29847W        W 1518  32.367  33.617   0.405
29848W        W 1519   0.735  13.097  14.908
29849W        W 1520  19.767  37.341  10.699
29850W        W 1521   2.927  13.362   3.777
29851W        W 1522  23.875  42.383   0.253
29852W        W 1523   5.475  39.064   2.446
29853W        W 1524  39.125  44.433   3.280
29854W        W 1525  23.069  37.656   2.442
29855W        W 1526  22.247   9.244   2.451
29856W        W 1527  38.184  42.729   1.162
29857W        W 1528  10.193  20.534  13.088
29858W        W 1529   9.523  12.853   4.323
29859W        W 1530   0.868   8.200  14.878
29860W        W 1531  28.225  38.670  14.035
29861W        W 1532  10.252  21.476   1.431
29862W        W 1533  43.533   2.892   4.294
29863W        W 1534   5.041  34.373   4.148
29864W        W 1535  33.059  26.264   1.338
29865W        W 1536  30.703   9.280   1.847
29866W        W 1537  41.835  37.341   3.706
29867W        W 1538   3.349  13.946  11.459
29868W        W 1539  32.795  41.508   0.286
29869W        W 1540  28.607   7.919   1.559
29870W        W 1541  10.394  42.524   3.930
29871W        W 1542  18.461  16.901   1.860
29872W        W 1543   1.523   4.000  10.906
29873W        W 1544  44.399  44.397  10.104
29874W        W 1545   8.915  42.644  10.919
29875W        W 1546  41.321   8.431   0.487
29876W        W 1547   3.441  10.216   3.737
29877W        W 1548  36.101   9.707  13.528
29878W        W 1549  33.525  27.741  13.476
29879W        W 1550  42.334  14.597  11.976
29880W        W 1551  42.314  30.437  12.355
29881W        W 1552  10.393  33.632  11.725
29882W        W 1553  35.610  17.108   0.726
29883W        W 1554   4.369   4.266   3.234
29884W        W 1555  18.309  42.462   3.810
29885W        W 1556  37.107  30.612   1.420
29886W        W 1557  26.205  34.358  13.434
29887W        W 1558  28.061   5.750   2.457
29888W        W 1559  33.864   7.447  11.190
29889W        W 1560   8.840  16.175  10.653
29890W        W 1561  44.407  34.606  13.813
29891W        W 1562  31.944   5.581  11.223
29892W        W 1563  18.068  29.068  13.842
29893W        W 1564   3.407  36.640   4.245
29894W        W 1565  26.110  14.284  12.568
29895W        W 1566  39.287  17.653  14.263
29896W        W 1567  15.317  20.631  14.689
29897W        W 1568  12.919  32.075   4.186
29898W        W 1569  14.900  28.423  14.116
29899W        W 1570  33.438  32.461  11.887
29900W        W 1571  28.422  41.818  13.032
29901W        W 1572  26.969   4.362   0.980
29902W        W 1573   6.297   1.336   4.231
29903W        W 1574  32.184  29.471   1.793
29904W        W 1575  30.943   2.036   0.484
29905W        W 1576   7.895  25.697   1.956
29906W        W 1577  18.341  39.531   3.426
29907W        W 1578  25.871  33.484   2.852
29908W        W 1579  37.216  17.231  13.419
29909W        W 1580  24.734   6.220  11.127
29910W        W 1581  29.581  18.950  12.887
29911W        W 1582  33.335  41.912   5.084
29912W        W 1583  13.082   3.448   4.390
29913W        W 1584   2.249  35.079   1.845
29914W        W 1585  38.174   6.689  11.421
29915W        W 1586  12.887  21.431  13.128
29916W        W 1587   9.335  29.567  13.081
29917W        W 1588  20.664  12.120  14.563
29918W        W 1589  21.752  24.540   1.363
29919W        W 1590  25.506  23.826  10.343
29920W        W 1591  16.790   1.215  14.003
29921W        W 1592  40.068   0.892  12.425
29922W        W 1593  29.504  41.293   2.801
29923W        W 1594  33.452  27.926   2.305
29924W        W 1595  12.204  16.503  12.697
29925W        W 1596  25.377   7.208   4.103
29926W        W 1597  14.873  13.959  13.681
29927W        W 1598  20.941  44.566  13.095
29928W        W 1599  17.460  14.643  12.617
29929W        W 1600  24.191  43.528  13.074
29930W        W 1601   2.229  33.386   4.453
29931W        W 1602  17.622   1.829   0.671
29932W        W 1603  34.043  26.697  13.034
29933W        W 1604  33.013   0.164  14.808
29934W        W 1605  19.304  38.288   2.244
29935W        W 1606  35.576  28.159   3.688
29936W        W 1607  43.108  12.194  10.198
29937W        W 1608   8.228  30.093  10.704
29938W        W 1609  11.617  28.983  10.774
29939W        W 1610  21.019  17.884  12.922
29940W        W 1611  13.874   5.309   5.440
29941W        W 1612  41.997  21.195  12.903
29942W        W 1613  40.430   7.624   3.339
29943W        W 1614  33.592  19.349  14.825
29944W        W 1615  26.029  11.374  10.537
29945W        W 1616  23.207   1.782   4.545
29946W        W 1617  31.142  29.382  12.045
29947W        W 1618  43.196  39.167  13.070
29948W        W 1619  16.362  35.121  13.602
29949W        W 1620  33.333  24.098  13.340
29950W        W 1621   4.860  20.551  13.459
29951W        W 1622  24.029  11.596   4.967
29952W        W 1623   9.352  34.178   4.724
29953W        W 1624  44.505  25.451   0.885
29954W        W 1625  41.831   7.595  14.583
29955W        W 1626  42.784  12.791  12.398
29956W        W 1627  38.289  17.048   3.235
29957W        W 1628  44.056  17.529  12.054
29958W        W 1629  19.097   5.738  11.476
29959W        W 1630  15.216   3.458  10.585
29960W        W 1631  44.546  26.022  12.121
29961W        W 1632  15.201  16.637   2.697
29962W        W 1633  34.445  16.028  14.260
29963W        W 1634   3.150   4.907  14.824
29964W        W 1635  27.634   7.371   2.355
29965W        W 1636   6.348  36.161   4.999
29966W        W 1637  39.626  20.670  11.677
29967W        W 1638  12.708  25.637  10.584
29968W        W 1639  10.206  23.665  12.781
29969W        W 1640   2.975   8.823  14.047
29970W        W 1641  20.248   7.210  13.450
29971W        W 1642  33.042   1.976   1.654
29972W        W 1643  20.055   0.462   0.702
29973W        W 1644  12.791  17.852   2.235
29974W        W 1645  23.675  12.332   4.650
29975W        W 1646  44.849   8.087  14.241
29976W        W 1647  16.872  34.875  11.100
29977W        W 1648   9.142  42.186   4.374
29978W        W 1649  29.429   6.676  11.122
29979W        W 1650  21.826  37.942  12.090
29980W        W 1651  17.861  22.325   0.463
29981W        W 1652  19.488  39.765   2.802
29982W        W 1653   5.249  20.291  13.662
29983W        W 1654  28.607   9.616   2.418
29984W        W 1655  31.345   6.760   4.359
29985W        W 1656  32.126  30.939   3.793
29986W        W 1657  29.070  40.051   3.151
29987W        W 1658   6.839   9.306   0.007
29988W        W 1659   6.977  13.845   3.515
29989W        W 1660  16.552  22.682   0.302
29990W        W 1661  40.078   3.137   0.923
29991W        W 1662  34.931   2.590   1.305
29992W        W 1663   7.156  27.146  12.071
29993W        W 1664  12.865   2.809  11.098
29994W        W 1665   3.806  12.239  12.119
29995W        W 1666  11.464  32.878  13.351
29996W        W 1667  27.085  41.262   3.547
29997W        W 1668   3.526  22.592   4.732
29998W        W 1669  17.200  24.973   4.143
29999W        W 1670  11.160  43.788   2.246
30000W        W 1671  23.796  41.514   1.938
30001W        W 1672  13.031  41.430   1.232
30002W        W 1673  10.283  44.611  11.591
30003W        W 1674  13.638  38.315   0.425
30004W        W 1675  12.816   1.494   4.615
30005W        W 1676  20.667  15.732   3.274
30006W        W 1677  39.440   2.346  14.420
30007W        W 1678  41.486  14.778  13.952
30008W        W 1679  27.701  36.925  12.672
30009W        W 1680  14.347   3.328  13.626
30010W        W 1681   3.482  14.852   1.358
30011W        W 1682  33.032  11.545  14.710
30012W        W 1683  20.519  41.898   4.403
30013W        W 1684  15.795   0.203   0.082
30014W        W 1685  37.897  29.518  11.207
30015W        W 1686  32.660   6.396   1.259
30016W        W 1687  11.752  40.012  14.906
30017W        W 1688  42.175   6.678   1.165
30018W        W 1689  12.124  20.309   2.432
30019W        W 1690   4.506  42.306   1.679
30020W        W 1691  12.263   5.269  10.578
30021W        W 1692   6.915   9.218   2.818
30022W        W 1693  15.360   4.469   1.856
30023W        W 1694   0.037   5.481  12.069
30024W        W 1695  23.122  18.019  11.302
30025W        W 1696  44.226   7.137  13.624
30026W        W 1697  30.107  22.809   0.547
30027W        W 1698  12.201  14.080  10.702
30028W        W 1699   3.782  14.388   1.394
30029W        W 1700  44.189   6.919   3.429
30030W        W 1701   2.089   9.297   2.819
30031W        W 1702  37.310  13.638   3.250
30032W        W 1703   1.461  19.746   1.811
30033W        W 1704  40.528  15.614   3.676
30034W        W 1705  30.570  16.363  13.314
30035W        W 1706  33.105  35.827   0.574
30036W        W 1707  39.379  29.574  13.080
30037W        W 1708  37.999  14.732  12.969
30038W        W 1709  36.584  14.279   1.856
30039W        W 1710  40.904  10.356   1.685
30040W        W 1711  40.465  29.142   4.402
30041W        W 1712  26.283   5.527  13.860
30042W        W 1713  31.561   6.321   4.512
30043W        W 1714   6.168  29.182   2.278
30044W        W 1715  10.778  31.715  10.665
30045W        W 1716  20.543  27.112   4.938
30046W        W 1717  38.249  13.913  14.406
30047W        W 1718   4.222  29.943  11.749
30048W        W 1719  30.497  39.994   2.819
30049W        W 1720  17.773  19.258  14.344
30050W        W 1721  11.403  11.255   0.302
30051W        W 1722  38.645  21.713   0.092
30052W        W 1723  26.609  31.302  14.308
30053W        W 1724  17.720  29.884  13.826
30054W        W 1725   0.301  43.793  11.009
30055W        W 1726  24.967  40.263   0.259
30056W        W 1727   6.783  28.947   4.699
30057W        W 1728  38.860   2.161   3.280
30058W        W 1729  28.405   7.787  12.012
30059W        W 1730  33.218  11.085  14.297
30060W        W 1731  11.141   5.345  14.369
30061W        W 1732  32.097  28.986   2.702
30062W        W 1733  30.369  20.220  13.209
30063W        W 1734  43.659  25.564   0.008
30064W        W 1735  14.751  11.901   1.229
30065W        W 1736  28.787  27.466   3.170
30066W        W 1737   6.206  17.750  10.322
30067W        W 1738  21.744  10.199  12.417
30068W        W 1739  16.816  30.684  11.106
30069W        W 1740  36.753   4.223  12.098
30070W        W 1741  27.023  22.998   4.189
30071W        W 1742   0.209  39.324   3.718
30072W        W 1743  41.025  10.742   3.223
30073W        W 1744  31.493  24.159  13.626
30074W        W 1745  20.294  43.722   2.540
30075W        W 1746   1.529  15.095  14.475
30076W        W 1747   7.189   3.381   3.935
30077W        W 1748   3.226  31.590   3.656
30078W        W 1749  38.479   0.509   3.687
30079W        W 1750   5.838  39.394  13.802
30080W        W 1751  13.238  44.453  11.221
30081W        W 1752  42.328   3.811   2.676
30082W        W 1753  35.551   1.357   3.837
30083W        W 1754  10.354   8.562  12.501
30084W        W 1755  28.879  17.181  12.934
30085W        W 1756   5.263   2.324  11.248
30086W        W 1757  21.527  40.260   2.689
30087W        W 1758  39.386  17.216  14.520
30088W        W 1759  26.625   9.417   2.901
30089W        W 1760  44.910  14.020  12.145
30090W        W 1761   3.657   8.269   3.239
30091W        W 1762   7.977  14.793   2.591
30092W        W 1763  31.661  30.867   4.980
30093W        W 1764  22.124  35.371  13.326
30094W        W 1765   3.892  39.873  14.568
30095W        W 1766  33.418   0.765  13.784
30096W        W 1767  26.175  27.499  11.215
30097W        W 1768  22.983  41.327  14.791
30098W        W 1769  39.193  32.579  12.161
30099W        W 1770  34.576  41.680   2.165
30100W        W 1771   9.810  20.554   2.812
30101W        W 1772  13.581   8.781  14.391
30102W        W 1773  24.166  20.560   0.383
30103W        W 1774  13.583  29.107  12.880
30104W        W 1775  41.910  14.287   1.321
30105W        W 1776  32.822  19.368   4.622
30106W        W 1777  43.251  38.290  12.098
30107W        W 1778  24.612  39.065   4.028
30108W        W 1779  39.995  10.122   1.973
30109W        W 1780  38.623  25.762   0.786
30110W        W 1781  39.314   2.112   4.980
30111W        W 1782  39.494  16.085  13.801
30112W        W 1783  32.866  28.773  14.967
30113W        W 1784   6.379  35.289   3.718
30114W        W 1785  12.635  10.555   4.248
30115W        W 1786  33.451  43.235  12.173
30116W        W 1787  18.802   8.224   1.894
30117W        W 1788  43.012  22.317  13.567
30118W        W 1789  23.445   7.684   2.847
30119W        W 1790  37.428  41.474   2.473
30120W        W 1791  14.534  18.563  14.465
30121W        W 1792  14.536   9.797   4.069
30122W        W 1793  25.212  15.698   2.425
30123W        W 1794  28.520  12.255   2.355
30124W        W 1795  15.653  29.164  12.958
30125W        W 1796  44.586  29.621  13.490
30126W        W 1797   2.027   7.918  14.997
30127W        W 1798  34.072  21.981  11.523
30128W        W 1799  43.376  29.739  12.463
30129W        W 1800  35.940  29.147   3.029
30130W        W 1801  13.666  43.793   2.628
30131W        W 1802  28.181  19.094  12.501
30132W        W 1803  12.684  26.911   2.422
30133W        W 1804   8.355  34.659  12.458
30134W        W 1805   9.649  23.734  11.079
30135W        W 1806  18.517  11.334  13.881
30136W        W 1807  44.592   4.413  13.838
30137W        W 1808  24.151  32.001  11.380
30138W        W 1809   3.700  40.378  11.204
30139W        W 1810  14.196  44.529   1.522
30140W        W 1811  44.364  37.435  10.551
30141W        W 1812  36.484  29.707  14.840
30142W        W 1813  14.901  39.032  13.427
30143W        W 1814  26.154  15.250   3.375
30144W        W 1815  29.200  17.085  12.546
30145W        W 1816   1.057   5.811  11.176
30146W        W 1817  38.280  17.141   4.177
30147W        W 1818  11.106  43.360   3.276
30148W        W 1819   7.134   5.368  14.074
30149W        W 1820  24.517   9.590   1.256
30150W        W 1821  20.067  25.586  12.054
30151W        W 1822  15.963  26.560  13.484
30152W        W 1823  19.239  10.440  10.669
30153W        W 1824  12.149  39.076  12.880
30154W        W 1825  29.075   4.369  12.006
30155W        W 1826  25.539  28.168  12.877
30156W        W 1827   6.947   1.210  12.076
30157W        W 1828   0.863  17.106  12.958
30158W        W 1829  42.241  12.019  12.871
30159W        W 1830   2.843  12.683   0.273
30160W        W 1831  18.303   0.849  10.435
30161W        W 1832  44.760  29.879  14.721
30162W        W 1833  30.112   3.845  11.946
30163W        W 1834   4.971   8.779   4.386
30164W        W 1835  34.732  30.550   3.316
30165W        W 1836  25.240  42.050   2.420
30166W        W 1837  13.595  37.665  12.946
30167W        W 1838  31.480  18.113  12.173
30168W        W 1839  12.180  31.916  11.911
30169W        W 1840   5.368  39.637  13.753
30170W        W 1841  34.641  38.422  14.640
30171W        W 1842   8.439  42.006  13.935
30172W        W 1843  18.160  28.086   3.395
30173W        W 1844   3.373  42.033   4.477
30174W        W 1845  11.281  16.778  14.763
30175W        W 1846  19.237  39.777  12.863
30176W        W 1847  28.732  30.020  11.904
30177W        W 1848  13.098   7.189   5.043
30178W        W 1849   4.910   7.498   3.701
30179W        W 1850  15.059  40.967  12.374
30180W        W 1851  34.029   3.626  14.568
30181W        W 1852  11.350   5.286  12.620
30182W        W 1853  17.649  30.060  11.162
30183W        W 1854  44.788  14.879   2.932
30184W        W 1855  23.393  23.039  14.925
30185W        W 1856   0.541  20.800  11.632
30186W        W 1857  12.718  30.118  12.709
30187W        W 1858  20.371  42.418  14.789
30188W        W 1859   7.229  42.213  12.004
30189W        W 1860  40.209  31.022   3.746
30190W        W 1861  30.565  27.467   1.242
30191W        W 1862  19.685   6.965   1.073
30192W        W 1863  27.583  31.631   5.116
30193W        W 1864  17.229  28.027  13.526
30194W        W 1865   6.050  14.913  12.036
30195W        W 1866   6.721  39.696   4.988
30196W        W 1867   2.366  43.924  13.353
30197W        W 1868  40.980  32.168  14.851
30198W        W 1869  16.807  30.524   4.326
30199W        W 1870  16.159  36.558   0.795
30200W        W 1871  19.207  13.170  10.758
30201W        W 1872  42.742   7.908  11.909
30202W        W 1873  23.984  20.052   4.637
30203W        W 1874  23.893   3.114  11.100
30204W        W 1875  21.950  16.062   3.732
30205W        W 1876   2.729  16.533  13.944
30206W        W 1877  13.284  24.748   3.385
30207W        W 1878  21.873  30.075  13.274
30208W        W 1879  39.455  31.041  10.561
30209W        W 1880  25.193  21.681  11.540
30210W        W 1881  21.844  30.217  13.810
30211W        W 1882   4.255  41.638  14.466
30212W        W 1883  40.354   5.460   0.944
30213W        W 1884  36.566   7.829   2.550
30214W        W 1885  13.659   3.995  13.995
30215W        W 1886  42.390  22.029  12.873
30216W        W 1887   4.180  13.770   3.577
30217W        W 1888  29.915   2.748   1.868
30218W        W 1889  40.381   9.618   4.570
30219W        W 1890  20.615  23.158   5.481
30220W        W 1891   4.424  17.314  14.818
30221W        W 1892  20.533  21.151  10.845
30222W        W 1893  21.073  44.970   3.227
30223W        W 1894   3.025  14.842   3.378
30224W        W 1895  20.761   8.769  11.644
30225W        W 1896  43.757  20.729   1.632
30226W        W 1897   2.390  39.342  12.021
30227W        W 1898  38.414  18.098  11.616
30228W        W 1899  31.068  27.980  13.041
30229W        W 1900  31.070  37.637   1.995
30230W        W 1901  22.523   3.856   1.192
30231W        W 1902   9.255  43.432  14.389
30232W        W 1903  29.207  13.429   0.492
30233W        W 1904  37.276   9.311  14.938
30234W        W 1905  44.712  33.116  13.927
30235W        W 1906  23.198  34.543  12.498
30236W        W 1907  27.943  16.707   1.815
30237W        W 1908   6.723  13.046  10.373
30238W        W 1909  37.826  43.231   0.335
30239W        W 1910  21.934  28.718  11.069
30240W        W 1911   4.383   2.381  14.387
30241W        W 1912  37.548  39.357   4.626
30242W        W 1913  15.450  15.050  12.428
30243W        W 1914  32.968  31.109   4.599
30244W        W 1915  26.213  11.406  11.045
30245W        W 1916  40.976  26.631   4.400
30246W        W 1917  19.349  15.805  13.983
30247W        W 1918  12.819  38.771   0.996
30248W        W 1919  32.596  32.364   2.681
30249W        W 1920  35.051  40.530  12.416
30250W        W 1921  22.528  41.561  14.312
30251W        W 1922  26.553   8.715  13.897
30252W        W 1923  30.361  24.597   3.276
30253W        W 1924  42.364   0.463  14.036
30254W        W 1925  35.844  21.839  11.993
30255W        W 1926  24.226  29.662  13.393
30256W        W 1927  19.135  26.766  11.157
30257W        W 1928  43.618  23.667   1.869
30258W        W 1929   2.111  20.015   2.964
30259W        W 1930   1.540  10.126  13.127
30260W        W 1931   5.263  24.880   2.216
30261W        W 1932  10.444  28.096   1.471
30262W        W 1933  17.090  28.435   1.767
30263W        W 1934   3.134  42.562  11.293
30264W        W 1935  19.794  11.644  14.575
30265W        W 1936   6.336  44.860  10.502
30266W        W 1937  13.205  32.888  10.595
30267W        W 1938  11.828   9.684   1.660
30268W        W 1939  11.901  26.220  12.453
30269W        W 1940  10.526  35.048   5.056
30270W        W 1941  31.021   9.122   4.547
30271W        W 1942  19.119  18.062   3.269
30272W        W 1943  16.890  14.305  12.953
30273W        W 1944  28.002  22.189  14.775
30274W        W 1945  24.001  18.216  13.424
30275W        W 1946  40.923   0.987   1.816
30276W        W 1947   3.136  36.536  13.107
30277W        W 1948  33.963   1.768  12.621
30278W        W 1949  26.228  20.183   1.182
30279W        W 1950  34.086   0.443   1.287
30280W        W 1951  21.022  29.745  13.022
30281W        W 1952  40.545  32.460   2.970
30282W        W 1953  30.217  11.558  13.860
30283W        W 1954  28.050   2.667   0.428
30284W        W 1955  44.831   9.955   1.419
30285W        W 1956  13.637  42.364   4.273
30286W        W 1957   4.783  11.353   1.817
30287W        W 1958  24.230  11.280   3.328
30288W        W 1959   9.413  15.411  14.458
30289W        W 1960  31.647  28.100  13.783
30290W        W 1961  19.078  35.279   3.687
30291W        W 1962  31.863  40.906   3.703
30292W        W 1963  31.175  37.347  14.747
30293W        W 1964  18.404  18.616   2.300
30294W        W 1965  26.071  14.246   4.706
30295W        W 1966  25.299  42.175   4.140
30296W        W 1967  17.615  12.408   2.868
30297W        W 1968   1.427  38.788  12.858
30298W        W 1969  30.658   3.926   3.659
30299W        W 1970   3.954  36.304  11.181
30300W        W 1971  12.796  16.788   0.829
30301W        W 1972   4.434  28.237  14.990
30302W        W 1973   6.789   7.929  13.628
30303W        W 1974  19.195  17.684   2.670
30304W        W 1975  32.456  14.811   1.802
30305W        W 1976  27.123  17.809  11.097
30306W        W 1977  43.093  13.795  12.935
30307W        W 1978  40.885   8.704   4.021
30308W        W 1979  38.869   1.470   1.733
30309W        W 1980  33.761   3.145  13.913
30310W        W 1981  16.592  44.478   4.528
30311W        W 1982  18.653   1.704  12.616
30312W        W 1983  13.650  33.021   2.820
30313W        W 1984   8.097   0.255   2.716
30314W        W 1985  19.629  20.627   1.493
30315W        W 1986  15.390  19.172   0.694
30316W        W 1987  32.121  15.695   4.639
30317W        W 1988  32.164  40.440  13.100
30318W        W 1989  43.602  13.549   4.429
30319W        W 1990   2.958  21.775   5.114
30320W        W 1991  12.208  15.138  12.174
30321W        W 1992  34.686  38.394   0.418
30322W        W 1993  25.652  11.784  14.863
30323W        W 1994  43.786  28.001   3.596
30324W        W 1995  11.695   8.388   4.709
30325W        W 1996  23.766   6.143  11.126
30326W        W 1997  24.186  12.123   3.353
30327W        W 1998   3.177   1.847   0.883
30328W        W 1999  38.181  30.604   2.364
30329W        W 2000  16.776   1.657   0.470
30330W        W 2001  33.685  19.140   1.163
30331W        W 2002  28.522   4.494   1.879
30332W        W 2003   7.353  19.400   1.443
30333W        W 2004  31.366  41.754   3.728
30334W        W 2005  17.526   6.000   5.004
30335W        W 2006  22.301  38.721   1.171
30336W        W 2007   2.275  13.194   4.245
30337W        W 2008   8.706   5.873   1.214
30338W        W 2009  16.298  42.852   0.353
30339W        W 2010  30.452  10.388   4.492
30340W        W 2011  23.157  38.315   4.527
30341W        W 2012   0.307   5.762  11.422
30342W        W 2013  30.855   6.697   4.580
30343W        W 2014   5.430  20.889  11.084
30344W        W 2015  11.583   5.718   0.746
30345W        W 2016  35.332  20.981   3.198
30346W        W 2017  30.852  10.698   1.418
30347W        W 2018   8.855  19.257  13.193
30348W        W 2019  17.136  22.614   1.360
30349W        W 2020  20.229  37.355   0.291
30350W        W 2021   8.670  39.979  11.146
30351W        W 2022  32.693  16.420   3.684
30352W        W 2023  23.259  41.818  14.776
30353W        W 2024  11.317   5.702   1.193
30354W        W 2025  41.212  42.509   2.874
30355W        W 2026  17.800  35.978  14.294
30356W        W 2027  22.023  21.015   2.267
30357W        W 2028  18.171  29.575   1.916
30358W        W 2029  14.690  42.460  11.478
30359W        W 2030  15.719  14.802   2.808
30360W        W 2031   8.280  28.974   4.099
30361W        W 2032   0.114   1.523  11.617
30362W        W 2033  25.970  21.987  12.079
30363W        W 2034  35.126   6.676   4.866
30364W        W 2035  26.114  42.496   4.045
30365W        W 2036   2.801   5.184   0.829
30366W        W 2037  20.248   2.793   1.033
30367W        W 2038  13.891  23.654   0.796
30368W        W 2039  28.981  14.531   2.227
30369W        W 2040  44.360  25.129   0.466
30370W        W 2041  14.770  23.715  13.063
30371W        W 2042   0.418  29.901   1.880
30372W        W 2043  44.621   8.659  12.871
30373W        W 2044  36.913  26.016   3.024
30374W        W 2045  14.629   1.710  10.798
30375W        W 2046  38.596  40.121   0.210
30376W        W 2047  43.703   6.180  13.406
30377W        W 2048  21.449  23.232  11.596
30378W        W 2049   6.061  34.838  14.477
30379W        W 2050  24.997  15.251  13.761
30380W        W 2051  39.301  29.055   1.678
30381W        W 2052  38.483  30.413  12.053
30382W        W 2053  31.025  35.919  10.758
30383W        W 2054  29.997  36.678   2.826
30384W        W 2055   9.818  27.565  11.263
30385W        W 2056  44.103  26.624  14.412
30386W        W 2057  23.995  11.870  12.395
30387W        W 2058  13.218  34.896  13.864
30388W        W 2059   2.346   6.032   4.707
30389W        W 2060  44.144  30.110   3.313
30390W        W 2061  38.417  22.734   1.675
30391W        W 2062  32.924  24.932  12.888
30392W        W 2063  26.614  15.458  11.063
30393W        W 2064  33.605  39.545   1.937
30394W        W 2065   5.535  35.112   2.820
30395W        W 2066  18.245  32.147  10.300
30396W        W 2067  40.896  26.219   2.328
30397W        W 2068  29.470  33.357  13.555
30398W        W 2069  31.966  32.042  13.681
30399W        W 2070   3.164  38.424  10.691
30400W        W 2071  13.031  18.519  14.480
30401W        W 2072  21.338  23.431  11.100
30402W        W 2073  18.633  20.724  10.671
30403W        W 2074  11.770  35.020  14.362
30404W        W 2075  24.661   8.571   3.137
30405W        W 2076  15.283  21.715  10.723
30406W        W 2077   6.164  35.122   3.273
30407W        W 2078  37.554  23.071  10.677
30408W        W 2079   2.187  42.632  11.230
30409W        W 2080  29.283  32.519  10.422
30410W        W 2081  18.509  12.127   2.264
30411W        W 2082  16.290   0.920   1.352
30412W        W 2083   4.280  11.973  13.871
30413W        W 2084  18.079  30.434  13.485
30414W        W 2085  26.683   6.590  12.302
30415W        W 2086  13.767   3.778  11.064
30416W        W 2087  38.094  38.493   4.041
30417W        W 2088   1.494  23.631  14.743
30418W        W 2089  41.556   3.792   1.825
30419W        W 2090  34.141  32.454  14.201
30420W        W 2091  17.665  32.607  11.378
30421W        W 2092   7.948   3.386   2.190
30422W        W 2093  20.319  17.457  12.581
30423W        W 2094   5.334  24.523  10.687
30424W        W 2095  36.562   3.553  10.755
30425W        W 2096  34.614  35.028  11.144
30426W        W 2097  36.226  23.095   3.380
30427W        W 2098  43.433   5.716  14.158
30428W        W 2099   5.305  12.401   4.477
30429W        W 2100  22.845  35.441   0.965
30430W        W 2101  11.494  10.279  13.071
30431W        W 2102  16.214   8.851  13.464
30432W        W 2103  30.219   9.663   1.476
30433W        W 2104  37.435   6.448   1.483
30434W        W 2105   9.352   7.707   0.027
30435W        W 2106  36.451  33.384  12.345
30436W        W 2107   4.729  41.118  12.610
30437W        W 2108  22.042  29.380   1.963
30438W        W 2109  10.427  33.421  11.245
30439W        W 2110  12.113  22.594   1.674
30440W        W 2111  41.050  18.079  10.773
30441W        W 2112  23.494  41.068   1.910
30442W        W 2113  28.932  30.987  12.891
30443W        W 2114   6.722  38.355  11.254
30444W        W 2115  44.030   8.370   1.259
30445W        W 2116  23.961  22.453  12.965
30446W        W 2117  43.902  39.869  12.836
30447W        W 2118  14.350  42.310   0.754
30448W        W 2119   2.879   9.650  12.802
30449W        W 2120   4.541   9.117  11.139
30450W        W 2121   1.064  44.381  13.209
30451W        W 2122  24.561  24.541  12.656
30452W        W 2123  16.146  41.740   4.163
30453W        W 2124  42.618   6.327  12.552
30454W        W 2125  23.484   1.431   1.028
30455W        W 2126  39.325  42.502  14.309
30456W        W 2127  44.086  44.281  11.107
30457W        W 2128  20.256  23.301   0.761
30458W        W 2129  23.258  41.331   4.238
30459W        W 2130  14.709  32.084  12.161
30460W        W 2131  18.667   3.385  11.517
30461W        W 2132  40.596  38.088  12.670
30462W        W 2133  29.841  32.659   2.288
30463W        W 2134   7.376  26.631   3.262
30464W        W 2135  14.266   5.939   0.319
30465W        W 2136  39.921  38.337   3.587
30466W        W 2137   4.168  34.054   2.354
30467W        W 2138  10.821  23.148   1.654
30468W        W 2139   1.826  28.263  12.158
30469W        W 2140  40.935  20.762  12.813
30470W        W 2141  10.902  28.978  12.488
30471W        W 2142  14.312  32.942  14.570
30472W        W 2143  29.049   3.671  11.460
30473W        W 2144  25.920  37.344  10.975
30474W        W 2145  10.682   4.451   4.698
30475W        W 2146  11.865   6.712  13.762
30476W        W 2147  42.750  44.234   5.003
30477W        W 2148   7.288   9.065   0.904
30478W        W 2149  37.100   7.894  12.419
30479W        W 2150  41.494  10.035   0.895
30480W        W 2151  13.324  29.590   3.482
30481W        W 2152  32.918  36.875  14.010
30482W        W 2153  30.563   0.457  10.776
30483W        W 2154  33.822  44.849  14.290
30484W        W 2155   9.545  22.488   3.663
30485W        W 2156  23.238  15.601  13.185
30486W        W 2157  17.326  14.642  13.115
30487W        W 2158  31.502  39.273   1.249
30488W        W 2159  24.729   4.246  13.900
30489W        W 2160  40.143   6.854   4.751
30490W        W 2161  31.687  22.319   1.225
30491W        W 2162  30.934  13.128   3.786
30492W        W 2163  15.133   7.795   2.682
30493W        W 2164   3.976  24.252  10.930
30494W        W 2165   9.120  14.208  12.066
30495W        W 2166  31.134  20.602  13.025
30496W        W 2167   7.123  34.353  12.384
30497W        W 2168  22.110  32.610  11.871
30498W        W 2169  38.968  22.039   2.210
30499W        W 2170   7.334  23.662  13.320
30500W        W 2171   9.015  15.767  13.795
30501W        W 2172  41.843  32.572  10.424
30502W        W 2173  13.915   3.795   4.827
30503W        W 2174  38.458  23.559  10.749
30504W        W 2175  41.584  25.683  12.003
30505W        W 2176  12.145   2.854  12.924
30506W        W 2177  33.325  40.719   0.734
30507W        W 2178  13.639  15.165   4.349
30508W        W 2179  20.541  28.904   2.211
30509W        W 2180  15.039  36.049   2.008
30510W        W 2181  25.955   7.739  13.450
30511W        W 2182  24.394  32.087  10.314
30512W        W 2183  27.407  15.623   1.315
30513W        W 2184   7.334  38.343   4.478
30514W        W 2185  35.910   2.378  12.433
30515W        W 2186  12.184  34.808   0.668
30516W        W 2187  31.709  21.732   2.209
30517W        W 2188  20.641   4.629   1.232
30518W        W 2189  15.079  30.444  12.649
30519W        W 2190   3.121  30.479  10.756
30520W        W 2191  12.416  34.398   0.912
30521W        W 2192  11.873  33.887   0.213
30522W        W 2193  22.734   8.629   4.616
30523W        W 2194  36.247  34.580   3.679
30524W        W 2195  40.568   8.117   4.671
30525W        W 2196  19.264  18.377  11.660
30526W        W 2197  28.637  13.702   1.902
30527W        W 2198  29.549  44.021  13.647
30528W        W 2199  32.340  20.598   0.352
30529W        W 2200  35.838  37.830  12.834
30530W        W 2201  16.414   5.190   1.868
30531W        W 2202  41.098   8.316  11.457
30532W        W 2203  40.861   2.679  10.380
30533W        W 2204  29.239  43.412   2.134
30534W        W 2205   9.131  41.234  11.095
30535W        W 2206  14.620  38.103   4.235
30536W        W 2207   2.644  24.723  11.178
30537W        W 2208  33.907  13.672   0.326
30538W        W 2209  35.960  34.466  13.617
30539W        W 2210  24.909  13.854   3.362
30540W        W 2211  30.847  40.402  11.056
30541W        W 2212  16.932   4.481   5.510
30542W        W 2213   9.125  13.659   4.724
30543W        W 2214  42.361  27.356   0.743
30544W        W 2215  21.640   7.672   1.869
30545W        W 2216   7.446  12.428  11.834
30546W        W 2217  18.507  34.923  12.361
30547W        W 2218  26.136  30.561  14.357
30548W        W 2219  16.523  21.189   1.008
30549W        W 2220  27.607  26.503   3.662
30550W        W 2221   5.828  40.449   3.291
30551W        W 2222  27.193  13.217   1.742
30552W        W 2223   8.942   4.701   3.624
30553W        W 2224  20.753  40.410   0.945
30554W        W 2225  27.621   4.912   2.722
30555W        W 2226  27.765  37.408  14.831
30556W        W 2227  31.086  30.504  14.683
30557W        W 2228   4.364   7.018  12.339
30558W        W 2229  43.413  11.318   3.186
30559W        W 2230  34.905  26.186   2.677
30560W        W 2231  36.454   0.374  12.075
30561W        W 2232   3.210  13.872   2.443
30562W        W 2233   8.099  13.781  11.818
30563W        W 2234   4.862  38.054   3.647
30564W        W 2235  27.654   9.840  14.763
30565W        W 2236  32.030  17.798   4.748
30566W        W 2237   0.526  18.057   0.774
30567W        W 2238  25.707   1.941  11.958
30568W        W 2239  13.226   7.775   2.167
30569W        W 2240  44.251   0.375  10.633
30570W        W 2241  43.220  35.218   2.173
30571W        W 2242  31.098  40.361  13.555
30572W        W 2243  12.226  42.356  11.436
30573W        W 2244  17.974  20.180   4.659
30574W        W 2245  24.491   6.503  10.713
30575W        W 2246  35.253  40.484   1.090
30576W        W 2247   7.219  21.729   0.059
30577W        W 2248  32.361  38.147  14.734
30578W        W 2249  17.546  34.627   4.898
30579W        W 2250  13.393  16.266  12.937
30580W        W 2251   9.797   3.179  13.376
30581W        W 2252   8.787  38.962  12.091
30582W        W 2253   2.238  42.427  14.839
30583W        W 2254  11.112  20.074  11.118
30584W        W 2255  22.051   1.425  10.995
30585W        W 2256   4.224  22.608   1.343
30586W        W 2257  28.680   7.435   1.341
30587W        W 2258  39.060  22.275  13.465
30588W        W 2259   1.250   7.380  11.879
30589W        W 2260   0.315  17.728   4.909
30590W        W 2261  16.171  14.139  13.510
30591W        W 2262   5.881  16.706   0.667
30592W        W 2263  22.232  29.436  11.568
30593W        W 2264   9.819  44.787  13.385
30594W        W 2265   8.669   0.794   2.160
30595W        W 2266  39.658  18.017  13.392
30596W        W 2267  21.144  22.237   3.153
30597W        W 2268  30.721  17.988  11.533
30598W        W 2269  41.471  15.412   2.092
30599W        W 2270  34.037   1.839  12.113
30600W        W 2271   5.890  39.025  12.955
30601W        W 2272  15.014  27.046   2.176
30602W        W 2273  10.177  29.880  12.456
30603W        W 2274  43.258  31.551  13.418
30604W        W 2275   6.964   3.150   2.366
30605W        W 2276  12.413   9.788  14.902
30606W        W 2277  30.208  35.035   1.334
30607W        W 2278  42.427   1.229  14.889
30608W        W 2279  26.913  36.529  13.033
30609W        W 2280  32.841  29.069  14.479
30610W        W 2281   1.885  25.431   1.930
30611W        W 2282  14.817  25.912  11.891
30612W        W 2283  24.552  33.709   2.902
30613W        W 2284   4.368   5.686  11.231
30614W        W 2285  16.745  44.427   2.858
30615W        W 2286   6.222  22.430   2.286
30616W        W 2287   1.234   8.913   0.854
30617W        W 2288   4.276  22.289  10.591
30618W        W 2289   6.398  37.851  12.473
30619W        W 2290  31.057   6.702   2.524
30620W        W 2291  24.030  38.356   5.568
30621W        W 2292  28.059   5.567   5.765
30622W        W 2293  38.072  16.060   2.345
30623W        W 2294  41.972  36.864  14.490
30624W        W 2295  21.458  25.945   1.351
30625W        W 2296  32.979  44.348  14.282
30626W        W 2297  33.869  35.288   3.117
30627W        W 2298  36.890  24.733   3.090
30628W        W 2299  27.674  21.105  11.196
30629W        W 2300  23.769  12.868  14.413
30630W        W 2301  42.722  21.684  14.197
30631W        W 2302  28.523  30.634   2.198
30632W        W 2303  14.241   0.867  13.862
30633W        W 2304  41.863  37.880   2.889
30634W        W 2305  13.858   4.339  11.993
30635W        W 2306  43.228  12.725   1.913
30636W        W 2307  10.118  24.708   0.790
30637W        W 2308  36.700  10.419  10.322
30638W        W 2309  42.550  35.663   3.323
30639W        W 2310  28.926  10.680   4.717
30640W        W 2311  31.153  11.376   0.255
30641W        W 2312  37.783  23.539   2.755
30642W        W 2313   1.408   8.238  12.556
30643W        W 2314   1.271  26.705   4.240
30644W        W 2315  14.411  27.557  11.938
30645W        W 2316  15.033  36.885  11.986
30646W        W 2317   6.209  43.526   3.340
30647W        W 2318  26.276   1.221   3.739
30648W        W 2319  26.328  14.628  10.773
30649W        W 2320  13.505  27.388  13.479
30650W        W 2321  37.262  14.601   4.310
30651W        W 2322   5.385   2.024   2.233
30652W        W 2323  13.614  13.091  13.881
30653W        W 2324  37.453  22.088   1.296
30654W        W 2325   6.957  18.244   2.841
30655W        W 2326  29.703  19.646   4.669
30656W        W 2327  42.264  23.026   4.486
30657W        W 2328   4.877  35.905   2.766
30658W        W 2329  27.176  42.757  14.843
30659W        W 2330  14.541  30.837  14.269
30660W        W 2331  23.184  26.996   0.425
30661W        W 2332   0.809  18.982  14.371
30662W        W 2333  42.299  25.179   2.925
30663W        W 2334  27.651  24.667   4.214
30664W        W 2335  11.258  29.400  11.503
30665W        W 2336  41.751  14.259  12.947
30666W        W 2337  20.138  43.773  12.170
30667W        W 2338  37.653   7.731   4.222
30668W        W 2339  24.481  26.948  11.879
30669W        W 2340  33.520   6.148  10.912
30670W        W 2341   1.831  20.344  14.449
30671W        W 2342   5.811   9.457  11.939
30672W        W 2343  32.184  31.381  10.682
30673W        W 2344  17.774  40.850   4.804
30674W        W 2345  17.661   1.874  11.661
30675W        W 2346  44.378  35.710   4.988
30676W        W 2347  44.447  35.505   0.657
30677W        W 2348  33.528  22.206  12.112
30678W        W 2349   8.266  17.591   1.995
30679W        W 2350  36.848  41.561   0.279
30680W        W 2351   1.793  40.029   0.310
30681W        W 2352  32.639  24.443  11.638
30682W        W 2353   7.909  16.185   4.172
30683W        W 2354   7.743  35.823  13.357
30684W        W 2355  15.218  16.016  12.020
30685W        W 2356   9.728  20.803   3.287
30686W        W 2357  25.036   2.946   0.266
30687W        W 2358  22.089  35.059  14.866
30688W        W 2359  14.286  36.344  14.319
30689W        W 2360  35.151  36.031   2.404
30690W        W 2361   6.991  38.280  12.444
30691W        W 2362   7.292  23.996  13.969
30692W        W 2363  27.411   8.975  10.546
30693W        W 2364  41.746  37.651  14.911
30694W        W 2365  37.656   5.748   2.103
30695W        W 2366   5.804  15.809   0.925
30696W        W 2367  13.235   9.799   1.243
30697W        W 2368  38.599   3.670   0.935
30698W        W 2369   2.781  23.715   2.726
30699W        W 2370  23.137   3.438  12.574
30700W        W 2371  23.169  11.242   0.844
30701W        W 2372  24.218  20.584  14.466
30702W        W 2373  43.821   6.096   0.749
30703W        W 2374   8.401  27.979  14.449
30704W        W 2375   8.004  33.037  13.933
30705W        W 2376  33.544  34.561  11.599
30706W        W 2377   9.812  28.885  11.218
30707W        W 2378   4.616  37.351   0.296
30708W        W 2379   1.075   9.571  13.532
30709W        W 2380  26.900   5.375  13.163
30710W        W 2381  24.612  33.645  12.615
30711W        W 2382  20.704  28.842  14.839
30712W        W 2383  22.670   0.983  14.379
30713W        W 2384  19.142   6.511  10.961
30714W        W 2385  38.880  12.852   1.360
30715W        W 2386  43.767  36.805   1.927
30716W        W 2387   7.603  33.030   3.778
30717W        W 2388  24.137  33.600   2.362
30718W        W 2389  15.230  18.527  14.938
30719W        W 2390  36.556  33.684   0.120
30720W        W 2391  14.565  18.211   4.096
30721W        W 2392  41.314  33.605   3.748
30722W        W 2393  35.058  30.179   3.142
30723W        W 2394  40.782   3.162   5.030
30724W        W 2395  30.848  33.272  10.828
30725W        W 2396  35.306  11.578   2.640
30726W        W 2397  21.273  39.866  11.417
30727W        W 2398  16.307  35.812   0.303
30728W        W 2399  37.373  25.599   0.355
30729W        W 2400  28.203  40.852   1.845
30730W        W 2401   3.492  42.947  13.799
30731W        W 2402  34.813  29.579  12.052
30732W        W 2403  39.359   0.714  14.515
30733W        W 2404  25.000  18.519  12.960
30734W        W 2405  17.887  30.115   1.941
30735W        W 2406  39.479  17.275  12.885
30736W        W 2407   9.071  31.599   4.358
30737W        W 2408  25.619  26.158  13.560
30738W        W 2409   5.266   1.322  14.652
30739W        W 2410  35.046  25.733  12.045
30740W        W 2411   8.875  21.120  12.097
30741W        W 2412   3.253  10.299  10.888
30742W        W 2413  34.454  22.185   4.999
30743W        W 2414  27.204  21.876   1.135
30744W        W 2415  12.748  25.751  12.978
30745W        W 2416  11.564  26.363   0.108
30746W        W 2417  20.638   9.672   1.241
30747W        W 2418  38.562  35.123   0.299
30748W        W 2419  18.776  32.026  12.625
30749W        W 2420  17.313  23.589  13.371
30750W        W 2421  41.110  39.292   4.154
30751W        W 2422  33.182  30.046  13.557
30752W        W 2423   9.184  38.546  14.466
30753W        W 2424  13.353  30.692   0.767
30754W        W 2425  34.166  14.253   4.744
30755W        W 2426  33.660  44.421   2.162
30756W        W 2427  43.710   4.762   0.726
30757W        W 2428  23.555  24.273  11.114
30758W        W 2429  11.401  31.873  12.428
30759W        W 2430  20.012  40.368   2.113
30760W        W 2431   6.375   2.320  14.911
30761W        W 2432  13.450  37.779   1.153
30762W        W 2433   3.410   9.405   5.160
30763W        W 2434  29.519   2.168   1.401
30764W        W 2435  34.616  42.753  13.935
30765W        W 2436  33.913   8.791   2.206
30766W        W 2437  27.587   5.363  12.535
30767W        W 2438  40.407  24.297   4.574
30768W        W 2439   0.338  31.199  12.506
30769W        W 2440   3.505  30.412   4.280
30770W        W 2441  12.583  33.114  11.658
30771W        W 2442   5.943  32.680   2.859
30772W        W 2443  40.860  33.541  11.195
30773W        W 2444   6.840  39.509  12.965
30774W        W 2445  34.568  30.707   2.324
30775W        W 2446  21.289   8.706  14.623
30776W        W 2447  14.128  17.762   0.542
30777W        W 2448   3.220  10.777  12.012
30778W        W 2449  38.577   3.703  12.420
30779W        W 2450  19.308  19.661   4.204
30780W        W 2451  35.105   7.871  13.978
30781W        W 2452  23.422  27.691   0.013
30782W        W 2453  27.526  11.845  14.845
30783W        W 2454   4.500  23.507  13.826
30784W        W 2455   3.134  43.293  13.669
30785W        W 2456  17.604  33.454  13.129
30786W        W 2457  28.439  36.423  14.927
30787W        W 2458   7.916   6.246  14.878
30788W        W 2459   8.103   9.050  10.477
30789W        W 2460   5.522   8.880   4.547
30790W        W 2461  39.729  11.187   1.160
30791W        W 2462  28.625   5.360  13.588
30792W        W 2463  16.123  42.323  12.353
30793W        W 2464  14.555  26.703  14.347
30794W        W 2465   6.602   5.449  11.503
30795W        W 2466  25.748   2.282  13.830
30796W        W 2467  32.372  22.484   4.228
30797W        W 2468  20.074  26.264   5.080
30798W        W 2469   2.139  25.127   0.333
30799W        W 2470  20.800  34.868   1.149
30800W        W 2471   5.943  34.545  11.557
30801W        W 2472   0.505  39.271   0.191
30802W        W 2473  11.837  27.472   4.649
30803W        W 2474  34.318  26.605  12.618
30804W        W 2475  11.131  17.284   0.574
30805W        W 2476  37.904   4.974   3.739
30806W        W 2477  35.289   4.439  11.534
30807W        W 2478  32.438  20.822  14.889
30808W        W 2479  26.712   4.692   3.078
30809W        W 2480  11.397  20.683  14.593
30810W        W 2481  23.232  21.110   9.983
30811W        W 2482  18.339   4.928   2.883
30812W        W 2483  29.458   6.657   1.724
30813W        W 2484  37.972  23.914   3.575
30814W        W 2485  13.080  36.173  11.087
30815W        W 2486  41.016  32.031   2.359
30816W        W 2487  32.512  30.514  10.496
30817W        W 2488  19.367  24.659  12.464
30818W        W 2489   5.055  16.911   1.053
30819W        W 2490  34.645  36.619  10.606
30820W        W 2491   7.487  33.876  12.331
30821W        W 2492  21.795  22.042   1.224
30822W        W 2493  26.121  14.900  14.264
30823W        W 2494  28.713  18.471   4.575
30824W        W 2495  36.657  12.025   1.869
30825W        W 2496  21.011  26.113   2.263
30826W        W 2497  17.249   2.071   2.300
30827W        W 2498  27.520   1.905   3.618
30828W        W 2499  40.290   5.906  13.280
30829W        W 2500   3.680  13.270  13.158
30830W        W 2501  23.622  27.297   0.351
30831W        W 2502   3.289  15.613   4.977
30832W        W 2503  25.189  29.391  13.084
30833W        W 2504  11.847  27.374  14.981
30834W        W 2505  28.079  13.112  11.103
30835W        W 2506   9.828  41.798  10.780
30836W        W 2507  26.693  21.293  10.255
30837W        W 2508  26.782  12.698   4.089
30838W        W 2509  41.962  18.921   1.335
30839W        W 2510  28.536  22.640   4.666
30840W        W 2511  12.189  24.739  12.425
30841W        W 2512  31.014  19.559  11.146
30842W        W 2513   9.897  10.660  14.944
30843W        W 2514  44.317  13.242  12.044
30844W        W 2515  22.042  30.394   4.559
30845W        W 2516  16.099  26.761   1.185
30846W        W 2517  43.928  24.162  12.845
30847W        W 2518   2.758  42.386  14.857
30848W        W 2519  33.545  42.483   4.918
30849W        W 2520  21.613   5.752  12.963
30850W        W 2521  39.892  41.090   2.344
30851W        W 2522  20.926  44.704  10.739
30852W        W 2523  14.028   4.448  12.480
30853W        W 2524  22.980  23.639  11.519
30854W        W 2525  34.485   9.886   4.641
30855W        W 2526  21.466  33.079  12.477
30856W        W 2527  19.694  16.971  13.301
30857W        W 2528  42.888  44.753   0.293
30858W        W 2529  28.033  41.629  13.895
30859W        W 2530   0.657  12.886   4.987
30860W        W 2531   0.854   1.474  13.857
30861W        W 2532  37.603  17.764   1.263
30862W        W 2533  43.524  12.013   1.244
30863W        W 2534  42.305  40.123  11.714
30864W        W 2535   7.897  38.690   3.675
30865W        W 2536  33.756  23.647   0.208
30866W        W 2537  31.967   2.780  13.393
30867W        W 2538  40.017   1.791  14.955
30868W        W 2539  21.184  27.443  10.619
30869W        W 2540   3.136  35.853  11.867
30870W        W 2541  23.245   3.806  11.978
30871W        W 2542   7.383  41.908   4.099
30872W        W 2543   5.401   7.822   1.632
30873W        W 2544  28.628  28.454   0.955
30874W        W 2545  14.200  35.099  13.414
30875W        W 2546  34.471  10.689  13.843
30876W        W 2547  31.424  33.417  11.980
30877W        W 2548   5.242  43.150   0.416
30878W        W 2549  26.392  10.343  11.649
30879W        W 2550  17.618  23.078   4.758
30880W        W 2551  19.259  17.084   1.435
30881W        W 2552  13.952   6.448  10.596
30882W        W 2553  23.927  38.208  13.730
30883W        W 2554  17.120  16.040  13.213
30884W        W 2555  26.150  34.605  11.135
30885W        W 2556  27.082  38.617   1.797
30886W        W 2557  35.498  33.120  14.963
30887W        W 2558   2.020  26.698  14.459
30888W        W 2559   8.583  31.026  12.321
30889W        W 2560  38.319   6.226  11.137
30890W        W 2561   5.657  41.955  11.105
30891W        W 2562  27.047   0.323  11.153
30892W        W 2563  17.294  43.027   1.348
30893W        W 2564  44.781  21.813   0.433
30894W        W 2565   4.694  43.769  11.589
30895W        W 2566  17.890   4.401   4.114
30896W        W 2567  26.597  34.311  12.048
30897W        W 2568   0.586  22.322  10.220
30898W        W 2569  18.631  22.586  12.995
30899W        W 2570  23.708  25.786   3.308
30900W        W 2571  23.095  11.204   0.299
30901W        W 2572   0.567  44.371  13.349
30902W        W 2573  15.812  40.391   4.283
30903W        W 2574  36.801   5.059  10.198
30904W        W 2575  25.751  33.869  13.059
30905W        W 2576  29.869   7.791  14.854
30906W        W 2577   5.343  38.819  12.618
30907W        W 2578  41.533  34.970  13.305
30908W        W 2579  42.973  38.508  13.616
30909W        W 2580  18.274  26.615  10.630
30910W        W 2581  23.858   8.759  12.604
30911W        W 2582   6.652  37.192  13.315
30912W        W 2583  41.515  33.979   2.467
30913W        W 2584   3.556  15.149   4.821
30914W        W 2585  43.855  34.668   2.062
30915W        W 2586  23.672   1.921   1.120
30916W        W 2587  28.651  42.310   0.557
30917W        W 2588   7.834  26.668   1.014
30918W        W 2589  10.244   9.653   1.889
30919W        W 2590  14.125  19.255   0.353
30920W        W 2591  13.597  33.058  12.896
30921W        W 2592  44.481  13.050  14.420
30922W        W 2593   0.935   0.958  13.765
30923W        W 2594   9.841  33.439  12.594
30924W        W 2595   8.426  34.372  13.420
30925W        W 2596  31.846  36.327   0.296
30926W        W 2597  30.429   3.733  13.785
30927W        W 2598  43.791  40.998  12.166
30928W        W 2599   7.238  40.087   0.205
30929W        W 2600  37.870  11.065   3.728
30930W        W 2601  43.876   8.305   1.804
30931W        W 2602  33.066  14.565   4.021
30932W        W 2603  13.255  21.680   4.051
30933W        W 2604  11.489  41.461   4.087
30934W        W 2605  17.686  39.484   4.590
30935W        W 2606  37.435   3.980   0.360
30936W        W 2607  22.731  43.040   2.370
30937W        W 2608   1.255   7.198   0.895
30938W        W 2609  21.617  11.135  11.361
30939W        W 2610  24.026  11.164  14.788
30940W        W 2611  23.108  41.043   0.780
30941W        W 2612  40.170  27.393  11.107
30942W        W 2613  38.002  32.599   3.280
30943W        W 2614  24.151  39.482  13.879
30944W        W 2615  16.680  27.353  10.547
30945W        W 2616  13.940   4.993   2.681
30946W        W 2617  26.167  25.975   1.172
30947W        W 2618  18.333  39.106  11.055
30948W        W 2619  13.073  35.384  12.601
30949W        W 2620  16.066  25.063   1.786
30950W        W 2621  17.972   7.957  11.396
30951W        W 2622   6.403   9.932  13.064
30952W        W 2623  23.051  34.892   4.512
30953W        W 2624  33.401  29.806  12.657
30954W        W 2625   4.361  27.146   2.486
30955W        W 2626  16.161  35.379   4.887
30956W        W 2627  19.253  31.541   4.640
30957W        W 2628   6.725  27.058   1.330
30958W        W 2629  44.105  40.289  14.399
30959W        W 2630  27.139  18.792   2.320
30960W        W 2631   8.732  44.488  12.655
30961W        W 2632   4.856  43.505   4.602
30962W        W 2633  12.109  43.585  10.914
30963W        W 2634   5.977  35.096   1.730
30964W        W 2635  41.279   1.451   3.651
30965W        W 2636  44.570  13.306   2.179
30966W        W 2637   2.362   8.304   3.443
30967W        W 2638  44.996  18.652  13.786
30968W        W 2639  42.984  27.531  12.407
30969W        W 2640  41.360   8.999   0.688
30970W        W 2641  36.415  37.417   0.029
30971W        W 2642  22.628   1.537  11.840
30972W        W 2643   8.190  37.328  10.590
30973W        W 2644  33.145  43.531   4.702
30974W        W 2645  11.906   5.248  10.173
30975W        W 2646  29.080  34.631  12.018
30976W        W 2647  40.286  16.843  10.577
30977W        W 2648  33.359   8.795   2.295
30978W        W 2649  42.995  17.203   3.780
30979W        W 2650  11.571  41.932  14.335
30980W        W 2651  36.613   5.977   0.471
30981W        W 2652  13.059  40.612   5.173
30982W        W 2653  23.224  43.335   1.305
30983W        W 2654  29.642  26.949   0.843
30984W        W 2655  23.449  15.385  11.186
30985W        W 2656  42.034  24.066  13.954
30986W        W 2657  38.558  40.692   2.637
30987W        W 2658  27.129  40.477   4.849
30988W        W 2659  12.234   4.173   0.408
30989W        W 2660   7.894  25.582   1.020
30990W        W 2661   1.448   2.295  10.745
30991W        W 2662  15.712  31.972  13.911
30992W        W 2663  14.312  17.140  13.519
30993W        W 2664  25.002  44.230   3.295
30994W        W 2665  38.818   2.716   3.373
30995W        W 2666  31.466   9.389   2.229
30996W        W 2667  22.274   8.183  12.022
30997W        W 2668  21.041   0.415  13.083
30998W        W 2669  19.050  24.381  10.323
30999W        W 2670  36.058  10.011  10.758
31000W        W 2671  24.952  28.000   0.393
31001W        W 2672  26.415  12.326   4.159
31002W        W 2673  13.638  27.455   1.201
31003W        W 2674  23.547  19.069  11.091
31004W        W 2675   5.630  33.631  14.882
31005W        W 2676  39.963  34.859   3.628
31006W        W 2677  21.501  35.941   0.057
31007W        W 2678  20.511  11.590   1.789
31008W        W 2679  23.550   7.610  11.165
31009W        W 2680  13.159   9.160  11.462
31010W        W 2681  20.697  12.144  12.625
31011W        W 2682  37.170  36.494   4.390
31012W        W 2683  44.489  34.787  14.710
31013W        W 2684  27.171  35.092   0.463
31014W        W 2685   8.650  30.218  14.034
31015W        W 2686  38.082  22.001   3.255
31016W        W 2687  34.960  21.520   1.517
31017W        W 2688  34.033  43.677  14.763
31018W        W 2689  10.453  25.010   1.331
31019W        W 2690  12.797  10.724   1.305
31020W        W 2691  43.225  10.579   2.723
31021W        W 2692  29.488   2.974  13.775
31022W        W 2693  23.072  27.946   0.313
31023W        W 2694  36.577  40.827  11.066
31024W        W 2695  40.674  32.864   2.685
31025W        W 2696  41.559  29.511   3.596
31026W        W 2697  22.859  40.524   3.358
31027W        W 2698  28.933  42.705   0.811
31028W        W 2699  27.106  16.267   3.560
31029W        W 2700  31.710   0.582  11.714
31030W        W 2701  21.142  13.446   3.166
31031W        W 2702  31.194  34.043   1.498
31032W        W 2703  42.223  34.539  10.794
31033W        W 2704  33.200  41.473   4.764
31034W        W 2705   1.609   9.672   3.603
31035W        W 2706  21.459  40.285   1.178
31036W        W 2707  33.696  20.629  13.599
31037W        W 2708  40.933  39.212   0.930
31038W        W 2709   5.859  27.212  12.840
31039W        W 2710  29.184  17.180  10.453
31040W        W 2711  25.356   4.717   4.541
31041W        W 2712  10.260  43.908  10.130
31042W        W 2713  32.415   1.268  13.022
31043W        W 2714  38.808   4.173   4.889
31044W        W 2715  42.873  41.571  12.995
31045W        W 2716   5.045  42.885  14.961
31046W        W 2717   1.681  28.230   0.447
31047W        W 2718   5.129  15.643  11.946
31048W        W 2719  32.445  19.231  14.977
31049W        W 2720  16.705  10.679  14.386
31050W        W 2721  40.504  25.130   4.202
31051W        W 2722  38.975  21.341  14.948
31052W        W 2723   0.207  21.211  13.141
31053W        W 2724  33.361  36.464   3.212
31054W        W 2725  35.018   8.912   2.177
31055W        W 2726   7.096  15.288  11.102
31056W        W 2727  16.293   2.007  13.572
31057W        W 2728  27.502  22.751  13.127
31058W        W 2729  23.559  37.446   3.257
31059W        W 2730  35.926  36.337  11.075
31060W        W 2731  14.218   1.366  10.767
31061W        W 2732  20.348  19.362  12.878
31062W        W 2733  19.209  30.660   4.688
31063W        W 2734  40.489  38.133   0.454
31064W        W 2735   5.192  16.623  13.564
31065W        W 2736   5.196  22.125  11.912
31066W        W 2737  18.168  40.288   0.290
31067W        W 2738  21.885   0.416  11.938
31068W        W 2739  30.378  20.640   1.050
31069W        W 2740  39.060  28.984   3.956
31070W        W 2741  13.127   5.523   0.425
31071W        W 2742  21.062  43.723   1.825
31072W        W 2743  37.949   1.013   3.233
31073W        W 2744  40.371  16.880   4.135
31074W        W 2745  44.439  42.638  11.832
31075W        W 2746  33.923  31.069   4.185
31076W        W 2747  33.795  27.456  14.139
31077W        W 2748  34.535  13.369  10.986
31078W        W 2749  19.272  31.495   3.583
31079W        W 2750  43.867  21.980  13.937
31080W        W 2751  34.140  11.208   0.961
31081W        W 2752  21.724  44.528   2.858
31082W        W 2753   1.401   6.960   3.836
31083W        W 2754   4.356  21.633  13.070
31084W        W 2755   0.177  31.576  11.709
31085W        W 2756   5.186  18.819  10.990
31086W        W 2757  25.006  10.212   1.795
31087W        W 2758  20.050   3.729   3.132
31088W        W 2759  17.567   6.420   1.405
31089W        W 2760  35.274  37.585  12.178
31090W        W 2761  24.511  42.517  11.913
31091W        W 2762  40.089  44.823  12.556
31092W        W 2763   9.845   4.171   4.511
31093W        W 2764  31.338   7.956  12.698
31094W        W 2765  30.544  32.061  13.365
31095W        W 2766  44.244  44.997   2.891
31096W        W 2767  22.967  36.806  12.965
31097W        W 2768  23.721  25.548  10.784
31098W        W 2769   3.457  10.154   4.689
31099W        W 2770  25.528  20.323  12.393
31100W        W 2771  14.939  19.704   3.537
31101W        W 2772  36.953  27.649   0.422
31102W        W 2773  12.895   3.917   4.547
31103W        W 2774  41.296   5.981  13.420
31104W        W 2775  26.223  16.659   4.217
31105W        W 2776  15.175  30.131  11.203
31106W        W 2777  12.171  15.574  12.514
31107W        W 2778  42.720  35.331   4.168
31108W        W 2779   4.802   9.855  11.651
31109W        W 2780  38.288  36.434  10.405
31110W        W 2781  38.989  19.842  13.494
31111W        W 2782   6.069   6.708   2.086
31112W        W 2783  31.682  11.759  10.689
31113W        W 2784  22.783  16.718   2.281
31114W        W 2785  38.803   6.777   2.221
31115W        W 2786  22.508  23.575   2.954
31116W        W 2787   1.400  28.539  10.549
31117W        W 2788   6.856  23.265   1.427
31118W        W 2789  36.345   3.762   4.157
31119W        W 2790  25.359  37.465  11.693
31120W        W 2791   0.150  19.781   1.491
31121W        W 2792  28.040  33.448  14.836
31122W        W 2793   3.828  36.658   4.582
31123W        W 2794  22.708   7.886   4.139
31124W        W 2795  40.212   3.305  14.930
31125W        W 2796  33.077  25.726  10.621
31126W        W 2797  27.409  21.039  11.619
31127W        W 2798   1.549  28.533   2.581
31128W        W 2799  25.851  37.102   2.989
31129W        W 2800  14.785  20.569  11.030
31130W        W 2801   2.935  29.597  12.618
31131W        W 2802  38.152  39.924   2.377
31132W        W 2803  39.045  19.074   0.262
31133W        W 2804  28.162   2.981  14.004
31134W        W 2805  37.382  42.436   2.214
31135W        W 2806  29.417  15.802   3.651
31136W        W 2807  34.203  17.194  12.338
31137W        W 2808  25.580  16.141  12.207
31138W        W 2809  44.344  10.986   5.494
31139W        W 2810  16.205  23.149   1.885
31140W        W 2811  41.813  32.459   0.824
31141W        W 2812  44.785  31.980   2.394
31142W        W 2813  40.581  33.418  13.461
31143W        W 2814   9.593  21.483  12.501
31144W        W 2815   1.793  25.011   5.171
31145W        W 2816  42.791   5.357   4.376
31146W        W 2817  19.589   2.988   4.056
31147W        W 2818  43.348   7.727   1.051
31148W        W 2819  20.063  33.140   0.022
31149W        W 2820  42.469  26.697  13.440
31150W        W 2821   9.897  16.370   2.813
31151W        W 2822  34.972  21.517   4.799
31152W        W 2823  22.673   7.213  14.494
31153W        W 2824   9.366   6.073  12.050
31154W        W 2825  30.097  42.370   2.436
31155W        W 2826  18.115  26.103   0.335
31156W        W 2827  36.394  32.367   4.150
31157W        W 2828   3.440  22.829   4.294
31158W        W 2829  29.688  38.807   2.073
31159W        W 2830  15.643   9.270   4.716
31160W        W 2831  23.590  17.038   2.504
31161W        W 2832  11.779  35.307   1.780
31162W        W 2833  25.730  32.565  14.487
31163W        W 2834   5.659  26.662   3.699
31164W        W 2835  37.646  40.716  14.454
31165W        W 2836  22.412  10.997  10.259
31166W        W 2837   6.844   9.436   2.346
31167W        W 2838   8.863  14.738   0.353
31168W        W 2839  29.029  14.050   2.416
31169W        W 2840  15.757  12.353  11.037
31170W        W 2841  28.604  35.250  13.773
31171W        W 2842  44.894  41.570  12.280
31172W        W 2843  41.963  17.744   4.069
31173W        W 2844  18.981  35.020   2.534
31174W        W 2845  10.581   3.305  12.141
31175W        W 2846   8.205  35.595   4.632
31176W        W 2847  11.163  33.593   4.113
31177W        W 2848  22.718   9.696  12.377
31178W        W 2849  13.341  44.970   0.801
31179W        W 2850  37.416  16.761   1.979
31180W        W 2851   8.769  27.966  10.383
31181W        W 2852  38.311   8.858  13.288
31182W        W 2853  14.483  27.143   2.119
31183W        W 2854  16.723  14.682   0.339
31184W        W 2855  28.170  44.328   2.102
31185W        W 2856  38.479   4.932   3.203
31186W        W 2857  23.003  10.375   0.659
31187W        W 2858  27.419  14.277  14.597
31188W        W 2859  23.100  42.056   3.844
31189W        W 2860  16.382   7.182  11.006
31190W        W 2861  28.167   5.052  11.694
31191W        W 2862  42.460   2.214   1.913
31192W        W 2863   4.285  22.116  13.332
31193W        W 2864  33.524  10.220   4.549
31194W        W 2865  19.746  21.201  12.859
31195W        W 2866  41.032  14.834   3.716
31196W        W 2867  37.881  20.042   3.222
31197W        W 2868  11.882  39.287   3.783
31198W        W 2869  28.893   0.927   3.192
31199W        W 2870  32.250   7.880   1.219
31200W        W 2871  31.890  44.346   1.533
31201W        W 2872  26.993  41.860  11.892
31202W        W 2873   6.866  29.850  11.590
31203W        W 2874  32.906  29.424   3.699
31204W        W 2875   6.426  40.253  11.176
31205W        W 2876   9.371  40.991  14.808
31206W        W 2877  15.732  26.232  10.948
31207W        W 2878  30.117  17.026  13.567
31208W        W 2879  43.232   5.312  14.433
31209W        W 2880  40.203  24.079  14.002
31210W        W 2881  14.799   5.714  12.468
31211W        W 2882  33.676  17.237  12.407
31212W        W 2883  27.245  38.600   2.876
31213W        W 2884  35.864  28.774   1.664
31214W        W 2885   0.987  23.869  13.975
31215W        W 2886  20.207  32.832   3.152
31216W        W 2887  17.689  38.444   3.767
31217W        W 2888  31.952  29.164   4.931
31218W        W 2889  43.303  19.085   0.714
31219W        W 2890   6.864  19.797   3.674
31220W        W 2891  21.990  26.457   2.400
31221W        W 2892  30.898  16.737   1.896
31222W        W 2893   4.821  31.848   5.119
31223W        W 2894  12.773   3.232   3.232
31224W        W 2895   1.224  14.446  10.713
31225W        W 2896  25.061   4.467  12.034
31226W        W 2897   6.361  26.597   3.125
31227W        W 2898  14.999  34.699  14.907
31228W        W 2899  17.775  33.886  12.620
31229W        W 2900  38.926  44.291   4.815
31230W        W 2901  34.702   3.835   0.302
31231W        W 2902  17.775  34.597  13.808
31232W        W 2903  36.449  35.150   0.832
31233W        W 2904   8.763  25.908   0.524
31234W        W 2905  23.280  20.339  13.515
31235W        W 2906  10.376  12.342   2.804
31236W        W 2907  37.950  13.629   3.879
31237W        W 2908   4.385  21.990   1.581
31238W        W 2909   9.759  21.713  12.077
31239W        W 2910  33.280  31.123  14.975
31240W        W 2911  11.351  28.223   2.596
31241W        W 2912   2.957   8.730  11.118
31242W        W 2913  18.042  40.138  13.551
31243W        W 2914  36.556  14.904   1.106
31244W        W 2915  14.273  29.703   2.104
31245W        W 2916  15.100   1.384  11.905
31246W        W 2917   5.112  41.458  14.570
31247W        W 2918   7.909   6.047  12.142
31248W        W 2919  26.476  29.741   2.158
31249W        W 2920  40.536   8.694  12.375
31250W        W 2921   0.354  44.428   0.985
31251W        W 2922  30.207   9.992   4.176
31252W        W 2923  34.443  11.045   2.638
31253W        W 2924  24.706  13.581  11.263
31254W        W 2925   6.833  28.456  13.756
31255W        W 2926   1.336   5.421  14.716
31256W        W 2927  27.427  42.793  12.022
31257W        W 2928  24.688  34.613  13.453
31258W        W 2929  15.089  24.028  13.889
31259W        W 2930   4.732  35.083   3.187
31260W        W 2931   7.482  12.799  10.859
31261W        W 2932  28.142  18.845   2.420
31262W        W 2933  37.859  19.739   2.771
31263W        W 2934  23.742  14.308  13.524
31264W        W 2935  12.507  31.728  13.415
31265W        W 2936  11.250  20.954   4.095
31266W        W 2937  19.760  44.255   1.358
31267W        W 2938   6.249  29.445   1.775
31268W        W 2939  33.409   3.260   3.077
31269W        W 2940   7.204  21.968  12.255
31270W        W 2941  34.203  33.573   0.790
31271W        W 2942  40.609  25.674   4.150
31272W        W 2943  13.493  42.798  13.994
31273W        W 2944   5.368  16.082   4.159
31274W        W 2945  30.716  26.447   3.793
31275W        W 2946  12.381   8.349   4.796
31276W        W 2947  31.265   1.934  12.847
31277W        W 2948   9.322  24.869  12.059
31278W        W 2949  39.257   6.058   3.396
31279W        W 2950  36.405  33.339  11.849
31280W        W 2951  38.867   5.954  10.755
31281W        W 2952   1.444  14.308   2.689
31282W        W 2953  18.312  32.494  14.342
31283W        W 2954   6.795  30.405  13.602
31284W        W 2955  25.617  41.656  12.532
31285W        W 2956  24.265  20.830  13.952
31286W        W 2957  31.068  35.389   2.680
31287W        W 2958  36.965   9.321  14.482
31288W        W 2959  18.147  23.449  11.613
31289W        W 2960  24.800  17.675   3.230
31290W        W 2961  19.017   2.686   2.934
31291W        W 2962  41.922  42.296  11.575
31292W        W 2963  16.251  16.627  13.547
31293W        W 2964  18.728  44.779   0.817
31294W        W 2965  31.388   3.420  12.427
31295W        W 2966  10.465  33.047  11.822
31296W        W 2967  15.481  44.355  11.558
31297W        W 2968   3.874  25.037  10.391
31298W        W 2969  44.754   7.474   2.281
31299W        W 2970  25.062  10.809  14.798
31300W        W 2971   2.720  25.131  13.520
31301W        W 2972  41.703  25.407  14.531
31302W        W 2973  35.683  40.862  11.362
31303W        W 2974  11.445  10.869  11.156
31304W        W 2975  28.103  10.092  14.842
31305W        W 2976   7.417  15.479  12.049
31306W        W 2977  20.631  11.892   4.387
31307W        W 2978  41.642  11.984   3.301
31308W        W 2979  43.960  18.179  14.855
31309W        W 2980   9.657  25.757   2.414
31310W        W 2981  16.632  34.189   3.169
31311W        W 2982  29.594  39.319   2.228
31312W        W 2983  30.240  32.484   0.021
31313W        W 2984  11.775  27.736   3.605
31314W        W 2985  19.600   3.655   0.449
31315W        W 2986   9.308  10.406   4.161
31316W        W 2987  21.234   9.225  14.782
31317W        W 2988  17.825   0.414   2.862
31318W        W 2989  25.127  40.340  11.929
31319W        W 2990  34.059   9.193  13.533
31320W        W 2991  15.830  18.700  13.069
31321W        W 2992  19.086   7.561   4.110
31322W        W 2993   2.231   4.189   4.095
31323W        W 2994   1.977   1.851  14.903
31324W        W 2995  30.063   5.241  14.929
31325W        W 2996  40.948   0.009   1.835
31326W        W 2997   4.503  11.486   4.575
31327W        W 2998  13.594  22.072  13.674
31328W        W 2999  42.518  43.222   3.004
31329W        W 3000  23.494  32.836  12.929
31330W        W 3001  10.068  42.983   2.651
31331W        W 3002  30.008  29.972   0.023
31332W        W 3003  16.798  31.931  10.948
31333W        W 3004   9.682   4.456  11.213
31334W        W 3005  37.008  27.236   1.302
31335W        W 3006  32.534   3.465  11.320
31336W        W 3007  24.271  13.320  11.446
31337W        W 3008  28.258  39.499  11.707
31338W        W 3009  14.057  26.954  12.922
31339W        W 3010  38.308  24.968   4.089
31340W        W 3011  21.827  15.225  12.671
31341W        W 3012  16.408   1.623  10.553
31342W        W 3013  22.016  12.321  14.360
31343W        W 3014  35.601  10.291  14.697
31344W        W 3015  23.077  17.795   2.721
31345W        W 3016  10.715  31.000   2.796
31346W        W 3017  40.514  30.985   3.320
31347W        W 3018  20.885   5.387  14.059
31348W        W 3019  24.095   7.215   3.619
31349W        W 3020  23.622  33.139  12.071
31350W        W 3021  37.080  34.859   3.797
31351W        W 3022  38.753  21.495  12.486
31352W        W 3023  37.553  12.280  14.203
31353W        W 3024  34.158  26.684   0.829
31354W        W 3025  11.324  10.619  13.809
31355W        W 3026  20.802   6.375   2.907
31356W        W 3027  34.239  22.664  10.653
31357W        W 3028  10.662  39.373   1.336
31358W        W 3029  21.990  31.995   2.389
31359W        W 3030   9.373  22.019   3.621
31360W        W 3031  29.787  21.212   1.230
31361W        W 3032  32.550  38.569   2.422
31362W        W 3033  30.668   9.774   2.364
31363W        W 3034  11.345  25.728  13.948
31364W        W 3035  13.418   2.362  14.803
31365W        W 3036  25.514  23.653  12.180
31366W        W 3037  38.358  11.186   3.621
31367W        W 3038  31.721  14.106  14.181
31368W        W 3039  34.967  36.486  14.801
31369W        W 3040  44.402  21.291  11.965
31370W        W 3041  19.670  44.043  14.726
31371W        W 3042  40.935  13.184  13.519
31372W        W 3043  24.500  13.130  11.021
31373W        W 3044  10.180  22.010  13.437
31374W        W 3045  32.265  13.193   4.541
31375W        W 3046  16.866  28.930   1.679
31376W        W 3047  10.162   8.803  10.058
31377W        W 3048  30.796  35.853  13.452
31378W        W 3049  33.170   5.273   2.338
31379W        W 3050  10.423   1.364  10.887
31380W        W 3051   5.975  32.074  13.417
31381W        W 3052  35.468   6.123  14.626
31382W        W 3053   7.845  35.812   0.231
31383W        W 3054  20.014  29.823  11.100
31384W        W 3055  31.938  10.896   2.917
31385W        W 3056  14.744   0.640   1.396
31386W        W 3057  17.720  35.339  13.048
31387W        W 3058  13.258   8.238   0.119
31388W        W 3059  24.894   1.676  10.581
31389W        W 3060  32.795   1.175  14.321
31390W        W 3061  30.170   5.927   2.760
31391W        W 3062   8.378   6.834   2.801
31392W        W 3063  43.222  16.189  13.853
31393W        W 3064   9.120  26.153   4.580
31394W        W 3065   0.467  27.949   2.163
31395W        W 3066  20.611   5.005  10.951
31396W        W 3067  26.052  44.881   1.735
31397W        W 3068  43.683  26.069   3.597
31398W        W 3069   4.896  17.599  14.051
31399W        W 3070   9.557  26.122   1.012
31400W        W 3071  43.772  13.333   2.643
31401W        W 3072  33.753  25.430   1.789
31402W        W 3073  35.903  27.155  12.829
31403W        W 3074  41.862  22.201   3.246
31404W        W 3075  30.835   6.695  12.402
31405W        W 3076  25.346  16.194  13.176
31406W        W 3077  44.802   7.594  14.424
31407W        W 3078  40.210  18.565   5.173
31408W        W 3079  26.441  25.538  11.988
31409W        W 3080   6.959  25.435  14.456
31410W        W 3081  32.530  23.113  14.690
31411W        W 3082  43.327  11.622   2.753
31412W        W 3083  10.787   7.290  12.145
31413W        W 3084  31.007   5.682  14.967
31414W        W 3085  18.774  27.464  14.508
31415W        W 3086   6.151   9.844  12.622
31416W        W 3087  16.096  41.791  12.537
31417W        W 3088   6.724  21.980  11.391
31418W        W 3089  17.182   9.926  12.325
31419W        W 3090  42.205   6.760  13.472
31420W        W 3091   9.143  30.156  10.816
31421W        W 3092  23.686  25.109  11.500
31422W        W 3093  10.193  24.083  13.989
31423W        W 3094  13.592  40.448   4.340
31424W        W 3095  34.491  32.131   4.562
31425W        W 3096  28.501  14.326  13.992
31426W        W 3097  34.815   0.703   3.730
31427W        W 3098  42.797   4.199  10.647
31428W        W 3099  39.342   3.658   0.067
31429W        W 3100   4.483  14.326   4.195
31430W        W 3101  39.427  14.296   1.874
31431W        W 3102  14.186  18.867   2.694
31432W        W 3103  39.472  33.100  10.349
31433W        W 3104   8.315  32.629   1.778
31434W        W 3105  37.055   5.264  13.544
31435W        W 3106   7.824   8.318  10.796
31436W        W 3107  10.275  24.198  13.481
31437W        W 3108  31.970  23.224  12.986
31438W        W 3109  26.059  16.093   2.399
31439W        W 3110  12.886  44.315  12.915
31440W        W 3111  38.813  23.655  13.037
31441W        W 3112  22.200   2.260   2.622
31442W        W 3113  29.850  28.142  10.493
31443W        W 3114  33.443  44.362  12.976
31444W        W 3115  16.104  17.491  11.146
31445W        W 3116  21.153  19.374   3.148
31446W        W 3117  40.035  18.145  10.589
31447W        W 3118   5.177  23.224  12.286
31448W        W 3119   1.815  26.458   1.699
31449W        W 3120  12.357  19.220  12.081
31450W        W 3121  38.073  18.542   3.131
31451W        W 3122   4.923  12.074   2.833
31452W        W 3123  35.976  14.534   1.882
31453W        W 3124  21.044  13.849   1.361
31454W        W 3125  41.770   6.563  11.525
31455W        W 3126  41.907   8.060   3.060
31456W        W 3127  15.781   8.751   0.222
31457W        W 3128  37.359  22.848  12.579
31458W        W 3129  42.370  30.775  11.952
31459W        W 3130  42.215   6.361  11.693
31460W        W 3131  15.179  20.399   0.157
31461W        W 3132  41.567  14.660  12.648
31462W        W 3133  23.951   0.460  14.398
31463W        W 3134  38.286  14.757   4.157
31464W        W 3135   6.338  28.928  14.422
31465W        W 3136  24.927  10.353  11.156
31466W        W 3137  43.347  41.084  11.909
31467W        W 3138  39.249   3.000  10.685
31468W        W 3139  40.241  41.523  12.454
31469W        W 3140  44.828  20.582  11.871
31470W        W 3141   0.446  31.396   2.652
31471W        W 3142  32.610  41.812  11.466
31472W        W 3143  25.592  32.371  10.704
31473W        W 3144   8.111  20.522  11.866
31474W        W 3145   6.419  42.594   5.029
31475W        W 3146  25.877   0.866  11.111
31476W        W 3147  33.091  42.064  10.603
31477W        W 3148  36.125   3.467  14.354
31478W        W 3149  40.783  42.379  12.582
31479W        W 3150   1.807  24.716  13.531
31480W        W 3151  19.936   2.183  11.454
31481W        W 3152  31.526  27.142   4.348
31482W        W 3153  38.907  34.575   4.007
31483W        W 3154  32.488  18.712   2.672
31484W        W 3155  11.689   4.189   1.736
31485W        W 3156  19.356  30.457   2.331
31486W        W 3157  24.629  37.428  12.109
31487W        W 3158  34.595   3.475  14.294
31488W        W 3159  13.016  38.211  13.848
31489W        W 3160  42.288  21.272   1.307
31490W        W 3161   1.012   7.632  10.622
31491W        W 3162  23.074  25.933   2.965
31492W        W 3163  33.194  42.404  13.938
31493W        W 3164   4.717  32.595  14.527
31494W        W 3165  44.436  38.456  13.975
31495W        W 3166  22.580  19.363  12.411
31496W        W 3167  41.762   1.895   1.483
31497W        W 3168  22.680  19.501   2.676
31498W        W 3169  34.850  15.953  11.171
31499W        W 3170  10.354  17.148  13.536
31500W        W 3171  42.879  43.297  10.614
31501W        W 3172  15.789  39.874   0.904
31502W        W 3173   1.425  33.437  14.857
31503W        W 3174   0.791   3.987   4.198
31504W        W 3175   9.603  33.533   1.207
31505W        W 3176  20.765  13.618  14.358
31506W        W 3177  36.133  34.899   0.155
31507W        W 3178  19.527  43.235   2.769
31508W        W 3179  32.112   8.565  11.707
31509W        W 3180  25.450   4.520   4.056
31510W        W 3181   4.365  29.094  14.524
31511W        W 3182  14.776  40.314   1.443
31512W        W 3183  20.998   2.321   2.155
31513W        W 3184  20.503  25.970   2.295
31514W        W 3185  40.238  37.389  13.781
31515W        W 3186  15.895  31.154   0.149
31516W        W 3187  15.008  16.787   3.287
31517W        W 3188  34.254   0.177   0.277
31518W        W 3189   9.798  27.520   2.197
31519W        W 3190  14.314  43.487  10.596
31520W        W 3191  16.117   9.793  13.635
31521W        W 3192  39.207  15.537  14.442
31522W        W 3193  39.291  16.870  13.410
31523W        W 3194  19.218  40.072   3.220
31524W        W 3195  15.313   8.251   3.174
31525W        W 3196  27.678  41.929   2.926
31526W        W 3197  43.912  10.995   4.467
31527W        W 3198  12.256  30.731  13.679
31528W        W 3199   6.294   3.663   4.121
31529W        W 3200  29.216  24.713  11.544
31530W        W 3201  34.022  17.609  14.804
31531W        W 3202  43.444  43.027   2.657
31532W        W 3203  22.936  38.816   3.120
31533W        W 3204  27.692   8.772  11.428
31534W        W 3205  12.663   6.677   4.225
31535W        W 3206   4.875  42.232   3.426
31536W        W 3207  37.568  39.554   1.678
31537W        W 3208   6.146  24.099  13.106
31538W        W 3209  11.985  21.667  13.123
31539W        W 3210  17.636  29.400   3.648
31540W        W 3211  18.179  32.883   1.313
31541W        W 3212  36.864   5.890   3.597
31542W        W 3213  15.551  35.669   0.209
31543W        W 3214   2.920  20.620   1.698
31544W        W 3215  40.909  16.749  14.456
31545W        W 3216  23.960  28.401   0.092
31546W        W 3217  35.856   8.394  13.969
31547W        W 3218  39.929  24.538  13.277
31548W        W 3219   9.892   7.145  10.734
31549W        W 3220  24.764  35.590  13.382
31550W        W 3221  28.694  13.287   0.815
31551W        W 3222  19.678  20.733  13.405
31552W        W 3223   6.311  25.050   1.384
31553W        W 3224   1.701  30.852   2.893
31554W        W 3225  43.423  19.069  12.458
31555W        W 3226  42.376  11.029   4.600
31556W        W 3227   7.810  18.609   4.612
31557W        W 3228  11.120  19.647   2.219
31558W        W 3229  32.802  27.743   1.300
31559W        W 3230  13.230  28.648   3.353
31560W        W 3231   9.803  24.530  12.382
31561W        W 3232  16.980  21.283   3.195
31562W        W 3233  37.398  30.226  11.553
31563W        W 3234  32.127  36.528  11.952
31564W        W 3235   3.709   2.830   2.804
31565W        W 3236   3.767  33.599   1.681
31566W        W 3237   2.430  11.488  11.960
31567W        W 3238  39.954  25.015   3.126
31568W        W 3239  23.101  42.726   4.520
31569W        W 3240  38.899  15.833  10.603
31570W        W 3241  15.832  20.778  12.450
31571W        W 3242  31.996   2.219   4.688
31572W        W 3243   4.846  28.207  13.863
31573W        W 3244  32.333  18.962  14.524
31574W        W 3245  16.773   3.574   3.256
31575W        W 3246   2.402  34.725  13.566
31576W        W 3247   2.213  22.248   3.233
31577W        W 3248  10.610  12.115   0.952
31578W        W 3249  35.026   9.595  14.383
31579W        W 3250  34.079  26.526   3.679
31580W        W 3251  25.808   3.806  14.481
31581W        W 3252  29.153  12.789  13.321
31582W        W 3253  19.773  25.535   3.244
31583W        W 3254  12.962  40.246  12.057
31584W        W 3255  17.083  13.776   9.486
31585W        W 3256   8.477   0.472  11.594
31586W        W 3257   7.835  26.282   2.793
31587W        W 3258  15.774  37.530   4.622
31588W        W 3259  28.628  41.431   0.703
31589W        W 3260  17.143   8.841  12.939
31590W        W 3261  31.458  23.858   1.488
31591W        W 3262  35.631  32.751   2.260
31592W        W 3263  12.323  19.315  14.314
31593W        W 3264   6.428  12.625  11.610
31594W        W 3265  30.012  29.077  10.907
31595W        W 3266  30.119  20.554   1.912
31596W        W 3267  22.483   3.877  13.348
31597W        W 3268  44.454  25.430   2.260
31598W        W 3269  15.637  37.937  10.101
31599W        W 3270   9.474  31.809   3.594
31600W        W 3271  41.980  10.632   0.252
31601W        W 3272  15.490  20.695   2.702
31602W        W 3273  14.303  37.082   0.444
31603W        W 3274  20.959  43.409  12.407
31604W        W 3275   9.252  10.960   3.412
31605W        W 3276  34.323  13.579  14.424
31606W        W 3277  27.908  31.083  12.888
31607W        W 3278  42.932  33.368   2.399
31608W        W 3279  39.966   7.597   2.583
31609W        W 3280  17.549  26.924  11.533
31610W        W 3281  38.864  21.322   0.853
31611W        W 3282  42.038  31.211  10.705
31612W        W 3283  33.567  25.663  12.984
31613W        W 3284  28.839  23.870  14.708
31614W        W 3285   7.567  27.965  11.190
31615W        W 3286   9.116  39.996   0.543
31616W        W 3287  29.942  40.297   4.136
31617W        W 3288  16.780  41.399  13.545
31618W        W 3289   8.607   6.206  12.587
31619W        W 3290  15.580   3.289  12.791
31620W        W 3291  32.364   7.386  13.147
31621W        W 3292  42.745  14.694  13.325
31622W        W 3293   9.881  33.364   0.761
31623W        W 3294   0.728   7.381  11.578
31624W        W 3295  41.425  20.533   2.347
31625W        W 3296   1.830  41.053   0.924
31626W        W 3297   7.604  23.919  12.047
31627W        W 3298  40.877   0.769   3.363
31628W        W 3299  21.221  42.944   2.319
31629W        W 3300   3.800   6.642   1.251
31630W        W 3301   3.160  36.366  13.606
31631W        W 3302  38.493  31.947  13.069
31632W        W 3303  39.597  37.825  11.160
31633W        W 3304  21.127  19.971  12.040
31634W        W 3305  41.716   0.942   0.872
31635W        W 3306  41.817  20.668   0.434
31636W        W 3307  40.880  41.104  11.806
31637W        W 3308  21.236  12.776  12.928
31638W        W 3309  42.528  40.044   0.044
31639W        W 3310  23.685  39.274  11.060
31640W        W 3311  18.039  29.585   1.363
31641W        W 3312  15.584   6.418   1.862
31642W        W 3313   7.427  32.099  13.355
31643W        W 3314  22.463  38.417   0.062
31644W        W 3315  40.523  26.628  14.252
31645W        W 3316   5.787   3.591   1.704
31646W        W 3317  41.585   0.110   0.030
31647W        W 3318  42.490  13.289   2.038
31648W        W 3319  13.643   7.147  14.053
31649W        W 3320  32.015  37.014  11.571
31650W        W 3321   1.808  41.468   1.219
31651W        W 3322  40.170  39.938  13.985
31652W        W 3323   1.372  26.707  13.162
31653W        W 3324  35.825  35.372  13.468
31654W        W 3325  39.267  12.234   2.375
31655W        W 3326   7.949  20.015  12.407
31656W        W 3327   6.046  14.313   0.400
31657W        W 3328   5.851  23.496   3.099
31658W        W 3329  21.225  40.338  13.348
31659W        W 3330  20.947   1.437  13.382
31660W        W 3331  11.393  44.093  12.002
31661W        W 3332  15.337  13.123  13.555
31662W        W 3333  13.098  16.740   0.422
31663W        W 3334  10.074   0.597  13.001
31664W        W 3335  35.796  39.008   5.407
31665W        W 3336  18.686  38.871  14.352
31666W        W 3337  20.592  26.088   9.793
31667W        W 3338  14.156  28.635  12.529
31668W        W 3339  37.527  40.769  12.932
31669W        W 3340  30.409  20.502  12.001
31670W        W 3341  12.832  37.068   0.338
31671W        W 3342  26.238  26.358   0.745
31672W        W 3343  29.803  33.702   1.269
31673W        W 3344  16.107   4.476   4.620
31674W        W 3345  24.151  26.570   1.190
31675W        W 3346  17.059  38.529   2.003
31676W        W 3347   0.955   8.426   2.270
31677W        W 3348  22.696  12.591  11.565
31678W        W 3349  40.702  19.299   5.057
31679W        W 3350  16.673  18.064   2.198
31680W        W 3351  24.169  22.712  12.558
31681W        W 3352  34.852  35.990   2.835
31682W        W 3353  11.136  39.448   4.204
31683W        W 3354   6.213  11.814  13.247
31684W        W 3355  31.893   7.912   2.974
31685W        W 3356  17.740  36.098   2.681
31686W        W 3357  10.891  24.222   4.160
31687W        W 3358  38.170  31.375   1.007
31688W        W 3359  15.027  15.125  11.499
31689W        W 3360  22.151  41.644   3.140
31690W        W 3361  39.872   9.601   0.629
31691W        W 3362  24.103  42.239  12.029
31692W        W 3363  22.662  29.235   0.341
31693W        W 3364  15.784  25.753  13.376
31694W        W 3365  30.664   8.849   2.219
31695W        W 3366  27.584  11.005   0.102
31696W        W 3367   4.849  26.207   1.758
31697W        W 3368  36.019  27.410   1.335
31698W        W 3369  21.174  40.882  12.494
31699W        W 3370  17.076  17.271   0.355
31700W        W 3371  37.658  21.545  13.657
31701W        W 3372   5.476  31.403  13.766
31702W        W 3373  29.020  23.544  13.898
31703W        W 3374   3.553  27.722   3.790
31704W        W 3375  19.496  14.666   0.420
31705W        W 3376  35.416   1.857  11.944
31706W        W 3377  27.212  17.693  11.937
31707W        W 3378   4.241  39.334   3.692
31708W        W 3379   9.298  34.640   3.691
31709W        W 3380  35.550  27.232  10.854
31710W        W 3381   0.177   0.821   1.795
31711W        W 3382  17.767   9.318  13.625
31712W        W 3383   1.242  42.106   2.611
31713W        W 3384  15.060  29.856  14.943
31714W        W 3385  10.656  18.511  14.219
31715W        W 3386  18.150  10.154   1.951
31716W        W 3387  18.731   4.246  10.621
31717W        W 3388  20.541   8.622   2.749
31718W        W 3389  37.336  32.800  13.987
31719W        W 3390  13.231  44.737  14.794
31720W        W 3391   8.276   3.289  14.977
31721W        W 3392  19.288   9.096   3.709
31722W        W 3393   0.458  15.091  14.764
31723W        W 3394  37.905  40.491  11.364
31724W        W 3395  37.100  28.273  13.500
31725W        W 3396  24.764  17.011  13.520
31726W        W 3397  11.391  23.762   3.313
31727W        W 3398   9.195  18.975   2.232
31728W        W 3399  26.432  15.790   1.277
31729W        W 3400  33.564  37.546  11.488
31730W        W 3401  44.271  15.516   2.486
31731W        W 3402  12.306  33.879   0.536
31732W        W 3403  14.109  25.443  14.156
31733W        W 3404  36.933   6.412   2.304
31734W        W 3405  21.667   1.460   2.949
31735W        W 3406   2.841  24.197  13.240
31736W        W 3407  28.205  25.723  10.673
31737W        W 3408  29.032  36.007   3.664
31738W        W 3409   1.467  34.409   0.279
31739W        W 3410   2.317  32.369  14.748
31740W        W 3411  35.356  20.715   2.749
31741W        W 3412  42.287  33.577   3.717
31742W        W 3413   3.540  41.498  11.520
31743W        W 3414  14.777  33.598  10.305
31744W        W 3415  26.561  25.961  13.866
31745W        W 3416   0.989  26.917   0.267
31746W        W 3417  11.364  37.920   0.495
31747W        W 3418  28.634  22.794   3.803
31748W        W 3419  23.541  38.288   4.151
31749W        W 3420  15.323  39.817   2.334
31750W        W 3421   5.802  16.017   2.246
31751W        W 3422  34.626  38.251  11.621
31752W        W 3423  23.827  18.357   4.974
31753W        W 3424   1.811  28.220  13.643
31754W        W 3425   6.244   8.446  10.480
31755W        W 3426  36.910  32.522   3.273
31756W        W 3427  38.465  19.535  14.805
31757W        W 3428  34.572  24.758  14.384
31758W        W 3429  40.932  35.031   2.702
31759W        W 3430  30.211  17.516  11.085
31760W        W 3431  26.177  18.200   0.103
31761W        W 3432  14.090  29.860  12.126
31762W        W 3433  10.992   5.441   4.675
31763W        W 3434  44.335  39.820   3.628
31764W        W 3435  14.244  20.701  12.390
31765W        W 3436  21.300   7.301   0.287
31766W        W 3437  37.780   9.710  12.872
31767W        W 3438  24.429  28.088  11.525
31768W        W 3439  19.092  31.110   4.359
31769W        W 3440   6.128  21.062   2.864
31770W        W 3441  29.426  30.930  12.847
31771W        W 3442  39.515  10.734   3.235
31772W        W 3443  36.254  41.931  11.582
31773W        W 3444  24.079  36.109   1.431
31774W        W 3445  27.953  37.409   2.875
31775W        W 3446  29.872  25.186   1.394
31776W        W 3447   3.154  14.742  13.535
31777W        W 3448   9.663  27.099  10.485
31778W        W 3449  17.423   6.994  14.396
31779W        W 3450  41.707  11.781  14.779
31780W        W 3451  34.910  35.067  14.911
31781W        W 3452  34.600  21.241   4.570
31782W        W 3453   3.451   1.019   1.313
31783W        W 3454  38.817  15.340   3.903
31784W        W 3455  36.868   5.234  12.875
31785W        W 3456  25.694  32.864   3.686
31786W        W 3457  44.896  10.672  13.538
31787W        W 3458   8.202   9.848   2.285
31788W        W 3459  37.572  37.868   4.687
31789W        W 3460  30.886  34.723  11.057
31790W        W 3461  24.278  36.918   1.877
31791W        W 3462  15.172  43.299  10.911
31792W        W 3463  10.209  20.651  14.083
31793W        W 3464  29.536  10.628  13.979
31794W        W 3465   8.089  38.450   4.154
31795W        W 3466   9.648  42.178  12.962
31796W        W 3467  10.348   1.477  14.398
31797W        W 3468  41.456  23.963   1.383
31798W        W 3469   4.440   3.346  13.801
31799W        W 3470  26.260  15.843   2.801
31800W        W 3471  25.598  11.502   2.227
31801W        W 3472   7.935  30.221   1.281
31802W        W 3473   4.545  22.604  11.858
31803W        W 3474  42.289  38.499   1.962
31804W        W 3475  15.754  44.340   0.781
31805W        W 3476  32.919  35.117   1.554
31806W        W 3477  13.064  27.455   3.792
31807W        W 3478   0.562   1.106  14.102
31808W        W 3479  14.386  41.321  10.716
31809W        W 3480  37.560  25.182   3.177
31810W        W 3481  35.343  21.042   2.345
31811W        W 3482  12.228   1.747   3.730
31812W        W 3483  32.815  22.100   1.951
31813W        W 3484   5.865  12.103   3.799
31814W        W 3485  44.151  24.095   2.856
31815W        W 3486  26.068  17.025   0.362
31816W        W 3487  33.699   3.467   5.046
31817W        W 3488  29.464   5.785  14.947
31818W        W 3489  29.525  24.601   1.676
31819W        W 3490   4.974  22.018   4.876
31820W        W 3491  11.256  18.590   4.077
31821W        W 3492  15.251  28.958  13.246
31822W        W 3493  23.051  14.146  10.941
31823W        W 3494  36.405  21.099   0.910
31824W        W 3495   0.253  16.287   4.946
31825W        W 3496   4.995  42.300   2.925
31826W        W 3497  26.513  44.857  13.056
31827W        W 3498  26.181  37.259   0.340
31828W        W 3499  12.192  29.582   2.711
31829W        W 3500   1.898  38.816  13.070
31830W        W 3501  31.049   0.913   1.825
31831W        W 3502   6.568  18.030   1.924
31832W        W 3503  30.431   5.115   2.845
31833W        W 3504   9.789  39.487   0.075
31834W        W 3505  32.104  32.936  12.390
31835W        W 3506   4.766  28.717  11.138
31836W        W 3507  28.072  31.220   2.003
31837W        W 3508  24.972  39.048  11.566
31838W        W 3509  17.050  42.487   4.518
31839W        W 3510  30.698  16.754   3.376
31840W        W 3511   2.832  26.613   4.202
31841W        W 3512  33.521  16.290   4.204
31842W        W 3513  34.583  26.693   3.413
31843W        W 3514   7.484  22.775  13.246
31844W        W 3515   6.483  12.606   3.651
31845W        W 3516  13.658  36.084   4.504
31846W        W 3517   8.892  30.621  11.103
31847W        W 3518  30.621  13.567  11.990
31848W        W 3519  18.050  40.634  14.400
31849W        W 3520  43.861  38.624  11.823
31850W        W 3521   3.830  44.341  14.374
31851W        W 3522  15.254  19.774  12.705
31852W        W 3523   0.387  19.531  10.328
31853W        W 3524  39.434   5.269  12.368
31854W        W 3525  34.624  35.934  11.461
31855W        W 3526   1.772  17.343   2.829
31856W        W 3527  43.443  35.388  13.753
31857W        W 3528  43.241  38.068   2.688
31858W        W 3529  30.857  26.322  12.820
31859W        W 3530  31.361   3.483   0.743
31860W        W 3531  15.822  15.678   4.450
31861W        W 3532  12.140  25.301   4.272
31862W        W 3533  42.835  24.507   2.611
31863W        W 3534  12.981  36.632   3.292
31864W        W 3535  26.333  38.950   2.320
31865W        W 3536  28.331   4.370  12.914
31866W        W 3537  37.860  11.444   4.537
31867W        W 3538  33.854  24.138  11.063
31868W        W 3539  40.048  15.763   4.944
31869W        W 3540  32.101  40.969  14.991
31870W        W 3541  27.081  28.984   1.334
31871W        W 3542  38.024   0.063   2.674
31872W        W 3543  27.263   7.425  11.037
31873W        W 3544  14.520  23.680   4.372
31874W        W 3545  43.380   2.580   1.787
31875W        W 3546  43.545  39.191  13.929
31876W        W 3547   0.430  18.816   1.867
31877W        W 3548   8.272  33.820  13.434
31878W        W 3549  38.554  35.273   4.703
31879W        W 3550  15.579  11.940   3.253
31880W        W 3551  34.447  18.832   1.600
31881W        W 3552   3.813  23.767  11.055
31882W        W 3553  44.384  20.573  12.588
31883W        W 3554  25.043  37.968  13.510
31884W        W 3555   8.953  12.691  14.407
31885W        W 3556  29.115   2.174   3.774
31886W        W 3557  11.719  38.024   4.007
31887W        W 3558  22.671  35.428  12.709
31888W        W 3559  17.685  39.457   1.647
31889W        W 3560  22.514  22.521   0.790
31890W        W 3561  21.594  20.090  12.228
31891W        W 3562  23.671  33.530   3.193
31892W        W 3563  26.165  29.379   0.865
31893W        W 3564  17.115  11.342   3.093
31894W        W 3565  42.912   5.895  11.433
31895W        W 3566  28.858  19.075  11.176
31896W        W 3567   0.339  38.639  14.854
31897W        W 3568  30.471  14.619  11.997
31898W        W 3569  40.333  32.962  14.402
31899W        W 3570  26.154  42.968   3.774
31900W        W 3571  31.274  24.997   2.216
31901W        W 3572   4.363  25.765   2.181
31902W        W 3573  28.006  37.321  13.334
31903W        W 3574   0.378  25.993   3.457
31904W        W 3575  41.569  12.279  14.745
31905W        W 3576   8.561  14.334   1.574
31906W        W 3577  29.450  31.125   1.239
31907W        W 3578  32.924  32.494  13.780
31908W        W 3579  16.208  43.998   2.310
31909W        W 3580   9.324  13.333   3.636
31910W        W 3581  20.012  32.144   0.969
31911W        W 3582  10.929  25.269  12.873
31912W        W 3583  17.748  40.659  12.358
31913W        W 3584   1.814   0.561   4.146
31914W        W 3585   2.048   4.258  11.462
31915W        W 3586  43.356  39.067  14.422
31916W        W 3587  21.395  42.767   2.767
31917W        W 3588   6.140  26.600  14.379
31918W        W 3589  43.443  40.359  10.491
31919W        W 3590  26.812  42.784  11.115
31920W        W 3591  35.891  25.616   2.428
31921W        W 3592  31.210  44.696  14.550
31922W        W 3593  21.814  20.511  12.070
31923W        W 3594   6.108   5.633   4.123
31924W        W 3595  29.635  13.539   1.862
31925W        W 3596  42.181  35.794  11.069
31926W        W 3597  21.296  18.256  11.074
31927W        W 3598  10.327  10.609   2.753
31928W        W 3599  44.325   3.629   4.164
31929W        W 3600  14.316  22.302  14.362
31930W        W 3601  13.667  13.354   1.448
31931W        W 3602  44.477   8.838   2.202
31932W        W 3603  10.329  13.840   4.181
31933W        W 3604  18.751  37.013   2.004
31934W        W 3605  12.261  33.292   2.753
31935W        W 3606  38.824  11.697   4.626
31936W        W 3607  42.797   3.480  12.355
31937W        W 3608   9.761  14.247   4.791
31938W        W 3609  28.628  34.387   4.258
31939W        W 3610   4.365  31.590   2.249
31940W        W 3611  18.185  30.960   3.876
31941W        W 3612   4.334   5.145  10.492
31942W        W 3613  27.704   7.160  11.928
31943W        W 3614   3.767  18.098  14.014
31944W        W 3615   7.955  20.559   3.292
31945W        W 3616  38.813  37.118  13.315
31946W        W 3617  13.540  10.871   0.820
31947W        W 3618  40.239  24.687   4.255
31948W        W 3619  44.718   3.186   4.568
31949W        W 3620  43.154  15.155   2.254
31950W        W 3621  33.367  11.251  12.655
31951W        W 3622  44.573  21.535   4.577
31952W        W 3623  31.829  20.672   0.492
31953W        W 3624  22.691  43.332  14.447
31954W        W 3625  28.738  33.531  11.414
31955W        W 3626  28.592  33.937  14.321
31956W        W 3627  41.297  21.668   4.249
31957W        W 3628  22.080  12.234  11.973
31958W        W 3629  21.291  36.410   0.287
31959W        W 3630  20.045   7.935  14.815
31960W        W 3631  12.155  21.792   2.126
31961W        W 3632  44.006  13.284   1.277
31962W        W 3633  19.076  39.844  11.860
31963W        W 3634  43.382  36.195   1.356
31964W        W 3635  33.993  27.408   3.470
31965W        W 3636  21.449  10.798   2.853
31966W        W 3637  28.271   5.857  12.085
31967W        W 3638  33.400  27.707   0.503
31968W        W 3639   1.884  26.068  11.959
31969W        W 3640  40.014  43.735   2.849
31970W        W 3641  38.437  12.113   4.035
31971W        W 3642  10.115  22.262  12.957
31972W        W 3643  25.559   2.933   0.178
31973W        W 3644  21.232  31.943  10.759
31974W        W 3645   3.988  43.200   2.395
31975W        W 3646  27.579  24.761   1.386
31976W        W 3647  21.479   2.360  12.536
31977W        W 3648  11.038  29.057  14.716
31978W        W 3649   2.153   8.832   4.206
31979W        W 3650  37.513  35.888  12.418
31980W        W 3651  38.539   7.123   3.524
31981W        W 3652  10.926  22.422   0.793
31982W        W 3653  33.542  21.066  11.410
31983W        W 3654  33.325  10.372   2.302
31984W        W 3655  14.311  22.879  13.354
31985W        W 3656   0.561  44.525   4.981
31986W        W 3657   4.385  18.966   1.322
31987W        W 3658  13.161  20.801   2.845
31988W        W 3659  12.639  19.515  13.948
31989W        W 3660  23.434  15.117   0.900
31990W        W 3661  26.948   9.638   3.721
31991W        W 3662  23.659  27.449  11.136
31992W        W 3663  43.750  37.564  12.819
31993W        W 3664  10.430  24.009   4.104
31994W        W 3665  35.960  16.488  14.026
31995W        W 3666  24.126  33.401   2.853
31996W        W 3667  22.383  43.484   3.278
31997W        W 3668   4.395  13.770   2.102
31998W        W 3669   0.775  22.187   3.683
31999W        W 3670  29.921  14.727   2.846
32000W        W 3671  42.376  22.564   4.694
32001W        W 3672  41.844  40.965   0.732
32002W        W 3673  27.584   6.416   4.344
32003W        W 3674  40.367  42.964  14.541
32004W        W 3675  35.079  40.135   3.853
32005W        W 3676  29.578   7.379   2.242
32006W        W 3677  37.250  22.523   0.514
32007W        W 3678  43.257  39.799  11.137
32008W        W 3679   7.713  34.579   1.305
32009W        W 3680  38.473  10.622  10.614
32010W        W 3681  30.257  32.374   4.619
32011W        W 3682  36.700  24.974   4.821
32012W        W 3683  17.822   0.672  12.137
32013W        W 3684  40.261  44.861   2.849
32014W        W 3685  32.579  12.641  12.601
32015W        W 3686  17.571   6.741  12.546
32016W        W 3687  24.215   5.812   0.805
32017W        W 3688   5.536  19.543  12.523
32018W        W 3689  22.072  30.034   3.728
32019W        W 3690   9.925  11.746  13.056
32020W        W 3691  42.453  18.619   3.365
32021W        W 3692  38.762   9.277   4.071
32022W        W 3693  27.615  19.974  14.703
32023W        W 3694  11.604  43.397  14.309
32024W        W 3695   0.863  34.354   3.724
32025W        W 3696  35.899  25.885  14.342
32026W        W 3697  34.130  43.552  13.814
32027W        W 3698  16.152  25.897   1.719
32028W        W 3699  37.382  36.818   0.862
32029W        W 3700  22.335  10.241  14.935
32030W        W 3701  14.717  42.527  14.826
32031W        W 3702  26.040  19.772   0.902
32032W        W 3703  19.914   1.332  13.482
32033W        W 3704   8.325  12.030  13.917
32034W        W 3705  42.829  30.760  12.185
32035W        W 3706  18.115  24.730  11.406
32036W        W 3707  26.607  25.956  11.657
32037W        W 3708  25.582  17.336   2.195
32038W        W 3709  22.987  10.769   0.972
32039W        W 3710  27.123  23.422  11.564
32040W        W 3711  33.960   7.419  13.971
32041W        W 3712  29.431  33.314   2.682
32042W        W 3713  18.297  29.761  14.988
32043W        W 3714  41.178  19.123  13.520
32044W        W 3715  32.112   2.805   1.061
32045W        W 3716   3.894  18.627   1.300
32046W        W 3717   8.937  42.022   0.891
32047W        W 3718  27.131  29.034  14.786
32048W        W 3719  18.622  22.159   4.352
32049W        W 3720   9.142  30.038   3.636
32050W        W 3721   9.175  28.592   3.382
32051W        W 3722  34.877  17.085  13.585
32052W        W 3723  29.714  14.586   1.492
32053W        W 3724   3.313  40.041   2.414
32054W        W 3725   8.602  29.612  11.159
32055W        W 3726  11.224   9.878   4.649
32056W        W 3727  38.344  17.657  13.916
32057W        W 3728  30.992   1.019  13.870
32058W        W 3729  16.687  20.325   0.446
32059W        W 3730   0.685  13.788  12.754
32060W        W 3731  11.413  32.592  11.977
32061W        W 3732  25.094  31.444   0.741
32062W        W 3733  40.035   8.182   0.863
32063W        W 3734  25.093  31.595  10.765
32064W        W 3735  15.830  18.866   0.630
32065W        W 3736  25.052  12.409   4.276
32066W        W 3737  42.522  23.548   3.324
32067W        W 3738   7.788   1.919   2.203
32068W        W 3739  13.427  18.238  11.175
32069W        W 3740  25.977   0.079   4.167
32070W        W 3741  19.243  38.292   1.196
32071W        W 3742  40.008   7.199   0.844
32072W        W 3743  32.111  42.941  14.532
32073W        W 3744  36.739  30.356  11.684
32074W        W 3745   2.795   1.378   3.454
32075W        W 3746   5.940  21.608  12.157
32076W        W 3747  29.979   8.359  11.293
32077W        W 3748  15.778  40.960   4.493
32078W        W 3749  43.769  13.567   1.848
32079W        W 3750  30.991  44.229   2.857
32080W        W 3751  43.186  30.378  13.889
32081W        W 3752  25.445  15.224   2.676
32082W        W 3753  17.022  23.385   0.944
32083W        W 3754  14.965  44.873  12.123
32084W        W 3755  20.989  31.666  12.438
32085W        W 3756  25.988   0.414  14.474
32086W        W 3757  39.849  31.600   0.309
32087W        W 3758  24.095  38.625   2.176
32088W        W 3759  24.780  17.194  11.150
32089W        W 3760  19.497  16.244  10.674
32090W        W 3761   1.097  16.687  12.351
32091W        W 3762  35.067  20.106   3.459
32092W        W 3763   9.168  25.967   2.222
32093W        W 3764  21.030   8.180   4.692
32094W        W 3765  18.646  26.976  10.648
32095W        W 3766   0.931  20.477   3.396
32096W        W 3767  33.628  30.000   0.254
32097W        W 3768  14.764  37.316  10.758
32098W        W 3769  29.178  18.345  13.476
32099W        W 3770  23.519  28.608   2.474
32100W        W 3771  26.526  24.291  12.302
32101W        W 3772  23.452  33.079   0.330
32102W        W 3773  16.919  26.693  14.614
32103W        W 3774  22.703  23.183  13.353
32104W        W 3775  40.955  13.642   0.668
32105W        W 3776   0.683   1.635  14.330
32106W        W 3777  43.389  25.121   9.585
32107W        W 3778  34.191  41.927  13.067
32108W        W 3779  20.104  10.426   9.771
32109W        W 3780  44.390  26.532   2.600
32110W        W 3781  44.691  17.803   3.361
32111W        W 3782  38.513   9.424   0.826
32112W        W 3783  19.667  41.344   3.322
32113W        W 3784  19.273  16.758   3.563
32114W        W 3785  32.046   6.038   2.341
32115W        W 3786  16.473  35.559  12.949
32116W        W 3787  18.505   4.877   0.488
32117W        W 3788  14.790  22.597   1.315
32118W        W 3789  23.164  41.530   3.201
32119W        W 3790  40.808  18.628   1.201
32120W        W 3791   8.020  39.477   1.834
32121W        W 3792  37.549  15.482   1.211
32122W        W 3793   4.046  36.249  13.463
32123W        W 3794  17.133   4.258   3.745
32124W        W 3795  15.049  35.834   0.341
32125W        W 3796   3.794  30.832  12.900
32126W        W 3797   3.101  11.018  12.455
32127W        W 3798  15.146  14.666   4.394
32128W        W 3799  31.614   9.634   4.108
32129W        W 3800  42.224  28.526  11.551
32130W        W 3801  18.134   4.410  13.333
32131W        W 3802  12.291  19.202   4.536
32132W        W 3803  21.487  40.611   4.543
32133W        W 3804  28.735  34.755  13.952
32134W        W 3805   1.533  10.883   1.728
32135W        W 3806  32.501  18.058   4.748
32136W        W 3807  11.639   4.261  11.112
32137W        W 3808  13.176  40.871  13.586
32138W        W 3809  30.453  31.650  14.463
32139W        W 3810  20.539  26.896  14.868
32140W        W 3811  44.430  28.654   2.380
32141W        W 3812  18.258  20.536  14.559
32142W        W 3813  36.998  42.704  12.572
32143W        W 3814  16.812  38.453  11.192
32144W        W 3815  35.081  38.497  12.363
32145W        W 3816  17.189  17.676   2.891
32146W        W 3817  26.616  28.251   1.340
32147W        W 3818  31.977  35.886   0.579
32148W        W 3819  21.273  21.795   1.246
32149W        W 3820   6.165  13.293  13.012
32150W        W 3821  14.460  30.434   2.022
32151W        W 3822  44.273   7.708   3.821
32152W        W 3823  31.193  40.517   4.245
32153W        W 3824   7.848  42.511  13.084
32154W        W 3825  13.558   5.557   1.705
32155W        W 3826  44.797  34.440  12.532
32156W        W 3827   6.552   3.889   2.344
32157W        W 3828  42.043  28.859  14.331
32158W        W 3829  40.236   4.959  11.946
32159W        W 3830  28.999  23.087   1.225
32160W        W 3831   5.387  30.419   0.915
32161W        W 3832  12.800  14.516   2.244
32162W        W 3833  14.187  11.652  12.038
32163W        W 3834  31.568  17.974  11.672
32164W        W 3835  25.725  17.197   0.713
32165W        W 3836  18.303   9.176   0.506
32166W        W 3837   9.120   7.054  12.864
32167W        W 3838   9.900  44.963   4.795
32168W        W 3839  14.437  24.066  12.026
32169W        W 3840  26.080  27.183   0.398
32170W        W 3841  15.795   7.981   0.724
32171W        W 3842  31.830  32.691   3.804
32172W        W 3843   4.832   6.217   0.916
32173W        W 3844  28.604   3.196   0.904
32174W        W 3845  35.459  24.132   0.448
32175W        W 3846  27.125  26.977   1.371
32176W        W 3847  15.986  18.779   4.206
32177W        W 3848  18.707  25.002  11.953
32178W        W 3849  35.351  34.695  11.876
32179W        W 3850  38.215  19.731  12.614
32180W        W 3851  11.263  35.517   4.353
32181W        W 3852  26.438  44.581   2.772
32182W        W 3853  29.429   8.697  13.162
32183W        W 3854  34.934  29.069   1.195
32184W        W 3855  28.731  24.214   3.752
32185W        W 3856  35.103  21.722   4.145
32186W        W 3857  28.695  19.612   1.948
32187W        W 3858  32.067  16.348   3.363
32188W        W 3859  36.086   1.324  11.507
32189W        W 3860  21.073  14.622   2.442
32190W        W 3861  15.486  15.542   4.839
32191W        W 3862  20.521  42.317   3.138
32192W        W 3863  29.471   9.349   4.226
32193W        W 3864  38.763  28.419   0.447
32194W        W 3865  29.866  21.062   3.213
32195W        W 3866  27.998  43.466   4.499
32196W        W 3867  11.864  16.127   2.557
32197W        W 3868  44.752   1.832   2.290
32198W        W 3869  30.645  34.693  11.494
32199W        W 3870   3.359   1.488  13.844
32200W        W 3871  19.957  23.965   4.752
32201W        W 3872  16.955  22.493  14.317
32202W        W 3873  19.229  16.239   2.363
32203W        W 3874   5.302  20.755   1.661
32204W        W 3875  13.068  30.538  10.635
32205W        W 3876  36.369  31.017   4.841
32206W        W 3877  29.025   9.816   9.729
32207W        W 3878  35.390   9.606  14.004
32208W        W 3879  26.548  44.462  10.710
32209W        W 3880  12.390  10.387  13.980
32210W        W 3881  39.999  38.969  11.825
32211W        W 3882  23.683  41.801   0.972
32212W        W 3883   3.422  28.126  12.930
32213W        W 3884  21.484   0.708  14.978
32214W        W 3885  24.433  33.644  14.037
32215W        W 3886  30.856  40.710  13.254
32216W        W 3887   8.906   0.183   1.644
32217W        W 3888  36.049  32.297  10.312
32218W        W 3889  38.494   5.769  14.903
32219W        W 3890  36.554  13.274   1.205
32220W        W 3891  41.113  10.096  12.972
32221W        W 3892  15.534   7.041  13.272
32222W        W 3893  41.072  39.613  11.541
32223W        W 3894  34.446  15.106   4.651
32224W        W 3895   0.398   9.143   2.524
32225W        W 3896  39.422   9.304   3.352
32226W        W 3897   4.165  17.465   2.152
32227W        W 3898  38.801  35.618   0.973
32228W        W 3899   2.380  18.636  11.589
32229W        W 3900  29.171  23.449  11.214
32230W        W 3901  40.372  22.659  14.816
32231W        W 3902  44.479  10.588  14.316
32232W        W 3903  17.658   7.265   4.759
32233W        W 3904  12.499  11.199   2.438
32234W        W 3905  38.228  29.163  14.208
32235W        W 3906  29.393  15.783   1.833
32236W        W 3907   9.054  18.500  12.410
32237W        W 3908  12.877  34.518  13.754
32238W        W 3909  44.670  12.120  11.692
32239W        W 3910  28.452   7.216  13.346
32240W        W 3911  32.381  18.668   3.676
32241W        W 3912  34.786   9.750   2.855
32242W        W 3913  37.829  28.264  11.375
32243W        W 3914   1.166  17.162  11.477
32244W        W 3915  10.211  20.052  10.989
32245W        W 3916  29.489   4.596  12.265
32246W        W 3917  42.259   2.839  12.041
32247W        W 3918  41.225  26.529  14.987
32248W        W 3919  18.263  36.832  13.584
32249W        W 3920  34.848  37.609   2.546
32250W        W 3921  11.114  13.529   3.699
32251W        W 3922  19.958   6.452  11.602
32252W        W 3923  43.299   2.298   4.634
32253W        W 3924   0.891  33.407   4.625
32254W        W 3925  12.789  33.818   4.497
32255W        W 3926  11.400  42.032  12.476
32256W        W 3927  27.932  25.530   1.414
32257W        W 3928  25.099  35.639   1.930
32258W        W 3929  34.462  23.686  13.479
32259W        W 3930  24.410   4.586  13.633
32260W        W 3931  21.058  29.264  14.807
32261W        W 3932  24.025  36.890  12.427
32262W        W 3933  14.022  21.145   1.328
32263W        W 3934  32.803  34.125   1.755
32264W        W 3935  30.058  30.071   2.061
32265W        W 3936  30.595   6.864  14.344
32266W        W 3937  22.711   4.358   2.907
32267W        W 3938  33.868  25.605   3.281
32268W        W 3939  40.926  19.129  13.980
32269W        W 3940  17.544  25.739  10.123
32270W        W 3941  42.875  23.232  10.140
32271W        W 3942  37.839  10.716   0.853
32272W        W 3943  18.425  31.161   2.697
32273W        W 3944   2.423  33.629  11.527
32274W        W 3945  34.668  21.214  13.112
32275W        W 3946  11.490  12.612   4.544
32276W        W 3947  21.977  32.384   1.316
32277W        W 3948  38.786  15.126   1.828
32278W        W 3949  15.988  44.312  11.627
32279W        W 3950  17.299  14.763   0.615
32280W        W 3951   9.837  30.725  11.203
32281W        W 3952   5.075  39.285  12.813
32282W        W 3953  10.234  30.838   3.266
32283W        W 3954  20.002  13.713   3.142
32284W        W 3955  14.180  19.039  11.627
32285W        W 3956  30.501  35.303   4.436
32286W        W 3957  33.031  21.285   2.732
32287W        W 3958  26.306  22.769   2.616
32288W        W 3959  26.706   7.922   1.929
32289W        W 3960  25.884  20.749  11.130
32290W        W 3961  13.639  21.251  13.560
32291W        W 3962  21.276  41.055  13.820
32292W        W 3963  37.489   2.450  11.831
32293W        W 3964  22.657  40.576   9.916
32294W        W 3965  33.577  11.596   2.664
32295W        W 3966   1.716  18.643   0.298
32296W        W 3967  11.070  30.590   3.183
32297W        W 3968  21.709  22.058  14.709
32298W        W 3969   3.500   7.617   2.879
32299W        W 3970   0.472  42.698   1.181
32300W        W 3971  19.127  17.738  14.953
32301W        W 3972  18.070  40.648  13.522
32302W        W 3973  41.841  34.142   0.233
32303W        W 3974  10.673  11.630  14.335
32304W        W 3975   5.436  38.484  11.739
32305W        W 3976  29.652  12.184  14.141
32306W        W 3977  12.239  16.785  14.969
32307W        W 3978  42.478  14.197  14.047
32308W        W 3979  41.727  17.665  12.930
32309W        W 3980  43.040  15.089  14.460
32310W        W 3981  37.199  25.800   4.206
32311W        W 3982  41.966  22.705   2.239
32312W        W 3983  30.950  35.584   1.137
32313W        W 3984   7.861  29.273   4.205
32314W        W 3985   1.417   8.233   3.208
32315W        W 3986  10.163  33.827  13.081
32316W        W 3987   2.202  33.822   2.620
32317W        W 3988  10.776  39.000  12.273
32318W        W 3989   7.223  29.776  14.856
32319W        W 3990  25.031  40.082  11.504
32320W        W 3991  22.237  23.706   4.684
32321W        W 3992   2.339  37.854   1.831
32322W        W 3993  28.959   6.902   1.957
32323W        W 3994   9.124  34.129  13.824
32324W        W 3995  16.155  16.223   1.858
32325W        W 3996  12.342  20.896  14.331
32326W        W 3997  14.274  24.384   4.952
32327W        W 3998  15.048  17.516   2.571
32328W        W 3999  14.408   7.712  14.865
32329W        W 4000  19.697  36.526  14.917
32330W        W 4001  39.997  43.071   1.240
32331W        W 4002  43.448  14.790   0.241
32332W        W 4003  31.476   0.713  12.151
32333W        W 4004  25.146   5.681  13.482
32334W        W 4005  16.343  24.672   3.368
32335W        W 4006  17.265  25.416   0.820
32336W        W 4007  42.598   2.294   1.411
32337W        W 4008   3.275   1.262  14.906
32338W        W 4009  25.243  14.592  12.625
32339W        W 4010   5.275  24.158   3.120
32340W        W 4011   3.172  43.958  10.662
32341W        W 4012   7.633  10.358   1.332
32342W        W 4013  13.721  11.150   1.800
32343W        W 4014  12.103  11.356   2.774
32344W        W 4015   0.899  22.051  10.592
32345W        W 4016  20.011  35.421   2.191
32346W        W 4017  25.647  34.256   1.767
32347W        W 4018   7.440  33.021   1.908
32348W        W 4019  34.532  33.988  12.264
32349W        W 4020   3.441   4.824  12.969
32350W        W 4021   5.319  28.993  14.516
32351W        W 4022  25.526  13.279   3.921
32352W        W 4023  15.928  18.166   2.557
32353W        W 4024  24.242   3.960   0.676
32354W        W 4025  37.035  39.100  11.700
32355W        W 4026  43.237  24.630  11.113
32356W        W 4027  26.147  26.522   4.349
32357W        W 4028  14.531  19.839   1.315
32358W        W 4029  11.745  14.185   9.623
32359W        W 4030  44.554   4.302   3.774
32360W        W 4031   5.868  16.679  13.044
32361W        W 4032  26.020   4.267  14.316
32362W        W 4033   6.095  12.239  12.611
32363W        W 4034  23.505   1.859   4.139
32364W        W 4035   9.073  21.474   3.612
32365W        W 4036  33.645  16.797   4.755
32366W        W 4037  22.694  34.483   2.305
32367W        W 4038  11.218   4.531   2.861
32368W        W 4039  33.010  19.854  11.124
32369W        W 4040  40.383  41.257   2.266
32370W        W 4041  25.471  43.771  10.283
32371W        W 4042  42.560   6.646   2.148
32372W        W 4043  23.148  34.124   4.020
32373W        W 4044  26.906  31.296   2.842
32374W        W 4045   2.378  25.495  13.390
32375W        W 4046  23.710  26.953   2.296
32376W        W 4047   3.497  20.430  13.369
32377W        W 4048  42.368   3.784  11.556
32378W        W 4049   6.722  29.889  13.005
32379W        W 4050  15.282  24.775  10.768
32380W        W 4051  35.946   8.931  10.975
32381W        W 4052  12.241  32.797  12.468
32382W        W 4053   3.462  23.333  14.857
32383W        W 4054   9.384  37.141   3.712
32384W        W 4055  24.086  36.475   4.581
32385W        W 4056  35.804  42.874   4.879
32386W        W 4057  35.611  42.542  13.054
32387W        W 4058  25.223  42.893   4.775
32388W        W 4059  25.664  15.113   1.197
32389W        W 4060  22.741  19.962  12.970
32390W        W 4061  36.644  40.793  12.978
32391W        W 4062  40.344  31.708  13.137
32392W        W 4063   8.833  36.833   1.424
32393W        W 4064  19.219  18.281   4.344
32394W        W 4065  22.547  27.393   2.399
32395W        W 4066   4.666  42.920  11.937
32396W        W 4067  30.442  16.583  14.445
32397W        W 4068  22.944  25.009   2.361
32398W        W 4069  31.186  28.879   4.172
32399W        W 4070  21.269  23.858   5.488
32400W        W 4071  21.502  24.813   0.554
32401W        W 4072   9.690  40.947   4.413
32402W        W 4073   5.010  17.108  13.915
32403W        W 4074  41.351  41.054  11.574
32404W        W 4075  24.225  15.822  13.074
32405W        W 4076  39.467  23.452   3.371
32406W        W 4077  21.429   3.969  13.436
32407W        W 4078   4.314  17.935  14.644
32408W        W 4079  15.893  38.886   3.830
32409W        W 4080  41.086  25.118   1.220
32410W        W 4081  44.354  29.892  12.597
32411W        W 4082  18.752  33.378  14.035
32412W        W 4083  42.976  35.109  13.441
32413W        W 4084   9.727  30.010   4.610
32414W        W 4085  29.706  21.529  13.431
32415W        W 4086   5.790   4.905   0.362
32416W        W 4087  14.337  38.388  14.056
32417W        W 4088  15.106  18.111  11.631
32418W        W 4089  30.557  39.114   3.784
32419W        W 4090  37.927   7.955  11.990
32420W        W 4091  12.678  27.251  12.981
32421W        W 4092  25.413  21.753   3.348
32422W        W 4093  34.343   4.398   0.196
32423W        W 4094  11.237  32.864  10.769
32424W        W 4095  38.953   9.225  12.439
32425W        W 4096  13.311  16.426  14.700
32426W        W 4097  29.428  10.074   4.627
32427W        W 4098  31.450  12.106   0.784
32428W        W 4099  30.370  29.468   2.716
32429W        W 4100  34.788   1.450   2.656
32430W        W 4101  43.439   0.025   1.686
32431W        W 4102  22.297  22.130   1.548
32432W        W 4103  30.967   4.954  12.984
32433W        W 4104   5.288  10.627  12.522
32434W        W 4105  15.581  12.920  13.983
32435W        W 4106  27.937  21.105  10.756
32436W        W 4107  35.358  34.856  14.766
32437W        W 4108  34.021   2.319  10.612
32438W        W 4109  33.347  37.360  13.407
32439W        W 4110  34.658  38.447  11.144
32440W        W 4111  26.755  34.421   4.806
32441W        W 4112   0.215  41.304  13.558
32442W        W 4113  16.317  13.531   4.009
32443W        W 4114  40.894  28.751   1.393
32444W        W 4115   2.221  30.734  10.266
32445W        W 4116   2.247  27.823  11.593
32446W        W 4117  27.575  19.758   2.408
32447W        W 4118   5.614   4.412   2.701
32448W        W 4119  30.324  19.587   0.793
32449W        W 4120   7.012  22.063   1.879
32450W        W 4121  21.640  19.760  13.904
32451W        W 4122   8.357  33.384   2.390
32452W        W 4123  38.450   8.488  10.735
32453W        W 4124   5.743  21.831   0.387
32454W        W 4125   4.189  41.349   1.320
32455W        W 4126  19.345  41.879   2.657
32456W        W 4127  44.501  35.886   4.517
32457W        W 4128  37.104  27.646  12.492
32458W        W 4129  34.535  14.127  13.807
32459W        W 4130  15.796   4.053   9.569
32460W        W 4131  12.941  33.044   2.269
32461W        W 4132   5.909  38.546   4.558
32462W        W 4133  15.919  36.982  11.327
32463W        W 4134  33.047   0.266   2.488
32464W        W 4135  12.146  24.236  14.718
32465W        W 4136  13.917  41.467  12.171
32466W        W 4137  30.539  16.081   1.735
32467W        W 4138  29.823  42.013   3.830
32468W        W 4139  42.123  30.095   2.365
32469W        W 4140  20.232  27.567   4.914
32470W        W 4141  23.136  38.156   0.023
32471W        W 4142  32.805  22.518   1.654
32472W        W 4143  33.602   6.864  11.570
32473W        W 4144  12.245  25.536  11.761
32474W        W 4145  20.945   0.947  12.000
32475W        W 4146  19.686  21.113  13.775
32476W        W 4147   0.598  18.275   0.304
32477W        W 4148  16.000  43.395  11.169
32478W        W 4149  21.532  13.987   1.892
32479W        W 4150  26.419  13.889  12.378
32480W        W 4151  42.348   6.211   3.319
32481W        W 4152  24.483  11.382  12.528
32482W        W 4153  36.642  17.848   3.775
32483W        W 4154  33.049   5.438  11.493
32484W        W 4155  34.631   7.719   2.639
32485W        W 4156  42.087  39.050  10.203
32486W        W 4157  36.134  17.180   0.813
32487W        W 4158  21.653  43.380   4.533
32488W        W 4159   5.746  33.877  13.962
32489W        W 4160  32.477  15.566   3.142
32490W        W 4161  23.470  37.598  10.724
32491W        W 4162  31.537  29.930  12.426
32492W        W 4163   6.963   2.734  11.113
32493W        W 4164   8.929  14.154   3.613
32494W        W 4165  10.327  37.730   1.294
32495W        W 4166   6.495   5.846  10.576
32496W        W 4167  30.679  41.961  12.560
32497W        W 4168  31.451  39.573  14.557
32498W        W 4169   0.319  22.521   2.298
32499W        W 4170  39.002  37.620   4.118
32500W        W 4171  15.545  23.859   5.088
32501W        W 4172  29.659  29.718  13.903
32502W        W 4173  11.745   3.165  14.029
32503W        W 4174  41.672   8.353  13.530
32504W        W 4175   9.121  32.125  12.107
32505W        W 4176  29.194   5.012  12.968
32506W        W 4177  14.712  15.217  13.981
32507W        W 4178  31.160  38.052   2.816
32508W        W 4179  44.792  22.769  11.963
32509W        W 4180  14.228  11.219   1.688
32510W        W 4181  36.383  21.088   3.345
32511W        W 4182  15.676  29.213   0.424
32512W        W 4183   5.434  42.592  11.465
32513W        W 4184   2.218  21.613  14.936
32514W        W 4185  14.110   2.161   1.953
32515W        W 4186   0.840  38.167   0.208
32516W        W 4187  15.375  18.629   0.755
32517W        W 4188   7.401   8.248   0.734
32518W        W 4189  27.657  11.376  14.717
32519W        W 4190  25.044  16.143  13.596
32520W        W 4191  27.938  23.950  12.415
32521W        W 4192  33.431  35.581   3.167
32522W        W 4193  22.895  39.441  13.770
32523W        W 4194  32.179  11.654   0.810
32524W        W 4195  26.979  22.493  10.495
32525W        W 4196  37.450  37.339  11.589
32526W        W 4197   6.731  38.580  12.133
32527W        W 4198  34.608  29.140   4.740
32528W        W 4199   1.928  13.784   3.247
32529W        W 4200  10.365  36.730   1.404
32530W        W 4201  40.887  35.927  14.591
32531W        W 4202  20.526   1.638   4.323
32532W        W 4203  43.809  39.423  13.087
32533W        W 4204  21.705  38.456  11.050
32534W        W 4205  10.201  38.000   1.733
32535W        W 4206  18.849   0.273   2.942
32536W        W 4207   5.341  39.280  12.372
32537W        W 4208   4.637  30.206  13.035
32538W        W 4209  11.689  27.559  12.101
32539W        W 4210   0.714  43.406   2.266
32540W        W 4211  23.773  21.632  13.707
32541W        W 4212  23.278  25.392   2.240
32542W        W 4213  14.143  25.065  14.836
32543W        W 4214  42.072   2.976   2.144
32544W        W 4215  29.649  17.249  13.471
32545W        W 4216  33.162  33.538   0.772
32546W        W 4217  31.547  40.987  14.281
32547W        W 4218  27.455  13.633   2.864
32548W        W 4219  23.965   0.387   3.211
32549W        W 4220  38.873  10.266  14.951
32550W        W 4221  19.848  18.295   0.826
32551W        W 4222  24.236  25.418   2.252
32552W        W 4223  38.677  20.747  14.217
32553W        W 4224   6.403  22.542  12.431
32554W        W 4225  29.132   8.279  11.871
32555W        W 4226  37.343  33.458  12.849
32556W        W 4227  13.343  21.244   2.649
32557W        W 4228  40.090  40.403  12.156
32558W        W 4229  31.735   5.582  12.893
32559W        W 4230  30.781   4.701   4.346
32560W        W 4231  34.981  16.246   2.827
32561W        W 4232  30.912  22.109   2.816
32562W        W 4233  12.800  25.149  12.502
32563W        W 4234  27.760  44.091   3.713
32564W        W 4235  41.067  12.079  11.179
32565W        W 4236   6.707  26.746   0.903
32566W        W 4237  28.659  19.724  12.392
32567W        W 4238  27.550   9.731  11.450
32568W        W 4239  16.789  40.919   1.178
32569W        W 4240  11.708  12.166   4.734
32570W        W 4241   8.949  21.644   0.360
32571W        W 4242  36.288  39.957   1.429
32572W        W 4243   3.884  18.341   3.709
32573W        W 4244  42.839  41.870   1.321
32574W        W 4245   2.410  43.602  11.036
32575W        W 4246  39.349  28.205  14.285
32576W        W 4247   0.272  40.709  12.418
32577W        W 4248   3.986  44.174   1.358
32578W        W 4249  23.120  10.912   4.581
32579W        W 4250  35.500  11.549  13.340
32580W        W 4251  34.982  13.125   0.165
32581W        W 4252  41.051  24.984  12.514
32582W        W 4253  38.620  27.053  13.987
32583W        W 4254  19.305  42.269   3.611
32584W        W 4255  13.280   2.768   4.786
32585W        W 4256   8.959  38.870  14.885
32586W        W 4257  43.878   6.425   2.404
32587W        W 4258  18.492  31.985   1.250
32588W        W 4259  44.008  40.924  11.689
32589W        W 4260  39.071  23.550  11.367
32590W        W 4261  33.119  30.458   0.759
32591W        W 4262  21.149   8.102   0.515
32592W        W 4263  32.384  30.661   1.858
32593W        W 4264   4.419  34.961   0.757
32594W        W 4265  36.353   7.914  10.780
32595W        W 4266  33.529  23.470  11.222
32596W        W 4267  13.026  10.680  13.921
32597W        W 4268  25.026  21.722   2.609
32598W        W 4269  10.682   1.878   4.686
32599W        W 4270  44.024  44.753   0.836
32600W        W 4271  20.630  34.468  11.761
32601W        W 4272  21.467   4.373  14.002
32602W        W 4273   4.728  30.178  11.139
32603W        W 4274  12.930   9.855   1.768
32604W        W 4275  24.174   1.652  11.173
32605W        W 4276  25.942  40.730   3.631
32606W        W 4277   4.594   3.817  12.333
32607W        W 4278  42.727   0.502  10.746
32608W        W 4279  11.910  14.816   1.157
32609W        W 4280  38.349  37.017   2.194
32610W        W 4281  25.669  14.129  14.424
32611W        W 4282   5.688  38.770  14.465
32612W        W 4283  15.825  25.062   4.711
32613W        W 4284  31.011  21.767   4.453
32614W        W 4285  30.675   4.428  14.317
32615W        W 4286  23.790  25.491   4.159
32616W        W 4287  40.840  29.737   2.271
32617W        W 4288  40.397  21.022  10.618
32618W        W 4289   1.805  38.403  10.692
32619W        W 4290  28.086   2.470  13.939
32620W        W 4291  44.366  21.821  10.665
32621W        W 4292   8.758  26.158  14.141
32622W        W 4293  38.406  42.329  13.907
32623W        W 4294  44.800  21.078  11.736
32624W        W 4295   2.412  44.439  13.422
32625W        W 4296  20.903  36.521   3.645
32626W        W 4297  25.500  30.488  11.281
32627W        W 4298   9.176  15.473   1.135
32628W        W 4299  10.033  26.693   2.658
32629W        W 4300  33.442  20.054   1.927
32630W        W 4301   5.758  10.424   0.414
32631W        W 4302  23.598  42.253  12.136
32632W        W 4303  29.419  26.828   0.363
32633W        W 4304  18.292   8.863  14.367
32634W        W 4305  15.934   0.865  11.739
32635W        W 4306   8.881  41.558  13.323
32636W        W 4307  26.484   5.270   4.121
32637W        W 4308   8.099  34.998  13.702
32638W        W 4309  18.758  12.154   3.693
32639W        W 4310  34.135   9.883  12.354
32640W        W 4311  36.927  16.042   0.381
32641W        W 4312  26.019  32.940   0.555
32642W        W 4313  37.995   6.310   3.439
32643W        W 4314  27.020  38.624  12.516
32644W        W 4315  44.391   5.373   1.044
32645W        W 4316  36.947  19.544  14.016
32646W        W 4317  42.515   1.837   4.847
32647W        W 4318  44.601   0.832   4.259
32648W        W 4319  15.730  25.752   3.947
32649W        W 4320   5.668  14.731   1.659
32650W        W 4321   4.786  21.589  11.370
32651W        W 4322  19.485   1.494   4.223
32652W        W 4323  15.747  22.047   3.714
32653W        W 4324  44.303  25.979  10.625
32654W        W 4325  33.408   2.875   3.889
32655W        W 4326   9.885  43.184  13.026
32656W        W 4327  37.603  27.104  13.996
32657W        W 4328   4.716  11.285  10.731
32658W        W 4329  18.218  28.572  12.592
32659W        W 4330  12.079  13.086   2.888
32660W        W 4331  26.537  30.865   3.863
32661W        W 4332  12.138   8.564  13.314
32662W        W 4333  17.070  39.784  11.522
32663W        W 4334  23.660  42.417   4.197
32664W        W 4335  20.654  13.425   2.855
32665W        W 4336  44.194  23.845  13.379
32666W        W 4337  18.614  40.449  11.397
32667W        W 4338  25.173   6.169  13.308
32668W        W 4339  28.573  28.934   1.987
32669W        W 4340  18.441  24.018   5.387
32670W        W 4341  35.611  11.637   3.609
32671W        W 4342  23.695  10.160   1.237
32672W        W 4343  30.128  25.398  11.108
32673W        W 4344  27.553   1.151   3.099
32674W        W 4345  18.529  19.091   0.869
32675W        W 4346  15.636  17.732   2.744
32676W        W 4347  29.115  14.312  11.578
32677W        W 4348  23.494   2.820  13.966
32678W        W 4349  16.240   1.104  12.537
32679W        W 4350  32.988  39.811  13.116
32680W        W 4351   7.699  17.041  10.757
32681W        W 4352  15.750  35.714   4.708
32682W        W 4353  29.029  26.965   3.406
32683W        W 4354  12.810   9.135   4.783
32684W        W 4355  13.942  39.110   2.723
32685W        W 4356  39.069  16.660  12.445
32686W        W 4357  36.328  14.276   3.313
32687W        W 4358  35.975  25.130  11.977
32688W        W 4359  44.959  41.808   0.774
32689W        W 4360   8.286  33.122   1.957
32690W        W 4361  41.238  20.193  10.777
32691W        W 4362   0.586  21.523   1.683
32692W        W 4363  43.047  37.964   2.205
32693W        W 4364  10.325  31.175  13.478
32694W        W 4365  15.188  31.595   2.428
32695W        W 4366  17.336  26.675  10.670
32696W        W 4367  25.872  11.659   4.078
32697W        W 4368  25.022   1.107  13.809
32698W        W 4369   8.886  42.042  12.594
32699W        W 4370  33.539  26.483  10.635
32700W        W 4371   7.770  35.052   4.177
32701W        W 4372   6.270  36.022   1.286
32702W        W 4373  43.053  40.047  13.092
32703W        W 4374  20.987   4.330   0.396
32704W        W 4375  38.859   4.949  11.865
32705W        W 4376  42.436  20.231   3.991
32706W        W 4377   0.654  41.555  11.560
32707W        W 4378   9.752  26.400   3.007
32708W        W 4379  19.544  11.523  12.453
32709W        W 4380   0.454   0.314   2.520
32710W        W 4381  16.731   1.359   3.729
32711W        W 4382  13.322  28.488   4.876
32712W        W 4383  32.095  44.366   4.510
32713W        W 4384  26.657  38.540   1.469
32714W        W 4385  15.246   1.361   4.797
32715W        W 4386  23.966  30.956  14.920
32716W        W 4387  20.784  42.886   2.714
32717W        W 4388  34.092  20.081  12.516
32718W        W 4389  36.496  17.696   3.232
32719W        W 4390  17.847  39.827  11.080
32720W        W 4391  18.981  19.275   4.234
32721W        W 4392  13.329  10.064   4.994
32722W        W 4393  37.161  16.754  14.632
32723W        W 4394  32.683  18.682  14.248
32724W        W 4395   0.896   8.255   4.193
32725W        W 4396  43.589  20.579   4.611
32726W        W 4397  24.230  24.190   4.562
32727W        W 4398  34.160  31.372   2.032
32728W        W 4399  31.476  13.529   3.426
32729W        W 4400  17.279   7.495  13.521
32730W        W 4401  16.113  13.244   3.636
32731W        W 4402  34.524   3.664  14.818
32732W        W 4403  39.937  20.743   3.691
32733W        W 4404  39.020  10.215   4.157
32734W        W 4405   7.080  26.473  14.421
32735W        W 4406  26.527  34.494  10.795
32736W        W 4407   9.605   2.566  14.115
32737W        W 4408  23.682  34.162   1.132
32738W        W 4409  11.332  12.830  11.236
32739W        W 4410   1.276  43.436   4.751
32740W        W 4411  31.710  16.636  14.289
32741W        W 4412  19.116  41.506  12.538
32742W        W 4413  13.465  30.552  13.307
32743W        W 4414  15.406  27.959  13.451
32744W        W 4415  16.280  19.993  11.894
32745W        W 4416  28.047   4.970   5.092
32746W        W 4417   0.514  28.103   3.144
32747W        W 4418  39.745   4.458   1.306
32748W        W 4419  39.793  15.256   0.810
32749W        W 4420  36.422  14.699  14.046
32750W        W 4421  34.026  44.192  14.861
32751W        W 4422  38.491  42.387  13.028
32752W        W 4423  23.592  11.884  11.723
32753W        W 4424  11.919   4.272  11.945
32754W        W 4425  21.647  37.424   5.101
32755W        W 4426  15.728  16.261   2.266
32756W        W 4427   6.899  32.363   2.893
32757W        W 4428   5.717  32.032  14.284
32758W        W 4429   0.708   6.325  13.471
32759W        W 4430  19.339  30.896  11.098
32760W        W 4431   0.035  39.010  13.900
32761W        W 4432  37.973  25.974   4.305
32762W        W 4433  25.085  26.776  14.844
32763W        W 4434  12.714  30.553   0.032
32764W        W 4435  39.262  36.530   4.931
32765W        W 4436  41.235  31.516  12.118
32766W        W 4437  16.059  27.387   3.513
32767W        W 4438  39.476  32.392  14.847
32768W        W 4439  36.338  32.591   0.192
32769W        W 4440  44.938  12.663   3.329
32770W        W 4441  14.121  11.654   1.913
32771W        W 4442  14.659   8.660  12.821
32772W        W 4443  33.666  34.023  11.666
32773W        W 4444   0.936  36.115  13.317
32774W        W 4445  23.553  33.857   2.216
32775W        W 4446  21.905   6.307   2.214
32776W        W 4447  18.215   0.927   3.192
32777W        W 4448  28.622  16.091   1.919
32778W        W 4449  38.891  36.049  14.865
32779W        W 4450  34.610  30.103   0.359
32780W        W 4451   2.258  23.140   3.689
32781W        W 4452  10.128  31.330   4.202
32782W        W 4453  29.942   0.685  12.953
32783W        W 4454  42.358   9.914  10.746
32784W        W 4455  38.747  26.701  11.963
32785W        W 4456  42.134  35.636   1.869
32786W        W 4457  44.198  33.639  12.652
32787W        W 4458  28.425   8.233   2.273
32788W        W 4459  35.873  14.444  14.979
32789W        W 4460  40.898   6.322   0.025
32790W        W 4461  31.846   4.241   0.527
32791W        W 4462  41.506   7.646   3.622
32792W        W 4463   6.917  18.410  11.592
32793W        W 4464  17.306  18.494  12.944
32794W        W 4465  44.598  11.676   5.364
32795W        W 4466  13.337  26.014  14.424
32796W        W 4467  26.383  13.963  14.006
32797W        W 4468  34.784  40.409   1.912
32798W        W 4469  44.377  39.924  13.095
32799W        W 4470  36.733  33.061   1.357
32800W        W 4471  36.313  29.655  12.002
32801W        W 4472  18.106  15.737   0.911
32802W        W 4473  23.103  13.830   3.505
32803W        W 4474   2.681  33.666   1.740
32804W        W 4475  15.897  38.045   3.319
32805W        W 4476  33.783  41.391  13.415
32806W        W 4477  42.172  44.833  11.937
32807W        W 4478   3.710  42.980   0.517
32808W        W 4479  36.063  25.234  12.473
32809W        W 4480  38.569  21.448   1.713
32810W        W 4481  24.242  41.531   3.999
32811W        W 4482   5.212  28.460  14.545
32812W        W 4483   1.313  35.577  11.318
32813W        W 4484  34.171   6.220   3.234
32814W        W 4485  25.091  21.979   1.129
32815W        W 4486   8.630  44.529  14.934
32816W        W 4487   3.364  12.006  11.816
32817W        W 4488  24.179  42.168  12.832
32818W        W 4489  39.005  10.582   5.057
32819W        W 4490  16.837  16.158   0.729
32820W        W 4491  21.396  26.600   5.202
32821W        W 4492  38.151  12.785  11.517
32822W        W 4493  22.110  14.228   0.465
32823W        W 4494  21.287  17.863   3.901
32824W        W 4495  38.757  26.450   1.266
32825W        W 4496  32.712  19.951  12.557
32826W        W 4497  29.510   8.060   9.608
32827W        W 4498  14.796  29.410  11.687
32828W        W 4499  29.944  16.516  14.430
32829W        W 4500  31.939   9.608  11.671
32830W        W 4501  14.996  23.218  11.953
32831W        W 4502   8.649  12.173   3.793
32832W        W 4503  23.130  39.025  14.990
32833W        W 4504  33.188   7.891   4.103
32834W        W 4505  18.731  15.209  14.406
32835W        W 4506   5.453  26.145  12.406
32836W        W 4507   9.112  33.019   0.820
32837W        W 4508  23.147  17.686  10.648
32838W        W 4509  21.211   6.375   3.743
32839W        W 4510  21.696  33.449  13.914
32840W        W 4511  12.419   9.483   2.834
32841W        W 4512   0.722  33.468  11.592
32842W        W 4513  43.586  42.031   2.798
32843W        W 4514  10.755  36.790  10.729
32844W        W 4515  25.529  31.381   4.662
32845W        W 4516  42.541   6.719   0.769
32846W        W 4517  15.273  28.494   4.633
32847W        W 4518  34.919  12.896   2.703
32848W        W 4519  42.882  30.867   0.953
32849W        W 4520  11.560   0.827  11.132
32850W        W 4521  29.470  36.047  14.831
32851W        W 4522  14.132   4.198   2.657
32852W        W 4523   0.465   5.206  14.509
32853W        W 4524   0.698  33.578   4.165
32854W        W 4525   9.400  16.470   0.012
32855W        W 4526   9.267  13.866  14.451
32856W        W 4527  13.124  21.293  11.094
32857W        W 4528  20.130  19.688   4.629
32858W        W 4529  22.130  23.199  10.634
32859W        W 4530  35.984   2.355   1.859
32860W        W 4531  17.265  31.700  12.983
32861W        W 4532  23.716  10.477  13.423
32862W        W 4533   3.193   0.803   0.909
32863W        W 4534   2.245  28.742  12.707
32864W        W 4535  14.827  23.509  10.699
32865W        W 4536   9.620  25.966   3.304
32866W        W 4537   4.775  17.288  11.315
32867W        W 4538  27.151  44.522   3.129
32868W        W 4539  14.872   3.929   0.987
32869W        W 4540  26.699  27.152  11.318
32870W        W 4541  34.903  38.360   1.844
32871W        W 4542  23.217  11.664   0.497
32872W        W 4543  11.767  18.389   4.107
32873W        W 4544  11.239  25.758  11.620
32874W        W 4545  12.635  27.385   3.134
32875W        W 4546  27.707  14.682   0.952
32876W        W 4547  44.272  33.462  14.464
32877W        W 4548  15.755  38.847   1.015
32878W        W 4549   9.247  38.452  11.018
32879W        W 4550  11.566  29.750  11.266
32880W        W 4551  30.203  44.766   3.234
32881W        W 4552  43.871  13.714  10.230
32882W        W 4553  33.636  14.696   2.229
32883W        W 4554  15.060  31.454  11.602
32884W        W 4555  28.543   2.823   1.309
32885W        W 4556  18.683   6.744   2.715
32886W        W 4557  33.385   8.867   1.420
32887W        W 4558   5.482  29.470  11.942
32888W        W 4559   1.448  26.524  14.580
32889W        W 4560  17.018  28.115  12.049
32890W        W 4561  30.615  15.820   0.478
32891W        W 4562  41.030  33.954   3.481
32892W        W 4563  43.440  10.070  12.132
32893W        W 4564  42.087   0.970  11.954
32894W        W 4565  27.114  20.695  14.737
32895W        W 4566  37.446  34.556   1.342
32896W        W 4567   2.558  20.070  14.890
32897W        W 4568  20.562  44.244  12.793
32898W        W 4569  33.976  21.046  11.116
32899W        W 4570  13.381  14.556  13.055
32900W        W 4571  30.364   4.982   4.578
32901W        W 4572  34.018   5.353  11.656
32902W        W 4573  35.364   5.202   3.935
32903W        W 4574  20.749   8.589   4.487
32904W        W 4575  12.511  15.767  14.746
32905W        W 4576   9.281  22.240  11.476
32906W        W 4577  39.812  16.983   2.290
32907W        W 4578   2.340  19.047  14.432
32908W        W 4579  12.075  42.633   3.708
32909W        W 4580  15.161  17.124   2.890
32910W        W 4581  30.328  36.037   1.654
32911W        W 4582   6.270  29.186  11.372
32912W        W 4583   0.050  16.363   0.419
32913W        W 4584  29.491   7.332  12.486
32914W        W 4585  40.797  12.630  11.135
32915W        W 4586  22.411   7.597  11.847
32916W        W 4587  17.295   0.223  11.448
32917W        W 4588  33.434  42.826   4.028
32918W        W 4589   8.717   9.872  13.999
32919W        W 4590  41.845  10.719  10.950
32920W        W 4591  42.190  42.716  10.760
32921W        W 4592  11.702  16.920   4.584
32922W        W 4593  24.581  39.891  11.625
32923W        W 4594  20.451  41.581  14.967
32924W        W 4595  13.738  33.706   1.250
32925W        W 4596  36.392  25.102  14.206
32926W        W 4597   2.313  34.460   4.261
32927W        W 4598  10.759  24.626   3.877
32928W        W 4599  16.833  11.059  12.187
32929W        W 4600  15.157  28.578  12.435
32930W        W 4601  32.082  20.441   4.097
32931W        W 4602  23.785   4.183  14.791
32932W        W 4603  39.607   3.199   4.523
32933W        W 4604  10.656  23.995  13.760
32934W        W 4605  35.801  32.373  13.479
32935W        W 4606   6.876  26.053  12.442
32936W        W 4607  16.247  29.046  10.677
32937W        W 4608   1.475  32.334   2.198
32938W        W 4609   4.449  44.387  13.472
32939W        W 4610  31.199   9.817   2.357
32940W        W 4611  24.843  38.681   3.781
32941W        W 4612   0.929  32.191   4.079
32942W        W 4613  16.664  37.293  14.350
32943W        W 4614  33.354  33.345   3.205
32944W        W 4615  16.073  27.003  13.918
32945W        W 4616  22.524  29.965   2.380
32946W        W 4617  35.955  16.776  10.374
32947W        W 4618  31.857  24.445  14.389
32948W        W 4619  36.180  10.283  10.321
32949W        W 4620   7.894  10.795   2.846
32950W        W 4621  10.567  11.690  13.677
32951W        W 4622  14.729  26.497   1.881
32952W        W 4623  14.741   2.781  11.117
32953W        W 4624  26.449  44.396  11.216
32954W        W 4625   3.386  40.856   0.992
32955W        W 4626  28.490  27.678  10.689
32956W        W 4627   8.010  10.961   1.507
32957W        W 4628  14.684  26.376  12.770
32958W        W 4629  10.021  11.200   9.828
32959W        W 4630  42.938  24.466   3.641
32960W        W 4631  31.891  35.558   2.259
32961W        W 4632  27.430  33.965  14.415
32962W        W 4633  23.587   2.886  11.963
32963W        W 4634  21.283   0.797  12.774
32964W        W 4635  32.390   4.798   2.612
32965W        W 4636   2.759   1.816   3.704
32966W        W 4637  27.601  13.967  13.488
32967W        W 4638  29.953  26.313  12.563
32968W        W 4639  31.307  26.470   5.013
32969W        W 4640  26.210  38.181  12.076
32970W        W 4641  26.576  19.684   3.768
32971W        W 4642  14.551  18.072  10.745
32972W        W 4643  29.662  14.858   3.270
32973W        W 4644  17.910   6.860  14.429
32974W        W 4645  10.736   4.150   3.271
32975W        W 4646  13.072   8.155  12.519
32976W        W 4647   2.519  28.684   1.753
32977W        W 4648   2.191  15.611   4.722
32978W        W 4649  37.409  21.749   0.043
32979W        W 4650  20.584  38.052   0.871
32980W        W 4651   5.679   0.170  13.005
32981W        W 4652  13.212  34.684   0.476
32982W        W 4653  23.715  29.797  13.794
32983W        W 4654  20.860  16.665   2.808
32984W        W 4655  37.048  15.705  10.775
32985W        W 4656  12.581  16.544  11.961
32986W        W 4657  23.313  31.967   1.857
32987W        W 4658  27.095  11.422  11.197
32988W        W 4659  17.490  23.617   0.152
32989W        W 4660  33.821  31.911   5.273
32990W        W 4661  12.827   9.703   2.616
32991W        W 4662  33.614  23.504   5.307
32992W        W 4663  15.108  16.034   4.014
32993W        W 4664  37.614   3.560  11.703
32994W        W 4665  34.650  23.572   1.306
32995W        W 4666  35.337  25.975   3.311
32996W        W 4667  42.803  32.122  12.189
32997W        W 4668   7.725  30.012   4.910
32998W        W 4669  31.537  14.603   0.416
32999W        W 4670  25.935  35.857  11.515
33000W        W 4671  41.765  43.346   1.394
33001W        W 4672  14.814   2.450  14.977
33002W        W 4673  25.089  17.029  10.779
33003W        W 4674  21.708   4.429   0.879
33004W        W 4675   3.353  35.563   3.833
33005W        W 4676  24.760  33.927  13.025
33006W        W 4677   0.535  16.187  11.946
33007W        W 4678  15.412   6.934   1.881
33008W        W 4679  14.618  27.539   0.554
33009W        W 4680  34.687  11.784   0.495
33010W        W 4681  34.058   6.398  14.707
33011W        W 4682  26.549  17.236  11.412
33012W        W 4683  44.894  27.294  12.586
33013W        W 4684   2.189  24.774   4.218
33014W        W 4685  16.132  37.590   1.103
33015W        W 4686  42.549  27.396   3.174
33016W        W 4687  42.822  37.394   0.006
33017W        W 4688  22.764  17.576   4.618
33018W        W 4689   7.837  15.451   1.203
33019W        W 4690   7.216   8.899  12.836
33020W        W 4691  21.602  40.760   2.453
33021W        W 4692  14.483  17.319  12.162
33022W        W 4693   9.304  32.518   0.927
33023W        W 4694  13.129  23.125  10.984
33024W        W 4695  29.478  26.224   4.535
33025W        W 4696  17.793   5.126  11.189
33026W        W 4697   6.693  30.454   4.581
33027W        W 4698   4.790  38.503  12.060
33028W        W 4699  31.046  24.052   0.325
33029W        W 4700   1.419  33.676   3.975
33030W        W 4701  41.554  15.888  11.981
33031W        W 4702  33.435  12.236  12.933
33032W        W 4703  43.676   3.287  13.717
33033W        W 4704   6.210   1.891   4.110
33034W        W 4705  26.239  42.571   1.422
33035W        W 4706  22.522  18.142   0.030
33036W        W 4707  28.596   0.535  14.259
33037W        W 4708   0.615  29.470  12.009
33038W        W 4709   0.329   6.165  14.396
33039W        W 4710  37.614  22.357   1.862
33040W        W 4711  13.066   4.734  14.725
33041W        W 4712   9.084  13.029   2.290
33042W        W 4713   9.330  21.213   4.856
33043W        W 4714  24.212  14.689  14.272
33044W        W 4715  37.144  20.625   2.300
33045W        W 4716  19.959  23.618   5.134
33046W        W 4717   1.995  42.965  14.990
33047W        W 4718   7.970  38.091  11.548
33048W        W 4719  40.360  24.566  10.922
33049W        W 4720  33.210  21.767   1.811
33050W        W 4721  39.004   8.826   0.631
33051W        W 4722  31.377  37.015  12.414
33052W        W 4723  16.241  41.783  11.689
33053W        W 4724  43.907  39.526   3.692
33054W        W 4725  44.410  36.640   0.558
33055W        W 4726  35.277  11.626  11.070
33056W        W 4727  36.608  34.880   2.272
33057W        W 4728  27.567  39.475  13.960
33058W        W 4729  16.323  26.711  12.616
33059W        W 4730  25.468   9.519  11.138
33060W        W 4731   2.616  44.123  12.905
33061W        W 4732   5.222   1.148   1.811
33062W        W 4733  35.329  10.668  12.992
33063W        W 4734  16.296  17.761  13.952
33064W        W 4735  41.242  40.281   4.816
33065W        W 4736  26.583  30.431   3.613
33066W        W 4737  44.306  34.684  12.511
33067W        W 4738  21.352  44.585  13.944
33068W        W 4739  13.113  14.228   3.207
33069W        W 4740  34.233  14.618   2.489
33070W        W 4741  29.186   4.147  11.559
33071W        W 4742  22.482   7.671   3.745
33072W        W 4743  25.587  12.194  13.809
33073W        W 4744  31.844  40.458   0.958
33074W        W 4745  42.862  24.704   0.171
33075W        W 4746  31.913  20.866  14.545
33076W        W 4747  30.580  24.459  14.066
33077W        W 4748   6.675  23.535   0.492
33078W        W 4749   7.089  15.249  14.164
33079W        W 4750  33.616  37.628  13.018
33080W        W 4751  42.396   2.182  10.837
33081W        W 4752  24.589   2.914  11.146
33082W        W 4753  36.834  31.370  10.808
33083W        W 4754  38.809  23.067   3.798
33084W        W 4755  21.735  21.081   0.329
33085W        W 4756   2.278  19.001  13.480
33086W        W 4757  24.388  30.255  14.009
33087W        W 4758  11.633   4.044   2.256
33088W        W 4759  18.003  42.911  12.932
33089W        W 4760   2.438  38.803  11.959
33090W        W 4761   1.305  33.047  14.025
33091W        W 4762   6.419  21.145  11.088
33092W        W 4763  21.477  44.301   4.156
33093W        W 4764  43.860  37.387  10.438
33094W        W 4765   3.374  23.924   1.163
33095W        W 4766  32.390  31.588   3.327
33096W        W 4767   5.805  20.703   2.048
33097W        W 4768  39.318  12.293  13.896
33098W        W 4769  19.076  32.330   2.374
33099W        W 4770  28.628  17.618   2.970
33100W        W 4771  29.367   3.968  12.878
33101W        W 4772  23.448  42.767  13.584
33102W        W 4773  39.787  30.604  12.614
33103W        W 4774   3.431  17.078   1.873
33104W        W 4775  36.568  10.656  12.588
33105W        W 4776   8.797  15.648   5.112
33106W        W 4777   1.443  29.750  11.650
33107W        W 4778  30.369   6.131   0.363
33108W        W 4779  34.379   5.902  12.368
33109W        W 4780  36.470  22.724   3.081
33110W        W 4781  29.176  29.127  11.925
33111W        W 4782  39.583  31.118   3.082
33112W        W 4783  42.855   7.761   1.956
33113W        W 4784  24.532  25.986   2.794
33114W        W 4785   9.065   4.773   1.972
33115W        W 4786  31.642  14.529   3.185
33116W        W 4787  19.577  24.771   5.128
33117W        W 4788   8.731   6.796   4.353
33118W        W 4789  29.641  41.514   0.435
33119W        W 4790  11.276  15.013   4.791
33120W        W 4791  22.189  32.733  12.959
33121W        W 4792   8.138  39.516   2.791
33122W        W 4793  19.151  42.242  13.417
33123W        W 4794   1.286  44.275   2.179
33124W        W 4795  11.820   1.953   5.032
33125W        W 4796  20.135  16.618  11.295
33126W        W 4797  22.268  21.580   1.028
33127W        W 4798  32.854  33.634  12.605
33128W        W 4799  30.006   3.705   3.269
33129W        W 4800  18.057  10.266   2.857
33130W        W 4801  39.668  28.102   3.391
33131W        W 4802  16.805  25.015  10.936
33132W        W 4803  24.039   1.143  12.081
33133W        W 4804   8.520   7.513   0.658
33134W        W 4805  27.402  44.175   2.785
33135W        W 4806  39.739  26.531  11.903
33136W        W 4807  27.160  16.276   2.532
33137W        W 4808  38.558  10.829  11.078
33138W        W 4809  29.604  43.523   1.712
33139W        W 4810  32.504  41.599   5.190
33140W        W 4811  34.903  24.924   1.147
33141W        W 4812  18.074  16.374  12.873
33142W        W 4813  28.716  19.680   4.717
33143W        W 4814   5.789  41.968   1.780
33144W        W 4815  18.261  44.879  12.790
33145W        W 4816  24.143   8.186  10.755
33146W        W 4817   4.999   6.120   1.417
33147W        W 4818  26.661  26.212  11.212
33148W        W 4819  32.919  15.112   1.267
33149W        W 4820  19.287  18.630   2.811
33150W        W 4821  38.070  29.057   4.074
33151W        W 4822   3.181   4.618   5.015
33152W        W 4823  25.277   3.430   4.176
33153W        W 4824  17.764  25.673   0.806
33154W        W 4825  40.737  21.046   1.388
33155W        W 4826  11.794  23.167  10.836
33156W        W 4827   1.385  21.082  12.513
33157W        W 4828  23.650  16.489   0.789
33158W        W 4829  28.431  34.547  11.519
33159W        W 4830  17.382  31.158   9.908
33160W        W 4831   2.953  30.953   4.808
33161W        W 4832  41.997  26.082  14.916
33162W        W 4833  25.973  17.777   1.886
33163W        W 4834  43.564  16.161  12.914
33164W        W 4835  31.431  18.257   0.095
33165W        W 4836  24.058   9.199   3.391
33166W        W 4837  13.866  25.091   1.333
33167W        W 4838   4.156  24.293   4.137
33168W        W 4839  29.061  22.289   1.784
33169W        W 4840  27.765   2.512  11.529
33170W        W 4841  11.864  13.678   3.541
33171W        W 4842  42.521  37.880   3.048
33172W        W 4843   9.409  32.494  11.911
33173W        W 4844  30.034  25.082   3.688
33174W        W 4845  22.162  26.956   2.390
33175W        W 4846   1.940  10.925   2.035
33176W        W 4847  42.455   4.438   0.343
33177W        W 4848  30.327  18.069   3.310
33178W        W 4849  27.065  16.632  13.804
33179W        W 4850  17.789   7.658   4.421
33180W        W 4851  41.291  28.992   0.441
33181W        W 4852  28.508  13.578   1.197
33182W        W 4853  23.465  33.008   1.865
33183W        W 4854  29.643  31.494   2.489
33184W        W 4855  44.207  40.371  13.903
33185W        W 4856  40.379  24.703   1.499
33186W        W 4857  31.122  17.152   5.148
33187W        W 4858  13.080  12.151   0.397
33188W        W 4859  36.639  21.620  11.069
33189W        W 4860   4.435  39.798  12.814
33190W        W 4861  19.809  38.988  11.222
33191W        W 4862  31.645  21.587   4.933
33192W        W 4863  40.364  25.712  13.020
33193W        W 4864  16.776  36.625   4.176
33194W        W 4865  10.733  30.063   4.516
33195W        W 4866   5.511  37.826   4.227
33196W        W 4867   4.771   1.361  14.803
33197W        W 4868  28.399  34.305  10.969
33198W        W 4869  38.395   7.428  12.872
33199W        W 4870  26.227  36.730   0.346
33200W        W 4871  27.460   2.194   3.202
33201W        W 4872  15.878  34.916  14.477
33202W        W 4873   2.460  22.693  13.410
33203W        W 4874  41.083  40.779   2.675
33204W        W 4875  35.481  41.474   4.432
33205W        W 4876   3.672  44.911  10.677
33206W        W 4877  38.751   3.329   1.302
33207W        W 4878  10.833  25.117   4.528
33208W        W 4879  31.889  31.410  12.863
33209W        W 4880  10.668  40.825  11.430
33210W        W 4881  13.206   3.831  14.843
33211W        W 4882  12.369  30.498   1.821
33212W        W 4883  34.496  16.592  10.682
33213W        W 4884  28.445  38.370  13.084
33214W        W 4885  28.695  21.252   4.660
33215W        W 4886  33.966  23.454   3.712
33216W        W 4887  11.483  11.585  14.881
33217W        W 4888  29.529  17.262   1.835
33218W        W 4889  31.260  34.170  12.558
33219W        W 4890  19.123  33.622   0.838
33220W        W 4891  32.435  41.701   1.788
33221W        W 4892  34.111   3.977   1.627
33222W        W 4893  32.615   8.100  13.573
33223W        W 4894   5.710  16.751   4.290
33224W        W 4895   9.871  17.819   1.240
33225W        W 4896  15.333  42.009  14.856
33226W        W 4897  36.467   5.379  11.393
33227W        W 4898  15.637  33.487   3.131
33228W        W 4899  15.594  34.838   0.903
33229W        W 4900  42.579  27.030   1.224
33230W        W 4901  21.597   4.395   1.390
33231W        W 4902  32.463  43.273  14.297
33232W        W 4903  34.094   9.627   3.623
33233W        W 4904  22.973   5.903  12.085
33234W        W 4905  27.183  26.383  11.191
33235W        W 4906  35.113  20.586   2.227
33236W        W 4907  13.635  40.614   0.668
33237W        W 4908   2.368  19.661  13.075
33238W        W 4909  18.234  19.628   3.368
33239W        W 4910  18.316  11.190  11.072
33240W        W 4911  30.158  29.877   3.788
33241W        W 4912   3.804  15.756  13.940
33242W        W 4913  44.501  37.595   1.921
33243W        W 4914  25.590  44.620   4.031
33244W        W 4915  10.289   8.160   0.276
33245W        W 4916  23.448  12.883   3.665
33246W        W 4917  28.032  38.455  14.976
33247W        W 4918  27.552  30.596   3.639
33248W        W 4919  39.853  44.001   1.502
33249W        W 4920  37.962   5.370  11.544
33250W        W 4921   5.287  19.385   1.850
33251W        W 4922  30.095  43.481   1.506
33252W        W 4923  11.220  24.737  12.012
33253W        W 4924  32.173  32.023  14.977
33254W        W 4925   6.297  21.564  12.540
33255W        W 4926  37.017  25.157  13.829
33256W        W 4927   2.243   8.296   1.990
33257W        W 4928   0.726  13.608   3.071
33258W        W 4929  12.619  10.833   1.769
33259W        W 4930  38.971   8.144   1.804
33260W        W 4931  15.153  23.057  10.723
33261W        W 4932  26.976   9.906  12.272
33262W        W 4933  33.220  30.485   2.335
33263W        W 4934  27.162  42.608   3.106
33264W        W 4935  35.992  23.649  14.960
33265W        W 4936  10.934  18.478  12.383
33266W        W 4937  35.104   6.610  10.709
33267W        W 4938   6.655  25.505   3.215
33268W        W 4939  22.504  10.768  14.470
33269W        W 4940  44.499  22.056  12.503
33270W        W 4941   8.373  12.658  14.952
33271W        W 4942   5.270  37.772   3.780
33272W        W 4943  33.862  27.914   3.103
33273W        W 4944  16.351  30.463  12.977
33274W        W 4945  39.572  42.353  11.591
33275W        W 4946  25.786  13.287  12.490
33276W        W 4947  40.030  30.617  13.115
33277W        W 4948  21.278  23.125   5.045
33278W        W 4949  30.496  18.831  12.795
33279W        W 4950  32.070   4.798  10.024
33280W        W 4951  11.896  28.828  12.647
33281W        W 4952  41.546   3.000   2.128
33282W        W 4953  27.915  40.454   4.267
33283W        W 4954   4.411  20.199   3.148
33284W        W 4955  33.315  41.541   0.371
33285W        W 4956  30.730  26.664   5.071
33286W        W 4957  10.071  25.493   2.764
33287W        W 4958  28.288  29.227  14.205
33288W        W 4959  19.750  28.637  11.475
33289W        W 4960  26.936  10.349  12.542
33290W        W 4961  35.623  36.405   0.815
33291W        W 4962  34.538  24.030   0.308
33292W        W 4963   9.408  33.132   0.405
33293W        W 4964  34.126  18.137   2.369
33294W        W 4965  19.704  20.510   3.798
33295W        W 4966  15.446  12.477   0.323
33296W        W 4967   8.112  26.718   3.668
33297W        W 4968  29.201  34.174  11.141
33298W        W 4969  36.937  30.946   4.379
33299W        W 4970   4.819   8.192   4.947
33300W        W 4971   8.690   7.839   0.273
33301W        W 4972  36.118  34.175  14.459
33302W        W 4973   6.596  29.484   2.356
33303W        W 4974  40.477  16.725   1.927
33304W        W 4975  23.658  12.535  13.938
33305W        W 4976  37.324   3.535  12.150
33306W        W 4977   3.780  21.587   2.189
33307W        W 4978  20.586  15.781  12.555
33308W        W 4979  15.162  35.081   0.752
33309W        W 4980   2.740  41.056   1.804
33310W        W 4981  22.335  23.885   3.400
33311W        W 4982  18.755  12.889   3.228
33312W        W 4983  37.651  26.592  11.563
33313W        W 4984  16.587  38.306   2.118
33314W        W 4985   8.762  26.895  12.906
33315W        W 4986   2.486  39.716   4.337
33316W        W 4987  28.726  16.227  13.424
33317W        W 4988  11.330   8.236  10.357
33318W        W 4989  25.414  22.737  12.123
33319W        W 4990  35.637   1.040   4.667
33320W        W 4991  27.644  13.276   0.772
33321W        W 4992   5.414   8.376   2.430
33322W        W 4993  35.457   4.907   2.183
33323W        W 4994   0.728  41.341   2.320
33324W        W 4995   5.829   8.065   2.315
33325W        W 4996  43.959  34.891   3.664
33326W        W 4997  36.346  18.131   1.007
33327W        W 4998  33.213   8.303  11.102
33328W        W 4999  30.770  36.378  14.342
33329W        W 5000  24.472  17.624   4.248
33330W        W 5001  17.842  24.458  13.341
33331W        W 5002  44.570  32.095  13.620
33332W        W 5003  25.924  44.449  12.546
33333W        W 5004  16.142  33.629  12.012
33334W        W 5005  28.558  27.924  11.155
33335W        W 5006  40.805  23.559   1.278
33336W        W 5007  21.602  26.237   4.788
33337W        W 5008  25.879  18.951  12.751
33338W        W 5009   7.767   2.982  13.918
33339W        W 5010  22.753  26.599   1.662
33340W        W 5011  32.601   9.741  13.514
33341W        W 5012   8.724  36.007   0.277
33342W        W 5013  29.738  37.443  10.068
33343W        W 5014  40.369  17.778   2.836
33344W        W 5015   1.721  11.329   3.340
33345W        W 5016   9.549  14.777   0.712
33346W        W 5017  28.420  29.358  13.292
33347W        W 5018   8.763  39.034  11.566
33348W        W 5019  21.849   2.686  13.429
33349W        W 5020  22.697  17.624  13.444
33350W        W 5021  42.988  14.099   9.819
33351W        W 5022   0.267  21.877  13.759
33352W        W 5023   7.519  17.912  12.097
33353W        W 5024  35.211  15.179  11.564
33354W        W 5025  11.250   4.247   1.457
33355W        W 5026   8.889  23.134  11.361
33356W        W 5027  39.975  29.748   0.256
33357W        W 5028  31.160   3.675   4.560
33358W        W 5029  17.377  38.818  11.250
33359W        W 5030  44.513  20.679   2.412
33360W        W 5031  43.871   6.949   1.152
33361W        W 5032  14.352  39.259   2.105
33362W        W 5033  19.548  15.305  13.826
33363W        W 5034  35.920  29.926  13.291
33364W        W 5035   0.346  35.561  13.003
33365W        W 5036  11.168   3.504  13.476
33366W        W 5037  21.310  22.549  13.312
33367W        W 5038   3.956  29.003  12.358
33368W        W 5039  35.675  21.120  10.302
33369W        W 5040   7.396  17.074  13.897
33370W        W 5041  44.393  19.534  12.344
33371W        W 5042  36.388  16.729   0.898
33372W        W 5043  30.262   3.701   1.923
33373W        W 5044  34.065  26.229  13.254
33374W        W 5045  18.902  38.520   1.512
33375W        W 5046  43.862  37.315  13.786
33376W        W 5047  44.719  20.645   1.949
33377W        W 5048  44.279  29.761  11.046
33378W        W 5049  11.599  20.987   3.191
33379W        W 5050  18.362   1.619  14.862
33380W        W 5051  22.609  39.767  14.666
33381W        W 5052  14.209  22.422  13.839
33382W        W 5053  29.480  22.188   4.011
33383W        W 5054  26.015   6.237   2.357
33384W        W 5055  26.071   0.060   4.683
33385W        W 5056  43.882  43.964   1.321
33386W        W 5057  29.665   4.541  14.085
33387W        W 5058   0.507  32.499   1.347
33388W        W 5059   0.534  39.072  11.342
33389W        W 5060  30.136  11.376   2.674
33390W        W 5061  14.787  17.475  12.859
33391W        W 5062  12.174  24.983  10.986
33392W        W 5063   1.760   1.539   1.867
33393W        W 5064   2.512  43.377  11.471
33394W        W 5065  32.147  24.617  11.648
33395W        W 5066   9.379  27.711  13.607
33396W        W 5067   7.354  27.466   2.719
33397W        W 5068  36.447  37.416  13.045
33398W        W 5069   6.361  36.527  12.366
33399W        W 5070   7.812  38.150   0.489
33400W        W 5071  25.517  18.284  10.641
33401W        W 5072   4.223  43.940  14.242
33402W        W 5073  33.940   7.923  13.986
33403W        W 5074  31.974  28.560  12.016
33404W        W 5075   5.769  12.558  13.434
33405W        W 5076  43.738   3.262  14.640
33406W        W 5077  23.139  37.074  11.487
33407W        W 5078  31.454  34.610  12.971
33408W        W 5079  16.029  44.588   5.097
33409W        W 5080   5.528   6.857  11.244
33410W        W 5081  26.648   7.199  12.504
33411W        W 5082  20.271  29.037  14.567
33412W        W 5083   8.155  15.740  10.775
33413W        W 5084  25.955  10.672  13.366
33414W        W 5085  28.539  38.005  12.299
33415W        W 5086  34.837  11.761  12.004
33416W        W 5087  28.167  11.812   1.855
33417W        W 5088  19.755  35.097   0.488
33418W        W 5089  42.417  32.963  13.102
33419W        W 5090  26.430  26.538   2.720
33420W        W 5091  43.491   5.205   0.896
33421W        W 5092  28.503  37.592  11.925
33422W        W 5093  36.586   0.703  13.519
33423W        W 5094  42.970  34.555   0.187
33424W        W 5095   3.141  23.674   1.775
33425W        W 5096   2.702   2.650   0.837
33426W        W 5097  40.338  14.398  10.404
33427W        W 5098  31.369  44.288  12.271
33428W        W 5099  15.357  33.881  12.937
33429W        W 5100   9.982  37.061   4.581
33430W        W 5101   2.869   8.990   2.488
33431W        W 5102   2.813   5.337  10.731
33432W        W 5103  19.483  41.314   1.445
33433W        W 5104   7.454  27.584   4.154
33434W        W 5105  32.642  40.817  11.110
33435W        W 5106  40.095  33.953  12.307
33436W        W 5107  36.971  42.262  13.918
33437W        W 5108  24.181   9.759  12.649
33438W        W 5109  42.841  32.372  13.546
33439W        W 5110  32.529  40.834   0.285
33440W        W 5111  34.567   9.073   2.416
33441W        W 5112  32.742  24.968  14.510
33442W        W 5113  12.075  17.225   1.686
33443W        W 5114  23.022   3.145   1.201
33444W        W 5115  14.584  18.334   1.234
33445W        W 5116  42.855   3.882  14.764
33446W        W 5117   9.854   6.283  13.921
33447W        W 5118   4.047  35.859  14.343
33448W        W 5119  31.894  32.508  13.480
33449W        W 5120   8.584  25.709  13.994
33450W        W 5121  13.596  25.546  14.241
33451W        W 5122  25.131  42.060  13.494
33452W        W 5123  28.182  34.662   3.727
33453W        W 5124  37.599  13.072   4.657
33454W        W 5125  40.632  19.847  13.291
33455W        W 5126   0.683  20.099   3.161
33456W        W 5127  21.526  15.073   0.380
33457W        W 5128  30.636   8.547   3.097
33458W        W 5129  13.907   6.414   2.768
33459W        W 5130  32.919  35.638   1.469
33460W        W 5131   3.319   2.848  13.425
33461W        W 5132  10.330  10.535   0.419
33462W        W 5133   8.875  23.138  10.324
33463W        W 5134  14.209  11.992   3.875
33464W        W 5135  25.065  13.300  13.308
33465W        W 5136  38.556  37.008  11.155
33466W        W 5137   5.075  27.009   0.312
33467W        W 5138  28.720   0.586  10.614
33468W        W 5139  21.525  15.506  12.285
33469W        W 5140  38.865   2.921  13.791
33470W        W 5141  13.187   5.026   0.523
33471W        W 5142  32.708  22.727   0.010
33472W        W 5143  38.020  32.188  14.051
33473W        W 5144   4.289  31.190   2.565
33474W        W 5145  36.902  13.172   2.623
33475W        W 5146  15.084  40.735   4.135
33476W        W 5147  37.443  27.449   0.360
33477W        W 5148  28.495   7.211  12.450
33478W        W 5149   3.269  35.845   2.416
33479W        W 5150   9.280  25.296   0.007
33480W        W 5151  10.301   6.859   1.687
33481W        W 5152   7.730  28.269  11.798
33482W        W 5153  36.448  21.596   1.749
33483W        W 5154  31.824  13.269   3.682
33484W        W 5155  20.489   2.437  12.393
33485W        W 5156  43.869  23.186  13.039
33486W        W 5157  10.737   9.422   0.235
33487W        W 5158  29.159   8.912   0.180
33488W        W 5159  27.477  22.837   2.411
33489W        W 5160  34.902  15.450   3.498
33490W        W 5161  27.104   3.381   3.546
33491W        W 5162  38.687  43.678   0.909
33492W        W 5163   8.477  31.594   1.577
33493W        W 5164  39.007   2.602   4.972
33494W        W 5165   2.411   2.953  11.986
33495W        W 5166  18.092   7.963  12.363
33496W        W 5167  28.910  14.640  13.930
33497W        W 5168  42.506  37.521   4.226
33498W        W 5169  36.520  10.736   4.548
33499W        W 5170  42.765  28.237   2.738
33500W        W 5171  33.648  42.278  12.007
33501W        W 5172  18.842  43.390   2.989
33502W        W 5173  41.543   2.968  14.423
33503W        W 5174   8.145  29.320  11.212
33504W        W 5175  12.568  27.951  14.546
33505W        W 5176   2.768   8.801  13.384
33506W        W 5177   2.844  38.873  14.446
33507W        W 5178   2.351  31.998  13.351
33508W        W 5179  12.580  14.270   3.213
33509W        W 5180   9.278  20.522  13.572
33510W        W 5181  11.578  43.535   0.770
33511W        W 5182  15.916  41.306   3.371
33512W        W 5183   8.386  31.628  10.502
33513W        W 5184   1.270  37.566  10.650
33514W        W 5185   5.297  44.281   1.067
33515W        W 5186  19.831   2.176   1.392
33516W        W 5187  40.525  14.167  13.255
33517W        W 5188  24.065  28.749   1.630
33518W        W 5189  32.334  15.725   1.742
33519W        W 5190   5.695  29.426   2.347
33520W        W 5191  14.093  35.982  14.001
33521W        W 5192  25.621  24.185  13.279
33522W        W 5193  36.938  13.787   0.010
33523W        W 5194  35.156  41.542  11.587
33524W        W 5195  12.625  32.192  11.994
33525W        W 5196  39.789  42.089  12.002
33526W        W 5197  24.279  15.194   0.889
33527W        W 5198  20.730  33.620   0.138
33528W        W 5199  15.130  24.979  14.903
33529W        W 5200  41.356   5.802   4.223
33530W        W 5201   5.270  32.876   0.278
33531W        W 5202  30.029  43.177   4.198
33532W        W 5203  40.977  24.513   1.710
33533W        W 5204  44.687   9.042   1.042
33534W        W 5205   6.497  38.451  10.794
33535W        W 5206  37.901  31.439  11.593
33536W        W 5207   4.792  18.029   0.202
33537W        W 5208  21.599  13.883  13.609
33538W        W 5209  16.963  16.944   4.818
33539W        W 5210  39.953  11.651  11.601
33540W        W 5211  11.600  34.962  14.859
33541W        W 5212   4.648   0.864   4.452
33542W        W 5213  34.170   2.338  12.026
33543W        W 5214   9.270  30.222   1.310
33544W        W 5215  23.065  33.167  11.239
33545W        W 5216  32.858   5.863   4.533
33546W        W 5217   5.298  33.235  14.901
33547W        W 5218  31.332  18.733   1.769
33548W        W 5219  36.848  25.395   4.206
33549W        W 5220  13.870  42.743   3.848
33550W        W 5221   7.397  39.858  10.619
33551W        W 5222  29.987  25.596  11.930
33552W        W 5223  23.347   0.872   2.752
33553W        W 5224   9.960  24.277  11.967
33554W        W 5225   4.777   4.696   0.658
33555W        W 5226  44.603  29.387  13.035
33556W        W 5227  34.418   4.719   1.178
33557W        W 5228  23.727   7.315   0.913
33558W        W 5229   4.905  41.589   4.664
33559W        W 5230  18.659  20.648  14.864
33560W        W 5231  39.063  41.794  14.315
33561W        W 5232  17.712   4.380  12.925
33562W        W 5233  40.104  31.388  11.479
33563W        W 5234   7.743  16.222   2.850
33564W        W 5235   6.366   3.480  10.743
33565W        W 5236  41.915  31.149  11.726
33566W        W 5237   2.853  18.639  13.906
33567W        W 5238  20.557  43.382  10.576
33568W        W 5239  13.146  27.395   1.535
33569W        W 5240  44.292  18.664   0.898
33570W        W 5241  12.639   3.930  10.604
33571W        W 5242  43.713  32.198   3.959
33572W        W 5243  18.490  21.674   2.818
33573W        W 5244  20.116  44.169  14.468
33574W        W 5245   4.832   2.245   4.595
33575W        W 5246  21.573  14.806  12.888
33576W        W 5247  42.558   3.833  12.045
33577W        W 5248  14.541   3.980   4.076
33578W        W 5249  10.189  42.249  14.284
33579W        W 5250   8.350  21.447   4.099
33580W        W 5251  24.746  26.344  11.110
33581W        W 5252  16.667  13.280  14.403
33582W        W 5253  33.388  39.788   1.226
33583W        W 5254   0.130  17.196   0.288
33584W        W 5255  37.463   2.924  13.709
33585W        W 5256  32.643  29.083  10.616
33586W        W 5257  20.295  10.316   1.308
33587W        W 5258  12.919  27.678  14.253
33588W        W 5259  28.134   0.701   0.239
33589W        W 5260  28.214  44.282  12.815
33590W        W 5261  23.915  25.013   2.263
33591W        W 5262  30.107  21.986   1.605
33592W        W 5263  21.139  31.917  13.558
33593W        W 5264  15.012  24.507  12.937
33594W        W 5265  34.973  22.463   3.285
33595W        W 5266  38.497  11.420  14.877
33596W        W 5267   8.114  13.392  12.905
33597W        W 5268  42.503  36.999   4.103
33598W        W 5269  12.720   2.411  10.732
33599W        W 5270  30.646  23.678  10.486
33600W        W 5271  12.160  39.022   0.274
33601W        W 5272  13.242  40.008  12.543
33602W        W 5273  10.194  17.295   0.567
33603W        W 5274  32.404  12.226   4.740
33604W        W 5275  21.993  35.184   1.858
33605W        W 5276  17.341  36.902  11.416
33606W        W 5277  23.104  17.667  14.090
33607W        W 5278  10.112   3.164   3.661
33608W        W 5279  12.964  18.218  13.684
33609W        W 5280   2.924  14.378   3.588
33610W        W 5281  12.816  28.643  12.020
33611W        W 5282   3.263  28.663   2.345
33612W        W 5283  16.765  25.958  14.235
33613W        W 5284  26.810  24.140  11.326
33614W        W 5285  28.058  26.230   3.591
33615W        W 5286  18.239  24.643   3.225
33616W        W 5287  23.946  28.581   4.828
33617W        W 5288  39.902  39.346  12.651
33618W        W 5289  23.024   6.676   2.152
33619W        W 5290  19.014  14.637  12.454
33620W        W 5291  12.149   8.394  13.814
33621W        W 5292  36.106  32.401   3.734
33622W        W 5293  10.629  28.239   3.879
33623W        W 5294  42.662   9.411   2.648
33624W        W 5295  14.288  14.055   0.510
33625W        W 5296  44.449   4.130   0.289
33626W        W 5297  32.321   8.692   3.242
33627W        W 5298  40.578  40.263  14.064
33628W        W 5299   9.125  34.107  11.169
33629W        W 5300  18.870  40.923  13.090
33630W        W 5301   4.149  14.625  13.470
33631W        W 5302  37.410  12.902  14.718
33632W        W 5303  29.524  34.423   1.934
33633W        W 5304  28.624  22.059  12.188
33634W        W 5305   1.471  38.056  11.684
33635W        W 5306  21.163  37.294  12.428
33636W        W 5307  21.787  27.937   2.250
33637W        W 5308  18.144  37.992   3.024
33638W        W 5309   1.664   0.823   2.750
33639W        W 5310  33.354  31.776   5.082
33640W        W 5311   4.374  39.589   4.121
33641W        W 5312   2.287   9.635   1.270
33642W        W 5313   9.070   2.937   1.746
33643W        W 5314   3.179  17.577   1.740
33644W        W 5315  15.861  10.932  12.085
33645W        W 5316  35.427  23.573   2.195
33646W        W 5317  31.055  31.834  11.204
33647W        W 5318   0.230   7.277  13.423
33648W        W 5319   3.483   1.396  12.918
33649W        W 5320   2.478  23.611  13.865
33650W        W 5321  19.241  35.392   4.557
33651W        W 5322   9.330  15.182  13.125
33652W        W 5323  27.520  12.220   3.056
33653W        W 5324  11.970  29.738  10.383
33654W        W 5325   5.114   2.397   2.719
33655W        W 5326  15.550  32.622  11.122
33656W        W 5327  31.166   2.985  10.862
33657W        W 5328   0.184  34.075  14.927
33658W        W 5329  29.767  37.907   4.153
33659W        W 5330  18.704  18.292  10.453
33660W        W 5331   9.870   5.761  13.780
33661W        W 5332  12.867  18.862  13.405
33662W        W 5333  21.238  33.556  12.394
33663W        W 5334  20.457  40.716   3.501
33664W        W 5335  19.539  25.448  11.498
33665W        W 5336  44.314  15.143   0.220
33666W        W 5337  42.981  21.727  13.529
33667W        W 5338  20.959   4.506  13.949
33668W        W 5339  41.513  44.312  11.385
33669W        W 5340  33.741   0.849  10.333
33670W        W 5341  30.661  19.460   2.211
33671W        W 5342  10.922  42.528  10.737
33672W        W 5343   2.237   0.040   0.189
33673W        W 5344  17.002  23.478  14.448
33674W        W 5345  13.923  16.718   1.670
33675W        W 5346  38.764  32.229  10.494
33676W        W 5347  22.264  36.280  14.390
33677W        W 5348  17.709   4.011  14.370
33678W        W 5349  24.166  40.495   0.765
33679W        W 5350  28.347  17.041  12.849
33680W        W 5351   2.942   5.161  12.230
33681W        W 5352  27.386  31.317   0.889
33682W        W 5353  33.048   1.742  11.926
33683W        W 5354  11.042  12.682  13.930
33684W        W 5355  11.349  28.569   2.207
33685W        W 5356   0.904  20.033   0.651
33686W        W 5357  28.150  40.899   4.227
33687W        W 5358  44.825   8.839   3.919
33688W        W 5359  44.838   2.416  10.566
33689W        W 5360   2.114  17.760   2.797
33690W        W 5361  24.601  16.572  11.832
33691W        W 5362   9.844  22.738  11.052
33692W        W 5363  23.295  27.583  12.771
33693W        W 5364  18.592  28.015   2.245
33694W        W 5365  34.589   9.911  14.294
33695W        W 5366  18.134  11.497  11.889
33696W        W 5367   1.941  27.553   1.394
33697W        W 5368  15.260  30.949  10.574
33698W        W 5369  21.078  35.555  11.009
33699W        W 5370  43.256   2.272  10.628
33700W        W 5371   6.354  14.705  11.519
33701W        W 5372  17.269  20.000   4.613
33702W        W 5373  41.340  16.899   0.793
33703W        W 5374  34.873  12.650  12.801
33704W        W 5375  28.158  26.345  11.779
33705W        W 5376  18.409  42.835   0.421
33706W        W 5377  35.362  17.544  13.361
33707W        W 5378  22.913  38.078   2.699
33708W        W 5379  27.519  19.525   2.865
33709W        W 5380  44.767   2.002  13.007
33710W        W 5381  30.587  25.736  10.710
33711W        W 5382   9.842  40.145  12.968
33712W        W 5383  40.421  38.824  10.127
33713W        W 5384  20.634   6.837   4.475
33714W        W 5385  33.470  28.693  13.428
33715W        W 5386   4.705  42.877  11.058
33716W        W 5387  13.359   9.302  12.101
33717W        W 5388  32.370   2.380  14.500
33718W        W 5389  22.374  24.187   4.817
33719W        W 5390  41.106  26.516   0.900
33720W        W 5391  41.316  41.977  13.403
33721W        W 5392   1.191  44.883   2.775
33722W        W 5393   5.680   4.710   3.378
33723W        W 5394   8.756  44.877   4.215
33724W        W 5395  19.872  31.848  14.468
33725W        W 5396  11.655   0.997   4.646
33726W        W 5397   4.290  29.439  13.635
33727W        W 5398   0.746  29.004  14.387
33728W        W 5399  10.720  22.119  13.806
33729W        W 5400  16.757  10.290  12.164
33730W        W 5401  38.787  28.194   2.164
33731W        W 5402   3.212  13.877   0.478
33732W        W 5403   8.252  14.224  13.497
33733W        W 5404  24.042  40.790   2.746
33734W        W 5405   7.896  28.466   0.179
33735W        W 5406  38.310  35.291  14.768
33736W        W 5407  30.106  19.616  14.286
33737W        W 5408  37.903  43.779   0.392
33738W        W 5409  13.301  32.487  14.557
33739W        W 5410   5.066  38.316   1.380
33740W        W 5411  42.596  30.812   5.107
33741W        W 5412   7.160  30.153  13.022
33742W        W 5413  16.158  31.088  13.262
33743W        W 5414  37.385  21.121   3.807
33744W        W 5415  28.878  19.690   3.548
33745W        W 5416   5.929  12.313  11.150
33746W        W 5417  21.602  20.403  12.618
33747W        W 5418   4.277   7.665  14.058
33748W        W 5419  38.351   4.491  12.509
33749W        W 5420  29.019  13.697   4.792
33750W        W 5421  13.637  39.835   0.283
33751W        W 5422  44.842  11.719  13.566
33752W        W 5423  40.791  23.088  11.204
33753W        W 5424  32.565  42.916   2.795
33754W        W 5425  41.072   8.932   1.382
33755W        W 5426   9.944   9.349  12.639
33756W        W 5427  30.914   5.465  10.698
33757W        W 5428  11.591  20.099   1.241
33758W        W 5429  22.775  29.484  10.743
33759W        W 5430  18.045   7.910   2.370
33760W        W 5431  39.519  14.588   4.611
33761W        W 5432  40.408  29.534   1.085
33762W        W 5433  30.508  36.798   3.310
33763W        W 5434   6.258  10.777  14.597
33764W        W 5435  32.634   8.594  11.641
33765W        W 5436  24.663  31.951  11.215
33766W        W 5437  43.939  10.982  11.947
33767W        W 5438  12.882   2.077   0.861
33768W        W 5439  32.556  27.608   2.395
33769W        W 5440  44.794  43.314   0.717
33770W        W 5441  32.395  25.908   4.944
33771W        W 5442  24.312  41.565   1.776
33772W        W 5443   7.403  34.523   3.510
33773W        W 5444  18.045   6.968   3.399
33774W        W 5445  18.585  10.578  12.453
33775W        W 5446  28.591  32.146  14.321
33776W        W 5447  32.377  13.060  14.912
33777W        W 5448   6.277  30.601  13.481
33778W        W 5449  19.190  42.111   3.123
33779W        W 5450  35.848  31.378  11.351
33780W        W 5451  29.881  27.526   3.608
33781W        W 5452  21.628   9.106   3.508
33782W        W 5453  13.364  18.935   2.318
33783W        W 5454  40.423   8.020  13.640
33784W        W 5455  14.741  19.490   3.139
33785W        W 5456  27.112  43.437   1.948
33786W        W 5457  14.072  15.154  11.707
33787W        W 5458  31.861  15.259   4.759
33788W        W 5459   7.399  21.363  12.939
33789W        W 5460  28.422  40.978   0.236
33790W        W 5461  18.608  33.616   0.278
33791W        W 5462  13.993  28.281  13.374
33792W        W 5463  12.671  38.773  12.037
33793W        W 5464  10.245  21.664  11.902
33794W        W 5465  14.422   5.666  12.126
33795W        W 5466  38.859  11.793   0.149
33796W        W 5467   2.083  24.776   2.762
33797W        W 5468  21.154   7.913   2.749
33798W        W 5469  16.820  38.244   1.656
33799W        W 5470   8.611  35.904  12.463
33800W        W 5471  38.321  43.530  12.764
33801W        W 5472  14.589  41.895   1.854
33802W        W 5473   8.374  35.409  11.567
33803W        W 5474  35.115  19.171  12.483
33804W        W 5475  41.484  43.447  11.941
33805W        W 5476  40.439  23.975  14.494
33806W        W 5477  30.465   6.436  14.071
33807W        W 5478  43.860  39.277  14.975
33808W        W 5479  15.757  12.740  11.982
33809W        W 5480  35.033  11.333  11.826
33810W        W 5481  36.892  23.596   3.705
33811W        W 5482  34.418  34.488  10.463
33812W        W 5483   4.785  36.663   2.486
33813W        W 5484  36.627   4.092  11.165
33814W        W 5485  17.562  43.072  14.981
33815W        W 5486  39.917   0.257   1.881
33816W        W 5487  37.070  18.651  12.016
33817W        W 5488  24.558  32.312   4.742
33818W        W 5489  42.958  44.320   1.204
33819W        W 5490  20.635   5.428   0.784
33820W        W 5491   2.245   7.780   1.220
33821W        W 5492  26.619  29.679   0.836
33822W        W 5493  28.595  18.998   0.481
33823W        W 5494  16.994  24.151  14.826
33824W        W 5495  15.630  30.117  10.959
33825W        W 5496  13.859  30.094   4.296
33826W        W 5497  20.985  33.274   5.175
33827W        W 5498   1.275  11.447   3.124
33828W        W 5499  15.707   8.418  10.402
33829W        W 5500  21.306  33.962   1.890
33830W        W 5501  42.380  20.770   1.374
33831W        W 5502   3.811  18.816   4.821
33832W        W 5503  43.065  27.975   1.556
33833W        W 5504  31.020  42.114  10.965
33834W        W 5505  39.755  23.870  11.907
33835W        W 5506  18.280  41.959   4.510
33836W        W 5507  28.332  37.860  14.281
33837W        W 5508  14.300  20.092   3.826
33838W        W 5509   4.471   6.520   0.695
33839W        W 5510  10.574  22.154   4.354
33840W        W 5511   1.495  42.024  12.992
33841W        W 5512  18.514  31.856  11.228
33842W        W 5513  33.374   1.197   1.959
33843W        W 5514  42.709  16.256  13.822
33844W        W 5515   5.612   8.803  14.575
33845W        W 5516  11.214  43.023   4.797
33846W        W 5517  23.041   8.415  14.476
33847W        W 5518  22.302  18.695   0.391
33848W        W 5519  19.964  38.041   4.013
33849W        W 5520   9.424  17.582   0.310
33850W        W 5521  19.675   6.178  12.423
33851W        W 5522  19.560  39.091  11.652
33852W        W 5523   3.954  16.140  10.567
33853W        W 5524  39.608  15.676  10.616
33854W        W 5525  40.882  39.321  12.839
33855W        W 5526  22.200  40.584  11.066
33856W        W 5527  30.999  12.168  14.595
33857W        W 5528  26.457  17.729  12.387
33858W        W 5529   8.664  35.423   0.441
33859W        W 5530   9.332  32.403   4.285
33860W        W 5531  24.788  38.532  11.530
33861W        W 5532  42.369  44.079   4.598
33862W        W 5533  22.508   1.556   2.558
33863W        W 5534  42.830  15.605   2.489
33864W        W 5535   2.230  27.045   3.649
33865W        W 5536   1.324  26.972   3.293
33866W        W 5537  40.568  27.406  14.946
33867W        W 5538  34.469  25.659   2.242
33868W        W 5539   4.418  39.521  10.744
33869W        W 5540  34.370  32.020   1.312
33870W        W 5541   2.716  15.140   3.125
33871W        W 5542  28.403  21.725  11.112
33872W        W 5543   6.881  27.452  14.491
33873W        W 5544  28.409   7.235  10.711
33874W        W 5545  37.962  33.436  11.563
33875W        W 5546  41.475  18.524   3.254
33876W        W 5547   1.555  24.439   0.312
33877W        W 5548   5.232  27.856   4.253
33878W        W 5549  24.497  33.056   0.381
33879W        W 5550  37.867  35.820  11.204
33880W        W 5551  36.535   5.273   2.837
33881W        W 5552  29.468  30.051  14.347
33882W        W 5553  32.090   7.220  10.438
33883W        W 5554  43.028   4.271   3.730
33884W        W 5555   1.439  43.200   3.787
33885W        W 5556   8.175  41.166  13.554
33886W        W 5557  11.936   7.690   1.818
33887W        W 5558  39.813   6.908  12.611
33888W        W 5559  12.271  21.303  13.925
33889W        W 5560  27.050  37.358  14.434
33890W        W 5561  29.125  20.602  13.998
33891W        W 5562  31.533  20.706  12.725
33892W        W 5563  34.115  21.522  11.769
33893W        W 5564  14.402  11.922  11.605
33894W        W 5565  11.656  42.907  14.521
33895W        W 5566   0.865  15.475  11.643
33896W        W 5567  23.644  33.199   4.218
33897W        W 5568  26.713  39.991  12.580
33898W        W 5569  26.261   6.221   4.178
33899W        W 5570  35.819  11.541  12.921
33900W        W 5571  14.343  31.404  14.716
33901W        W 5572  11.887  32.462   2.724
33902W        W 5573  39.411  34.218   0.762
33903W        W 5574  14.139  28.481   2.784
33904W        W 5575  31.477   9.112   1.205
33905W        W 5576   9.812  21.159  11.191
33906W        W 5577  28.203  33.986   3.006
33907W        W 5578  43.521  12.906   2.813
33908W        W 5579  23.859  35.552  13.902
33909W        W 5580  26.585  22.729  11.561
33910W        W 5581   0.878  23.637   2.291
33911W        W 5582   5.635  15.689  11.787
33912W        W 5583  25.511  36.956  11.071
33913W        W 5584  17.284  33.962  12.485
33914W        W 5585  17.179  16.159  11.199
33915W        W 5586  15.593  21.524  12.893
33916W        W 5587  44.666  43.462  11.983
33917W        W 5588  34.548  32.439   0.108
33918W        W 5589   8.018   8.298  12.678
33919W        W 5590  18.405  13.145   4.694
33920W        W 5591   0.906  31.405  14.754
33921W        W 5592  27.268   1.286   2.671
33922W        W 5593  39.530   5.759   4.889
33923W        W 5594  43.021  28.825  11.570
33924W        W 5595  12.252  16.122  11.089
33925W        W 5596   3.928  42.816  11.466
33926W        W 5597  39.407  40.447   1.840
33927W        W 5598  28.694   9.839  12.939
33928W        W 5599  16.513  15.491   2.881
33929W        W 5600  13.277  35.904  11.934
33930W        W 5601  31.040   5.357   1.517
33931W        W 5602  13.073   6.354   4.321
33932W        W 5603  26.486  11.277   3.123
33933W        W 5604  44.534  20.580  13.609
33934W        W 5605  33.279  43.511   2.938
33935W        W 5606  12.747  35.607  13.601
33936W        W 5607   8.758  29.051   4.257
33937W        W 5608  24.077   8.117  11.660
33938W        W 5609  29.604  20.575  12.662
33939W        W 5610   5.267  17.600  13.690
33940W        W 5611  14.434  36.271   4.315
33941W        W 5612  20.691  22.532   2.208
33942W        W 5613  35.848  43.378  14.769
33943W        W 5614  34.132  12.756   0.518
33944W        W 5615  26.699  33.379  14.314
33945W        W 5616  24.232  25.983  12.486
33946W        W 5617  20.902  26.342  11.481
33947W        W 5618  41.443  28.474   1.157
33948W        W 5619  32.501   0.001   0.906
33949W        W 5620   0.869   3.551   2.717
33950W        W 5621  23.634  31.624   1.630
33951W        W 5622  33.992  27.205   4.025
33952W        W 5623   3.902  19.038  11.910
33953W        W 5624  25.976  18.125  12.988
33954W        W 5625   9.205  28.552   4.405
33955W        W 5626  20.307  31.009  13.891
33956W        W 5627  44.117  33.832  14.787
33957W        W 5628  29.871   5.844   1.778
33958W        W 5629  38.972   7.385  12.492
33959W        W 5630  18.349  31.410   1.397
33960W        W 5631  21.809  30.847  11.250
33961W        W 5632  10.297  23.662  14.295
33962W        W 5633  38.806  34.769  14.572
33963W        W 5634   3.702  44.002   3.031
33964W        W 5635  21.844  43.165  13.318
33965W        W 5636  38.968   3.036  11.126
33966W        W 5637  44.880  10.527  12.682
33967W        W 5638  26.766   6.205   4.102
33968W        W 5639   9.833  10.726   2.660
33969W        W 5640  21.054  20.760  11.713
33970W        W 5641   0.007  28.238   3.091
33971W        W 5642  10.307  20.234   1.840
33972W        W 5643  19.123   8.424   1.423
33973W        W 5644  38.916   5.003   0.926
33974W        W 5645  18.317  41.079   3.230
33975W        W 5646  40.638  41.287   1.812
33976W        W 5647   8.839  25.909  11.522
33977W        W 5648  40.354  16.991   2.364
33978W        W 5649  22.503  33.122  12.790
33979W        W 5650   2.709  26.391   3.179
33980W        W 5651  40.439  34.225  10.800
33981W        W 5652   8.319  30.485   0.696
33982W        W 5653  26.888  19.650  11.062
33983W        W 5654  24.724  13.251  11.673
33984W        W 5655  10.184   6.689   0.150
33985W        W 5656  14.187   1.275   3.838
33986W        W 5657  14.641  20.915   3.385
33987W        W 5658   9.228  43.994   3.258
33988W        W 5659  12.775  14.384  11.947
33989W        W 5660  25.513  13.370   2.175
33990W        W 5661  33.908  15.704   5.097
33991W        W 5662  25.237   3.263   1.783
33992W        W 5663  43.012  40.070  10.689
33993W        W 5664  26.429   0.048   0.397
33994W        W 5665  21.340  44.808   5.018
33995W        W 5666  41.951  35.327  12.416
33996W        W 5667  11.090  31.832   4.337
33997W        W 5668  18.479  13.568   0.254
33998W        W 5669  13.665  32.944  13.433
33999W        W 5670   6.777   4.994   1.879
34000W        W 5671  21.422  22.127   3.691
34001W        W 5672  14.717  11.355   4.557
34002W        W 5673  42.817   9.000   2.928
34003W        W 5674   4.456  17.215   1.778
34004W        W 5675  20.630   7.140  12.611
34005W        W 5676  34.973  22.577   2.790
34006W        W 5677  25.132   7.901  10.518
34007W        W 5678  23.228  14.980  14.732
34008W        W 5679  29.965  17.574   3.744
34009W        W 5680   7.872  43.836   4.591
34010W        W 5681   3.256   9.931   2.279
34011W        W 5682   2.707  28.579  13.463
34012W        W 5683  35.119  12.338  12.457
34013W        W 5684  33.865  14.711   2.834
34014W        W 5685   1.184  27.896  14.867
34015W        W 5686  19.307  14.113  13.191
34016W        W 5687  30.763  40.205  12.056
34017W        W 5688  42.513   4.390  13.754
34018W        W 5689  32.286  11.199  11.594
34019W        W 5690  16.166  37.074  10.456
34020W        W 5691  40.988   9.116  14.511
34021W        W 5692  36.692  10.212   4.644
34022W        W 5693  20.244  27.741  14.955
34023W        W 5694   5.751  11.523  13.284
34024W        W 5695  34.930   8.488   2.512
34025W        W 5696  31.985  34.766   2.241
34026W        W 5697  20.600  25.666  12.138
34027W        W 5698   6.634  42.585  13.563
34028W        W 5699  11.323   2.238   4.153
34029W        W 5700   4.399  44.439  10.877
34030W        W 5701  26.960  31.913  10.560
34031W        W 5702  32.124   4.219  10.753
34032W        W 5703  21.996   0.305  11.023
34033W        W 5704  20.852  40.913   1.443
34034W        W 5705  15.897   6.396   2.294
34035W        W 5706  27.958  43.449   0.688
34036W        W 5707  33.580  16.426   1.833
34037W        W 5708  23.714  14.514   1.361
34038W        W 5709  20.419  28.080   2.717
34039W        W 5710  26.523  37.487  12.378
34040W        W 5711  31.330  14.588   2.635
34041W        W 5712   6.470  41.073   3.250
34042W        W 5713   3.813  22.549   3.154
34043W        W 5714  24.702  10.610   4.199
34044W        W 5715  16.673  17.843  14.303
34045W        W 5716  37.210  21.697   0.522
34046W        W 5717  34.284  42.969   1.866
34047W        W 5718  29.391  28.475   2.790
34048W        W 5719  10.637  24.159   3.657
34049W        W 5720   4.002  14.701   2.281
34050W        W 5721  30.192   2.287   0.221
34051W        W 5722  14.564  23.569   0.031
34052W        W 5723  18.472  29.446   2.338
34053W        W 5724  36.841  10.442   3.624
34054W        W 5725  39.552  39.259  13.526
34055W        W 5726  42.390   7.418   3.225
34056W        W 5727  17.452  13.350  10.031
34057W        W 5728   5.883   9.686   3.608
34058W        W 5729  12.595  28.673  12.492
34059W        W 5730   2.251  40.248   1.945
34060W        W 5731  44.208   7.190   4.449
34061W        W 5732  44.937  10.841   4.692
34062W        W 5733  26.857  38.323   0.758
34063W        W 5734  33.035  40.087   5.094
34064W        W 5735  12.946  11.671   0.863
34065W        W 5736  44.402  26.486   0.790
34066W        W 5737   9.785  39.343  11.901
34067W        W 5738  31.596  23.628  10.903
34068W        W 5739   4.883   9.848   3.260
34069W        W 5740  34.348  19.189   0.292
34070W        W 5741  35.915  38.093   4.158
34071W        W 5742  39.671  15.621  13.595
34072W        W 5743  31.676  35.559   1.770
34073W        W 5744  26.920   2.402   3.199
34074W        W 5745  14.076  18.793  11.148
34075W        W 5746  33.108  20.795   2.937
34076W        W 5747  12.659  43.000   1.419
34077W        W 5748  30.387   8.053   0.743
34078W        W 5749  34.849   5.716   1.770
34079W        W 5750  10.699  13.614   2.562
34080W        W 5751   5.970   5.804   2.710
34081W        W 5752   5.771  39.346   2.098
34082W        W 5753  40.785  29.990   3.801
34083W        W 5754  13.254  11.617   0.348
34084W        W 5755  20.637  14.575   3.708
34085W        W 5756  42.833  27.878  11.590
34086W        W 5757  18.230  41.546  14.355
34087W        W 5758  36.359  24.600   2.445
34088W        W 5759  33.406   0.873   1.463
34089W        W 5760  24.543  17.810  14.023
34090W        W 5761  29.143  13.397   3.270
34091W        W 5762  34.321  41.944   2.559
34092W        W 5763   5.345  25.445  14.432
34093W        W 5764  42.816  38.379  10.229
34094W        W 5765  25.209  42.718  10.332
34095W        W 5766  37.825   2.822   3.201
34096W        W 5767  28.662  43.326   4.450
34097W        W 5768  39.148  43.588   0.573
34098W        W 5769  43.028  37.076  11.495
34099W        W 5770   1.286   6.215   2.441
34100W        W 5771  44.059  23.308  14.487
34101W        W 5772  34.882  24.051   1.130
34102W        W 5773  32.634  32.006  11.786
34103W        W 5774  30.378   0.207  11.210
34104W        W 5775  11.854  35.024   9.933
34105W        W 5776  29.884   5.866   0.755
34106W        W 5777  11.759  34.875   2.273
34107W        W 5778  37.584  28.905  11.994
34108W        W 5779  37.500  24.583  14.478
34109W        W 5780  35.151  32.753  14.282
34110W        W 5781  26.494  33.458  11.826
34111W        W 5782   0.502  13.281   3.395
34112W        W 5783  24.635   2.846   3.252
34113W        W 5784   0.725  21.036   4.125
34114W        W 5785  30.589   4.734  13.894
34115W        W 5786  17.792  23.324  14.654
34116W        W 5787  22.649  26.151  13.282
34117W        W 5788  22.695  25.046  11.578
34118W        W 5789  40.034  37.072   4.748
34119W        W 5790  41.228  32.897  14.616
34120W        W 5791  24.519   3.566  13.408
34121W        W 5792  15.268   8.309  14.911
34122W        W 5793  11.288  19.751  13.653
34123W        W 5794  34.853  26.496   2.256
34124W        W 5795  37.424   0.783   2.683
34125W        W 5796  29.628  10.220   1.826
34126W        W 5797  26.968  13.172  12.019
34127W        W 5798  28.201   1.216   3.763
34128W        W 5799   3.923  30.402   3.318
34129W        W 5800  21.636  20.764   4.633
34130W        W 5801  27.161  39.231  10.811
34131W        W 5802  33.315  38.039  14.445
34132W        W 5803  25.400  21.009  10.962
34133W        W 5804  37.732  33.013   1.422
34134W        W 5805  31.890  43.962   1.883
34135W        W 5806  21.796  34.710   1.881
34136W        W 5807  25.205   1.563   0.273
34137W        W 5808  32.638  16.588   1.389
34138W        W 5809  32.870  33.553   0.350
34139W        W 5810   3.674  16.890  11.853
34140W        W 5811   2.270  29.571  14.959
34141W        W 5812  27.032  32.969   3.011
34142W        W 5813  44.544  44.475  13.760
34143W        W 5814  10.905  26.594   4.270
34144W        W 5815  15.338  35.575  13.901
34145W        W 5816  28.910  40.224   4.289
34146W        W 5817  43.611  41.129   0.867
34147W        W 5818  13.453  43.877   4.051
34148W        W 5819  11.360  38.030   2.724
34149W        W 5820   4.942   1.297   3.308
34150W        W 5821  11.267  40.762  10.631
34151W        W 5822  24.741  12.804  10.676
34152W        W 5823  18.187   8.720   3.576
34153W        W 5824  10.192  41.545   2.345
34154W        W 5825  16.233  38.868   0.206
34155W        W 5826  41.809  33.897  10.745
34156W        W 5827  21.220  25.485   2.334
34157W        W 5828  43.321  12.707  14.939
34158W        W 5829  22.749  36.643   3.323
34159W        W 5830  24.965  15.398   2.820
34160W        W 5831  14.706  38.717   0.943
34161W        W 5832   7.737   6.265   0.376
34162W        W 5833  40.823  10.888  12.925
34163W        W 5834  20.757  17.073   4.319
34164W        W 5835  12.346  11.918   3.267
34165W        W 5836  33.076  21.694  10.381
34166W        W 5837  41.353  38.897   2.215
34167W        W 5838  40.947  16.869   0.452
34168W        W 5839   2.204  11.628  13.435
34169W        W 5840  37.278  35.922   4.106
34170W        W 5841  11.576  35.512  11.585
34171W        W 5842  35.027   6.712  13.428
34172W        W 5843   5.982  18.110   2.815
34173W        W 5844  27.807  11.757   2.237
34174W        W 5845  28.100  11.162   3.727
34175W        W 5846   7.452  27.633   0.268
34176W        W 5847  27.138   9.091   5.017
34177W        W 5848  17.277  11.187  12.947
34178W        W 5849  32.300  44.569  12.339
34179W        W 5850  16.004  18.238   4.214
34180W        W 5851  32.437  14.800  10.708
34181W        W 5852   2.341   7.224   1.290
34182W        W 5853  29.907  30.127   3.337
34183W        W 5854  16.313   5.461   3.585
34184W        W 5855   7.284  26.015  13.998
34185W        W 5856  41.610  40.520  14.998
34186W        W 5857  34.021  12.763  13.831
34187W        W 5858   6.900   4.858  14.879
34188W        W 5859   5.877  14.645  13.119
34189W        W 5860  29.617  12.755   0.236
34190W        W 5861  38.457  22.150  13.784
34191W        W 5862  39.091  20.254  11.047
34192W        W 5863  34.914   4.287   1.835
34193W        W 5864   4.444   4.680  12.231
34194W        W 5865  22.083  27.687   1.881
34195W        W 5866  44.376  20.792  11.944
34196W        W 5867  27.552  26.151   4.579
34197W        W 5868  31.571  12.806   3.308
34198W        W 5869  26.442  14.950  14.890
34199W        W 5870   3.871  14.350   4.980
34200W        W 5871  25.163  31.996  14.830
34201W        W 5872  30.856  18.426   4.176
34202W        W 5873   0.808  27.805   0.244
34203W        W 5874  31.111  33.323  12.610
34204W        W 5875  37.914  33.476  13.570
34205W        W 5876  34.811  28.664   0.210
34206W        W 5877   2.510   8.521   5.148
34207W        W 5878  44.814  16.792   0.259
34208W        W 5879  23.611  21.263  10.796
34209W        W 5880  11.926   4.237   0.827
34210W        W 5881   8.353  19.196  12.012
34211W        W 5882  12.989  31.026   2.216
34212W        W 5883  29.911  12.648  10.695
34213W        W 5884  34.643  10.698   4.149
34214W        W 5885  16.585  12.920   5.186
34215W        W 5886   5.963   5.642  12.013
34216W        W 5887  37.977  38.669  10.733
34217W        W 5888  23.779  14.645  10.725
34218W        W 5889  34.677  12.639   0.570
34219W        W 5890   7.057  21.463   2.638
34220W        W 5891  16.888  24.847  12.533
34221W        W 5892  38.495  31.419   2.648
34222W        W 5893  16.620   6.472   1.746
34223W        W 5894  13.827   6.371  11.906
34224W        W 5895  36.335  27.919   2.420
34225W        W 5896  28.109  17.224  12.402
34226W        W 5897   0.508  36.060   4.250
34227W        W 5898   4.542  40.803   3.297
34228W        W 5899  11.620   3.089  10.485
34229W        W 5900  43.488  21.095  10.964
34230W        W 5901  41.767  38.917   0.316
34231W        W 5902   3.792   5.140   2.923
34232W        W 5903  31.037   7.765  11.713
34233W        W 5904  12.076  16.445   2.193
34234W        W 5905  27.924  34.417  11.618
34235W        W 5906  38.439  36.505  11.392
34236W        W 5907  38.329  16.011   3.620
34237W        W 5908   2.841   8.005   2.341
34238W        W 5909  41.044  18.534  13.952
34239W        W 5910  23.754   4.950  12.013
34240W        W 5911   2.490  17.058   3.261
34241W        W 5912   0.079  42.350   1.211
34242W        W 5913  25.770  36.843   4.643
34243W        W 5914  13.196   3.711   2.606
34244W        W 5915  20.605   9.389  13.558
34245W        W 5916  33.341  34.980   1.876
34246W        W 5917  35.092  24.649  11.163
34247W        W 5918  12.381  17.659   1.757
34248W        W 5919  32.728   8.980  14.518
34249W        W 5920  33.218   4.937  10.173
34250W        W 5921  32.954  40.746  11.510
34251W        W 5922  31.028  39.351   3.754
34252W        W 5923   6.923  32.688   2.491
34253W        W 5924  25.235  12.184  13.431
34254W        W 5925  12.303  10.899  11.098
34255W        W 5926  12.858   7.817   0.936
34256W        W 5927  38.916  25.768  11.599
34257W        W 5928   0.898  10.645   4.943
34258W        W 5929   5.348  29.394   1.808
34259W        W 5930   0.634  18.638   1.243
34260W        W 5931  14.504  29.438   1.724
34261W        W 5932  26.082  14.801  11.191
34262W        W 5933   3.479  21.187  13.748
34263W        W 5934   1.932   0.613   0.696
34264W        W 5935  38.372  24.864   2.225
34265W        W 5936   7.649  20.148   2.306
34266W        W 5937  13.589  24.789   0.969
34267W        W 5938  36.992   3.502   0.753
34268W        W 5939  33.817   7.863   2.018
34269W        W 5940  43.394   0.861  13.958
34270W        W 5941  44.359  19.233  13.902
34271W        W 5942  12.264  22.232   0.775
34272W        W 5943  40.041  35.679   4.915
34273W        W 5944  28.247   2.712  12.116
34274W        W 5945   4.209   8.819   4.515
34275W        W 5946  17.109   9.261  10.717
34276W        W 5947  44.247   0.540   3.824
34277W        W 5948   5.245  33.631  10.561
34278W        W 5949   0.504  16.885  14.020
34279W        W 5950  30.609  41.886   5.020
34280W        W 5951  15.578  10.837   4.403
34281W        W 5952  17.026  43.267   4.095
34282W        W 5953   8.678  26.717  14.890
34283W        W 5954  24.124  43.286  14.917
34284W        W 5955  27.659  28.249  11.574
34285W        W 5956  26.477  42.289   0.797
34286W        W 5957  12.666  30.921  13.914
34287W        W 5958  31.888  25.734   0.661
34288W        W 5959  31.132   4.194  14.406
34289W        W 5960  29.369  14.417  10.364
34290W        W 5961  18.284   4.863  13.124
34291W        W 5962  12.603  19.011   1.401
34292W        W 5963  21.733  12.255  11.145
34293W        W 5964  29.494  32.122   5.053
34294W        W 5965  17.168  37.997  11.174
34295W        W 5966  28.573  38.981  14.274
34296W        W 5967  10.343   0.275  10.548
34297W        W 5968  21.216  20.751   1.227
34298W        W 5969   8.095  26.541  12.426
34299W        W 5970  19.313  29.096  10.767
34300W        W 5971  35.833  17.647  11.675
34301W        W 5972  35.722  38.589   3.238
34302W        W 5973  38.782  22.085  10.625
34303W        W 5974  41.682  38.881  11.107
34304W        W 5975  44.214  32.524  14.946
34305W        W 5976  14.732  44.553   3.311
34306W        W 5977   3.675  20.586  12.369
34307W        W 5978  33.369   0.028  12.354
34308W        W 5979   1.024  25.998   2.255
34309W        W 5980  44.411  22.101   5.377
34310W        W 5981  27.565  12.597   1.657
34311W        W 5982  31.593   1.304   2.809
34312W        W 5983  25.444   4.937   0.776
34313W        W 5984   6.380  10.752  10.690
34314W        W 5985  16.861  10.679  11.860
34315W        W 5986  18.055  23.970  14.045
34316W        W 5987  28.362  33.904   2.074
34317W        W 5988  29.394  18.594   0.528
34318W        W 5989  33.425  26.160   3.114
34319W        W 5990  10.678   3.750  14.317
34320W        W 5991  25.564  36.195  13.730
34321W        W 5992   6.719   1.132  13.862
34322W        W 5993  43.580  32.300  14.328
34323W        W 5994  20.384  15.222  10.786
34324W        W 5995  44.382  38.267   1.304
34325W        W 5996  12.798  36.809  11.676
34326W        W 5997  24.026  10.919  13.397
34327W        W 5998  44.915  19.761   1.966
34328W        W 5999  29.221  38.844  14.605
34329W        W 6000  35.922   5.355  13.823
34330W        W 6001   7.765  11.708  14.464
34331W        W 6002   8.369  22.031  14.781
34332W        W 6003  42.573   3.219  10.810
34333W        W 6004  35.372  40.841  10.384
34334W        W 6005  21.135  33.920   0.210
34335W        W 6006   6.724  40.604  11.621
34336W        W 6007  21.032  31.697  13.084
34337W        W 6008  38.080   0.242   0.079
34338W        W 6009  40.087  23.466  11.569
34339W        W 6010  27.111   2.044  11.551
34340W        W 6011  29.065  36.193   1.726
34341W        W 6012  29.368  25.299  13.872
34342W        W 6013  39.086  25.097   1.184
34343W        W 6014   8.921  40.481   0.412
34344W        W 6015  41.061   5.949   4.929
34345W        W 6016   2.490  35.478   2.070
34346W        W 6017  40.430  21.005  11.484
34347W        W 6018  26.471   3.862  13.424
34348W        W 6019  23.298  40.459   4.325
34349W        W 6020  18.016  27.164   3.118
34350W        W 6021  43.947  37.804  13.855
34351W        W 6022  34.861  20.082  14.892
34352W        W 6023  14.836   1.505  10.335
34353W        W 6024   5.705  27.182   2.001
34354W        W 6025  27.450  12.805   3.683
34355W        W 6026  37.966  11.257   1.502
34356W        W 6027  18.355  38.654  13.461
34357W        W 6028  20.696  27.475  10.338
34358W        W 6029  29.177  12.250  14.336
34359W        W 6030  15.576  43.393   4.447
34360W        W 6031  42.403  44.409  13.995
34361W        W 6032  32.459  44.673   2.329
34362W        W 6033  13.426  15.892   3.842
34363W        W 6034  32.628  38.611  11.520
34364W        W 6035  40.566  10.652   0.528
34365W        W 6036  44.343  30.472  13.422
34366W        W 6037  21.610  14.413  13.580
34367W        W 6038  28.891  26.935  12.525
34368W        W 6039  38.009  40.581  13.716
34369W        W 6040  20.291  16.691   3.653
34370W        W 6041  14.454  23.169   0.497
34371W        W 6042  11.275  21.705  12.633
34372W        W 6043  38.944  24.887  14.553
34373W        W 6044  36.341   4.201   0.951
34374W        W 6045   6.660  20.098  14.420
34375W        W 6046  15.165  44.005   4.556
34376W        W 6047  36.066  34.394  14.957
34377W        W 6048  26.809   6.825   5.448
34378W        W 6049  26.352  21.448  11.125
34379W        W 6050  25.757  33.412  11.463
34380W        W 6051   3.210  20.584   3.790
34381W        W 6052  21.037  36.255   0.710
34382W        W 6053  30.047  18.743  14.615
34383W        W 6054  26.470  33.865   3.934
34384W        W 6055  41.368  33.394  13.835
34385W        W 6056  17.799  44.916  12.565
34386W        W 6057  23.923  41.346   0.977
34387W        W 6058   1.291  31.647   2.886
34388W        W 6059   4.797   8.302   1.693
34389W        W 6060   3.086  35.820   4.678
34390W        W 6061  23.958  22.535  14.370
34391W        W 6062  12.626  40.661  12.134
34392W        W 6063  44.845   6.970  10.387
34393W        W 6064  17.668  18.792   2.731
34394W        W 6065  34.377  43.211   4.138
34395W        W 6066  16.231  27.183  11.840
34396W        W 6067  22.101  41.520  12.839
34397W        W 6068  14.724  35.410  13.526
34398W        W 6069  27.860   7.398  13.512
34399W        W 6070  37.453  35.781   0.772
34400W        W 6071  43.215  44.734  11.887
34401W        W 6072  32.629  25.940  13.453
34402W        W 6073  44.964  41.581   1.918
34403W        W 6074  25.134  37.333  11.256
34404W        W 6075  17.799  15.536   0.192
34405W        W 6076  17.157  42.655  11.832
34406W        W 6077  43.444  32.618   1.170
34407W        W 6078   1.691  15.744   4.637
34408W        W 6079  38.129   6.267  14.065
34409W        W 6080  22.186   6.351  12.005
34410W        W 6081  27.484  28.700   2.280
34411W        W 6082   0.272  15.936   0.871
34412W        W 6083  19.678  30.113  12.159
34413W        W 6084  20.000   0.804   4.635
34414W        W 6085  35.059   9.256   4.651
34415W        W 6086  21.352  17.276  14.422
34416W        W 6087  23.282   7.107   2.032
34417W        W 6088  39.008  43.267   0.993
34418W        W 6089   8.918  16.313  14.902
34419W        W 6090  37.385  40.437   1.458
34420W        W 6091  26.588  14.302  12.118
34421W        W 6092  10.149  26.493  11.604
34422W        W 6093  19.073  18.072   1.297
34423W        W 6094   4.680  34.440   5.024
34424W        W 6095  12.250  33.082   1.379
34425W        W 6096  40.829   7.633   2.647
34426W        W 6097  28.943  19.215   4.729
34427W        W 6098  19.961  12.801  14.778
34428W        W 6099  11.350  40.561  13.470
34429W        W 6100  44.047  22.635  10.689
34430W        W 6101   4.859  38.615   3.609
34431W        W 6102  18.782  11.409  12.861
34432W        W 6103  23.682  22.813  12.343
34433W        W 6104  29.339  16.791  10.774
34434W        W 6105  12.348  13.127  11.446
34435W        W 6106  21.121  27.079  10.991
34436W        W 6107  12.793  14.319  14.455
34437W        W 6108   5.198   0.692   0.248
34438W        W 6109  42.031  20.700  10.861
34439W        W 6110  42.928  11.952   3.568
34440W        W 6111  24.458  37.938   4.913
34441W        W 6112  41.833  37.529   4.617
34442W        W 6113  15.091  27.478   2.460
34443W        W 6114  32.689  10.878   0.182
34444W        W 6115  27.914  33.358  11.932
34445W        W 6116  40.994  25.414  10.614
34446W        W 6117  12.848  16.719   3.869
34447W        W 6118  40.250  11.868   2.290
34448W        W 6119  30.110  30.126   1.066
34449W        W 6120  19.247  10.767   4.447
34450W        W 6121   8.192  23.429  11.600
34451W        W 6122   5.740  35.171  14.848
34452W        W 6123  15.968  38.633   2.595
34453W        W 6124  36.900  42.786   2.289
34454W        W 6125  32.635  24.378  13.437
34455W        W 6126  23.473   9.283  13.379
34456W        W 6127   9.616  42.358  10.861
34457W        W 6128  11.640  36.283   1.671
34458W        W 6129  17.299  28.089   3.810
34459W        W 6130  16.770  10.904  13.917
34460W        W 6131  41.612  33.437  14.288
34461W        W 6132   7.305  42.080   2.673
34462W        W 6133  24.523  42.898   2.167
34463W        W 6134  13.307  26.509  11.976
34464W        W 6135  19.726   7.196  13.328
34465W        W 6136  20.730  28.882  10.615
34466W        W 6137  22.789  12.171   0.805
34467W        W 6138  37.185  30.547   2.477
34468W        W 6139  21.227  33.060   1.038
34469W        W 6140  37.174  31.151  11.140
34470W        W 6141  20.735  12.657  11.882
34471W        W 6142  22.406  11.056  12.449
34472W        W 6143  16.237   8.063  12.820
34473W        W 6144   4.897  15.255   0.245
34474W        W 6145  13.452  38.147  13.050
34475W        W 6146  14.170   8.792  14.423
34476W        W 6147  39.864  16.857  14.052
34477W        W 6148  20.670  43.953   4.744
34478W        W 6149  43.154   5.804   4.555
34479W        W 6150  30.947  23.609  13.628
34480W        W 6151  36.962  39.251   1.325
34481W        W 6152  14.317   0.730  12.849
34482W        W 6153  16.366  40.330  14.068
34483W        W 6154  10.071   6.466   1.417
34484W        W 6155  33.528  40.055  14.920
34485W        W 6156  27.409  32.882  10.815
34486W        W 6157  24.163   7.871  13.419
34487W        W 6158   9.226  36.216  10.721
34488W        W 6159   9.333   3.478  14.520
34489W        W 6160   9.346  11.197  13.277
34490W        W 6161  24.761   2.559  13.544
34491W        W 6162  43.077   2.379   3.227
34492W        W 6163   3.303  29.378  13.516
34493W        W 6164   5.398  12.815  14.302
34494W        W 6165  37.701  16.393  14.018
34495W        W 6166  11.854   5.387  13.326
34496W        W 6167  21.989  22.181  10.613
34497W        W 6168  41.308  42.495  13.423
34498W        W 6169  41.891  21.164  14.499
34499W        W 6170  35.444  34.092  12.564
34500W        W 6171  43.286   1.843  14.745
34501W        W 6172  34.437  25.459  12.160
34502W        W 6173   6.272  15.111  13.790
34503W        W 6174   1.006  26.185   1.230
34504W        W 6175  11.372  26.226  13.319
34505W        W 6176  36.113  37.545  11.497
34506W        W 6177  26.056  19.951   4.554
34507W        W 6178  41.780   6.111  13.455
34508W        W 6179  13.275  41.687   2.120
34509W        W 6180  32.702  35.932   4.032
34510W        W 6181  25.455   4.705   3.331
34511W        W 6182  22.708   4.958  13.761
34512W        W 6183   7.856  37.482   2.386
34513W        W 6184  30.406  22.541  12.602
34514W        W 6185  25.596  35.528  14.362
34515W        W 6186   0.900  21.029   2.736
34516W        W 6187   9.927  10.469   1.549
34517W        W 6188   3.164  43.046  11.081
34518W        W 6189  35.388   9.431   3.271
34519W        W 6190  16.556  19.159  11.534
34520W        W 6191   4.106  21.505  12.647
34521W        W 6192  27.446  35.470  14.729
34522W        W 6193  21.548  26.935   3.672
34523W        W 6194  37.340  12.286   2.269
34524W        W 6195  42.046  30.967   3.852
34525W        W 6196   9.224  17.662   4.104
34526W        W 6197  13.400  38.094  11.222
34527W        W 6198  19.143  44.891  12.179
34528W        W 6199   4.933  19.957  11.972
34529W        W 6200  41.238  21.082  11.103
34530W        W 6201  36.571  30.677   0.242
34531W        W 6202  12.367  22.538  12.851
34532W        W 6203   8.399  17.508   1.516
34533W        W 6204   5.609  20.572   0.659
34534W        W 6205  30.359   4.613   2.733
34535W        W 6206   2.984  17.234  14.026
34536W        W 6207  43.927  10.296   1.294
34537W        W 6208   0.903  17.702  12.148
34538W        W 6209  14.594  37.160   2.834
34539W        W 6210  39.296   8.845  10.472
34540W        W 6211  35.458   8.313   1.764
34541W        W 6212  11.093  13.734   1.601
34542W        W 6213  11.391   9.639  10.722
34543W        W 6214  31.661  26.097   0.044
34544W        W 6215   6.759  36.157   2.652
34545W        W 6216  35.530  29.471   4.914
34546W        W 6217  18.296  22.035  11.177
34547W        W 6218  44.910  22.646   5.102
34548W        W 6219  26.011  42.449  13.988
34549W        W 6220  13.392  33.319   1.029
34550W        W 6221  17.777  14.146   5.150
34551W        W 6222  39.430  27.218   3.854
34552W        W 6223  32.444   4.479  12.670
34553W        W 6224  13.843  19.311   3.273
34554W        W 6225  23.547  15.421  13.555
34555W        W 6226   8.587  41.439  14.398
34556W        W 6227  21.540   8.294  14.006
34557W        W 6228  42.244  20.680  13.206
34558W        W 6229  13.799  14.748  10.661
34559W        W 6230  37.993  34.142   1.136
34560W        W 6231  12.260  37.513   4.301
34561W        W 6232  23.127  38.505  10.965
34562W        W 6233  18.350  40.286   1.915
34563W        W 6234  42.395  25.988  12.624
34564W        W 6235   9.840  25.602  11.567
34565W        W 6236  23.560   8.426   4.206
34566W        W 6237   6.398   4.618  13.011
34567W        W 6238  15.221  40.945   0.878
34568W        W 6239   7.260  24.151  13.473
34569W        W 6240  12.619  35.934   0.883
34570W        W 6241  15.997  39.489  13.794
34571W        W 6242  29.211  15.384  14.823
34572W        W 6243  11.215  31.100   3.041
34573W        W 6244  19.574  20.096   1.204
34574W        W 6245  40.001   1.001   1.432
34575W        W 6246  17.031  41.917  10.741
34576W        W 6247  14.145  10.686  14.868
34577W        W 6248  17.780  41.409  11.017
34578W        W 6249  40.746  31.615   2.183
34579W        W 6250  27.480  13.932  11.184
34580W        W 6251   6.293  28.409   2.741
34581W        W 6252  43.343  38.714  13.970
34582W        W 6253  19.713  25.599   4.663
34583W        W 6254  31.708  32.059   1.756
34584W        W 6255  14.259   6.027  13.482
34585W        W 6256   8.977  23.208  12.678
34586W        W 6257  41.839  28.731  13.054
34587W        W 6258  21.702  29.983  12.364
34588W        W 6259  17.992  19.077   4.033
34589W        W 6260   2.716  36.595  13.419
34590W        W 6261  15.067   2.263   1.354
34591W        W 6262   6.123  31.516   3.938
34592W        W 6263  21.768  13.669  14.429
34593W        W 6264  27.178  39.371   0.706
34594W        W 6265  18.604  33.611   2.282
34595W        W 6266  19.278  43.812  13.108
34596W        W 6267   3.857  19.606  13.304
34597W        W 6268  34.771  30.259  12.626
34598W        W 6269   7.150  40.437   4.083
34599W        W 6270  35.935  27.920  10.020
34600W        W 6271  35.461  29.174   2.448
34601W        W 6272  11.658  21.412  12.809
34602W        W 6273  37.588  19.920  14.703
34603W        W 6274  36.060  19.231  14.321
34604W        W 6275  12.074  41.481  14.943
34605W        W 6276  39.983  37.274   1.469
34606W        W 6277   5.785   5.738   3.624
34607W        W 6278  13.325  35.000  14.377
34608W        W 6279  21.557   8.133   1.138
34609W        W 6280  36.994  36.533  12.842
34610W        W 6281  42.067  40.530   4.220
34611W        W 6282  35.885  23.024  13.612
34612W        W 6283   3.212  11.339  14.429
34613W        W 6284  18.169  14.024   1.788
34614W        W 6285  30.444   8.673  11.451
34615W        W 6286   7.679  28.793  14.202
34616W        W 6287  27.575  37.509   4.540
34617W        W 6288   8.814  11.684  12.114
34618W        W 6289   3.917  24.284  13.665
34619W        W 6290  13.376   3.785   3.088
34620W        W 6291  18.734  12.809   4.974
34621W        W 6292  43.189  39.543   1.787
34622W        W 6293  27.812  29.086  13.051
34623W        W 6294   6.381   1.705  12.564
34624W        W 6295  31.500  38.505   2.634
34625W        W 6296  11.167   3.218   2.422
34626W        W 6297  27.025   5.848  12.952
34627W        W 6298  37.546  14.491  12.746
34628W        W 6299   6.945  29.040   1.870
34629W        W 6300   2.141  14.716  11.442
34630W        W 6301  25.891  43.050   1.833
34631W        W 6302   9.792  41.766   4.343
34632W        W 6303  43.273  36.879   1.821
34633W        W 6304   4.014  24.983  12.994
34634W        W 6305  28.503  10.292   2.549
34635W        W 6306  11.939  20.114  11.988
34636W        W 6307  41.312   7.698   0.758
34637W        W 6308   4.990  15.750   4.176
34638W        W 6309  24.607   3.715  10.888
34639W        W 6310  43.586  20.208   0.051
34640W        W 6311  19.163   4.376  11.885
34641W        W 6312  18.388  17.392  10.756
34642W        W 6313  17.406  21.960  13.701
34643W        W 6314  42.865   6.196  12.060
34644W        W 6315   4.787  28.154   4.175
34645W        W 6316  10.001  26.224  12.140
34646W        W 6317   0.856  29.139   2.671
34647W        W 6318  10.392  43.202  12.995
34648W        W 6319  14.527  30.552  11.564
34649W        W 6320   0.307  28.635   3.249
34650W        W 6321  19.619  20.949  11.398
34651W        W 6322  20.137  41.653  12.597
34652W        W 6323  12.735  33.081  14.052
34653W        W 6324   7.164  31.666   2.024
34654W        W 6325   5.146  34.102   0.497
34655W        W 6326  18.121   1.213  10.745
34656W        W 6327  34.502  15.039   0.423
34657W        W 6328   9.777  41.078   1.375
34658W        W 6329   3.307  27.675  14.491
34659W        W 6330  43.981  14.225   4.502
34660W        W 6331  30.453   4.646   0.388
34661W        W 6332   6.433  13.153   3.676
34662W        W 6333  40.304  41.660   1.709
34663W        W 6334  19.038  28.153  11.729
34664W        W 6335  17.582   6.281   0.388
34665W        W 6336  29.215  14.792   4.049
34666W        W 6337  23.024  10.476  12.921
34667W        W 6338  12.833  18.362   2.001
34668W        W 6339  30.674  32.085   3.250
34669W        W 6340   3.373  10.242  13.334
34670W        W 6341   8.760  26.377  11.714
34671W        W 6342  30.885   5.881  11.141
34672W        W 6343  42.082   5.674  13.445
34673W        W 6344  22.490  33.882  12.336
34674W        W 6345  42.818   2.149   4.083
34675W        W 6346  44.974  10.869  12.336
34676W        W 6347  18.102  21.277   4.717
34677W        W 6348   1.618  41.524  11.654
34678W        W 6349  23.167  21.502  12.839
34679W        W 6350  15.594  16.829  10.599
34680W        W 6351  44.237  36.019   2.708
34681W        W 6352  43.454  34.479  13.811
34682W        W 6353   7.136  41.601   1.234
34683W        W 6354  11.334  25.131   4.610
34684W        W 6355  35.511  16.625   2.305
34685W        W 6356  12.310  36.400  14.759
34686W        W 6357  24.671  16.105   3.798
34687W        W 6358  14.710   5.295  10.714
34688W        W 6359  27.399  18.289  11.692
34689W        W 6360  43.738  24.419   1.199
34690W        W 6361   9.952  37.334   1.212
34691W        W 6362   2.239   5.281   3.137
34692W        W 6363   8.375  29.452   4.308
34693W        W 6364   7.826  39.839  11.296
34694W        W 6365  10.215  18.716   4.009
34695W        W 6366   2.812  32.017  11.286
34696W        W 6367   1.807  27.462  12.509
34697W        W 6368  25.938  43.804  12.853
34698W        W 6369   6.287  18.685  13.030
34699W        W 6370   4.873  18.795   1.275
34700W        W 6371  41.724  43.237   2.677
34701W        W 6372  38.769   7.915  11.738
34702W        W 6373  14.377  26.767   9.794
34703W        W 6374   3.531  22.707  14.997
34704W        W 6375  40.535   3.901   3.103
34705W        W 6376  37.876   7.375   2.386
34706W        W 6377  15.858  35.560  13.790
34707W        W 6378  25.230  11.735   0.155
34708W        W 6379  27.922   9.226   1.246
34709W        W 6380  22.718  21.600  11.200
34710W        W 6381  13.196   8.814   4.571
34711W        W 6382  10.602  40.955  13.346
34712W        W 6383   9.116  35.326   1.389
34713W        W 6384  11.575   1.912  12.968
34714W        W 6385  41.971  31.358   3.541
34715W        W 6386  38.642  19.757  11.647
34716W        W 6387  18.892  33.127  11.648
34717W        W 6388   9.223   4.648   1.105
34718W        W 6389   4.783  38.955   0.656
34719W        W 6390   7.377  11.859  12.923
34720W        W 6391  28.132  23.520   2.743
34721W        W 6392  32.980  16.064   4.108
34722W        W 6393  16.306  27.547  10.973
34723W        W 6394   2.306  15.846   0.704
34724W        W 6395  16.917  19.084   4.620
34725W        W 6396   0.308  27.025  11.510
34726W        W 6397  20.791   3.487  10.726
34727W        W 6398  14.058   9.722   2.847
34728W        W 6399  30.662  31.123   1.839
34729W        W 6400  14.663  16.647  14.046
34730W        W 6401  22.905   9.103   3.796
34731W        W 6402  16.345  17.614  11.993
34732W        W 6403   9.921  22.131   3.647
34733W        W 6404  37.395  31.504  14.302
34734W        W 6405   2.879   6.096  12.960
34735W        W 6406  26.094   0.915  14.573
34736W        W 6407  25.137  18.238   4.550
34737W        W 6408  38.121  15.689   3.152
34738W        W 6409   6.408  11.399   2.199
34739W        W 6410   2.935   8.424   4.295
34740W        W 6411  21.288  18.220  14.283
34741W        W 6412  14.730  30.603  10.387
34742W        W 6413  18.792  14.149  10.447
34743W        W 6414  25.234   1.147  11.948
34744W        W 6415  42.747   4.369   3.281
34745W        W 6416  17.734   7.726   1.260
34746W        W 6417  33.986  18.640   1.428
34747W        W 6418  43.446  41.506  11.642
34748W        W 6419   0.185  35.904  12.472
34749W        W 6420  14.296  24.134   4.472
34750W        W 6421  11.179  21.539   2.222
34751W        W 6422   0.265  24.528   3.352
34752W        W 6423   9.717   0.938   4.778
34753W        W 6424   5.158  23.696   1.855
34754W        W 6425  41.062  18.610   3.589
34755W        W 6426  36.069  39.662   9.804
34756W        W 6427  30.787  39.298   2.728
34757W        W 6428  21.724  21.028   1.411
34758W        W 6429  21.052   2.767   2.896
34759W        W 6430  18.212  25.773  14.880
34760W        W 6431  35.449  22.659   4.390
34761W        W 6432  35.933   5.748  13.462
34762W        W 6433  38.167  39.869   0.075
34763W        W 6434  41.515  15.078   3.704
34764W        W 6435  38.864  43.341  12.082
34765W        W 6436  20.140   5.146   4.070
34766W        W 6437  13.128  19.576   4.539
34767W        W 6438  19.550  12.111  14.505
34768W        W 6439  39.346  41.380   4.688
34769W        W 6440  39.875  12.679   0.440
34770W        W 6441   3.886  32.755   3.317
34771W        W 6442  36.083  22.379   2.336
34772W        W 6443  14.794  12.900  11.598
34773W        W 6444  35.402  27.147  13.073
34774W        W 6445  31.238   8.172   1.291
34775W        W 6446   4.403  30.967  14.871
34776W        W 6447  16.402   7.395  11.471
34777W        W 6448  31.358  34.404  12.096
34778W        W 6449   5.923  25.716   2.740
34779W        W 6450  35.920  25.620   4.572
34780W        W 6451  14.064  36.532  11.658
34781W        W 6452  36.203  44.197   4.548
34782W        W 6453  16.169   1.774   3.456
34783W        W 6454  17.308  43.066  13.419
34784W        W 6455  40.247   7.229   2.346
34785W        W 6456  27.332  16.558   1.886
34786W        W 6457  36.052  20.309   1.910
34787W        W 6458  27.195  23.218   2.194
34788W        W 6459   7.695  25.027  12.104
34789W        W 6460  40.258  27.759   4.026
34790W        W 6461  44.321  10.089   2.281
34791W        W 6462   7.950  31.548  11.181
34792W        W 6463   9.594  11.488   4.106
34793W        W 6464  27.107   8.740  12.986
34794W        W 6465  14.251  13.900  10.817
34795W        W 6466  20.778  24.196  10.682
34796W        W 6467  17.888  43.438   1.987
34797W        W 6468  14.226  20.990   2.379
34798W        W 6469   2.816  26.129  14.015
34799W        W 6470   2.419   9.865   2.024
34800W        W 6471   1.362   3.610   1.147
34801W        W 6472   2.172   9.867   3.253
34802W        W 6473   0.972   3.823  14.879
34803W        W 6474  22.576  17.959   2.734
34804W        W 6475   6.415  26.300  13.348
34805W        W 6476   9.299  14.128  14.003
34806W        W 6477  11.546  33.636  13.814
34807W        W 6478   4.964  30.523  13.299
34808W        W 6479  29.433  44.398   3.580
34809W        W 6480  27.495  14.991   4.135
34810W        W 6481  12.723  34.982  11.109
34811W        W 6482   7.084  16.926  11.685
34812W        W 6483  25.454  21.250  12.420
34813W        W 6484  22.558   7.211   2.731
34814W        W 6485   0.031  30.653  11.532
34815W        W 6486  14.986  33.468  12.988
34816W        W 6487  24.548  38.019  13.295
34817W        W 6488  30.970  40.448   3.775
34818W        W 6489  40.083  37.764   1.351
34819W        W 6490  32.401  35.556   3.220
34820W        W 6491  35.399  15.515   4.158
34821W        W 6492  25.295  21.615   4.726
34822W        W 6493  42.269  37.837   4.583
34823W        W 6494  12.851   0.851  14.015
34824W        W 6495  27.486  23.701   4.528
34825W        W 6496  19.511  16.681   2.375
34826W        W 6497  21.795   0.465   0.357
34827W        W 6498  44.414  23.608   3.552
34828W        W 6499  32.873  16.706  12.401
34829W        W 6500  20.550  41.390  11.673
34830W        W 6501  43.857  27.958   1.616
34831W        W 6502  42.454  23.165  10.871
34832W        W 6503  14.755   7.473  10.562
34833W        W 6504   2.858  39.878   4.665
34834W        W 6505  39.069   7.881   0.199
34835W        W 6506  20.670  43.405  14.255
34836W        W 6507   9.260  22.487   0.373
34837W        W 6508   9.908  11.194   2.440
34838W        W 6509   1.074  37.011   1.381
34839W        W 6510  32.953   9.865   0.017
34840W        W 6511  37.491  43.859  12.471
34841W        W 6512  24.396  12.332  11.583
34842W        W 6513   0.216  21.559   5.433
34843W        W 6514  28.968  30.229  14.519
34844W        W 6515  25.691   3.746  10.820
34845W        W 6516  25.175  31.082  10.742
34846W        W 6517  39.810  43.900  10.543
34847W        W 6518  23.932  41.776  12.043
34848W        W 6519  44.021  17.230   0.386
34849W        W 6520  26.522  19.471   2.718
34850W        W 6521  36.257   5.809  11.629
34851W        W 6522  40.427  35.562   1.216
34852W        W 6523  42.213  19.885   3.395
34853W        W 6524  18.064  17.727   4.694
34854W        W 6525  12.510  15.217  11.775
34855W        W 6526  13.123   9.917   2.274
34856W        W 6527  14.122  15.680  10.973
34857W        W 6528  34.389  13.693   4.094
34858W        W 6529   8.550  39.506   1.853
34859W        W 6530  13.251  21.745   3.545
34860W        W 6531  28.685  20.166   1.051
34861W        W 6532   3.916  38.100  11.570
34862W        W 6533  15.282  25.578  13.132
34863W        W 6534  17.355   5.293  10.929
34864W        W 6535   8.554  11.971  14.398
34865W        W 6536  21.620  43.365  11.699
34866W        W 6537  43.643  20.309  13.962
34867W        W 6538  28.976  11.755   3.652
34868W        W 6539  41.275  12.664   0.723
34869W        W 6540  21.561   0.819   4.305
34870W        W 6541   1.009  44.051  10.978
34871W        W 6542  23.614  21.387   0.328
34872W        W 6543   0.011   7.772  13.350
34873W        W 6544  35.840  14.396  11.247
34874W        W 6545   9.673  12.187   2.274
34875W        W 6546  20.032  13.098  11.471
34876W        W 6547  15.023  33.549   4.454
34877W        W 6548  42.786  18.206   3.432
34878W        W 6549  36.645  19.033  14.870
34879W        W 6550  22.691  31.559   2.164
34880W        W 6551  43.745  31.610  14.382
34881W        W 6552  38.862  29.037   0.932
34882W        W 6553  33.704  22.331   1.410
34883W        W 6554  14.419  16.647  14.960
34884W        W 6555  42.798  39.891  14.609
34885W        W 6556  19.032  20.467   3.260
34886W        W 6557  43.181  17.237   4.257
34887W        W 6558  30.457   2.113   4.109
34888W        W 6559  24.961  40.385  11.073
34889W        W 6560  38.194  42.601   4.320
34890W        W 6561  27.992  19.116  14.371
34891W        W 6562  36.854   6.450   1.797
34892W        W 6563  38.820  38.715   5.092
34893W        W 6564  37.030   5.248   0.390
34894W        W 6565  14.277  36.624   3.416
34895W        W 6566  23.652   3.397  11.947
34896W        W 6567  39.848  39.005   9.996
34897W        W 6568  44.928  11.626  10.256
34898W        W 6569  16.596  37.957  10.579
34899W        W 6570  21.257  28.711  10.675
34900W        W 6571   4.177  26.612  14.007
34901W        W 6572  41.902  16.364  13.955
34902W        W 6573  43.986  14.122  12.476
34903W        W 6574  30.566  17.200   3.627
34904W        W 6575  11.405  25.485   0.831
34905W        W 6576   1.414  43.525   0.449
34906W        W 6577  26.426   8.940   1.681
34907W        W 6578  18.772  12.305  11.585
34908W        W 6579  26.077  20.726   2.879
34909W        W 6580  19.522   1.070   0.431
34910W        W 6581  36.401  43.284  12.944
34911W        W 6582  24.196   2.659   1.578
34912W        W 6583   1.908  38.145   2.617
34913W        W 6584  20.541   7.589   3.340
34914W        W 6585  21.842  18.557   3.843
34915W        W 6586  41.350  42.222   4.549
34916W        W 6587  33.943  17.678   2.233
34917W        W 6588  25.547  26.054   3.822
34918W        W 6589   1.542  36.578  10.788
34919W        W 6590  44.882  44.520   3.613
34920W        W 6591  22.093   9.799   1.219
34921W        W 6592  27.708  34.619  12.088
34922W        W 6593  27.410  38.135   2.701
34923W        W 6594  40.099  14.979   0.481
34924W        W 6595  22.079  23.170   1.398
34925W        W 6596  41.260  36.588  12.468
34926W        W 6597  28.723   1.963  10.488
34927W        W 6598  30.459  31.612   2.616
34928W        W 6599  11.893  43.652   1.179
34929W        W 6600  22.662  14.117   2.118
34930W        W 6601  42.157  17.790  11.298
34931W        W 6602   2.342  40.417  13.277
34932W        W 6603   3.647  11.605   3.176
34933W        W 6604  22.970   8.700   1.201
34934W        W 6605  39.485  15.779   2.801
34935W        W 6606   4.852  33.295   2.315
34936W        W 6607   4.334  12.313   1.944
34937W        W 6608  24.067  30.580  14.325
34938W        W 6609   6.651   5.656  13.371
34939W        W 6610  43.905  19.099   2.239
34940W        W 6611  16.801  19.007  11.966
34941W        W 6612  30.679  27.528  10.745
34942W        W 6613   4.770  43.369  14.894
34943W        W 6614  40.554  25.974  11.756
34944W        W 6615  12.163  10.900  13.729
34945W        W 6616  34.557  16.293   3.157
34946W        W 6617  34.372  28.647  11.155
34947W        W 6618  27.660   8.938  10.098
34948W        W 6619  13.125   3.252  11.122
34949W        W 6620  16.390  30.368  11.471
34950W        W 6621  32.578  28.519   0.795
34951W        W 6622  27.439  17.788  12.590
34952W        W 6623  38.584   0.840   2.224
34953W        W 6624  11.907  10.982  11.411
34954W        W 6625  22.129  38.647  14.740
34955W        W 6626  44.802  13.166   3.354
34956W        W 6627   0.028   1.921   0.509
34957W        W 6628  19.185  40.406   4.581
34958W        W 6629   2.904  26.139   4.382
34959W        W 6630  24.705  41.060   1.376
34960W        W 6631  14.234  33.115   1.960
34961W        W 6632  36.481  30.326  10.399
34962W        W 6633  22.915  39.312  10.618
34963W        W 6634  29.760   8.870  12.142
34964W        W 6635  35.022  35.052   2.677
34965W        W 6636  24.115  17.522   4.625
34966W        W 6637  38.091  35.966  13.961
34967W        W 6638  18.881   6.274  12.962
34968W        W 6639  34.004  22.127   2.140
34969W        W 6640  23.536   7.344  10.728
34970W        W 6641   8.720  23.102   4.098
34971W        W 6642  36.001  31.787  10.340
34972W        W 6643   6.240  20.075  11.999
34973W        W 6644  17.198  19.057   3.599
34974W        W 6645  20.044  27.441  13.993
34975W        W 6646  11.929   6.211  12.028
34976W        W 6647  16.226  31.961   0.031
34977W        W 6648  29.532  33.300   0.669
34978W        W 6649   5.873  41.989  12.619
34979W        W 6650  14.699   3.886  12.557
34980W        W 6651  17.679  20.654  14.818
34981W        W 6652   8.393  18.828   0.949
34982W        W 6653   2.343   7.664  14.364
34983W        W 6654   9.043  29.507   3.619
34984W        W 6655  40.903   8.503  11.030
34985W        W 6656   9.100  44.354  12.325
34986W        W 6657  37.751   4.848  10.915
34987W        W 6658  21.636   6.214  13.636
34988W        W 6659  36.888  26.724   1.312
34989W        W 6660  28.120  21.691  14.514
34990W        W 6661  12.700   2.689   0.214
34991W        W 6662  24.495   5.298   1.343
34992W        W 6663  30.113  32.650  10.723
34993W        W 6664  17.806  20.839  11.493
34994W        W 6665   5.179  21.981  13.333
34995W        W 6666  11.054  13.735   0.745
34996W        W 6667   9.283  16.843  12.551
34997W        W 6668   3.701  16.045   0.825
34998W        W 6669  15.618   6.627  14.237
34999W        W 6670  28.503   7.936   3.437
35000W        W 6671  26.913  31.513   1.967
35001W        W 6672  16.682  34.091  10.652
35002W        W 6673  21.244  23.782   4.230
35003W        W 6674  12.012   7.264   1.408
35004W        W 6675   0.754  11.187  12.245
35005W        W 6676  33.067   8.317  13.383
35006W        W 6677  38.422  14.766  13.297
35007W        W 6678  28.970  19.735   2.626
35008W        W 6679  30.526  23.037  14.296
35009W        W 6680  38.447   3.235  13.881
35010W        W 6681  27.995   3.508  10.683
35011W        W 6682  11.324  11.897  12.072
35012W        W 6683  36.071  31.715   1.670
35013W        W 6684   8.792  13.172  14.427
35014W        W 6685  31.700  21.094   3.731
35015W        W 6686  15.150  19.483  13.873
35016W        W 6687  41.673   3.388   4.884
35017W        W 6688  21.881  22.016   2.550
35018W        W 6689  43.395   0.746   4.788
35019W        W 6690  14.645  36.585   0.132
35020W        W 6691  13.243  14.615  11.943
35021W        W 6692  33.368  36.486   1.302
35022W        W 6693  19.409  37.447  14.619
35023W        W 6694  28.491  37.890   4.638
35024W        W 6695  21.541  31.145   4.724
35025W        W 6696  10.657  38.968   3.365
35026W        W 6697  39.782  27.078  11.080
35027W        W 6698   7.695  37.640  11.448
35028W        W 6699  41.115   7.879  12.376
35029W        W 6700  14.264  29.006   0.830
35030W        W 6701  10.818  26.218  10.986
35031W        W 6702  29.572  44.025  10.777
35032W        W 6703  37.427   1.312  10.954
35033W        W 6704  18.228  21.696   0.311
35034W        W 6705  38.263   2.762   0.723
35035W        W 6706   5.050  32.355  12.069
35036W        W 6707  29.055   5.942   0.226
35037W        W 6708  26.575  34.983  13.026
35038W        W 6709  12.789  35.823  10.776
35039W        W 6710  30.656   7.438   2.916
35040W        W 6711  34.864  32.664  14.736
35041W        W 6712   9.863  11.283  13.374
35042W        W 6713  24.715  39.457  14.613
35043W        W 6714  17.557   6.748  13.051
35044W        W 6715  24.970   6.706   4.457
35045W        W 6716  44.338  36.826  11.376
35046W        W 6717  19.579  23.754  14.174
35047W        W 6718   4.335  10.310   3.696
35048W        W 6719  22.961  18.134   1.457
35049W        W 6720  30.484  16.049   1.207
35050W        W 6721  34.199  43.830   1.319
35051W        W 6722   8.443  20.665   1.147
35052W        W 6723  31.906  21.539   3.567
35053W        W 6724  40.961  22.654  11.458
35054W        W 6725   5.705  18.789  11.500
35055W        W 6726  37.613  14.208   1.679
35056W        W 6727  19.526  30.948   2.078
35057W        W 6728  19.254  20.133  12.868
35058W        W 6729  43.052  29.808   3.260
35059W        W 6730  35.050  42.114   3.012
35060W        W 6731   6.125   6.678   4.145
35061W        W 6732  30.526  30.053   2.302
35062W        W 6733  27.641   3.870   2.698
35063W        W 6734  10.182  36.146   4.470
35064W        W 6735  30.428   1.955   2.346
35065W        W 6736  42.059  11.131  13.887
35066W        W 6737  14.856  39.586   4.713
35067W        W 6738  29.686  25.312  14.281
35068W        W 6739  10.427  38.905   2.416
35069W        W 6740  24.458  29.499  12.045
35070W        W 6741  15.808  28.178   1.389
35071W        W 6742  23.167   0.820  12.535
35072W        W 6743  28.900  31.529   4.724
35073W        W 6744  26.290  23.244  11.143
35074W        W 6745  12.670  20.744   2.981
35075W        W 6746  41.407  24.549   2.430
35076W        W 6747  14.108   8.194   3.553
35077W        W 6748  24.070   8.609   4.222
35078W        W 6749  36.904  12.425  11.588
35079W        W 6750   3.428   7.912  14.724
35080W        W 6751   8.292  22.416   4.132
35081W        W 6752  19.416  15.604   4.221
35082W        W 6753  31.818  41.357   1.209
35083W        W 6754  27.001   7.703  11.983
35084W        W 6755   8.972  10.821   1.396
35085W        W 6756  29.885  38.847  12.608
35086W        W 6757  39.921  26.158   2.470
35087W        W 6758  43.991  31.276  13.535
35088W        W 6759  10.394  26.524   3.645
35089W        W 6760  29.424   6.016   0.916
35090W        W 6761  38.760  12.933  13.540
35091W        W 6762  39.518   7.974  13.464
35092W        W 6763  22.271  12.776  13.066
35093W        W 6764   2.381  12.125  13.385
35094W        W 6765  22.464  13.593   2.844
35095W        W 6766  40.017  39.045  11.327
35096W        W 6767  40.824   3.704   2.372
35097W        W 6768  31.384  33.404   4.604
35098W        W 6769  32.896  40.339  11.162
35099W        W 6770  14.697  43.900  10.690
35100W        W 6771  22.449   6.713   3.342
35101W        W 6772  27.536  31.061  14.271
35102W        W 6773  15.888  37.932  14.361
35103W        W 6774  12.084   0.923   1.205
35104W        W 6775  18.694  31.370   1.011
35105W        W 6776  21.221   7.442   3.006
35106W        W 6777  33.803   6.897   4.296
35107W        W 6778   3.670   0.340   3.644
35108W        W 6779  43.290  31.094   2.313
35109W        W 6780  39.387  21.661  13.766
35110W        W 6781   6.146  12.286  14.523
35111W        W 6782  41.933   8.792  14.341
35112W        W 6783  23.491   0.774  14.003
35113W        W 6784  28.655   8.225  12.094
35114W        W 6785  12.111  40.940  10.605
35115W        W 6786   3.741  43.210  11.124
35116W        W 6787  33.159   3.336   2.647
35117W        W 6788  11.234  35.594   3.310
35118W        W 6789   1.484   7.743   3.376
35119W        W 6790   5.390   7.534   0.827
35120W        W 6791   4.694  38.343   4.031
35121W        W 6792  33.994  22.022   3.575
35122W        W 6793  36.928  36.351  10.995
35123W        W 6794  23.247   5.618  11.234
35124W        W 6795  17.009  23.586  14.955
35125W        W 6796  12.715  14.088   1.807
35126W        W 6797  21.072  35.455   3.880
35127W        W 6798  16.222  35.360  10.713
35128W        W 6799  22.687  31.366  11.142
35129W        W 6800  15.837  19.337   2.141
35130W        W 6801   3.887  23.618  14.824
35131W        W 6802  39.828  27.990   3.866
35132W        W 6803  37.001  40.882  13.624
35133W        W 6804  10.519  12.260  14.548
35134W        W 6805  33.836  38.860   1.322
35135W        W 6806  23.149  32.701   3.581
35136W        W 6807  12.562  37.627  14.351
35137W        W 6808  18.193  32.814   2.178
35138W        W 6809  30.446  12.848  10.380
35139W        W 6810  44.540  21.081  12.796
35140W        W 6811  19.334  44.534  11.095
35141W        W 6812  38.799  34.726   0.900
35142W        W 6813  26.177  18.140  12.477
35143W        W 6814  19.925  42.804  13.076
35144W        W 6815  42.006  25.722  13.530
35145W        W 6816   8.666  34.503  14.800
35146W        W 6817  15.575  25.218   3.341
35147W        W 6818  17.341  17.728  14.005
35148W        W 6819  21.582  25.287   0.795
35149W        W 6820   8.665  15.281  11.104
35150W        W 6821  20.319  14.183  13.461
35151W        W 6822  13.755   1.731  11.163
35152W        W 6823   4.231  13.940   0.182
35153W        W 6824   2.411  27.073  14.505
35154W        W 6825  42.843   2.727   4.917
35155W        W 6826   1.698  41.889   3.951
35156W        W 6827  13.365  27.144   0.407
35157W        W 6828  11.737   0.570   3.595
35158W        W 6829  24.940  10.167  13.915
35159W        W 6830  36.826  11.266   0.230
35160W        W 6831  30.442  40.283   0.044
35161W        W 6832  24.192  43.631   3.825
35162W        W 6833  33.116  21.406   4.998
35163W        W 6834  41.892  26.373  14.484
35164W        W 6835  14.888  26.082   2.267
35165W        W 6836   8.246  33.583  11.252
35166W        W 6837   3.864  33.344  14.349
35167W        W 6838  38.802  31.471   0.741
35168W        W 6839   2.342  24.002   3.910
35169W        W 6840  24.241   3.898  13.086
35170W        W 6841  11.616  40.737   0.714
35171W        W 6842  39.101  35.996  13.880
35172W        W 6843  15.639   2.253   1.385
35173W        W 6844  40.067   6.957  11.847
35174W        W 6845  24.677  42.550   3.001
35175W        W 6846  18.098  18.824  11.950
35176W        W 6847  17.898  13.629  14.215
35177W        W 6848  26.889  36.377   4.579
35178W        W 6849   7.464   4.008  11.168
35179W        W 6850   7.753  21.296  12.082
35180W        W 6851   5.120   8.742   2.657
35181W        W 6852  22.623  39.561   3.348
35182W        W 6853   8.352  41.030   3.661
35183W        W 6854   9.363   2.628  11.396
35184W        W 6855  28.508  21.382   1.811
35185W        W 6856  33.959  10.003   4.727
35186W        W 6857  37.323  18.197   1.184
35187W        W 6858  10.905  19.623   3.596
35188W        W 6859  17.144   2.137   3.255
35189W        W 6860  20.621  41.993  11.923
35190W        W 6861  35.137  19.134  14.936
35191W        W 6862  23.162  31.696   2.267
35192W        W 6863   4.847   4.589  12.561
35193W        W 6864   4.772  38.878   1.192
35194W        W 6865  20.827  32.741  14.433
35195W        W 6866  18.094  39.626   0.858
35196W        W 6867  26.166  44.315   2.408
35197W        W 6868  26.111  33.911  10.513
35198W        W 6869  35.171  26.017   4.226
35199W        W 6870   9.592  44.534  12.382
35200W        W 6871  40.410  30.115  11.690
35201W        W 6872  18.148   1.061   2.269
35202W        W 6873   2.205   1.886   1.001
35203W        W 6874  20.741  32.653   0.319
35204W        W 6875  33.693  42.375   1.973
35205W        W 6876  17.237  20.203  12.985
35206W        W 6877  37.424  37.820   4.169
35207W        W 6878  36.486   0.233   0.710
35208W        W 6879  38.179   8.052  13.928
35209W        W 6880  39.839  16.055  13.386
35210W        W 6881  25.968  13.628   2.232
35211W        W 6882  20.175  39.635  12.067
35212W        W 6883  10.734  16.639  12.460
35213W        W 6884  31.456  20.738   1.827
35214W        W 6885   1.381  37.367   1.628
35215W        W 6886   6.431  25.017   3.238
35216W        W 6887  20.785  25.930   4.710
35217W        W 6888  13.701  21.723   3.259
35218W        W 6889   4.833  17.527   1.587
35219W        W 6890  27.151  41.351   1.256
35220W        W 6891   9.388  13.220   4.652
35221W        W 6892   1.262  33.814  10.482
35222W        W 6893  33.429  33.873   3.172
35223W        W 6894   2.771  31.953  13.902
35224W        W 6895  32.451  18.192  12.121
35225W        W 6896  23.439  40.589   2.147
35226W        W 6897  26.022  23.991   1.715
35227W        W 6898  15.853  43.304  14.940
35228W        W 6899   8.479  20.075   1.710
35229W        W 6900  16.989  35.882  11.552
35230W        W 6901  28.011  42.974  11.140
35231W        W 6902   6.418  23.524   2.255
35232W        W 6903   7.763  13.695  14.582
35233W        W 6904  13.239  14.623  14.448
35234W        W 6905  12.710   8.613   1.207
35235W        W 6906  20.823  25.048   4.095
35236W        W 6907  16.801  29.070  10.575
35237W        W 6908  15.577  19.347   4.944
35238W        W 6909  19.980  27.090  10.889
35239W        W 6910  22.527  25.671   9.812
35240W        W 6911  12.401  36.925  13.065
35241W        W 6912  44.433   3.529   1.913
35242W        W 6913  20.139  22.947   2.720
35243W        W 6914  19.302   7.211  14.937
35244W        W 6915  27.685  36.901   4.534
35245W        W 6916  22.259  27.077   3.273
35246W        W 6917  11.824   5.912   0.333
35247W        W 6918  39.078   1.750   5.277
35248W        W 6919  11.393  40.271  11.157
35249W        W 6920   6.390  35.622  12.640
35250W        W 6921  40.306   2.751   1.795
35251W        W 6922   3.640  37.610   2.103
35252W        W 6923   8.576   2.870   1.371
35253W        W 6924  30.082   6.337   3.051
35254W        W 6925  16.567   0.808   4.692
35255W        W 6926  44.808  38.889   0.052
35256W        W 6927  19.231  36.822   1.876
35257W        W 6928  43.732  26.964  12.091
35258W        W 6929  33.114  41.523  11.913
35259W        W 6930  38.391  24.989   1.320
35260W        W 6931  44.803  38.282  11.152
35261W        W 6932  15.588   2.716   3.375
35262W        W 6933  44.983  13.356  11.454
35263W        W 6934  14.723  15.152   1.886
35264W        W 6935  42.501  28.095   3.158
35265W        W 6936   1.035  16.176  10.557
35266W        W 6937  20.740  36.647   2.605
35267W        W 6938  42.364  11.337   1.922
35268W        W 6939  35.345  12.608   2.739
35269W        W 6940   8.212  11.660  14.710
35270W        W 6941   3.305   7.774   2.400
35271W        W 6942   1.419   2.149  11.768
35272W        W 6943  29.170   9.177  13.485
35273W        W 6944  11.370  36.978  13.993
35274W        W 6945  12.184   5.776  11.936
35275W        W 6946  10.707  44.840  10.782
35276W        W 6947   4.626   4.119   0.278
35277W        W 6948  24.599  33.266  12.297
35278W        W 6949  32.042  10.138  13.019
35279W        W 6950  29.203  31.950   0.254
35280W        W 6951  42.262  17.204   1.857
35281W        W 6952  28.102   9.020   3.240
35282W        W 6953   2.118  30.698  11.654
35283W        W 6954   6.674  29.024   9.847
35284W        W 6955  10.451   7.331  13.084
35285W        W 6956  30.212  28.603   4.039
35286W        W 6957  43.311  27.578  10.714
35287W        W 6958  24.186  32.107   0.418
35288W        W 6959  29.315   7.586   3.656
35289W        W 6960  16.367  11.848  13.574
35290W        W 6961  22.097   8.584  12.412
35291W        W 6962  19.538  34.156   4.036
35292W        W 6963   5.863  29.023  14.566
35293W        W 6964   2.877  41.973   4.302
35294W        W 6965  27.985   1.858   3.320
35295W        W 6966  27.716   0.052  11.692
35296W        W 6967  20.500  16.666   4.151
35297W        W 6968  17.082   3.439   0.330
35298W        W 6969   9.602  41.964  11.219
35299W        W 6970  33.580  23.126  12.907
35300W        W 6971  43.056  30.422  14.896
35301W        W 6972  35.634  19.781   2.683
35302W        W 6973   7.457  23.988   0.439
35303W        W 6974   8.831  36.516  10.599
35304W        W 6975  40.740  37.517   3.769
35305W        W 6976  12.150  40.105   4.911
35306W        W 6977  33.100   6.158  13.475
35307W        W 6978  37.532  39.568   9.670
35308W        W 6979  12.174   6.840  10.639
35309W        W 6980  37.254  18.154  12.487
35310W        W 6981   9.836  29.571  12.931
35311W        W 6982  41.469  16.103   0.431
35312W        W 6983  15.717  38.014  12.955
35313W        W 6984  24.040  37.486  14.448
35314W        W 6985   0.772  32.723   0.954
35315W        W 6986   0.481  33.322  11.137
35316W        W 6987  36.458  18.733  11.251
35317W        W 6988  28.133  35.935   0.888
35318W        W 6989  31.546  22.600   1.689
35319W        W 6990  31.243  18.092   1.023
35320W        W 6991  39.889  33.776   1.494
35321W        W 6992  27.307  19.293   2.404
35322W        W 6993  26.515  15.656   4.904
35323W        W 6994  13.806  10.531   3.139
35324W        W 6995  25.396  25.477   2.647
35325W        W 6996  37.004  13.066  10.748
35326W        W 6997  10.188  34.639  12.677
35327W        W 6998  29.076   6.453   0.059
35328W        W 6999  25.524  23.087  11.469
35329W        W 7000  27.967  36.928  11.660
35330W        W 7001  11.500  33.967  10.795
35331W        W 7002   8.239  13.575  14.381
35332W        W 7003   1.265  16.613   2.860
35333W        W 7004  21.005   6.796  13.812
35334W        W 7005   7.941  26.390   1.456
35335W        W 7006  29.203   8.046   0.417
35336W        W 7007  16.580  33.694   0.288
35337W        W 7008  38.049   0.728  13.543
35338W        W 7009   7.850  18.076  12.454
35339W        W 7010  43.200  20.361   2.292
35340W        W 7011  34.011  15.933  14.541
35341W        W 7012  42.832  44.745  14.257
35342W        W 7013  20.853   6.629   4.060
35343W        W 7014  23.010  15.304  13.798
35344W        W 7015  12.393   8.834  13.667
35345W        W 7016  43.596  21.759   0.955
35346W        W 7017  10.618   1.728   3.296
35347W        W 7018   4.872  14.039  11.041
35348W        W 7019  32.976   0.818   4.735
35349W        W 7020  18.007  11.524   2.684
35350W        W 7021  42.537  12.316  12.461
35351W        W 7022  19.703  38.388   1.928
35352W        W 7023  20.520  31.993  11.919
35353W        W 7024  36.593  34.730  14.915
35354W        W 7025  31.979  23.682   3.197
35355W        W 7026  11.546  43.508  10.703
35356W        W 7027   5.281  44.504   3.613
35357W        W 7028  11.328  21.165  14.347
35358W        W 7029  36.027  13.332  12.288
35359W        W 7030  38.628   3.158   0.807
35360W        W 7031   0.807  35.313  12.963
35361W        W 7032  17.297  16.755   4.399
35362W        W 7033   8.975  26.786  12.425
35363W        W 7034  11.001  44.034  14.327
35364W        W 7035  11.038   0.732  14.744
35365W        W 7036  13.462  39.413  11.027
35366W        W 7037  30.807  20.133   4.587
35367W        W 7038  32.902  25.602  14.285
35368W        W 7039  37.276   4.629  12.776
35369W        W 7040  29.353   0.801  13.801
35370W        W 7041  38.885  40.495   1.936
35371W        W 7042  34.586  19.267  12.330
35372W        W 7043  21.964  37.010   4.246
35373W        W 7044   5.767   9.193  10.441
35374W        W 7045  26.818  33.856   1.916
35375W        W 7046  35.581  42.954  13.862
35376W        W 7047  21.431  43.349  13.644
35377W        W 7048  25.286  36.947   4.799
35378W        W 7049  13.286  12.094   3.720
35379W        W 7050  14.654   7.950   0.858
35380W        W 7051  39.081  13.393   4.273
35381W        W 7052  17.508  44.468  12.647
35382W        W 7053  28.426   9.310  13.834
35383W        W 7054  40.403   9.106   2.275
35384W        W 7055  38.453   1.236  12.392
35385W        W 7056  30.170  36.768  12.850
35386W        W 7057  21.775  23.656   5.530
35387W        W 7058  30.983  10.991  11.616
35388W        W 7059  20.247  43.873  13.498
35389W        W 7060  14.854  12.798   3.904
35390W        W 7061  39.586   5.241  13.856
35391W        W 7062  20.276   0.898   2.401
35392W        W 7063  23.484   6.905  13.845
35393W        W 7064  10.767   7.606  11.281
35394W        W 7065   0.773   1.310   3.407
35395W        W 7066  19.035  18.568   1.087
35396W        W 7067  11.556  39.545  13.424
35397W        W 7068  29.950   6.425   1.688
35398W        W 7069  14.812  36.049  10.477
35399W        W 7070   7.565  30.634  10.703
35400W        W 7071  37.528  15.866  10.699
35401W        W 7072  13.368  38.837   1.514
35402W        W 7073  27.282   1.325   3.524
35403W        W 7074  12.198  14.606  12.478
35404W        W 7075  21.203  31.163  12.213
35405W        W 7076   7.436  30.057   1.302
35406W        W 7077   0.540   8.262  10.455
35407W        W 7078  28.907  40.160  14.019
35408W        W 7079  15.430  37.825  13.358
35409W        W 7080  34.532  19.186   4.727
35410W        W 7081  15.134  33.296   2.900
35411W        W 7082  43.488  11.800   0.379
35412W        W 7083  25.320   6.932  11.158
35413W        W 7084  15.021  17.516  11.847
35414W        W 7085   8.329   3.036   2.129
35415W        W 7086   2.392  17.670  14.417
35416W        W 7087  12.448  17.905  14.500
35417W        W 7088  38.482  26.226   0.015
35418W        W 7089  42.762  43.472   2.651
35419W        W 7090   5.184  24.876  13.749
35420W        W 7091  35.508  39.833   5.479
35421W        W 7092  28.633  14.613   0.946
35422W        W 7093  43.701  15.620   4.681
35423W        W 7094   6.235  34.963  11.678
35424W        W 7095  32.288  24.827   1.790
35425W        W 7096  33.549  38.566   1.691
35426W        W 7097  25.953   2.998  12.106
35427W        W 7098  11.213  43.017  13.414
35428W        W 7099  14.922  33.970  11.159
35429W        W 7100   7.837  25.517  14.929
35430W        W 7101   8.409  23.142   0.010
35431W        W 7102  37.259  34.509   3.466
35432W        W 7103  42.729  29.645  12.829
35433W        W 7104   1.089  34.577   2.293
35434W        W 7105  28.054  28.221   4.030
35435W        W 7106  27.658  37.330  11.540
35436W        W 7107   9.080   7.032  11.687
35437W        W 7108  22.906  41.899   5.182
35438W        W 7109  37.042   1.773   4.653
35439W        W 7110  37.589  22.565  14.238
35440W        W 7111  12.309  28.736  12.078
35441W        W 7112   4.744   4.385  13.021
35442W        W 7113  44.825  34.546   0.667
35443W        W 7114   3.332  34.993  13.856
35444W        W 7115  16.939  19.461   0.269
35445W        W 7116  42.269  12.765  12.407
35446W        W 7117  34.023  38.894  11.569
35447W        W 7118  32.952   8.398  13.883
35448W        W 7119   0.488  38.159   0.707
35449W        W 7120  12.132  28.017  11.192
35450W        W 7121  15.128  22.446  13.019
35451W        W 7122   4.313  25.927  14.870
35452W        W 7123   3.388  23.731   2.233
35453W        W 7124   0.048  17.650   3.010
35454W        W 7125  25.994  21.254   4.072
35455W        W 7126  22.382  39.465  11.390
35456W        W 7127  27.076   9.368   0.810
35457W        W 7128  39.784  26.280  12.953
35458W        W 7129  10.160   5.642   1.686
35459W        W 7130  26.915  41.525   0.346
35460W        W 7131  24.481  42.929   0.653
35461W        W 7132  24.631   7.333   2.474
35462W        W 7133   7.104  41.543  12.538
35463W        W 7134  27.087   9.818  10.572
35464W        W 7135  23.493  31.680  10.695
35465W        W 7136  11.778   6.539  10.789
35466W        W 7137  30.632  18.065  10.710
35467W        W 7138   4.428  22.080   2.161
35468W        W 7139  28.564  30.857   0.790
35469W        W 7140  23.755   6.662  11.062
35470W        W 7141  36.457  36.874  12.547
35471W        W 7142  21.050  20.109  13.406
35472W        W 7143  32.316  30.519   0.326
35473W        W 7144  41.891  35.229   0.873
35474W        W 7145  15.699  40.220   1.272
35475W        W 7146  19.027   7.731   2.470
35476W        W 7147   1.165  23.603   4.197
35477W        W 7148   6.415  39.771  11.359
35478W        W 7149   4.738  36.410   4.271
35479W        W 7150  32.655  39.031  11.164
35480W        W 7151  19.861  38.856  13.235
35481W        W 7152  16.572  30.853  11.974
35482W        W 7153  24.413  30.649   0.642
35483W        W 7154  21.664   1.428   1.875
35484W        W 7155  39.718  18.534  10.366
35485W        W 7156  42.925   1.109  14.099
35486W        W 7157  44.981   9.634  11.557
35487W        W 7158  32.887  41.382  14.418
35488W        W 7159  19.975   3.388  12.783
35489W        W 7160  19.762  18.586  13.144
35490W        W 7161  11.159   2.524  10.669
35491W        W 7162  16.092   0.680  14.935
35492W        W 7163  21.979  17.624   2.864
35493W        W 7164  20.245   3.477  13.745
35494W        W 7165  24.246  30.908   2.787
35495W        W 7166   9.568  15.692   3.759
35496W        W 7167   1.271  15.644  11.406
35497W        W 7168  25.003  23.162  10.607
35498W        W 7169   5.502   4.411   1.755
35499W        W 7170  24.706   0.388   4.315
35500W        W 7171   1.515  16.856   3.260
35501W        W 7172   2.344  26.341  10.403
35502W        W 7173  36.421  31.415   1.892
35503W        W 7174  42.590  24.371   5.380
35504W        W 7175  29.431   5.794   4.075
35505W        W 7176   2.535   1.743   0.281
35506W        W 7177  10.667  36.256  13.788
35507W        W 7178  11.233  43.420   0.329
35508W        W 7179  27.455  18.215   3.224
35509W        W 7180  41.827  39.940  11.005
35510W        W 7181   5.753   2.066  11.775
35511W        W 7182   2.823  44.506   3.158
35512W        W 7183  16.442  44.736  13.484
35513W        W 7184  30.362  27.699   2.299
35514W        W 7185   6.133   9.881  10.545
35515W        W 7186  30.344   1.320  13.577
35516W        W 7187  21.252  26.447   4.050
35517W        W 7188   1.434  40.126  11.177
35518W        W 7189  16.129  16.735  11.596
35519W        W 7190  38.142  32.602   4.205
35520W        W 7191  11.082  11.248  12.439
35521W        W 7192  18.166  24.672   2.210
35522W        W 7193  18.788  33.183   0.481
35523W        W 7194   5.725   5.980  12.325
35524W        W 7195   8.800  37.077   2.835
35525W        W 7196  32.676  10.048   3.632
35526W        W 7197  23.077  44.118   0.853
35527W        W 7198  12.420   8.285   2.149
35528W        W 7199   6.885  19.582   1.597
35529W        W 7200  18.563  20.776   1.808
35530W        W 7201   3.197  11.191   4.014
35531W        W 7202   1.498  39.521  11.765
35532W        W 7203  31.218  16.706   0.970
35533W        W 7204  36.863  40.555   4.119
35534W        W 7205   4.272  42.598  13.382
35535W        W 7206  15.586  41.838  13.347
35536W        W 7207  37.732   1.288  11.941
35537W        W 7208  17.043  20.211  10.623
35538W        W 7209  42.257  43.726   0.816
35539W        W 7210  23.286  21.608  10.550
35540W        W 7211  16.580  27.153   4.495
35541W        W 7212  19.063   3.295  14.904
35542W        W 7213  27.317  28.980  12.942
35543W        W 7214  26.973   0.189   1.233
35544W        W 7215   5.313  26.892   2.191
35545W        W 7216  38.961   1.122  10.718
35546W        W 7217  20.212  34.064  13.054
35547W        W 7218  28.615  39.974   2.908
35548W        W 7219  26.672   3.700  11.047
35549W        W 7220  16.902  25.928   2.977
35550W        W 7221  40.821  41.266   0.015
35551W        W 7222  20.743  40.871  12.835
35552W        W 7223   8.835   2.252   0.500
35553W        W 7224  40.655   8.181  11.704
35554W        W 7225   5.005  28.416   4.580
35555W        W 7226  40.189  34.489  11.992
35556W        W 7227  11.640  22.085  13.468
35557W        W 7228   2.473  13.761  13.468
35558W        W 7229  18.820  28.922  14.469
35559W        W 7230  33.485  11.072  11.186
35560W        W 7231  18.193  24.958   0.937
35561W        W 7232  28.670  27.548  13.092
35562W        W 7233  44.067  34.393   3.655
35563W        W 7234  31.393  38.414  13.989
35564W        W 7235   7.836  27.666   2.861
35565W        W 7236   2.435   4.980  13.885
35566W        W 7237  10.424   7.698   1.782
35567W        W 7238  28.247   6.338  10.609
35568W        W 7239  33.584  27.091  13.410
35569W        W 7240  12.378  26.313  11.966
35570W        W 7241   8.940  32.831   0.362
35571W        W 7242  12.857   6.235   1.916
35572W        W 7243   9.509  18.727  12.171
35573W        W 7244  10.795  10.279   3.454
35574W        W 7245  35.106  44.567  11.231
35575W        W 7246  11.131  32.479  13.427
35576W        W 7247   3.378  39.018   0.941
35577W        W 7248  24.513  34.019   3.352
35578W        W 7249  23.083   9.190  12.454
35579W        W 7250  33.600  21.038   3.729
35580W        W 7251  16.930  19.713   3.479
35581W        W 7252  30.559   5.945  11.525
35582W        W 7253  26.489   0.432   2.352
35583W        W 7254  29.560   9.579   4.711
35584W        W 7255  44.458  40.933   1.688
35585W        W 7256  13.235   4.098   2.245
35586W        W 7257  40.920   8.602   1.763
35587W        W 7258  11.821  19.716  12.536
35588W        W 7259  40.109  15.786  14.468
35589W        W 7260  14.574   5.819   4.048
35590W        W 7261   0.225  41.791  14.415
35591W        W 7262  21.738  26.117   3.382
35592W        W 7263  26.281   4.482   4.768
35593W        W 7264   8.946  31.977  14.820
35594W        W 7265  36.321  19.677  12.106
35595W        W 7266  44.428  29.137  13.447
35596W        W 7267  24.982   1.811   4.687
35597W        W 7268   3.254  15.563  11.848
35598W        W 7269  34.392  44.630   0.294
35599W        W 7270  35.032  15.185   3.919
35600W        W 7271  17.191  39.797  13.806
35601W        W 7272   6.442   8.196  11.708
35602W        W 7273  25.867  36.376  14.290
35603W        W 7274  21.694  23.621   1.747
35604W        W 7275   0.260  19.786  10.751
35605W        W 7276  21.584  30.484  13.446
35606W        W 7277  26.298   4.905   2.311
35607W        W 7278  22.635   1.631  11.223
35608W        W 7279  18.683  12.785   1.974
35609W        W 7280  40.344  32.106   3.281
35610W        W 7281  17.172  35.369  12.003
35611W        W 7282   4.800  36.482   4.789
35612W        W 7283  14.599  41.860   3.285
35613W        W 7284   0.526  25.104  14.003
35614W        W 7285  28.535  17.916  11.190
35615W        W 7286  27.133  19.021   1.332
35616W        W 7287  44.277  19.586   3.334
35617W        W 7288  36.540  23.985   3.646
35618W        W 7289   7.986  12.672  14.369
35619W        W 7290  34.888  39.355  14.977
35620W        W 7291  36.411  21.179   0.388
35621W        W 7292  29.488  29.682  11.014
35622W        W 7293   1.069  10.103  11.037
35623W        W 7294   0.680   5.192   1.879
35624W        W 7295  44.685  25.162   3.651
35625W        W 7296  12.386  11.268   3.793
35626W        W 7297  23.099  27.962   1.395
35627W        W 7298  37.107  15.754   0.777
35628W        W 7299   7.192   7.549  14.993
35629W        W 7300  27.902  34.632  12.624
35630W        W 7301  13.945  31.885   0.328
35631W        W 7302  33.047  21.549  14.895
35632W        W 7303   6.961  33.120  12.450
35633W        W 7304  18.743   4.997   4.129
35634W        W 7305  11.197  39.468   1.307
35635W        W 7306  23.397  43.456   3.464
35636W        W 7307  40.096  36.611  14.476
35637W        W 7308  35.635  31.082   1.331
35638W        W 7309  43.333  35.852  13.965
35639W        W 7310  26.733  16.737   4.099
35640W        W 7311  27.063   9.842   0.446
35641W        W 7312  22.950   9.188  13.438
35642W        W 7313  29.710  22.908   1.863
35643W        W 7314  30.464  34.741   0.252
35644W        W 7315  20.027  11.645  13.524
35645W        W 7316  43.951  40.985   1.482
35646W        W 7317  41.496  35.763  13.844
35647W        W 7318   5.268  19.826   0.819
35648W        W 7319  39.867  25.304  11.582
35649W        W 7320  17.100   4.871   2.431
35650W        W 7321   0.862  17.048   2.599
35651W        W 7322   9.790  29.704  14.705
35652W        W 7323  29.528  12.265   1.149
35653W        W 7324   4.109  42.073   0.877
35654W        W 7325  34.844  28.293  14.789
35655W        W 7326  17.696  38.898  14.702
35656W        W 7327  43.052  40.066   1.833
35657W        W 7328  13.472   0.182  14.105
35658W        W 7329  17.714  24.944  13.455
35659W        W 7330   4.992  25.473  13.537
35660W        W 7331  39.361   9.265   4.676
35661W        W 7332  32.356   9.699  13.006
35662W        W 7333  44.307  26.968  11.381
35663W        W 7334  22.170  14.762   1.184
35664W        W 7335  23.083   8.771   0.246
35665W        W 7336  20.621  38.612   2.756
35666W        W 7337  40.942  13.124  12.493
35667W        W 7338  15.320  28.449  13.336
35668W        W 7339  16.746  44.959   0.776
35669W        W 7340  11.185  38.940  10.472
35670W        W 7341  32.995   3.244   1.347
35671W        W 7342  32.443  40.500   2.667
35672W        W 7343  15.597  40.997  11.156
35673W        W 7344  27.696  19.096   3.663
35674W        W 7345  26.659  26.185  10.320
35675W        W 7346  22.775  15.591  13.430
35676W        W 7347  27.748  41.291   0.181
35677W        W 7348  23.008  29.013   3.622
35678W        W 7349  35.850  12.625   4.314
35679W        W 7350  23.426  14.186  11.765
35680W        W 7351  39.955   8.655   1.781
35681W        W 7352  36.879  14.392  13.903
35682W        W 7353  11.335  14.714  13.087
35683W        W 7354  39.101  37.079   0.966
35684W        W 7355  23.277   3.391   0.760
35685W        W 7356   2.502  32.830   2.737
35686W        W 7357  19.452  17.470   0.478
35687W        W 7358   6.104  25.250   2.921
35688W        W 7359  40.551   2.916   2.244
35689W        W 7360  13.612  18.215  11.657
35690W        W 7361  39.482   2.822  11.108
35691W        W 7362  25.246   4.893  13.891
35692W        W 7363   9.117  14.604  13.153
35693W        W 7364  24.368  19.637   4.067
35694W        W 7365  17.776  27.222   0.997
35695W        W 7366   0.934  24.928   0.772
35696W        W 7367  14.270  22.583   4.942
35697W        W 7368  20.763  25.537   3.080
35698W        W 7369  17.771  11.059  12.839
35699W        W 7370   2.480  42.794  14.014
35700W        W 7371   6.914  15.360   0.431
35701W        W 7372   5.508  29.974  11.171
35702W        W 7373  29.679  36.594  12.956
35703W        W 7374  13.609  37.540   2.917
35704W        W 7375  40.211  44.534   9.973
35705W        W 7376  40.310   5.783  14.372
35706W        W 7377  25.896   4.709   0.731
35707W        W 7378  28.504  44.001   0.939
35708W        W 7379  44.211  22.489  14.820
35709W        W 7380  33.211  19.428  13.018
35710W        W 7381  32.860   8.875  14.027
35711W        W 7382  41.885   0.351   0.380
35712W        W 7383  30.116  40.150   1.325
35713W        W 7384  22.511  15.666   1.258
35714W        W 7385  42.714  30.624  10.219
35715W        W 7386  30.071  26.226  14.928
35716W        W 7387  35.518  14.575   2.150
35717W        W 7388  32.899  11.192   2.150
35718W        W 7389  24.562   2.459  14.361
35719W        W 7390  14.367   5.358   4.178
35720W        W 7391  11.665  10.653   2.720
35721W        W 7392  18.885  20.582  11.935
35722W        W 7393  21.130  40.758   5.068
35723W        W 7394  31.050  30.937  11.935
35724W        W 7395  42.949  38.100   3.205
35725W        W 7396  44.261  39.465  12.850
35726W        W 7397  40.809   4.419  12.613
35727W        W 7398  43.769  13.839   9.739
35728W        W 7399  32.770  26.123  13.992
35729W        W 7400  11.152  37.451  10.898
35730W        W 7401  16.809  12.637   4.759
35731W        W 7402   2.739  34.588   1.263
35732W        W 7403  42.462  27.736  14.423
35733W        W 7404  21.790   7.683  12.450
35734W        W 7405  17.791   7.148  11.098
35735W        W 7406   1.229  25.315   0.302
35736W        W 7407  44.488  13.836  11.522
35737W        W 7408  28.919  36.079   4.149
35738W        W 7409  15.247  38.369  14.042
35739W        W 7410   9.802   3.397  14.241
35740W        W 7411  12.256  28.925   1.558
35741W        W 7412  38.285   1.118  11.238
35742W        W 7413  24.361   9.315   4.778
35743W        W 7414  21.079  39.251   5.067
35744W        W 7415   5.498   1.376  11.027
35745W        W 7416  27.033   2.201   2.367
35746W        W 7417  30.962  30.729  10.607
35747W        W 7418   7.770  27.130   1.248
35748W        W 7419  27.937  23.164   0.678
35749W        W 7420  26.152  23.770   5.028
35750W        W 7421  35.624  33.535  13.731
35751W        W 7422  29.203  43.946   3.471
35752W        W 7423  27.209  39.446   3.624
35753W        W 7424  41.975   0.566   2.258
35754W        W 7425  13.289  15.719   2.335
35755W        W 7426  41.779  29.448   4.959
35756W        W 7427   5.888   9.873  11.039
35757W        W 7428   5.940   0.738   1.458
35758W        W 7429   7.621   1.860  14.456
35759W        W 7430   3.219   1.625  11.399
35760W        W 7431  22.503  35.146   1.751
35761W        W 7432   0.038  16.720  12.052
35762W        W 7433  22.799  24.382   5.005
35763W        W 7434   5.457   2.272   3.227
35764W        W 7435  18.197  25.024  12.075
35765W        W 7436  43.584  18.980  11.986
35766W        W 7437   2.329  37.413   4.249
35767W        W 7438  42.929  17.809  11.638
35768W        W 7439  26.002  31.583   4.689
35769W        W 7440  36.263  24.106   3.193
35770W        W 7441  37.042   9.955   2.738
35771W        W 7442  31.271   5.172   0.906
35772W        W 7443  31.218  15.964   0.254
35773W        W 7444  35.307   1.287   0.245
35774W        W 7445   2.635   9.160   9.989
35775W        W 7446  22.628  37.306   2.380
35776W        W 7447  31.199  29.301  10.466
35777W        W 7448  37.156   0.454   0.200
35778W        W 7449   7.098  39.779   0.617
35779W        W 7450  19.007  29.831  11.165
35780W        W 7451  23.455  41.424  10.424
35781W        W 7452  23.116  27.663  14.139
35782W        W 7453  31.136  18.338   4.616
35783W        W 7454  36.894  44.770   3.402
35784W        W 7455  13.087  32.681  11.083
35785W        W 7456  33.359  16.091   4.668
35786W        W 7457   1.854   6.975   3.262
35787W        W 7458  18.305   5.835  13.483
35788W        W 7459  24.522   1.950  11.897
35789W        W 7460  27.419  18.487   2.778
35790W        W 7461   3.327   6.888  13.733
35791W        W 7462  21.264  22.356   4.140
35792W        W 7463  14.610   4.014  11.575
35793W        W 7464  39.585  21.706   3.880
35794W        W 7465   6.244  29.614   5.370
35795W        W 7466   0.030  40.021  11.452
35796W        W 7467   3.745  15.507  11.575
35797W        W 7468   3.815  13.244  11.692
35798W        W 7469   9.827  14.543   1.595
35799W        W 7470  19.743  41.814   4.555
35800W        W 7471  31.181  25.610   3.775
35801W        W 7472   6.125   3.230  11.121
35802W        W 7473  38.579  10.618  12.415
35803W        W 7474   8.253  28.884  14.580
35804W        W 7475  19.393  19.484  12.967
35805W        W 7476  14.739  18.004  12.882
35806W        W 7477  14.088  23.074  10.707
35807W        W 7478  22.223  18.325   1.794
35808W        W 7479  26.708  43.116  12.497
35809W        W 7480   6.235   0.306  10.238
35810W        W 7481  21.476  11.816   1.872
35811W        W 7482  19.212  43.998  12.141
35812W        W 7483  38.465  39.302   2.151
35813W        W 7484  37.806  18.824  11.461
35814W        W 7485   7.215  24.651  14.349
35815W        W 7486  26.984  22.150  14.931
35816W        W 7487  38.092   2.868  14.294
35817W        W 7488   0.436   5.377  11.758
35818W        W 7489  14.332  29.154  10.589
35819W        W 7490  15.211   6.166   0.403
35820W        W 7491  25.688  44.020   3.188
35821W        W 7492  20.868  23.706  10.290
35822W        W 7493  37.639  12.236   1.375
35823W        W 7494  16.032  14.523   4.077
35824W        W 7495   4.215  10.428   2.327
35825W        W 7496   2.324  44.522  14.915
35826W        W 7497  25.973   8.257  12.207
35827W        W 7498  14.704  31.498   2.116
35828W        W 7499  31.664  16.800   0.718
35829W        W 7500  21.735  22.255   0.730
35830W        W 7501  26.780  28.938  10.590
35831W        W 7502   9.366  44.092   0.010
35832W        W 7503   6.782  42.520  10.294
35833W        W 7504  33.643  32.354   0.924
35834W        W 7505  15.172  32.078  14.579
35835W        W 7506  25.484  33.677  14.893
35836W        W 7507  27.470  31.818   1.083
35837W        W 7508  41.259   7.142  12.815
35838W        W 7509  23.172  31.918   4.581
35839W        W 7510  12.189  29.146  12.386
35840W        W 7511   0.397   8.139   0.488
35841W        W 7512  14.094  21.464   2.258
35842W        W 7513   6.184  12.306   1.628
35843W        W 7514  44.542  12.273  13.951
35844W        W 7515  27.837  33.693   1.255
35845W        W 7516  28.163  32.223  11.101
35846W        W 7517  15.321  26.694  14.173
35847W        W 7518  13.617  32.357  12.168
35848W        W 7519  39.020  27.092   4.159
35849W        W 7520  15.595  24.253  14.788
35850W        W 7521   6.225  22.103  11.343
35851W        W 7522   3.334   7.063  10.824
35852W        W 7523  16.209  30.526   1.422
35853W        W 7524  10.404  22.708   0.323
35854W        W 7525  21.648  11.595   3.206
35855W        W 7526  10.486  41.822  14.483
35856W        W 7527   0.429  19.003  11.203
35857W        W 7528  20.570  13.653   0.490
35858W        W 7529  31.966  14.404  11.722
35859W        W 7530  15.547  31.064  11.918
35860W        W 7531   8.635  12.739   3.256
35861W        W 7532  35.626  44.791  12.899
35862W        W 7533  27.934   2.398  10.669
35863W        W 7534  44.939  15.029  14.871
35864W        W 7535  10.186   5.692   0.395
35865W        W 7536  11.047  14.838   4.061
35866W        W 7537  23.009  44.423  11.891
35867W        W 7538  35.058  40.335  10.993
35868W        W 7539  16.131  38.389  13.600
35869W        W 7540  30.946  42.957  10.678
35870W        W 7541  14.627   9.766   2.657
35871W        W 7542  19.687  23.409  12.876
35872W        W 7543  24.483  36.417  12.088
35873W        W 7544  37.893  27.871  11.017
35874W        W 7545   9.467  39.055   0.794
35875W        W 7546  13.646  39.998   4.623
35876W        W 7547  44.722   0.724  13.355
35877W        W 7548   6.911  33.941  14.729
35878W        W 7549   2.415  35.918  12.963
35879W        W 7550  20.355  39.070  10.670
35880W        W 7551  23.325  30.204  11.686
35881W        W 7552   1.859  24.197  13.603
35882W        W 7553  17.844  23.804  14.823
35883W        W 7554  10.313  35.625  14.334
35884W        W 7555  22.584  13.336   3.917
35885W        W 7556  18.797   9.432   0.669
35886W        W 7557  39.116   3.263  11.574
35887W        W 7558   4.878  18.625   4.462
35888W        W 7559   3.182  27.383  10.767
35889W        W 7560  22.209  41.391   1.313
35890W        W 7561  35.909  33.948  13.458
35891W        W 7562  27.363  37.398   4.083
35892W        W 7563  32.809  37.912   2.187
35893W        W 7564  26.561  16.947  13.646
35894W        W 7565  28.022  16.947   4.907
35895W        W 7566  31.698  12.816   1.199
35896W        W 7567  32.559  14.732   4.402
35897W        W 7568  36.398  23.116  13.580
35898W        W 7569  40.429  40.416   1.504
35899W        W 7570   1.854  25.921   0.397
35900W        W 7571  34.637  40.306  11.275
35901W        W 7572   4.863  19.078  13.059
35902W        W 7573  10.249   7.625   4.650
35903W        W 7574  26.452  44.485   3.635
35904W        W 7575  11.361  24.123   0.419
35905W        W 7576  23.991  11.404  11.616
35906W        W 7577  24.112  26.561   5.382
35907W        W 7578  19.478   3.358  12.977
35908W        W 7579   0.051   9.183  13.395
35909W        W 7580   4.574   3.640   3.333
35910W        W 7581  38.098  23.553   3.173
35911W        W 7582  15.794  37.117  13.997
35912W        W 7583  37.878  30.013  11.550
35913W        W 7584  15.632  42.639   4.980
35914W        W 7585  20.268  28.739   3.858
35915W        W 7586   4.850  43.601   3.722
35916W        W 7587   8.882   7.687  14.811
35917W        W 7588  43.113  40.987   0.917
35918W        W 7589   3.827  39.937   2.272
35919W        W 7590  13.681   3.372   3.145
35920W        W 7591  20.316  41.780  11.434
35921W        W 7592  25.096  26.602  12.505
35922W        W 7593  12.819  16.863   2.605
35923W        W 7594  42.365  21.533  12.741
35924W        W 7595   1.234  26.990   1.335
35925W        W 7596  24.435  13.326  14.952
35926W        W 7597  43.737  11.899   2.884
35927W        W 7598  14.752  20.661   4.358
35928W        W 7599  31.591  42.095   4.096
35929W        W 7600   4.473  29.078  10.477
35930W        W 7601  42.381  37.417  10.426
35931W        W 7602  35.522  28.818  14.627
35932W        W 7603   3.737  39.423   3.592
35933W        W 7604  27.604  20.429   3.889
35934W        W 7605  12.611  38.384   4.804
35935W        W 7606  36.999  21.123   3.442
35936W        W 7607  11.593   4.495   2.523
35937W        W 7608  39.726  13.246   3.663
35938W        W 7609  17.782  31.043   1.750
35939W        W 7610  21.645  33.684  13.451
35940W        W 7611  24.709  20.463   2.695
35941W        W 7612  20.707  34.938  12.929
35942W        W 7613   4.647  14.030   0.884
35943W        W 7614  42.834  26.328   1.800
35944W        W 7615  33.060  42.162   4.198
35945W        W 7616  34.640   5.013  12.467
35946W        W 7617  43.201  41.039   4.957
35947W        W 7618  29.402   1.527  10.761
35948W        W 7619  22.008  10.948  14.451
35949W        W 7620   7.217   7.913  12.053
35950W        W 7621  42.955  43.860  14.852
35951W        W 7622  17.223  29.138  11.775
35952W        W 7623   5.937   8.798  14.981
35953W        W 7624   3.465  18.529   1.778
35954W        W 7625  38.078   5.243  14.363
35955W        W 7626  17.082  34.572   3.157
35956W        W 7627  25.036  22.216  11.068
35957W        W 7628   6.643  19.556   0.197
35958W        W 7629  27.047  29.995  14.481
35959W        W 7630  25.943  27.592   3.674
35960W        W 7631  16.149  17.760   2.817
35961W        W 7632  22.843  27.737  12.503
35962W        W 7633  41.993   5.381   2.566
35963W        W 7634  29.077  31.683   1.793
35964W        W 7635   7.963  44.304  13.593
35965W        W 7636   3.815  35.768  10.791
35966W        W 7637  35.867  20.796   1.810
35967W        W 7638  25.122   7.357   1.462
35968W        W 7639  28.436  40.235  14.873
35969W        W 7640  34.812   9.701  12.988
35970W        W 7641  38.613  29.129  11.096
35971W        W 7642   7.859  28.348   3.849
35972W        W 7643  26.058  17.515  11.481
35973W        W 7644   4.043  15.243  10.774
35974W        W 7645  31.438  25.790   0.419
35975W        W 7646  44.971   3.948   1.009
35976W        W 7647  40.762  39.797   2.601
35977W        W 7648  34.097   1.802  10.572
35978W        W 7649  19.330  36.442  13.738
35979W        W 7650  33.157   6.341   2.217
35980W        W 7651  30.900  37.592   3.667
35981W        W 7652  24.263  14.291   1.839
35982W        W 7653   3.115  14.273   4.895
35983W        W 7654  36.796   1.882  14.059
35984W        W 7655  16.224  38.044   0.809
35985W        W 7656  36.455  40.293   3.715
35986W        W 7657   8.585  21.375  12.446
35987W        W 7658  16.217   0.005   2.256
35988W        W 7659  21.805  28.678   2.533
35989W        W 7660  15.228  34.621  11.114
35990W        W 7661  16.549   4.214   1.260
35991W        W 7662   4.028   5.092   1.348
35992W        W 7663  25.215   4.925   0.320
35993W        W 7664  34.238  15.474   0.458
35994W        W 7665  27.889  36.899   1.059
35995W        W 7666  29.986  13.873  13.846
35996W        W 7667  10.116  40.884   1.714
35997W        W 7668   2.026   7.789   4.542
35998W        W 7669   6.683   2.910   2.023
35999W        W 7670  11.742  38.303  12.349
36000W        W 7671  30.581  15.218   1.833
36001W        W 7672  22.685  10.113   0.944
36002W        W 7673  19.073  30.695  12.402
36003W        W 7674  19.755   7.173  10.484
36004W        W 7675   2.667   4.245   2.676
36005W        W 7676  37.858  18.499  11.051
36006W        W 7677  33.527  42.027  14.786
36007W        W 7678   1.408   0.014  12.349
36008W        W 7679  21.731  42.824   0.374
36009W        W 7680  30.548  13.169  12.963
36010W        W 7681  16.603  30.700  14.427
36011W        W 7682  14.645  30.615  12.423
36012W        W 7683  37.828  28.893   0.423
36013W        W 7684  15.697  25.284  13.213
36014W        W 7685  12.584  26.755  13.069
36015W        W 7686  41.901  32.727  14.779
36016W        W 7687  23.554  39.332   0.033
36017W        W 7688  32.588   4.751   0.913
36018W        W 7689  19.637   5.484   3.455
36019W        W 7690   1.020  23.846   3.745
36020W        W 7691  39.346  23.486   0.190
36021W        W 7692  21.802   1.942  12.395
36022W        W 7693   4.720   5.198  14.839
36023W        W 7694   4.676   6.272   5.085
36024W        W 7695  24.590  33.378  13.628
36025W        W 7696   3.731  43.258   0.968
36026W        W 7697   8.659  38.338  10.370
36027W        W 7698  30.335  20.245   2.296
36028W        W 7699  29.976  18.177  10.923
36029W        W 7700  28.527  11.720   3.902
36030W        W 7701   0.273  38.601  11.104
36031W        W 7702  18.622   8.784   2.219
36032W        W 7703  14.641  42.459  13.929
36033W        W 7704  15.829   5.327  14.721
36034W        W 7705  22.468  18.021  12.015
36035W        W 7706  36.429   9.125   1.518
36036W        W 7707  11.220   4.804  11.690
36037W        W 7708  37.607  27.716   3.134
36038W        W 7709  25.417   0.180   0.396
36039W        W 7710  29.989   1.014   2.714
36040W        W 7711  12.741  10.650   4.741
36041W        W 7712  25.750   1.085  11.965
36042W        W 7713  21.083  44.067  13.192
36043W        W 7714  33.884   6.475  12.035
36044W        W 7715  12.203  10.771   4.038
36045W        W 7716   5.464  10.936  10.466
36046W        W 7717  27.052  44.010   3.138
36047W        W 7718  29.467  21.297   0.356
36048W        W 7719  43.739  22.139   2.853
36049W        W 7720  39.080  34.848  12.722
36050W        W 7721   1.241  25.423   3.031
36051W        W 7722  29.536  18.760   1.336
36052W        W 7723  16.561   7.575   2.445
36053W        W 7724  27.055  17.281  11.029
36054W        W 7725  29.480   1.378  14.930
36055W        W 7726  16.278  44.945  12.453
36056W        W 7727   0.391  26.637   3.682
36057W        W 7728  27.992   0.962   0.665
36058W        W 7729  40.789  19.089   2.841
36059W        W 7730   4.838  24.111   3.635
36060W        W 7731  22.189  43.207  13.706
36061W        W 7732  12.880  21.901  11.044
36062W        W 7733  20.768  43.679  11.482
36063W        W 7734  37.878  24.984   2.459
36064W        W 7735  33.996  27.984  13.541
36065W        W 7736  23.808  31.015   1.834
36066W        W 7737  36.304  22.106   3.776
36067W        W 7738  42.316  18.195  14.770
36068W        W 7739  26.909  35.714  12.892
36069W        W 7740  28.771  41.786   2.696
36070W        W 7741  35.140  42.466   3.388
36071W        W 7742  42.821  16.266   3.331
36072W        W 7743   3.714   1.430   1.455
36073W        W 7744  42.770  20.714   1.700
36074W        W 7745  41.611  29.024   4.618
36075W        W 7746  42.863  20.499   1.246
36076W        W 7747  24.022  32.078   3.578
36077W        W 7748   2.317   2.363  12.654
36078W        W 7749  12.172  14.089   2.707
36079W        W 7750   8.970  34.896   3.258
36080W        W 7751  34.344  41.832  11.631
36081W        W 7752  41.403   4.655  13.946
36082W        W 7753  14.872  23.685   5.203
36083W        W 7754   4.754  33.814  10.728
36084W        W 7755  44.328   7.848  10.258
36085W        W 7756  20.735  24.005  11.182
36086W        W 7757  27.983  28.583  10.627
36087W        W 7758  31.021  25.285  13.889
36088W        W 7759  31.888  38.954   1.958
36089W        W 7760  33.394  18.178  13.336
36090W        W 7761  14.833  33.166  13.969
36091W        W 7762  12.886  32.093   2.259
36092W        W 7763  24.466  43.504   3.385
36093W        W 7764  39.951   3.410  10.658
36094W        W 7765  22.687   5.685   1.409
36095W        W 7766  10.627   4.699  13.364
36096W        W 7767  33.677  14.037  13.137
36097W        W 7768   5.858  15.101   2.363
36098W        W 7769  30.560  10.392  13.343
36099W        W 7770  43.789  18.213  12.387
36100W        W 7771  23.128   7.575   4.198
36101W        W 7772  34.792   4.982  11.977
36102W        W 7773  26.068  26.161   0.288
36103W        W 7774   1.323   8.060   2.396
36104W        W 7775   0.527  32.123   3.106
36105W        W 7776  37.979  29.206   1.415
36106W        W 7777  23.143  16.687  14.506
36107W        W 7778  40.392  26.874  12.497
36108W        W 7779  41.898  33.543  10.339
36109W        W 7780  32.115   1.429  12.615
36110W        W 7781  40.129  30.227   0.371
36111W        W 7782  25.344   4.824  13.349
36112W        W 7783  43.953  31.668   2.768
36113W        W 7784  34.279  12.779   3.263
36114W        W 7785  14.232   8.813   4.070
36115W        W 7786   9.791  38.107  12.463
36116W        W 7787   6.228  29.661  10.586
36117W        W 7788   3.177   8.423   3.108
36118W        W 7789  20.557  33.936   2.073
36119W        W 7790  21.672  34.087   1.490
36120W        W 7791  36.962  22.744   2.789
36121W        W 7792   5.829  31.484   2.198
36122W        W 7793  43.056  28.632  14.391
36123W        W 7794  23.183  36.425  11.017
36124W        W 7795   5.120   6.249   3.832
36125W        W 7796  19.329  24.472   1.499
36126W        W 7797   2.298   1.359  11.146
36127W        W 7798  25.776  10.600   9.939
36128W        W 7799  13.278   1.457  13.449
36129W        W 7800  41.056   4.751   4.298
36130W        W 7801  31.101  40.369   0.413
36131W        W 7802  33.358   9.154  14.763
36132W        W 7803  20.586  18.798  13.516
36133W        W 7804  26.512  23.989  13.823
36134W        W 7805  28.839  36.776  12.925
36135W        W 7806  43.819  29.151   1.807
36136W        W 7807   3.654  23.152  14.406
36137W        W 7808   9.318  37.997  11.782
36138W        W 7809   2.135  20.017  10.722
36139W        W 7810   1.002  23.179  12.444
36140W        W 7811  19.193   5.969  10.948
36141W        W 7812  21.159  27.941  11.522
36142W        W 7813  29.626  29.281  12.046
36143W        W 7814  41.809  27.383  14.528
36144W        W 7815  27.305  27.552  12.861
36145W        W 7816   8.108  26.952   3.088
36146W        W 7817  40.221  10.226  11.074
36147W        W 7818  21.567  31.413   3.925
36148W        W 7819  42.009  23.701  11.883
36149W        W 7820  40.265  29.033  11.579
36150W        W 7821  17.987  41.296  14.776
36151W        W 7822  12.083  30.483   3.170
36152W        W 7823  22.668  11.794   4.326
36153W        W 7824   4.708  33.183  14.238
36154W        W 7825  30.184  38.385   0.316
36155W        W 7826  23.581  16.942   4.226
36156W        W 7827  29.450  29.209   3.288
36157W        W 7828  22.736   3.257   3.621
36158W        W 7829   9.159  24.008  12.180
36159W        W 7830  40.296  23.272  10.313
36160W        W 7831  19.194  32.368   5.113
36161W        W 7832   3.940  25.064   4.541
36162W        W 7833   7.857  12.061   0.744
36163W        W 7834  33.878  39.891  10.619
36164W        W 7835  33.923  12.381  13.079
36165W        W 7836  21.072  33.674  14.628
36166W        W 7837  27.148  40.169   1.367
36167W        W 7838  25.085   4.308   3.338
36168W        W 7839  28.327  35.159   3.818
36169W        W 7840  27.674   5.178   3.160
36170W        W 7841  17.815  20.415  11.147
36171W        W 7842  12.693   8.590  11.717
36172W        W 7843  44.506  31.708   4.109
36173W        W 7844  15.567   7.251  11.971
36174W        W 7845  19.224  12.188   2.854
36175W        W 7846  25.033   9.184   1.861
36176W        W 7847  22.400  41.856   1.977
36177W        W 7848  12.230   6.646  11.986
36178W        W 7849   5.693  26.479   0.943
36179W        W 7850  20.706   9.817   0.297
36180W        W 7851  22.936  11.154  10.727
36181W        W 7852   6.189  39.318  12.162
36182W        W 7853  36.034   0.991   1.501
36183W        W 7854   3.853   7.552  14.349
36184W        W 7855  24.223  19.964   1.543
36185W        W 7856  25.590  28.443  11.129
36186W        W 7857   8.246  16.478  13.374
36187W        W 7858   0.003   7.393  10.649
36188W        W 7859  21.578  44.802   4.249
36189W        W 7860   8.959  32.491   3.149
36190W        W 7861   2.622  32.570   3.879
36191W        W 7862  12.761  37.125  14.371
36192W        W 7863   7.339   2.377   0.596
36193W        W 7864  35.608  25.703   2.905
36194W        W 7865  10.898  40.045  13.714
36195W        W 7866  33.502   5.665  13.800
36196W        W 7867  33.037   6.662   2.609
36197W        W 7868  35.027   7.409   5.011
36198W        W 7869   9.762  22.308  13.380
36199W        W 7870   7.292  14.781   3.328
36200W        W 7871   9.428  41.506  12.035
36201W        W 7872  34.139  44.460  10.982
36202W        W 7873  39.886   7.329   4.850
36203W        W 7874  23.498  28.620  11.481
36204W        W 7875  17.652  21.614  12.843
36205W        W 7876  36.780  42.065  11.701
36206W        W 7877  24.060   4.870  13.403
36207W        W 7878  41.396  32.904   1.980
36208W        W 7879  30.930   6.886   4.070
36209W        W 7880   9.336  13.003  14.765
36210W        W 7881  42.462   9.852  12.045
36211W        W 7882  38.879  27.547  10.448
36212W        W 7883  13.069  32.593   4.953
36213W        W 7884   6.874  18.326   0.829
36214W        W 7885  30.110   4.272  11.153
36215W        W 7886  19.578  31.425  14.504
36216W        W 7887   2.878   1.297  14.498
36217W        W 7888  24.554  31.551   1.782
36218W        W 7889  30.235   2.797  10.593
36219W        W 7890   7.386   3.315   2.091
36220W        W 7891  17.137  11.332  14.736
36221W        W 7892  41.961  18.037   2.296
36222W        W 7893  22.199  24.583  12.827
36223W        W 7894  42.795   0.544  13.474
36224W        W 7895  10.217  24.566  14.835
36225W        W 7896  12.638   1.326   1.768
36226W        W 7897  29.000  41.440  14.555
36227W        W 7898  37.886   0.351  14.046
36228W        W 7899   6.680  36.543  14.052
36229W        W 7900  39.019  32.336   2.438
36230W        W 7901   4.322  45.000   1.490
36231W        W 7902  26.277  22.694  11.148
36232W        W 7903  16.641  35.571   4.778
36233W        W 7904  31.404  11.859   4.268
36234W        W 7905  31.512  15.421   0.748
36235W        W 7906  24.607   9.218  11.561
36236W        W 7907  19.245  38.508   4.089
36237W        W 7908  20.230  39.137  11.994
36238W        W 7909  35.088   9.102  14.302
36239W        W 7910   0.426  40.887  11.392
36240W        W 7911   4.360  42.952   3.533
36241W        W 7912  33.032   2.313  14.880
36242W        W 7913  12.500  15.665   4.738
36243W        W 7914  25.065   4.708   3.653
36244W        W 7915  23.068  39.150   2.277
36245W        W 7916  33.875  11.904  12.865
36246W        W 7917   0.274   9.976  11.872
36247W        W 7918  16.556   0.385  12.448
36248W        W 7919  40.998  36.461  11.922
36249W        W 7920  21.484  39.438   2.118
36250W        W 7921  24.637  19.112  11.404
36251W        W 7922  44.506  32.641  11.020
36252W        W 7923  21.728  44.876  10.960
36253W        W 7924  44.044  35.411  10.556
36254W        W 7925  16.639  35.340  11.033
36255W        W 7926  36.515   7.287   0.011
36256W        W 7927  41.956  17.581   4.565
36257W        W 7928  40.240  11.650   0.302
36258W        W 7929   7.019  34.973   2.973
36259W        W 7930  23.648  12.805  11.429
36260W        W 7931  33.967   2.322   2.025
36261W        W 7932  43.333  44.203  14.989
36262W        W 7933  16.704  13.882   9.820
36263W        W 7934   6.331  20.600  13.075
36264W        W 7935  43.307  37.654   1.396
36265W        W 7936  37.848  12.710  11.107
36266W        W 7937  43.669  25.680  14.485
36267W        W 7938  11.235  25.767   1.284
36268W        W 7939  29.648  11.305  12.487
36269W        W 7940  17.629  33.984   3.528
36270W        W 7941  38.002   1.466   1.875
36271W        W 7942  23.218   1.424  11.528
36272W        W 7943  15.869   7.330   2.862
36273W        W 7944  40.586  29.432   1.940
36274W        W 7945  39.193  10.252   0.916
36275W        W 7946  29.267   3.010   1.341
36276W        W 7947  25.241   6.288   4.241
36277W        W 7948  44.489  29.751   2.187
36278W        W 7949  16.863  24.530   1.917
36279W        W 7950  14.809  18.526  11.582
36280W        W 7951  29.555   9.897  14.387
36281W        W 7952  10.056  12.144  14.386
36282W        W 7953  10.334   2.371   1.716
36283W        W 7954  35.736  13.784   4.068
36284W        W 7955  11.997  35.469   1.341
36285W        W 7956  37.144  38.228  13.089
36286W        W 7957  13.389  25.726   3.418
36287W        W 7958   6.381  18.028  12.300
36288W        W 7959   8.255   2.261  12.989
36289W        W 7960  20.265  12.075   1.750
36290W        W 7961   4.248  33.197   2.292
36291W        W 7962  23.769  26.040   2.294
36292W        W 7963  30.532  11.492   4.275
36293W        W 7964  26.551  12.050   2.239
36294W        W 7965   9.179  36.089   0.944
36295W        W 7966  23.136  14.316   2.314
36296W        W 7967  38.629  43.413  11.212
36297W        W 7968  12.931  20.324   1.980
36298W        W 7969  11.819  12.196   0.485
36299W        W 7970  28.179  14.410  10.630
36300W        W 7971  22.043  31.927   1.559
36301W        W 7972  13.909  27.096   3.859
36302W        W 7973  37.862  23.013  13.423
36303W        W 7974  11.845  18.245   4.605
36304W        W 7975  29.961  28.668  13.108
36305W        W 7976   7.473  15.721  12.480
36306W        W 7977   4.845   0.757  11.935
36307W        W 7978  38.935  14.223   1.737
36308W        W 7979  39.217  11.199  11.452
36309W        W 7980  33.591   1.950   3.038
36310W        W 7981  23.703  15.020   2.324
36311W        W 7982  29.988  30.985  10.919
36312W        W 7983  36.652  33.879   0.991
36313W        W 7984  27.992  28.965   4.654
36314W        W 7985  19.095  35.331  12.941
36315W        W 7986   7.320  28.516   1.337
36316W        W 7987  44.307   9.151  11.808
36317W        W 7988   3.213  18.629  11.131
36318W        W 7989  30.439  34.587  14.378
36319W        W 7990   0.290  29.544   2.720
36320W        W 7991  39.335  44.034   3.990
36321W        W 7992  17.483  30.878   3.191
36322W        W 7993  17.175  11.072  11.499
36323W        W 7994  35.952  30.767  10.545
36324W        W 7995  27.283  41.085  10.892
36325W        W 7996  12.287  35.484   4.810
36326W        W 7997   7.229  40.420  14.111
36327W        W 7998  10.311  13.604   1.187
36328W        W 7999  20.558   3.295  13.377
36329W        W 8000  44.742  35.074   0.502
36330W        W 8001  13.169  12.830  10.683
36331W        W 8002  15.219  39.979  14.197
36332W        W 8003  16.359  34.411   1.847
36333W        W 8004   6.175  18.745  11.338
36334W        W 8005  24.399  30.021   3.730
36335W        W 8006  20.994  25.984   1.104
36336W        W 8007  44.976  41.300   2.790
36337W        W 8008  32.957  34.175   3.570
36338W        W 8009  24.078  30.174   4.897
36339W        W 8010  13.815   2.359   2.330
36340W        W 8011  34.930  40.767   4.845
36341W        W 8012   0.837  19.297  12.424
36342W        W 8013  42.213   7.437  10.963
36343W        W 8014  27.892   0.941   3.437
36344W        W 8015  25.473  25.288  10.716
36345W        W 8016  21.856  21.232  11.638
36346W        W 8017  30.838   9.301  10.686
36347W        W 8018  11.988  19.695  14.437
36348W        W 8019  37.613  40.610   2.437
36349W        W 8020  35.347  37.271  11.758
36350W        W 8021  34.393  12.143   1.429
36351W        W 8022  13.895  36.428   0.842
36352W        W 8023  11.681  29.414  12.100
36353W        W 8024   6.222  15.675   3.814
36354W        W 8025  44.972   4.442   4.134
36355W        W 8026  11.711  23.485   4.082
36356W        W 8027  43.335   8.444  13.023
36357W        W 8028  42.248  37.649   3.768
36358W        W 8029  27.520  44.319   0.326
36359W        W 8030  18.202  22.637  13.262
36360W        W 8031  16.498  33.630   4.567
36361W        W 8032  25.452  35.819   4.648
36362W        W 8033  11.687   7.413   4.625
36363W        W 8034  28.191  24.702  11.449
36364W        W 8035   0.353  31.477  14.300
36365W        W 8036   3.668   5.889  13.843
36366W        W 8037  25.814  15.617   2.601
36367W        W 8038  21.495  34.604  10.775
36368W        W 8039  34.681  16.216   2.380
36369W        W 8040  29.936   1.932  11.546
36370W        W 8041  33.155  36.503   4.405
36371W        W 8042  36.390  34.153  12.483
36372W        W 8043  20.861  44.761   1.738
36373W        W 8044   5.896   2.251  14.360
36374W        W 8045  22.554  23.217  11.905
36375W        W 8046   0.011  14.699  13.116
36376W        W 8047  18.478  17.439   1.945
36377W        W 8048   6.168  20.695  13.639
36378W        W 8049  16.694  27.897  12.815
36379W        W 8050   3.329  31.995   2.461
36380W        W 8051  30.201  23.117   1.806
36381W        W 8052  34.383  36.466   1.266
36382W        W 8053  24.674  33.217  10.713
36383W        W 8054  23.874   8.441  13.362
36384W        W 8055   7.234   2.918   1.277
36385W        W 8056  29.969  29.210  14.360
36386W        W 8057  27.909  44.286  12.398
36387W        W 8058  14.856  10.029  14.850
36388W        W 8059  41.963  10.535   2.268
36389W        W 8060   8.841  13.231   3.824
36390W        W 8061  41.215  42.819   3.282
36391W        W 8062  28.637  12.028  11.955
36392W        W 8063   5.209  23.135  14.261
36393W        W 8064  16.382   0.989  11.960
36394W        W 8065  10.316  19.257   1.650
36395W        W 8066  43.302  38.566   5.101
36396W        W 8067  20.395  31.137  14.805
36397W        W 8068  16.533   6.796  10.566
36398W        W 8069   1.843  11.960   2.658
36399W        W 8070  21.453  41.269  11.107
36400W        W 8071  19.666   2.100   0.229
36401W        W 8072   2.789  44.416  10.530
36402W        W 8073   7.132  44.943  12.585
36403W        W 8074  27.837  35.181   2.012
36404W        W 8075  12.303  37.071   0.382
36405W        W 8076  16.632  42.402  12.419
36406W        W 8077   2.224  17.191   0.754
36407W        W 8078  11.812  31.559  12.009
36408W        W 8079  34.105  34.004  13.039
36409W        W 8080  30.012  27.096  12.049
36410W        W 8081  42.107  24.506  10.360
36411W        W 8082  15.661  42.524   2.680
36412W        W 8083  42.498  21.679   3.240
36413W        W 8084  39.566   7.612  10.841
36414W        W 8085  40.528  37.093   3.544
36415W        W 8086  15.842  36.520   2.653
36416W        W 8087  36.614   2.074  14.505
36417W        W 8088  21.219  11.367   1.224
36418W        W 8089   4.933  23.500   2.301
36419W        W 8090  18.847  41.416  13.428
36420W        W 8091   3.231   5.491   0.883
36421W        W 8092   2.688  33.579  14.462
36422W        W 8093   9.253   3.984  14.374
36423W        W 8094   7.668   1.405  10.620
36424W        W 8095  18.527  14.711  11.624
36425W        W 8096  17.519  42.546   4.186
36426W        W 8097  25.987   4.022  12.020
36427W        W 8098  32.119  27.379   2.615
36428W        W 8099  18.154   5.636  13.968
36429W        W 8100  13.338  10.329   2.491
36430W        W 8101   7.079  36.958  11.090
36431W        W 8102  44.596  23.985  13.945
36432W        W 8103   4.277  27.697  11.403
36433W        W 8104  25.277   6.683   2.215
36434W        W 8105   0.327  17.338  13.176
36435W        W 8106  12.303  37.008  11.151
36436W        W 8107  28.999  26.547   1.460
36437W        W 8108   1.998  38.812   4.458
36438W        W 8109  27.991  30.343   1.417
36439W        W 8110  38.683  15.549  14.434
36440W        W 8111  31.972  40.964  11.667
36441W        W 8112   0.642  33.073   4.073
36442W        W 8113  24.487  23.097  12.912
36443W        W 8114  18.486  18.755   3.261
36444W        W 8115  15.357  12.165  10.685
36445W        W 8116  26.638  29.385  13.534
36446W        W 8117  44.473  11.708  10.459
36447W        W 8118  21.537  30.514   0.275
36448W        W 8119  44.229  39.061   2.307
36449W        W 8120  23.607   2.323  13.310
36450W        W 8121   4.699  25.696  13.060
36451W        W 8122   6.654  11.404  14.897
36452W        W 8123  39.230   6.195   2.403
36453W        W 8124  42.533   8.507  13.601
36454W        W 8125   9.732  44.589   4.461
36455W        W 8126  14.182   2.601  11.579
36456W        W 8127  38.172  36.534  13.608
36457W        W 8128  16.182  13.358   1.877
36458W        W 8129  13.723  43.174  13.053
36459W        W 8130  39.530  27.890  12.330
36460W        W 8131  12.595   2.265  13.251
36461W        W 8132  10.569  21.301  13.691
36462W        W 8133  15.196  12.079  14.994
36463W        W 8134   6.476  35.042   4.174
36464W        W 8135  13.156  15.151   3.109
36465W        W 8136  18.832  38.949   1.846
36466W        W 8137  15.472  30.861   9.920
36467W        W 8138  11.564  27.626  13.585
36468W        W 8139  40.469   5.501  13.553
36469W        W 8140   4.190  22.557   2.270
36470W        W 8141  20.612  13.666  11.072
36471W        W 8142  12.706  22.448   2.438
36472W        W 8143  40.766   1.488   3.662
36473W        W 8144  14.311  33.366   2.930
36474W        W 8145  35.681  39.866   4.648
36475W        W 8146   5.812  14.181   2.374
36476W        W 8147   6.483  41.041   1.189
36477W        W 8148  41.909  26.110  13.979
36478W        W 8149  26.524   0.487   1.218
36479W        W 8150  18.580  15.946   4.215
36480W        W 8151  14.554  13.308   2.714
36481W        W 8152  22.215  10.224   4.150
36482W        W 8153  43.013   9.210  14.083
36483W        W 8154  31.327   3.879  13.764
36484W        W 8155  44.904  22.023   2.779
36485W        W 8156  42.774   6.828  12.488
36486W        W 8157   8.449  39.035   2.221
36487W        W 8158  29.006  19.835   0.819
36488W        W 8159  10.048  25.399  14.197
36489W        W 8160  27.668   8.206   4.773
36490W        W 8161   0.234  13.730  13.004
36491W        W 8162  35.600  25.282   3.708
36492W        W 8163  29.406  37.916   2.801
36493W        W 8164  41.905  35.040  14.061
36494W        W 8165  28.560  40.852   2.821
36495W        W 8166  42.223   9.859  14.847
36496W        W 8167  20.111  41.981  11.001
36497W        W 8168  32.583  12.807  11.594
36498W        W 8169  41.352  27.449  12.490
36499W        W 8170  25.133  39.674   2.638
36500W        W 8171  34.390  26.200   0.869
36501W        W 8172  34.610  30.544  13.655
36502W        W 8173  11.281  37.468   0.738
36503W        W 8174  10.596  22.183  10.937
36504W        W 8175   6.297  36.654   4.223
36505W        W 8176  27.582  15.581  10.152
36506W        W 8177  35.422  33.392   2.934
36507W        W 8178  41.361   0.250  10.639
36508W        W 8179   0.232  11.298   1.759
36509W        W 8180  12.060  21.953   0.374
36510W        W 8181  33.070  14.562   4.548
36511W        W 8182  31.168  37.455   4.088
36512W        W 8183   4.917   0.864  14.806
36513W        W 8184  21.432  26.698   0.843
36514W        W 8185  44.452   0.277  13.482
36515W        W 8186  23.442  31.178   4.129
36516W        W 8187  11.696   5.362   3.196
36517W        W 8188  30.888  33.833   2.797
36518W        W 8189  42.314  36.110   1.732
36519W        W 8190  29.422  27.047   1.863
36520W        W 8191  24.832  33.841  13.796
36521W        W 8192  11.246  21.736  14.367
36522W        W 8193  18.845  24.641   1.639
36523W        W 8194  11.160  38.636  14.539
36524W        W 8195  32.602  27.719  13.404
36525W        W 8196  30.986  16.261   2.694
36526W        W 8197  29.194  15.121  10.644
36527W        W 8198  16.185  44.579  13.990
36528W        W 8199  15.207   6.340   4.584
36529W        W 8200  14.515   4.907  12.479
36530W        W 8201  21.224   4.650   3.774
36531W        W 8202  13.818  32.847  14.368
36532W        W 8203  38.571  14.022   3.742
36533W        W 8204  22.330  37.369  11.996
36534W        W 8205   3.974  25.932   4.773
36535W        W 8206   0.118  18.117  14.382
36536W        W 8207  14.066   2.459  13.044
36537W        W 8208   0.198  39.616  14.787
36538W        W 8209  39.237  17.609   0.162
36539W        W 8210  15.699   6.275  13.882
36540W        W 8211  41.316  13.158  12.872
36541W        W 8212   8.773  19.057   2.972
36542W        W 8213  43.237  37.948  11.658
36543W        W 8214   4.206  40.450  11.146
36544W        W 8215  41.889  37.407  14.464
36545W        W 8216  34.142  34.784  11.188
36546W        W 8217  11.669  18.597   3.657
36547W        W 8218  41.448  24.803  14.966
36548W        W 8219  41.098   3.746  12.080
36549W        W 8220   3.198   9.265  13.048
36550W        W 8221  38.777   8.316   3.720
36551W        W 8222  14.207  44.424   1.004
36552W        W 8223  26.641  21.711  11.528
36553W        W 8224  33.991  29.416  13.563
36554W        W 8225  35.965   4.794   2.326
36555W        W 8226  22.029  35.968   4.300
36556W        W 8227   6.574  32.191   3.293
36557W        W 8228  15.205  34.835   1.778
36558W        W 8229  18.006  34.393  11.902
36559W        W 8230   9.855  32.535   3.701
36560W        W 8231  32.201  10.420  13.884
36561W        W 8232  28.388  36.992   0.943
36562W        W 8233  36.433   1.039  13.873
36563W        W 8234  36.445  13.197  12.589
36564W        W 8235  26.127  23.463   4.086
36565W        W 8236  25.704  14.425  11.276
36566W        W 8237  34.888  26.524  13.452
36567W        W 8238  43.342  15.330   1.796
36568W        W 8239  43.058  38.475   2.337
36569W        W 8240  33.547   8.687   4.517
36570W        W 8241  17.147  26.414   3.114
36571W        W 8242   9.125  10.805   4.409
36572W        W 8243  10.222  44.477   0.485
36573W        W 8244  42.952   4.646   2.852
36574W        W 8245  38.856  41.172   1.394
36575W        W 8246  29.138  16.326  10.694
36576W        W 8247  20.086  22.104   3.185
36577W        W 8248  23.545  10.925  13.205
36578W        W 8249  26.730   3.451  14.809
36579W        W 8250   9.376  33.907   2.953
36580W        W 8251  13.667   6.242  14.474
36581W        W 8252   7.169  30.999  11.992
36582W        W 8253  24.283  44.526   4.214
36583W        W 8254  38.666  29.510   3.320
36584W        W 8255  29.509  22.830  12.153
36585W        W 8256  44.039  12.947   0.260
36586W        W 8257  17.560  27.630  12.587
36587W        W 8258   3.834  28.432  14.562
36588W        W 8259  29.584  22.313   2.505
36589W        W 8260  15.715   5.822  14.894
36590W        W 8261  24.098  36.231  14.918
36591W        W 8262  25.203   0.769  14.624
36592W        W 8263  32.046  37.843   5.034
36593W        W 8264  41.755  41.013   1.242
36594W        W 8265  31.060  36.855   0.565
36595W        W 8266  10.251   1.188  12.632
36596W        W 8267  21.779  37.371   1.348
36597W        W 8268  13.640  20.272   4.041
36598W        W 8269  39.621  32.466  14.339
36599W        W 8270  28.992  34.529  14.404
36600W        W 8271  17.035  37.484   3.267
36601W        W 8272   6.986  27.520  10.550
36602W        W 8273   1.581  33.442  13.789
36603W        W 8274  41.408  29.284  13.891
36604W        W 8275  33.027  16.015  11.246
36605W        W 8276  25.249   4.309   1.788
36606W        W 8277  37.851   1.923  13.947
36607W        W 8278  39.760  14.928   3.808
36608W        W 8279  14.198  32.998  14.054
36609W        W 8280  12.617   5.535  12.748
36610W        W 8281   5.722  18.570   2.817
36611W        W 8282  42.913  31.296  10.835
36612W        W 8283  14.590  12.267  11.291
36613W        W 8284  43.643  14.259  10.349
36614W        W 8285  25.200  44.402   0.912
36615W        W 8286   7.889  33.406   4.597
36616W        W 8287  36.838  40.120   0.309
36617W        W 8288  29.695  18.788   3.246
36618W        W 8289  25.361  27.183  12.139
36619W        W 8290  17.118   0.869  14.839
36620W        W 8291   3.681  39.397  14.896
36621W        W 8292  37.393  24.549  11.642
36622W        W 8293  18.316  15.566  14.422
36623W        W 8294  29.472  38.590  13.952
36624W        W 8295  43.967  25.313   2.928
36625W        W 8296   5.893  34.758   2.724
36626W        W 8297  17.177   0.315  11.951
36627W        W 8298   2.146  30.120  14.398
36628W        W 8299  39.937  10.809  10.445
36629W        W 8300  41.318  25.392  11.665
36630W        W 8301  31.671   4.044   1.728
36631W        W 8302  28.968   6.993   3.323
36632W        W 8303  18.410  36.826   2.353
36633W        W 8304  17.662  34.039   4.050
36634W        W 8305  39.033  21.733   1.773
36635W        W 8306  27.252  27.952  14.805
36636W        W 8307  40.776  30.402   3.156
36637W        W 8308  35.680   5.147  14.476
36638W        W 8309  40.215  38.354   0.846
36639W        W 8310  41.609  44.614  10.970
36640W        W 8311  42.579   9.902   3.831
36641W        W 8312   2.335  18.457  10.763
36642W        W 8313  35.972  25.099   4.140
36643W        W 8314  23.579  23.285  10.895
36644W        W 8315   3.144  21.198  13.336
36645W        W 8316  26.006  38.799   1.446
36646W        W 8317   2.839  33.067   4.474
36647W        W 8318  41.811  18.357   0.450
36648W        W 8319   0.658  31.434  11.506
36649W        W 8320  32.398  12.187  14.489
36650W        W 8321  31.643  44.431  13.309
36651W        W 8322  37.016  44.975   1.837
36652W        W 8323  20.340  36.110  14.519
36653W        W 8324  21.104  13.644   0.518
36654W        W 8325  30.129  27.585  14.328
36655W        W 8326  44.381  18.672   2.688
36656W        W 8327  10.379  39.933   3.138
36657W        W 8328  39.369  42.659  11.202
36658W        W 8329  11.379  23.509  12.402
36659W        W 8330  24.021  29.164  11.170
36660W        W 8331   2.299  20.482   1.262
36661W        W 8332  17.282  17.502  13.500
36662W        W 8333  38.761  20.155  10.667
36663W        W 8334  19.310  37.156  13.155
36664W        W 8335  35.441  30.375  11.215
36665W        W 8336  35.001  39.741  11.921
36666W        W 8337  34.231  10.881   1.367
36667W        W 8338  38.876   6.215  13.292
36668W        W 8339  37.269   0.790   5.154
36669W        W 8340  24.131   1.643  12.047
36670W        W 8341  24.492  43.912  13.308
36671W        W 8342  27.997  18.748   1.098
36672W        W 8343  29.051  25.991   0.231
36673W        W 8344  23.491  27.896   2.687
36674W        W 8345  27.325  10.846  10.976
36675W        W 8346  26.998  39.589  11.132
36676W        W 8347  10.348  10.215   3.684
36677W        W 8348  20.084  40.512   4.555
36678W        W 8349  20.789  16.066   4.825
36679W        W 8350   2.919   3.817   3.567
36680W        W 8351   7.264   2.813  13.875
36681W        W 8352  31.116  21.957   0.373
36682W        W 8353  10.486  38.665  11.488
36683W        W 8354   8.941  16.671   2.683
36684W        W 8355  41.802   6.145   3.310
36685W        W 8356  28.450  42.816  13.035
36686W        W 8357   7.140   0.446   1.288
36687W        W 8358  37.919  29.926   4.242
36688W        W 8359   9.918  16.832  13.522
36689W        W 8360  25.166  33.937  11.854
36690W        W 8361  39.083  12.726  14.350
36691W        W 8362  28.985  15.362   1.399
36692W        W 8363  11.636  15.963   1.698
36693W        W 8364  42.112  28.567   3.700
36694W        W 8365  26.076  32.166  14.427
36695W        W 8366   6.085  12.605   4.452
36696W        W 8367  39.906  18.071   3.865
36697W        W 8368   3.164  31.145   1.910
36698W        W 8369  36.257  29.295   1.357
36699W        W 8370   3.212  15.272  13.008
36700W        W 8371  18.882   6.384  10.218
36701W        W 8372  20.588  44.790   3.287
36702W        W 8373  19.668  30.592   4.473
36703W        W 8374   5.283  19.025   0.546
36704W        W 8375  21.224  34.180  11.127
36705W        W 8376  10.809  28.315  11.990
36706W        W 8377  37.116   8.930   2.762
36707W        W 8378  27.441  35.394   1.759
36708W        W 8379  41.456  36.159  11.587
36709W        W 8380  44.698  30.308   4.059
36710W        W 8381  37.894  20.265  14.968
36711W        W 8382   4.962  32.079  11.223
36712W        W 8383   4.246  42.049   4.026
36713W        W 8384  41.176   5.771   3.735
36714W        W 8385   8.588  21.590   2.802
36715W        W 8386  35.599  24.624   1.212
36716W        W 8387  40.806   3.697   4.218
36717W        W 8388  18.204  44.452  13.756
36718W        W 8389  16.262  42.743  12.042
36719W        W 8390  24.203  40.328  14.328
36720W        W 8391   0.020   6.558   4.466
36721W        W 8392  26.068  18.110  14.600
36722W        W 8393  22.746  32.125  12.981
36723W        W 8394  24.548  11.939   1.729
36724W        W 8395  15.269  11.069  14.102
36725W        W 8396  11.074  10.260  14.971
36726W        W 8397  15.660   0.856  10.408
36727W        W 8398  39.456   5.434   1.189
36728W        W 8399  24.762  37.050   2.058
36729W        W 8400  10.784  14.583   1.958
36730W        W 8401  12.896   0.204   3.128
36731W        W 8402  11.753  19.982  14.787
36732W        W 8403  42.488   6.316  11.020
36733W        W 8404   9.200   9.793  10.829
36734W        W 8405  14.048  13.077   2.830
36735W        W 8406   3.552  29.106  10.566
36736W        W 8407  30.571  38.991  13.819
36737W        W 8408  12.629   6.393   4.653
36738W        W 8409  34.564  35.079   3.646
36739W        W 8410   0.235   6.282   0.887
36740W        W 8411  31.952  37.891  13.500
36741W        W 8412  39.418  11.585  14.765
36742W        W 8413   0.846  37.626   2.189
36743W        W 8414   0.388  35.864   4.802
36744W        W 8415  25.818  31.753   1.784
36745W        W 8416   9.730  23.118   0.278
36746W        W 8417  17.700   0.797   3.213
36747W        W 8418  36.863   9.701   4.776
36748W        W 8419   0.005  36.080  13.367
36749W        W 8420  38.635  26.451  11.450
36750W        W 8421   4.352  36.886   3.359
36751W        W 8422  24.599   0.712   2.209
36752W        W 8423  30.618   1.403   4.826
36753W        W 8424  18.295  33.895   2.768
36754W        W 8425  17.449   9.673  10.516
36755W        W 8426  40.214  39.311   5.010
36756W        W 8427   9.963  35.862   4.859
36757W        W 8428  42.042   9.301   3.356
36758W        W 8429   3.976  40.382   1.749
36759W        W 8430  16.818  23.057   2.237
36760W        W 8431   0.092  12.066  13.883
36761W        W 8432   6.720  20.096  13.047
36762W        W 8433  31.166  24.567   1.079
36763W        W 8434  35.029  36.467  10.914
36764W        W 8435  43.513   3.271   3.217
36765W        W 8436  16.201   5.014  11.854
36766W        W 8437   5.909  19.520   4.688
36767W        W 8438  14.783  30.460  11.161
36768W        W 8439   6.682  14.085  11.327
36769W        W 8440  38.082  22.576   3.693
36770W        W 8441  20.621  43.825  13.087
36771W        W 8442  13.567   4.985  12.849
36772W        W 8443  14.165  25.690  12.533
36773W        W 8444   6.362  33.986  12.110
36774W        W 8445  43.360  28.091  11.068
36775W        W 8446  20.893  26.455   5.377
36776W        W 8447  13.584  14.201   0.784
36777W        W 8448  39.411  16.301  14.549
36778W        W 8449  44.525  15.297  14.731
36779W        W 8450  36.280  20.774  12.055
36780W        W 8451  28.628   9.346  10.716
36781W        W 8452   6.654  27.942   1.306
36782W        W 8453  38.831  17.285   1.298
36783W        W 8454   0.795   8.503  14.346
36784W        W 8455  21.011   8.673  12.083
36785W        W 8456  33.151  43.065  12.667
36786W        W 8457  30.614  37.827   3.314
36787W        W 8458  28.051   0.781   1.899
36788W        W 8459  21.735   2.622   4.932
36789W        W 8460  38.571  25.233   3.675
36790W        W 8461  31.099  28.589  13.963
36791W        W 8462  26.925  24.984  11.583
36792W        W 8463  13.347  27.759  13.034
36793W        W 8464   8.296  36.545   2.005
36794W        W 8465   1.700  35.165   4.179
36795W        W 8466  28.573  22.761  12.820
36796W        W 8467  35.970  33.023   4.573
36797W        W 8468   1.274  35.385   4.437
36798W        W 8469  25.503  42.224   1.808
36799W        W 8470   7.834   1.392   4.308
36800W        W 8471   9.281  12.122   0.041
36801W        W 8472   0.983  40.844  13.368
36802W        W 8473  31.049  38.381   4.123
36803W        W 8474  12.142  37.851  12.091
36804W        W 8475  20.192  26.842   1.293
36805W        W 8476  10.774  10.769   3.186
36806W        W 8477  25.582  41.911  12.063
36807W        W 8478   6.418  14.322  10.950
36808W        W 8479  39.405   8.139  14.300
36809W        W 8480  26.719  42.963  10.620
36810W        W 8481  12.182  39.539   2.759
36811W        W 8482  15.599  14.050   1.736
36812W        W 8483  23.191  37.830   3.049
36813W        W 8484  40.277  22.505   4.815
36814W        W 8485  10.408   4.992  11.195
36815W        W 8486   1.273  32.593  11.545
36816W        W 8487  18.491  27.082   1.244
36817W        W 8488   0.373  23.096  12.590
36818W        W 8489  28.597  20.513  13.972
36819W        W 8490  20.751  12.052  14.023
36820W        W 8491  11.693   5.841   2.894
36821W        W 8492  38.895   2.870  13.269
36822W        W 8493  25.798  11.118   0.405
36823W        W 8494  29.423   9.130   3.313
36824W        W 8495  21.625  43.033  11.339
36825W        W 8496  28.634  28.736   1.431
36826W        W 8497   1.697  36.519  14.971
36827W        W 8498  15.586  36.214  12.490
36828W        W 8499  20.135   8.754  14.544
36829W        W 8500  35.526  20.771   4.944
36830W        W 8501  26.772  38.540  11.519
36831W        W 8502   8.532  34.416   0.902
36832W        W 8503  39.028  23.151   1.555
36833W        W 8504  16.749   4.833   4.247
36834W        W 8505   7.269  37.815   4.573
36835W        W 8506  31.577  24.954   4.681
36836W        W 8507  17.533  32.581   0.332
36837W        W 8508  18.452  37.214  14.944
36838W        W 8509  10.626   6.186  12.567
36839W        W 8510  11.441  43.276   5.184
36840W        W 8511  36.971   5.405  11.537
36841W        W 8512  14.799   0.435  11.866
36842W        W 8513  29.482   5.281   4.009
36843W        W 8514  10.442  18.048   2.111
36844W        W 8515  30.371  24.036   1.684
36845W        W 8516  41.741  44.632  10.238
36846W        W 8517  20.127  35.625  10.614
36847W        W 8518  11.583  18.883  12.049
36848W        W 8519  23.453  43.726   4.363
36849W        W 8520  18.027  30.378  10.526
36850W        W 8521  28.378   8.792  14.016
36851W        W 8522  15.127  38.982   1.820
36852W        W 8523  26.741  26.447   0.673
36853W        W 8524  38.633   8.021  10.776
36854W        W 8525  20.254  12.336  12.821
36855W        W 8526  43.166  10.092   0.890
36856W        W 8527  11.241  37.205   4.035
36857W        W 8528   5.473   1.478   2.630
36858W        W 8529  32.234  22.499  11.058
36859W        W 8530   0.177  41.785   4.156
36860W        W 8531   7.872  37.503  10.971
36861W        W 8532  23.611  39.167   1.123
36862W        W 8533  36.239  31.882  12.610
36863W        W 8534  15.658  41.577   4.222
36864W        W 8535   1.503   5.826   1.986
36865W        W 8536  26.181   7.860  12.490
36866W        W 8537   8.883   8.915   3.319
36867W        W 8538  37.458  18.553   0.797
36868W        W 8539  21.256  41.139  10.586
36869W        W 8540  43.538  25.078  14.884
36870W        W 8541  39.349   5.194  10.862
36871W        W 8542   9.741  22.009  11.662
36872W        W 8543   4.386   7.850   0.020
36873W        W 8544  15.642  19.333  14.833
36874W        W 8545  21.995  12.560   0.770
36875W        W 8546  18.572   8.241   0.043
36876W        W 8547   2.341  24.251   2.908
36877W        W 8548  17.680  15.704  11.173
36878W        W 8549  18.264  12.229   3.877
36879W        W 8550  10.237   6.368   4.051
36880W        W 8551  23.411   4.114   0.344
36881W        W 8552  22.667  42.030   5.826
36882W        W 8553  16.671   4.784  14.370
36883W        W 8554  15.349  44.361   3.342
36884W        W 8555  26.630   2.470   4.089
36885W        W 8556  26.939  25.029   4.272
36886W        W 8557  43.539   2.451  14.008
36887W        W 8558  27.078   1.885  12.520
36888W        W 8559  41.506  43.307   0.323
36889W        W 8560  11.621  23.434   2.319
36890W        W 8561  13.593  18.895   4.305
36891W        W 8562  35.058  17.037  12.084
36892W        W 8563   9.901  38.563  13.846
36893W        W 8564  28.512  13.509   3.288
36894W        W 8565  33.900   3.360   1.003
36895W        W 8566  15.188  33.542  12.061
36896W        W 8567  28.131  17.346  14.922
36897W        W 8568  16.107  42.890   3.393
36898W        W 8569  43.598  42.935  11.101
36899W        W 8570  22.132  28.122  14.111
36900W        W 8571   9.818  19.209   0.894
36901W        W 8572  43.516   9.873   4.884
36902W        W 8573  44.945  40.913  11.545
36903W        W 8574  44.917  13.200   9.508
36904W        W 8575   2.762  15.566  13.050
36905W        W 8576   7.203  15.632  13.842
36906W        W 8577  40.864   2.815  12.777
36907W        W 8578   6.739  21.545  13.411
36908W        W 8579  23.805  39.085  13.832
36909W        W 8580  14.625  12.276   2.463
36910W        W 8581   1.354  36.845   3.725
36911W        W 8582  41.013  23.223  14.466
36912W        W 8583  42.840  30.702  14.086
36913W        W 8584   5.459   8.094  11.554
36914W        W 8585  21.290  28.779  12.111
36915W        W 8586  41.731  21.488  13.218
36916W        W 8587  25.242   0.456   1.899
36917W        W 8588  34.687  36.878   2.247
36918W        W 8589   2.266  36.371   1.627
36919W        W 8590  11.692  29.285  10.340
36920W        W 8591   7.462   0.198   0.261
36921W        W 8592  20.642   9.910  13.497
36922W        W 8593  35.817  29.713   0.566
36923W        W 8594  31.648   1.734  10.730
36924W        W 8595  23.480  22.784   3.655
36925W        W 8596  11.649  25.247  10.312
36926W        W 8597  23.056  16.590   3.636
36927W        W 8598  19.252  12.124   1.729
36928W        W 8599  12.871  23.587   0.925
36929W        W 8600   1.767  36.572   1.727
36930W        W 8601  15.881  34.345   3.761
36931W        W 8602   4.311   3.868   2.919
36932W        W 8603   1.399  30.607   4.718
36933W        W 8604   0.859  38.786   2.721
36934W        W 8605  13.614  32.273   0.269
36935W        W 8606  20.360  43.048  13.146
36936W        W 8607   5.259  10.209   3.267
36937W        W 8608  35.349  42.689  13.471
36938W        W 8609  30.417  17.989   2.498
36939W        W 8610  44.144   6.337  12.546
36940W        W 8611  37.517  35.390   2.213
36941W        W 8612   9.314  19.198  12.096
36942W        W 8613  23.549  21.879   0.444
36943W        W 8614  17.657  26.434   2.792
36944W        W 8615   4.943  17.350   3.261
36945W        W 8616  23.322  24.685  13.294
36946W        W 8617   0.871   0.423  13.778
36947W        W 8618  38.449   7.766   3.275
36948W        W 8619   3.628  39.947   3.285
36949W        W 8620  32.890  33.080   0.623
36950W        W 8621  29.166   6.801  14.063
36951W        W 8622   1.114  25.080  14.409
36952W        W 8623   1.763  14.980   3.281
36953W        W 8624  10.656   0.193  12.090
36954W        W 8625  25.044  43.125  14.924
36955W        W 8626   8.979  10.845   2.663
36956W        W 8627   6.975  33.016   1.670
36957W        W 8628  40.791  35.066  12.206
36958W        W 8629  41.453  39.476  14.336
36959W        W 8630   4.729   7.010   3.769
36960W        W 8631   4.714   4.650  11.245
36961W        W 8632  35.980   4.960   1.367
36962W        W 8633  32.837  19.633  13.575
36963W        W 8634  21.385  41.652   3.841
36964W        W 8635  22.849  36.773   1.624
36965W        W 8636   2.812  11.820  13.363
36966W        W 8637  43.285   3.445   0.534
36967W        W 8638  12.588  11.880  12.129
36968W        W 8639  26.535  30.920   2.789
36969W        W 8640   1.245   4.671  10.386
36970W        W 8641  31.982  20.047   4.967
36971W        W 8642  23.188  44.258  14.259
36972W        W 8643  16.805   7.725  14.554
36973W        W 8644  25.798  42.432  11.211
36974W        W 8645  13.780  24.204   2.693
36975W        W 8646  42.831  33.839  11.607
36976W        W 8647   2.540  35.841  10.463
36977W        W 8648  44.094  24.198   0.238
36978W        W 8649   4.833  43.082   3.742
36979W        W 8650  27.477   6.184   0.938
36980W        W 8651  13.839  41.845   0.398
36981W        W 8652  42.012  34.668   2.835
36982W        W 8653  43.257  34.168   2.377
36983W        W 8654   2.857  19.260   4.406
36984W        W 8655   0.035  38.810   4.305
36985W        W 8656   8.132   0.294  11.942
36986W        W 8657  42.060   1.488   1.634
36987W        W 8658  34.437  16.642  11.596
36988W        W 8659  20.725  22.232   0.040
36989W        W 8660  39.372  24.378   3.241
36990W        W 8661  10.340  40.819   4.297
36991W        W 8662  39.827  20.994  13.519
36992W        W 8663   6.251   1.950  11.014
36993W        W 8664   0.489  21.628   3.137
36994W        W 8665  32.947  39.051   0.533
36995W        W 8666   6.359  22.569   0.223
36996W        W 8667  26.145  23.501  13.622
36997W        W 8668   6.228  20.739   3.335
36998W        W 8669   3.807   1.241   0.519
36999W        W 8670   1.742  20.517   0.752
37000W        W 8671   2.953   5.439   2.352
37001W        W 8672  19.087  40.558   0.409
37002W        W 8673  29.033   7.212   2.372
37003W        W 8674  25.592  29.083   4.090
37004W        W 8675  42.720  34.445  10.768
37005W        W 8676   9.848   7.407   0.502
37006W        W 8677   2.960  40.769  11.963
37007W        W 8678  25.429  41.062   0.673
37008W        W 8679  23.186  28.690  10.663
37009W        W 8680  20.096  17.313   4.194
37010W        W 8681  25.176  30.587  10.573
37011W        W 8682   2.167   3.285   4.192
37012W        W 8683   6.363  38.832  12.896
37013W        W 8684   1.528  30.207   0.473
37014W        W 8685  19.260  15.566  12.389
37015W        W 8686  19.954  37.397  11.161
37016W        W 8687  35.140  33.557   2.270
37017W        W 8688  38.827   8.462  12.936
37018W        W 8689  32.618  22.636  13.400
37019W        W 8690  34.564  11.287   2.166
37020W        W 8691  16.445  16.679  12.055
37021W        W 8692   2.692  26.608  12.446
37022W        W 8693  12.820  36.608  14.350
37023W        W 8694  39.858  20.269   1.850
37024W        W 8695  26.879  33.115  12.375
37025W        W 8696  38.064  33.944   0.167
37026W        W 8697  38.198  32.451  11.770
37027W        W 8698  11.165  20.651  10.872
37028W        W 8699  31.584   7.142  12.146
37029W        W 8700  42.004   5.175  11.690
37030W        W 8701  31.213  35.385   0.195
37031W        W 8702  39.975   0.871   4.589
37032W        W 8703  12.576   2.680   4.154
37033W        W 8704  11.132  18.796  14.829
37034W        W 8705   9.315  31.366   0.440
37035W        W 8706  42.727  23.092   4.158
37036W        W 8707  26.574  43.938   4.858
37037W        W 8708  11.653   6.163   2.115
37038W        W 8709  13.829   1.491  14.850
37039W        W 8710  10.400  42.569  10.667
37040W        W 8711  16.436  32.186   3.238
37041W        W 8712  15.821  32.806  14.230
37042W        W 8713  15.171  25.427  11.897
37043W        W 8714   5.133  25.304  11.891
37044W        W 8715  23.513  40.195  11.136
37045W        W 8716  15.206   8.333  11.071
37046W        W 8717  39.560  31.417   3.544
37047W        W 8718  29.161  16.841  14.815
37048W        W 8719   8.740   0.582   2.622
37049W        W 8720  36.505  42.462  13.903
37050W        W 8721  32.389  20.090  14.021
37051W        W 8722  43.709  26.178   0.310
37052W        W 8723  23.158  16.451   0.565
37053W        W 8724  28.191  13.175  14.903
37054W        W 8725  33.651  21.751  11.714
37055W        W 8726  30.151  19.621   5.019
37056W        W 8727   7.760  26.236   0.405
37057W        W 8728  26.429   7.508   2.893
37058W        W 8729  26.947   7.717  13.467
37059W        W 8730  38.933  22.077  12.531
37060W        W 8731  13.733  39.445  13.863
37061W        W 8732  34.391  28.142   2.266
37062W        W 8733  24.105  17.462  14.383
37063W        W 8734  12.390   7.640  10.984
37064W        W 8735  28.982  31.586  13.320
37065W        W 8736   4.177   5.495   1.020
37066W        W 8737  40.547   8.191  11.209
37067W        W 8738   6.706  32.123   1.396
37068W        W 8739  30.668   4.315  10.514
37069W        W 8740  34.576  36.446   0.787
37070W        W 8741  17.296  33.012  12.351
37071W        W 8742   4.955  38.943  11.104
37072W        W 8743  11.659  41.081  10.808
37073W        W 8744  27.258  36.411   0.306
37074W        W 8745  14.760  21.699   0.230
37075W        W 8746  37.626  11.078  13.888
37076W        W 8747  24.220  32.928  10.657
37077W        W 8748  22.283  41.768   0.104
37078W        W 8749  16.765   2.189  11.014
37079W        W 8750  36.423  16.740  13.950
37080W        W 8751  24.250  31.469  13.282
37081W        W 8752  31.612  12.599   1.677
37082W        W 8753  43.292   4.332  11.720
37083W        W 8754  15.547  36.912   2.818
37084W        W 8755  30.673   8.751   4.462
37085W        W 8756   8.926  11.987  13.301
37086W        W 8757  39.427  12.576   4.255
37087W        W 8758   1.284  26.956   2.347
37088W        W 8759  19.998  39.602   0.911
37089W        W 8760  18.967  36.438   2.734
37090W        W 8761  11.283   2.361  11.614
37091W        W 8762  22.952  21.772   0.487
37092W        W 8763  33.413  34.541   3.554
37093W        W 8764  17.142   1.807   0.845
37094W        W 8765  31.188  43.557   2.169
37095W        W 8766   6.471  27.727   4.262
37096W        W 8767  28.321  42.732   0.333
37097W        W 8768  17.028  35.375   2.630
37098W        W 8769  26.427  36.296  13.301
37099W        W 8770  13.379  25.995  11.153
37100W        W 8771   6.353   6.565  11.137
37101W        W 8772  44.822  36.501  10.861
37102W        W 8773  26.808  10.850   2.934
37103W        W 8774  35.176  15.774  10.818
37104W        W 8775  34.300  18.228   0.835
37105W        W 8776  10.879   5.440   2.872
37106W        W 8777   0.069  22.526   9.824
37107W        W 8778  36.893  28.420  14.774
37108W        W 8779  20.556  36.026   0.601
37109W        W 8780  41.343   4.968   2.683
37110W        W 8781  24.035  17.107  10.678
37111W        W 8782  16.115  21.210  12.447
37112W        W 8783   8.930  19.615   3.625
37113W        W 8784  13.132   6.794   3.618
37114W        W 8785   8.183  14.723   3.264
37115W        W 8786  21.244  13.197   3.607
37116W        W 8787   3.387  21.792   4.320
37117W        W 8788  22.391   2.714  13.866
37118W        W 8789  12.193  40.888   1.332
37119W        W 8790  10.267  42.896   1.274
37120W        W 8791  14.890  23.113  14.338
37121W        W 8792  25.652  35.105   2.974
37122W        W 8793  31.538  15.663   4.660
37123W        W 8794  11.861  11.608   0.819
37124W        W 8795  41.779   4.882  12.988
37125W        W 8796  42.860   1.401   2.810
37126W        W 8797  16.962  17.716   2.429
37127W        W 8798   4.775  41.824   1.158
37128W        W 8799  24.159   5.792   1.324
37129W        W 8800   5.550  43.657   2.665
37130W        W 8801  15.497   7.102  14.351
37131W        W 8802   8.737  30.105   1.812
37132W        W 8803  10.783   2.101   1.789
37133W        W 8804  40.831  20.885   4.253
37134W        W 8805  18.741  38.088   1.191
37135W        W 8806  20.029  36.908   0.444
37136W        W 8807  26.246   5.868  11.613
37137W        W 8808  15.685   4.743  13.039
37138W        W 8809  23.260  40.368  14.543
37139W        W 8810  29.154   0.294  11.628
37140W        W 8811  24.546  42.218  14.526
37141W        W 8812  35.335   1.277  13.433
37142W        W 8813  20.241  39.331  13.364
37143W        W 8814   4.417  42.152  14.359
37144W        W 8815  13.638  42.348   2.692
37145W        W 8816   6.266  11.821   4.009
37146W        W 8817  10.549  17.516   2.960
37147W        W 8818  15.148   9.282  11.710
37148W        W 8819  31.178   3.137  13.389
37149W        W 8820  26.202  21.050  10.836
37150W        W 8821  33.332  33.819  12.038
37151W        W 8822   1.663   2.952  11.598
37152W        W 8823  29.256  23.540   3.950
37153W        W 8824  41.016  22.703  12.910
37154W        W 8825  17.614  26.147  12.827
37155W        W 8826   1.915   7.303   2.082
37156W        W 8827  24.159  32.501   1.813
37157W        W 8828  23.011  13.969   1.302
37158W        W 8829  16.580  44.578  12.235
37159W        W 8830  30.736  23.408  12.360
37160W        W 8831  25.275  10.186   1.333
37161W        W 8832  16.184  10.897  13.374
37162W        W 8833  10.914  38.422   3.601
37163W        W 8834  41.908  13.342   4.277
37164W        W 8835   3.841  43.544   3.222
37165W        W 8836  26.556   3.513  12.476
37166W        W 8837  25.202  19.390  13.666
37167W        W 8838   1.275  11.793   2.179
37168W        W 8839  41.300   5.982  14.916
37169W        W 8840  12.208   0.204   1.377
37170W        W 8841   5.496  40.220   1.178
37171W        W 8842  16.357  17.743   0.282
37172W        W 8843   3.524   2.442   4.574
37173W        W 8844  35.931   9.115  13.429
37174W        W 8845  24.513  37.481   2.286
37175W        W 8846   9.775  35.500  11.486
37176W        W 8847  10.779   7.189   5.038
37177W        W 8848   2.159  40.369   2.432
37178W        W 8849  41.063  38.444   4.603
37179W        W 8850  34.206   8.992   4.823
37180W        W 8851  36.508  30.701  14.692
37181W        W 8852   0.731  36.614  11.869
37182W        W 8853  22.196  12.274   1.683
37183W        W 8854   4.747   6.937  13.458
37184W        W 8855  39.914  36.026   2.889
37185W        W 8856  16.825  19.621   4.505
37186W        W 8857  36.441  25.225   0.192
37187W        W 8858   5.382  30.546   2.302
37188W        W 8859  42.979   9.839  12.075
37189W        W 8860  42.979  41.085  14.549
37190W        W 8861   8.953  21.254   1.880
37191W        W 8862  30.916  31.406  11.785
37192W        W 8863  23.450  36.869   4.025
37193W        W 8864  18.125  39.060  14.390
37194W        W 8865  25.637  14.457   3.216
37195W        W 8866  17.697  43.227   5.263
37196W        W 8867  37.945  37.677  11.972
37197W        W 8868  31.356  33.704  12.386
37198W        W 8869  11.683  36.739  10.810
37199W        W 8870  42.860  34.088  13.740
37200W        W 8871  10.960  42.881   0.763
37201W        W 8872  32.606  30.952   3.159
37202W        W 8873  37.100  43.232   1.476
37203W        W 8874  43.514  15.162   3.127
37204W        W 8875  32.473   5.607  10.909
37205W        W 8876  10.204  22.644  11.674
37206W        W 8877   5.681  11.397  11.482
37207W        W 8878   0.502  37.789   1.857
37208W        W 8879  34.006  23.201   0.011
37209W        W 8880  27.116  36.879  13.369
37210W        W 8881   2.972   8.664  12.014
37211W        W 8882  23.211  38.574  14.733
37212W        W 8883   1.795  25.576   1.442
37213W        W 8884  19.494  44.630  14.065
37214W        W 8885  40.259  17.815  10.934
37215W        W 8886  12.906  11.374   1.827
37216W        W 8887  12.869  35.920   2.727
37217W        W 8888  27.898   5.511  13.099
37218W        W 8889  13.557   4.922  14.669
37219W        W 8890  14.081  26.226   3.653
37220W        W 8891  35.521  35.540   0.350
37221W        W 8892  10.837  10.805   4.067
37222W        W 8893  18.371  17.173   4.492
37223W        W 8894  37.363  28.603  11.158
37224W        W 8895  29.107  40.673  14.051
37225W        W 8896  30.138  31.075  12.424
37226W        W 8897  37.481  25.257  10.163
37227W        W 8898   9.277  34.178  12.431
37228W        W 8899   0.493   1.492  14.807
37229W        W 8900   7.654  35.267  13.274
37230W        W 8901  13.636   3.169  11.149
37231W        W 8902  40.035  42.753  14.923
37232W        W 8903  42.418  33.390   4.618
37233W        W 8904  39.517  29.897   3.207
37234W        W 8905  42.308  31.439   3.141
37235W        W 8906  16.895  20.648  11.523
37236W        W 8907  44.766  24.476   0.049
37237W        W 8908  16.543  28.172   4.179
37238W        W 8909  33.285   8.043  12.962
37239W        W 8910  26.841  32.144  11.826
37240W        W 8911  14.600  18.809   2.114
37241W        W 8912  14.863  41.002   1.667
37242W        W 8913  21.196   7.964   1.859
37243W        W 8914  28.387  29.348  14.701
37244W        W 8915  33.782  12.438  12.116
37245W        W 8916  22.641  17.205   0.571
37246W        W 8917  38.010  10.684   2.238
37247W        W 8918  26.986  23.586   0.782
37248W        W 8919   8.745  11.293   9.929
37249W        W 8920   6.153  36.036  10.157
37250W        W 8921  32.020  13.677   3.365
37251W        W 8922  18.376   5.440   2.804
37252W        W 8923  10.111   3.373  12.427
37253W        W 8924  38.276  12.619   4.028
37254W        W 8925  10.676  43.707   1.283
37255W        W 8926  11.148  13.210  14.079
37256W        W 8927  13.817  36.942   1.667
37257W        W 8928  27.759  36.024  12.998
37258W        W 8929  18.328  13.897  10.218
37259W        W 8930  27.458  25.548   2.824
37260W        W 8931  11.979  29.535  13.512
37261W        W 8932   6.844  39.824  11.716
37262W        W 8933   8.977  10.354   2.264
37263W        W 8934  19.512  39.302  10.477
37264W        W 8935  14.485  39.081  12.534
37265W        W 8936  22.593  39.948   4.238
37266W        W 8937  35.686   1.797  14.307
37267W        W 8938  13.205  17.164  14.232
37268W        W 8939  23.544  33.503   1.788
37269W        W 8940   4.232  37.843  12.066
37270W        W 8941  19.625  34.503   2.402
37271W        W 8942  25.935  38.987  12.932
37272W        W 8943  12.239   5.229  12.546
37273W        W 8944  11.978  15.672   2.843
37274W        W 8945  37.316   1.968  13.941
37275W        W 8946   8.662   5.686   2.263
37276W        W 8947   0.288  41.820  10.902
37277W        W 8948   6.441  12.774  10.721
37278W        W 8949  11.118  41.039  13.399
37279W        W 8950  35.668  38.100   2.790
37280W        W 8951  26.655  25.111  14.468
37281W        W 8952   7.926  18.729   3.128
37282W        W 8953  21.806   5.797   3.246
37283W        W 8954  29.916  36.445  12.512
37284W        W 8955  17.583  37.818  12.610
37285W        W 8956  12.869  41.944  13.958
37286W        W 8957  26.189  39.303   3.616
37287W        W 8958  26.818  39.138   2.304
37288W        W 8959  36.046  26.006   0.241
37289W        W 8960  37.525  11.227   4.911
37290W        W 8961  34.180   4.541  11.163
37291W        W 8962  23.859  13.739  10.620
37292W        W 8963   2.754  27.084   3.606
37293W        W 8964   6.289  33.837   3.685
37294W        W 8965  34.048  12.387   4.177
37295W        W 8966  37.621  41.909  14.372
37296W        W 8967  10.435  41.839   2.025
37297W        W 8968  39.320   2.484   3.302
37298W        W 8969   8.897  17.765  11.220
37299W        W 8970  14.727  34.652  14.045
37300W        W 8971  12.747  13.652   1.493
37301W        W 8972  11.952  34.420   3.225
37302W        W 8973  18.557  10.616   4.918
37303W        W 8974  31.986  19.209  13.334
37304W        W 8975  16.130  28.040  11.069
37305W        W 8976  34.489   6.154  11.165
37306W        W 8977   1.760  32.172   4.089
37307W        W 8978  44.570  38.024   2.207
37308W        W 8979  20.923  19.346  12.924
37309W        W 8980  21.038   5.009   4.171
37310W        W 8981  34.099  12.801  10.476
37311W        W 8982  34.529  39.138   0.701
37312W        W 8983  35.086  15.286  13.478
37313W        W 8984   5.786  30.702   1.744
37314W        W 8985   6.424  40.969  13.966
37315W        W 8986  44.351   0.416  14.041
37316W        W 8987  13.590  11.686  12.000
37317W        W 8988  12.274  43.265   2.706
37318W        W 8989  10.404  41.021  12.876
37319W        W 8990   1.326   2.547  12.772
37320W        W 8991  42.293  18.134  12.880
37321W        W 8992  42.933   4.187  11.139
37322W        W 8993   0.323  27.550  14.370
37323W        W 8994  32.740  35.350  13.737
37324W        W 8995   7.756  42.431  14.268
37325W        W 8996  31.427  44.530  14.078
37326W        W 8997  43.341  32.409   1.899
37327W        W 8998  15.371   8.092   4.080
37328W        W 8999  28.071  38.292  12.387
37329W        W 9000   2.942  17.710   3.441
37330W        W 9001  21.277  16.647   9.761
37331W        W 9002  36.300  40.905   0.249
37332W        W 9003   2.390  23.006   5.241
37333W        W 9004  31.361  38.366   4.575
37334W        W 9005  29.429  40.365   2.863
37335W        W 9006  35.486  36.408  14.846
37336W        W 9007  44.072  11.197  10.161
37337W        W 9008  11.694  41.211  12.118
37338W        W 9009  39.020   9.285  10.359
37339W        W 9010   1.369  13.425   2.684
37340W        W 9011   9.662  14.259  11.171
37341W        W 9012  14.649   6.784  10.266
37342W        W 9013   2.962   9.306  13.501
37343W        W 9014  15.695   5.674   3.169
37344W        W 9015  31.807  21.221  10.629
37345W        W 9016   4.778  37.104  12.359
37346W        W 9017  28.518   3.247  14.936
37347W        W 9018  13.329  15.568  11.525
37348W        W 9019  37.723  28.989  13.404
37349W        W 9020   5.895  32.734  12.010
37350W        W 9021  21.448  28.934  11.171
37351W        W 9022  44.965  32.868   2.433
37352W        W 9023  37.348   6.518   1.993
37353W        W 9024  33.503  39.057  12.446
37354W        W 9025  44.133   0.234   1.025
37355W        W 9026  44.650  27.434  13.020
37356W        W 9027  42.878  36.138  11.508
37357W        W 9028  32.035  38.136   4.577
37358W        W 9029  16.462  13.127   2.283
37359W        W 9030   0.773  41.820   0.175
37360W        W 9031  42.355  17.067  12.442
37361W        W 9032  10.869  28.498  11.150
37362W        W 9033  26.603  38.334   1.926
37363W        W 9034  23.553  36.546   2.759
37364W        W 9035   7.326  14.241  10.684
37365W        W 9036   3.354  37.982   1.879
37366W        W 9037  19.094  11.353  13.880
37367W        W 9038  13.047  20.866   3.941
37368W        W 9039  42.084  30.871   3.347
37369W        W 9040  40.478   7.239  13.841
37370W        W 9041  24.122  32.933  13.961
37371W        W 9042  20.286  42.500  10.556
37372W        W 9043  35.156  20.569  14.918
37373W        W 9044   1.903  27.993   3.035
37374W        W 9045  10.722  28.106  11.462
37375W        W 9046  26.476  41.559  12.497
37376W        W 9047   0.456  40.815   3.283
37377W        W 9048  19.485  30.534   5.396
37378W        W 9049  29.806  33.367  14.687
37379W        W 9050  31.837   1.453  13.616
37380W        W 9051  14.276  36.906  14.961
37381W        W 9052  33.554  43.765   4.422
37382W        W 9053  27.969  22.025  12.705
37383W        W 9054  15.033  42.415   4.664
37384W        W 9055  33.541  19.366  12.479
37385W        W 9056  23.615  10.281   4.982
37386W        W 9057  44.042  11.911  10.689
37387W        W 9058  42.001  21.102   4.882
37388W        W 9059  43.220  15.853   0.867
37389W        W 9060  25.505  29.501   2.637
37390W        W 9061  15.790  30.971  11.475
37391W        W 9062  22.268  14.184  13.994
37392W        W 9063  10.412  34.271  13.050
37393W        W 9064   3.713  35.783   0.051
37394W        W 9065  43.185  17.040   4.732
37395W        W 9066  41.909  17.091  11.150
37396W        W 9067  12.881  34.620   0.862
37397W        W 9068  24.781  14.182  13.333
37398W        W 9069  22.048  12.794  12.594
37399W        W 9070  23.523   6.213  13.211
37400W        W 9071  33.958   3.468   3.754
37401W        W 9072   8.662  27.996  11.590
37402W        W 9073   5.803  16.570   4.775
37403W        W 9074  41.428  14.346   0.907
37404W        W 9075   1.910  23.753  10.962
37405W        W 9076   8.864  27.562   1.724
37406W        W 9077  12.209  36.369   4.195
37407W        W 9078  30.589  10.351   3.658
37408W        W 9079  36.544  41.747   2.340
37409W        W 9080  38.519  32.680   1.705
37410W        W 9081  36.307  36.128   4.972
37411W        W 9082  42.329  40.365  12.805
37412W        W 9083  44.831  36.476  11.883
37413W        W 9084  10.265  10.622  12.542
37414W        W 9085   7.377  28.643  13.024
37415W        W 9086  44.933  29.088  12.793
37416W        W 9087  17.545   0.263   3.280
37417W        W 9088  16.862  24.448   4.578
37418W        W 9089   8.006  16.726   3.715
37419W        W 9090  32.464   9.715  14.887
37420W        W 9091  18.207   7.943   1.369
37421W        W 9092  35.896  30.625   0.567
37422W        W 9093  26.165  26.037   2.646
37423W        W 9094  36.061  30.130  11.920
37424W        W 9095  15.435  35.739  12.236
37425W        W 9096  28.661   3.504  13.237
37426W        W 9097  24.124  27.437  11.358
37427W        W 9098  24.287  21.683  14.932
37428W        W 9099  38.576  24.288  13.776
37429W        W 9100  21.919  21.575   0.469
37430W        W 9101  38.967  21.704  14.539
37431W        W 9102  16.735  20.529   3.204
37432W        W 9103   0.771  28.007  10.072
37433W        W 9104   3.449  15.172   1.837
37434W        W 9105  23.679   9.081  11.451
37435W        W 9106   8.380   8.119   2.324
37436W        W 9107   5.003  22.796  12.557
37437W        W 9108  29.701  14.920   0.360
37438W        W 9109   6.465  10.162   2.518
37439W        W 9110  11.831  27.003  14.572
37440W        W 9111  29.662  25.645   4.232
37441W        W 9112  26.216  32.494  12.970
37442W        W 9113  13.658   8.766   4.838
37443W        W 9114   4.956  31.639   2.673
37444W        W 9115   7.316  15.790  14.857
37445W        W 9116  28.121  30.530  10.894
37446W        W 9117  42.495  34.387   1.881
37447W        W 9118  40.845   4.668   2.462
37448W        W 9119  14.796  38.300  10.514
37449W        W 9120  27.540   1.433   4.474
37450W        W 9121  22.140   8.234   1.793
37451W        W 9122  42.483  32.221   2.254
37452W        W 9123  20.545   6.723  13.483
37453W        W 9124  20.439  27.464   3.352
37454W        W 9125   6.200  25.568  14.850
37455W        W 9126   9.400   1.920   1.741
37456W        W 9127  39.283  19.231   3.891
37457W        W 9128  15.397   4.816   5.538
37458W        W 9129  12.588  25.926   0.011
37459W        W 9130  12.369  10.799  11.634
37460W        W 9131  36.751  23.545  12.699
37461W        W 9132  27.029   3.509   2.153
37462W        W 9133  43.785  19.277  11.582
37463W        W 9134  26.279  29.125  11.174
37464W        W 9135  20.668  19.330  12.465
37465W        W 9136   8.587  32.568   4.102
37466W        W 9137  10.656  22.254   2.571
37467W        W 9138  35.455  28.635  12.602
37468W        W 9139   6.249   5.150   0.430
37469W        W 9140  12.706   8.930   3.738
37470W        W 9141  24.076   8.331   4.900
37471W        W 9142  31.397  21.701   1.754
37472W        W 9143  13.241  21.078  12.390
37473W        W 9144  41.378  24.260  14.996
37474W        W 9145  40.125  39.524   2.151
37475W        W 9146   7.774  20.327   1.505
37476W        W 9147   6.836  14.505  11.617
37477W        W 9148  39.520   7.222  11.208
37478W        W 9149  12.202  27.921   0.801
37479W        W 9150  37.977  16.194  14.447
37480W        W 9151  36.234   7.665   3.709
37481W        W 9152  39.634  41.582  11.735
37482W        W 9153  13.761  32.352   3.804
37483W        W 9154  29.629   9.718  14.871
37484W        W 9155  23.472  33.495   0.017
37485W        W 9156  36.628  44.476   4.722
37486W        W 9157  21.869   8.274  13.550
37487W        W 9158  19.557  25.076   3.480
37488W        W 9159  12.679  16.396  13.465
37489W        W 9160   9.683  21.088   4.224
37490W        W 9161  40.351  18.196   1.355
37491W        W 9162  31.679  22.551  12.364
37492W        W 9163  37.551   4.855   2.791
37493W        W 9164  16.770   6.431  12.421
37494W        W 9165  44.245  42.737   2.216
37495W        W 9166  36.540   3.046  10.514
37496W        W 9167  11.747   4.944  13.078
37497W        W 9168  15.528  29.950   0.912
37498W        W 9169  44.573  37.782   2.850
37499W        W 9170  36.158  25.264  11.516
37500W        W 9171  28.221  11.301  10.425
37501W        W 9172  43.884  17.840   1.572
37502W        W 9173  31.401   7.667   1.150
37503W        W 9174  26.394  43.053  11.011
37504W        W 9175  20.273  14.925   3.725
37505W        W 9176  19.379  33.851   3.660
37506W        W 9177   9.720  11.096   3.695
37507W        W 9178  20.973  14.275  12.461
37508W        W 9179   7.762  23.613   0.968
37509W        W 9180  40.815   7.633   1.736
37510W        W 9181   4.852  43.174   2.369
37511W        W 9182  38.938  27.504   3.832
37512W        W 9183  23.372   3.769  12.913
37513W        W 9184  11.886  42.428  13.394
37514W        W 9185  37.842   5.377   2.537
37515W        W 9186   5.112   2.869   3.947
37516W        W 9187  26.884   7.312   2.694
37517W        W 9188  21.551  13.043  14.099
37518W        W 9189  29.902  37.945  11.615
37519W        W 9190  18.488  13.753   2.127
37520W        W 9191  39.310   5.347   3.361
37521W        W 9192  21.734  30.679   0.726
37522W        W 9193  32.585   2.802   1.301
37523W        W 9194  43.786  31.959  13.996
37524W        W 9195   6.727  14.608  13.237
37525W        W 9196  24.955  14.168  11.854
37526W        W 9197   1.724   7.472  11.690
37527W        W 9198  20.175  39.445   1.724
37528W        W 9199  11.403  34.540  13.879
37529W        W 9200  23.052   6.035   1.256
37530W        W 9201  26.729  10.664   1.248
37531W        W 9202  39.765  31.790  10.684
37532W        W 9203  13.749  29.494  12.256
37533W        W 9204   5.850  34.421   3.112
37534W        W 9205   2.245  12.200  10.658
37535W        W 9206  17.154  17.168  11.180
37536W        W 9207  13.713   0.723   4.423
37537W        W 9208  13.593   4.484   3.600
37538W        W 9209  41.268   5.884   2.574
37539W        W 9210  13.909  28.158   2.438
37540W        W 9211  30.653  11.396  13.260
37541W        W 9212  19.230  44.893   0.868
37542W        W 9213  39.943  41.274   1.638
37543W        W 9214  21.541  12.227  12.863
37544W        W 9215  10.405  39.594   3.773
37545W        W 9216  29.764   7.618   9.777
37546W        W 9217  20.412   5.658  14.538
37547W        W 9218   1.332  30.650   0.297
37548W        W 9219  35.030   7.535   9.606
37549W        W 9220  35.886  34.616  11.978
37550W        W 9221  26.184   7.029  12.945
37551W        W 9222  44.581  32.060  10.275
37552W        W 9223  20.555   8.734  11.146
37553W        W 9224  19.137  41.003  10.709
37554W        W 9225   5.824  35.588   1.776
37555W        W 9226  30.941   0.455  12.071
37556W        W 9227  43.774  32.638   1.748
37557W        W 9228   0.403  33.017   1.270
37558W        W 9229  28.100  32.455  12.931
37559W        W 9230  33.381  25.091   1.700
37560W        W 9231  33.037  32.429   2.352
37561W        W 9232  28.447  30.940   1.750
37562W        W 9233  14.248  14.825  10.929
37563W        W 9234  38.842  14.691  14.103
37564W        W 9235  37.112  22.805  12.097
37565W        W 9236  10.087  21.149  13.830
37566W        W 9237  43.003  15.791   2.937
37567W        W 9238  30.887  10.840   3.682
37568W        W 9239  26.135   4.960  12.179
37569W        W 9240   5.933  27.486   1.322
37570W        W 9241  38.924  39.490  13.954
37571W        W 9242   3.017  29.178  12.331
37572W        W 9243  26.398  15.452  14.988
37573W        W 9244  11.416  36.133  11.928
37574W        W 9245  42.517  22.934  12.391
37575W        W 9246  18.730  30.698   2.701
37576W        W 9247   3.489  14.512  12.717
37577W        W 9248  18.133  40.501  12.626
37578W        W 9249  15.540  29.115  14.908
37579W        W 9250   1.655  14.598  11.571
37580W        W 9251  22.008  38.027   0.843
37581W        W 9252  39.798  31.040  12.930
37582W        W 9253  37.989  40.373   2.159
37583W        W 9254   8.848   9.453  14.757
37584W        W 9255  41.300  11.883   2.484
37585W        W 9256  32.001   4.794   0.402
37586W        W 9257  27.713  27.515   3.459
37587W        W 9258  14.194  12.415  12.557
37588W        W 9259  41.371  30.567  11.620
37589W        W 9260  11.036  42.348  13.023
37590W        W 9261  27.553  10.946   0.936
37591W        W 9262  38.039   4.696   3.339
37592W        W 9263  39.519  37.668   4.101
37593W        W 9264   9.249  33.846  13.391
37594W        W 9265   4.478   8.997   4.103
37595W        W 9266   6.723  30.915  13.475
37596W        W 9267  25.404  33.602  13.878
37597W        W 9268  25.548  41.400  12.019
37598W        W 9269  37.697  38.669   0.735
37599W        W 9270  12.899  39.427   2.180
37600W        W 9271  34.489  29.949   1.844
37601W        W 9272   3.170   2.867   0.918
37602W        W 9273  16.550  35.424   1.493
37603W        W 9274   5.391  10.252  14.804
37604W        W 9275  28.050  32.087  10.612
37605W        W 9276  43.434  17.545   0.543
37606W        W 9277  13.033  22.891   9.912
37607W        W 9278   3.446  26.079   3.596
37608W        W 9279  21.884  37.004  12.856
37609W        W 9280  44.272   2.393   3.597
37610W        W 9281  12.977  32.173  10.188
37611W        W 9282  44.558  42.365  11.035
37612W        W 9283  32.125  44.432   2.003
37613W        W 9284  12.655   7.605  14.965
37614W        W 9285  24.743  33.614  14.440
37615W        W 9286  31.838  44.419  12.535
37616W        W 9287  31.650   9.907   4.554
37617W        W 9288  20.187  40.813  13.578
37618W        W 9289   4.726  28.426   3.715
37619W        W 9290   6.949   8.198  11.646
37620W        W 9291  36.071  24.837   2.779
37621W        W 9292  31.742  37.195  13.167
37622W        W 9293   6.853  12.660  12.533
37623W        W 9294   0.777  32.883  11.123
37624W        W 9295  31.716  13.024   2.469
37625W        W 9296  24.402  16.311  12.976
37626W        W 9297  22.571  41.624   5.511
37627W        W 9298  20.858   9.061   4.638
37628W        W 9299   8.835  39.944  11.700
37629W        W 9300  20.141  11.864  11.744
37630W        W 9301  17.487  18.234   2.648
37631W        W 9302  21.590  28.654  14.359
37632W        W 9303   0.326  15.406   4.982
37633W        W 9304   0.899  36.009  12.019
37634W        W 9305  30.016  32.467  11.550
37635W        W 9306  23.689  39.287  10.084
37636W        W 9307   4.415  25.947   1.678
37637W        W 9308  38.333  27.922  11.923
37638W        W 9309  15.066   3.486  11.078
37639W        W 9310  27.724  24.013  11.139
37640W        W 9311  14.765   0.718  13.133
37641W        W 9312  39.898  18.912   1.347
37642W        W 9313   7.088  10.433  11.076
37643W        W 9314  24.262  10.330   3.343
37644W        W 9315   8.747  34.944  11.692
37645W        W 9316  11.138  40.703  11.594
37646W        W 9317  22.773   8.308   3.293
37647W        W 9318   7.008  43.294  11.988
37648W        W 9319  31.586  25.589   1.783
37649W        W 9320   0.713  18.164   3.365
37650W        W 9321  42.994  40.432  12.079
37651W        W 9322  37.833  23.425   3.615
37652W        W 9323  33.535   5.377   1.319
37653W        W 9324  15.505  20.782   1.846
37654W        W 9325   1.693  31.838   5.003
37655W        W 9326  43.397  38.041   4.112
37656W        W 9327  11.611  40.348  13.880
37657W        W 9328   2.984  19.247   1.353
37658W        W 9329  43.997  12.121   0.102
37659W        W 9330  23.657  43.998   2.862
37660W        W 9331  21.616   4.999  11.484
37661W        W 9332  21.967   8.158  12.672
37662W        W 9333  42.929  34.635   0.945
37663W        W 9334   7.395  20.505   0.301
37664W        W 9335  44.777  38.785  11.059
37665W        W 9336  23.256  27.447   1.676
37666W        W 9337  20.039  37.099   3.352
37667W        W 9338  38.864  12.157   1.749
37668W        W 9339  27.921   3.704  11.976
37669W        W 9340  21.160  39.637  14.798
37670W        W 9341  14.822   4.867   2.644
37671W        W 9342  30.611  21.532  10.914
37672W        W 9343  19.965  14.538  13.604
37673W        W 9344  23.163  27.439  10.997
37674W        W 9345  11.874  41.615   2.192
37675W        W 9346  38.892   0.034  11.505
37676W        W 9347   6.370  17.418  13.117
37677W        W 9348  38.296  37.102   3.278
37678W        W 9349  20.964   2.314  12.552
37679W        W 9350  39.964  28.882  14.866
37680W        W 9351  26.180  16.396  13.243
37681W        W 9352  24.016  27.029  11.675
37682W        W 9353  18.354  38.907   2.854
37683W        W 9354  20.444  12.881  14.937
37684W        W 9355  38.513   5.301   0.807
37685W        W 9356  30.353  38.400  12.087
37686W        W 9357   9.206  41.221   4.608
37687W        W 9358  39.098  26.908  10.126
37688W        W 9359  40.174  19.654  13.899
37689W        W 9360  42.985  42.590  12.954
37690W        W 9361  39.861  27.919   0.900
37691W        W 9362  43.814  32.223  11.482
37692W        W 9363  28.084  15.781  11.936
37693W        W 9364  36.081  32.575  12.150
37694W        W 9365  29.400   7.004   3.660
37695W        W 9366  23.609  43.321   0.742
37696W        W 9367  22.612  34.673   4.287
37697W        W 9368  35.686   4.640  14.236
37698W        W 9369  35.956   7.730   1.912
37699W        W 9370   7.730  34.344  14.720
37700W        W 9371  29.435   9.785  12.369
37701W        W 9372  37.020  39.976   0.760
37702W        W 9373   2.669  32.342   2.766
37703W        W 9374   8.301   9.943   0.915
37704W        W 9375  39.808  21.735   4.624
37705W        W 9376   7.911  30.037   2.210
37706W        W 9377  41.078  44.906  13.998
37707W        W 9378  33.892  18.237  14.021
37708W        W 9379   0.808  23.311   4.472
37709W        W 9380  39.138   7.127  14.310
37710W        W 9381   1.803   4.273  13.881
37711W        W 9382  19.491  13.778   1.955
37712W        W 9383  10.042  41.515   1.294
37713W        W 9384  24.070   7.599  13.888
37714W        W 9385  34.426  40.936   4.709
37715W        W 9386   1.310   5.204  13.255
37716W        W 9387  19.256   0.503   3.190
37717W        W 9388   0.832   7.918   0.319
37718W        W 9389   9.734  27.950   4.908
37719W        W 9390  29.185  19.658   4.484
37720W        W 9391  16.542  18.252   4.125
37721W        W 9392  27.469  18.278   2.283
37722W        W 9393  26.985  12.630  11.963
37723W        W 9394  14.622  11.779  10.756
37724W        W 9395  22.108   3.398  11.044
37725W        W 9396  41.449  15.492  12.813
37726W        W 9397  42.791  20.458   4.270
37727W        W 9398  12.593  24.207  11.716
37728W        W 9399  10.582   3.772  11.607
37729W        W 9400   3.138  26.787   3.824
37730W        W 9401  36.883  16.328  14.848
37731W        W 9402  15.011  26.611  14.595
37732W        W 9403  14.063  30.165   2.200
37733W        W 9404   9.267  28.039   5.142
37734W        W 9405   1.535   5.227  11.901
37735W        W 9406  42.047  44.503  13.161
37736W        W 9407  10.250  33.696   4.958
37737W        W 9408  43.210  20.652  11.012
37738W        W 9409  15.091  17.668  13.610
37739W        W 9410   9.425  44.058   3.722
37740W        W 9411  32.553  25.746  12.950
37741W        W 9412  33.004  18.094   4.155
37742W        W 9413  41.245  10.084   1.989
37743W        W 9414   4.740  35.965   1.191
37744W        W 9415  22.549  15.030   1.756
37745W        W 9416  31.868  22.771  14.868
37746W        W 9417  22.142   0.435  13.735
37747W        W 9418  37.284  17.219  14.380
37748W        W 9419  19.099  44.500  13.772
37749W        W 9420  23.440  41.761  12.073
37750W        W 9421  39.365  32.851  14.615
37751W        W 9422   8.795  11.874  13.799
37752W        W 9423  29.174  24.930   2.605
37753W        W 9424  25.873  35.060  12.047
37754W        W 9425  38.385  38.896   4.148
37755W        W 9426  11.730   0.629   0.310
37756W        W 9427  27.736  28.008  14.516
37757W        W 9428  27.941  25.625   3.705
37758W        W 9429  31.761  32.387   3.374
37759W        W 9430  25.390  10.824   0.531
37760W        W 9431  33.159   8.661  12.525
37761W        W 9432  25.639   5.364  11.040
37762W        W 9433   3.688  10.407  11.167
37763W        W 9434  38.259  10.726   2.689
37764W        W 9435  23.443  24.068   1.196
37765W        W 9436  37.050  25.670  13.650
37766W        W 9437   7.077  28.222  11.156
37767W        W 9438  11.092  29.105   2.868
37768W        W 9439  42.211  14.111  10.632
37769W        W 9440  11.043  41.924  14.262
37770W        W 9441  17.035  19.515  12.022
37771W        W 9442  10.804  26.636  13.767
37772W        W 9443  41.521  23.646   5.356
37773W        W 9444  35.436  24.705   4.681
37774W        W 9445  22.745  17.293  12.720
37775W        W 9446  41.515  17.817  10.750
37776W        W 9447   2.719  20.037   9.751
37777W        W 9448   8.407  22.998   3.233
37778W        W 9449  38.382  18.938  11.995
37779W        W 9450  21.035  39.841  14.342
37780W        W 9451  24.553  33.598   4.301
37781W        W 9452   7.681  36.407   1.628
37782W        W 9453  26.334  25.419   2.322
37783W        W 9454  17.949   8.919   4.311
37784W        W 9455  15.748  21.776  14.916
37785W        W 9456   0.304  38.299   0.239
37786W        W 9457  36.334  12.716  12.077
37787W        W 9458   0.410   9.116   4.497
37788W        W 9459  30.402   5.923   4.006
37789W        W 9460  18.716  28.243   3.602
37790W        W 9461  26.864  34.037   0.868
37791W        W 9462  17.622  36.309   0.768
37792W        W 9463  29.015  43.995  11.111
37793W        W 9464  39.449  39.352  10.799
37794W        W 9465  43.030   7.205  11.308
37795W        W 9466  21.138  13.291  14.278
37796W        W 9467  12.625  31.450  14.786
37797W        W 9468  39.088  33.990   1.476
37798W        W 9469  36.174  26.876   2.750
37799W        W 9470  43.786  14.042  14.944
37800W        W 9471   3.872  11.793   2.737
37801W        W 9472  17.681  17.173  13.394
37802W        W 9473  40.149  25.488  13.435
37803W        W 9474  12.444  41.471  11.911
37804W        W 9475  14.029   4.633  13.362
37805W        W 9476  23.106  37.975   4.952
37806W        W 9477  26.162  12.488  13.566
37807W        W 9478   0.255  23.947  10.731
37808W        W 9479  12.407  16.268  14.973
37809W        W 9480   3.663  25.979   2.042
37810W        W 9481  36.980  40.465   1.852
37811W        W 9482   3.183  36.353   4.678
37812W        W 9483  20.750  16.990  12.931
37813W        W 9484  12.760  12.189  12.511
37814W        W 9485  20.210  18.274   1.859
37815W        W 9486  17.130  10.105   4.948
37816W        W 9487  27.690  11.259   0.545
37817W        W 9488  36.300  39.362   2.203
37818W        W 9489  23.311  10.461  12.004
37819W        W 9490  22.972  28.989   1.402
37820W        W 9491  23.970  10.330  12.570
37821W        W 9492   9.913  28.628   1.661
37822W        W 9493  17.273  31.579   4.721
37823W        W 9494  17.579  39.617  11.506
37824W        W 9495  44.810  20.946  10.252
37825W        W 9496  29.513   0.809  11.224
37826W        W 9497   9.409   7.240   0.232
37827W        W 9498  13.781   9.180  13.569
37828W        W 9499  38.365   6.386   3.068
37829W        W 9500  40.001  39.876  14.876
37830W        W 9501  39.923   8.338  14.385
37831W        W 9502  36.191  30.937  11.256
37832W        W 9503  37.423  17.231  11.128
37833W        W 9504  36.841   2.553  14.420
37834W        W 9505   5.904  31.144  14.952
37835W        W 9506  28.064  11.665  14.107
37836W        W 9507  43.659  23.135   2.807
37837W        W 9508  31.958  31.208  13.601
37838W        W 9509  42.171  21.639   4.605
37839W        W 9510  12.873  40.391  13.570
37840W        W 9511  42.492  37.293  13.836
37841W        W 9512  34.024   6.831  12.923
37842W        W 9513   8.022  11.073  12.693
37843W        W 9514  30.360  21.212   3.334
37844W        W 9515  30.997  21.697  13.006
37845W        W 9516  41.459   3.967   4.150
37846W        W 9517  39.998  14.476   4.617
37847W        W 9518  23.302  13.035  14.849
37848W        W 9519   6.792  11.834  10.633
37849W        W 9520  30.378  13.675  14.313
37850W        W 9521  15.150  31.494   1.830
37851W        W 9522  16.151  39.536  13.300
37852W        W 9523  44.688  17.528  13.006
37853W        W 9524  22.066  14.681   0.693
37854W        W 9525  27.714  28.510  11.140
37855W        W 9526  30.711  31.681  12.189
37856W        W 9527  10.885  26.449   3.769
37857W        W 9528  27.284  21.128   4.664
37858W        W 9529  39.351  19.505   0.009
37859W        W 9530  21.054  18.185  11.882
37860W        W 9531  16.206  17.891  12.456
37861W        W 9532  19.988  21.902   3.797
37862W        W 9533  42.359  12.183   1.417
37863W        W 9534  24.969  43.999   2.811
37864W        W 9535   1.220  10.642   2.752
37865W        W 9536  39.339  18.749   3.574
37866W        W 9537  25.945   2.271   3.084
37867W        W 9538  39.306  40.887  11.218
37868W        W 9539   3.324  30.628   0.398
37869W        W 9540  23.464  18.273   1.439
37870W        W 9541  43.542  28.015   3.125
37871W        W 9542  27.211   3.426  11.601
37872W        W 9543  17.631  43.873  11.656
37873W        W 9544  35.253  15.217  12.987
37874W        W 9545  29.586  34.997  13.947
37875W        W 9546  26.023  24.259   3.589
37876W        W 9547  28.022   4.725  13.564
37877W        W 9548  19.814   2.927  14.628
37878W        W 9549  20.472  11.141  12.477
37879W        W 9550  27.648  41.487   2.234
37880W        W 9551  24.711  16.077  11.111
37881W        W 9552   9.375   8.187   0.213
37882W        W 9553   6.685  38.828   3.191
37883W        W 9554  33.690  40.837  12.362
37884W        W 9555  29.051  43.279   2.601
37885W        W 9556  19.044  15.380  13.909
37886W        W 9557  39.578   5.756  14.924
37887W        W 9558  28.859  38.258   2.735
37888W        W 9559  29.092   7.885   1.707
37889W        W 9560  17.431  44.016   3.800
37890W        W 9561  25.648  13.101   4.925
37891W        W 9562  22.410  12.308   4.180
37892W        W 9563  19.885  43.855   2.861
37893W        W 9564  18.971  15.652   1.357
37894W        W 9565  22.796  23.115  12.347
37895W        W 9566   1.346  38.444  13.557
37896W        W 9567  16.373  40.539  10.954
37897W        W 9568  17.134  41.089  14.291
37898W        W 9569  17.358  40.299  12.328
37899W        W 9570  25.924  14.169  13.947
37900W        W 9571  18.080  44.204   0.240
37901W        W 9572  13.514   2.308  14.301
37902W        W 9573  23.251   8.801  11.561
37903W        W 9574   5.163  44.872  14.872
37904W        W 9575  38.369  15.805  11.177
37905W        W 9576  21.785   3.798   0.230
37906W        W 9577  12.244  24.527   4.092
37907W        W 9578  28.745   0.037  10.549
37908W        W 9579   9.411   6.452   3.847
37909W        W 9580  43.859  17.709  11.594
37910W        W 9581  11.951  14.404  11.893
37911W        W 9582  14.756  11.789   2.679
37912W        W 9583  39.765   9.731  14.173
37913W        W 9584  44.719  41.487   2.370
37914W        W 9585   1.039   4.486  11.556
37915W        W 9586  16.360  17.861   3.286
37916W        W 9587  16.745  31.945   1.946
37917W        W 9588  42.472  18.987   0.463
37918W        W 9589  26.679  32.847  10.641
37919W        W 9590  22.247  23.712   2.313
37920W        W 9591  34.668  22.744  11.578
37921W        W 9592  39.497  22.590  11.421
37922W        W 9593   1.677   7.174  14.351
37923W        W 9594  24.656   5.164  12.372
37924W        W 9595  27.021  11.691   3.290
37925W        W 9596  28.738  44.877  14.986
37926W        W 9597  14.272   4.751  13.802
37927W        W 9598   8.713  12.347  14.016
37928W        W 9599  11.188  39.576   2.203
37929W        W 9600   6.851  23.647  11.690
37930W        W 9601  16.098  10.642   3.564
37931W        W 9602  33.649  37.173  11.006
37932W        W 9603  44.714  27.925  13.795
37933W        W 9604  13.246   3.260   3.431
37934W        W 9605  32.242  44.698  14.059
37935W        W 9606   2.492  43.368   1.766
37936W        W 9607  25.207  40.289   1.677
37937W        W 9608  19.575   2.746   2.269
37938W        W 9609  11.888  43.431   2.101
37939W        W 9610  39.988  20.414   4.198
37940W        W 9611   9.265   9.627  13.939
37941W        W 9612  39.401  34.071  12.193
37942W        W 9613  43.958  27.862  11.940
37943W        W 9614   9.180  43.751   2.285
37944W        W 9615  12.714  20.402  13.558
37945W        W 9616  22.290  12.913   3.910
37946W        W 9617   3.818  25.909  10.990
37947W        W 9618  38.432   3.196  14.905
37948W        W 9619   3.432  35.573   4.365
37949W        W 9620  20.345  40.881  11.601
37950W        W 9621  36.531  14.634  13.548
37951W        W 9622  35.049  42.423   4.811
37952W        W 9623  38.864  36.145   0.794
37953W        W 9624  13.333  31.162  14.823
37954W        W 9625  40.465  44.753   2.395
37955W        W 9626  26.471  30.862  11.209
37956W        W 9627  42.914  39.591  10.516
37957W        W 9628  42.316  12.938   2.417
37958W        W 9629  16.257  39.343  12.836
37959W        W 9630  43.125  39.286   3.309
37960W        W 9631   9.123  28.946  12.343
37961W        W 9632   9.192  30.424   1.794
37962W        W 9633  10.826  39.816  12.892
37963W        W 9634  28.497   1.559  12.436
37964W        W 9635  44.047  34.180   1.851
37965W        W 9636  31.960  41.657   2.823
37966W        W 9637  38.991   2.508   2.897
37967W        W 9638  22.596  18.518  12.032
37968W        W 9639  11.587  32.451  10.621
37969W        W 9640  16.817  25.296   0.574
37970W        W 9641  40.815  18.207   3.353
37971W        W 9642   3.120   7.838  11.447
37972W        W 9643  27.626  27.069  12.923
37973W        W 9644   1.856  27.070  11.356
37974W        W 9645  39.769   8.376  12.040
37975W        W 9646  41.909  35.105  12.942
37976W        W 9647  44.447  43.892   2.286
37977W        W 9648  24.676  39.416  13.993
37978W        W 9649  16.660  44.560   1.094
37979W        W 9650  21.562   0.510   3.545
37980W        W 9651  12.713   3.031  12.033
37981W        W 9652   9.952  27.564   4.622
37982W        W 9653  25.270  19.241   1.142
37983W        W 9654   0.424  24.776   1.651
37984W        W 9655  13.282   1.812  10.914
37985W        W 9656  31.200  42.919  12.425
37986W        W 9657  12.585   3.779   0.454
37987W        W 9658  26.950  16.009  12.070
37988W        W 9659  44.152  14.976   5.578
37989W        W 9660  40.938  42.234   3.875
37990W        W 9661  28.028  25.999  11.436
37991W        W 9662   0.799  38.582  13.421
37992W        W 9663  21.502  28.718   2.932
37993W        W 9664  15.311  38.439  12.190
37994W        W 9665   0.567   0.795   3.561
37995W        W 9666  34.499  25.634   0.971
37996W        W 9667   9.782  24.408  13.370
37997W        W 9668  10.169   2.025  13.978
37998W        W 9669  16.683  30.939  13.946
37999W        W 9670  24.470  15.383  13.854
38000W        W 9671  12.084  38.519   4.922
38001W        W 9672  29.935  36.292  14.035
38002W        W 9673   7.839   9.779  10.421
38003W        W 9674   2.681   3.820  12.162
38004W        W 9675   1.955  38.833  14.509
38005W        W 9676   2.856  16.731   2.241
38006W        W 9677   5.424  43.098  11.513
38007W        W 9678   1.831  14.494   4.019
38008W        W 9679  23.003  11.626  13.388
38009W        W 9680  42.748  37.482  12.654
38010W        W 9681  17.239  40.833   4.796
38011W        W 9682  23.645  26.015   2.823
38012W        W 9683   2.802  18.322  12.413
38013W        W 9684  28.536   5.734   4.093
38014W        W 9685   3.976  12.291   2.814
38015W        W 9686  42.137  20.635   3.771
38016W        W 9687  21.725  41.587   1.325
38017W        W 9688  31.078   8.979  14.923
38018W        W 9689   8.351   5.285   0.742
38019W        W 9690   3.060  14.316  10.547
38020W        W 9691  30.755   9.540   0.897
38021W        W 9692  11.882  26.543  11.266
38022W        W 9693   9.634   8.942  12.597
38023W        W 9694  43.747   7.195   1.765
38024W        W 9695  21.836  30.522  10.498
38025W        W 9696  15.346  22.056  14.398
38026W        W 9697  35.063  28.115   3.604
38027W        W 9698  37.139  38.275   4.113
38028W        W 9699   7.676  22.846  11.241
38029W        W 9700  42.201  41.803   0.550
38030W        W 9701  22.964  41.742   4.328
38031W        W 9702  29.619  43.561  10.589
38032W        W 9703  44.100  13.744  13.133
38033W        W 9704  44.460  34.876   3.634
38034W        W 9705  38.520  14.253   1.321
38035W        W 9706  19.276   2.364   4.320
38036W        W 9707  33.182  25.445   0.371
38037W        W 9708  33.651  20.565   4.036
38038W        W 9709  40.294   9.590  13.953
38039W        W 9710  42.799  10.906   1.746
38040W        W 9711  44.768  21.616  13.867
38041W        W 9712  41.998  35.998   1.330
38042W        W 9713  43.121  18.154   1.174
38043W        W 9714  34.612  32.224   2.269
38044W        W 9715  44.205  29.715   3.799
38045W        W 9716  38.422  12.201   0.210
38046W        W 9717  11.832  43.321  14.775
38047W        W 9718  35.609  35.631   3.178
38048W        W 9719  41.096  28.055  12.027
38049W        W 9720  17.460  15.707   2.754
38050W        W 9721   9.059  28.073  11.272
38051W        W 9722  40.524  24.233   1.667
38052W        W 9723  20.675  38.065  12.571
38053W        W 9724   7.860  44.737  10.454
38054W        W 9725   7.776  29.527   3.153
38055W        W 9726   0.922  18.215   3.837
38056W        W 9727   0.894  25.727   0.386
38057W        W 9728  16.310  39.476   2.833
38058W        W 9729  22.270   9.395  14.187
38059W        W 9730  11.663  32.962   1.787
38060W        W 9731   6.288  18.809  10.835
38061W        W 9732  32.092  42.558   1.413
38062W        W 9733  26.013  19.781   2.448
38063W        W 9734   6.302  29.605   0.753
38064W        W 9735  27.139  34.004  11.900
38065W        W 9736  30.974   4.799  11.237
38066W        W 9737  35.499  41.776   0.722
38067W        W 9738  37.151  28.208   2.379
38068W        W 9739  29.576  22.913  12.644
38069W        W 9740  31.048  17.152  13.410
38070W        W 9741  34.994   8.196   1.534
38071W        W 9742  19.591  15.129   0.689
38072W        W 9743   2.436   0.262  13.974
38073W        W 9744  39.350   7.094   4.133
38074W        W 9745  41.343   1.052   4.616
38075W        W 9746  39.333  35.442  12.195
38076W        W 9747   3.689   2.535   3.755
38077W        W 9748  37.324  27.990  11.575
38078W        W 9749  17.350  20.077  12.452
38079W        W 9750  27.505  22.497   0.344
38080W        W 9751   8.345   6.927   1.872
38081W        W 9752  20.528  30.313   4.088
38082W        W 9753  19.492  12.505  12.109
38083W        W 9754  27.497  14.125   1.708
38084W        W 9755  11.391   1.488   2.063
38085W        W 9756  31.751   5.382   0.998
38086W        W 9757  10.700   5.644   4.287
38087W        W 9758  19.252  34.802  14.330
38088W        W 9759  38.759  14.253  13.847
38089W        W 9760  32.590  25.506   1.151
38090W        W 9761  35.138  41.061  12.443
38091W        W 9762  25.164  17.709   4.578
38092W        W 9763  24.961  24.623  12.076
38093W        W 9764  12.281  34.428  10.618
38094W        W 9765  12.390  24.487   1.856
38095W        W 9766  26.428  42.840   3.367
38096W        W 9767   9.379  44.454  11.480
38097W        W 9768  42.889  37.030  13.566
38098W        W 9769  21.182  25.451   0.508
38099W        W 9770  18.610  38.890   2.381
38100W        W 9771  13.608   8.327   0.512
38101W        W 9772   0.361  34.529  12.870
38102W        W 9773   5.213  21.442   2.305
38103W        W 9774  35.867  41.899  14.516
38104W        W 9775  34.801   0.816   4.581
38105W        W 9776  34.355  30.476   4.106
38106W        W 9777  19.862  24.961   4.456
38107W        W 9778   6.403  18.223  10.565
38108W        W 9779  27.127  21.740   3.707
38109W        W 9780  13.316  44.224  11.663
38110W        W 9781  41.237  18.997   4.551
38111W        W 9782   8.209   5.651   1.978
38112W        W 9783  40.916  37.782  14.289
38113W        W 9784   4.357  12.053  10.821
38114W        W 9785  34.945  17.144   5.053
38115W        W 9786  38.102  21.596  10.336
38116W        W 9787   7.317  16.749   4.727
38117W        W 9788  26.376  22.428   5.301
38118W        W 9789  42.546  34.376   4.304
38119W        W 9790  18.056  20.286   1.921
38120W        W 9791  35.879   7.245   2.361
38121W        W 9792  20.055  13.502   5.001
38122W        W 9793  31.810  11.754   3.133
38123W        W 9794  10.197   9.671   0.257
38124W        W 9795  39.890  22.575  13.519
38125W        W 9796  22.639   7.479  14.950
38126W        W 9797  39.295  14.292  10.821
38127W        W 9798  41.940  42.663   1.923
38128W        W 9799  33.528   9.886   3.159
38129W        W 9800  14.695  16.065   4.362
38130W        W 9801   6.451  38.033   4.106
38131W        W 9802  11.136  29.709   0.992
38132W        W 9803  26.530  18.331   1.534
38133W        W 9804  17.102  10.565   0.341
38134W        W 9805   9.177  10.423  12.938
38135W        W 9806  29.083  31.012  11.898
38136W        W 9807  30.734  31.549   4.025
38137W        W 9808   1.564  21.290  11.035
38138W        W 9809  42.935  38.724  13.136
38139W        W 9810   4.300  32.313   1.441
38140W        W 9811  34.511   0.167   1.372
38141W        W 9812  30.747  33.489   3.206
38142W        W 9813  41.268   4.413  12.352
38143W        W 9814  16.708   2.500  12.460
38144W        W 9815   7.333   9.758   3.436
38145W        W 9816  22.917  43.020   4.107
38146W        W 9817  42.503  32.178   1.324
38147W        W 9818  18.479  17.509   1.421
38148W        W 9819  23.760   7.495  11.674
38149W        W 9820  32.779  11.321   1.103
38150W        W 9821  20.632  16.070   2.379
38151W        W 9822  20.942   4.802  12.040
38152W        W 9823  10.513  34.424   2.318
38153W        W 9824  44.736  12.173   1.039
38154W        W 9825  31.112  39.939  14.904
38155W        W 9826   3.545   7.967   3.745
38156W        W 9827  26.673  19.292  12.467
38157W        W 9828  20.021   8.775  11.130
38158W        W 9829  20.161  12.343   2.716
38159W        W 9830  36.558  40.884  13.897
38160W        W 9831  41.959   0.183  14.275
38161W        W 9832  26.069  35.524   1.782
38162W        W 9833  28.178  37.346  11.477
38163W        W 9834   0.400  36.891   2.644
38164W        W 9835  23.670  15.700  11.991
38165W        W 9836   0.551  27.536   0.900
38166W        W 9837   7.585  35.479   1.159
38167W        W 9838  25.753  41.387   1.899
38168W        W 9839  28.001  24.334  14.466
38169W        W 9840  32.069  35.773  14.623
38170W        W 9841   4.137  43.313   2.849
38171W        W 9842  44.928  34.444   1.246
38172W        W 9843  24.390  33.341   3.855
38173W        W 9844  17.116  40.307   2.727
38174W        W 9845  23.023   3.675   1.174
38175W        W 9846  37.916   8.111  14.661
38176W        W 9847   8.619   6.285   0.885
38177W        W 9848   4.448  20.807   3.080
38178W        W 9849  35.803   2.290   2.845
38179W        W 9850  34.200  35.119  12.718
38180W        W 9851   5.007  16.827  13.106
38181W        W 9852  26.653  30.773  14.221
38182W        W 9853  25.948   3.727   0.399
38183W        W 9854  11.989  20.378   0.982
38184W        W 9855  29.982  11.388   1.408
38185W        W 9856  16.833  35.661  13.827
38186W        W 9857  42.483  30.428   2.129
38187W        W 9858  33.084  38.693   1.861
38188W        W 9859  31.685  28.132  11.996
38189W        W 9860  27.149  22.716  10.998
38190W        W 9861  43.395  34.671  11.455
38191W        W 9862   8.295   0.705   4.654
38192W        W 9863  43.420   1.365   4.137
38193W        W 9864   1.735  10.098  14.580
38194W        W 9865  21.059  25.983  14.766
38195W        W 9866   5.176  17.171  13.442
38196W        W 9867  12.210  17.046   4.393
38197W        W 9868  30.992  43.908  11.485
38198W        W 9869  23.193  30.732  14.565
38199W        W 9870   7.701  44.170   2.386
38200W        W 9871   3.473  43.052  10.691
38201W        W 9872  19.064  14.990  12.059
38202W        W 9873   5.845  33.148   4.448
38203W        W 9874  10.823  21.339   0.923
38204W        W 9875  12.657  12.385   0.618
38205W        W 9876   0.328  23.640   3.183
38206W        W 9877  27.941  19.038   0.673
38207W        W 9878  26.011   0.283   1.381
38208W        W 9879  26.027  12.671   1.965
38209W        W 9880   7.905  31.911   2.301
38210W        W 9881  22.853  22.975   4.892
38211W        W 9882   8.444  37.942  14.520
38212W        W 9883  41.416  13.019   0.359
38213W        W 9884  29.923  21.512   1.791
38214W        W 9885  40.758  31.393  13.325
38215W        W 9886  32.146   4.764  12.387
38216W        W 9887  12.556  28.286  12.860
38217W        W 9888  24.548  10.492   1.681
38218W        W 9889  38.375  28.651  14.053
38219W        W 9890   0.695  32.029   3.618
38220W        W 9891  24.512  25.451   2.691
38221W        W 9892  12.888  10.956   2.179
38222W        W 9893  22.727  29.155  12.364
38223W        W 9894   9.354  44.005  13.508
38224W        W 9895  21.167  32.397  14.608
38225W        W 9896   1.139  38.115  14.374
38226W        W 9897  36.482   0.735   0.672
38227W        W 9898  42.386   3.972  14.415
38228W        W 9899  31.666   0.210  12.584
38229W        W 9900  32.249  22.968   0.166
38230W        W 9901  32.665  27.142  11.800
38231W        W 9902  33.524  37.907   2.863
38232W        W 9903  14.078  22.044   3.700
38233W        W 9904  34.082  22.599   4.287
38234W        W 9905  32.556   5.952  10.552
38235W        W 9906  38.129   1.778  10.721
38236W        W 9907   5.669  33.479   3.171
38237W        W 9908   2.137   3.349   2.256
38238W        W 9909  11.235  25.242  10.670
38239W        W 9910   1.408  10.485  11.032
38240W        W 9911  30.388  17.132   4.124
38241W        W 9912  26.239   8.174   9.840
38242W        W 9913  16.533  43.125   4.035
38243W        W 9914  14.909   3.764   3.815
38244W        W 9915  39.500  42.599   3.887
38245W        W 9916  16.247  15.078   0.935
38246W        W 9917  23.910  30.891  10.639
38247W        W 9918  30.170  19.841   4.563
38248W        W 9919  43.062   5.485   0.973
38249W        W 9920   8.661  25.711  10.109
38250W        W 9921  21.139  41.409  12.507
38251W        W 9922  12.662  42.981   2.939
38252W        W 9923  21.253  20.597   3.761
38253W        W 9924  40.521  31.325   4.058
38254W        W 9925  10.153   3.997   0.986
38255W        W 9926  36.345  35.660   0.840
38256W        W 9927  19.442  39.913   4.594
38257W        W 9928   8.180  33.875   3.786
38258W        W 9929  35.060  13.236   4.104
38259W        W 9930  15.830  11.075   2.293
38260W        W 9931   8.410  40.067  14.293
38261W        W 9932   3.215  18.070   1.884
38262W        W 9933  30.664  13.657  13.097
38263W        W 9934  21.696  16.485  12.260
38264W        W 9935  17.079  15.264   1.431
38265W        W 9936  21.086  16.198   1.741
38266W        W 9937   1.513  12.295   3.288
38267W        W 9938  31.536  35.722  10.663
38268W        W 9939  17.881  30.260   0.522
38269W        W 9940  27.206   5.531   4.290
38270W        W 9941  39.148  23.289   2.454
38271W        W 9942  29.008  37.021   1.581
38272W        W 9943   7.469   1.725   2.624
38273W        W 9944  16.203  20.153  13.325
38274W        W 9945  23.186   1.804   2.741
38275W        W 9946  37.404  43.736  11.106
38276W        W 9947  29.471  21.086   0.827
38277W        W 9948   4.346  27.847   1.683
38278W        W 9949  27.581  22.996   0.318
38279W        W 9950   7.157  16.298  13.437
38280W        W 9951  15.832   2.082   2.646
38281W        W 9952  43.796  14.549  11.400
38282W        W 9953   5.446  13.274   4.400
38283W        W 9954  15.356   1.897   0.177
38284W        W 9955  24.014   1.021   1.359
38285W        W 9956  22.598  36.306  12.553
38286W        W 9957  28.585   2.780  10.676
38287W        W 9958  10.874  33.523   2.742
38288W        W 9959  35.249  40.024  10.383
38289W        W 9960  10.180   1.377  12.180
38290W        W 9961   4.973  14.237  14.478
38291W        W 9962   4.063   9.747   2.579
38292W        W 9963   8.730   5.680   4.076
38293W        W 9964  12.647   4.780   1.742
38294W        W 9965   7.785   9.335  14.780
38295W        W 9966   0.915  44.999  12.152
38296W        W 9967  26.418  21.817  14.440
38297W        W 9968  39.338  11.247   4.624
38298W        W 9969  24.640  26.329  12.472
38299W        W 9970   1.271  32.573  12.812
38300W        W 9971   5.681  39.244   2.896
38301W        W 9972   1.165   1.480  10.668
38302W        W 9973  38.008  36.638  12.130
38303W        W 9974  28.214   2.067   4.207
38304W        W 9975   3.900  20.710  10.419
38305W        W 9976   9.071   5.411  12.556
38306W        W 9977   5.293  13.721  12.245
38307W        W 9978  36.752   2.441   2.445
38308W        W 9979  14.640  36.575   1.962
38309W        W 9980   5.263   8.360   1.465
38310W        W 9981  24.166   9.251  12.560
38311W        W 9982  16.335   6.801   0.411
38312W        W 9983   2.617   6.409  11.077
38313W        W 9984  10.768  37.124  11.110
38314W        W 9985  17.633   1.247  11.277
38315W        W 9986   9.584  39.608  11.492
38316W        W 9987  23.322  24.929  12.775
38317W        W 9988   3.295  32.095  11.557
38318W        W 9989   2.571  14.411   2.296
38319W        W 9990  25.039  28.617   0.863
38320W        W 9991  37.589   4.792   1.210
38321W        W 9992  19.290  27.973  13.655
38322W        W 9993  23.058   7.428  12.836
38323W        W 9994  16.596  37.365  11.157
38324W        W 9995  17.691  25.221   3.394
38325W        W 9996  21.413  41.023   0.689
38326W        W 9997  44.982   1.835   3.733
38327W        W 9998   1.743  21.255  13.442
38328W        W 9999  28.075  10.599  14.756
38329W        W10000   8.278  29.513   4.819
38330W        W10001  11.390  18.380   2.335
38331W        W10002  40.995  24.545  14.852
38332W        W10003  14.622   7.006  10.727
38333W        W10004  32.884  21.826   3.625
38334W        W10005  20.412  39.727   4.632
38335W        W10006  39.572   1.620  13.389
38336W        W10007  43.577   1.034  10.764
38337W        W10008  38.951   9.607   4.681
38338W        W10009  40.300  26.950  13.397
38339W        W10010  29.121  37.892  14.012
38340W        W10011  29.584  44.530  10.797
38341W        W10012  29.422  34.642   1.464
38342W        W10013  38.919  12.628  12.046
38343W        W10014  21.777  37.531  10.073
38344W        W10015  40.546  30.593  13.114
38345W        W10016  39.811  10.142   2.891
38346W        W10017  26.247   7.030  13.844
38347W        W10018  23.239   6.019   0.366
38348W        W10019  17.090   4.087   4.664
38349W        W10020   5.863  31.580  11.040
38350W        W10021   6.180  31.562  12.559
38351W        W10022  44.844  11.458   3.364
38352W        W10023  30.612  15.344  10.605
38353W        W10024  30.176  19.182   1.427
38354W        W10025  27.069  10.767  10.544
38355W        W10026  27.579  40.995   3.579
38356W        W10027  40.529  25.638  10.640
38357W        W10028  11.416  12.708  12.513
38358W        W10029   9.525  26.851   2.629
38359W        W10030   7.645   8.785  10.628
38360W        W10031  42.534   1.293   0.807
38361W        W10032  28.025   2.937  10.679
38362W        W10033  11.770  31.085  10.726
38363W        W10034  40.479   6.660   5.081
38364W        W10035  14.755  35.399   1.411
38365W        W10036   2.925  43.237  13.206
38366W        W10037   1.356  12.526   0.715
38367W        W10038  40.912   6.918   1.250
38368W        W10039  20.770   1.410   3.004
38369W        W10040   1.810   0.001  14.885
38370W        W10041  44.007  13.813   1.323
38371W        W10042   9.790  33.878  13.427
38372W        W10043  10.147  14.678  11.443
38373W        W10044  36.115  32.883   2.417
38374W        W10045   7.687  24.318   2.493
38375W        W10046  21.160  25.485   1.030
38376W        W10047  26.485  31.610  13.910
38377W        W10048   1.828  43.742   4.717
38378W        W10049  23.234  35.362   4.660
38379W        W10050  18.479  41.066  14.389
38380W        W10051  25.608   4.495   2.097
38381W        W10052  28.195  19.920  12.871
38382W        W10053   3.216  42.847  12.344
38383W        W10054  26.627  19.298   4.414
38384W        W10055  25.246   6.843   0.734
38385W        W10056  40.519  35.435   3.249
38386W        W10057  29.970  17.260   2.357
38387W        W10058  22.202  34.072   3.250
38388W        W10059  41.339  13.218   2.776
38389W        W10060  17.817  27.961   0.227
38390W        W10061   4.673  22.108  11.962
38391W        W10062  25.391  37.850   4.692
38392W        W10063  44.516  36.419   3.403
38393W        W10064  32.902  24.417  13.001
38394W        W10065  25.231  40.557  11.473
38395W        W10066  22.733  18.285   1.887
38396W        W10067  12.604  20.007  11.195
38397W        W10068   0.849  11.324   0.537
38398W        W10069  20.877  13.151   4.779
38399W        W10070  37.420  44.947  13.500
38400W        W10071  34.052   9.715   4.291
38401W        W10072  43.465  28.997   1.394
38402W        W10073  27.471  29.075   2.614
38403W        W10074   5.693  28.895   2.314
38404W        W10075   1.968   5.258   3.679
38405W        W10076  26.525  32.895  14.297
38406W        W10077  41.116  16.765   3.445
38407W        W10078   2.360  15.731  13.345
38408W        W10079   2.298  43.373  13.306
38409W        W10080  14.615  17.729   3.904
38410W        W10081  20.189  16.078   2.674
38411W        W10082  28.003   7.114  12.571
38412W        W10083  14.633  32.502   3.394
38413W        W10084  36.819   6.781   0.304
38414W        W10085  30.463  37.341   1.876
38415W        W10086   6.411  28.419   1.309
38416W        W10087  40.724  31.518  12.252
38417W        W10088  35.504  32.692   0.239
38418W        W10089  21.589  37.102  11.623
38419W        W10090  12.655  15.344  14.430
38420W        W10091   2.724  27.096  11.281
38421W        W10092  31.427  17.522   1.834
38422W        W10093  26.753  39.949  13.475
38423W        W10094   7.067  26.182  11.976
38424W        W10095  22.204  17.747  14.342
38425W        W10096  26.168  37.375  11.439
38426W        W10097  34.482   3.371   3.141
38427W        W10098  33.144   9.634   1.042
38428W        W10099  17.493  10.404  10.307
38429W        W10100  33.937  16.132  11.069
38430W        W10101  40.003  32.368  14.687
38431W        W10102   4.918  31.010  14.854
38432W        W10103  22.064  28.139   4.628
38433W        W10104  38.061  38.242   2.796
38434W        W10105  36.319   4.779   4.146
38435W        W10106  33.085  38.574   0.361
38436W        W10107   8.778  23.761  13.436
38437W        W10108  23.806   1.356  12.844
38438W        W10109  37.461  33.654  13.833
38439W        W10110  37.058   2.213  11.722
38440W        W10111  25.497  14.677   2.773
38441W        W10112  10.719  14.287   4.724
38442W        W10113  42.207  24.820  14.899
38443W        W10114   9.565  25.491  11.149
38444W        W10115  16.535   3.574   4.540
38445W        W10116   7.345  17.262   2.367
38446W        W10117   1.335  37.508  11.150
38447W        W10118   2.252  10.176  13.921
38448W        W10119   3.796  17.050   4.096
38449W        W10120   9.226   6.868   0.535
38450W        W10121  34.471  44.657   3.215
38451W        W10122  16.270  17.815   4.107
38452W        W10123  44.267  24.611   4.184
38453W        W10124   2.095  37.518   1.012
38454W        W10125   6.947   8.476   3.670
38455W        W10126  29.515  14.218   4.495
38456W        W10127  14.270  13.627   2.326
38457W        W10128   2.747  41.279   4.758
38458W        W10129  18.656  41.866  13.111
38459W        W10130  36.426   6.407   2.129
38460W        W10131  43.276  30.591  14.363
38461W        W10132  42.740  36.646  11.451
38462W        W10133  31.779   4.899  10.676
38463W        W10134   6.675  38.346  13.987
38464W        W10135   2.257  43.473  12.445
38465W        W10136   1.379  39.409  12.261
38466W        W10137   3.337  35.434   4.978
38467W        W10138   2.336  18.692  13.994
38468W        W10139  43.820  22.260  11.607
38469W        W10140   0.728  25.466  10.974
38470W        W10141  35.357   5.944  11.190
38471W        W10142  16.318  27.204  12.377
38472W        W10143  35.785   9.374   0.458
38473W        W10144  39.953  17.298  13.121
38474W        W10145  44.750  12.740  14.015
38475W        W10146  10.395   8.840  13.842
38476W        W10147   2.708   9.682  13.291
38477W        W10148  25.436  26.539   3.181
38478W        W10149  31.147  44.738   1.213
38479W        W10150   2.905  42.750   1.308
38480W        W10151  23.817  10.689   0.514
38481W        W10152  17.118  23.054   3.240
38482W        W10153   6.413  13.900  14.544
38483W        W10154  11.900  18.317   1.076
38484W        W10155  35.795  13.627   3.525
38485W        W10156  25.142  10.516   0.214
38486W        W10157  22.266  21.223   1.843
38487W        W10158  40.720  35.888   2.449
38488W        W10159   5.238  36.864  13.155
38489W        W10160   2.741  34.861  11.905
38490W        W10161  39.006  24.759  11.344
38491W        W10162  26.418  18.827  12.439
38492W        W10163  41.877   7.650   2.719
38493W        W10164   0.379  33.114   2.267
38494W        W10165  38.845  42.053   1.104
38495W        W10166  24.117  20.958   1.415
38496W        W10167  42.066  14.325   3.222
38497W        W10168  40.509  34.063  12.014
38498W        W10169  37.325  14.187   1.245
38499W        W10170  41.535  37.135  13.339
38500W        W10171  38.918  34.085   4.216
38501W        W10172   1.620   7.921  11.417
38502W        W10173  43.724  33.963   2.607
38503W        W10174  18.774  15.118  10.750
38504W        W10175  43.893   7.793  11.200
38505W        W10176   0.891  20.846  12.504
38506W        W10177  32.142   5.712  12.610
38507W        W10178  41.375  34.999  14.534
38508W        W10179  37.459  28.453  12.190
38509W        W10180  31.905  24.724  13.018
38510W        W10181  38.764   6.503   0.809
38511W        W10182  44.238  40.801  14.370
38512W        W10183  18.533  30.884   2.258
38513W        W10184  41.406  18.161  11.142
38514W        W10185  25.892  10.301  13.992
38515W        W10186   5.228  37.046   0.888
38516W        W10187  16.955  44.948   1.328
38517W        W10188   8.799  36.340   0.679
38518W        W10189  11.236  29.019   0.768
38519W        W10190  19.103  43.032   1.152
38520W        W10191   2.313   6.713   1.420
38521W        W10192  25.052  13.255   1.180
38522W        W10193  38.965  34.758  13.209
38523W        W10194  29.884   3.877  13.032
38524W        W10195  33.538   4.520   1.103
38525W        W10196  31.622  12.654  14.868
38526W        W10197  29.205  13.557   2.742
38527W        W10198  22.286   5.734   3.424
38528W        W10199  38.754  14.721   1.427
38529W        W10200  34.346  40.484   3.195
38530W        W10201  10.231  30.935  12.997
38531W        W10202  31.351  32.491   4.684
38532W        W10203  37.522  17.072   2.700
38533W        W10204  27.448  44.961   1.390
38534W        W10205  39.051  29.526   2.329
38535W        W10206  19.493  10.960   1.029
38536W        W10207  21.719  10.125   3.233
38537W        W10208   0.825  41.531  13.776
38538W        W10209  33.053   5.668   0.088
38539W        W10210  10.376   6.722   3.708
38540W        W10211  29.124  41.346   3.832
38541W        W10212   0.962  11.841  13.012
38542W        W10213  20.744   3.846  11.314
38543W        W10214  16.637  26.700  11.156
38544W        W10215   7.652  28.589   3.088
38545W        W10216  20.799  21.831   2.345
38546W        W10217  21.802   8.235   3.165
38547W        W10218  10.552   7.258  10.002
38548W        W10219  18.714   5.808   2.673
38549W        W10220  13.506  23.174   1.445
38550W        W10221  36.233  16.024  12.443
38551W        W10222  17.130  41.749   3.245
38552W        W10223   4.229  26.746   3.378
38553W        W10224   5.713  26.170   0.490
38554W        W10225   5.917  24.495  13.369
38555W        W10226  29.909   1.944  12.600
38556W        W10227  44.500  12.981  10.271
38557W        W10228  40.063  21.665   3.629
38558W        W10229  10.168  40.395   4.060
38559W        W10230  35.009  24.054   1.634
38560W        W10231   5.969  37.788   2.730
38561W        W10232   5.344  21.838  11.095
38562W        W10233  26.907   8.748  12.396
38563W        W10234  10.265  13.174  11.870
38564W        W10235  43.370   2.810  12.845
38565W        W10236  23.382  19.036  12.875
38566W        W10237  44.317  21.499  14.718
38567W        W10238  35.903  38.628   5.004
38568W        W10239  12.589  42.574   1.698
38569W        W10240  39.453   7.298   0.752
38570W        W10241  14.543  35.942  10.955
38571W        W10242  39.770   4.642   1.848
38572W        W10243  32.962  18.710  10.692
38573W        W10244  16.167  40.533  12.089
38574W        W10245  33.118   9.228  11.245
38575W        W10246  35.320   6.917   3.895
38576W        W10247  29.675  11.149   1.781
38577W        W10248  17.068   6.162  13.401
38578W        W10249  40.396  35.080   4.418
38579W        W10250  36.329   5.289   3.779
38580W        W10251  11.398  12.409  12.085
38581W        W10252   6.990  14.071  14.308
38582W        W10253  19.741   9.394   3.042
38583W        W10254   6.271  44.537   4.188
38584W        W10255  29.156  42.892  14.881
38585W        W10256  27.655  27.538   4.674
38586W        W10257  27.213   5.017   4.416
38587W        W10258   2.503  37.512   2.708
38588W        W10259   1.735  31.078  11.611
38589W        W10260  20.570  29.402  14.857
38590W        W10261  14.645  23.592   2.475
38591W        W10262  12.260   5.270  12.032
38592W        W10263  10.687  13.821   3.750
38593W        W10264  35.871  35.811  11.092
38594W        W10265  42.079  24.289   4.489
38595W        W10266  10.108  12.801   1.577
38596W        W10267  18.217   9.173  14.984
38597W        W10268  20.929  28.686  14.278
38598W        W10269  40.578  43.226   9.776
38599W        W10270   7.753   5.713  11.736
38600W        W10271  39.030  12.884   4.367
38601W        W10272  37.947   9.668  11.088
38602W        W10273  36.448  38.079  11.123
38603W        W10274   9.061  17.492   2.698
38604W        W10275  18.288  42.835   4.379
38605W        W10276   3.470  42.781   3.289
38606W        W10277  22.539  28.949   3.894
38607W        W10278  39.287  12.212   0.840
38608W        W10279  22.503   8.204   3.708
38609W        W10280  20.965  26.801   1.045
38610W        W10281  40.579  37.003  13.927
38611W        W10282   4.026  34.642  11.491
38612W        W10283  20.255  23.640   1.769
38613W        W10284  44.676  17.229  14.984
38614W        W10285  18.660  26.992   4.692
38615W        W10286  15.021  42.089  11.687
38616W        W10287   9.225  19.286   3.180
38617W        W10288  27.612  16.486   1.471
38618W        W10289   9.380   1.877   1.221
38619W        W10290   6.386  33.192   3.348
38620W        W10291  21.928  39.428  14.053
38621W        W10292  20.561   5.938  11.923
38622W        W10293  32.536  14.208   2.790
38623W        W10294  44.333   9.734   1.393
38624W        W10295  41.486  38.494   0.833
38625W        W10296  42.355  23.919  11.511
38626W        W10297  10.580  17.387   3.700
38627W        W10298  36.448  36.806  13.936
38628W        W10299   1.122  30.242  10.983
38629W        W10300   9.897  14.535   2.144
38630W        W10301  42.981   4.267   0.539
38631W        W10302  16.017  21.203   1.162
38632W        W10303  15.659   4.351   2.851
38633W        W10304  10.768  14.324   0.167
38634W        W10305  27.579  15.470  13.757
38635W        W10306  18.196  26.186   4.878
38636W        W10307  28.589  36.427  12.151
38637W        W10308   8.892  39.633   0.243
38638W        W10309   1.258  32.263  11.938
38639W        W10310  44.377  11.495  14.381
38640W        W10311  40.261   5.516  11.479
38641W        W10312  10.033  37.933   0.884
38642W        W10313  40.021  13.378   1.827
38643W        W10314  40.472  19.034  12.942
38644W        W10315  13.693  18.886  12.507
38645W        W10316   5.214   7.897   2.276
38646W        W10317  40.663  37.371  13.504
38647W        W10318  21.716  31.896   4.058
38648W        W10319  25.104  38.506   3.077
38649W        W10320   4.051  22.136  13.778
38650W        W10321  14.174  39.866  14.343
38651W        W10322  10.382  17.980  13.049
38652W        W10323  16.319  28.217   1.374
38653W        W10324  36.858  43.000   4.574
38654W        W10325  25.507  24.473  14.871
38655W        W10326  10.184  22.548  14.887
38656W        W10327  28.189  42.323   2.296
38657W        W10328   7.746  16.338   1.505
38658W        W10329  34.437   1.648  12.476
38659W        W10330  32.063  33.668  11.778
38660W        W10331  22.140   1.368   3.176
38661W        W10332  18.065  43.583  11.621
38662W        W10333   4.412   0.003   2.409
38663W        W10334  31.310  36.114  10.370
38664W        W10335  27.529  37.115   2.757
38665W        W10336  25.134  14.775  14.043
38666W        W10337  25.522  42.946   2.180
38667W        W10338  18.773  29.840  10.453
38668W        W10339  32.704  34.408   4.644
38669W        W10340  32.968  27.109  14.059
38670W        W10341  42.854  20.002   1.413
38671W        W10342  29.521  34.801  14.971
38672W        W10343  15.875  15.801   1.923
38673W        W10344  17.095   1.470  12.050
38674W        W10345  39.160   5.800  11.179
38675W        W10346  25.692  42.375  12.265
38676W        W10347  12.804  19.221   3.231
38677W        W10348  17.174   6.943  11.772
38678W        W10349  22.028  38.399   3.632
38679W        W10350   0.417  31.868  10.651
38680W        W10351  35.443  26.572  12.991
38681W        W10352  41.990  12.490   1.240
38682W        W10353  31.527  25.704  10.922
38683W        W10354  44.425  21.354  10.455
38684W        W10355  33.933  18.688  11.116
38685W        W10356  37.005  42.804  13.975
38686W        W10357  42.625  21.327  13.413
38687W        W10358   5.281  44.413  12.906
38688W        W10359  33.070   4.005  11.577
38689W        W10360  20.291   3.730  14.881
38690W        W10361  24.076  31.003  12.485
38691W        W10362   7.659  27.247   3.098
38692W        W10363  34.397  18.743  14.593
38693W        W10364  29.508  37.207   4.927
38694W        W10365   4.751   0.343  11.646
38695W        W10366  19.181  25.538   4.546
38696W        W10367  20.823   2.321   2.702
38697W        W10368  16.244   5.368   0.034
38698W        W10369  16.072  40.589   0.864
38699W        W10370  24.313   8.705   0.783
38700W        W10371  34.946   2.375  11.012
38701W        W10372   4.368  31.951  13.326
38702W        W10373   8.590  11.216   0.991
38703W        W10374  27.157  15.489   5.259
38704W        W10375  13.639  22.860  12.419
38705W        W10376  16.840   6.146  11.974
38706W        W10377  17.111  35.877  14.929
38707W        W10378  22.647  37.841   4.192
38708W        W10379  19.950  21.614   2.637
38709W        W10380  13.406  24.506   0.270
38710W        W10381  36.164  24.694  12.386
38711W        W10382  14.559  16.087  11.674
38712W        W10383  31.340  41.025  12.264
38713W        W10384  18.069  15.345  12.050
38714W        W10385  44.948  21.457  14.374
38715W        W10386  28.865   3.338   1.318
38716W        W10387  20.622  36.210   1.440
38717W        W10388  30.450  32.578   3.468
38718W        W10389  37.217   9.371  14.029
38719W        W10390  18.145  31.354  11.675
38720W        W10391  35.289  42.949   1.445
38721W        W10392  42.068  16.580  11.154
38722W        W10393  44.366  35.209  10.168
38723W        W10394  44.972  36.043   2.132
38724W        W10395  44.375  24.634   0.342
38725W        W10396  22.288  16.143   1.217
38726W        W10397   3.781  35.334  12.552
38727W        W10398  36.324  33.427   1.268
38728W        W10399  42.813  39.068   5.428
38729W        W10400   4.821   8.242   4.428
38730W        W10401  13.140  16.482  10.640
38731W        W10402  14.142  19.367   2.823
38732W        W10403  14.616  10.635   3.837
38733W        W10404  33.189  44.346   5.001
38734W        W10405  16.371  34.506  12.409
38735W        W10406   6.443  15.680  14.536
38736W        W10407  42.267  22.428  12.561
38737W        W10408  18.628  15.164   2.670
38738W        W10409  18.262  40.904  13.944
38739W        W10410  35.488  13.787  13.847
38740W        W10411  16.083  33.315   3.776
38741W        W10412  23.411  38.477   0.420
38742W        W10413  19.106  15.852   0.871
38743W        W10414  30.877  13.685  10.773
38744W        W10415  20.776   6.635  11.628
38745W        W10416   3.903  35.626   0.650
38746W        W10417  40.348   0.844   3.189
38747W        W10418  42.345   0.690   3.566
38748W        W10419  29.039  39.778  14.348
38749W        W10420  35.943  28.205  11.630
38750W        W10421  31.970  10.300   0.296
38751W        W10422  39.597  15.148  14.071
38752W        W10423   5.019   8.622  13.085
38753W        W10424  36.712  18.749   1.643
38754W        W10425  12.741   1.513  11.984
38755W        W10426  44.948  28.628   0.271
38756W        W10427  10.613  15.720  10.706
38757W        W10428   2.494   7.728  11.967
38758W        W10429  17.760  29.706   2.255
38759W        W10430  40.977  35.534  12.516
38760W        W10431  11.164  16.355  11.580
38761W        W10432  22.624  42.778   1.944
38762W        W10433  44.737  35.929   0.759
38763W        W10434  37.545  19.123   4.433
38764W        W10435  14.794  25.509  10.652
38765W        W10436  11.525  18.242   0.710
38766W        W10437  24.953  42.432   2.592
38767W        W10438  26.193   1.497   1.952
38768W        W10439  36.607  19.000  13.435
38769W        W10440  15.145   9.345  13.185
38770W        W10441  43.407  41.824   4.825
38771W        W10442  15.733  35.663   2.470
38772W        W10443  32.463  38.950   3.276
38773W        W10444  14.336  14.176   3.113
38774W        W10445   9.734  27.312  14.223
38775W        W10446   5.535   6.949   3.318
38776W        W10447  21.243  20.751   2.599
38777W        W10448  24.484  29.037  13.951
38778W        W10449   9.218   0.229  13.917
38779W        W10450  10.154  38.592   1.721
38780W        W10451  24.085   8.616  13.897
38781W        W10452  34.222  28.158   4.001
38782W        W10453  12.143   9.168   1.536
38783W        W10454  14.342  35.028  11.932
38784W        W10455   7.759  38.113   1.901
38785W        W10456   4.964  14.803   3.249
38786W        W10457  14.169  40.525   3.161
38787W        W10458   9.762  39.713   2.365
38788W        W10459  28.163  26.980  14.960
38789W        W10460  23.770  22.883   2.811
38790W        W10461  26.926  43.004   3.364
38791W        W10462  36.360  18.191   1.893
38792W        W10463   4.954  40.098   3.643
38793W        W10464  12.708  41.244  11.049
38794W        W10465   6.472  33.977   0.036
38795W        W10466  14.646  27.538  14.535
38796W        W10467   3.360  41.292   2.812
38797W        W10468  43.226  15.952   4.258
38798W        W10469  35.827  29.144  10.547
38799W        W10470   4.685   9.313   3.703
38800W        W10471  37.770  31.812   3.743
38801W        W10472  14.962  26.571   5.175
38802W        W10473   3.955   4.848  12.977
38803W        W10474  21.084  10.589   4.595
38804W        W10475  13.242  42.706   1.211
38805W        W10476   5.858  36.083  11.181
38806W        W10477  42.012  33.415  10.818
38807W        W10478  24.630  13.227  13.578
38808W        W10479  25.214  28.897   2.385
38809W        W10480  37.092  39.131  10.205
38810W        W10481   1.605   3.460  11.552
38811W        W10482   8.724  23.082  11.865
38812W        W10483  38.695   1.898   0.211
38813W        W10484  28.691   5.687  13.982
38814W        W10485  36.618  36.258  11.440
38815W        W10486  37.783  17.119   4.013
38816W        W10487   0.666  12.734  13.900
38817W        W10488  40.763  14.600  11.586
38818W        W10489  14.649  19.342   1.315
38819W        W10490  10.839   8.631  13.409
38820W        W10491  22.985  17.750   4.179
38821W        W10492  23.028  44.340   2.307
38822W        W10493  39.802  39.489  11.195
38823W        W10494  10.069  30.334   3.362
38824W        W10495   0.743  13.006   4.270
38825W        W10496  11.512  31.422  13.340
38826W        W10497  13.078  24.008   0.700
38827W        W10498   8.268  14.376  13.991
38828W        W10499   6.208  44.940   2.881
38829W        W10500  41.897  37.871  11.377
38830W        W10501  26.177   4.239  11.573
38831W        W10502  44.460  38.026  13.219
38832W        W10503  21.924   5.016  11.931
38833W        W10504  21.595  16.309   3.063
38834W        W10505  14.577  41.345   0.363
38835W        W10506  40.759  10.311   2.706
38836W        W10507  14.930  26.648   0.911
38837W        W10508  29.257  31.504  11.169
38838W        W10509  15.252  40.516  13.511
38839W        W10510  42.495  19.772  13.568
38840W        W10511  10.379  21.774  12.997
38841W        W10512  44.680  14.898  14.405
38842W        W10513   8.136  10.437   1.420
38843W        W10514  41.417  23.739   1.866
38844W        W10515   3.480   9.347  14.393
38845W        W10516  38.209  38.525   0.769
38846W        W10517  35.120  42.940  13.047
38847W        W10518  42.704  21.126  14.310
38848W        W10519   7.962   3.285   0.376
38849W        W10520  30.655  15.103   4.131
38850W        W10521  14.068   8.484  11.052
38851W        W10522  12.708  29.608  14.544
38852W        W10523  13.491   2.333  12.028
38853W        W10524  11.153   2.428   1.951
38854W        W10525  20.110  35.476   1.197
38855W        W10526  23.167  18.994  14.320
38856W        W10527   5.004  34.981   1.844
38857W        W10528  10.163  18.154   4.702
38858W        W10529  23.741  19.097   0.461
38859W        W10530  15.141  39.164  13.869
38860W        W10531   7.584  24.970   1.680
38861W        W10532  32.073   4.802  14.203
38862W        W10533   8.805  27.321  14.462
38863W        W10534  37.517  19.826   0.214
38864W        W10535  15.892  23.527   2.045
38865W        W10536  32.396  25.905   0.873
38866W        W10537  38.093  27.975   3.826
38867W        W10538   8.252  32.576  14.944
38868W        W10539  36.502  14.692   4.570
38869W        W10540  37.011  18.279   0.759
38870W        W10541  25.042  22.213  13.724
38871W        W10542  13.866  27.229   2.938
38872W        W10543  20.179   5.387  13.263
38873W        W10544   0.080  36.146   3.984
38874W        W10545  25.025  32.291  11.609
38875W        W10546  26.968  41.451   5.067
38876W        W10547  33.908   6.636  14.245
38877W        W10548  11.243  27.593   0.722
38878W        W10549  10.397  10.109  11.183
38879W        W10550  14.557  36.433  10.741
38880W        W10551  40.301  26.206  13.020
38881W        W10552   1.272  28.912   0.870
38882W        W10553   3.759  34.511   3.619
38883W        W10554  10.414  17.200   2.331
38884W        W10555   5.937  41.765   0.101
38885W        W10556  42.808  31.086   2.681
38886W        W10557  38.429   7.271   0.393
38887W        W10558  22.278  41.964  13.007
38888W        W10559   6.930   7.287  12.919
38889W        W10560  17.931  14.747   1.259
38890W        W10561  38.436  36.937   4.347
38891W        W10562  31.708   5.874   2.713
38892W        W10563   4.812  44.303  14.311
38893W        W10564   5.167  27.947   0.312
38894W        W10565  40.241   8.588  11.460
38895W        W10566   5.479  14.254  13.182
38896W        W10567   5.798   3.596  14.748
38897W        W10568  26.135   8.209  10.865
38898W        W10569  43.175  23.549  12.562
38899W        W10570  43.370   9.077   1.010
38900W        W10571  21.773  17.137   4.188
38901W        W10572  32.793  18.351  12.477
38902W        W10573  33.864   8.735  11.198
38903W        W10574  25.947  34.619   1.579
38904W        W10575  28.403  27.142  12.438
38905W        W10576  23.511  20.277  10.716
38906W        W10577  11.105  31.435  12.407
38907W        W10578  19.992  32.794   4.058
38908W        W10579  13.788  33.464  13.485
38909W        W10580   9.730  33.760  14.841
38910W        W10581  39.401  32.396  13.444
38911W        W10582   6.685  29.504  13.518
38912W        W10583  36.750   4.802   0.330
38913W        W10584  16.140  18.283  10.706
38914W        W10585  37.359   7.345   2.365
38915W        W10586   8.243  31.195  11.427
38916W        W10587  27.633  10.824   4.913
38917W        W10588  42.870  27.271   3.640
38918W        W10589  38.884   4.513  13.862
38919W        W10590  20.739  40.357  12.961
38920W        W10591   9.612  28.436   4.696
38921W        W10592  22.926  28.510  12.990
38922W        W10593  24.020  33.764   0.970
38923W        W10594  20.063  25.101   3.396
38924W        W10595  33.646  37.153  12.313
38925W        W10596   8.752  28.692   2.816
38926W        W10597  39.031  28.973  10.264
38927W        W10598   8.435  34.150  12.519
38928W        W10599  27.458  41.376   1.669
38929W        W10600   4.664  32.664   0.872
38930W        W10601  26.086  42.082  14.346
38931W        W10602   3.297  39.152   0.234
38932W        W10603  12.288  29.748  14.819
38933W        W10604   9.422  14.584  11.901
38934W        W10605  27.912   3.836   3.157
38935W        W10606  13.440  13.811   3.204
38936W        W10607  27.517  33.123  14.822
38937W        W10608  18.868   0.274   4.289
38938W        W10609   7.620   1.980  12.066
38939W        W10610  20.849  41.342   3.161
38940W        W10611  16.293   1.945   1.223
38941W        W10612  14.571  20.486  10.577
38942W        W10613   2.735   8.353   1.832
38943W        W10614  19.132   2.336   0.609
38944W        W10615  22.739   4.881   0.212
38945W        W10616  15.368  14.730  11.963
38946W        W10617   1.477  37.165   4.100
38947W        W10618  32.478  33.645   2.186
38948W        W10619  37.898  15.535  11.143
38949W        W10620  27.140  32.386  13.912
38950W        W10621  13.453  11.330  12.346
38951W        W10622   6.933  31.117   0.069
38952W        W10623  19.120  10.002  11.900
38953W        W10624  39.592  20.036  12.489
38954W        W10625  22.754  37.124  12.131
38955W        W10626  12.035  18.746   2.030
38956W        W10627  32.954  44.648   4.408
38957W        W10628   4.442  16.572  14.320
38958W        W10629   5.767  44.350   3.392
38959W        W10630  41.032  34.491   2.679
38960W        W10631  32.603  41.612  11.931
38961W        W10632  29.362  16.525  11.599
38962W        W10633   7.748  17.775  11.651
38963W        W10634  20.250  44.508   3.563
38964W        W10635  13.531  10.230  12.076
38965W        W10636  23.740  30.135   2.712
38966W        W10637  31.565   8.902   2.724
38967W        W10638  30.899  43.982   1.798
38968W        W10639   5.459  42.116  13.009
38969W        W10640  16.658  41.306   2.262
38970W        W10641  30.929  10.439  12.980
38971W        W10642  29.058  40.482  11.287
38972W        W10643  35.019  20.823   3.626
38973W        W10644  33.425   2.326   0.310
38974W        W10645   5.254  36.359  14.848
38975W        W10646   7.620  17.751  14.648
38976W        W10647  32.012  20.036   3.782
38977W        W10648  16.193  44.254  10.453
38978W        W10649  25.670  11.867   0.934
38979W        W10650  27.412  34.299  11.563
38980W        W10651  40.817  36.486  10.978
38981W        W10652  30.167  10.804  14.989
38982W        W10653  15.299  32.571  14.438
38983W        W10654  31.069  34.037  14.020
38984W        W10655   0.390  39.531   2.717
38985W        W10656  31.963   1.337   4.748
38986W        W10657  28.284  17.806   1.226
38987W        W10658   1.978   1.674  14.103
38988W        W10659   6.622   4.802  14.397
38989W        W10660  34.531  26.449  13.075
38990W        W10661  10.552  31.974   2.692
38991W        W10662  36.377  15.648  12.093
38992W        W10663  13.325  36.537  14.760
38993W        W10664  43.269  19.578  12.575
38994W        W10665  40.799  22.993   3.608
38995W        W10666  39.317  17.427  12.396
38996W        W10667  28.584  36.531  14.071
38997W        W10668  40.747  36.459  12.374
38998W        W10669  37.365  38.398  14.030
38999W        W10670  42.495  23.061  13.416
39000W        W10671  43.964  34.574   1.518
39001W        W10672   4.193  23.049   3.733
39002W        W10673  22.710  18.177   4.055
39003W        W10674  19.311  29.645  14.376
39004W        W10675  12.364  13.699  13.894
39005W        W10676  44.031  33.374   1.259
39006W        W10677  27.675  20.228   1.237
39007W        W10678  35.491  32.356  14.279
39008W        W10679  33.268  21.113  10.432
39009W        W10680  33.067   0.802  11.487
39010W        W10681  41.544  29.321   2.729
39011W        W10682  41.896  15.876   1.221
39012W        W10683  23.513  14.046   1.325
39013W        W10684  10.645  15.124   4.241
39014W        W10685  23.257  26.714   4.591
39015W        W10686  10.393  19.189  13.376
39016W        W10687   2.888  20.678   0.491
39017W        W10688  27.801  44.537  14.927
39018W        W10689  13.201  21.463  10.319
39019W        W10690  22.260  26.425   1.615
39020W        W10691  21.948  24.941   0.922
39021W        W10692   5.152  29.580  11.568
39022W        W10693  19.572  32.572  10.729
39023W        W10694  23.545  21.869   2.772
39024W        W10695  24.285  36.419   0.414
39025W        W10696   5.234  11.342  10.685
39026W        W10697  23.943  15.353  13.866
39027W        W10698  18.097  26.982   4.569
39028W        W10699  39.102  15.679  11.622
39029W        W10700  25.131  16.577  12.923
39030W        W10701  16.368  31.464  12.037
39031W        W10702   4.213  36.824  14.336
39032W        W10703   1.261  44.473   4.835
39033W        W10704  29.042  30.604   4.825
39034W        W10705  20.924  39.038   0.253
39035W        W10706  39.025   8.319   0.807
39036W        W10707   1.255  19.004   5.372
39037W        W10708  12.114  13.238  13.702
39038W        W10709  16.669  39.406   4.201
39039W        W10710  28.025  26.604   5.026
39040W        W10711  24.565   4.667   4.184
39041W        W10712  10.589   4.480  14.887
39042W        W10713  32.676  38.056  10.802
39043W        W10714  22.008  26.109  12.943
39044W        W10715  19.608  29.367   3.716
39045W        W10716  24.717  18.495  13.430
39046W        W10717  37.072   1.506   1.546
39047W        W10718  26.517  41.870   0.483
39048W        W10719   5.727  24.694  14.897
39049W        W10720   5.354   7.974  13.981
39050W        W10721  28.233  40.257  11.307
39051W        W10722  24.269  21.534   0.939
39052W        W10723   3.180  37.056  11.144
39053W        W10724  38.815  36.835  12.876
39054W        W10725   9.821  29.725   2.318
39055W        W10726  32.879  22.165  12.678
39056W        W10727  36.510   9.633   1.441
39057W        W10728  42.004   8.835   3.883
39058W        W10729   3.055   8.727   3.877
39059W        W10730   4.034  41.894  14.872
39060W        W10731   9.302  24.440  12.461
39061W        W10732  19.793  42.407   1.697
39062W        W10733  40.307  35.813   0.396
39063W        W10734  37.381  34.143   4.460
39064W        W10735  38.842  11.162  11.802
39065W        W10736   4.934   8.492  10.823
39066W        W10737  41.851  37.926  14.409
39067W        W10738  25.119  18.633  13.849
39068W        W10739   8.746  35.478   3.891
39069W        W10740  13.364  31.482  14.225
39070W        W10741  26.609  33.187   0.304
39071W        W10742  22.143  10.563  11.165
39072W        W10743  39.003  21.467  14.065
39073W        W10744  40.288  43.443  13.573
39074W        W10745   9.678  31.497  13.779
39075W        W10746  37.437  29.063  12.970
39076W        W10747  31.870  20.085  11.109
39077W        W10748  36.902  18.997  12.967
39078W        W10749  44.841  15.352   1.369
39079W        W10750  33.128  39.465   2.148
39080W        W10751  27.200   3.194  14.829
39081W        W10752  34.791  31.487   3.403
39082W        W10753   8.881  26.288  14.646
39083W        W10754   6.346  12.628  12.444
39084W        W10755  30.947  17.656   3.752
39085W        W10756   8.865  21.543   4.091
39086W        W10757  15.198   0.729   3.265
39087W        W10758  25.809   3.275  12.945
39088W        W10759  15.758  21.708  13.348
39089W        W10760  10.021   4.775  13.819
39090W        W10761   5.700   4.946   4.336
39091W        W10762  23.217  22.678  10.659
39092W        W10763  41.509  27.669   3.053
39093W        W10764  37.076  23.778   1.549
39094W        W10765  27.936  14.256   0.761
39095W        W10766   3.702   8.147   1.449
39096W        W10767  19.574  11.609   4.617
39097W        W10768  32.646  19.647   0.250
39098W        W10769  29.661  36.294  13.459
39099W        W10770  29.487  32.259  12.832
39100W        W10771   0.427  34.266   4.514
39101W        W10772  37.334  31.352   0.872
39102W        W10773  21.506  15.308  11.762
39103W        W10774  41.381   5.248  13.024
39104W        W10775  17.173  14.204  12.459
39105W        W10776  35.635  40.349   0.315
39106W        W10777  43.080  37.062   2.255
39107W        W10778  17.834  28.476  11.592
39108W        W10779   9.733  25.615   0.864
39109W        W10780  44.445   0.479   4.644
39110W        W10781  44.501   8.248   0.497
39111W        W10782  23.048  43.410  14.074
39112W        W10783  38.751  29.627   1.817
39113W        W10784   1.366  16.301  10.931
39114W        W10785   7.025  26.156   4.910
39115W        W10786  32.396   2.789   2.806
39116W        W10787   5.383   6.396  11.018
39117W        W10788  28.967  33.311   2.116
39118W        W10789  32.679  42.541  12.063
39119W        W10790  21.645  11.140   0.468
39120W        W10791  28.353  10.530  13.453
39121W        W10792  34.537  38.856  11.435
39122W        W10793  40.782  11.752   4.908
39123W        W10794  31.075  13.325   1.320
39124W        W10795  32.908  28.970  11.906
39125W        W10796  30.076  15.177   3.484
39126W        W10797  37.841  41.364  10.940
39127W        W10798  11.537  20.367   1.706
39128W        W10799  35.317  15.826   2.843
39129W        W10800   6.668  28.975   2.288
39130W        W10801  31.011  29.569   4.614
39131W        W10802   1.775  35.005  11.951
39132W        W10803  40.383  23.764  11.198
39133W        W10804  40.285  29.451  12.536
39134W        W10805  43.733  25.490  11.102
39135W        W10806  30.679  28.494  14.269
39136W        W10807  17.388  24.019   4.052
39137W        W10808  34.723  43.053  12.574
39138W        W10809  37.171   5.358   3.365
39139W        W10810  13.373  20.607   3.277
39140W        W10811  24.613  20.127  13.375
39141W        W10812  24.645  32.711   2.719
39142W        W10813  34.333   0.755  12.530
39143W        W10814  15.085  39.303   3.333
39144W        W10815  36.164  22.633  13.305
39145W        W10816  36.882  40.428   5.099
39146W        W10817   0.795   6.111  11.938
39147W        W10818   7.852  18.022   2.409
39148W        W10819  30.198  34.597  11.255
39149W        W10820   2.853  44.410  14.851
39150W        W10821  14.326  17.087  11.665
39151W        W10822  17.248  32.358  14.365
39152W        W10823  11.849   1.563  11.587
39153W        W10824  32.834  12.140   3.889
39154W        W10825   4.198  32.112   4.257
39155W        W10826  24.662  44.235  11.639
39156W        W10827  36.005   6.749   2.159
39157W        W10828  40.989  34.956  11.758
39158W        W10829  33.865  29.884  10.785
39159W        W10830  18.623  33.661  10.713
39160W        W10831  38.860   0.603  10.676
39161W        W10832  38.598  28.342  10.641
39162W        W10833  27.330   5.146  11.219
39163W        W10834  42.373  44.119   2.836
39164W        W10835  32.386  44.537  10.011
39165W        W10836  23.064  19.964  11.816
39166W        W10837  12.178  23.259   2.206
39167W        W10838   2.264  12.851  13.831
39168W        W10839  26.245  23.910  12.514
39169W        W10840  39.491  38.651   2.376
39170W        W10841   2.871  41.276  11.926
39171W        W10842  33.644  32.567   4.556
39172W        W10843   5.606  41.947   0.815
39173W        W10844   0.523  14.647  13.094
39174W        W10845  15.824  44.694  12.463
39175W        W10846  20.260  43.237   2.388
39176W        W10847  29.835  36.834  14.197
39177W        W10848  28.159  15.209  10.661
39178W        W10849  25.942   7.447  13.910
39179W        W10850  26.099  19.074  14.173
39180W        W10851  32.217  38.592   0.227
39181W        W10852   1.461  38.960   0.649
39182W        W10853  44.941   8.292  10.775
39183W        W10854  36.849  17.617  12.525
39184W        W10855  18.298  17.368  14.725
39185W        W10856  19.679  32.247   5.045
39186W        W10857  17.279  43.420   2.851
39187W        W10858  23.073  14.749   4.577
39188W        W10859  43.751   4.152  13.509
39189W        W10860  43.019   5.631   3.210
39190W        W10861  10.662  38.404  10.620
39191W        W10862  20.447  13.258   2.356
39192W        W10863  20.698  22.256  12.655
39193W        W10864  19.570  40.835   1.624
39194W        W10865  24.237   5.834  11.175
39195W        W10866  29.171  20.108   1.265
39196W        W10867  21.535   9.439  13.501
39197W        W10868  41.984  38.796   5.014
39198W        W10869  35.811  20.352   3.176
39199W        W10870   2.734  43.010   4.257
39200W        W10871   6.828  17.177  12.105
39201W        W10872  34.383  35.851   1.846
39202W        W10873  31.575  21.925   0.052
39203W        W10874   4.352  37.260  14.133
39204W        W10875  35.720  12.101  14.696
39205W        W10876  21.295  23.680  14.937
39206W        W10877  29.415  35.355  14.868
39207W        W10878  20.716   2.793  13.396
39208W        W10879  41.844   7.177   4.278
39209W        W10880  22.157  37.815   1.282
39210W        W10881  26.477  25.483  12.940
39211W        W10882  24.117  12.626  11.252
39212W        W10883  34.195  18.882  10.728
39213W        W10884   4.505   8.781  13.948
39214W        W10885  11.945  40.002   1.810
39215W        W10886   3.367   5.254   2.098
39216W        W10887  25.154  36.959   4.236
39217W        W10888   2.947  33.704   5.089
39218W        W10889  11.778  28.743   3.787
39219W        W10890  38.898  26.891   2.657
39220W        W10891  18.723  31.007   3.110
39221W        W10892   0.852  10.020   1.243
39222W        W10893   1.837  34.665   1.322
39223W        W10894  16.625   6.246  14.889
39224W        W10895  33.734   8.275  11.021
39225W        W10896  37.314  33.389  12.354
39226W        W10897  12.943  38.297  11.143
39227W        W10898   1.838   5.894  11.642
39228W        W10899  20.013   6.671   0.286
39229W        W10900  34.356  26.773   4.219
39230W        W10901  41.014  41.287   2.667
39231W        W10902   3.212   7.717   1.440
39232W        W10903   7.776  29.245   2.642
39233W        W10904  44.277  23.083  10.629
39234W        W10905  41.366  13.220  13.831
39235W        W10906  30.599  16.269   3.173
39236W        W10907  30.161  44.834  12.978
39237W        W10908   9.650  10.859   0.372
39238W        W10909  39.527  39.115  11.670
39239W        W10910  29.866  40.872  14.748
39240W        W10911  37.039  39.946   2.573
39241W        W10912  38.371  17.213  10.694
39242W        W10913  41.675   2.241   2.899
39243W        W10914  28.937   4.742  14.373
39244W        W10915  36.943  13.935   0.882
39245W        W10916  20.068   0.551  12.953
39246W        W10917  43.856  41.963   2.378
39247W        W10918   5.174  12.827   0.996
39248W        W10919  26.704  15.662   2.525
39249W        W10920  14.894   6.128   2.283
39250W        W10921  29.985  41.536   2.826
39251W        W10922  19.134  37.006   3.530
39252W        W10923  18.750  25.700   0.743
39253W        W10924  16.125  31.070   2.636
39254W        W10925  33.953  16.801   1.499
39255W        W10926  11.891   4.506  10.734
39256W        W10927   4.913  31.589  11.956
39257W        W10928  11.782  36.976  11.790
39258W        W10929   2.256  42.881   1.810
39259W        W10930   4.309  13.280   0.737
39260W        W10931  42.815  12.668  14.881
39261W        W10932  43.821  27.020   4.431
39262W        W10933  19.820  32.949  14.587
39263W        W10934  28.090  13.854   3.384
39264W        W10935   0.331  34.849   3.689
39265W        W10936  18.102  40.156   0.791
39266W        W10937  28.670  11.435  10.665
39267W        W10938   5.139  27.586  12.624
39268W        W10939  16.293   9.620  12.035
39269W        W10940  21.183  42.733   0.463
39270W        W10941  14.298  21.534  12.401
39271W        W10942  25.118   7.263  12.450
39272W        W10943  27.038  33.918  13.286
39273W        W10944  40.407  37.297   3.104
39274W        W10945  13.487  35.717  10.161
39275W        W10946  17.705   7.635   0.749
39276W        W10947   5.910  39.465   3.324
39277W        W10948  17.627  24.453  10.745
39278W        W10949  23.271  41.903   2.363
39279W        W10950  15.325  37.766   4.464
39280W        W10951   9.819  31.590  14.285
39281W        W10952  36.834  30.617  12.127
39282W        W10953   2.294  34.700   9.855
39283W        W10954  23.741   4.768  12.939
39284W        W10955  39.607  18.230  11.923
39285W        W10956  15.674  28.614  10.666
39286W        W10957   8.113  19.211  12.472
39287W        W10958  27.521  39.549  12.586
39288W        W10959   2.891  27.200  14.813
39289W        W10960  29.258  34.106   4.305
39290W        W10961   7.462  29.579   4.776
39291W        W10962  42.903  16.853  14.668
39292W        W10963  41.985  18.478   3.152
39293W        W10964  44.439   9.338   2.941
39294W        W10965   7.382  33.907   2.307
39295W        W10966  33.377  44.814   4.172
39296W        W10967  18.978   4.379  13.687
39297W        W10968  35.384  21.093  11.540
39298W        W10969   0.622  38.982  10.731
39299W        W10970  42.600  19.721   4.673
39300W        W10971  36.587  37.521   0.522
39301W        W10972  25.725  32.646   4.167
39302W        W10973  36.776  26.691   4.282
39303W        W10974  34.382   8.154  13.996
39304W        W10975  25.101  42.835   2.905
39305W        W10976  41.805  25.067  13.578
39306W        W10977  43.507   7.719  10.888
39307W        W10978   4.736  13.260  10.158
39308W        W10979  19.943  19.087  14.789
39309W        W10980  12.994  25.014   4.230
39310W        W10981  43.232  35.820   2.770
39311W        W10982  31.729  17.209   0.023
39312W        W10983   3.665  22.278  12.103
39313W        W10984  12.374  29.929   3.840
39314W        W10985  28.322  37.035   2.351
39315W        W10986  12.851  36.363   3.708
39316W        W10987   4.759  28.062   3.234
39317W        W10988  37.613   6.310  12.556
39318W        W10989  42.314  42.020  12.102
39319W        W10990  37.072  30.644  13.625
39320W        W10991  11.194  17.352  13.558
39321W        W10992  36.521  11.971   0.780
39322W        W10993  10.564  26.365   0.354
39323W        W10994  21.333  42.992  12.456
39324W        W10995  15.612  36.738  12.524
39325W        W10996  39.622  34.472   3.702
39326W        W10997  25.303  33.646   0.380
39327W        W10998  18.601  33.031  12.067
39328W        W10999  30.432  44.057  12.566
39329W        W11000  14.077   4.738  10.323
39330W        W11001   5.361  42.903   1.695
39331W        W11002  12.026  24.585   0.103
39332W        W11003   2.888  23.463  11.488
39333W        W11004  23.262  26.151   2.461
39334W        W11005   9.267  42.374  11.636
39335W        W11006  29.886  39.403   2.658
39336W        W11007  25.766  25.047   2.836
39337W        W11008  27.203  24.479   0.910
39338W        W11009   9.693  34.630  13.015
39339W        W11010  13.725  13.813   1.174
39340W        W11011   6.889  31.208  14.575
39341W        W11012  32.597  18.331   0.889
39342W        W11013  41.432  10.350   4.421
39343W        W11014   6.783  17.229  14.356
39344W        W11015  18.804  22.069  12.611
39345W        W11016  34.071  12.288   3.275
39346W        W11017   0.736  37.435   4.161
39347W        W11018  23.486   6.748   4.439
39348W        W11019  42.487  17.520  11.655
39349W        W11020   0.911  36.369   4.159
39350W        W11021  24.301  40.037   2.060
39351W        W11022  36.460  26.957   4.662
39352W        W11023  10.101  28.112  12.140
39353W        W11024  43.842  25.042  12.043
39354W        W11025   8.346   5.254   4.634
39355W        W11026  13.950  23.957  12.155
39356W        W11027  29.930  37.052   4.046
39357W        W11028   3.680  18.819  14.521
39358W        W11029  24.690  31.694   4.058
39359W        W11030  20.037  28.142  10.276
39360W        W11031   8.699  32.406  11.541
39361W        W11032  34.170  34.905  14.360
39362W        W11033  19.173  19.176   2.885
39363W        W11034  10.365  43.689   0.849
39364W        W11035  11.246  43.713  13.084
39365W        W11036  35.114  14.387   1.833
39366W        W11037  14.451  22.388  13.381
39367W        W11038   6.871  25.799  11.142
39368W        W11039  22.030  29.338   3.322
39369W        W11040  28.321  29.154  11.629
39370W        W11041   7.244  29.578  13.977
39371W        W11042  30.226  15.786   0.835
39372W        W11043   5.105  13.396   0.373
39373W        W11044  20.128  19.972  11.185
39374W        W11045   2.835   7.286   4.647
39375W        W11046  42.101   2.728   1.201
39376W        W11047  33.533  34.061   1.937
39377W        W11048  19.803  33.716   4.128
39378W        W11049  11.158  42.573   4.556
39379W        W11050  16.770  22.070   2.610
39380W        W11051  22.793   6.408  13.117
39381W        W11052  11.064  26.181   0.978
39382W        W11053  18.612   0.493  11.672
39383W        W11054  11.684  11.694   2.756
39384W        W11055  40.005  19.088  13.539
39385W        W11056  23.022  10.775  14.439
39386W        W11057  22.950  13.701   1.939
39387W        W11058  26.694  34.196  12.542
39388W        W11059  41.104   0.995   2.322
39389W        W11060  17.014  28.473  11.224
39390W        W11061  17.466   4.898   4.721
39391W        W11062  11.888  27.919  10.618
39392W        W11063  14.662  22.076   4.848
39393W        W11064  15.731  19.180   1.097
39394W        W11065  10.884  43.319   2.805
39395W        W11066  29.159  44.254  11.623
39396W        W11067   8.369  12.750  10.822
39397W        W11068  43.232  22.205   2.759
39398W        W11069  26.459  31.428  14.825
39399W        W11070  36.531  31.905  12.184
39400W        W11071  15.430  16.735   1.674
39401W        W11072   4.094  38.497  12.851
39402W        W11073  13.102  30.331   4.601
39403W        W11074  19.114   4.217   3.867
39404W        W11075  21.496  32.684  13.365
39405W        W11076   3.671   3.692   4.203
39406W        W11077  44.232  40.126   3.214
39407W        W11078  10.725  42.953  10.937
39408W        W11079   9.435  44.267  11.949
39409W        W11080  44.240  16.054   2.361
39410W        W11081  11.733   2.181   0.484
39411W        W11082  17.007  35.222  10.213
39412W        W11083  17.178  15.346  11.976
39413W        W11084  40.788  22.077  12.136
39414W        W11085  34.009   6.131   1.156
39415W        W11086  39.039  42.764   0.862
39416W        W11087   5.925  36.567   1.572
39417W        W11088  19.023  25.164  12.823
39418W        W11089  25.819  16.275   0.787
39419W        W11090  35.335   1.655   1.719
39420W        W11091  33.596  31.151  12.050
39421W        W11092  13.259  13.024   4.940
39422W        W11093  19.545   6.694   3.241
39423W        W11094  28.249  43.889  12.378
39424W        W11095  10.781  18.065   1.708
39425W        W11096  21.141  42.669   3.601
39426W        W11097  25.548  31.155  13.901
39427W        W11098  26.288  21.363  14.872
39428W        W11099  28.732  24.576  13.842
39429W        W11100   0.244  41.365  10.643
39430W        W11101  33.305  24.758  13.969
39431W        W11102   0.108   9.042  12.165
39432W        W11103  10.689  11.958  11.730
39433W        W11104  24.034  42.349   3.669
39434W        W11105  27.843  15.809  12.433
39435W        W11106   0.407  24.584  13.832
39436W        W11107  32.860  33.243   3.094
39437W        W11108  34.923  21.688   2.791
39438W        W11109  21.098  24.180   2.160
39439W        W11110  20.819   5.886   4.836
39440W        W11111  37.556  12.525   1.860
39441W        W11112  30.422   3.246   1.594
39442W        W11113  22.155  34.874   1.493
39443W        W11114   3.716  10.898   0.798
39444W        W11115  10.420  31.654   2.187
39445W        W11116  29.981  24.380   1.619
39446W        W11117  23.662  19.117   3.156
39447W        W11118   7.206  38.167  14.918
39448W        W11119  30.011  33.188   1.355
39449W        W11120  18.743  23.236  14.681
39450W        W11121  12.798  39.533  11.625
39451W        W11122  24.531   0.277  11.968
39452W        W11123  32.512  20.196   3.171
39453W        W11124  20.687  36.727   1.405
39454W        W11125   6.106  10.436   2.272
39455W        W11126  26.175  20.559  10.710
39456W        W11127  41.812  44.993  10.622
39457W        W11128   5.049   9.995   2.796
39458W        W11129  13.845  14.519  14.892
39459W        W11130  44.979  22.267  12.107
39460W        W11131  30.416  23.907  12.441
39461W        W11132   2.318  43.743  10.563
39462W        W11133  34.018  27.910   3.584
39463W        W11134  24.603   4.903  14.473
39464W        W11135   0.686  27.163   3.705
39465W        W11136  29.019  20.386   0.725
39466W        W11137  19.528  17.467  13.239
39467W        W11138  16.555  44.511  12.739
39468W        W11139  33.540  18.031  14.433
39469W        W11140  24.529  33.842   0.782
39470W        W11141  11.289  36.593   3.797
39471W        W11142  21.712  15.858   2.289
39472W        W11143  33.991  26.808  11.684
39473W        W11144  20.202   0.939  13.286
39474W        W11145  42.403  24.444   4.900
39475W        W11146   3.828   1.367  12.537
39476W        W11147   0.053   0.543   2.223
39477W        W11148  16.679  14.816   0.822
39478W        W11149   3.343  29.727   3.224
39479W        W11150  16.541  36.583  14.953
39480W        W11151  31.567  28.977   1.840
39481W        W11152  35.090  19.636   1.771
39482W        W11153  23.509  19.867  11.578
39483W        W11154  14.302   6.916  14.934
39484W        W11155  26.631   9.137  13.625
39485W        W11156  42.281  18.320  11.978
39486W        W11157  20.559  20.579  14.523
39487W        W11158   0.906  33.334  14.817
39488W        W11159  22.248  28.433   0.392
39489W        W11160  21.846  31.889  14.277
39490W        W11161  28.844  29.377   4.657
39491W        W11162  24.102   2.158  11.113
39492W        W11163  31.100  14.858  12.036
39493W        W11164  19.686  22.883   2.181
39494W        W11165  32.447  21.202  11.478
39495W        W11166   2.759  13.161   4.869
39496W        W11167   1.804  11.742  11.068
39497W        W11168   0.219  12.544  14.071
39498W        W11169  33.540   6.229  12.512
39499W        W11170  34.587   1.457  14.961
39500W        W11171  40.363  40.271  12.977
39501W        W11172   9.692   4.909   0.329
39502W        W11173  13.878  27.716  11.818
39503W        W11174  11.771  38.931   1.480
39504W        W11175  10.240  43.413   1.316
39505W        W11176  33.135  36.569   4.944
39506W        W11177  17.681   7.208   4.162
39507W        W11178   8.275   9.281  11.447
39508W        W11179  31.218  40.275  14.531
39509W        W11180  25.719  14.558   4.491
39510W        W11181  40.342  21.113   4.241
39511W        W11182  38.857  30.043  11.660
39512W        W11183  43.763   8.187  10.849
39513W        W11184  15.610  44.004   1.797
39514W        W11185  29.183  42.544   1.348
39515W        W11186  44.880  34.963  12.539
39516W        W11187  25.371  12.378   2.297
39517W        W11188  33.356  12.191   1.241
39518W        W11189  18.307  11.144   2.906
39519W        W11190   6.628   9.304   3.430
39520W        W11191   0.964  41.468  12.442
39521W        W11192   3.471  34.846  10.443
39522W        W11193  37.690   1.990   3.868
39523W        W11194  13.438  38.224   0.900
39524W        W11195  33.581   1.735  14.476
39525W        W11196  42.754  27.408  13.812
39526W        W11197  34.106   9.691  13.439
39527W        W11198  19.180  28.685   0.750
39528W        W11199  16.562  17.518  14.759
39529W        W11200  23.189   5.549  13.285
39530W        W11201  40.343  11.878   4.087
39531W        W11202  21.586  19.718   3.037
39532W        W11203  33.557  37.800   1.977
39533W        W11204  39.849   9.751  11.432
39534W        W11205  23.915  10.180  13.833
39535W        W11206  19.056  31.425  13.081
39536W        W11207   3.996  24.793   4.079
39537W        W11208  34.822  24.467  12.980
39538W        W11209  32.065  29.502  13.271
39539W        W11210   8.409  40.425  12.884
39540W        W11211   0.155   3.687  10.616
39541W        W11212  35.985  21.506   4.379
39542W        W11213  30.890   2.235  14.572
39543W        W11214   1.409  12.309  14.309
39544W        W11215  29.041   1.777   1.947
39545W        W11216  33.155  33.536  14.347
39546W        W11217  42.492  23.940   2.176
39547W        W11218  40.765  16.034   2.460
39548W        W11219  24.986  17.338  12.128
39549W        W11220  34.874   0.772  12.449
39550W        W11221  12.518  43.165  11.686
39551W        W11222  29.032  10.613  14.907
39552W        W11223  11.336  25.537   3.682
39553W        W11224  27.113  26.086  11.614
39554W        W11225  29.322  22.866   3.424
39555W        W11226   8.384  40.584   4.727
39556W        W11227  24.211  19.095   2.272
39557W        W11228  16.216  37.957  12.807
39558W        W11229   7.701  18.193   0.442
39559W        W11230  41.039  38.334  12.778
39560W        W11231  16.583  17.872  12.823
39561W        W11232   2.387  15.810  14.337
39562W        W11233  36.062  42.982   4.430
39563W        W11234  11.405   8.287  11.908
39564W        W11235   8.660  20.648  12.915
39565W        W11236  42.965  10.370  13.418
39566W        W11237  22.777  17.047  14.600
39567W        W11238  32.521  32.003  13.395
39568W        W11239   4.556  28.453   2.336
39569W        W11240  13.677  28.505   3.123
39570W        W11241  14.154  33.961  11.513
39571W        W11242  32.118  10.701   0.922
39572W        W11243   0.173  42.137   3.325
39573W        W11244  34.542   0.993   2.759
39574W        W11245  28.340  41.037  12.400
39575W        W11246  30.738  24.528  13.590
39576W        W11247  19.060  36.539  12.042
39577W        W11248  12.352  11.406   3.293
39578W        W11249  42.367  15.715   1.385
39579W        W11250  15.769   8.936  11.499
39580W        W11251  21.266  11.611  12.060
39581W        W11252  30.605  25.891  14.259
39582W        W11253  25.046  35.964  11.290
39583W        W11254  41.287  40.012   1.166
39584W        W11255  15.476  23.164  11.114
39585W        W11256  18.760   8.945  11.533
39586W        W11257  24.583  15.356   2.432
39587W        W11258  15.847  42.069  12.931
39588W        W11259   1.898  38.442   4.857
39589W        W11260  33.156   3.478   0.399
39590W        W11261  37.306  12.762  12.364
39591W        W11262  20.009  36.556  11.978
39592W        W11263   2.309  13.791   0.855
39593W        W11264  32.827  16.160   4.589
39594W        W11265  24.419  22.554   0.270
39595W        W11266  34.995  39.918  14.284
39596W        W11267   1.628  18.491   4.289
39597W        W11268  27.978   0.576  12.841
39598W        W11269  28.452  44.441   3.846
39599W        W11270   4.383  21.657   2.442
39600W        W11271  11.665  34.024   1.040
39601W        W11272   0.051  38.989  11.444
39602W        W11273   3.928  38.939  12.074
39603W        W11274  30.924  16.810   2.771
39604W        W11275   4.399  35.171  10.710
39605W        W11276  39.903   5.967  12.947
39606W        W11277  27.606  13.629  12.032
39607W        W11278  20.274   0.951   5.046
39608W        W11279   4.308  34.491   2.586
39609W        W11280  29.635   6.976  12.136
39610W        W11281  43.947  24.222   0.744
39611W        W11282  26.066  30.855   4.112
39612W        W11283  43.949  36.455   0.788
39613W        W11284  38.469  27.817  10.712
39614W        W11285  26.852  38.290   2.711
39615W        W11286  43.774  27.058  14.403
39616W        W11287  35.153  16.694  12.485
39617W        W11288  13.936  10.047  10.710
39618W        W11289   6.731  44.681   1.323
39619W        W11290  14.702  42.377  13.427
39620W        W11291  17.861  23.928   0.324
39621W        W11292  28.514  27.586  13.589
39622W        W11293  13.332  31.070  11.453
39623W        W11294   1.213  34.869   0.341
39624W        W11295  26.385  36.962  13.840
39625W        W11296   2.199   6.664  12.895
39626W        W11297  39.257   3.014   4.186
39627W        W11298   0.525   0.337  13.327
39628W        W11299   7.958  38.543   0.138
39629W        W11300   7.760  27.491  14.858
39630W        W11301  20.161  34.031  12.080
39631W        W11302  17.007   4.569  10.012
39632W        W11303  11.609  10.469   1.720
39633W        W11304  35.911  14.895   1.445
39634W        W11305  19.156  19.220  10.647
39635W        W11306  23.016  16.060  13.285
39636W        W11307  32.970  30.159  12.632
39637W        W11308  18.673  33.868   0.720
39638W        W11309   7.494  43.215   0.383
39639W        W11310  35.122  42.491   0.271
39640W        W11311  13.204  42.069  13.396
39641W        W11312  18.880  17.477   4.303
39642W        W11313   3.765  22.561  10.660
39643W        W11314  20.659  35.351  13.291
39644W        W11315  25.442  17.168  12.334
39645W        W11316  36.797  26.537  10.690
39646W        W11317   6.229  40.826  14.889
39647W        W11318  11.341  41.359   0.947
39648W        W11319  17.558  38.973   4.609
39649W        W11320  18.474  44.495  11.601
39650W        W11321  19.870  11.262   0.839
39651W        W11322  10.910   1.305  13.136
39652W        W11323  14.051  10.381  13.060
39653W        W11324  40.062   1.848   4.636
39654W        W11325  13.121  18.623   4.332
39655W        W11326  18.892  24.990   2.207
39656W        W11327   7.425  13.204   0.059
39657W        W11328  26.516   9.395  11.719
39658W        W11329  44.486  27.011   2.729
39659W        W11330  38.766  42.507  10.802
39660W        W11331  19.129  36.298   3.648
39661W        W11332  15.847  13.836  12.136
39662W        W11333   1.040  33.047  11.541
39663W        W11334  40.991   1.514   0.860
39664W        W11335  16.591   0.404  10.716
39665W        W11336  14.694  21.501  13.258
39666W        W11337  23.525  31.646   3.060
39667W        W11338  36.049  37.631  13.812
39668W        W11339  43.257  12.687  10.424
39669W        W11340  16.960  20.183   2.325
39670W        W11341  40.408  27.743  10.765
39671W        W11342  35.501  42.518   5.130
39672W        W11343  17.762  35.835  10.986
39673W        W11344   7.687   2.770   0.378
39674W        W11345   3.469  21.024  11.095
39675W        W11346  38.718  19.664  12.520
39676W        W11347  38.098  18.702   1.397
39677W        W11348  34.365  37.081   0.873
39678W        W11349  44.316  20.729   2.880
39679W        W11350  24.686   8.112  12.533
39680W        W11351  36.672  39.598   0.538
39681W        W11352   2.390  26.592   0.799
39682W        W11353   2.905  33.804  14.024
39683W        W11354   9.808  32.015   0.976
39684W        W11355   5.915  13.509   4.559
39685W        W11356  31.352   5.230   1.925
39686W        W11357  24.784  27.533  12.932
39687W        W11358  20.700  33.256  14.386
39688W        W11359  42.103   7.707  12.640
39689W        W11360   2.900   5.003   2.023
39690W        W11361  37.309  28.916   0.433
39691W        W11362  13.146   1.340   1.734
39692W        W11363   6.826   0.730   3.755
39693W        W11364  11.718  22.030   3.523
39694W        W11365  34.276   9.916  11.448
39695W        W11366  26.968  13.854   2.132
39696W        W11367  34.037  34.691   1.400
39697W        W11368  36.848  40.998   1.888
39698W        W11369  24.695   5.176  11.073
39699W        W11370  23.578  21.044  13.996
39700W        W11371  18.324  16.262   4.592
39701W        W11372  17.419   4.190   4.189
39702W        W11373   9.121  32.851  12.191
39703W        W11374  19.687   1.359  14.936
39704W        W11375  41.543  22.659   3.197
39705W        W11376   9.143   8.895   4.025
39706W        W11377  21.196  20.043  14.379
39707W        W11378  30.044  30.647   0.731
39708W        W11379  29.652  33.392   1.661
39709W        W11380  27.140  20.739   1.718
39710W        W11381   2.139  17.926  10.713
39711W        W11382   4.352  19.340  13.003
39712W        W11383  33.703   7.081   2.025
39713W        W11384  11.702  29.248   3.594
39714W        W11385  16.680  14.190  13.470
39715W        W11386   2.460   4.605  13.026
39716W        W11387   1.554  14.875  13.065
39717W        W11388  27.761  38.957  11.100
39718W        W11389   3.766   6.750   3.311
39719W        W11390  21.021  24.082   1.650
39720W        W11391  27.155   3.352   4.044
39721W        W11392  26.258  12.222   1.847
39722W        W11393   9.224  37.914   1.980
39723W        W11394  33.019  10.797   1.832
39724W        W11395  15.097  26.818   0.467
39725W        W11396  37.470  34.326  14.530
39726W        W11397  14.087  15.058   1.107
39727W        W11398  41.906  36.670   0.010
39728W        W11399   0.891   4.509   4.146
39729W        W11400  42.906  30.362   2.448
39730W        W11401  28.176  44.949  14.866
39731W        W11402  11.755  41.786   4.656
39732W        W11403  43.220  31.095  12.106
39733W        W11404  13.313  38.849  12.132
39734W        W11405  23.676   3.677   4.596
39735W        W11406  38.942   7.429  13.926
39736W        W11407  18.099  34.281   3.736
39737W        W11408  42.153  25.014  13.973
39738W        W11409  42.216   6.675  11.287
39739W        W11410   9.747  37.126  13.590
39740W        W11411   6.740  31.679   3.342
39741W        W11412  32.620  13.074  10.557
39742W        W11413  13.848  25.732  11.638
39743W        W11414  16.348  13.775  10.626
39744W        W11415  24.813  33.088   0.850
39745W        W11416  12.033  33.526   3.179
39746W        W11417  34.594  27.464   1.618
39747W        W11418   3.549  19.629   5.122
39748W        W11419   2.872  25.659   0.402
39749W        W11420  12.413  32.570   0.012
39750W        W11421  29.185   9.927   5.522
39751W        W11422  39.180  28.463   3.223
39752W        W11423  12.263  37.350   1.470
39753W        W11424  41.312   7.229   2.360
39754W        W11425  31.907  28.694  10.746
39755W        W11426   4.434   6.214  10.986
39756W        W11427   1.884   7.306  12.646
39757W        W11428  36.469  25.926   1.330
39758W        W11429  14.150  26.700   1.393
39759W        W11430  41.974   6.210  10.752
39760W        W11431  23.254   6.446   3.597
39761W        W11432  28.207   3.951  12.368
39762W        W11433   1.933  11.894   4.079
39763W        W11434  30.554  12.301  14.829
39764W        W11435   9.867  17.632   3.234
39765W        W11436  24.974  33.394  11.911
39766W        W11437  44.357  17.188  10.836
39767W        W11438  10.851   6.926   4.592
39768W        W11439  15.868  22.750   3.811
39769W        W11440  44.939  16.074  10.676
39770W        W11441  18.222  15.599   3.415
39771W        W11442  12.597  35.995  14.941
39772W        W11443  14.177  24.080  13.910
39773W        W11444  10.252  15.328   3.263
39774W        W11445  44.095  20.482   4.637
39775W        W11446  29.211   7.440   1.388
39776W        W11447  37.852   1.551   4.117
39777W        W11448  26.473  28.400  10.532
39778W        W11449  11.924  10.659  14.799
39779W        W11450  30.530  33.233   0.610
39780W        W11451  44.337  44.941  13.878
39781W        W11452   4.983  11.991  11.147
39782W        W11453  23.490  25.048   4.156
39783W        W11454  39.586   3.022  12.468
39784W        W11455   9.762   9.742   1.688
39785W        W11456  10.686  14.707  11.509
39786W        W11457   7.122  43.937   4.120
39787W        W11458  35.543   8.923  11.274
39788W        W11459   5.723  23.630  14.915
39789W        W11460   1.488  14.617  14.955
39790W        W11461  10.188  44.507  12.389
39791W        W11462  11.076  16.624   3.753
39792W        W11463  43.966   3.765   1.162
39793W        W11464   1.271   0.336  11.984
39794W        W11465  43.997   0.813  11.008
39795W        W11466   2.778  41.205   1.286
39796W        W11467  28.202  23.414  14.251
39797W        W11468  28.198  14.458   1.209
39798W        W11469   9.452  27.205  11.175
39799W        W11470  14.114  22.181  12.092
39800W        W11471  32.893  18.687  11.580
39801W        W11472  44.283  24.523  14.818
39802W        W11473  16.065  38.564   0.649
39803W        W11474  43.895  14.228  13.997
39804W        W11475  16.472  43.591  12.665
39805W        W11476  37.579  37.241   2.673
39806W        W11477  24.106  26.194   3.027
39807W        W11478   9.304  23.493  13.481
39808W        W11479  30.996  43.470   1.676
39809W        W11480  41.778   7.873   4.021
39810W        W11481   3.579   1.726   4.139
39811W        W11482  15.771  31.112  12.358
39812W        W11483  18.821  13.724  14.305
39813W        W11484  41.737  17.595  13.452
39814W        W11485   0.802  13.290  10.965
39815W        W11486  21.018  18.778   1.746
39816W        W11487  31.485  19.576  12.038
39817W        W11488  41.312  26.133  12.028
39818W        W11489  15.043  29.201  13.649
39819W        W11490   5.704  14.525  12.113
39820W        W11491  41.321  17.787  13.245
39821W        W11492  18.813   8.892   2.702
39822W        W11493  24.523  17.279   2.416
39823W        W11494  26.501  10.751   4.643
39824W        W11495   6.277  42.422  14.457
39825W        W11496  28.157  13.180   2.165
39826W        W11497  44.961   8.157  14.738
39827W        W11498  28.956  18.101  10.770
39828W        W11499  13.803  20.104  11.888
39829W        W11500  27.646  10.095  10.018
39830W        W11501   5.401   9.034   0.905
39831W        W11502  20.528   9.164   1.228
39832W        W11503  18.349   3.082  12.834
39833W        W11504   8.241  35.190   1.727
39834W        W11505  13.419  21.210  10.697
39835W        W11506  14.592  27.514  12.521
39836W        W11507  33.251  14.099   4.815
39837W        W11508  34.649  24.010  13.140
39838W        W11509  28.121  25.060   0.665
39839W        W11510  35.039  14.816   1.434
39840W        W11511  39.929  43.998   3.312
39841W        W11512  39.854   2.228  11.207
39842W        W11513  34.007  11.851   2.579
39843W        W11514  19.131  14.703  10.573
39844W        W11515  21.761   2.465  12.132
39845W        W11516   2.936  15.556   0.433
39846W        W11517  24.581  25.061   1.495
39847W        W11518  44.846  36.109   0.280
39848W        W11519  23.468  11.380  11.598
39849W        W11520  12.675  32.348  11.033
39850W        W11521  37.028   8.081  14.892
39851W        W11522   3.921  12.407  10.659
39852W        W11523  43.217  29.370   3.042
39853W        W11524   6.994  15.937  12.490
39854W        W11525  12.001  42.947   4.109
39855W        W11526  29.540  10.986   0.291
39856W        W11527  28.521  19.666  14.972
39857W        W11528  40.181  32.450  10.992
39858W        W11529   0.938  36.464   1.722
39859W        W11530  17.543  14.412   0.904
39860W        W11531  27.665  41.330  11.853
39861W        W11532  11.822  15.181  12.549
39862W        W11533  15.739  37.923   0.864
39863W        W11534  18.109  41.023   4.111
39864W        W11535  41.944  37.414  11.120
39865W        W11536  21.612  33.847  11.163
39866W        W11537  43.262  14.380  12.207
39867W        W11538   6.817  17.990   3.674
39868W        W11539  34.034  44.007   1.805
39869W        W11540  14.648  41.487   4.559
39870W        W11541  17.419   6.861   1.952
39871W        W11542  24.039  15.970   1.422
39872W        W11543  35.087  16.245  13.528
39873W        W11544  30.131  41.349   0.369
39874W        W11545   8.203  20.269   2.617
39875W        W11546   8.866  17.855  12.034
39876W        W11547  41.344  12.255  11.575
39877W        W11548  33.966  33.622   1.329
39878W        W11549  11.394  19.682   0.971
39879W        W11550  30.019   9.130  14.073
39880W        W11551   7.662  21.089  11.235
39881W        W11552  10.532  35.859  11.534
39882W        W11553   0.573  34.134  13.484
39883W        W11554  15.663   5.856   0.714
39884W        W11555   8.708  17.537   0.606
39885W        W11556   0.738  41.843  14.185
39886W        W11557   8.755  25.678   2.934
39887W        W11558  44.216  32.383   1.660
39888W        W11559  19.286  15.817  11.844
39889W        W11560  21.424  21.505   0.297
39890W        W11561  31.655   7.859  13.112
39891W        W11562  23.592  27.474   4.059
39892W        W11563   5.217  16.331   2.863
39893W        W11564   5.755   2.828   2.268
39894W        W11565  13.398   8.594  10.654
39895W        W11566  15.768   5.930   2.122
39896W        W11567   8.658  12.228  12.898
39897W        W11568  33.143   8.642   2.753
39898W        W11569  18.692   6.949  14.611
39899W        W11570   6.167  37.390  12.541
39900W        W11571  37.220   6.253  12.100
39901W        W11572  23.629  18.286   3.887
39902W        W11573   4.407  18.655  12.345
39903W        W11574  40.857  40.996   3.230
39904W        W11575  18.759  26.127  13.055
39905W        W11576  25.140  16.681   3.206
39906W        W11577  32.445  42.242  11.144
39907W        W11578  20.699   7.137  10.641
39908W        W11579   7.812  36.580   0.622
39909W        W11580  28.671  39.418   2.119
39910W        W11581   2.526  10.281  14.761
39911W        W11582  10.253  31.951  14.648
39912W        W11583  44.018  26.548   4.363
39913W        W11584   2.538  17.835  12.026
39914W        W11585   1.722   2.657   2.599
39915W        W11586  28.831  16.750  10.661
39916W        W11587   9.258  43.576   3.584
39917W        W11588   4.723  10.744  11.154
39918W        W11589  14.221  43.593  13.759
39919W        W11590  35.504  39.325  14.105
39920W        W11591   7.792  27.710   0.825
39921W        W11592  44.859  28.235   0.759
39922W        W11593   5.240  34.488  11.115
39923W        W11594  32.215   3.229   1.840
39924W        W11595  35.918  32.458  13.975
39925W        W11596  21.601  36.035  12.913
39926W        W11597  33.623  10.716  11.551
39927W        W11598  30.951   9.042  13.545
39928W        W11599  11.866  28.653   2.367
39929W        W11600   6.622   5.279  14.070
39930W        W11601  24.118  38.621  12.943
39931W        W11602  29.958  36.107   4.145
39932W        W11603  39.824  10.320  13.580
39933W        W11604  10.271  14.894   0.402
39934W        W11605  33.401  23.321   0.001
39935W        W11606  34.174  20.688   4.052
39936W        W11607   7.695   5.200   2.417
39937W        W11608  30.712  31.487  14.010
39938W        W11609  23.072  22.800  13.448
39939W        W11610  37.159  30.971  14.050
39940W        W11611  26.476  20.041   0.744
39941W        W11612  41.016   3.354   0.752
39942W        W11613  25.329   8.806   0.708
39943W        W11614  15.547  15.149   3.614
39944W        W11615  23.626   6.686   0.990
39945W        W11616  14.445  29.565  14.347
39946W        W11617  39.469  44.422   0.969
39947W        W11618  21.537  17.201  11.234
39948W        W11619  32.081  34.009  12.961
39949W        W11620   8.924   8.302   0.427
39950W        W11621  25.019   7.087  11.544
39951W        W11622  44.495  16.248  10.888
39952W        W11623  23.048  37.490  13.772
39953W        W11624  39.784  39.996   2.910
39954W        W11625  34.839   4.881  10.143
39955W        W11626  18.159   1.189  11.247
39956W        W11627   4.901  26.065   0.758
39957W        W11628   7.203  36.291   2.916
39958W        W11629  44.545  42.072   2.869
39959W        W11630  35.099   9.159   1.153
39960W        W11631  42.763  21.887   0.699
39961W        W11632  40.554  27.017  12.945
39962W        W11633  34.399   6.680   3.269
39963W        W11634  35.293  42.237  14.267
39964W        W11635  37.926   9.834   2.358
39965W        W11636  35.585  11.784  10.686
39966W        W11637  39.837  20.956  11.281
39967W        W11638  32.004  16.541  11.500
39968W        W11639  44.294  13.318  13.929
39969W        W11640  32.565   5.347   3.253
39970W        W11641  32.230  24.982  14.461
39971W        W11642  44.487  33.559  10.993
39972W        W11643  44.750   7.825   3.068
39973W        W11644   8.562  32.116  10.458
39974W        W11645  28.496  44.202  11.960
39975W        W11646  37.617  26.195   2.291
39976W        W11647  40.791  16.107   4.223
39977W        W11648  31.136  33.574  14.940
39978W        W11649  11.504  24.558   0.219
39979W        W11650  42.428  20.454  11.738
39980W        W11651  27.171  15.281  14.523
39981W        W11652   6.865  39.624   2.200
39982W        W11653  12.677  32.248  13.445
39983W        W11654  20.620  26.496   2.420
39984W        W11655  31.592   9.899  11.944
39985W        W11656  26.651  15.619  13.851
39986W        W11657  12.041  37.306  11.488
39987W        W11658  23.463  41.049  14.914
39988W        W11659   2.218  36.385  12.758
39989W        W11660  19.540  14.594  12.536
39990W        W11661  37.578  35.628  12.857
39991W        W11662  23.042   4.504   3.292
39992W        W11663  35.463  29.953   4.666
39993W        W11664  20.075  27.095   4.718
39994W        W11665  25.259  24.123  12.357
39995W        W11666  15.553   0.939  11.386
39996W        W11667  38.069   6.514   3.899
39997W        W11668   1.306  14.372   1.523
39998W        W11669  35.822  19.676   4.207
39999W        W11670  44.756  41.980   2.191
40000W        W11671  30.245  29.167   3.245
40001W        W11672   7.243  30.049  14.397
40002W        W11673   7.165  37.902   1.952
40003W        W11674  38.341  11.337  10.887
40004W        W11675  14.624  21.639   4.072
40005W        W11676  31.744  18.149   1.174
40006W        W11677   4.055  39.043   3.292
40007W        W11678   5.974  39.933   3.553
40008W        W11679  23.068  30.591  14.064
40009W        W11680   4.346  27.116  12.569
40010W        W11681  31.143  13.850  11.182
40011W        W11682  32.738  13.122   4.745
40012W        W11683  15.694  39.614   3.543
40013W        W11684  18.539  10.070  12.560
40014W        W11685  16.920  10.737   1.996
40015W        W11686   8.180   2.994  14.254
40016W        W11687  32.536   1.507  14.651
40017W        W11688  28.496  38.885  12.955
40018W        W11689  34.385  22.078  10.421
40019W        W11690  34.084  37.507  11.530
40020W        W11691  14.136  39.380  13.000
40021W        W11692  17.476  19.758   0.010
40022W        W11693  44.388  20.640  10.151
40023W        W11694  16.226  44.685   2.790
40024W        W11695  30.210  26.068  13.341
40025W        W11696  21.196  20.777  14.778
40026W        W11697  17.212  20.926   0.548
40027W        W11698   7.863  30.234  11.993
40028W        W11699  20.634  22.131   1.866
40029W        W11700  30.418  31.600  13.545
40030W        W11701   0.383  23.025   4.268
40031W        W11702  35.388   5.311   4.822
40032W        W11703  43.081  44.153  12.466
40033W        W11704  22.042   3.244  13.075
40034W        W11705  26.638  20.403  10.820
40035W        W11706   0.298  34.504   0.872
40036W        W11707  44.881   2.439  14.799
40037W        W11708  23.902   0.894  14.951
40038W        W11709  21.487  29.459  12.117
40039W        W11710  17.838  12.336   0.817
40040W        W11711   0.889  22.668  11.892
40041W        W11712  15.506  10.670   2.329
40042W        W11713   8.431  23.593  14.075
40043W        W11714  14.614  27.042   0.232
40044W        W11715  15.294  15.794   0.197
40045W        W11716  14.060   3.262   2.694
40046W        W11717  37.047   0.205  11.183
40047W        W11718  41.332   2.776   1.714
40048W        W11719  38.051   4.374  12.125
40049W        W11720  16.804  12.638   3.747
40050W        W11721  38.952   4.960   0.399
40051W        W11722   0.532  37.067  12.071
40052W        W11723  14.726  26.902  11.563
40053W        W11724  36.592  15.553  11.641
40054W        W11725  22.535   7.766   2.778
40055W        W11726  33.890  33.830   3.576
40056W        W11727  36.342   1.239  13.406
40057W        W11728  39.246  24.084  10.638
40058W        W11729  12.067   8.319   4.360
40059W        W11730  31.415  24.455   3.405
40060W        W11731  15.573  39.464   0.295
40061W        W11732   1.854  16.648  10.637
40062W        W11733   7.804  23.451   2.926
40063W        W11734  40.444  18.670   4.397
40064W        W11735  16.445  20.339   0.940
40065W        W11736  34.997   7.134   4.588
40066W        W11737   9.388  18.650  10.663
40067W        W11738  10.816  12.151  14.983
40068W        W11739  43.723  33.985   3.138
40069W        W11740  29.106  38.934   4.059
40070W        W11741  21.788   9.636   3.382
40071W        W11742  20.248  42.328   1.949
40072W        W11743  23.120  30.571   4.259
40073W        W11744  13.617  23.589   3.116
40074W        W11745   4.664  20.322  10.961
40075W        W11746  11.084   8.208  14.200
40076W        W11747  16.043  15.752   0.980
40077W        W11748  27.018  10.350  13.561
40078W        W11749  31.960   1.047   0.805
40079W        W11750   7.924  29.670   1.287
40080W        W11751   6.259  30.829  12.057
40081W        W11752  42.139   5.476  12.937
40082W        W11753  43.082  34.633   3.715
40083W        W11754  20.294  34.135  14.902
40084W        W11755   3.488  32.571  11.189
40085W        W11756  15.360  17.200  13.407
40086W        W11757  17.120  35.578  12.457
40087W        W11758  22.147  37.469  10.654
40088W        W11759  14.233  41.752   2.229
40089W        W11760  37.810  23.806  12.886
40090W        W11761  11.729  37.451   3.182
40091W        W11762  10.488  28.605   4.212
40092W        W11763   8.812  25.658   4.643
40093W        W11764  12.891  13.926  11.065
40094W        W11765  19.566  42.233  12.530
40095W        W11766  34.583  44.356   1.975
40096W        W11767   9.757  44.772   0.483
40097W        W11768  21.477   6.152   2.470
40098W        W11769  13.914  24.477  12.091
40099W        W11770  38.848  23.078  12.664
40100W        W11771   4.055  37.618   3.550
40101W        W11772  19.621  27.652   1.693
40102W        W11773  10.705  14.666   0.556
40103W        W11774  35.476  22.048   0.775
40104W        W11775  20.062   6.795  10.635
40105W        W11776  24.736  24.234  13.354
40106W        W11777  32.171  37.075   4.498
40107W        W11778  37.820  23.271   1.814
40108W        W11779   8.658  17.478   3.782
40109W        W11780   0.515   8.792   1.293
40110W        W11781  37.993   8.318   2.825
40111W        W11782  28.049  15.321  12.552
40112W        W11783   1.768   3.756   4.649
40113W        W11784  36.355  14.048   4.187
40114W        W11785  10.085   2.436   2.163
40115W        W11786  29.762   9.588  13.999
40116W        W11787   7.432   1.501  11.081
40117W        W11788  11.618   2.520   3.718
40118W        W11789   7.190  31.004  10.658
40119W        W11790  32.657  22.115  11.035
40120W        W11791  42.943   4.503   4.631
40121W        W11792  42.950  38.766  14.478
40122W        W11793  23.931  38.489  10.670
40123W        W11794  36.105   1.382  12.935
40124W        W11795  19.686   5.625   3.956
40125W        W11796  41.557  21.403   1.175
40126W        W11797  33.070   0.352   4.313
40127W        W11798   5.311  23.185  12.779
40128W        W11799   9.001  43.286   0.243
40129W        W11800  11.669  40.826  10.305
40130W        W11801   7.202  38.803   1.864
40131W        W11802  43.409  17.620   3.379
40132W        W11803  11.655  42.526   0.405
40133W        W11804   4.750  41.904  13.756
40134W        W11805  35.323   4.498  12.485
40135W        W11806  42.771  36.337   4.093
40136W        W11807  31.113  37.845   1.456
40137W        W11808  25.234  25.425  13.446
40138W        W11809   0.082  30.019  13.831
40139W        W11810  11.130  37.369   9.834
40140W        W11811  35.515  10.156  11.467
40141W        W11812  32.440  20.335   3.687
40142W        W11813  14.130  33.544   4.171
40143W        W11814  10.282  23.044  12.056
40144W        W11815  12.743   0.009  11.635
40145W        W11816  42.078  39.917  12.722
40146W        W11817   9.413   0.012  12.443
40147W        W11818  11.789  15.882  14.387
40148W        W11819  11.024  15.365  11.736
40149W        W11820   4.296  37.429   0.704
40150W        W11821   5.019  15.181  14.310
40151W        W11822  34.771  43.018   1.705
40152W        W11823  15.837  26.395   2.321
40153W        W11824   2.790  18.367  13.070
40154W        W11825  20.180   5.760   3.199
40155W        W11826   6.560  33.904   0.581
40156W        W11827  20.615  24.289   0.758
40157W        W11828   7.327  39.918   4.275
40158W        W11829  12.321  14.276   0.297
40159W        W11830  22.772  24.795   1.419
40160W        W11831  20.194  34.914   2.198
40161W        W11832   5.932   1.916   4.675
40162W        W11833   8.514  40.369  11.600
40163W        W11834  11.718  43.299  11.134
40164W        W11835   0.399  15.313  13.828
40165W        W11836   9.222  42.567   2.795
40166W        W11837  33.456   1.257   0.399
40167W        W11838  10.342   7.940   3.278
40168W        W11839  21.789  42.972  14.496
40169W        W11840   1.779  44.555   4.332
40170W        W11841   0.288   6.855  12.651
40171W        W11842  42.316  41.494  13.383
40172W        W11843  16.587  20.885   1.871
40173W        W11844   9.720  11.743   4.605
40174W        W11845  23.041  33.371   0.535
40175W        W11846  43.434   7.855   0.509
40176W        W11847   1.908  18.811  14.278
40177W        W11848  20.250  12.318   0.887
40178W        W11849  38.376  43.541  12.200
40179W        W11850  11.133  26.017   3.629
40180W        W11851  39.082  38.378   2.562
40181W        W11852  24.550   8.901   1.797
40182W        W11853  33.932  40.802  10.546
40183W        W11854  20.628  39.542   5.064
40184W        W11855   5.664   2.755  13.567
40185W        W11856   0.769  35.807   0.487
40186W        W11857  15.234   5.438   3.346
40187W        W11858  16.283  21.868  14.399
40188W        W11859   4.939  21.312   9.991
40189W        W11860   2.051  32.915   4.531
40190W        W11861  40.807  36.876  12.659
40191W        W11862  12.082  15.741   1.301
40192W        W11863   0.517  31.061  11.082
40193W        W11864  10.740  43.351  12.222
40194W        W11865  10.613  29.481  11.180
40195W        W11866  22.130  12.703   1.285
40196W        W11867  33.821  42.484  14.799
40197W        W11868  34.904   0.518  12.891
40198W        W11869  22.221  38.257  13.367
40199W        W11870   2.636   3.221  14.348
40200W        W11871  16.102  39.355   3.310
40201W        W11872  32.476  21.235   0.951
40202W        W11873  18.983   3.362   3.123
40203W        W11874  10.587  40.221   2.201
40204W        W11875   2.246  36.910  12.642
40205W        W11876   3.377   1.282   3.317
40206W        W11877  35.833  37.826   3.718
40207W        W11878  26.033  35.136  12.957
40208W        W11879  23.710  21.612  12.194
40209W        W11880  20.201  15.765   2.250
40210W        W11881  22.103   3.479   4.303
40211W        W11882  29.675   5.749   1.278
40212W        W11883  22.185   3.492  13.505
40213W        W11884  17.573   6.145  13.531
40214W        W11885  21.660  23.135   4.691
40215W        W11886  36.110  43.544   4.532
40216W        W11887   3.920  23.544   0.370
40217W        W11888  30.021  30.478   1.763
40218W        W11889  26.254  22.599  14.952
40219W        W11890  32.120  36.365   0.752
40220W        W11891  41.926  28.272   1.348
40221W        W11892  13.328  18.131   0.053
40222W        W11893   7.397  40.856  10.738
40223W        W11894  16.957   5.928  10.251
40224W        W11895  19.240  37.980  12.018
40225W        W11896  41.294  35.599  14.511
40226W        W11897  11.002  25.104   3.197
40227W        W11898  27.397  12.200   4.085
40228W        W11899   2.958   6.618  14.300
40229W        W11900   2.754  10.899  11.120
40230W        W11901  40.899  27.407  12.956
40231W        W11902   5.910  20.291   1.271
40232W        W11903  38.798   7.491  11.447
40233W        W11904  33.787   4.922   1.378
40234W        W11905  24.999  14.092   1.209
40235W        W11906  42.534  10.402  10.824
40236W        W11907  12.739  17.956   4.987
40237W        W11908  33.940  12.399   1.776
40238W        W11909  28.270  20.764   0.079
40239W        W11910  31.998   6.578  13.160
40240W        W11911  42.291  16.815  13.370
40241W        W11912  38.925  42.066  12.560
40242W        W11913  27.022  15.282   2.337
40243W        W11914   6.342  27.696  13.479
40244W        W11915  26.241  19.223   4.076
40245W        W11916  34.567   8.290   1.249
40246W        W11917   4.888  30.375   3.240
40247W        W11918  37.000  26.638  14.300
40248W        W11919  44.068  14.259   0.319
40249W        W11920  38.562  36.990   0.855
40250W        W11921  21.685  19.542  13.052
40251W        W11922  17.146  16.857   2.461
40252W        W11923  15.071  30.037  12.255
40253W        W11924   6.123   9.454   4.592
40254W        W11925   9.201  32.224   2.224
40255W        W11926  36.331  30.893  14.241
40256W        W11927   0.976   1.972  13.977
40257W        W11928  39.546  24.176   2.194
40258W        W11929  33.169   6.392  11.625
40259W        W11930  16.279  39.869   0.358
40260W        W11931  28.167  24.065   0.908
40261W        W11932  28.463  12.381  11.605
40262W        W11933  21.689  23.410  13.082
40263W        W11934  34.606  28.139  10.477
40264W        W11935  31.423  35.643  14.371
40265W        W11936   8.228  15.639   3.210
40266W        W11937  16.631  14.997   1.306
40267W        W11938  32.572  30.339  13.560
40268W        W11939  38.532  14.646   0.851
40269W        W11940  35.539  13.054  11.127
40270W        W11941  42.229  21.805  10.168
40271W        W11942  14.544  21.774   2.373
40272W        W11943   6.533  30.143   4.163
40273W        W11944  10.335  27.943   2.417
40274W        W11945  16.247   9.294  13.807
40275W        W11946  18.582  42.019  12.149
40276W        W11947  30.348  27.637   0.268
40277W        W11948   9.198  35.878   3.227
40278W        W11949  37.889  31.672   4.703
40279W        W11950  30.446  43.680  13.064
40280W        W11951  21.198   9.356  12.823
40281W        W11952  25.109  42.331   3.165
40282W        W11953  21.586   4.814  14.352
40283W        W11954  12.686  24.850  11.174
40284W        W11955  44.929  15.764   3.291
40285W        W11956   9.505   5.767   2.841
40286W        W11957  30.450  38.316   0.760
40287W        W11958  29.545  21.475   4.988
40288W        W11959   9.884  15.648  11.149
40289W        W11960  23.445  43.612   2.548
40290W        W11961  24.199  19.668  12.907
40291W        W11962  29.286  24.148  14.722
40292W        W11963  26.625  28.772   1.355
40293W        W11964  14.716   2.697   2.080
40294W        W11965  26.614  23.170  13.799
40295W        W11966  39.678  26.129  10.937
40296W        W11967  37.260   7.946  13.543
40297W        W11968  43.991  11.912   3.774
40298W        W11969  12.563  38.437  14.528
40299W        W11970  28.908  14.993  11.067
40300W        W11971  20.646  20.259   4.199
40301W        W11972  12.787   2.280   3.183
40302W        W11973  15.797  26.496  10.112
40303W        W11974   6.679  12.911   3.277
40304W        W11975  32.733  32.587   0.671
40305W        W11976   1.768  16.136   3.659
40306W        W11977  38.885  13.601  11.331
40307W        W11978  19.528  30.601  12.113
40308W        W11979   8.122  30.995  14.471
40309W        W11980  19.128  10.096  14.607
40310W        W11981  41.047  14.169   0.580
40311W        W11982  21.797  34.439  12.533
40312W        W11983  10.204  10.047  13.423
40313W        W11984  37.892  41.809  14.860
40314W        W11985  19.883   7.745   1.221
40315W        W11986  30.422  36.978  12.066
40316W        W11987  36.521  27.224   1.478
40317W        W11988  12.278  35.519  13.826
40318W        W11989   4.276  17.199  11.210
40319W        W11990  19.269  29.625  13.870
40320W        W11991  13.460  36.488   3.049
40321W        W11992  32.761  33.375   4.316
40322W        W11993  12.865  20.745   1.214
40323W        W11994   6.770  12.631  13.528
40324W        W11995  42.580  39.877  12.575
40325W        W11996  23.480  13.682   1.935
40326W        W11997  36.709  12.329   0.245
40327W        W11998  21.656   6.706  13.432
40328W        W11999  31.428  34.979  12.546
40329W        W12000  30.922  25.490  13.284
40330W        W12001  16.946  23.659   3.374
40331W        W12002  27.342  13.659  12.488
40332W        W12003  37.355   0.836  10.737
40333W        W12004  43.325   0.549   0.288
40334W        W12005  22.198  34.603  11.227
40335W        W12006  22.113  43.235   1.004
40336W        W12007  41.194  42.996  13.908
40337W        W12008  13.306  25.133  13.576
40338W        W12009   0.235  14.679   2.204
40339W        W12010   4.596   2.828   3.875
40340W        W12011  26.625   6.680  12.846
40341W        W12012  44.254   3.412  14.542
40342W        W12013  34.641  43.757  14.013
40343W        W12014  41.375  24.376  11.540
40344W        W12015  22.098  34.363   1.607
40345W        W12016  13.589  26.565  13.451
40346W        W12017  12.749  10.439  11.633
40347W        W12018  13.542  14.677   1.833
40348W        W12019   3.224   6.915  11.867
40349W        W12020  30.603   0.696   1.918
40350W        W12021  29.533  31.521   4.006
40351W        W12022  30.760  16.362   4.527
40352W        W12023   0.720  32.905  12.341
40353W        W12024  12.252   6.664  13.416
40354W        W12025   3.848  16.345  13.255
40355W        W12026  42.944   2.774  11.243
40356W        W12027  26.619  42.083  14.463
40357W        W12028   4.392   5.280   4.149
40358W        W12029  43.428  11.559   4.247
40359W        W12030  16.270  23.193  13.384
40360W        W12031  37.967   0.778  14.408
40361W        W12032  43.905  43.502  14.781
40362W        W12033  26.438  15.901  13.426
40363W        W12034   9.615  42.473   3.633
40364W        W12035   9.114   0.139  11.060
40365W        W12036   2.873  31.168   3.226
40366W        W12037   5.901   9.125   1.837
40367W        W12038  35.984  31.366   0.502
40368W        W12039  16.806   4.907   2.008
40369W        W12040  43.589   1.457   0.544
40370W        W12041  40.220  32.054   2.764
40371W        W12042  17.706   8.993   0.902
40372W        W12043  40.830  40.808  10.866
40373W        W12044  34.496  37.156  14.538
40374W        W12045  42.003  36.302  10.161
40375W        W12046  36.122  13.409  11.030
40376W        W12047  23.947  38.715  13.441
40377W        W12048  37.344   7.961   1.278
40378W        W12049  38.914  12.290   0.398
40379W        W12050   9.770   1.017  12.953
40380W        W12051  31.105  40.887   1.488
40381W        W12052  26.293  42.583  11.178
40382W        W12053  20.605  28.012  11.033
40383W        W12054  33.446  34.383   4.088
40384W        W12055  18.337   9.491   3.806
40385W        W12056   3.697  34.595   1.204
40386W        W12057  30.182  40.505   1.912
40387W        W12058  15.087  27.564  14.247
40388W        W12059   2.112  22.042   2.149
40389W        W12060  36.879   6.415   3.274
40390W        W12061  13.029   2.238  13.964
40391W        W12062  32.814  41.401   3.566
40392W        W12063  18.968  24.727  10.719
40393W        W12064  29.093   2.763  12.889
40394W        W12065  37.283  39.729  14.336
40395W        W12066  17.199  20.804  14.545
40396W        W12067  41.557  10.252   3.109
40397W        W12068  25.170  25.658  12.423
40398W        W12069  11.055  34.445   1.274
40399W        W12070  10.374  11.701  12.690
40400W        W12071  16.245  20.571   4.178
40401W        W12072  16.627  43.576   1.830
40402W        W12073  20.450   7.078  14.485
40403W        W12074  40.465  15.721  13.945
40404W        W12075  17.238  31.348  11.610
40405W        W12076  29.026  17.342  14.877
40406W        W12077   2.500  11.812  11.563
40407W        W12078  24.146   5.300  11.067
40408W        W12079  44.694   0.921   2.871
40409W        W12080  26.646  30.699   4.922
40410W        W12081  37.586  25.605   3.477
40411W        W12082   3.005  36.905   4.065
40412W        W12083  10.323  11.672   0.960
40413W        W12084  16.314   2.738   0.814
40414W        W12085  17.600  24.622  14.745
40415W        W12086   7.686  37.604   3.835
40416W        W12087  29.486  27.847   3.579
40417W        W12088  27.164  26.461   4.797
40418W        W12089  43.258  30.000  10.691
40419W        W12090  39.718  32.639  12.191
40420W        W12091  44.732  44.270  14.523
40421W        W12092  34.035  21.110  12.128
40422W        W12093   2.281  10.626   3.105
40423W        W12094  15.400   8.299   2.632
40424W        W12095  20.373   1.401   1.510
40425W        W12096  25.839  32.584  13.324
40426W        W12097  35.952  31.625  10.822
40427W        W12098   9.146   0.558   1.380
40428W        W12099  42.371  42.472  11.212
40429W        W12100  23.081   6.430  14.382
40430W        W12101  44.018  14.193  10.023
40431W        W12102  18.624   2.385   2.277
40432W        W12103  17.869  25.612  11.529
40433W        W12104  31.049  22.854   0.756
40434W        W12105  31.032  28.583   3.641
40435W        W12106  14.815  44.037   3.347
40436W        W12107  42.949   4.982   2.325
40437W        W12108  13.401  10.608   3.456
40438W        W12109  31.998   5.238  12.523
40439W        W12110  27.202  40.052  12.094
40440W        W12111  17.818  11.787  12.455
40441W        W12112  16.186  42.349   2.688
40442W        W12113  34.111   3.379  10.712
40443W        W12114  10.409  40.273   4.552
40444W        W12115  28.223  32.751   3.712
40445W        W12116  15.764  30.640   0.655
40446W        W12117  29.578   9.572  11.079
40447W        W12118   7.091   5.435   1.136
40448W        W12119   8.345  11.792  12.920
40449W        W12120  36.847  11.862   4.674
40450W        W12121  29.232   8.874  12.338
40451W        W12122  42.152  38.388   1.044
40452W        W12123  18.751  27.899   3.233
40453W        W12124  33.365  27.250   1.776
40454W        W12125  28.647  18.744   2.424
40455W        W12126  12.944   4.789   2.685
40456W        W12127  18.385  38.427   1.411
40457W        W12128  33.649  13.331  12.340
40458W        W12129  34.917  24.559   3.412
40459W        W12130  44.882  42.095  12.951
40460W        W12131   4.796   4.706   5.001
40461W        W12132   5.337  43.256   1.271
40462W        W12133  21.140  41.608   2.844
40463W        W12134  14.018  37.866   4.528
40464W        W12135   5.617   4.918   2.906
40465W        W12136   4.071  35.566  14.759
40466W        W12137  14.580  19.383   4.777
40467W        W12138   3.375  17.154  14.677
40468W        W12139  43.704   7.396   0.904
40469W        W12140   7.639   0.000   2.737
40470W        W12141  15.057  15.243  12.700
40471W        W12142  30.243  25.259  12.801
40472W        W12143  38.006  40.740  14.827
40473W        W12144  33.435  43.276  13.063
40474W        W12145  11.311  43.987  10.713
40475W        W12146  40.249  12.412   0.815
40476W        W12147  39.408   4.752  11.106
40477W        W12148  11.384   8.198  12.859
40478W        W12149  25.317  34.442  14.346
40479W        W12150   9.878  32.245  12.404
40480W        W12151  27.429   9.747   0.844
40481W        W12152   8.301  20.513  13.996
40482W        W12153  18.321  14.870   4.594
40483W        W12154  25.635   8.925   1.114
40484W        W12155  35.466  40.842  12.930
40485W        W12156  10.816  29.526  14.733
40486W        W12157  22.915  36.567  13.916
40487W        W12158   3.948  14.818  14.288
40488W        W12159   2.522   0.527  10.585
40489W        W12160  10.673  37.132   2.475
40490W        W12161  17.246  44.365   1.874
40491W        W12162  18.275  37.427   0.396
40492W        W12163  10.789  10.687  13.781
40493W        W12164  37.376  13.652  12.307
40494W        W12165  42.851  15.432   0.067
40495W        W12166   2.422   2.052  11.893
40496W        W12167   7.422  17.441   0.833
40497W        W12168  18.273  15.142  10.591
40498W        W12169  35.465  15.569   2.398
40499W        W12170   0.066   6.931   3.515
40500W        W12171  44.350   8.431  11.580
40501W        W12172  11.605  18.121  14.579
40502W        W12173  44.695  28.494  12.265
40503W        W12174  41.366   3.393  11.169
40504W        W12175  11.684  29.278   0.390
40505W        W12176  36.120  24.134  10.615
40506W        W12177  34.343   5.930  12.884
40507W        W12178  24.571   5.238   2.807
40508W        W12179  39.609  20.077  13.292
40509W        W12180  37.595  26.505   0.833
40510W        W12181  42.542  11.695  13.169
40511W        W12182  15.552  15.133  11.569
40512W        W12183  44.948   3.339   0.360
40513W        W12184   0.877   9.454   0.387
40514W        W12185   8.147  30.161  11.567
40515W        W12186   5.139  26.472  14.438
40516W        W12187  15.151  33.614   3.942
40517W        W12188  20.101   5.236   4.586
40518W        W12189   2.827   2.757  13.273
40519W        W12190  37.530  29.042  14.454
40520W        W12191  34.553  42.531   1.829
40521W        W12192   3.404  23.106  10.738
40522W        W12193   4.175  35.045  14.823
40523W        W12194  27.540  31.994   3.828
40524W        W12195  43.464  31.624   4.581
40525W        W12196   2.047  37.222   1.462
40526W        W12197   1.720  22.439   1.484
40527W        W12198   9.284  25.235   3.564
40528W        W12199  15.275  20.819   3.171
40529W        W12200   6.619   7.460  13.766
40530W        W12201   0.952  42.064  12.910
40531W        W12202  26.999  26.072   4.505
40532W        W12203   4.702  27.417   0.619
40533W        W12204  28.444  30.936   2.723
40534W        W12205  13.173  14.987   3.582
40535W        W12206  15.682   7.674   1.939
40536W        W12207  44.219  20.094   1.296
40537W        W12208  12.777  17.687  10.841
40538W        W12209  26.606   9.218  12.189
40539W        W12210  22.230   9.391   3.356
40540W        W12211  42.887  30.626   2.935
40541W        W12212  11.588  14.993   0.222
40542W        W12213  11.536  11.801  13.893
40543W        W12214  32.538   4.863   3.086
40544W        W12215  25.537   4.276   3.605
40545W        W12216  19.412  41.022   0.290
40546W        W12217  13.842  38.540  14.015
40547W        W12218  38.101  31.957  11.602
40548W        W12219  43.959  28.518   3.635
40549W        W12220   5.124  15.640  14.901
40550W        W12221  44.202  21.165   2.169
40551W        W12222  14.735  36.787   3.171
40552W        W12223  34.559  32.600   3.639
40553W        W12224   5.383   2.632   0.304
40554W        W12225  15.855  43.952   0.393
40555W        W12226  27.134  41.388  13.927
40556W        W12227  33.543  18.671  10.733
40557W        W12228   1.665  29.345   2.611
40558W        W12229  27.243   2.822  11.107
40559W        W12230  11.648   8.422   3.605
40560W        W12231   2.742   0.753   0.225
40561W        W12232  26.230   0.486   4.944
40562W        W12233  24.251  27.720  12.873
40563W        W12234  29.607   2.149   4.058
40564W        W12235  21.655  20.512  10.563
40565W        W12236  42.046  41.512   1.215
40566W        W12237   6.703   1.930   0.029
40567W        W12238   2.764   8.512   2.320
40568W        W12239   7.765  44.307  10.184
40569W        W12240  19.236   7.353   3.670
40570W        W12241   0.396  40.008   2.892
40571W        W12242  27.279  12.693   4.157
40572W        W12243  33.503  27.958   3.610
40573W        W12244  31.362  17.766   0.304
40574W        W12245  14.055  36.623   2.416
40575W        W12246  38.857   9.310   0.469
40576W        W12247   4.357  39.106  14.390
40577W        W12248   5.471  33.153   4.788
40578W        W12249   4.204  44.000  13.236
40579W        W12250  24.027  16.187   4.087
40580W        W12251  27.951   6.453  13.359
40581W        W12252   6.206   7.913  10.560
40582W        W12253  26.953  44.193  10.517
40583W        W12254  25.475  40.312  10.368
40584W        W12255  13.251  43.777   3.295
40585W        W12256   8.704  25.263  14.247
40586W        W12257  14.025  36.840  12.067
40587W        W12258  34.328  16.285   4.598
40588W        W12259  40.679  14.489  13.623
40589W        W12260  21.678   2.376   3.347
40590W        W12261   6.662   6.232   3.770
40591W        W12262   9.849  44.002  10.452
40592W        W12263  24.577  17.708   0.033
40593W        W12264   9.681  43.889  13.087
40594W        W12265  17.093  22.792   4.034
40595W        W12266   5.242  37.249   3.793
40596W        W12267  39.827  28.195  13.070
40597W        W12268  17.657  40.477  13.758
40598W        W12269  27.536  39.063   2.816
40599W        W12270   7.740  39.291  14.326
40600W        W12271   4.999  35.011  14.369
40601W        W12272  44.242   7.724   3.243
40602W        W12273  20.522   1.996  10.759
40603W        W12274  10.852   7.162  11.026
40604W        W12275   2.866   5.191  11.238
40605W        W12276  31.754  36.633  14.392
40606W        W12277  41.235  10.676  13.965
40607W        W12278  12.889  29.510   3.247
40608W        W12279   2.124  29.229  11.184
40609W        W12280  16.012  44.229   2.766
40610W        W12281  24.048  37.224   2.287
40611W        W12282  19.442  34.892   4.055
40612W        W12283  35.694  20.555   0.094
40613W        W12284  26.967  26.522  11.842
40614W        W12285  17.842  34.915  13.411
40615W        W12286  31.211   7.953   2.205
40616W        W12287  30.565  26.992  14.474
40617W        W12288   7.260  22.989  12.055
40618W        W12289  40.502  24.425   3.911
40619W        W12290  18.153  30.497   4.755
40620W        W12291  38.743  15.454  11.954
40621W        W12292   5.947  19.101   1.314
40622W        W12293  37.925   6.760  13.854
40623W        W12294   4.768  41.421   2.819
40624W        W12295   0.737  43.987  12.989
40625W        W12296  43.922   8.100   4.566
40626W        W12297   5.743   8.974   0.468
40627W        W12298   9.182  22.592   0.885
40628W        W12299  32.907   8.672   1.354
40629W        W12300  20.715  25.236   1.820
40630W        W12301   6.216  34.610  12.083
40631W        W12302  15.591  24.171   4.681
40632W        W12303  23.451  31.177  10.641
40633W        W12304  19.030  33.815  13.025
40634W        W12305   2.289  16.461  10.842
40635W        W12306  44.861  40.941   4.979
40636W        W12307  11.508  44.665  13.179
40637W        W12308  10.415  22.854   3.427
40638W        W12309  41.286  21.213   3.224
40639W        W12310  33.483  25.307   3.776
40640W        W12311   4.675  44.328  14.944
40641W        W12312  42.798  27.622  10.787
40642W        W12313  20.970   4.823   4.647
40643W        W12314  21.126   5.847  14.145
40644W        W12315  24.330  16.853   0.376
40645W        W12316   3.198  15.310   3.180
40646W        W12317  43.584  18.563  14.920
40647W        W12318   5.419  41.419  13.556
40648W        W12319  27.874   5.411  14.915
40649W        W12320  36.985   1.428  11.184
40650W        W12321  33.592   3.176   1.694
40651W        W12322  43.812  35.688   3.259
40652W        W12323  33.236  35.469   4.443
40653W        W12324  38.131  44.937  13.773
40654W        W12325  18.000  33.469   2.772
40655W        W12326  21.887   5.859   0.384
40656W        W12327  26.683  27.909   0.292
40657W        W12328  19.998  33.617   1.339
40658W        W12329  42.301  41.030   4.098
40659W        W12330  34.448  24.248  14.354
40660W        W12331  41.005  41.897  12.483
40661W        W12332  32.554  41.992  13.823
40662W        W12333  32.011  35.940  10.692
40663W        W12334  40.343  11.781  14.803
40664W        W12335  36.240  21.164   1.949
40665W        W12336  24.083   6.752   3.855
40666W        W12337   6.278  36.495   1.988
40667W        W12338  23.571  28.590   4.458
40668W        W12339  24.790  19.601  12.090
40669W        W12340  35.527  32.881   4.285
40670W        W12341  15.802  34.304   2.838
40671W        W12342  27.552   6.990  13.331
40672W        W12343  22.148  11.831   3.243
40673W        W12344  17.253   8.722   2.430
40674W        W12345   6.189  17.282   1.390
40675W        W12346  34.930  22.221   1.000
40676W        W12347   3.901  34.511  13.056
40677W        W12348  11.869  33.529   3.689
40678W        W12349  10.003  40.991  12.564
40679W        W12350  36.358  18.593  14.779
40680W        W12351  28.950  18.362  14.764
40681W        W12352  44.966  17.043  13.944
40682W        W12353  38.909  26.947   1.211
40683W        W12354  26.470   1.994  12.952
40684W        W12355  13.046  14.831   0.424
40685W        W12356  23.503   2.114  12.331
40686W        W12357   9.481   4.946  13.942
40687W        W12358  21.013   6.977   1.237
40688W        W12359  14.503  37.442  13.543
40689W        W12360  22.478  24.985   0.914
40690W        W12361  10.297  38.186  11.475
40691W        W12362   1.763  33.871  10.592
40692W        W12363  38.357  13.376  12.004
40693W        W12364  32.936  20.293  12.883
40694W        W12365  39.322  15.532   2.358
40695W        W12366  25.700  37.173  11.471
40696W        W12367  20.378  29.623   2.677
40697W        W12368  40.072  17.942   3.382
40698W        W12369  38.452  29.014   1.699
40699W        W12370  38.053  38.205  12.857
40700W        W12371   0.395  28.927   0.964
40701W        W12372  13.685   8.750   2.698
40702W        W12373  27.982  21.092  12.887
40703W        W12374  31.334  16.119   2.288
40704W        W12375  37.783  28.382  10.889
40705W        W12376  22.490  33.471  14.743
40706W        W12377  42.882  36.280   1.087
40707W        W12378  41.403  19.034  14.518
40708W        W12379  36.845  44.033   0.489
40709W        W12380  29.688  23.932   4.482
40710W        W12381   8.379  34.127   4.776
40711W        W12382  14.147  37.130   1.315
40712W        W12383  11.634  23.042   1.001
40713W        W12384  41.788  28.449   2.499
40714W        W12385  38.919  31.626  10.169
40715W        W12386  18.555   9.316  14.237
40716W        W12387  17.687  33.430  10.657
40717W        W12388  25.000   3.407  14.388
40718W        W12389  41.775  44.408  12.725
40719W        W12390   7.766  17.946   5.170
40720W        W12391  21.306  39.409   0.238
40721W        W12392  44.703  25.596  14.359
40722W        W12393  37.529  19.550   2.226
40723W        W12394  43.096  36.707  14.450
40724W        W12395  10.203  15.387   0.335
40725W        W12396  41.805  32.627  10.922
40726W        W12397   4.337  10.582   3.258
40727W        W12398  43.953   3.187  11.569
40728W        W12399   7.779   9.218   0.742
40729W        W12400   9.716  29.344   4.130
40730W        W12401  39.398  21.086  10.176
40731W        W12402  12.137  29.514   3.593
40732W        W12403  21.028  30.136   4.104
40733W        W12404   4.139  43.496  13.453
40734W        W12405  11.750  26.237   3.224
40735W        W12406  33.585   3.466  11.846
40736W        W12407  18.292  10.820  10.707
40737W        W12408  43.906  39.450  10.174
40738W        W12409   4.609  20.989   3.671
40739W        W12410  10.894   0.912  12.821
40740W        W12411   6.230  35.563   0.991
40741W        W12412  42.265   5.277  13.839
40742W        W12413  27.064   2.963  10.658
40743W        W12414   2.523  37.844  11.616
40744W        W12415  32.896  26.939   0.377
40745W        W12416  43.999  20.020   3.407
40746W        W12417   7.588  10.312  11.206
40747W        W12418  23.756  34.466   2.882
40748W        W12419  23.165  26.668   2.495
40749W        W12420  19.245   9.313   2.870
40750W        W12421  25.546  30.424  14.877
40751W        W12422  39.487  33.432  11.163
40752W        W12423  16.187  11.671   2.390
40753W        W12424  13.607  26.490   3.237
40754W        W12425  37.039  32.150  11.036
40755W        W12426  38.895  15.152  12.654
40756W        W12427  33.174  39.840  13.619
40757W        W12428  20.209  14.546   5.726
40758W        W12429  31.472  17.486  13.366
40759W        W12430  33.378  40.450  12.555
40760W        W12431  42.439  37.588  13.412
40761W        W12432  22.921  42.299  14.778
40762W        W12433   9.352   8.821   4.483
40763W        W12434  16.793   5.171   3.678
40764W        W12435  11.414  28.078   1.223
40765W        W12436  22.491  13.050  12.484
40766W        W12437  21.747  42.525   1.841
40767W        W12438  36.080  19.997  10.970
40768W        W12439  42.141  24.746   4.273
40769W        W12440  18.280  27.164  13.889
40770W        W12441  12.343   0.465  14.328
40771W        W12442  32.422  34.920  13.755
40772W        W12443   5.046  40.826   3.484
40773W        W12444   6.219  31.836  12.109
40774W        W12445  19.133  15.380  14.923
40775W        W12446  36.854  38.055  12.662
40776W        W12447  30.536  19.321  14.925
40777W        W12448  41.814  22.072   5.065
40778W        W12449   8.802  10.149   0.825
40779W        W12450   5.917  43.918  10.906
40780W        W12451  19.214  20.719   2.275
40781W        W12452  30.642  27.711  12.918
40782W        W12453   7.433  10.840  11.090
40783W        W12454  17.648  33.498   2.212
40784W        W12455  20.623  33.550  11.599
40785W        W12456  36.736  37.128  14.748
40786W        W12457   9.578  26.024  11.917
40787W        W12458  37.467  16.856   4.937
40788W        W12459  36.105  12.171  12.075
40789W        W12460   7.358  41.764  12.943
40790W        W12461   8.565   7.134  14.024
40791W        W12462  35.547  19.953  10.905
40792W        W12463  38.047  20.971   1.258
40793W        W12464  22.600  25.165   4.360
40794W        W12465  25.417   5.106  14.824
40795W        W12466  26.166  41.132   2.053
40796W        W12467   0.317  15.220   0.276
40797W        W12468  40.790   5.202  12.196
40798W        W12469   0.254  22.243   3.754
40799W        W12470  19.148  12.631   1.749
40800W        W12471  15.867  14.855   3.298
40801W        W12472   8.048   4.250  13.582
40802W        W12473  25.428  39.463  13.393
40803W        W12474  19.832  12.886   4.107
40804W        W12475  35.413  27.689  10.621
40805W        W12476   4.730   7.226   2.755
40806W        W12477  18.652   8.762  12.403
40807W        W12478  24.093  27.275  13.919
40808W        W12479  20.162  28.140   5.026
40809W        W12480  24.610  14.640  13.172
40810W        W12481  26.463  44.923   2.373
40811W        W12482  11.815   7.081   3.246
40812W        W12483  11.699   3.885   3.174
40813W        W12484  38.975   8.206  12.520
40814W        W12485  28.770   4.660  12.948
40815W        W12486  18.596   1.961  11.723
40816W        W12487  21.384  26.448  11.669
40817W        W12488   3.997  38.761  13.372
40818W        W12489  32.996  24.740  14.909
40819W        W12490  43.309  29.443   0.252
40820W        W12491  13.427   1.027   4.738
40821W        W12492  25.311  41.058  10.737
40822W        W12493  27.090  32.414   2.192
40823W        W12494  21.100  17.241   4.671
40824W        W12495  26.731  11.313  14.532
40825W        W12496   9.293  27.130  14.428
40826W        W12497  26.582  20.264   4.540
40827W        W12498  32.400  16.650   1.835
40828W        W12499  17.873  20.931   3.161
40829W        W12500  30.948   5.262  12.547
40830W        W12501  40.032  34.091   3.667
40831W        W12502  28.455  29.681  11.055
40832W        W12503  25.222  14.221   2.197
40833W        W12504  35.032   2.066  12.202
40834W        W12505   6.688  12.148   1.601
40835W        W12506   7.260  44.788   1.694
40836W        W12507  11.646   2.664   1.829
40837W        W12508   4.066  38.986   2.298
40838W        W12509   5.023  35.235  12.925
40839W        W12510   1.136  36.548  14.829
40840W        W12511  26.879   9.186   1.312
40841W        W12512  39.444   2.998   3.321
40842W        W12513  30.446  13.090  11.165
40843W        W12514  24.019  43.807   0.708
40844W        W12515   7.819  12.127  12.886
40845W        W12516   6.383  39.672   3.312
40846W        W12517  42.795   8.122  12.360
40847W        W12518  21.699  24.213  11.506
40848W        W12519  17.749   5.218   5.011
40849W        W12520  43.236  42.334  14.544
40850W        W12521  29.081  41.205  14.069
40851W        W12522   0.996  13.614  11.576
40852W        W12523   0.967  13.111   1.902
40853W        W12524  35.024  17.687  12.951
40854W        W12525  19.977  25.903   0.327
40855W        W12526  27.374  16.139  12.949
40856W        W12527  26.199  12.594  12.975
40857W        W12528  11.882  22.688  12.605
40858W        W12529  35.132   5.697  10.758
40859W        W12530   7.153   5.693  13.303
40860W        W12531  21.866  39.464  11.454
40861W        W12532  31.140  15.382   4.215
40862W        W12533  29.888  13.253   4.572
40863W        W12534  25.163  22.433  13.267
40864W        W12535  15.128   9.166  14.263
40865W        W12536  28.585  44.569   3.382
40866W        W12537  26.708  39.330   1.734
40867W        W12538  29.843   2.750  12.434
40868W        W12539  27.077  14.408   2.803
40869W        W12540  29.251   4.280   1.316
40870W        W12541  44.015  39.779   0.225
40871W        W12542   4.369   3.810  12.821
40872W        W12543  12.231   8.783  11.821
40873W        W12544  20.556  36.342   4.394
40874W        W12545  41.591   5.693  11.268
40875W        W12546  25.342  40.894  13.265
40876W        W12547  22.753  15.526   4.066
40877W        W12548  17.804   5.240   0.095
40878W        W12549  31.395   2.181  10.647
40879W        W12550  16.713   1.400  11.695
40880W        W12551  20.514  30.470   0.424
40881W        W12552  31.968   9.956   1.378
40882W        W12553  15.874  42.517  13.235
40883W        W12554   8.136  37.100   0.010
40884W        W12555  10.338  26.095  10.729
40885W        W12556   9.624   9.247   1.677
40886W        W12557  25.431  30.789   3.266
40887W        W12558  31.812  32.936  10.765
40888W        W12559   4.429   1.474  11.902
40889W        W12560  38.971  35.126  13.621
40890W        W12561  22.571  41.982  13.939
40891W        W12562  40.916   8.855   3.096
40892W        W12563   4.031  21.685  13.469
40893W        W12564   2.614   7.820  11.432
40894W        W12565  22.102  40.795  13.533
40895W        W12566  31.083   8.306   0.198
40896W        W12567  36.834   9.017  14.062
40897W        W12568  11.430  20.111  12.071
40898W        W12569  40.676  43.349  14.403
40899W        W12570  33.100  22.619  10.947
40900W        W12571  31.383  35.834  11.470
40901W        W12572  39.270   6.159   2.903
40902W        W12573  14.802   6.661   3.228
40903W        W12574   3.695  22.526  11.171
40904W        W12575  35.508  17.604  12.838
40905W        W12576  43.759  24.203  12.349
40906W        W12577  41.108   1.551  10.387
40907W        W12578  20.241  17.866   0.853
40908W        W12579  27.544  19.672   1.432
40909W        W12580   5.945  31.048   4.647
40910W        W12581  38.804   6.948  12.676
40911W        W12582  37.790  15.304   3.016
40912W        W12583   4.366  21.481  11.119
40913W        W12584   4.601  12.379  11.131
40914W        W12585  10.687  27.482  13.582
40915W        W12586  19.425  11.950   4.229
40916W        W12587  32.882  41.064  11.962
40917W        W12588  43.604  17.850  12.031
40918W        W12589   1.391   3.588  12.872
40919W        W12590   3.967  36.392   1.456
40920W        W12591  14.892  34.352  10.826
40921W        W12592  23.138   1.767  11.137
40922W        W12593  34.197   8.827   3.919
40923W        W12594  15.298   5.665   3.864
40924W        W12595  43.270   8.841  11.932
40925W        W12596   6.861   5.235  14.521
40926W        W12597  17.881  20.178  14.832
40927W        W12598   4.169  41.934   1.946
40928W        W12599  23.776   3.266  14.813
40929W        W12600  39.368  25.221  12.004
40930W        W12601   0.066   1.007  13.921
40931W        W12602  10.749   6.619  14.444
40932W        W12603   4.000   3.802  10.605
40933W        W12604  39.973  19.882   4.166
40934W        W12605   0.288  33.592  14.514
40935W        W12606  38.328  10.317   1.226
40936W        W12607   6.866  11.529   1.897
40937W        W12608  34.945  31.471   0.299
40938W        W12609   5.490  28.483  12.204
40939W        W12610  36.512  40.801   3.805
40940W        W12611  22.538   0.179  14.500
40941W        W12612  31.204  30.773  12.412
40942W        W12613  13.874  40.418  12.181
40943W        W12614  17.762  10.337  13.483
40944W        W12615  15.106   5.171  10.401
40945W        W12616  23.509   7.511   1.834
40946W        W12617  36.060  20.032   1.416
40947W        W12618  13.312  25.133  14.090
40948W        W12619  10.871  40.613   4.580
40949W        W12620  14.195  10.164   1.216
40950W        W12621   6.167   4.316  14.872
40951W        W12622  36.906  28.699   0.205
40952W        W12623  32.350  37.429  10.066
40953W        W12624  38.523  44.227   4.150
40954W        W12625  31.426  31.119   4.411
40955W        W12626  43.159   2.544   4.155
40956W        W12627  16.042  24.684   2.774
40957W        W12628   3.172  16.255  11.132
40958W        W12629  32.051  32.551  12.985
40959W        W12630  43.393   8.638  13.569
40960W        W12631  11.753  32.982  10.697
40961W        W12632  12.236  18.028   0.388
40962W        W12633  18.171   2.115   3.808
40963W        W12634  44.303  44.481  10.663
40964W        W12635  16.744   7.861  12.165
40965W        W12636  37.472  32.629   3.309
40966W        W12637  17.837  36.544  12.512
40967W        W12638  14.617  22.507   0.811
40968W        W12639  20.310  39.150   4.654
40969W        W12640  35.624  30.341   0.916
40970W        W12641   2.955   7.408  11.972
40971W        W12642  17.554  23.165   1.771
40972W        W12643  14.106  17.525  11.372
40973W        W12644   7.666  13.105  10.436
40974W        W12645   5.186  26.561   0.924
40975W        W12646  30.668  34.902   2.085
40976W        W12647  11.825  36.386   0.739
40977W        W12648   0.326  16.552   0.005
40978W        W12649  25.634  22.785   3.125
40979W        W12650  27.050  37.617  12.401
40980W        W12651  22.124  26.994  11.726
40981W        W12652  15.371  19.433   4.484
40982W        W12653  31.695   4.856   3.810
40983W        W12654   8.874  16.752   1.720
40984W        W12655  36.966  28.502  13.939
40985W        W12656  19.545  42.744  12.453
40986W        W12657  38.517  36.690  13.264
40987W        W12658  36.050  36.808   4.598
40988W        W12659  29.695   7.773  13.899
40989W        W12660   8.603  21.878  12.570
40990W        W12661  33.716  14.070   4.560
40991W        W12662  15.118  41.354   0.229
40992W        W12663  24.071   4.450  14.461
40993W        W12664   8.350  18.123  14.631
40994W        W12665  31.892  30.397  11.634
40995W        W12666  14.159  38.434  14.522
40996W        W12667  41.792  28.658   3.319
40997W        W12668  29.642  32.190   0.377
40998W        W12669  26.518  14.682   0.655
40999W        W12670   5.965   1.438  13.294
41000W        W12671  25.562  27.130   0.292
41001W        W12672  19.102  20.290  12.404
41002W        W12673  10.920  11.747   4.472
41003W        W12674  25.827  42.569  11.813
41004W        W12675  41.294   7.818   1.719
41005W        W12676  23.775   7.122  12.985
41006W        W12677  25.707  42.846  12.534
41007W        W12678  23.505   0.342   0.315
41008W        W12679  23.547  19.258   2.665
41009W        W12680  40.498  31.355   1.818
41010W        W12681   7.438  16.165   0.341
41011W        W12682   2.275  32.106  13.856
41012W        W12683  38.876  37.396  10.642
41013W        W12684   2.469  24.301   1.192
41014W        W12685  43.875  14.642   2.443
41015W        W12686   0.624  29.973  13.605
41016W        W12687   2.755  43.913  10.354
41017W        W12688   2.800  44.889  14.676
41018W        W12689  25.131  44.315  11.879
41019W        W12690  23.720  37.843  11.146
41020W        W12691  16.156  34.934   4.576
41021W        W12692  20.459   0.450  12.606
41022W        W12693  37.135  17.162  12.470
41023W        W12694   7.794  17.401  12.020
41024W        W12695  26.103  40.767   2.435
41025W        W12696  18.348   4.676   4.254
41026W        W12697  35.651  31.469  13.460
41027W        W12698  10.291  10.703   1.831
41028W        W12699  11.887  18.956  14.927
41029W        W12700  10.818  17.970  11.100
41030W        W12701  15.924  15.828   3.941
41031W        W12702   0.246  23.591   0.874
41032W        W12703  25.317  14.506   1.367
41033W        W12704  17.303   0.850   1.538
41034W        W12705  27.423  12.673   1.153
41035W        W12706   2.516  15.495   5.140
41036W        W12707  26.610  43.412   2.282
41037W        W12708  28.092  22.108  10.976
41038W        W12709   5.534  15.249  14.287
41039W        W12710   9.710  30.113   1.850
41040W        W12711   1.983  32.322  13.494
41041W        W12712  10.918  20.910  14.559
41042W        W12713  32.683  39.537   1.691
41043W        W12714  20.275  18.382   2.910
41044W        W12715  20.905  22.027   3.565
41045W        W12716   3.714   8.825  10.351
41046W        W12717  32.863  16.929   1.825
41047W        W12718  31.413  18.483   4.160
41048W        W12719  22.268   8.922   0.451
41049W        W12720  24.671   8.119   2.318
41050W        W12721  29.851  29.213   0.814
41051W        W12722  36.595  19.033   4.421
41052W        W12723   0.813  10.720  12.015
41053W        W12724   2.302   1.011  14.438
41054W        W12725  18.802  18.366   4.618
41055W        W12726  27.429  24.060   1.832
41056W        W12727  19.574   3.355  14.976
41057W        W12728  36.595  16.043  14.527
41058W        W12729  20.489   5.342  13.699
41059W        W12730  41.692  38.721   1.243
41060W        W12731   8.762   2.250   3.818
41061W        W12732  31.621  36.552   3.969
41062W        W12733  22.199  28.542   4.068
41063W        W12734  12.839  39.561   3.639
41064W        W12735  38.126  27.440   1.880
41065W        W12736  24.077  25.142  14.999
41066W        W12737  38.513  17.755  10.522
41067W        W12738  26.394   0.900  11.186
41068W        W12739   1.196  41.929   4.092
41069W        W12740  38.851   3.554   0.488
41070W        W12741  35.745  35.403  12.586
41071W        W12742   0.496   4.372  13.707
41072W        W12743  16.555  34.564  11.549
41073W        W12744  40.841   3.467   3.227
41074W        W12745  30.120  35.878   2.821
41075W        W12746  26.955  19.357  12.010
41076W        W12747   6.457   6.083  11.077
41077W        W12748   9.165  35.799   0.481
41078W        W12749  40.396  43.412   2.638
41079W        W12750  24.480  23.229  11.388
41080W        W12751  24.019  22.426   3.219
41081W        W12752  11.007  33.989  10.596
41082W        W12753   1.741  22.801  12.144
41083W        W12754   6.623   4.297  12.062
41084W        W12755  26.925   4.184  11.125
41085W        W12756  11.381   0.024  12.841
41086W        W12757  24.809  33.736  11.540
41087W        W12758   3.311  21.589   9.768
41088W        W12759   3.451   0.776   3.092
41089W        W12760  21.962  23.265  11.535
41090W        W12761  18.145  34.447  14.523
41091W        W12762  15.029   2.369   2.733
41092W        W12763  39.553  22.998   4.209
41093W        W12764   5.275   7.709  13.549
41094W        W12765   2.751   8.357  13.984
41095W        W12766  10.235  30.386   2.841
41096W        W12767  32.596  21.310   0.057
41097W        W12768  12.263  34.705   0.025
41098W        W12769   9.685  33.571  14.174
41099W        W12770   5.234  12.276   1.437
41100W        W12771  26.902  20.329   1.901
41101W        W12772  24.172  27.260   0.978
41102W        W12773   5.444   4.929   2.397
41103W        W12774   4.041  25.759  13.976
41104W        W12775  39.118  25.153  10.261
41105W        W12776   4.297  31.795  11.699
41106W        W12777  16.141   5.999   1.420
41107W        W12778  28.979  41.889  13.922
41108W        W12779   7.577   2.346   4.215
41109W        W12780  44.375   4.990   4.597
41110W        W12781   3.042  22.011   4.633
41111W        W12782  30.011   2.054   3.681
41112W        W12783  30.927  23.384   2.266
41113W        W12784  42.342  34.568  14.560
41114W        W12785  28.314  29.845  10.139
41115W        W12786   0.346  23.966  11.680
41116W        W12787  34.891   3.277  14.818
41117W        W12788  32.097   9.342  12.078
41118W        W12789  22.544  14.128   5.063
41119W        W12790  18.345  14.402  10.231
41120W        W12791   7.480  24.441  12.078
41121W        W12792   8.587  33.641   3.242
41122W        W12793  27.061   2.657  12.907
41123W        W12794  34.038  15.284   3.872
41124W        W12795  42.840  25.423   4.659
41125W        W12796  42.928  26.025   3.015
41126W        W12797  26.681  32.704  12.977
41127W        W12798   5.882  16.503   3.858
41128W        W12799  13.141  11.367  11.285
41129W        W12800  42.268  26.529  11.210
41130W        W12801  13.829  27.197  12.528
41131W        W12802  40.305  18.255   2.569
41132W        W12803  32.832   7.370  11.825
41133W        W12804  16.739  29.155  14.250
41134W        W12805  40.426  41.176  14.445
41135W        W12806   0.090  21.112   3.852
41136W        W12807   0.748  37.470  12.551
41137W        W12808  19.791  20.017   2.722
41138W        W12809   8.667  31.550   1.081
41139W        W12810  19.214   8.932   1.452
41140W        W12811  29.157  37.888  14.561
41141W        W12812  43.460  31.855   2.739
41142W        W12813   7.327  42.568   2.925
41143W        W12814  16.170  17.939   2.165
41144W        W12815  27.904  18.658   1.609
41145W        W12816  20.656  10.759  10.669
41146W        W12817   8.372  23.071   4.746
41147W        W12818   9.722   2.370   1.313
41148W        W12819  10.003  15.336  14.024
41149W        W12820  28.017   4.896  14.042
41150W        W12821  29.491  39.349  12.518
41151W        W12822  38.753  37.777   4.920
41152W        W12823  12.747   7.029  14.896
41153W        W12824   4.962  42.446  10.783
41154W        W12825  18.612  39.545   4.603
41155W        W12826  34.662  20.094   2.466
41156W        W12827  31.561  14.158  10.963
41157W        W12828  12.174   4.267  11.105
41158W        W12829  14.180  10.383   4.686
41159W        W12830  13.628   9.638  13.433
41160W        W12831  44.030  29.218  13.053
41161W        W12832  38.449  25.641   3.267
41162W        W12833  17.818  18.247   3.874
41163W        W12834  19.362   8.865   4.554
41164W        W12835  39.905   1.740   0.820
41165W        W12836  22.753   6.149   4.711
41166W        W12837  24.372  11.193   4.962
41167W        W12838  27.983   6.616   2.402
41168W        W12839  26.547  14.529  13.156
41169W        W12840   6.943  10.376   0.767
41170W        W12841  39.808  29.171  12.451
41171W        W12842   5.770  36.409   2.127
41172W        W12843  21.825  29.100   4.501
41173W        W12844  11.145  23.084  13.205
41174W        W12845  11.722  24.537  12.385
41175W        W12846  30.360  43.757  14.818
41176W        W12847  28.680  12.604   1.149
41177W        W12848  40.566  27.507  12.170
41178W        W12849  44.945  37.041   2.357
41179W        W12850  24.073   1.808   1.856
41180W        W12851   0.551  36.997   1.296
41181W        W12852  19.531   8.116  14.413
41182W        W12853   4.286  10.696   1.886
41183W        W12854   3.243   6.506   4.496
41184W        W12855   7.472  27.001   0.784
41185W        W12856  34.070  44.893  13.509
41186W        W12857  22.975   2.899  13.931
41187W        W12858  33.525  17.308   0.522
41188W        W12859   5.783   6.398  13.418
41189W        W12860  37.526   0.301   2.808
41190W        W12861  28.478   7.454  11.579
41191W        W12862   0.547  29.117   3.441
41192W        W12863   3.727  18.050   4.106
41193W        W12864   4.175  14.016  12.986
41194W        W12865  31.364   5.858  14.392
41195W        W12866   6.291  28.990   0.327
41196W        W12867  32.670  22.897   0.885
41197W        W12868   3.433  37.981  10.587
41198W        W12869  19.668  41.036   2.084
41199W        W12870  15.266  32.147  11.215
41200W        W12871   4.321   4.553   0.450
41201W        W12872  26.721  39.667   0.666
41202W        W12873  14.027  11.122  12.982
41203W        W12874  28.434  14.522   2.871
41204W        W12875  36.746   9.188  11.148
41205W        W12876   4.235  21.601   4.375
41206W        W12877   9.759  44.368   1.746
41207W        W12878  28.036  15.039   2.318
41208W        W12879  10.636  28.657   2.261
41209W        W12880  20.325   8.904  14.993
41210W        W12881  37.253  26.466  13.888
41211W        W12882   7.594  23.929   3.804
41212W        W12883  17.693   0.715  13.976
41213W        W12884   9.777   6.804  14.818
41214W        W12885  22.449  23.006   4.534
41215W        W12886   1.298   9.140   3.304
41216W        W12887  33.521  20.964  10.005
41217W        W12888  13.700  21.565   4.277
41218W        W12889  22.588   9.243  12.607
41219W        W12890  36.193   2.110   3.722
41220W        W12891  40.901  29.605  11.981
41221W        W12892  41.899  21.708  11.516
41222W        W12893  37.390  31.497   0.374
41223W        W12894  17.945  13.643   5.004
41224W        W12895  32.632  17.909   1.229
41225W        W12896  27.242   2.766  11.965
41226W        W12897   0.019  16.834   3.293
41227W        W12898  24.476  41.309  10.982
41228W        W12899  36.358  34.581  12.819
41229W        W12900  13.653  43.302   2.805
41230W        W12901  13.032  43.066  11.461
41231W        W12902  25.666   6.366  12.560
41232W        W12903  29.155   1.548  13.493
41233W        W12904  20.025  20.753  11.632
41234W        W12905  22.179  40.866   4.718
41235W        W12906  11.667  29.094  11.670
41236W        W12907  10.459  18.179  10.764
41237W        W12908  33.968  41.016  13.053
41238W        W12909   4.753   5.455   0.301
41239W        W12910   5.263  32.631   4.699
41240W        W12911  43.736   2.533  10.771
41241W        W12912   3.222  21.159  12.469
41242W        W12913  16.856   9.174   5.303
41243W        W12914  18.881   4.353  11.451
41244W        W12915  15.286  11.266  10.723
41245W        W12916   1.964   8.292  12.564
41246W        W12917  42.217   2.283   2.808
41247W        W12918  37.000  37.569  14.713
41248W        W12919   0.635   1.438   4.270
41249W        W12920  41.387  32.087  14.541
41250W        W12921  26.912   0.888  11.144
41251W        W12922   9.940  21.090   2.752
41252W        W12923   1.241   5.461  12.264
41253W        W12924  32.532  15.125   3.490
41254W        W12925  23.306  20.919  13.000
41255W        W12926  29.111  18.794   4.472
41256W        W12927  42.366  11.331  10.497
41257W        W12928   4.646   0.633  13.349
41258W        W12929  25.097   2.033  12.878
41259W        W12930  21.463  29.963  10.937
41260W        W12931  26.889  24.146   1.159
41261W        W12932  40.568  16.902   3.343
41262W        W12933  27.131   4.762   1.957
41263W        W12934  12.164  35.047  14.030
41264W        W12935  16.136   9.018  12.966
41265W        W12936  42.101  36.957  10.271
41266W        W12937  26.176  20.031  12.038
41267W        W12938  37.489  39.768   0.802
41268W        W12939   2.959   6.340   1.500
41269W        W12940  37.532  44.720  11.921
41270W        W12941  44.508   5.549   3.729
41271W        W12942   0.719  25.712  11.970
41272W        W12943  31.468  19.668   2.766
41273W        W12944  27.872   6.407   2.860
41274W        W12945  18.767  21.727   1.643
41275W        W12946   9.591  26.327   4.505
41276W        W12947  35.464  43.726  14.389
41277W        W12948   9.415  26.642   3.333
41278W        W12949  14.838   5.320   0.688
41279W        W12950  11.838  40.316   2.323
41280W        W12951  24.447   5.648  13.774
41281W        W12952  10.054  26.416   0.375
41282W        W12953   6.849  38.952  13.615
41283W        W12954  21.020   8.420   2.735
41284W        W12955  32.548   8.170  12.520
41285W        W12956  43.994  30.516  10.612
41286W        W12957  40.545  14.835  12.054
41287W        W12958   0.852  20.747  10.245
41288W        W12959  16.185  17.041   2.201
41289W        W12960  35.896  35.951  14.974
41290W        W12961  12.523  22.001   1.329
41291W        W12962  10.259  23.259  10.701
41292W        W12963   5.273  26.439   1.938
41293W        W12964  10.186  12.694   5.036
41294W        W12965  25.572  10.745  12.210
41295W        W12966  21.896  11.019  12.433
41296W        W12967  35.441  21.649   2.770
41297W        W12968  39.491  36.387  12.120
41298W        W12969  14.209   0.432  11.551
41299W        W12970  17.696  26.622   3.796
41300W        W12971  39.451  13.061   4.090
41301W        W12972  43.435  33.452   4.694
41302W        W12973  41.579  21.226  14.937
41303W        W12974  29.517  17.475   0.606
41304W        W12975  30.622  42.861   2.320
41305W        W12976   0.909  42.953   0.805
41306W        W12977  29.953  12.906  11.133
41307W        W12978  40.816   9.869   3.427
41308W        W12979  21.087  23.810  10.864
41309W        W12980  29.840  13.709  14.330
41310W        W12981  21.518  11.106   3.335
41311W        W12982   0.689   7.460  14.410
41312W        W12983  40.277  44.933  11.527
41313W        W12984  18.078  15.851  10.854
41314W        W12985   3.949  16.191   2.726
41315W        W12986  39.832  40.558   2.224
41316W        W12987  40.782  40.760   0.026
41317W        W12988  22.480   4.896   1.632
41318W        W12989  35.910  22.943  12.176
41319W        W12990  16.346  10.731   1.886
41320W        W12991  21.544   3.861  14.196
41321W        W12992  43.002  22.203  10.176
41322W        W12993  31.123  39.194   5.157
41323W        W12994  18.137  39.583   1.413
41324W        W12995  25.220  16.250  11.189
41325W        W12996   0.441   7.862  14.840
41326W        W12997  30.022   3.076   2.802
41327W        W12998  18.429  10.672  11.192
41328W        W12999   5.157   5.186  11.564
41329W        W13000  22.646  35.508  13.226
41330W        W13001   1.650  38.894  10.654
41331W        W13002  21.640  40.789  12.847
41332W        W13003  36.947  34.614   1.474
41333W        W13004  11.779  41.286   5.120
41334W        W13005  25.776  15.152   0.682
41335W        W13006  28.178   8.521   4.059
41336W        W13007  26.398  24.636  11.945
41337W        W13008  44.850   0.703  11.135
41338W        W13009   6.858   4.987   1.362
41339W        W13010  17.625  30.853  10.457
41340W        W13011  21.732  31.775   1.958
41341W        W13012  43.512  21.777  12.572
41342W        W13013  41.662  24.588   4.400
41343W        W13014  38.412  22.186   0.162
41344W        W13015   2.194  21.294   0.773
41345W        W13016  39.573   7.769  13.968
41346W        W13017  29.998  34.938  13.629
41347W        W13018  18.094  22.008   0.792
41348W        W13019  27.684  19.848   4.766
41349W        W13020   5.037  20.980  14.012
41350W        W13021  32.345  21.783   0.026
41351W        W13022   8.076  24.557   3.323
41352W        W13023  32.838  15.751   1.691
41353W        W13024  19.170  35.578   3.157
41354W        W13025   0.305  29.136  11.302
41355W        W13026  35.725  36.897   0.036
41356W        W13027   3.444  32.581  14.038
41357W        W13028   5.234  33.964   1.848
41358W        W13029  11.404  12.163  10.698
41359W        W13030   6.664  29.788   1.923
41360W        W13031   0.345  27.789   4.123
41361W        W13032  23.574   6.760  13.348
41362W        W13033  42.080   8.680  11.209
41363W        W13034  31.556  36.442  14.831
41364W        W13035  10.202   8.952   3.325
41365W        W13036   8.194  42.453   3.664
41366W        W13037   1.858  39.357  10.771
41367W        W13038  30.354  29.472   0.494
41368W        W13039  22.151  20.367   3.625
41369W        W13040  28.167  19.605  12.406
41370W        W13041  44.415  12.521  11.144
41371W        W13042   6.816  14.700   3.110
41372W        W13043  34.559  10.174  13.831
41373W        W13044  43.659  20.549   2.119
41374W        W13045  11.506  15.505  11.645
41375W        W13046  19.555  38.053  12.413
41376W        W13047  28.065  41.448  12.959
41377W        W13048   0.409  36.846   3.718
41378W        W13049  27.122  21.627   4.590
41379W        W13050  17.246  30.183  13.857
41380W        W13051   6.324  27.150   0.850
41381W        W13052   6.973  40.988   0.408
41382W        W13053  19.462  42.878   3.178
41383W        W13054  18.780   4.071   0.948
41384W        W13055  19.222  14.434  14.032
41385W        W13056   1.667  29.645  12.112
41386W        W13057  20.782  27.078  12.004
41387W        W13058  28.955  14.945   0.039
41388W        W13059  14.722   2.894  12.587
41389W        W13060   3.017  13.759  10.613
41390W        W13061   5.112  16.439   0.876
41391W        W13062  10.744   6.249  13.871
41392W        W13063   7.749  35.433   2.180
41393W        W13064  12.389  38.954  12.431
41394W        W13065  22.118  35.407   3.557
41395W        W13066  33.618  26.673   0.916
41396W        W13067  21.199  17.646   0.882
41397W        W13068  39.423  25.026  11.535
41398W        W13069  40.040  36.499   2.334
41399W        W13070   8.309  26.615  13.746
41400W        W13071  11.538   7.431   1.610
41401W        W13072  26.194  14.658  12.189
41402W        W13073  33.430  35.274  14.791
41403W        W13074  34.534  32.152   0.547
41404W        W13075  20.180   8.436  10.632
41405W        W13076   8.214  28.528   4.861
41406W        W13077  27.655   5.940   2.717
41407W        W13078  13.519  25.478  12.041
41408W        W13079  21.307  40.761  11.110
41409W        W13080  21.626  37.321  13.148
41410W        W13081   7.369  28.432  12.471
41411W        W13082   6.757  32.575  14.472
41412W        W13083   8.393   0.498  14.486
41413W        W13084  31.185   7.492  14.894
41414W        W13085  20.626   5.655  13.312
41415W        W13086  36.846  15.907  11.915
41416W        W13087  13.198  18.323   3.905
41417W        W13088   9.201   5.391  10.967
41418W        W13089  17.060   6.484  14.750
41419W        W13090  22.635  33.804   3.184
41420W        W13091  18.283   7.711   4.566
41421W        W13092  44.438  34.917  13.379
41422W        W13093   0.465   5.420   3.738
41423W        W13094  33.815   3.958   2.625
41424W        W13095  34.428  26.796  13.976
41425W        W13096  30.786   2.144   0.955
41426W        W13097  24.400  26.001  14.426
41427W        W13098  44.455  21.717  13.428
41428W        W13099  26.497  18.962   2.917
41429W        W13100  30.431   9.904   1.080
41430W        W13101  39.035  27.957   0.434
41431W        W13102  31.426  28.928  11.565
41432W        W13103  22.721  40.982  12.442
41433W        W13104  21.232  18.208  10.561
41434W        W13105  14.201   8.757   2.729
41435W        W13106  38.351  28.162  13.879
41436W        W13107   6.944  10.724   1.221
41437W        W13108  43.256  37.258  11.945
41438W        W13109  15.810  31.633  14.967
41439W        W13110   1.607   7.668   5.070
41440W        W13111  20.837   5.688   0.374
41441W        W13112  11.394  34.967  12.495
41442W        W13113  18.766  17.034  12.945
41443W        W13114  13.443  13.123  14.519
41444W        W13115  35.022  29.402  13.955
41445W        W13116  31.840  14.744  13.536
41446W        W13117  31.425  11.772   2.780
41447W        W13118   4.286  24.081   0.264
41448W        W13119  29.987  20.683  11.435
41449W        W13120  16.112   0.919  14.477
41450W        W13121   7.717  15.631   3.098
41451W        W13122  29.207  19.092  14.068
41452W        W13123  28.196  40.398  14.441
41453W        W13124  35.901  12.401   0.504
41454W        W13125  21.733  12.224  14.825
41455W        W13126   1.393   5.788   0.070
41456W        W13127  21.810  27.167   0.183
41457W        W13128  13.089  23.585   4.378
41458W        W13129  24.587  33.723  10.825
41459W        W13130  27.879   9.918   2.905
41460W        W13131  36.586  32.819  10.999
41461W        W13132  41.298  25.468   3.647
41462W        W13133  19.209  10.164   0.123
41463W        W13134  40.260  10.912   2.005
41464W        W13135  20.764  14.410  13.332
41465W        W13136  11.094   8.398   2.276
41466W        W13137  35.947  11.262  14.282
41467W        W13138  14.221   6.907   9.956
41468W        W13139   6.311   6.925   2.880
41469W        W13140  43.231  33.087  11.011
41470W        W13141  20.184  19.544  14.997
41471W        W13142  38.292  30.650  12.474
41472W        W13143  38.908  15.758  12.900
41473W        W13144  22.016   1.174   2.154
41474W        W13145  12.001   6.195   3.167
41475W        W13146  34.984   9.770  14.886
41476W        W13147  34.571  20.703   4.508
41477W        W13148   0.153  25.078  13.036
41478W        W13149  41.578  27.632  12.068
41479W        W13150  27.990   8.167  14.446
41480W        W13151  43.544  26.833  12.591
41481W        W13152  29.539  34.388  12.022
41482W        W13153  43.217  38.774   3.780
41483W        W13154   5.186   9.322  14.967
41484W        W13155  31.460  18.940  13.389
41485W        W13156  12.594  27.680  11.188
41486W        W13157  10.960  16.626   2.792
41487W        W13158  27.527   1.673   3.141
41488W        W13159  15.198   4.660   1.334
41489W        W13160   0.574  23.500  12.371
41490W        W13161   4.800  14.498   0.775
41491W        W13162  17.771  10.649  13.884
41492W        W13163   7.888  38.531  10.534
41493W        W13164  17.077   4.707  14.054
41494W        W13165  44.455  23.749  14.398
41495W        W13166  18.637  41.508   0.284
41496W        W13167  24.761  36.182   4.156
41497W        W13168  36.957  37.342  11.019
41498W        W13169   0.422  33.458  13.068
41499W        W13170   5.324  14.798  14.030
41500W        W13171  21.575  22.664  14.757
41501W        W13172  25.655  15.296  11.631
41502W        W13173   5.238  29.672   2.220
41503W        W13174  22.711  23.727  11.942
41504W        W13175  43.357   1.065   1.581
41505W        W13176  32.074  18.487   2.937
41506W        W13177  10.563  33.989   1.957
41507W        W13178  23.183  23.975  11.858
41508W        W13179  15.675  23.113  10.642
41509W        W13180  23.616  28.443   3.343
41510W        W13181   2.903  23.047   2.494
41511W        W13182  22.751   3.868   2.711
41512W        W13183   2.812  26.007   1.859
41513W        W13184  32.110  40.533   4.089
41514W        W13185  18.555  32.005   4.654
41515W        W13186  38.034   3.832  11.584
41516W        W13187  39.538  10.719  13.405
41517W        W13188  11.199  31.457  13.760
41518W        W13189  21.283  38.760  10.849
41519W        W13190  26.743   4.272   4.599
41520W        W13191  19.402  13.718  11.459
41521W        W13192  30.385  31.532  11.715
41522W        W13193   9.844  12.816   3.448
41523W        W13194   2.228  44.331   1.461
41524W        W13195  39.504  15.837   4.189
41525W        W13196  24.100  24.705   4.611
41526W        W13197   7.801  35.468  13.721
41527W        W13198  28.111  25.970   1.175
41528W        W13199   1.281   3.348   2.382
41529W        W13200  26.225  44.236   0.407
41530W        W13201  23.559  20.114   3.188
41531W        W13202  10.731  27.616   2.179
41532W        W13203   0.883  11.265  12.734
41533W        W13204  25.618   5.438   3.587
41534W        W13205  32.983  24.177   0.890
41535W        W13206  27.617  13.186  10.888
41536W        W13207  20.087  36.032   1.473
41537W        W13208  29.285  39.605  14.997
41538W        W13209   1.331  20.236  14.344
41539W        W13210  24.430  19.601  13.381
41540W        W13211  42.470  15.524  13.846
41541W        W13212  32.976  38.421  10.567
41542W        W13213  28.155  39.748   3.989
41543W        W13214  32.919   2.728   0.826
41544W        W13215  25.715  24.661  14.418
41545W        W13216  29.805  30.900   1.537
41546W        W13217   4.620  26.578   3.707
41547W        W13218  24.730  29.439  10.733
41548W        W13219  30.027  10.656  11.976
41549W        W13220   5.365   5.849  14.069
41550W        W13221  15.510  14.442   5.472
41551W        W13222  15.234  38.224  13.076
41552W        W13223  28.370  30.256   4.960
41553W        W13224  43.514  35.971  10.731
41554W        W13225  21.507  43.994  12.864
41555W        W13226  41.305  36.333  12.942
41556W        W13227  23.129   9.160   2.465
41557W        W13228  35.386   7.081   3.267
41558W        W13229  30.108  25.620  14.262
41559W        W13230  38.485  38.529  12.923
41560W        W13231  18.714  34.775   1.229
41561W        W13232  42.000   7.240  14.950
41562W        W13233  27.594  29.974   4.768
41563W        W13234  17.563  33.480   0.356
41564W        W13235  13.872  36.165  11.362
41565W        W13236  18.300  36.160   4.504
41566W        W13237  35.658  41.408  13.869
41567W        W13238  21.527  41.736   1.920
41568W        W13239  35.266  39.358   4.548
41569W        W13240  20.678  42.809   0.882
41570W        W13241   7.720  23.118  13.837
41571W        W13242   1.146  19.215   3.477
41572W        W13243   9.037  36.380   3.168
41573W        W13244  19.436  21.047   4.882
41574W        W13245  33.317   5.914  10.487
41575W        W13246  19.749  41.317   4.896
41576W        W13247  28.542  38.920   0.370
41577W        W13248  37.427  24.050  11.676
41578W        W13249  27.217  22.347   0.909
41579W        W13250  35.435   3.698   0.819
41580W        W13251  16.405  15.570   0.078
41581W        W13252  10.457  32.301   3.111
41582W        W13253  39.753  43.486   1.441
41583W        W13254   2.015   8.553   5.123
41584W        W13255  17.340  24.698   4.564
41585W        W13256  31.630  30.414   3.801
41586W        W13257   3.008   9.854  11.061
41587W        W13258   1.991  43.829   3.366
41588W        W13259  18.118  19.732   0.027
41589W        W13260  17.619  21.505   1.382
41590W        W13261  10.830  30.395  12.024
41591W        W13262  17.077  33.910   3.343
41592W        W13263   5.770   6.790   4.486
41593W        W13264  18.077   6.079   0.783
41594W        W13265  19.238  25.056  14.271
41595W        W13266  25.628  37.137   4.222
41596W        W13267   4.803  34.624   4.563
41597W        W13268  39.393  43.106   0.659
41598W        W13269  27.043   1.478   3.090
41599W        W13270  12.903  18.665   1.103
41600W        W13271  22.617  42.551  14.376
41601W        W13272  38.318  23.956  11.856
41602W        W13273  15.966  22.158   2.819
41603W        W13274   7.922  39.395  12.055
41604W        W13275  38.925  25.996   4.576
41605W        W13276  18.180  26.093  10.816
41606W        W13277  22.523   0.763  11.588
41607W        W13278  17.168  22.004  12.497
41608W        W13279   1.106   6.376  11.137
41609W        W13280   8.883   2.005  11.835
41610W        W13281  36.536   7.416   0.920
41611W        W13282   2.947  27.942   1.865
41612W        W13283  19.076  21.059  11.882
41613W        W13284  44.797  41.417   1.458
41614W        W13285   7.837  17.507   4.875
41615W        W13286   2.256  16.975  10.768
41616W        W13287   7.355  19.780  13.668
41617W        W13288  19.562  10.810  11.372
41618W        W13289  42.582  10.580   3.597
41619W        W13290   7.931  38.559  13.231
41620W        W13291  24.572  25.942  12.092
41621W        W13292  23.562   0.997   4.538
41622W        W13293  37.054  18.745  13.409
41623W        W13294  35.414   4.272  12.935
41624W        W13295  31.872   6.718   3.661
41625W        W13296  16.325   7.130  13.837
41626W        W13297  34.429  18.916   2.102
41627W        W13298  22.617  16.199   2.183
41628W        W13299  29.231  31.109   4.754
41629W        W13300  18.785  25.685  13.376
41630W        W13301  32.907  15.415  13.818
41631W        W13302  27.041  31.669  11.764
41632W        W13303  24.062  18.733   0.688
41633W        W13304  43.065  38.025   4.548
41634W        W13305  32.447  10.542   3.732
41635W        W13306  36.253  16.506   4.021
41636W        W13307  29.983  37.316   4.761
41637W        W13308  15.606  15.803  12.381
41638W        W13309  19.314  17.061  12.945
41639W        W13310  21.536   0.210   1.275
41640W        W13311  36.797  29.671  13.422
41641W        W13312  25.495  27.029   4.425
41642W        W13313  18.986   8.077   1.009
41643W        W13314  20.723  39.607  13.433
41644W        W13315   2.495   8.779  14.805
41645W        W13316  38.956  42.101  14.752
41646W        W13317  33.603  30.839  12.532
41647W        W13318  34.666  40.859  12.499
41648W        W13319  26.642  36.540  13.913
41649W        W13320  19.389  28.446  12.950
41650W        W13321   1.787   1.302   1.396
41651W        W13322  16.380   1.440   2.633
41652W        W13323  13.941  32.873   1.055
41653W        W13324  11.888  40.255  11.131
41654W        W13325  29.568  13.304  14.944
41655W        W13326  43.406  25.317   3.519
41656W        W13327  35.879  11.870   3.236
41657W        W13328   5.832   5.269   2.288
41658W        W13329  41.491   4.477   1.191
41659W        W13330  18.103   8.440   4.213
41660W        W13331  35.456   1.792   3.595
41661W        W13332  13.872  43.444  14.825
41662W        W13333  27.991  23.230   4.191
41663W        W13334  24.964  34.907   4.524
41664W        W13335  32.434   8.235  14.041
41665W        W13336  17.563  24.865   0.394
41666W        W13337  26.098   1.905   0.558
41667W        W13338  44.401  35.933  11.896
41668W        W13339  40.968  36.758  14.508
41669W        W13340  21.613  41.097   1.155
41670W        W13341  30.911  38.992  10.142
41671W        W13342  11.695   1.638  12.498
41672W        W13343  42.255  38.843   3.248
41673W        W13344   0.531  34.888  14.480
41674W        W13345  42.953  18.804  14.902
41675W        W13346  23.006  38.005   9.567
41676W        W13347  14.739  32.879  13.536
41677W        W13348  17.809   3.758   3.580
41678W        W13349  22.926  44.060  14.939
41679W        W13350   4.230  11.272  14.524
41680W        W13351   5.484  13.850  13.563
41681W        W13352  15.232  38.043   2.198
41682W        W13353  36.376  41.787  14.578
41683W        W13354  32.723   3.315   1.784
41684W        W13355  11.966  15.107  13.854
41685W        W13356  10.093  42.278   4.767
41686W        W13357  24.220   7.648   1.251
41687W        W13358  21.618  44.520  12.320
41688W        W13359  26.733  30.755   2.252
41689W        W13360  33.461  20.712   2.533
41690W        W13361  12.290  39.551  11.709
41691W        W13362  14.376  10.367   1.654
41692W        W13363  11.833  19.780   3.892
41693W        W13364  26.189  38.523   3.239
41694W        W13365   2.368  41.781  14.075
41695W        W13366  12.055  35.550  11.420
41696W        W13367   4.413  23.636   2.273
41697W        W13368  35.375  11.685  11.991
41698W        W13369  12.283   3.917  12.098
41699W        W13370   9.883   9.300   3.634
41700W        W13371  15.610  44.892   0.452
41701W        W13372  29.369  17.060  11.211
41702W        W13373  28.122  37.832  13.321
41703W        W13374  36.086   2.902   0.749
41704W        W13375  33.184  23.443   0.853
41705W        W13376  33.985  10.576   0.310
41706W        W13377  42.941  31.124   1.426
41707W        W13378   3.889   4.412   0.689
41708W        W13379  33.449   6.143  12.008
41709W        W13380   9.380   8.320   3.169
41710W        W13381  26.007  38.011   3.190
41711W        W13382  30.651  37.445   4.111
41712W        W13383  37.843   2.868   3.703
41713W        W13384   0.936   8.344  10.787
41714W        W13385  38.352  20.192  11.633
41715W        W13386   8.482   3.195   0.448
41716W        W13387   0.475   2.875  14.890
41717W        W13388  28.556  32.648   1.353
41718W        W13389  41.230  35.318  12.054
41719W        W13390  19.543  37.505   1.488
41720W        W13391  18.585  20.959  11.137
41721W        W13392  14.148  19.735  10.242
41722W        W13393  21.522   0.003   0.376
41723W        W13394   5.192  20.673  12.409
41724W        W13395   4.617  28.579  10.659
41725W        W13396  29.411  24.252  11.710
41726W        W13397  35.937  16.999  14.027
41727W        W13398  25.476  36.026  14.219
41728W        W13399  42.072   4.923   1.178
41729W        W13400   6.988   4.363  13.802
41730W        W13401  33.111  29.607   1.603
41731W        W13402  33.501  20.560  11.628
41732W        W13403  20.039  25.731  14.380
41733W        W13404  42.784   1.289   0.271
41734W        W13405  14.769   7.833  11.389
41735W        W13406   9.314  39.120   4.366
41736W        W13407   3.883  37.290   1.235
41737W        W13408  25.179  20.119   1.710
41738W        W13409  17.600  41.603   2.254
41739W        W13410   4.300   2.900  14.393
41740W        W13411  12.701  18.207   2.635
41741W        W13412  11.320  27.599   3.892
41742W        W13413   8.371   2.451   3.128
41743W        W13414   0.267  38.506   2.186
41744W        W13415   9.203   4.927  12.669
41745W        W13416  22.736  19.721  13.924
41746W        W13417  16.375  25.164  10.657
41747W        W13418  19.461  44.821   0.367
41748W        W13419  14.001  43.191   0.922
41749W        W13420  25.779  28.406  12.277
41750W        W13421  12.398  38.832   3.120
41751W        W13422  40.841  31.139   2.934
41752W        W13423  10.109  20.087  14.947
41753W        W13424   1.241  36.498  13.107
41754W        W13425  29.378   7.269   4.125
41755W        W13426  43.542  28.631  13.660
41756W        W13427   8.159   1.191  13.013
41757W        W13428  14.389  14.665   3.268
41758W        W13429  20.207  27.036   9.958
41759W        W13430   0.170  37.359  14.097
41760W        W13431  30.704  12.810  14.851
41761W        W13432  26.913   9.878  14.262
41762W        W13433   8.650  10.693   4.627
41763W        W13434  44.728  44.825  10.703
41764W        W13435  14.662  37.667   2.804
41765W        W13436   9.126  36.927   0.021
41766W        W13437  31.013   3.170  14.802
41767W        W13438  18.760  38.696   4.984
41768W        W13439  29.865   1.371   0.292
41769W        W13440  31.023  32.357   1.285
41770W        W13441  44.979   3.321   4.969
41771W        W13442  11.715  18.001   2.818
41772W        W13443  10.740  32.649  11.653
41773W        W13444  27.048  12.473   3.696
41774W        W13445  38.414  13.601  13.316
41775W        W13446  12.354  31.941   4.147
41776W        W13447  35.048   4.257  14.158
41777W        W13448  15.862  37.146  14.749
41778W        W13449  11.422  20.111   3.913
41779W        W13450  36.946  19.030  13.834
41780W        W13451  41.580  12.017   0.223
41781W        W13452   2.462  37.109   4.671
41782W        W13453  44.619  20.657   5.429
41783W        W13454  40.892  15.281   0.018
41784W        W13455   2.686  30.563   1.027
41785W        W13456   6.925  11.535  14.477
41786W        W13457  44.617  25.526   4.891
41787W        W13458   1.972   7.745  12.048
41788W        W13459  13.774  27.591  13.865
41789W        W13460  33.975  18.735   1.942
41790W        W13461  18.260  38.548  14.368
41791W        W13462  26.080   5.415  11.944
41792W        W13463  42.973   9.857   4.171
41793W        W13464  41.991  42.452  12.083
41794W        W13465  21.631  40.983  13.367
41795W        W13466   7.377  35.629  12.991
41796W        W13467  32.277  13.597   2.906
41797W        W13468   9.099   8.360  10.698
41798W        W13469  42.470  27.462  14.861
41799W        W13470  32.753  20.066   2.711
41800W        W13471  35.352   7.709  14.406
41801W        W13472  15.395  16.121  10.505
41802W        W13473  35.147  36.324   1.705
41803W        W13474  17.327  44.099   2.355
41804W        W13475  42.363  44.594   5.097
41805W        W13476  29.410  28.635  11.890
41806W        W13477  41.003   7.847   4.539
41807W        W13478  15.577   9.074  13.054
41808W        W13479  38.410   7.733   1.312
41809W        W13480  39.923  33.685  14.989
41810W        W13481  18.557   0.853  14.258
41811W        W13482  39.735  29.367   1.629
41812W        W13483  28.083  43.411  14.523
41813W        W13484   9.343  28.482  14.135
41814W        W13485  24.587  19.772  14.295
41815W        W13486  32.402  35.944  10.339
41816W        W13487  24.240  44.520   2.258
41817W        W13488  33.154  40.085  14.532
41818W        W13489  43.497  26.198   3.122
41819W        W13490  10.038  36.017   0.024
41820W        W13491  39.818  11.404   4.570
41821W        W13492  28.979  38.740   0.930
41822W        W13493  32.882   8.240   1.736
41823W        W13494  44.777   4.153   2.423
41824W        W13495  24.945  37.301  13.973
41825W        W13496  39.320  23.065   3.745
41826W        W13497  29.462  38.850  11.456
41827W        W13498  40.326  42.860   4.288
41828W        W13499  26.392   2.438   3.306
41829W        W13500  25.702  31.831  12.930
41830W        W13501  42.918  36.436  13.850
41831W        W13502  28.078  14.629  13.933
41832W        W13503  27.369  25.247  10.749
41833W        W13504   5.903  33.493  14.391
41834W        W13505  29.089   3.799   1.496
41835W        W13506  33.936  26.019   2.985
41836W        W13507   8.698  25.885   1.369
41837W        W13508   6.780   2.930   4.938
41838W        W13509  38.542   3.685  14.152
41839W        W13510  42.700  14.156  14.532
41840W        W13511  13.149  10.252  10.174
41841W        W13512  12.802   2.966   3.683
41842W        W13513  31.135   2.124   0.016
41843W        W13514  17.990   1.460  11.646
41844W        W13515  10.576  27.216   0.723
41845W        W13516  21.746  10.653   0.361
41846W        W13517  15.790  15.755  12.877
41847W        W13518  29.436  15.792  12.022
41848W        W13519  42.856  38.799   4.999
41849W        W13520  38.054  31.947   1.885
41850W        W13521   1.524   7.765   4.565
41851W        W13522  42.517  10.746  12.100
41852W        W13523  43.007  32.806  10.587
41853W        W13524  16.010  10.365   2.776
41854W        W13525  39.757   1.341   1.764
41855W        W13526  36.860  20.388  10.634
41856W        W13527  41.104  26.010   0.024
41857W        W13528  17.094   8.279  10.569
41858W        W13529  41.404   8.183   1.351
41859W        W13530  17.765  33.982  10.748
41860W        W13531  28.247  15.606   0.928
41861W        W13532  26.413  40.991   0.378
41862W        W13533  33.550  21.816   2.242
41863W        W13534  10.796  11.669   2.191
41864W        W13535  16.654  19.353   0.920
41865W        W13536  41.466  33.913   0.532
41866W        W13537   7.144  44.919  13.349
41867W        W13538  30.302  37.936  12.362
41868W        W13539  33.539  21.297  12.394
41869W        W13540  42.564   9.698  11.165
41870W        W13541  17.604  26.446  13.878
41871W        W13542   0.673   0.908   1.253
41872W        W13543  44.830  29.074   0.062
41873W        W13544  44.545  13.286  10.681
41874W        W13545  28.979   0.039  11.218
41875W        W13546  15.407  26.097  14.903
41876W        W13547  24.986  28.817   4.653
41877W        W13548  15.368  36.485  12.079
41878W        W13549  39.117  26.028   0.753
41879W        W13550  24.145  13.370   3.727
41880W        W13551  22.313  15.373   2.370
41881W        W13552   1.627   4.455  10.688
41882W        W13553  44.265   4.442  12.045
41883W        W13554  40.091  24.806  14.222
41884W        W13555  33.116  34.063  13.937
41885W        W13556   0.468  11.788   1.760
41886W        W13557  33.299  35.909   1.774
41887W        W13558  26.956  10.831  13.323
41888W        W13559  42.807  13.778   3.773
41889W        W13560   4.715  31.217  13.993
41890W        W13561  24.460  35.074   0.264
41891W        W13562  10.090  32.426  14.744
41892W        W13563  21.485  32.899   2.367
41893W        W13564  31.467  26.193  10.746
41894W        W13565   7.432   9.851  13.244
41895W        W13566  17.574  16.544  14.027
41896W        W13567  35.345   2.905  14.482
41897W        W13568  34.421  34.437  14.502
41898W        W13569  40.358  35.676   3.679
41899W        W13570  24.040  42.328  14.693
41900W        W13571  38.895  40.563   0.191
41901W        W13572  23.153  22.108   1.394
41902W        W13573  34.160  29.672   0.033
41903W        W13574  27.310  28.686   0.938
41904W        W13575  38.654  10.296   0.754
41905W        W13576  32.331   2.260   4.290
41906W        W13577  30.506  34.609  11.983
41907W        W13578  31.067  15.177  11.623
41908W        W13579   9.567   9.550   0.676
41909W        W13580  37.932   0.225  12.870
41910W        W13581  24.019  10.425   4.594
41911W        W13582  14.805   8.157   1.756
41912W        W13583  12.041  26.146  11.612
41913W        W13584  28.679  28.207   1.412
41914W        W13585  41.301  43.327  11.481
41915W        W13586  43.412  36.623   2.291
41916W        W13587  33.630  19.797   0.373
41917W        W13588  12.701  15.838  14.271
41918W        W13589   5.723  44.187  14.359
41919W        W13590  23.274   2.878   0.783
41920W        W13591  36.399  26.680   1.871
41921W        W13592  26.028  32.963  12.262
41922W        W13593   2.543  19.205   4.820
41923W        W13594  42.882  40.816  13.537
41924W        W13595   4.678  37.915  11.103
41925W        W13596  29.058  25.466   3.753
41926W        W13597  41.990   4.280   3.762
41927W        W13598  16.723  44.891  13.892
41928W        W13599  11.815  36.101  12.684
41929W        W13600  43.475  14.110  12.621
41930W        W13601   9.253  29.912  12.618
41931W        W13602  16.939  22.056  13.910
41932W        W13603  24.028  38.497   4.221
41933W        W13604   2.252   0.423  13.511
41934W        W13605  20.014  34.485  11.871
41935W        W13606  32.390  20.816   2.290
41936W        W13607  14.410  19.660  13.658
41937W        W13608  12.426  37.508  11.201
41938W        W13609  18.840   5.216   2.725
41939W        W13610  37.361  17.477   3.275
41940W        W13611  12.335  21.713   0.744
41941W        W13612  44.860  33.573   0.923
41942W        W13613  19.197  21.420  10.746
41943W        W13614  43.926   3.527  10.574
41944W        W13615   0.384   7.932   1.266
41945W        W13616  20.196   7.402  10.697
41946W        W13617   4.343  10.194   0.719
41947W        W13618  43.018  23.555  13.041
41948W        W13619  25.213  37.863  11.134
41949W        W13620   6.814  19.233  12.093
41950W        W13621  31.405  29.749   1.226
41951W        W13622   5.940  17.709   2.138
41952W        W13623   3.386  32.468   3.283
41953W        W13624   5.175  37.132  10.716
41954W        W13625  27.214  33.466  12.525
41955W        W13626  18.835   6.682  12.585
41956W        W13627   3.804  41.890  13.283
41957W        W13628   5.882  25.955   0.957
41958W        W13629  13.872  40.570  11.140
41959W        W13630   0.931  28.669  11.800
41960W        W13631  44.889  30.637  13.432
41961W        W13632  33.872  41.927   0.781
41962W        W13633  35.590   9.256  14.342
41963W        W13634  19.538   2.501  12.487
41964W        W13635  43.324  12.570  11.500
41965W        W13636  21.319  43.233   0.416
41966W        W13637  18.480  27.621  12.131
41967W        W13638   1.806  11.405   4.178
41968W        W13639  19.109  36.089   0.477
41969W        W13640   3.235  35.972  12.375
41970W        W13641  36.241  19.528   5.130
41971W        W13642  35.295  30.033   4.140
41972W        W13643  18.161  17.792  14.991
41973W        W13644  10.948  11.254  11.542
41974W        W13645  28.978  15.090   0.910
41975W        W13646  18.370  32.218   0.336
41976W        W13647  13.886  16.731  12.558
41977W        W13648  11.397   0.998   1.875
41978W        W13649  30.030   3.613   1.458
41979W        W13650  11.547  13.324  13.763
41980W        W13651  20.934  23.651  13.478
41981W        W13652   5.842   6.670  12.974
41982W        W13653   6.992   0.144  13.797
41983W        W13654   6.286  16.171   4.073
41984W        W13655  15.744   0.884   3.190
41985W        W13656  12.561  12.609   2.232
41986W        W13657  42.160  15.196   0.417
41987W        W13658   6.777   9.191  13.003
41988W        W13659  12.175  11.596  12.050
41989W        W13660   0.440  39.567   0.630
41990W        W13661  39.906  17.528   0.887
41991W        W13662  18.835  18.764  12.819
41992W        W13663  44.297  34.986  14.276
41993W        W13664  35.792  36.034  13.067
41994W        W13665  35.019  30.669  12.420
41995W        W13666  20.373  21.920   2.777
41996W        W13667  31.206  32.107   3.113
41997W        W13668  31.262  21.126   1.512
41998W        W13669  26.632   0.066  12.061
41999W        W13670  35.593   2.265  14.553
42000W        W13671  16.046  42.924   0.784
42001W        W13672  34.178  40.812  14.475
42002W        W13673  42.515   2.708  10.809
42003W        W13674  19.379   7.098  11.440
42004W        W13675  12.417  20.819  13.738
42005W        W13676  10.601   9.638  11.207
42006W        W13677  34.385   2.415   4.232
42007W        W13678  26.503  17.892  10.641
42008W        W13679  21.116   5.149   3.683
42009W        W13680   5.098  30.117  11.502
42010W        W13681  28.808   1.974  13.450
42011W        W13682  37.742   9.185  14.011
42012W        W13683  22.679  35.697   4.872
42013W        W13684  10.316   3.705  11.156
42014W        W13685  40.570  36.915   0.053
42015W        W13686  15.191  13.821   1.156
42016W        W13687  40.261   5.951  12.101
42017W        W13688  17.735   1.236  13.093
42018W        W13689  29.239  30.483  12.596
42019W        W13690   5.683  29.976   2.304
42020W        W13691  24.147  30.110  12.618
42021W        W13692  39.054   4.788   3.270
42022W        W13693  26.629   4.458   0.056
42023W        W13694  41.962  37.877   0.317
42024W        W13695  37.326  15.555  14.018
42025W        W13696  13.175  34.202  12.331
42026W        W13697   0.921   8.738  14.806
42027W        W13698  43.368  12.247  10.645
42028W        W13699  33.883   0.268   4.576
42029W        W13700  13.247  29.204   1.235
42030W        W13701  35.327  37.460   1.781
42031W        W13702  23.044  37.324  12.881
42032W        W13703  10.643  17.356   0.842
42033W        W13704  24.073  38.868  14.351
42034W        W13705  31.529  10.215  13.129
42035W        W13706  13.165  18.769  12.033
42036W        W13707  13.696  33.163  13.939
42037W        W13708  29.123  35.080   0.217
42038W        W13709  43.761  43.354   0.761
42039W        W13710  18.988  23.990   5.157
42040W        W13711   8.686  44.888   0.900
42041W        W13712   2.009  22.960   2.154
42042W        W13713  24.549   4.986  13.266
42043W        W13714  29.657   9.330   1.883
42044W        W13715   8.076  42.441   4.179
42045W        W13716  29.665  16.817  12.073
42046W        W13717  34.918  23.126  12.548
42047W        W13718  33.359   5.914   4.460
42048W        W13719  17.176  37.365  14.079
42049W        W13720  18.711  22.828   1.450
42050W        W13721  38.403   1.541   1.507
42051W        W13722  13.665  16.248   4.154
42052W        W13723   9.458   1.358   1.950
42053W        W13724  43.127  21.196  14.999
42054W        W13725  32.140  11.641  14.038
42055W        W13726  14.322  27.182  14.355
42056W        W13727  30.441  34.229   0.371
42057W        W13728  39.534  17.257  13.992
42058W        W13729  40.380  34.281  13.995
42059W        W13730  36.579  22.446   2.169
42060W        W13731  22.244  44.809  13.072
42061W        W13732   3.375  25.433   4.299
42062W        W13733  31.887  43.062   0.519
42063W        W13734  10.635  11.203  11.132
42064W        W13735  18.920  23.670   0.921
42065W        W13736  29.145  18.747   2.375
42066W        W13737  44.737  38.102   4.809
42067W        W13738  20.187   0.903   4.170
42068W        W13739  29.715  44.537   3.166
42069W        W13740  14.388  40.346  14.442
42070W        W13741  42.403  42.757   0.432
42071W        W13742   4.824  10.710   1.275
42072W        W13743  37.643  33.166   2.321
42073W        W13744   1.335  16.294  13.910
42074W        W13745  10.335  41.486  12.368
42075W        W13746   9.696   0.654  11.069
42076W        W13747  38.461  11.428  12.036
42077W        W13748  37.067  32.066  13.034
42078W        W13749  36.049  43.376   3.638
42079W        W13750  11.453  21.153   4.529
42080W        W13751  27.215  26.498   0.879
42081W        W13752  28.439  15.331  14.361
42082W        W13753  33.252  34.878  10.825
42083W        W13754  27.535  28.759  11.646
42084W        W13755  17.817  26.950  13.945
42085W        W13756  36.591  18.616   3.089
42086W        W13757   7.442  21.091  11.715
42087W        W13758  40.316  16.827  13.787
42088W        W13759  25.880  30.499  12.560
42089W        W13760  34.870  23.180   4.587
42090W        W13761   1.786   9.568  11.935
42091W        W13762  24.227  21.998   0.693
42092W        W13763   5.037  43.743  12.527
42093W        W13764   4.362   9.805   4.543
42094W        W13765   1.014  39.032   0.319
42095W        W13766   2.938  15.260  13.453
42096W        W13767  29.353  39.048  10.131
42097W        W13768  28.964  17.199  10.917
42098W        W13769   0.969   3.168  13.365
42099W        W13770  22.584  37.523  13.089
42100W        W13771  30.126   2.302  13.521
42101W        W13772  12.355  34.911   4.278
42102W        W13773   6.344  16.883  13.096
42103W        W13774   0.005  27.825  12.927
42104W        W13775  44.492  29.409  11.346
42105W        W13776  10.793  31.538   4.863
42106W        W13777   9.400  16.702   1.838
42107W        W13778  21.231  35.137  12.889
42108W        W13779  25.035  37.442   1.749
42109W        W13780  37.423  25.426  11.090
42110W        W13781  41.763  20.733   4.123
42111W        W13782  36.853  16.446   2.306
42112W        W13783  39.876  41.282   0.619
42113W        W13784  12.280  16.722  13.616
42114W        W13785  10.857  41.900   1.771
42115W        W13786  19.397  25.804   1.772
42116W        W13787  30.615  32.524  10.722
42117W        W13788  21.166  44.482   1.220
42118W        W13789   2.301  32.995   0.776
42119W        W13790  18.252   7.347  10.931
42120W        W13791  39.739   9.711   4.190
42121W        W13792  34.204  12.301  14.092
42122W        W13793  28.900  43.735   4.243
42123W        W13794  20.355  14.129   0.385
42124W        W13795  23.682  20.681   2.879
42125W        W13796   8.730   9.380   1.232
42126W        W13797  23.287  38.947   1.476
42127W        W13798  35.558   2.674   3.161
42128W        W13799  11.131  43.886   1.122
42129W        W13800  27.897  42.781  10.272
42130W        W13801  23.953  42.849  13.455
42131W        W13802  30.039  39.888   1.773
42132W        W13803  13.168   4.926   1.779
42133W        W13804  23.040  28.728  12.525
42134W        W13805  12.361  37.964   0.307
42135W        W13806  40.774   4.217   2.717
42136W        W13807  10.746  23.716  12.921
42137W        W13808  32.875  26.397   4.067
42138W        W13809  25.982  18.999  13.597
42139W        W13810  26.857  31.232   3.674
42140W        W13811  37.917  30.466  13.504
42141W        W13812  38.317  18.663  13.749
42142W        W13813  10.514   7.869   3.777
42143W        W13814   3.208  10.338  10.377
42144W        W13815  12.434  21.871  12.901
42145W        W13816  36.042  23.258  10.834
42146W        W13817  33.788  29.008  11.483
42147W        W13818  28.744  43.792   3.723
42148W        W13819  34.892  10.879  14.982
42149W        W13820  24.725  11.082   3.952
42150W        W13821  10.691  32.874  14.822
42151W        W13822  42.642  33.621   1.359
42152W        W13823  29.389  27.020  12.517
42153W        W13824  44.080  39.214  10.593
42154W        W13825  19.724  21.626  14.560
42155W        W13826  25.606  26.027   1.866
42156W        W13827  33.928  29.930   1.411
42157W        W13828  28.495  40.728  11.197
42158W        W13829  39.459  21.689  13.254
42159W        W13830   7.482  30.386   4.128
42160W        W13831   5.655  17.110   0.334
42161W        W13832  11.389  24.539   0.738
42162W        W13833  22.362  22.275  10.261
42163W        W13834  25.765  38.619   4.117
42164W        W13835  24.689   2.276  12.654
42165W        W13836  41.832  12.110  10.680
42166W        W13837  38.133  16.106   0.012
42167W        W13838  19.210   7.297   2.227
42168W        W13839  15.383  26.510  12.957
42169W        W13840  28.463   2.416  14.293
42170W        W13841  23.482  42.356  12.644
42171W        W13842  43.260  41.638   2.243
42172W        W13843   3.463   6.243  14.852
42173W        W13844   4.477  27.926  12.972
42174W        W13845  28.711  37.861   2.439
42175W        W13846   1.556  10.325   0.968
42176W        W13847   4.739   1.892  14.836
42177W        W13848  44.193  42.017  13.365
42178W        W13849  20.881  24.006  12.875
42179W        W13850  33.344  27.511  10.708
42180W        W13851  20.801   0.944   2.272
42181W        W13852  44.896  38.875  11.920
42182W        W13853  17.751  41.881  11.847
42183W        W13854   5.647  35.888   2.206
42184W        W13855  25.501  34.668   3.190
42185W        W13856  30.481  25.176  13.238
42186W        W13857  43.518  31.350   2.807
42187W        W13858  10.423  34.379   0.673
42188W        W13859   5.969  15.604  13.203
42189W        W13860  29.825   2.254   1.794
42190W        W13861  31.890  31.091  10.143
42191W        W13862   6.163  29.409  13.509
42192W        W13863   8.892  10.356  13.783
42193W        W13864  10.188  28.113   0.502
42194W        W13865  40.651   2.223  11.615
42195W        W13866  38.074  23.553  11.146
42196W        W13867  31.588  35.073   0.526
42197W        W13868   1.414  32.109  13.491
42198W        W13869   1.004   7.127  14.893
42199W        W13870  39.939  30.279   1.341
42200W        W13871  38.909   5.730  13.085
42201W        W13872  23.037   1.922  12.408
42202W        W13873   4.193  28.024  12.060
42203W        W13874   5.327   3.629   5.027
42204W        W13875  13.072  19.074  11.219
42205W        W13876  24.593  38.942  10.315
42206W        W13877  31.876  10.842  12.146
42207W        W13878  19.287   7.212  13.022
42208W        W13879  25.437   5.884   3.854
42209W        W13880  12.746  25.958   4.301
42210W        W13881  26.029  33.545   3.424
42211W        W13882  37.406  17.813  11.898
42212W        W13883  17.338  14.181  11.542
42213W        W13884  24.624  28.093   4.438
42214W        W13885  37.390  40.910   1.245
42215W        W13886  44.337  17.575  14.332
42216W        W13887  41.439  32.914  12.112
42217W        W13888  32.367  19.374  11.522
42218W        W13889   4.063  14.045   4.050
42219W        W13890  32.661  19.438  12.413
42220W        W13891  27.186  22.382  11.386
42221W        W13892  24.971  30.523   3.202
42222W        W13893  31.748  41.371   1.714
42223W        W13894  30.270  38.076   3.041
42224W        W13895  32.590  13.049   2.320
42225W        W13896  33.167  16.312  12.531
42226W        W13897  18.513  29.680  13.410
42227W        W13898  24.640  23.101   4.676
42228W        W13899  33.032   7.323   4.426
42229W        W13900  15.477   9.320  10.166
42230W        W13901  12.009  44.049  12.581
42231W        W13902   1.324   5.138   3.359
42232W        W13903  30.399  12.604  12.293
42233W        W13904  23.133  42.658  11.832
42234W        W13905  38.391  10.736   0.916
42235W        W13906  32.997  31.166  13.001
42236W        W13907  37.391  11.079   1.703
42237W        W13908  18.186  24.413   4.173
42238W        W13909  10.170  15.069  12.209
42239W        W13910  21.446  30.088  14.590
42240W        W13911  19.173  34.819  11.170
42241W        W13912  34.268  41.383  14.315
42242W        W13913   6.462   7.416   0.900
42243W        W13914  31.095  29.139   4.923
42244W        W13915  41.882  38.501  14.006
42245W        W13916   3.698  23.603   2.671
42246W        W13917  15.886  21.523   3.653
42247W        W13918  20.754  10.794  12.048
42248W        W13919  32.433  34.426  13.523
42249W        W13920  42.539  11.179  14.800
42250W        W13921  17.531  29.642   0.456
42251W        W13922  15.099  29.050  12.761
42252W        W13923  35.333  35.402   0.850
42253W        W13924  17.881  16.219  13.381
42254W        W13925   5.637  32.959   0.686
42255W        W13926  26.957   1.837   0.008
42256W        W13927  26.809  14.679   4.864
42257W        W13928  25.965  28.601   3.327
42258W        W13929  39.395  13.726  11.187
42259W        W13930   6.924  17.710  14.232
42260W        W13931  11.255  17.782   0.755
42261W        W13932  19.295  40.945  14.011
42262W        W13933  14.205  15.111  14.559
42263W        W13934   8.063  37.432   1.896
42264W        W13935  41.484  42.121  12.500
42265W        W13936  33.141  26.704   3.739
42266W        W13937  33.363  31.708  11.314
42267W        W13938   7.869  34.660  11.172
42268W        W13939   4.144  13.439   0.283
42269W        W13940  13.233   8.423  13.336
42270W        W13941  30.591  11.368   1.858
42271W        W13942  44.962  41.809   2.694
42272W        W13943  18.595   1.501   0.379
42273W        W13944  13.701  26.443  14.478
42274W        W13945  28.228  44.319  10.643
42275W        W13946  13.239  11.678   2.871
42276W        W13947  32.936   8.174   2.675
42277W        W13948  32.852  31.121  11.355
42278W        W13949  14.847  32.348   1.799
42279W        W13950   6.443   6.698   2.436
42280W        W13951  41.191  37.608  12.029
42281W        W13952  22.204  14.845  12.682
42282W        W13953   1.473   3.106   1.193
42283W        W13954  38.397  38.290   1.432
42284W        W13955  20.976  16.208   0.785
42285W        W13956  37.606  14.116  11.048
42286W        W13957   3.240  34.900   1.149
42287W        W13958  13.220  43.160   4.657
42288W        W13959   6.169  13.365  12.117
42289W        W13960  23.637  43.707   2.081
42290W        W13961  15.193  36.691  13.424
42291W        W13962  43.188  25.665  14.216
42292W        W13963  19.636   6.662  13.597
42293W        W13964  38.405  33.572   0.345
42294W        W13965  20.661   1.233  12.995
42295W        W13966   7.680  29.732   4.026
42296W        W13967  10.691  32.952  12.290
42297W        W13968   5.672  10.911   2.212
42298W        W13969  23.789  36.390   4.127
42299W        W13970  12.205  27.453  12.841
42300W        W13971  17.811  12.743  10.073
42301W        W13972  34.620  12.203  10.994
42302W        W13973  29.356   7.807  14.962
42303W        W13974  24.720  15.843   2.277
42304W        W13975  30.029   7.126  13.373
42305W        W13976  12.581  39.865  14.493
42306W        W13977  36.554   5.983   4.051
42307W        W13978  36.794  23.690   2.824
42308W        W13979  44.468  16.805   1.162
42309W        W13980   6.833   9.593   0.476
42310W        W13981  43.839  36.830  14.090
42311W        W13982  23.333  28.621   3.712
42312W        W13983   1.209   4.452  12.348
42313W        W13984  15.234  13.891   0.123
42314W        W13985  42.899   4.782  12.896
42315W        W13986   6.131  13.286   0.336
42316W        W13987  42.287  24.277   1.844
42317W        W13988  33.740  43.561  11.356
42318W        W13989  10.095   9.378  14.830
42319W        W13990  17.821  12.095  14.922
42320W        W13991  25.187  26.937   3.989
42321W        W13992   7.193  15.670  10.725
42322W        W13993  11.910   3.286   0.059
42323W        W13994  20.837  16.717  12.442
42324W        W13995  35.409  23.929  13.398
42325W        W13996  27.161   0.328   1.729
42326W        W13997  43.460  28.579   0.930
42327W        W13998  17.809  14.848   0.748
42328W        W13999  13.710  29.118  13.371
42329W        W14000  14.577  34.177  13.894
42330W        W14001  36.210  34.189  12.005
42331W        W14002  41.181  44.254   3.439
42332W        W14003  34.464  18.664   4.630
42333W        W14004  33.993  26.481  14.052
42334W        W14005  34.900  34.036   2.371
42335W        W14006  23.168  16.579   3.108
42336W        W14007   6.279  29.113   3.549
42337W        W14008  24.047  44.723  10.684
42338W        W14009  43.439   3.395   4.127
42339W        W14010   8.781  42.501  12.870
42340W        W14011   2.558  18.585  13.483
42341W        W14012  27.214  39.902   2.438
42342W        W14013   8.374  23.945   1.842
42343W        W14014   9.770  16.606  11.239
42344W        W14015   4.238  33.938   4.217
42345W        W14016   9.153  15.767   2.896
42346W        W14017  11.606  34.623  11.645
42347W        W14018  14.446  16.092  10.777
42348W        W14019  29.484  41.620  13.090
42349W        W14020  34.982  42.679   5.240
42350W        W14021  25.341  15.337  12.030
42351W        W14022  33.619  44.852  13.801
42352W        W14023   7.930  27.744   4.342
42353W        W14024  23.524  39.345   0.617
42354W        W14025   9.438  19.759   0.711
42355W        W14026  10.763  17.442  14.802
42356W        W14027  39.822   6.880  10.836
42357W        W14028  30.340  39.498  14.930
42358W        W14029  19.741  29.460  11.363
42359W        W14030   1.324  37.745  12.539
42360W        W14031  40.963  42.527   0.294
42361W        W14032  25.254  22.714  11.224
42362W        W14033  32.737  36.759   4.617
42363W        W14034   0.528  35.330  11.645
42364W        W14035  40.756  26.246   4.075
42365W        W14036  22.964  32.009   4.121
42366W        W14037  12.656  22.526   0.524
42367W        W14038   2.516  37.011   1.433
42368W        W14039  44.480  34.389   0.217
42369W        W14040   5.927  10.474   4.298
42370W        W14041  43.950  26.212   2.132
42371W        W14042  34.189  42.591  11.269
42372W        W14043  15.253  20.833  10.704
42373W        W14044  12.536  31.097  12.591
42374W        W14045  20.528  15.476  12.130
42375W        W14046   4.772  30.074   3.668
42376W        W14047  39.886   2.941  12.872
42377W        W14048  23.503  21.275   1.189
42378W        W14049  25.677  36.798   2.015
42379W        W14050  40.419  32.824   4.031
42380W        W14051   7.699  19.574  13.338
42381W        W14052   8.106  43.667  12.544
42382W        W14053  19.240   9.927  10.646
42383W        W14054   5.246  16.143  11.103
42384W        W14055  38.572  27.952   0.258
42385W        W14056  13.998  20.776   2.796
42386W        W14057  34.000   5.107   0.203
42387W        W14058  32.978  37.633  12.398
42388W        W14059  29.535  28.414   1.199
42389W        W14060  42.260  20.449   2.914
42390W        W14061  22.684   0.662  12.584
42391W        W14062  36.624  36.581  13.234
42392W        W14063  18.311   5.422   1.366
42393W        W14064  42.046  34.163  12.069
42394W        W14065  41.543   4.258   0.232
42395W        W14066  38.523  29.431  10.687
42396W        W14067  13.563  23.479  11.042
42397W        W14068  18.510  35.056   1.633
42398W        W14069  41.552  34.980  11.121
42399W        W14070  33.057  28.551  13.097
42400W        W14071   2.455  14.286   0.883
42401W        W14072  12.303   3.246   2.833
42402W        W14073  17.648  12.277   9.872
42403W        W14074  15.816   3.937  14.046
42404W        W14075   6.593   0.022  13.040
42405W        W14076  26.366  34.116   1.005
42406W        W14077  43.937  42.604  13.920
42407W        W14078   0.762   0.489  11.112
42408W        W14079  38.971   4.012   0.238
42409W        W14080   4.888  23.438   3.323
42410W        W14081  35.823  14.545  12.989
42411W        W14082  34.646  29.459   0.941
42412W        W14083   7.095  25.098   4.603
42413W        W14084  33.065  18.751   3.326
42414W        W14085   0.020  18.157   2.793
42415W        W14086  29.458   6.972   1.300
42416W        W14087  23.243  38.458   1.765
42417W        W14088   4.722  36.047  14.200
42418W        W14089  22.646  37.921  13.442
42419W        W14090   3.814  21.662   9.890
42420W        W14091  23.254   9.122   1.421
42421W        W14092  32.065  28.174  14.707
42422W        W14093  37.565  42.576   4.204
42423W        W14094  35.479  14.283  13.865
42424W        W14095  27.084  18.367   4.432
42425W        W14096  20.569  11.184  10.369
42426W        W14097  38.061  42.433   3.851
42427W        W14098  35.135  31.052   1.316
42428W        W14099  39.434   7.580   3.186
42429W        W14100  29.062  25.644  10.360
42430W        W14101  13.384  29.078   2.695
42431W        W14102   4.477  14.312   2.783
42432W        W14103  10.864  21.004   2.720
42433W        W14104  44.085   2.721   4.096
42434W        W14105  29.628  37.364   0.916
42435W        W14106  10.122  32.494  10.593
42436W        W14107  40.736   6.159  12.187
42437W        W14108  21.969  30.340  11.645
42438W        W14109   9.867  35.506  10.509
42439W        W14110  11.964  21.130   4.545
42440W        W14111   2.463  17.566  13.376
42441W        W14112  12.996  37.533   3.754
42442W        W14113  43.904  13.752   2.314
42443W        W14114  22.010  17.706  13.847
42444W        W14115  12.346  17.508   3.129
42445W        W14116   7.760  40.925   0.009
42446W        W14117   8.946   3.937   2.692
42447W        W14118  19.895  18.713   3.765
42448W        W14119  20.952  15.788  14.592
42449W        W14120  30.692  27.974  13.397
42450W        W14121   0.657  12.215   2.802
42451W        W14122  28.585  40.380   1.622
42452W        W14123  30.052   3.143  10.908
42453W        W14124  42.329   4.896   3.591
42454W        W14125  14.362  12.212  10.635
42455W        W14126  22.902  19.509   5.091
42456W        W14127   9.699  24.612  14.891
42457W        W14128  41.972  32.161  11.145
42458W        W14129  40.462   9.715   0.394
42459W        W14130  18.890  32.478   2.919
42460W        W14131  41.269  21.268   0.774
42461W        W14132  24.756  31.909  13.919
42462W        W14133  38.559   9.338  10.634
42463W        W14134   4.795  33.319  10.601
42464W        W14135  11.032  12.184  14.509
42465W        W14136  27.142   4.847   0.518
42466W        W14137   8.154   6.744   3.354
42467W        W14138  37.856  19.999  10.764
42468W        W14139  40.819  22.099   4.836
42469W        W14140  36.274  35.390  12.611
42470W        W14141  13.444   1.159   1.340
42471W        W14142  21.133  15.576  11.445
42472W        W14143   2.406  41.991  11.638
42473W        W14144  20.643  20.227   2.166
42474W        W14145  39.583  12.792  12.774
42475W        W14146  25.837  34.390  14.400
42476W        W14147  36.980  18.682   4.901
42477W        W14148  38.961   4.697  11.432
42478W        W14149  23.808  12.172  14.978
42479W        W14150  25.055  30.801  11.166
42480W        W14151  11.456   4.640  13.814
42481W        W14152  14.615  32.730  11.820
42482W        W14153  37.778  22.052  13.514
42483W        W14154  24.764   4.756  14.012
42484W        W14155  23.663   4.057   3.734
42485W        W14156   7.980  15.130  13.644
42486W        W14157  24.158  23.713   0.565
42487W        W14158  32.934  16.850   3.187
42488W        W14159  17.202   5.851   2.324
42489W        W14160   5.746  22.939  12.950
42490W        W14161   7.125  14.786   0.021
42491W        W14162   6.443  27.495   2.675
42492W        W14163  14.739  19.308  14.901
42493W        W14164  44.543  40.524   5.018
42494W        W14165  35.566  10.609  12.528
42495W        W14166  36.583  41.888   0.582
42496W        W14167  16.488  25.738  11.536
42497W        W14168  37.464  42.860   0.466
42498W        W14169  44.745  30.528  11.950
42499W        W14170  22.247  35.882  13.310
42500W        W14171  38.205  14.231   0.882
42501W        W14172  43.530  17.892   0.939
42502W        W14173   7.488  16.310   4.942
42503W        W14174   7.224  29.491  13.464
42504W        W14175  14.648  31.598   3.200
42505W        W14176  34.905  34.412   1.704
42506W        W14177  26.333  30.387   0.463
42507W        W14178  23.086  27.600   2.660
42508W        W14179  31.810  11.991   3.582
42509W        W14180  12.233   9.405   0.506
42510W        W14181  12.327   6.702  14.122
42511W        W14182   2.365   3.483  13.996
42512W        W14183  35.560  36.602  14.361
42513W        W14184  18.056   5.141   2.497
42514W        W14185   3.307   1.577   2.216
42515W        W14186  20.537  11.641  14.782
42516W        W14187  31.527  17.331   2.889
42517W        W14188  39.432   1.974   2.358
42518W        W14189  44.395  11.623  10.942
42519W        W14190  25.400  33.095   2.305
42520W        W14191   3.079  23.483  13.033
42521W        W14192  26.420  40.308   2.740
42522W        W14193  13.642  19.062   0.484
42523W        W14194  33.402   8.318  10.616
42524W        W14195  36.518  17.235  12.055
42525W        W14196   2.937  30.078   0.307
42526W        W14197  17.382  25.525  11.052
42527W        W14198  19.638  41.858   3.087
42528W        W14199  26.865  17.060  12.863
42529W        W14200   3.393  14.260  11.849
42530W        W14201   5.846   1.174  12.851
42531W        W14202  44.438   1.983  12.015
42532W        W14203  10.599  36.809  13.866
42533W        W14204  38.969  35.064  14.963
42534W        W14205  19.197   9.109  14.967
42535W        W14206  25.558  35.471  12.014
42536W        W14207  32.327  41.430   0.456
42537W        W14208  13.888  40.922   4.395
42538W        W14209  44.275  38.824  14.366
42539W        W14210  13.644  28.600   2.592
42540W        W14211  19.374  19.205  13.916
42541W        W14212  17.351  19.122   4.085
42542W        W14213   8.168  21.168   3.721
42543W        W14214  40.017  44.486   2.349
42544W        W14215   9.717  34.928  12.597
42545W        W14216  29.136  26.031   3.106
42546W        W14217  44.468   3.269  11.600
42547W        W14218  17.744  25.936  13.745
42548W        W14219  40.488  20.529  14.338
42549W        W14220   1.337   1.282  13.663
42550W        W14221  29.340  41.851  11.252
42551W        W14222  43.721  26.943   3.747
42552W        W14223  33.541  13.637   4.771
42553W        W14224  38.704  16.196   1.400
42554W        W14225  13.719  38.068   2.794
42555W        W14226   3.256  14.341   1.339
42556W        W14227  19.746  17.021   2.700
42557W        W14228   0.852  30.679   2.792
42558W        W14229  34.288  29.986  11.583
42559W        W14230   6.422  26.377  11.427
42560W        W14231   7.831  17.677   0.171
42561W        W14232  21.746  13.955  11.196
42562W        W14233  16.796  23.203   4.082
42563W        W14234  36.293   5.723   2.828
42564W        W14235  15.627   9.841   2.828
42565W        W14236  40.469   0.686  13.270
42566W        W14237  12.207   2.344   1.317
42567W        W14238  27.659   0.496   3.160
42568W        W14239  18.576  38.202  11.167
42569W        W14240  44.450   1.646  12.446
42570W        W14241  20.055  28.701  14.899
42571W        W14242  14.657  22.995   0.932
42572W        W14243  38.711  10.353  14.457
42573W        W14244  26.545  19.795  12.528
42574W        W14245  37.573  11.562   4.126
42575W        W14246  10.850   0.933   3.850
42576W        W14247   0.208   1.498  14.097
42577W        W14248  19.503  13.375   0.846
42578W        W14249  17.317  18.665   2.360
42579W        W14250  19.291  30.896  13.838
42580W        W14251  21.675  22.226  13.522
42581W        W14252  32.624  42.549  10.469
42582W        W14253   9.464  10.314   2.104
42583W        W14254  18.053  32.090   4.704
42584W        W14255  10.640  18.781  13.070
42585W        W14256  15.161  16.414   3.649
42586W        W14257  41.846  44.997   4.491
42587W        W14258  38.366  35.573   1.300
42588W        W14259  44.470   0.691  14.859
42589W        W14260  17.207   5.188  11.936
42590W        W14261  37.071  27.426  12.973
42591W        W14262  35.663   7.929   4.223
42592W        W14263  40.992  32.589  11.334
42593W        W14264   0.258  25.510  11.247
42594W        W14265  38.874  18.267  11.103
42595W        W14266  35.510  16.800   4.553
42596W        W14267  36.166  39.606   0.791
42597W        W14268  20.765  16.454  11.972
42598W        W14269  28.419   2.332   0.972
42599W        W14270  44.422   2.766  10.703
42600W        W14271  19.574  40.453   3.282
42601W        W14272  32.190  15.729   2.235
42602W        W14273  41.234   1.328   2.709
42603W        W14274  14.704  44.648   4.129
42604W        W14275  35.592  21.999  12.430
42605W        W14276   5.461  10.179  12.734
42606W        W14277   7.854   7.386  13.112
42607W        W14278  28.874  15.169  12.033
42608W        W14279  36.425  19.049   2.834
42609W        W14280  43.632  23.865   9.754
42610W        W14281  14.710   0.582   3.195
42611W        W14282  43.312  20.271   1.410
42612W        W14283  27.893   5.689  14.479
42613W        W14284   3.682  25.042   0.273
42614W        W14285  19.144  38.385  13.772
42615W        W14286  41.647  32.966   0.997
42616W        W14287  11.739  10.052  10.797
42617W        W14288  28.872  26.126   1.745
42618W        W14289  33.218  17.873   3.363
42619W        W14290  19.772  39.038   1.316
42620W        W14291  18.197  17.981   3.605
42621W        W14292  39.060   3.106   5.171
42622W        W14293  18.208  36.200   3.971
42623W        W14294  35.280  31.841  10.235
42624W        W14295  36.591  25.882  13.761
42625W        W14296   1.799  38.613   2.817
42626W        W14297  30.092  27.897   1.844
42627W        W14298  19.574  39.571  12.503
42628W        W14299  43.928   9.566   3.130
42629W        W14300   2.775  13.755   2.747
42630W        W14301  33.975  21.486   1.389
42631W        W14302  34.685   0.270   5.085
42632W        W14303  30.170  18.829   3.679
42633W        W14304  29.482  31.683   3.522
42634W        W14305   8.700  14.502   2.399
42635W        W14306  19.556  18.086  13.134
42636W        W14307  37.836  25.059  11.094
42637W        W14308  23.090  16.709  12.117
42638W        W14309  27.671  10.782  12.884
42639W        W14310   3.708  18.753   0.417
42640W        W14311  43.100   7.791   5.061
42641W        W14312  40.791  23.167  12.919
42642W        W14313  38.358  29.973   1.251
42643W        W14314  15.753  24.088  12.944
42644W        W14315  39.295  39.888   4.060
42645W        W14316  37.048   2.492  12.583
42646W        W14317  38.294  38.016   0.992
42647W        W14318  28.480  28.518  14.035
42648W        W14319  34.543  36.872  13.603
42649W        W14320  26.059  21.310   3.189
42650W        W14321  39.483  27.716   2.298
42651W        W14322   9.799   4.364  14.376
42652W        W14323  42.241   4.807   4.884
42653W        W14324  25.575  25.812   4.735
42654W        W14325  31.914  18.785  11.635
42655W        W14326  38.898  42.533   1.305
42656W        W14327  41.533   9.737   4.603
42657W        W14328  39.597  13.345  11.563
42658W        W14329  26.401  27.894  12.028
42659W        W14330  37.415  38.516   1.703
42660W        W14331   5.214  28.829   0.971
42661W        W14332  37.962  42.789  11.763
42662W        W14333  32.691  41.443  13.913
42663W        W14334   4.990  44.774   0.854
42664W        W14335   7.342  21.043  13.895
42665W        W14336   2.249  21.519   2.958
42666W        W14337   3.697  38.962  10.723
42667W        W14338   6.716  40.558   3.346
42668W        W14339  44.211  14.147   4.940
42669W        W14340  26.206  19.451  14.523
42670W        W14341  21.456  41.630   2.440
42671W        W14342  16.998  44.218   4.723
42672W        W14343   6.134  11.275   4.722
42673W        W14344  27.885  39.875   3.139
42674W        W14345  21.516  14.215  10.511
42675W        W14346   2.552   7.815   4.585
42676W        W14347  35.820  41.389  14.409
42677W        W14348  34.559  10.264   3.609
42678W        W14349  36.845  26.387  12.945
42679W        W14350   9.873  33.742  11.674
42680W        W14351  25.292  17.563   3.111
42681W        W14352   8.448   4.892  14.811
42682W        W14353  16.118   8.306  11.174
42683W        W14354  13.214  16.563   4.250
42684W        W14355  31.564  23.059   3.848
42685W        W14356  22.733  15.696   2.275
42686W        W14357   4.896  28.096  14.818
42687W        W14358  27.548   5.945  13.312
42688W        W14359  18.287  33.098   0.309
42689W        W14360  14.583   5.788   0.729
42690W        W14361  20.143   1.884   0.185
42691W        W14362   8.455  33.480   0.425
42692W        W14363  37.360  12.683   1.415
42693W        W14364  29.020  12.271   2.911
42694W        W14365  14.052  39.299   4.112
42695W        W14366  15.829  32.201   1.683
42696W        W14367  19.239  33.020   2.926
42697W        W14368  21.571  39.558   1.616
42698W        W14369   6.223  22.770   1.877
42699W        W14370  13.390  43.279   3.272
42700W        W14371  31.140  17.202  14.408
42701W        W14372  44.347  15.690   2.007
42702W        W14373  28.147   8.259   4.508
42703W        W14374  19.560  31.621   0.493
42704W        W14375  31.179  12.217   2.848
42705W        W14376  35.197  34.432  10.035
42706W        W14377  25.956  31.169  13.405
42707W        W14378  16.676  44.588  11.138
42708W        W14379  36.776  41.976   2.745
42709W        W14380  37.993  11.306   3.277
42710W        W14381  23.102  36.636   3.724
42711W        W14382   3.666  16.199  14.170
42712W        W14383  25.796   4.362   1.633
42713W        W14384  44.522  35.450   3.742
42714W        W14385  30.407   0.267  12.949
42715W        W14386  17.857   7.463  11.488
42716W        W14387  13.679  14.338   1.309
42717W        W14388  36.832  29.678  12.025
42718W        W14389  42.061  16.307   2.872
42719W        W14390  18.191  18.145  12.589
42720W        W14391  27.517  10.664   0.477
42721W        W14392  44.281  30.020   4.314
42722W        W14393   7.829   3.021   3.270
42723W        W14394  35.647  34.036  13.025
42724W        W14395  34.933   8.188   3.730
42725W        W14396   1.925  33.666  12.906
42726W        W14397   5.053   4.217  10.399
42727W        W14398   3.370   0.592  14.120
42728W        W14399  11.606  37.873   0.962
42729W        W14400  37.001  33.870  11.615
42730W        W14401  40.416  35.944   4.155
42731W        W14402  31.998  12.403  11.063
42732W        W14403   6.392   1.530   3.733
42733W        W14404  35.912  41.472  12.044
42734W        W14405  21.252  38.593  14.847
42735W        W14406   1.326  42.585   2.458
42736W        W14407  44.168  39.757  14.330
42737W        W14408   3.096  28.769  13.749
42738W        W14409  31.619  17.968  10.692
42739W        W14410  36.575  41.335  14.860
42740W        W14411  27.865  31.785   4.714
42741W        W14412  41.891  33.654   2.729
42742W        W14413  31.410   6.513  13.618
42743W        W14414  34.927  22.878   1.822
42744W        W14415  41.747  44.464  13.571
42745W        W14416  19.710   8.986  14.838
42746W        W14417  39.528  27.016   2.327
42747W        W14418   8.425  42.219   1.752
42748W        W14419  20.677   0.431  10.835
42749W        W14420   7.271   1.185   1.212
42750W        W14421  29.467  18.114  13.044
42751W        W14422  13.144   5.748  12.010
42752W        W14423  29.619  41.015  12.093
42753W        W14424  23.732  40.966   2.368
42754W        W14425  13.323  20.049   1.212
42755W        W14426   5.828  36.417   4.119
42756W        W14427  36.981  41.731  13.850
42757W        W14428  17.682  10.616   3.630
42758W        W14429  19.633  25.684  10.407
42759W        W14430  28.504   7.471   3.610
42760W        W14431  43.793  15.633   1.787
42761W        W14432  25.647  16.857   2.388
42762W        W14433  40.378  23.609  13.844
42763W        W14434   4.846   8.125   1.207
42764W        W14435  43.828  25.247   3.803
42765W        W14436   2.294  26.199   1.599
42766W        W14437   9.620  43.078   0.474
42767W        W14438  17.945   8.667  11.239
42768W        W14439  26.395   5.576   4.632
42769W        W14440  40.441  38.519   2.896
42770W        W14441  19.736  28.854  14.486
42771W        W14442  29.843  32.937  11.614
42772W        W14443  30.876  43.967  13.904
42773W        W14444   1.295  44.782  11.889
42774W        W14445   4.444  24.924   1.860
42775W        W14446  22.653  15.551   1.766
42776W        W14447  13.842  35.324   3.368
42777W        W14448  34.406  18.504  11.037
42778W        W14449  42.097  24.009   2.653
42779W        W14450  30.121  25.041   0.583
42780W        W14451  44.080  36.037  10.195
42781W        W14452  28.152  13.353  13.926
42782W        W14453  26.984  17.233   1.376
42783W        W14454  22.140  26.906   1.426
42784W        W14455  32.160  42.740  11.136
42785W        W14456  40.457   1.933   0.211
42786W        W14457  28.563  26.069   3.613
42787W        W14458  38.779   9.831  14.413
42788W        W14459  24.771  34.624  14.376
42789W        W14460  14.187  21.490  13.337
42790W        W14461  27.673  40.786  13.027
42791W        W14462  39.085  30.027   0.456
42792W        W14463  12.764  22.486   1.892
42793W        W14464   0.745   3.134   1.778
42794W        W14465  11.238  41.046  12.532
42795W        W14466  18.474  33.559  13.052
42796W        W14467  30.501  40.754  14.246
42797W        W14468  41.178  39.319   9.974
42798W        W14469   3.271  23.235  11.216
42799W        W14470  43.659  17.273   4.443
42800W        W14471  26.975   1.856  14.489
42801W        W14472  15.186  37.298   0.296
42802W        W14473  18.180  31.745   0.436
42803W        W14474  19.555  18.752  12.145
42804W        W14475  43.618  38.247   0.973
42805W        W14476  36.135  18.523  10.437
42806W        W14477   7.618   6.683  10.736
42807W        W14478  15.527  34.695  11.554
42808W        W14479  34.847  21.812   0.651
42809W        W14480   1.253  18.064  10.681
42810W        W14481  15.109  16.814  12.445
42811W        W14482  21.325  17.913   1.610
42812W        W14483  17.066   6.828   1.011
42813W        W14484  12.652  24.904   2.175
42814W        W14485  10.638  21.238  11.311
42815W        W14486  29.699   2.956  10.553
42816W        W14487  40.628  17.783  14.529
42817W        W14488  20.760  11.279  11.890
42818W        W14489   0.431   5.737  14.660
42819W        W14490  39.135  26.166  10.861
42820W        W14491  44.314  15.411   0.676
42821W        W14492   0.913  11.333   1.492
42822W        W14493  40.394   7.934  13.085
42823W        W14494   9.540   7.738  11.937
42824W        W14495  40.090  35.587  10.526
42825W        W14496   5.905  21.379   4.102
42826W        W14497   1.283  44.505   1.299
42827W        W14498  16.610   6.889  11.486
42828W        W14499  44.818  33.834   2.900
42829W        W14500  25.485  21.381   0.385
42830W        W14501  15.342  15.640   3.784
42831W        W14502   5.369  29.037   0.518
42832W        W14503   2.980  43.790  13.923
42833W        W14504  35.095  33.099   4.115
42834W        W14505   2.644  34.738  14.918
42835W        W14506   0.941  23.768   1.349
42836W        W14507  27.483  20.126  14.220
42837W        W14508   6.383  12.786   1.948
42838W        W14509  28.079  20.680  14.617
42839W        W14510  16.227  35.128  14.793
42840W        W14511   6.283  42.394   1.346
42841W        W14512  36.564  33.362   1.745
42842W        W14513  33.990  34.386   2.875
42843W        W14514  24.336  40.575   2.010
42844W        W14515   3.191  41.097  14.084
42845W        W14516  26.630  29.884  13.386
42846W        W14517  35.308   2.190  13.476
42847W        W14518  42.785  33.680   3.666
42848W        W14519  16.214  30.075   1.171
42849W        W14520   8.131   0.178  10.728
42850W        W14521  16.078  40.409   2.889
42851W        W14522  37.932   0.935  12.235
42852W        W14523  38.865   4.719  14.340
42853W        W14524   7.243  26.977   2.901
42854W        W14525   6.774  26.138   1.295
42855W        W14526  29.322   0.860   1.192
42856W        W14527  21.171   8.681  13.596
42857W        W14528  40.312  35.316   0.200
42858W        W14529   7.335  43.519   2.857
42859W        W14530  41.987  19.314  12.463
42860W        W14531   1.470  14.575   3.668
42861W        W14532  26.856  18.784   4.187
42862W        W14533  38.031  34.917   2.370
42863W        W14534  18.759  29.903   2.358
42864W        W14535   5.828  13.128  14.259
42865W        W14536   4.916  27.000   0.833
42866W        W14537   4.603   2.347   2.632
42867W        W14538   7.173  41.902  13.530
42868W        W14539  41.942  44.381  11.740
42869W        W14540  15.818   1.281   3.814
42870W        W14541  14.236  40.482  11.629
42871W        W14542   4.484  28.475  11.985
42872W        W14543  13.968  20.962   0.491
42873W        W14544  10.698  41.683   3.870
42874W        W14545   6.578  25.573  11.725
42875W        W14546  43.362   7.234   2.755
42876W        W14547  19.044  25.872   2.167
42877W        W14548  22.453  34.206   5.033
42878W        W14549  24.553   9.690   0.751
42879W        W14550  12.813   8.753  11.247
42880W        W14551  31.559  27.118   1.978
42881W        W14552  23.575  29.216  14.824
42882W        W14553   1.656  36.769  11.269
42883W        W14554  15.682  40.205   2.556
42884W        W14555  35.830  15.314   0.516
42885W        W14556  30.089  42.890  14.716
42886W        W14557   9.091  43.544   1.685
42887W        W14558  36.823  38.561  13.342
42888W        W14559  25.781  17.353  10.227
42889W        W14560  30.037   3.163   5.011
42890W        W14561   9.965  23.992  13.132
42891W        W14562   1.206   8.642  11.341
42892W        W14563  14.182  23.040   0.078
42893W        W14564   6.196   1.787   0.068
42894W        W14565  14.669  39.336   1.245
42895W        W14566  30.794  13.072  11.571
42896W        W14567  27.677   5.916   3.582
42897W        W14568   9.732  26.040  12.549
42898W        W14569  35.885  18.405   4.155
42899W        W14570  11.682  29.097  13.574
42900W        W14571   6.147  13.614   3.712
42901W        W14572  30.112   3.853   0.992
42902W        W14573  28.916  44.920   3.236
42903W        W14574  33.328  24.703  13.076
42904W        W14575   5.496   4.853  12.966
42905W        W14576  28.277  28.893  13.044
42906W        W14577  41.732  36.011  11.180
42907W        W14578  43.949  43.112  14.026
42908W        W14579   4.171  12.878   1.235
42909W        W14580  10.249  41.493   9.647
42910W        W14581  10.815  16.880   0.693
42911W        W14582  40.857  28.518  11.053
42912W        W14583  24.461  30.200   3.242
42913W        W14584  42.524  21.615  14.957
42914W        W14585  20.148  22.698  13.799
42915W        W14586  41.303   6.619   1.376
42916W        W14587  22.138  25.290   9.919
42917W        W14588  41.091  18.910   5.037
42918W        W14589  11.125  20.763  12.290
42919W        W14590   6.407  15.791  11.122
42920W        W14591  11.278  15.598  12.115
42921W        W14592   5.989  33.413   3.641
42922W        W14593   9.111  39.582   4.086
42923W        W14594   6.842  44.036  14.629
42924W        W14595  39.050  24.197  11.456
42925W        W14596  24.474  43.976   2.626
42926W        W14597  10.273  40.030  11.205
42927W        W14598  11.589   3.412   3.487
42928W        W14599   3.300  42.082   2.133
42929W        W14600  19.140   3.752  12.847
42930W        W14601  44.232   4.294   1.237
42931W        W14602  43.905   2.466  14.402
42932W        W14603  30.555  20.691  12.459
42933W        W14604  43.645  32.701  12.406
42934W        W14605  44.499  28.592   0.545
42935W        W14606   3.198  14.869   4.550
42936W        W14607   7.826  18.095   3.753
42937W        W14608  20.362  19.056  11.994
42938W        W14609  44.234  35.375  13.200
42939W        W14610  28.548  24.941   1.776
42940W        W14611   7.615  40.371   4.295
42941W        W14612  35.385  29.216   1.384
42942W        W14613  42.369  12.806  11.516
42943W        W14614  21.726  18.192  10.773
42944W        W14615  28.900  35.545  10.738
42945W        W14616  41.082  39.608   5.396
42946W        W14617  33.489  14.810   3.754
42947W        W14618  26.231  35.596   4.617
42948W        W14619   3.556  13.678  12.417
42949W        W14620  19.013   2.697  10.789
42950W        W14621   0.529  15.327   3.338
42951W        W14622   6.667  37.401  11.586
42952W        W14623  13.242  28.943  10.654
42953W        W14624   0.967   5.443   0.301
42954W        W14625  14.697  36.211   4.764
42955W        W14626  43.304   3.734   3.341
42956W        W14627  43.831  13.190  10.420
42957W        W14628  39.999  14.540   2.897
42958W        W14629  18.123  20.380  13.944
42959W        W14630  32.033  17.285   4.598
42960W        W14631  40.911  21.257  11.492
42961W        W14632   2.815   8.078   1.410
42962W        W14633   2.421  16.512   2.405
42963W        W14634   9.297  37.891   1.478
42964W        W14635   6.395   6.558   5.048
42965W        W14636  23.541  13.297   2.289
42966W        W14637  41.477  22.498  11.591
42967W        W14638  29.620  35.946  11.407
42968W        W14639  35.006   1.451  10.835
42969W        W14640  34.180  26.987   3.250
42970W        W14641  11.472  24.283   3.365
42971W        W14642   8.331   5.620   0.331
42972W        W14643  41.385  23.142   4.275
42973W        W14644  11.433   7.449  10.350
42974W        W14645  43.550  13.031   1.320
42975W        W14646   0.508  32.463   3.860
42976W        W14647  43.716   1.845   0.875
42977W        W14648  30.122   7.645   2.386
42978W        W14649  13.155  20.583   4.873
42979W        W14650  10.150  30.037  13.783
42980W        W14651   9.244  34.878  10.596
42981W        W14652  19.554  22.377   4.770
42982W        W14653  22.243  37.386   4.467
42983W        W14654  22.876   8.317  13.480
42984W        W14655  33.859  35.563   1.397
42985W        W14656  10.072  35.618   0.369
42986W        W14657  32.428  17.027  11.409
42987W        W14658  11.845   1.335  11.126
42988W        W14659  14.856  22.977   3.603
42989W        W14660   7.956  38.895  11.858
42990W        W14661  43.651  10.281   0.844
42991W        W14662  29.243  22.695   0.952
42992W        W14663  39.363   7.829  11.275
42993W        W14664   1.912  22.455  10.577
42994W        W14665  34.764   4.577   4.239
42995W        W14666  10.081  26.196   3.434
42996W        W14667   3.763  44.828  14.999
42997W        W14668   2.905  13.686  11.609
42998W        W14669  12.150  16.664  12.213
42999W        W14670   5.241  44.449   2.094
43000W        W14671  22.342  24.751   4.632
43001W        W14672   3.854   4.218   3.345
43002W        W14673  19.329  34.109   2.637
43003W        W14674  44.065   2.887   3.621
43004W        W14675  37.682  14.986   1.150
43005W        W14676  36.952   0.338   4.587
43006W        W14677   9.890  21.621  12.917
43007W        W14678   5.295  28.503  11.239
43008W        W14679  16.784  41.841   4.826
43009W        W14680  44.508  14.076  12.492
43010W        W14681  32.887  27.527   1.762
43011W        W14682  37.435  35.195  14.963
43012W        W14683  24.011  23.415   3.506
43013W        W14684  38.572  24.067  12.811
43014W        W14685   9.468   9.425  12.467
43015W        W14686  40.550  41.861   3.165
43016W        W14687  25.398  37.337   2.214
43017W        W14688  10.080  12.146   0.909
43018W        W14689   1.925  44.836  12.387
43019W        W14690  43.286  31.805  11.128
43020W        W14691   1.354   2.015  12.699
43021W        W14692  42.413  40.836  12.516
43022W        W14693  41.045  36.986  13.514
43023W        W14694  13.858   2.987  10.721
43024W        W14695  34.432   9.713  11.895
43025W        W14696  29.552   2.280   3.563
43026W        W14697  42.336  10.091   0.756
43027W        W14698  29.487  27.447   3.930
43028W        W14699  19.793  42.932   0.802
43029W        W14700   8.753  12.876  12.596
43030W        W14701  44.912  22.121   5.223
43031W        W14702  32.802  25.712   4.707
43032W        W14703   9.704  37.287   0.386
43033W        W14704  39.638  15.561   3.250
43034W        W14705   1.934  34.550  13.401
43035W        W14706  13.179  44.936   4.478
43036W        W14707   4.819  24.611  13.505
43037W        W14708   7.798   5.931   1.815
43038W        W14709  21.418   5.913   3.620
43039W        W14710  24.663   0.060  12.398
43040W        W14711   5.107  24.752  12.034
43041W        W14712   4.139  13.724  14.392
43042W        W14713  19.972  26.482  13.909
43043W        W14714   9.422  22.453  14.410
43044W        W14715  35.417  21.631   4.564
43045W        W14716  40.443  14.300   1.621
43046W        W14717  15.169  12.524   4.243
43047W        W14718  22.582  11.623  11.578
43048W        W14719  24.040  33.631  13.285
43049W        W14720   4.443   8.480   5.227
43050W        W14721  36.474  18.710   1.169
43051W        W14722   1.674  23.584   2.866
43052W        W14723  20.586   8.131  12.518
43053W        W14724  10.199  19.614   0.110
43054W        W14725   8.592  38.394   2.990
43055W        W14726  41.082  42.783  12.573
43056W        W14727  11.616  17.366   0.729
43057W        W14728  16.353  18.783  10.773
43058W        W14729   8.379   3.534  12.579
43059W        W14730   2.785  17.794   4.365
43060W        W14731  39.494  42.528  12.078
43061W        W14732  17.072   2.661  11.584
43062W        W14733  21.724  19.134  14.534
43063W        W14734  39.006  14.211   2.303
43064W        W14735  22.255  38.126   1.774
43065W        W14736  30.752   4.701  14.777
43066W        W14737  12.902  15.536   1.875
43067W        W14738  31.541  10.151  14.036
43068W        W14739  27.878   6.635  12.533
43069W        W14740  25.680  14.087  10.889
43070W        W14741  15.785   2.317  10.647
43071W        W14742  37.939  28.088  13.564
43072W        W14743  35.819  11.078  10.766
43073W        W14744  29.012   4.236  14.247
43074W        W14745  10.465  21.541   4.104
43075W        W14746  36.254  28.696  11.314
43076W        W14747  26.617   3.972  14.875
43077W        W14748  24.890  34.842  12.151
43078W        W14749   0.487  33.366  13.945
43079W        W14750  19.389  22.029  13.833
43080W        W14751  20.009  41.934   1.684
43081W        W14752  14.632  43.692   1.369
43082W        W14753  13.648  14.724   3.632
43083W        W14754  13.760  31.326  14.527
43084W        W14755   5.995  11.619   3.614
43085W        W14756  12.170  24.738  14.628
43086W        W14757  44.586  11.731  11.381
43087W        W14758  27.814  25.068  12.143
43088W        W14759  16.497  12.594   2.355
43089W        W14760  28.954  42.230   0.994
43090W        W14761  17.259  22.643   5.057
43091W        W14762  31.825  41.765  11.110
43092W        W14763  25.978  36.440   2.310
43093W        W14764  25.301   3.329  12.902
43094W        W14765  39.711  34.631   4.336
43095W        W14766  42.367  13.977   3.553
43096W        W14767  42.497  26.867   0.710
43097W        W14768   0.473  38.736  12.958
43098W        W14769  32.342  38.435   3.306
43099W        W14770   5.925  25.362  13.531
43100W        W14771  22.931  38.587   0.214
43101W        W14772  41.070   8.680   3.558
43102W        W14773  22.543  34.605   1.739
43103W        W14774  27.563   4.872  14.278
43104W        W14775  25.717  18.615  11.959
43105W        W14776  14.167  36.547  13.272
43106W        W14777  34.124   1.405   3.555
43107W        W14778  18.983  22.255   2.333
43108W        W14779  39.569  37.313  11.156
43109W        W14780  10.127  15.593  10.706
43110W        W14781  20.349  32.024  12.579
43111W        W14782  42.189  11.837  10.355
43112W        W14783  31.021  13.583   0.862
43113W        W14784   9.205   2.654   3.717
43114W        W14785  10.893  27.230   1.526
43115W        W14786  10.359   6.742   2.185
43116W        W14787  23.221  35.373  14.403
43117W        W14788  41.296   4.843  12.070
43118W        W14789  44.182  10.642  10.171
43119W        W14790  30.966  40.014   1.958
43120W        W14791  37.877  35.613  13.636
43121W        W14792   8.388   6.429  14.890
43122W        W14793  18.669  42.782   3.588
43123W        W14794   0.948  38.112   2.051
43124W        W14795  24.959  29.520  12.045
43125W        W14796   3.509  13.440   2.370
43126W        W14797  14.747   9.402   3.816
43127W        W14798   6.917  17.775   0.200
43128W        W14799  33.315  13.065   3.305
43129W        W14800   0.757  36.535   2.775
43130W        W14801  34.834  28.747   4.482
43131W        W14802  32.259  30.464   1.193
43132W        W14803   6.302  16.809   2.408
43133W        W14804  37.004   2.288   3.374
43134W        W14805  38.565  13.732   0.058
43135W        W14806  13.717  36.278   2.628
43136W        W14807  23.150  30.154   3.748
43137W        W14808  27.964  17.173  10.609
43138W        W14809  35.899   8.743   0.842
43139W        W14810   0.603   1.390   2.044
43140W        W14811  44.199  32.928  12.992
43141W        W14812  31.220  30.606  13.755
43142W        W14813  28.438   1.664   0.237
43143W        W14814  19.737   7.424   0.836
43144W        W14815  15.822  32.739  12.433
43145W        W14816  21.073  32.488   0.682
43146W        W14817  25.674  34.123  11.150
43147W        W14818   7.658  17.218   0.347
43148W        W14819  19.541   9.955  11.537
43149W        W14820  26.876  25.526  10.753
43150W        W14821  20.814  40.829  14.131
43151W        W14822  10.901  39.414   4.682
43152W        W14823  21.613  12.370   4.980
43153W        W14824  33.790  29.529   3.257
43154W        W14825   7.797   5.281   3.382
43155W        W14826  40.641  15.845  14.443
43156W        W14827  34.415  10.312   1.526
43157W        W14828  28.595  36.073  13.320
43158W        W14829  18.724  26.226  14.029
43159W        W14830  36.571  35.290   3.216
43160W        W14831  12.721  28.623   3.304
43161W        W14832  32.258  33.888   4.645
43162W        W14833  20.022  34.679   0.723
43163W        W14834   5.906  21.151  13.528
43164W        W14835  42.394  42.931   1.856
43165W        W14836  20.169  23.756   2.288
43166W        W14837  32.471  17.930  12.558
43167W        W14838  20.627  30.708  14.409
43168W        W14839  41.847   8.437   4.217
43169W        W14840   5.299   7.469   2.004
43170W        W14841  15.632   7.231  10.638
43171W        W14842   1.285  41.573   0.895
43172W        W14843  36.471   7.259   4.612
43173W        W14844  17.682  22.165  13.325
43174W        W14845  27.888  23.832  14.403
43175W        W14846  42.380  35.072   3.609
43176W        W14847   7.822  39.831  11.792
43177W        W14848  18.873  25.778   2.683
43178W        W14849  37.992  15.347   3.529
43179W        W14850  40.286  19.753  11.089
43180W        W14851  43.568  24.752  14.281
43181W        W14852  33.354   4.684   4.195
43182W        W14853  21.251  42.548   4.669
43183W        W14854  35.006  44.348  14.618
43184W        W14855  19.596  19.518   2.804
43185W        W14856  19.102  39.549   4.291
43186W        W14857  44.341   3.258  13.383
43187W        W14858  25.003   2.143  11.970
43188W        W14859  11.087  23.906  12.534
43189W        W14860  22.233  15.406   4.359
43190W        W14861   7.056   2.456  13.569
43191W        W14862  24.459  37.350   5.016
43192W        W14863  24.024  27.156   4.549
43193W        W14864  33.882  31.621  12.042
43194W        W14865  31.901  31.906  12.745
43195W        W14866  44.928   1.403  12.488
43196W        W14867  43.879   2.893   1.358
43197W        W14868  21.571  21.496  14.462
43198W        W14869  41.025   6.716  13.027
43199W        W14870  43.679  39.322   1.738
43200W        W14871   3.365  23.671  13.451
43201W        W14872  15.180  26.533   4.121
43202W        W14873  10.238  39.430  13.891
43203W        W14874  44.248  35.556   4.171
43204W        W14875  14.680  18.917   4.957
43205W        W14876  19.343   9.284  13.402
43206W        W14877   4.524  19.376  10.992
43207W        W14878   1.487  32.927   0.545
43208W        W14879  16.261  30.555   1.922
43209W        W14880  41.369  20.997  11.595
43210W        W14881  28.193   9.779  13.848
43211W        W14882  28.791  10.101  14.532
43212W        W14883  44.471  19.460   3.776
43213W        W14884  28.962  33.256   0.751
43214W        W14885  44.255  16.143  11.808
43215W        W14886  12.564   9.665  12.338
43216W        W14887  23.531  42.288  10.712
43217W        W14888  23.649  33.609   4.575
43218W        W14889  40.794  23.631   2.726
43219W        W14890  44.120  33.160   2.619
43220W        W14891  44.866  41.600  10.363
43221W        W14892  22.548  36.853   2.602
43222W        W14893  39.695  10.279   1.006
43223W        W14894  23.629  25.061  10.635
43224W        W14895  21.082  19.718  14.840
43225W        W14896  37.412  16.571  13.090
43226W        W14897  26.026  13.824   3.964
43227W        W14898  17.023   6.016   1.779
43228W        W14899  22.187  19.709  13.933
43229W        W14900  19.796   5.711   1.305
43230W        W14901  31.444  23.492   3.607
43231W        W14902   1.209  41.801  10.568
43232W        W14903  44.839  44.230   0.510
43233W        W14904  29.115  19.241  13.535
43234W        W14905  12.773  12.178   1.516
43235W        W14906  41.839  22.977  14.902
43236W        W14907  39.927  16.698  12.267
43237W        W14908   2.767  20.466   2.687
43238W        W14909  40.587  16.540   2.451
43239W        W14910   4.965  34.269  12.709
43240W        W14911  33.208  40.299  11.602
43241W        W14912  12.178   0.313   3.598
43242W        W14913  31.420  42.340  12.549
43243W        W14914  33.561  23.684   1.279
43244W        W14915  33.834  26.596  13.559
43245W        W14916  25.918  43.842  12.345
43246W        W14917  12.660  19.322   4.129
43247W        W14918  44.459   5.020   2.034
43248W        W14919  26.353  32.442   3.284
43249W        W14920  42.546  39.384  13.861
43250W        W14921  35.868  14.288   2.409
43251W        W14922   5.917  41.757  11.923
43252W        W14923  41.268  27.969   2.696
43253W        W14924  28.110   9.195   0.368
43254W        W14925  15.106  18.980   2.751
43255W        W14926  15.177  44.710   0.924
43256W        W14927  36.007  37.886  11.919
43257W        W14928  12.765  11.196   4.833
43258W        W14929  11.482  16.101  12.983
43259W        W14930  20.553  13.585   4.309
43260W        W14931  15.768  22.092  10.260
43261W        W14932  26.146  29.907  12.987
43262W        W14933  27.066   6.111  13.427
43263W        W14934  39.311   3.916  13.552
43264W        W14935   8.794  29.590   1.752
43265W        W14936  24.871  19.260   1.501
43266W        W14937  12.389  24.220  13.785
43267W        W14938  11.030   3.410  14.532
43268W        W14939  18.559  37.140   1.547
43269W        W14940  34.636  37.125   3.144
43270W        W14941  40.311  40.058   0.235
43271W        W14942  13.670   1.156   0.309
43272W        W14943  14.242  22.800   2.605
43273W        W14944  32.588  13.340   4.166
43274W        W14945  43.988  42.225  14.856
43275W        W14946  34.699   3.708  11.515
43276W        W14947   5.438  12.369   0.913
43277W        W14948   7.380   3.330  14.954
43278W        W14949  16.200  13.469  14.282
43279W        W14950   6.470  32.633   2.769
43280W        W14951   2.439  26.640   1.337
43281W        W14952  32.064   3.281  13.551
43282W        W14953   2.628  40.017  10.646
43283W        W14954   6.315  15.044  12.464
43284W        W14955  26.556  15.020   1.780
43285W        W14956   3.739  23.454  12.467
43286W        W14957  35.344  32.050   1.638
43287W        W14958  31.962  14.317   0.374
43288W        W14959  36.607  39.222  11.480
43289W        W14960  30.419  37.531   4.567
43290W        W14961  31.840  19.072  12.082
43291W        W14962   5.407  15.284   2.205
43292W        W14963  31.897  11.497  10.275
43293W        W14964   4.821   0.789   3.233
43294W        W14965  32.953  31.417   0.246
43295W        W14966  29.516  12.620   1.607
43296W        W14967  29.030  17.861  14.858
43297W        W14968  35.172   8.008  11.168
43298W        W14969  33.342  25.680  13.464
43299W        W14970  34.489  25.984   4.570
43300W        W14971  35.486  44.794   1.419
43301W        W14972  17.751  11.119   2.867
43302W        W14973   0.213  40.870  13.917
43303W        W14974   7.504   8.871   3.280
43304W        W14975  19.429  22.358  12.919
43305W        W14976  35.447  35.591   2.410
43306W        W14977  31.409  14.345   5.067
43307W        W14978  29.554  19.484   4.144
43308W        W14979  31.090  22.048  13.420
43309W        W14980  10.875  19.727   0.917
43310W        W14981  34.662  29.778  12.503
43311W        W14982  30.519  40.012   1.657
43312W        W14983   9.816  25.139  14.886
43313W        W14984   5.055  22.689   0.739
43314W        W14985   4.467   4.364  13.510
43315W        W14986  25.367  36.765  10.629
43316W        W14987  44.697   6.790   1.408
43317W        W14988  22.698  17.508  14.390
43318W        W14989   9.721  24.947   4.754
43319W        W14990   0.789  17.892   1.959
43320W        W14991  36.578  30.886   4.005
43321W        W14992  11.890  33.362  13.531
43322W        W14993  26.041  23.602   2.111
43323W        W14994  24.494  33.798   1.928
43324W        W14995  20.274   8.630  13.541
43325W        W14996   7.426   6.753  12.420
43326W        W14997   3.301  39.549   3.302
43327W        W14998  22.218  35.553   0.096
43328W        W14999   3.310  18.817   2.199
43329W        W15000  22.608  18.762  14.240
43330W        W15001  36.630  42.704   0.717
43331W        W15002  44.299  12.048  13.075
43332W        W15003  14.238   4.718  12.888
43333W        W15004  30.092  15.333  13.912
43334W        W15005  23.452   7.820   2.263
43335W        W15006  17.438   3.861  11.566
43336W        W15007  18.888  19.163  11.080
43337W        W15008  30.733  29.549  11.792
43338W        W15009  22.403   2.678   4.139
43339W        W15010   4.710  11.195  11.514
43340W        W15011  15.872  31.470  13.952
43341W        W15012  13.486   0.733   2.481
43342W        W15013   1.984  10.262   2.876
43343W        W15014  16.241  21.165  11.694
43344W        W15015  32.513   4.193  14.521
43345W        W15016   9.257  29.002   4.660
43346W        W15017  12.185  16.074   4.853
43347W        W15018  22.668   3.494   3.151
43348W        W15019  16.941  20.973   4.199
43349W        W15020  39.543   1.092  13.483
43350W        W15021  38.905  28.041  13.551
43351W        W15022  16.049  24.517  12.932
43352W        W15023   3.812  30.543   4.709
43353W        W15024   6.385   0.755  14.603
43354W        W15025  12.189  36.515  10.916
43355W        W15026  19.331  21.532  11.966
43356W        W15027   8.175  26.683   2.624
43357W        W15028  12.100  17.549  12.558
43358W        W15029  31.463  10.573  12.353
43359W        W15030  27.862   7.726   0.396
43360W        W15031  29.377  26.469   2.463
43361W        W15032  35.072   8.596  14.332
43362W        W15033  36.465   9.456  14.504
43363W        W15034  28.472  27.247   1.271
43364W        W15035  16.389  23.906   2.046
43365W        W15036   2.983  30.138   3.214
43366W        W15037  12.632  38.524  13.628
43367W        W15038  22.982  17.233   2.323
43368W        W15039   5.851  25.161  11.731
43369W        W15040  16.996  28.911  14.981
43370W        W15041  41.874  29.045  13.861
43371W        W15042  11.192   7.499   0.439
43372W        W15043  31.089  17.302  10.082
43373W        W15044  25.541   5.258   2.641
43374W        W15045  29.847  19.209   4.939
43375W        W15046  41.225  13.173   1.310
43376W        W15047  23.562  39.248  11.657
43377W        W15048  31.656   3.606   4.499
43378W        W15049  25.392  34.055   2.343
43379W        W15050  16.203   9.726   4.917
43380W        W15051   8.892   4.442   2.763
43381W        W15052  39.330  44.385   0.461
43382W        W15053   4.477  32.287   0.520
43383W        W15054  12.281  21.953  12.395
43384W        W15055  13.782  12.617   2.777
43385W        W15056  42.877  24.041  11.531
43386W        W15057  12.692  30.491   1.351
43387W        W15058  32.535  31.693   0.872
43388W        W15059  35.627  26.692   2.325
43389W        W15060  26.112  35.793   0.187
43390W        W15061  21.588  38.444  14.038
43391W        W15062  28.217   5.253  12.796
43392W        W15063  26.525  18.305   3.659
43393W        W15064  34.239  38.070   3.194
43394W        W15065  29.361  34.065  13.750
43395W        W15066  24.052   2.427  13.011
43396W        W15067   1.278  16.672  13.534
43397W        W15068   9.588  10.470  10.609
43398W        W15069  14.236  31.200  12.028
43399W        W15070   0.431  35.072   4.152
43400W        W15071   9.831  35.266   3.288
43401W        W15072   2.059  36.177   2.757
43402W        W15073  18.286  13.119   3.283
43403W        W15074  11.641  32.495  12.492
43404W        W15075   8.373   6.709  14.309
43405W        W15076  41.921  29.301  10.769
43406W        W15077  39.090  24.089   2.885
43407W        W15078  41.276   0.026   4.535
43408W        W15079  15.166   2.889  13.873
43409W        W15080   5.669  14.744  13.583
43410W        W15081  31.199  37.996   3.819
43411W        W15082  33.258  10.390  12.305
43412W        W15083   6.230  39.253   0.841
43413W        W15084  21.660   7.726  11.504
43414W        W15085  37.683  39.899   3.243
43415W        W15086   3.868   8.237   4.616
43416W        W15087  44.578  22.582   3.305
43417W        W15088  19.598  29.566  10.867
43418W        W15089  16.794  41.897   2.853
43419W        W15090   0.323   4.747   4.807
43420W        W15091   7.965   7.362  14.995
43421W        W15092  16.336  11.104   2.330
43422W        W15093  16.873  37.568  10.788
43423W        W15094  38.454  11.294   1.759
43424W        W15095  20.381  15.607  13.932
43425W        W15096  33.859  17.129  11.937
43426W        W15097   6.259  33.918  13.856
43427W        W15098  42.935  42.913   1.929
43428W        W15099  11.248  12.814   2.620
43429W        W15100  35.750  25.575  13.942
43430W        W15101   2.900  21.736   3.192
43431W        W15102  18.754  38.156  12.081
43432W        W15103   4.374  42.494  12.019
43433W        W15104  38.477  41.433   0.056
43434W        W15105   2.656  44.045   4.081
43435W        W15106  26.454  34.139  14.950
43436W        W15107  42.253  28.249   0.924
43437W        W15108   2.822   4.759   4.638
43438W        W15109  24.225  36.074   0.916
43439W        W15110  13.128  36.825  12.083
43440W        W15111  36.360  13.100   4.344
43441W        W15112  33.471  17.064  14.244
43442W        W15113  12.001  14.063  11.517
43443W        W15114  36.346  15.132  14.313
43444W        W15115  16.009  40.130  11.816
43445W        W15116  32.874  31.379   3.288
43446W        W15117   9.193  10.894  11.904
43447W        W15118  25.858  37.556  13.055
43448W        W15119  16.091  27.607   2.586
43449W        W15120  16.105  31.541  13.489
43450W        W15121   7.633  14.349   3.311
43451W        W15122  42.085  40.302   0.039
43452W        W15123  10.914  33.124   4.218
43453W        W15124  42.483  43.680  10.730
43454W        W15125   1.393  24.968   4.850
43455W        W15126   0.969  42.958  13.857
43456W        W15127   3.724  27.411   2.396
43457W        W15128  35.388   7.988   3.566
43458W        W15129  13.339  43.734  11.451
43459W        W15130  30.028  39.633   1.324
43460W        W15131  14.569  14.139   2.653
43461W        W15132  25.009   8.706   0.305
43462W        W15133  14.822   1.332  12.642
43463W        W15134  16.769  43.459   2.730
43464W        W15135  21.471  20.819  12.895
43465W        W15136  29.594   3.120   2.505
43466W        W15137  29.695  15.115  10.804
43467W        W15138   9.552  27.165   3.432
43468W        W15139   4.757  10.060   0.341
43469W        W15140  19.030   5.639  13.950
43470W        W15141   7.737  32.497  11.475
43471W        W15142   9.812  21.224  10.684
43472W        W15143  27.739   6.934   1.582
43473W        W15144  14.620  33.488   1.184
43474W        W15145  15.881  29.720   0.382
43475W        W15146  29.105  12.216   3.431
43476W        W15147  39.943   0.514  12.998
43477W        W15148   6.471  29.631   4.859
43478W        W15149  13.820  24.204  14.303
43479W        W15150  28.577  42.292  14.796
43480W        W15151  36.991  25.877  13.147
43481W        W15152  33.278  25.521   4.688
43482W        W15153  41.025  11.111  13.741
43483W        W15154  34.276  44.482   2.717
43484W        W15155   5.003  14.383  10.650
43485W        W15156  16.794  44.520   1.607
43486W        W15157   0.330   0.158  13.752
43487W        W15158  35.053   2.462  11.851
43488W        W15159  12.780  36.568   2.431
43489W        W15160  26.042  15.762   3.684
43490W        W15161   6.313  11.787  14.724
43491W        W15162  28.361  33.095   1.566
43492W        W15163   1.389  32.338   3.171
43493W        W15164  27.174  18.126   0.249
43494W        W15165  23.121  27.860   0.846
43495W        W15166  38.491  14.561   4.595
43496W        W15167   4.257  41.068   2.742
43497W        W15168  44.012  22.978   1.369
43498W        W15169  10.321  40.022   2.629
43499W        W15170  43.878   3.487   0.504
43500W        W15171   8.841  32.406  14.028
43501W        W15172   2.830  26.416  14.438
43502W        W15173   1.330  43.089   2.803
43503W        W15174  32.352   5.196  11.182
43504W        W15175  29.274  37.388   2.885
43505W        W15176  27.816   4.220   1.418
43506W        W15177   9.230  39.309  10.591
43507W        W15178  11.184   6.175  10.828
43508W        W15179  30.980  32.953   0.695
43509W        W15180  16.789  24.518  11.184
43510W        W15181  11.320  17.885   3.171
43511W        W15182  37.839   3.798   1.958
43512W        W15183  31.864  39.061   9.961
43513W        W15184  14.050  33.794  12.771
43514W        W15185  27.979  17.472   2.305
43515W        W15186  37.317  34.364  12.424
43516W        W15187  29.434   2.657   0.798
43517W        W15188  43.689  42.931   4.116
43518W        W15189   2.666  39.544   0.409
43519W        W15190   8.787   5.653  10.408
43520W        W15191  27.941   3.194   2.540
43521W        W15192   3.419  17.694  14.752
43522W        W15193  34.136  20.737   0.886
43523W        W15194  10.080  24.217   0.943
43524W        W15195  24.712  44.872  12.967
43525W        W15196   3.843  18.312  11.301
43526W        W15197   2.142   0.789  11.283
43527W        W15198   1.026  25.868  11.145
43528W        W15199  27.571  28.100  13.989
43529W        W15200  19.837  36.080   4.643
43530W        W15201  11.077  22.836   4.135
43531W        W15202  14.875   2.525   0.938
43532W        W15203  28.250   3.428  11.578
43533W        W15204  12.653  25.016  14.750
43534W        W15205  13.740  22.602   1.201
43535W        W15206  30.188  17.380   3.282
43536W        W15207  24.911  13.123   0.127
43537W        W15208   6.240  38.799   4.942
43538W        W15209  28.624   7.353  10.269
43539W        W15210   1.939   5.917   1.689
43540W        W15211  21.996  29.392  12.029
43541W        W15212  41.784   1.322  11.071
43542W        W15213  30.585   6.970  11.410
43543W        W15214  32.359   9.310  13.367
43544W        W15215  29.032   6.913   0.371
43545W        W15216  20.552   2.232   0.245
43546W        W15217  26.059  44.913   2.749
43547W        W15218  38.616  36.500   4.133
43548W        W15219   6.224  22.333   4.139
43549W        W15220  31.861  40.032   4.805
43550W        W15221  32.958  17.203  14.277
43551W        W15222  10.613   5.823  12.956
43552W        W15223  25.618  31.665  13.882
43553W        W15224  41.277   9.614  12.874
43554W        W15225  42.229  15.129  14.054
43555W        W15226  12.280   6.377   0.941
43556W        W15227  19.894  21.971  13.181
43557W        W15228   0.970  42.962   4.112
43558W        W15229   5.420  38.298  12.648
43559W        W15230   3.219  19.024  14.650
43560W        W15231   9.262  11.781   4.363
43561W        W15232   7.214   0.782   1.972
43562W        W15233  35.036  29.313   2.126
43563W        W15234  43.771  38.348   5.135
43564W        W15235  38.546  32.990  12.390
43565W        W15236  40.755  29.546   3.158
43566W        W15237  25.476   0.798   3.594
43567W        W15238  15.568  31.694  12.476
43568W        W15239  21.263   6.925   4.215
43569W        W15240  17.911   7.495   2.708
43570W        W15241  26.692   6.834  14.903
43571W        W15242  21.149  28.752  11.590
43572W        W15243  26.546  11.583   1.253
43573W        W15244  39.085  33.917  12.559
43574W        W15245  24.252  15.737   0.892
43575W        W15246  30.635  16.236  13.826
43576W        W15247   8.688  42.309  10.604
43577W        W15248   4.432   7.717   1.878
43578W        W15249   7.261   5.470   2.404
43579W        W15250   5.373  36.029   2.678
43580W        W15251  37.496   6.680  12.192
43581W        W15252  14.727  31.848   1.731
43582W        W15253  15.840   0.306  11.631
43583W        W15254  27.998  23.263   3.310
43584W        W15255  26.382  37.413   2.164
43585W        W15256  21.752   0.555   4.709
43586W        W15257  11.650  30.599   1.220
43587W        W15258   3.926  24.582   3.595
43588W        W15259  15.228   1.086  10.994
43589W        W15260   2.854  11.145  14.730
43590W        W15261  44.775  22.179  10.671
43591W        W15262  19.076  27.894   1.372
43592W        W15263  15.343   1.795   1.545
43593W        W15264  17.016  12.468  14.365
43594W        W15265  31.543  21.472   0.952
43595W        W15266  12.123  20.921   0.269
43596W        W15267  38.572   8.909  11.022
43597W        W15268  44.422  12.982  13.393
43598W        W15269  22.326  26.321   2.776
43599W        W15270   0.488  27.613  12.971
43600W        W15271  43.852   5.398  11.170
43601W        W15272  42.374  38.972  12.270
43602W        W15273  37.066  38.952  12.586
43603W        W15274  41.295   3.382  13.799
43604W        W15275  28.530   0.738   4.266
43605W        W15276   8.143  14.359  11.114
43606W        W15277  36.069  34.105   1.279
43607W        W15278  42.398   6.008  12.223
43608W        W15279  43.961  23.264  11.557
43609W        W15280   7.960  18.025   1.876
43610W        W15281  19.522   3.454   1.790
43611W        W15282  10.616   9.661   0.690
43612W        W15283   1.820  42.367  12.126
43613W        W15284  30.094  24.673  12.115
43614W        W15285  10.911  11.257   0.449
43615W        W15286  26.949  30.964  12.962
43616W        W15287  17.403  44.739   4.134
43617W        W15288   8.067  21.977   1.793
43618W        W15289   0.280  37.469   0.601
43619W        W15290  43.780  13.375   5.064
43620W        W15291  21.564  36.691   4.524
43621W        W15292   3.680   2.096  11.991
43622W        W15293  15.551  18.759  11.200
43623W        W15294   9.719  22.458  12.559
43624W        W15295  18.764  10.635  10.791
43625W        W15296  32.026   1.839   2.013
43626W        W15297  36.842   3.027  11.509
43627W        W15298  37.486  22.491   3.705
43628W        W15299   8.963  30.151   4.112
43629W        W15300  38.003  14.356   4.543
43630W        W15301  39.355  40.457  12.969
43631W        W15302  39.135  34.411   1.792
43632W        W15303  10.310  29.695   0.461
43633W        W15304  17.307   7.591   4.576
43634W        W15305   0.968  40.938  14.648
43635W        W15306  30.517  25.673  12.977
43636W        W15307  41.556  24.987  10.807
43637W        W15308  42.817  29.959  14.706
43638W        W15309  26.364  32.033   4.604
43639W        W15310  18.255  10.264  14.843
43640W        W15311  15.263  42.838  11.163
43641W        W15312  38.611  26.148   2.504
43642W        W15313  16.103  15.202   2.745
43643W        W15314  22.287  44.421  13.982
43644W        W15315   5.322  37.529   3.284
43645W        W15316  41.393  38.618   3.391
43646W        W15317   4.167  31.904  10.856
43647W        W15318  13.623  19.035  13.025
43648W        W15319   6.127  32.323  12.215
43649W        W15320  10.203  15.746   2.877
43650W        W15321  24.223  26.485   3.838
43651W        W15322  22.398  20.851   3.153
43652W        W15323  20.420  19.794  11.647
43653W        W15324  13.284  43.542  12.913
43654W        W15325  30.597  32.452  14.041
43655W        W15326  11.376  39.527  12.540
43656W        W15327  37.461  33.096   0.538
43657W        W15328  16.238   2.337  12.346
43658W        W15329   9.202  32.472  11.433
43659W        W15330  36.892  11.261  13.237
43660W        W15331  44.742  40.595   1.948
43661W        W15332  29.152  10.644  12.078
43662W        W15333  39.369  28.783  11.784
43663W        W15334  30.045   4.409  13.048
43664W        W15335  35.613   7.243  14.321
43665W        W15336  41.255  34.342  13.900
43666W        W15337  14.216   2.775   1.279
43667W        W15338  25.150  21.476   1.266
43668W        W15339   3.982  33.899   4.675
43669W        W15340  12.714  36.398  12.992
43670W        W15341  20.708  27.584   1.421
43671W        W15342  21.881  35.120  14.374
43672W        W15343  21.541  44.044   3.252
43673W        W15344  26.903  15.580  13.390
43674W        W15345  11.708  15.625   0.058
43675W        W15346  24.314  10.794   0.606
43676W        W15347   4.293  12.801   4.264
43677W        W15348  41.201  11.922  14.897
43678W        W15349  32.551  42.031  10.653
43679W        W15350   5.398   7.198  14.479
43680W        W15351  32.673   5.210   0.687
43681W        W15352  40.838  39.069   2.171
43682W        W15353   1.701  41.341  11.179
43683W        W15354   2.143  20.577  12.207
43684W        W15355   6.267  37.605  13.460
43685W        W15356  14.270  13.680  14.372
43686W        W15357  23.939  28.547  12.728
43687W        W15358  31.653  28.721   1.337
43688W        W15359  29.422  26.653   3.299
43689W        W15360  11.876  15.668   5.628
43690W        W15361  19.130  42.598   4.297
43691W        W15362  44.768  41.261  11.889
43692W        W15363  33.952  23.985   1.000
43693W        W15364  40.849  21.564   1.511
43694W        W15365   5.845  32.131  11.109
43695W        W15366   0.580  26.577  11.563
43696W        W15367  44.320  35.418   0.169
43697W        W15368  35.020  44.452  13.548
43698W        W15369   4.913  27.577   1.483
43699W        W15370  13.070  19.649   3.360
43700W        W15371   7.710  14.762  11.399
43701W        W15372   5.826  13.300   3.099
43702W        W15373  27.427  25.131   4.389
43703W        W15374  42.871  29.126   2.740
43704W        W15375   3.778  17.322   4.550
43705W        W15376  32.922   9.134   2.753
43706W        W15377  21.016  42.704  14.189
43707W        W15378  31.784  10.156   4.086
43708W        W15379  25.795  39.338   0.886
43709W        W15380  21.543  11.269  10.186
43710W        W15381  16.732  44.863  14.900
43711W        W15382  25.570  21.555  12.920
43712W        W15383   2.935  11.125   3.580
43713W        W15384   4.834   6.974  10.731
43714W        W15385  29.753  29.673   1.952
43715W        W15386  24.726  30.099  14.801
43716W        W15387   4.609  35.834  13.453
43717W        W15388  17.593   7.947   4.831
43718W        W15389  24.219  38.171   2.396
43719W        W15390  32.893   5.478   1.923
43720W        W15391  40.054   0.854   3.608
43721W        W15392  27.209  11.293  10.709
43722W        W15393  39.620  32.662  13.069
43723W        W15394  43.394  29.174  11.792
43724W        W15395  37.156  13.678   0.474
43725W        W15396  23.580  42.670   3.711
43726W        W15397   8.295   6.306   4.764
43727W        W15398  42.438  39.842   0.905
43728W        W15399  40.994  26.417  14.068
43729W        W15400  13.885  36.416  12.332
43730W        W15401  13.794  23.507  10.566
43731W        W15402  34.139  36.613  11.152
43732W        W15403  33.044   7.897  13.778
43733W        W15404  32.573   2.711  12.530
43734W        W15405  33.498  26.044   1.169
43735W        W15406  20.083  21.039  11.170
43736W        W15407  41.870  20.157  14.317
43737W        W15408   3.497   8.597   0.842
43738W        W15409  17.709  18.967   2.242
43739W        W15410  14.782  10.383   1.966
43740W        W15411  14.286  37.386   4.144
43741W        W15412  31.112  25.959   3.162
43742W        W15413  23.968  37.716  10.307
43743W        W15414  13.078  22.605   4.138
43744W        W15415   5.938  13.810   5.017
43745W        W15416   8.700  35.159  11.241
43746W        W15417  25.960  26.946  13.528
43747W        W15418   0.944  12.602  12.574
43748W        W15419  17.077  10.061   0.284
43749W        W15420  17.829   2.774   3.239
43750W        W15421  43.388  42.152   2.246
43751W        W15422   0.951  35.688   2.806
43752W        W15423  28.687  41.883   4.887
43753W        W15424  32.339  12.688  14.281
43754W        W15425  31.003   1.737  14.690
43755W        W15426  31.484  32.127   0.655
43756W        W15427  26.259  34.502   4.650
43757W        W15428   6.489   1.796   2.736
43758W        W15429  32.161  28.556  13.388
43759W        W15430  13.134  33.449   4.404
43760W        W15431  42.734  37.969   0.745
43761W        W15432  36.076  40.892   2.770
43762W        W15433  41.364  40.921   3.110
43763W        W15434   9.170  20.051  14.812
43764W        W15435   3.739  13.802   3.298
43765W        W15436  17.249   4.815  13.580
43766W        W15437   9.721  39.453  14.056
43767W        W15438   0.407  34.540   4.080
43768W        W15439  25.064   0.267   3.262
43769W        W15440  18.023  35.878   2.256
43770W        W15441  24.144  37.735   1.991
43771W        W15442  43.767  34.843   4.517
43772W        W15443  26.177  23.019  13.398
43773W        W15444  41.446  30.130  14.571
43774W        W15445  37.236  38.773  13.074
43775W        W15446  28.693   3.682   4.464
43776W        W15447  10.921   5.402  12.884
43777W        W15448  24.624  24.958  12.364
43778W        W15449  43.909  40.503   2.320
43779W        W15450   2.216   8.605  14.373
43780W        W15451  28.311  18.233  13.928
43781W        W15452  21.712  27.954  12.902
43782W        W15453   9.631  30.881  14.300
43783W        W15454  33.870  39.514   4.237
43784W        W15455  32.007  43.618  11.516
43785W        W15456  35.463   9.571   2.295
43786W        W15457   8.192  11.655   3.854
43787W        W15458  10.157   0.708  13.996
43788W        W15459  13.736   1.964  10.679
43789W        W15460  14.324  14.369   1.802
43790W        W15461   0.113  33.356   0.492
43791W        W15462  18.735  18.862   4.473
43792W        W15463   0.371  23.261  14.578
43793W        W15464   6.197  10.286  10.894
43794W        W15465  23.845   1.019   2.370
43795W        W15466  28.676  24.758   4.237
43796W        W15467  43.050  41.810  11.541
43797W        W15468  40.024  39.553   2.676
43798W        W15469   6.160  41.348  12.169
43799W        W15470   3.184   1.085  14.128
43800W        W15471  37.124   1.278  12.939
43801W        W15472   3.446  35.655   2.934
43802W        W15473   0.213   2.782   0.396
43803W        W15474  36.685  44.765   2.925
43804W        W15475  34.103  21.607  14.793
43805W        W15476  29.935  20.718   1.351
43806W        W15477   0.947  22.090  11.105
43807W        W15478  44.510  42.041   0.639
43808W        W15479  42.271  26.655   2.180
43809W        W15480  16.860  38.251  14.451
43810W        W15481  13.435  10.165   1.965
43811W        W15482   6.050  24.178  12.147
43812W        W15483  22.478  33.060   4.801
43813W        W15484  21.681  44.186  14.873
43814W        W15485  22.504  41.205  12.838
43815W        W15486  39.907  37.967  12.043
43816W        W15487  21.868  44.868  11.928
43817W        W15488  23.784  32.583  14.610
43818W        W15489   1.510   4.365   1.952
43819W        W15490  41.882  41.309  12.437
43820W        W15491   8.275  41.591   0.346
43821W        W15492  22.600  23.424   4.905
43822W        W15493  36.409   2.973   0.254
43823W        W15494   0.694  43.320  14.096
43824W        W15495   2.029  18.721  11.970
43825W        W15496  22.398  28.860  11.191
43826W        W15497  21.567   0.489   1.693
43827W        W15498   6.250   0.733   1.913
43828W        W15499  24.984  27.290  14.872
43829W        W15500  26.933   1.950   1.916
43830W        W15501   9.162  36.122   0.034
43831W        W15502   3.442  34.679  12.891
43832W        W15503   6.099  37.321  10.519
43833W        W15504   4.203   5.755  13.794
43834W        W15505  39.926  14.768   0.958
43835W        W15506   5.265  17.753   0.246
43836W        W15507  43.974  24.562  10.143
43837W        W15508  11.079  37.925   0.926
43838W        W15509  33.101  19.322  12.140
43839W        W15510  11.329  28.407  12.916
43840W        W15511  40.398  16.069  14.856
43841W        W15512  11.724  17.092  10.655
43842W        W15513  13.082  34.911   1.255
43843W        W15514  11.742   6.043  10.647
43844W        W15515  43.599  27.622   0.302
43845W        W15516  43.029  31.068  14.417
43846W        W15517  17.503   4.254  14.775
43847W        W15518  16.568  35.849  11.931
43848W        W15519   9.934   8.921  10.766
43849W        W15520  31.794  43.078   4.085
43850W        W15521   3.807  41.413  11.947
43851W        W15522  41.756   7.937  13.827
43852W        W15523  16.124   0.143  10.641
43853W        W15524  23.379  28.999   2.147
43854W        W15525  27.806  38.416  10.589
43855W        W15526   3.237  15.856   1.318
43856W        W15527  33.567  43.419  14.799
43857W        W15528  23.096  13.523  14.818
43858W        W15529  11.769  28.941   0.784
43859W        W15530  29.365  12.971  11.745
43860W        W15531  25.594  41.807  13.461
43861W        W15532   1.262   4.811   3.780
43862W        W15533  36.389   6.527   2.629
43863W        W15534   6.935  25.233   4.117
43864W        W15535  39.391  41.455  13.971
43865W        W15536  10.833  28.176  14.847
43866W        W15537  19.964  43.025  12.281
43867W        W15538  39.136  23.564   3.737
43868W        W15539  40.367  10.051   3.618
43869W        W15540  13.158  30.705  11.132
43870W        W15541   8.590  42.157  12.194
43871W        W15542   1.231  12.541  11.161
43872W        W15543  40.848  38.011   1.301
43873W        W15544   6.388  21.076   0.343
43874W        W15545  21.361  35.027   3.763
43875W        W15546  12.316  11.180  10.634
43876W        W15547  33.314  19.692   2.302
43877W        W15548   0.449  11.921  12.929
43878W        W15549  24.444   4.901   3.332
43879W        W15550  23.703   1.839  11.144
43880W        W15551  13.628  21.173  14.093
43881W        W15552  28.055  34.616   0.362
43882W        W15553   2.832  30.555   0.539
43883W        W15554  24.130   9.009   3.890
43884W        W15555  43.021  25.248   3.129
43885W        W15556  36.307  30.237  13.430
43886W        W15557  38.450  27.737   3.071
43887W        W15558  25.680  28.731   2.242
43888W        W15559  40.977  10.127  14.170
43889W        W15560  36.556   6.755  13.430
43890W        W15561  37.815  17.992  11.132
43891W        W15562  35.962  21.007  13.337
43892W        W15563   3.814   7.691  13.826
43893W        W15564  34.169  19.010   3.858
43894W        W15565  15.842   6.928   4.989
43895W        W15566   2.829  37.652   4.763
43896W        W15567   3.423  20.616  14.261
43897W        W15568  31.008  18.057  13.743
43898W        W15569   8.066  35.372   0.455
43899W        W15570  36.564   2.198   0.632
43900W        W15571   8.888  26.658   1.866
43901W        W15572  22.600  37.350  12.601
43902W        W15573  24.260  33.050  11.577
43903W        W15574  37.986  39.078  11.324
43904W        W15575  36.552  18.165   4.743
43905W        W15576  32.567   0.768   0.475
43906W        W15577   8.353   2.664  12.172
43907W        W15578   0.795  34.864  14.980
43908W        W15579   1.840  24.807   0.750
43909W        W15580  36.659  22.769  12.391
43910W        W15581  21.083  16.977   2.440
43911W        W15582  36.314  40.258  14.670
43912W        W15583  29.838  40.167  11.178
43913W        W15584  25.279  19.655   5.074
43914W        W15585  39.936  39.364   0.695
43915W        W15586  18.278   0.832  12.435
43916W        W15587  44.659  39.569   4.651
43917W        W15588  14.203   6.687  11.440
43918W        W15589  39.874  18.977  10.582
43919W        W15590  24.570   1.795   4.379
43920W        W15591  33.317  22.241   1.968
43921W        W15592   5.765   6.445   0.311
43922W        W15593  28.907  17.168  11.426
43923W        W15594  26.651  12.152   3.664
43924W        W15595  32.369  16.185   2.389
43925W        W15596  42.861  28.586   0.948
43926W        W15597   1.984   7.413  14.003
43927W        W15598   2.945   4.805  13.943
43928W        W15599   4.790  34.069   0.883
43929W        W15600  35.631  21.162   4.608
43930W        W15601   4.864  20.598   3.851
43931W        W15602   0.351  34.010  13.985
43932W        W15603  36.870  33.828   3.879
43933W        W15604  44.666  22.309   0.391
43934W        W15605  12.864  44.526  11.563
43935W        W15606  13.025  23.404   9.726
43936W        W15607  18.798  29.307   0.999
43937W        W15608  11.955  27.661   1.255
43938W        W15609  40.664   1.763  11.231
43939W        W15610  39.922   6.498  11.623
43940W        W15611   6.866  12.556   1.895
43941W        W15612  25.704  31.595   2.850
43942W        W15613  17.256  30.025   1.302
43943W        W15614  38.955  44.022  10.705
43944W        W15615   1.430  16.814  14.003
43945W        W15616  25.042  34.004  14.594
43946W        W15617  28.966  37.879   0.610
43947W        W15618   6.335  19.892  12.500
43948W        W15619   2.442  21.715   5.042
43949W        W15620  36.992  32.987  12.379
43950W        W15621   1.734   7.852   1.346
43951W        W15622  11.605  19.616   2.376
43952W        W15623  14.130  16.773   4.564
43953W        W15624  40.129   2.299  14.976
43954W        W15625  25.715  24.729   4.568
43955W        W15626   6.262  19.149   4.495
43956W        W15627  17.506  32.532  12.252
43957W        W15628  11.516  32.015   4.597
43958W        W15629  13.116  36.034  14.940
43959W        W15630  34.868  30.587   1.337
43960W        W15631  39.275  43.173   3.203
43961W        W15632  28.428  16.173  13.854
43962W        W15633  32.293  27.512  14.868
43963W        W15634  41.970  24.093  13.105
43964W        W15635   7.941   5.216   1.451
43965W        W15636  40.889  34.128  12.376
43966W        W15637  32.825  27.178   0.836
43967W        W15638  10.176  42.779   4.834
43968W        W15639   3.892  23.427   3.134
43969W        W15640  26.583  38.731   2.724
43970W        W15641  26.098  15.057  11.648
43971W        W15642  10.633  38.146  11.969
43972W        W15643  40.003  44.002  12.892
43973W        W15644  35.971  29.734  10.728
43974W        W15645   5.841   7.175  14.821
43975W        W15646  30.932   8.224  12.479
43976W        W15647  15.003  12.257   2.816
43977W        W15648  24.035   5.165  11.570
43978W        W15649  29.428  14.662  10.813
43979W        W15650   3.242  41.933   4.976
43980W        W15651  19.171  12.158   4.953
43981W        W15652   2.300   7.821   4.123
43982W        W15653   2.568  26.517   4.731
43983W        W15654  32.131  34.733   4.005
43984W        W15655  37.680  39.953  14.954
43985W        W15656  16.770  36.027   0.295
43986W        W15657  39.049  16.472   1.881
43987W        W15658  41.536   6.819   0.541
43988W        W15659  29.051  10.638  10.638
43989W        W15660   6.419  38.350   2.248
43990W        W15661  24.514  23.980  14.268
43991W        W15662  31.400  10.380   5.024
43992W        W15663   8.185  24.661   2.842
43993W        W15664  20.057  25.431   4.252
43994W        W15665  33.997  17.167   4.658
43995W        W15666  17.735  34.709  14.310
43996W        W15667  10.403  10.538  13.442
43997W        W15668  15.704  43.886  11.546
43998W        W15669  17.057  29.457  10.800
43999W        W15670  44.267  14.321  11.529
44000W        W15671  18.600  42.321   1.197
44001W        W15672  35.152  29.798  12.596
44002W        W15673   9.889  27.079   1.241
44003W        W15674  28.883  19.787   4.070
44004W        W15675  17.609  32.283  13.824
44005W        W15676  14.247  41.507   1.745
44006W        W15677   8.243  15.771   4.338
44007W        W15678  37.891  37.645   1.834
44008W        W15679  25.301  25.878   1.426
44009W        W15680  32.026   3.442   2.787
44010W        W15681  10.509  27.260  14.755
44011W        W15682  26.374   8.393   5.216
44012W        W15683  22.942  40.415   1.421
44013W        W15684  10.291   0.837  10.580
44014W        W15685  25.486   1.171  14.902
44015W        W15686  23.452  11.823   1.802
44016W        W15687  35.730  24.963   1.914
44017W        W15688  43.337   4.942   2.664
44018W        W15689  26.998  34.933   0.953
44019W        W15690  36.797   1.728  11.590
44020W        W15691  10.891  23.596   3.283
44021W        W15692  35.087  37.499  10.603
44022W        W15693  19.205  30.909  13.334
44023W        W15694  23.281  20.213   4.063
44024W        W15695  32.706   1.365   1.784
44025W        W15696  16.097  23.533  14.547
44026W        W15697  20.509  20.243   3.693
44027W        W15698  26.924  18.805  12.562
44028W        W15699   5.859   7.420  14.369
44029W        W15700  10.466   6.806  11.042
44030W        W15701  28.240  37.346   1.894
44031W        W15702   2.136  31.516   0.004
44032W        W15703   7.374   4.297   3.659
44033W        W15704  36.589  40.919   4.384
44034W        W15705  14.580   3.304  11.198
44035W        W15706   3.091  19.796   0.385
44036W        W15707  23.233  18.007  14.513
44037W        W15708  19.504  35.156  12.623
44038W        W15709   8.766  24.747  14.282
44039W        W15710  19.597  28.252   4.186
44040W        W15711  40.322  33.882   4.070
44041W        W15712  10.851  31.125   3.827
44042W        W15713  36.514  43.209   0.649
44043W        W15714   7.299  34.799  13.960
44044W        W15715  39.787   9.289   1.425
44045W        W15716   8.757  25.049   0.743
44046W        W15717  29.538  44.833   3.840
44047W        W15718   3.302  23.165  11.728
44048W        W15719   9.731  34.421  12.527
44049W        W15720  43.865  26.652   2.401
44050W        W15721  26.374  23.474   3.643
44051W        W15722  39.619  26.107   0.655
44052W        W15723  38.980  11.410   2.465
44053W        W15724  33.439  20.496  14.537
44054W        W15725  11.524  39.257   0.142
44055W        W15726  32.749  23.405  11.505
44056W        W15727  35.468  37.285   4.100
44057W        W15728   0.886  41.452   4.468
44058W        W15729  35.792   9.757   3.192
44059W        W15730  42.468  17.632   1.588
44060W        W15731   4.498   7.387  12.701
44061W        W15732  17.782  41.876  13.884
44062W        W15733  41.531  39.614   1.659
44063W        W15734  39.839  29.970   4.725
44064W        W15735  39.405  38.102   0.542
44065W        W15736   1.006  29.436  10.736
44066W        W15737  24.683  10.280  13.492
44067W        W15738  34.950  21.516  13.855
44068W        W15739  37.523  40.984   3.736
44069W        W15740  15.086  41.006  13.383
44070W        W15741  37.425  44.319  12.755
44071W        W15742  32.434  14.357  10.434
44072W        W15743  10.247  40.007   0.745
44073W        W15744  32.346  39.888   4.801
44074W        W15745  38.197  29.439   1.895
44075W        W15746  27.081   7.214  14.957
44076W        W15747  11.736  35.350  10.579
44077W        W15748  35.562  16.695  10.705
44078W        W15749  34.897   6.886  13.905
44079W        W15750  17.737  16.296  12.004
44080W        W15751  41.390  29.083   2.275
44081W        W15752  24.849  35.069   2.492
44082W        W15753   4.686  12.307  12.598
44083W        W15754   2.320  38.766   4.063
44084W        W15755   2.409  40.153   2.844
44085W        W15756   1.993  17.026   3.207
44086W        W15757   0.464  35.523   2.810
44087W        W15758  10.907   4.656   3.290
44088W        W15759  28.143   1.216   0.223
44089W        W15760  11.324  30.403  14.464
44090W        W15761  43.970  24.698  12.461
44091W        W15762  26.800  25.234   2.461
44092W        W15763  25.142  10.370   4.406
44093W        W15764   7.703  32.069   1.338
44094W        W15765  44.946  32.429   2.168
44095W        W15766  25.930  19.240  11.258
44096W        W15767  14.215   0.949  13.344
44097W        W15768   0.280  31.414   0.317
44098W        W15769  23.670  27.048  13.433
44099W        W15770  17.973  27.100   2.267
44100W        W15771  17.932  23.052  13.126
44101W        W15772   9.227  13.790   4.202
44102W        W15773  21.020  32.022  11.758
44103W        W15774  32.881  36.433  12.943
44104W        W15775  12.150  15.565  10.477
44105W        W15776  11.151  25.498   0.351
44106W        W15777  36.340  42.755  14.362
44107W        W15778   4.902  35.281  13.880
44108W        W15779  34.810  19.482  11.076
44109W        W15780  28.362  21.306  14.168
44110W        W15781  34.038  15.760  14.045
44111W        W15782  39.573  32.432   3.914
44112W        W15783  22.026   6.481  10.688
44113W        W15784   1.426   4.931   9.984
44114W        W15785  10.427  34.263  14.832
44115W        W15786  16.929  19.413  10.296
44116W        W15787  23.419  39.604   2.361
44117W        W15788  27.028  27.191  13.706
44118W        W15789  42.553  38.320  10.675
44119W        W15790   6.206  37.788   4.764
44120W        W15791  29.279  35.411   1.397
44121W        W15792  32.888   2.523   0.344
44122W        W15793  13.167  32.392   3.423
44123W        W15794  35.622  22.477  14.846
44124W        W15795   5.701   7.964  13.455
44125W        W15796  26.570  38.840  14.964
44126W        W15797  35.619  16.429  14.413
44127W        W15798   1.523  27.151   2.856
44128W        W15799  26.720  27.531   1.676
44129W        W15800  23.079  31.355   2.955
44130W        W15801  38.395   0.282  10.739
44131W        W15802  34.520  13.261   4.381
44132W        W15803  24.442  41.184   0.928
44133W        W15804  35.215  27.605  12.401
44134W        W15805  25.952  34.666   1.076
44135W        W15806  34.134  39.931   4.741
44136W        W15807  22.470   1.889   4.227
44137W        W15808  44.719   3.990   4.178
44138W        W15809  25.574   9.237  14.591
44139W        W15810  17.217  15.590  13.515
44140W        W15811  38.316  12.839  12.032
44141W        W15812  36.199  27.603   0.876
44142W        W15813  11.721  36.869  10.313
44143W        W15814  23.218   4.964  13.890
44144W        W15815  43.974  32.808   1.270
44145W        W15816  40.091   3.038  12.383
44146W        W15817  30.592   1.673  10.584
44147W        W15818  21.223   7.768  10.598
44148W        W15819  20.899  14.127  14.308
44149W        W15820  20.964   0.902  11.488
44150W        W15821  17.969  26.482  14.594
44151W        W15822  29.561  25.496  12.223
44152W        W15823  22.090  21.551  14.513
44153W        W15824  22.333  27.861   2.334
44154W        W15825  35.081  33.082  13.397
44155W        W15826  15.662  18.138  11.523
44156W        W15827   2.210  26.630   2.778
44157W        W15828  39.436  25.711  10.766
44158W        W15829  35.956  33.517   0.309
44159W        W15830   2.767   6.701   1.167
44160W        W15831   5.777  20.259  13.539
44161W        W15832  17.556   5.973   2.750
44162W        W15833   1.380  38.076  13.913
44163W        W15834  17.767  43.821   1.286
44164W        W15835  34.533   7.262  12.149
44165W        W15836  36.521  39.360   2.663
44166W        W15837  39.917  40.000   1.434
44167W        W15838  37.620   8.725   5.076
44168W        W15839   4.754  17.739  13.581
44169W        W15840   9.310  27.501  11.588
44170W        W15841  21.765  37.854   3.199
44171W        W15842  26.515  29.565  11.126
44172W        W15843  41.413  41.600   9.692
44173W        W15844  30.175   4.204   4.159
44174W        W15845  12.550  34.012   3.635
44175W        W15846  29.151  20.298   1.780
44176W        W15847   9.874  11.707   2.242
44177W        W15848  38.528  28.776   3.731
44178W        W15849  16.986   2.874  12.036
44179W        W15850  29.458  40.109  10.620
44180W        W15851  39.052  28.636   2.318
44181W        W15852  25.267   5.692   2.698
44182W        W15853  22.620   9.688   3.593
44183W        W15854  39.698  24.212  12.278
44184W        W15855   4.852  27.504   4.261
44185W        W15856  23.184  29.773  14.487
44186W        W15857  34.519  40.032  14.478
44187W        W15858   2.991  17.189   3.261
44188W        W15859   3.774  19.101  13.416
44189W        W15860  21.199  13.645  13.432
44190W        W15861  32.679   3.885  13.343
44191W        W15862  37.596  25.250   0.043
44192W        W15863  41.322  36.018   1.749
44193W        W15864  31.854  23.656   4.412
44194W        W15865  25.381  29.013   1.140
44195W        W15866  26.913   3.995   2.343
44196W        W15867   4.485  35.290  11.942
44197W        W15868  26.650   0.599  10.819
44198W        W15869  36.065   9.122  14.525
44199W        W15870  18.222  19.474   4.979
44200W        W15871  19.728  25.436   0.325
44201W        W15872  41.108  14.848  14.815
44202W        W15873  12.914  22.897   3.729
44203W        W15874  23.082  16.714   4.181
44204W        W15875  18.006   7.216   0.246
44205W        W15876  41.335  39.964  14.561
44206W        W15877   8.803  11.408   0.220
44207W        W15878  18.811  35.863  12.431
44208W        W15879   0.786  14.328  14.367
44209W        W15880  29.802   2.999  11.335
44210W        W15881  37.557  44.889  10.502
44211W        W15882  30.005   5.446   0.442
44212W        W15883   8.302  15.521   1.389
44213W        W15884  38.369  14.522  10.510
44214W        W15885  21.275   9.714  13.865
44215W        W15886  36.732   4.347   1.339
44216W        W15887  43.887   6.679  13.478
44217W        W15888  36.586   0.640   2.206
44218W        W15889  31.633  24.614   4.285
44219W        W15890  10.187  13.198   0.781
44220W        W15891  39.902  33.102  12.021
44221W        W15892  36.086  21.676  14.767
44222W        W15893  36.438   5.818  13.430
44223W        W15894  25.002  35.795  14.138
44224W        W15895  26.456  19.515   0.708
44225W        W15896  27.779  24.644   0.392
44226W        W15897  39.259   9.212   1.410
44227W        W15898  28.153   3.527   1.767
44228W        W15899   2.254   1.307   0.206
44229W        W15900  27.205  30.628   0.333
44230W        W15901  36.824  22.599  10.105
44231W        W15902  31.361  29.784  14.548
44232W        W15903   4.820   7.692  12.955
44233W        W15904  17.029  32.623  12.082
44234W        W15905  21.722  20.040  14.326
44235W        W15906  15.868   3.206  11.312
44236W        W15907   6.225  14.820  11.036
44237W        W15908  33.466  30.697   3.879
44238W        W15909  41.025  30.036  13.371
44239W        W15910  33.952   2.043   0.451
44240W        W15911   1.387  31.526   1.479
44241W        W15912  40.623   7.219   1.514
44242W        W15913  27.993  36.911   2.725
44243W        W15914  27.277  29.886   0.974
44244W        W15915  43.078   6.378   2.974
44245W        W15916  19.536   5.113  12.510
44246W        W15917  41.589  39.474  11.633
44247W        W15918  12.503  42.279   3.599
44248W        W15919  27.160  32.813  13.132
44249W        W15920  12.678  32.987  12.657
44250W        W15921  31.007  23.894   2.232
44251W        W15922   4.351  18.059   3.760
44252W        W15923  25.612  36.437   1.014
44253W        W15924  15.716  42.593   3.195
44254W        W15925  21.503   9.313   0.243
44255W        W15926   9.167   8.205   1.416
44256W        W15927  33.989   7.197   3.489
44257W        W15928  30.240  30.403  14.344
44258W        W15929  17.019  19.222  12.876
44259W        W15930  18.153  35.309   3.661
44260W        W15931  13.099  21.684   2.157
44261W        W15932  32.844  42.865   4.802
44262W        W15933  38.958  44.812   4.525
44263W        W15934   6.475   5.709  14.717
44264W        W15935  12.145  29.166  11.364
44265W        W15936   4.683   3.325  13.334
44266W        W15937  39.096  38.947  14.978
44267W        W15938  14.490   2.022  14.792
44268W        W15939  30.102  22.668  13.568
44269W        W15940   7.370   8.110   4.447
44270W        W15941  34.068  23.662  14.228
44271W        W15942  22.168  40.446   5.033
44272W        W15943  11.626   4.251  14.674
44273W        W15944  36.821  39.083   4.545
44274W        W15945  24.728   1.192  11.767
44275W        W15946   7.619  31.875   3.277
44276W        W15947  14.902   5.192  13.425
44277W        W15948  18.606   2.287  13.260
44278W        W15949  43.620  30.093   4.543
44279W        W15950  23.703  43.283   4.351
44280W        W15951  37.808  39.014   1.678
44281W        W15952   1.905   0.984  13.762
44282W        W15953   6.300  24.205  12.612
44283W        W15954  22.180  25.949  13.416
44284W        W15955  15.169  14.846  10.975
44285W        W15956  16.663   1.323  11.199
44286W        W15957  31.988  15.008  13.089
44287W        W15958  36.229  31.497  12.154
44288W        W15959  26.035  23.688  11.162
44289W        W15960   9.917  38.452  13.322
44290W        W15961  40.471  43.197  13.963
44291W        W15962  44.971  32.451  11.153
44292W        W15963   3.434  37.796   0.407
44293W        W15964  25.106  11.358   2.385
44294W        W15965   7.961  38.959  11.354
44295W        W15966  32.448   0.768   2.515
44296W        W15967  26.547  11.993  11.087
44297W        W15968  21.573   7.253  13.056
44298W        W15969  21.044  42.241   5.059
44299W        W15970  11.869  37.034  14.504
44300W        W15971  22.248  33.571   9.558
44301W        W15972  10.329   7.162   2.521
44302W        W15973  24.782  40.775  12.917
44303W        W15974  31.855  44.832  12.209
44304W        W15975  32.417  28.608   2.606
44305W        W15976  25.160  15.073   4.171
44306W        W15977  41.590  39.083   4.810
44307W        W15978  12.388   3.453  11.911
44308W        W15979  37.082  30.149  12.013
44309W        W15980  19.454  38.087  11.071
44310W        W15981   7.209  28.445  11.945
44311W        W15982  30.470  20.815  11.600
44312W        W15983   9.252  11.254  10.922
44313W        W15984   2.665  31.355  14.506
44314W        W15985   5.429  44.919   3.882
44315W        W15986   1.784  11.917  14.423
44316W        W15987   2.825   4.308  14.048
44317W        W15988  41.585  21.759  14.907
44318W        W15989  11.436   5.025   0.417
44319W        W15990  43.217  19.347  12.023
44320W        W15991  15.246  35.288  13.429
44321W        W15992   0.773  35.348   3.204
44322W        W15993  15.619   4.848  14.078
44323W        W15994  36.946   5.776  13.354
44324W        W15995   9.656  24.021  12.315
44325W        W15996  28.005  32.703   1.536
44326W        W15997   7.667  38.399  14.744
44327W        W15998  22.163  20.678   0.887
44328W        W15999   7.375  38.860   2.866
44329W        W16000  19.052  39.267   2.417
44330W        W16001  22.507   6.226  12.543
44331W        W16002  21.116  21.354  10.017
44332W        W16003  27.033   7.073   5.022
44333W        W16004  36.522  20.578  11.231
44334W        W16005  33.053  29.935   2.900
44335W        W16006  31.184  40.078   2.412
44336W        W16007  14.171  30.051  12.956
44337W        W16008  15.793   3.865   2.875
44338W        W16009  20.768  28.197  13.092
44339W        W16010  10.348  32.620   3.494
44340W        W16011   8.383  15.050   1.224
44341W        W16012   9.688  18.315   4.824
44342W        W16013  18.073  15.021   5.029
44343W        W16014  30.035  19.696  12.557
44344W        W16015  24.806   7.947  14.321
44345W        W16016  33.584   2.848  12.528
44346W        W16017   8.229  37.421   0.408
44347W        W16018   7.665  32.498  14.991
44348W        W16019   5.606  23.315  13.977
44349W        W16020   1.456  11.929  12.867
44350W        W16021  21.978  41.541   0.841
44351W        W16022  20.489   6.306   1.885
44352W        W16023  21.243  24.493   0.894
44353W        W16024  35.062  20.689  10.605
44354W        W16025  12.782  33.679   0.420
44355W        W16026  34.980  29.318  10.726
44356W        W16027  27.752   3.731  11.146
44357W        W16028  19.518  32.059  14.764
44358W        W16029  15.130  12.719  13.791
44359W        W16030   1.546   7.810   2.849
44360W        W16031  15.751  40.335  13.348
44361W        W16032   5.078  21.237   2.885
44362W        W16033   6.926  15.687  12.026
44363W        W16034  39.161  33.948   0.360
44364W        W16035   8.796   1.184  14.439
44365W        W16036   4.203   6.900   3.725
44366W        W16037  16.362   5.390   4.107
44367W        W16038  22.101  16.839  11.858
44368W        W16039  20.564   7.371  12.046
44369W        W16040   0.583  28.057  12.426
44370W        W16041   0.888  37.166   4.585
44371W        W16042  14.559  33.755  14.684
44372W        W16043   8.555  41.656  12.354
44373W        W16044  12.583  18.409   3.153
44374W        W16045   4.510  33.154   4.578
44375W        W16046  41.263  35.939   4.503
44376W        W16047  30.662  39.938  10.912
44377W        W16048  27.725  43.499  13.162
44378W        W16049  15.160   8.218   1.362
44379W        W16050  34.912  35.035   4.067
44380W        W16051  25.541  13.095  14.056
44381W        W16052  27.767   0.973  14.956
44382W        W16053  39.965  38.569   1.641
44383W        W16054  43.868  39.431  13.607
44384W        W16055   2.792  17.439   4.799
44385W        W16056   2.369  33.891  14.696
44386W        W16057   7.404  37.767  14.018
44387W        W16058   8.219  18.236  12.769
44388W        W16059   6.188  31.539   0.846
44389W        W16060   1.264   0.735   1.840
44390W        W16061  44.974  29.723   0.734
44391W        W16062  14.207  32.141   3.613
44392W        W16063  44.794  14.120   0.834
44393W        W16064  37.823  33.767   1.655
44394W        W16065  35.388  30.631  11.673
44395W        W16066  37.524  30.432  12.039
44396W        W16067  16.399   7.563  12.892
44397W        W16068   3.316  34.448   2.166
44398W        W16069  19.323   4.894   2.815
44399W        W16070  29.440  18.239  10.687
44400W        W16071  12.615  40.012  11.695
44401W        W16072  36.548  24.047   1.303
44402W        W16073  18.047  17.803  11.492
44403W        W16074  44.887  23.340   2.357
44404W        W16075  30.051  26.840  12.575
44405W        W16076  16.288   8.532  13.019
44406W        W16077  38.077   0.935   2.266
44407W        W16078   6.206   2.257   0.878
44408W        W16079   2.262  10.212  10.707
44409W        W16080   7.482  37.988   4.130
44410W        W16081  18.845  14.286   4.080
44411W        W16082  33.160  20.667  12.549
44412W        W16083  24.149  12.082  14.320
44413W        W16084  37.097  16.869  10.906
44414W        W16085  41.299  43.989   1.829
44415W        W16086  44.941  41.336   4.031
44416W        W16087  17.215  33.844   1.787
44417W        W16088  37.400   2.767   1.014
44418W        W16089   6.409  12.445  11.130
44419W        W16090  35.391   3.827  10.441
44420W        W16091  16.732  35.970  12.836
44421W        W16092  17.489  31.835   1.316
44422W        W16093   4.841  14.618  14.121
44423W        W16094  15.224   2.448  10.751
44424W        W16095  43.520  14.295   9.853
44425W        W16096  43.020   8.960   3.881
44426W        W16097   5.947  26.621  10.770
44427W        W16098  32.879   1.362  13.430
44428W        W16099  42.238  13.716   4.437
44429W        W16100  34.105  41.246   1.748
44430W        W16101  20.002  10.597   2.837
44431W        W16102  34.904   7.402  13.892
44432W        W16103  31.921  15.066   1.758
44433W        W16104  30.143  26.114  14.399
44434W        W16105  25.181   6.297  12.355
44435W        W16106  39.466  30.469   1.173
44436W        W16107   6.952  11.856  12.162
44437W        W16108   0.159  16.039   2.192
44438W        W16109  25.299  32.583  13.124
44439W        W16110  44.206  10.820   3.130
44440W        W16111  31.625  20.967   1.002
44441W        W16112   4.925  13.676  13.564
44442W        W16113  38.606  26.162  10.986
44443W        W16114   9.149  19.072  11.484
44444W        W16115  14.685  34.001   1.352
44445W        W16116  11.896  28.432  12.070
44446W        W16117   8.926   2.102   2.867
44447W        W16118   7.652  33.135   2.754
44448W        W16119   1.220  20.000  10.624
44449W        W16120  15.790  27.563  11.814
44450W        W16121  30.094  35.418   2.637
44451W        W16122  35.068  30.631   1.794
44452W        W16123   4.243  38.361   2.295
44453W        W16124   4.130  41.120  14.440
44454W        W16125  35.548  12.364   2.313
44455W        W16126  13.726  22.682  14.948
44456W        W16127  25.079  21.432  13.013
44457W        W16128   2.899  28.697  10.682
44458W        W16129  10.216   3.237   0.476
44459W        W16130  14.844   5.439  14.730
44460W        W16131  29.650   7.954  14.391
44461W        W16132  34.457  43.270  11.773
44462W        W16133  31.292  20.186   3.621
44463W        W16134   1.253  20.027   4.129
44464W        W16135  27.586  21.448   0.806
44465W        W16136   9.785  27.428  13.407
44466W        W16137  42.981  34.632  11.150
44467W        W16138  19.485  12.780  13.393
44468W        W16139  37.362  25.934   1.491
44469W        W16140  16.826  16.885  12.884
44470W        W16141  36.314  39.270   4.564
44471W        W16142   4.276  15.742  10.686
44472W        W16143   5.859  21.285   0.386
44473W        W16144   5.629  17.063  11.522
44474W        W16145   8.088  10.202  11.025
44475W        W16146  26.923  41.004  13.569
44476W        W16147  15.552  33.776  10.571
44477W        W16148   6.474  10.082   0.822
44478W        W16149  31.189   8.867  12.884
44479W        W16150   0.297  32.035  11.978
44480W        W16151  34.803  30.890   5.293
44481W        W16152  12.116  23.751  14.496
44482W        W16153  25.694  17.591   3.480
44483W        W16154  22.644  44.718   3.367
44484W        W16155  11.802   9.779   3.318
44485W        W16156  20.148  40.391  10.581
44486W        W16157   3.227  15.089  12.085
44487W        W16158  44.478  13.319  11.551
44488W        W16159  38.788  16.232   2.836
44489W        W16160  20.542  44.288  13.302
44490W        W16161  36.206  34.662  14.552
44491W        W16162  11.312  16.830  13.758
44492W        W16163   3.298  40.009   4.902
44493W        W16164  27.660  14.457  13.655
44494W        W16165   9.077  21.548  12.500
44495W        W16166  22.149  32.403  10.498
44496W        W16167  26.685  35.288  11.152
44497W        W16168  40.846  27.162  12.499
44498W        W16169  37.871  34.199  14.247
44499W        W16170  31.505  19.444  13.267
44500W        W16171  11.807  18.248   1.955
44501W        W16172  27.442   4.146  11.109
44502W        W16173   9.951  20.052   0.455
44503W        W16174  26.027  25.072   0.143
44504W        W16175  38.283  13.210   2.182
44505W        W16176  14.164  32.485   3.164
44506W        W16177  23.530  43.222  13.815
44507W        W16178  18.984  35.897  11.460
44508W        W16179  39.523  25.709  12.053
44509W        W16180  43.043   2.970  11.716
44510W        W16181  43.504  12.224  13.829
44511W        W16182  18.072  17.583  13.334
44512W        W16183  12.039  33.554  14.002
44513W        W16184  15.631  14.699   4.619
44514W        W16185  13.394  40.937   4.930
44515W        W16186  11.776  14.297   2.394
44516W        W16187  17.560  22.746   0.428
44517W        W16188  13.854  24.499   3.594
44518W        W16189   4.933  34.830   0.308
44519W        W16190  13.675  38.310   3.282
44520W        W16191   8.114  18.755  13.498
44521W        W16192  14.805  13.394  11.473
44522W        W16193  13.672   5.404  11.939
44523W        W16194  16.704  19.581   3.043
44524W        W16195   3.244  16.081  11.996
44525W        W16196  41.893  36.327  12.504
44526W        W16197  18.209  11.689   2.229
44527W        W16198  33.434  25.628  10.239
44528W        W16199  14.679  21.564  14.233
44529W        W16200  18.721  37.546   3.150
44530W        W16201   3.895   2.207  14.471
44531W        W16202  17.193  40.396  10.507
44532W        W16203  13.831  19.188   2.445
44533W        W16204  26.203  12.126   0.511
44534W        W16205  15.623  22.127   1.773
44535W        W16206  20.034  29.704  12.414
44536W        W16207  37.274  24.966  11.898
44537W        W16208   4.913   5.963   2.522
44538W        W16209  32.225   8.395  14.509
44539W        W16210   0.421  42.252  14.354
44540W        W16211   7.820  14.184  13.792
44541W        W16212  37.133   8.824  14.485
44542W        W16213  33.866  40.658   3.286
44543W        W16214   0.414  18.453  11.236
44544W        W16215   4.867   4.711   4.146
44545W        W16216   6.926  39.104   2.245
44546W        W16217  27.129  22.527   2.884
44547W        W16218  17.637   8.170   4.316
44548W        W16219   0.343  37.431   4.555
44549W        W16220  10.640  36.032   1.821
44550W        W16221  15.524  30.124   2.284
44551W        W16222   3.482  41.789  14.956
44552W        W16223  24.141  25.666  12.036
44553W        W16224  39.285   4.738   2.733
44554W        W16225  22.575  11.699   3.495
44555W        W16226  16.128  37.094   0.909
44556W        W16227   7.807  33.789  10.453
44557W        W16228   6.372  34.425  13.769
44558W        W16229  38.304  33.350   0.821
44559W        W16230  18.541  20.215   1.752
44560W        W16231  31.635  22.892   1.267
44561W        W16232  25.234  34.917  12.624
44562W        W16233   3.385  19.204  13.082
44563W        W16234  36.919  11.837  12.375
44564W        W16235  35.751  14.024  12.175
44565W        W16236  35.132   5.493   2.163
44566W        W16237  22.230   8.794   4.569
44567W        W16238  44.053   6.452  13.951
44568W        W16239  19.802  36.438   2.535
44569W        W16240  22.135  23.210   4.866
44570W        W16241  38.629  31.870  11.690
44571W        W16242  18.104  29.440   4.608
44572W        W16243  25.588  20.779  12.094
44573W        W16244  19.603   9.268   1.677
44574W        W16245   4.991  32.495  13.536
44575W        W16246  18.793   0.723   0.021
44576W        W16247  16.769  16.663   1.491
44577W        W16248   4.415  15.560  12.498
44578W        W16249  34.161  43.025   2.354
44579W        W16250  41.136   2.342   1.919
44580W        W16251  26.063  10.840  10.574
44581W        W16252  34.013   7.796   0.822
44582W        W16253   7.834  34.878   4.657
44583W        W16254   2.468  14.913   2.185
44584W        W16255  37.353  33.599   2.238
44585W        W16256  26.216   9.263  12.504
44586W        W16257  19.091  22.704  11.126
44587W        W16258  35.876  16.883  11.642
44588W        W16259  34.045  13.815  12.839
44589W        W16260  43.311  27.222  13.507
44590W        W16261  36.283  16.763   3.558
44591W        W16262  23.750  25.197   3.728
44592W        W16263   5.127  21.025   3.766
44593W        W16264   2.110  30.130  11.060
44594W        W16265  27.605  29.005   0.119
44595W        W16266  44.934  35.532   4.804
44596W        W16267  42.279  18.168   0.296
44597W        W16268  43.492  41.998  14.858
44598W        W16269  32.596   9.291  13.839
44599W        W16270  38.109   3.467  12.439
44600W        W16271  39.547   3.737   2.892
44601W        W16272  31.357  25.513   3.283
44602W        W16273  19.451  39.033  14.846
44603W        W16274   5.435  27.012   0.686
44604W        W16275  26.469  36.909  14.747
44605W        W16276  12.226  43.323   4.751
44606W        W16277  30.403  32.900   0.253
44607W        W16278  22.738  15.534  11.982
44608W        W16279  13.373  23.160   0.464
44609W        W16280  35.129  12.476  13.358
44610W        W16281   9.871  15.208  13.099
44611W        W16282  25.172  33.896   4.169
44612W        W16283  21.048  39.302  14.387
44613W        W16284   9.668   0.738   2.211
44614W        W16285   7.826  34.957   1.937
44615W        W16286  11.593  39.885   2.178
44616W        W16287  19.077  38.749   2.271
44617W        W16288  20.338  11.841   3.686
44618W        W16289   2.662  30.085  14.333
44619W        W16290  35.543   0.998  13.853
44620W        W16291  19.319  32.001   0.236
44621W        W16292  31.240  22.105   1.451
44622W        W16293  14.288  18.582  13.552
44623W        W16294  29.171  19.572   2.177
44624W        W16295  23.943  19.646  12.466
44625W        W16296  15.463  16.528   3.246
44626W        W16297   5.714  30.168  13.109
44627W        W16298  23.616  16.783   3.369
44628W        W16299  12.713  23.000  11.481
44629W        W16300   7.181  11.209  14.879
44630W        W16301  41.469  20.439  14.538
44631W        W16302  35.817   4.319  12.445
44632W        W16303  29.136  13.304   3.865
44633W        W16304  10.360  43.797   4.538
44634W        W16305  27.209  21.634  12.389
44635W        W16306  20.131  18.314  10.639
44636W        W16307  26.583  40.152   3.627
44637W        W16308  28.945   1.025   4.147
44638W        W16309   7.082   8.662  10.754
44639W        W16310  11.748   8.139  14.450
44640W        W16311  24.326  26.105   1.328
44641W        W16312  10.730  16.452   1.967
44642W        W16313  37.055  35.509  10.763
44643W        W16314  41.904  40.012   4.236
44644W        W16315  28.231  43.772  11.458
44645W        W16316  33.879  36.899   0.325
44646W        W16317  22.694  43.804   0.749
44647W        W16318  37.671  24.532  13.035
44648W        W16319  15.164  17.247   4.791
44649W        W16320   4.108  15.880  14.908
44650W        W16321  24.239  19.130   3.248
44651W        W16322  39.411  16.195   0.570
44652W        W16323  42.772   1.992   3.237
44653W        W16324  43.629  10.377  11.576
44654W        W16325  13.113  32.290  13.064
44655W        W16326  31.422  25.109  14.928
44656W        W16327  16.337  26.199  13.534
44657W        W16328  31.501  31.487   1.805
44658W        W16329   5.214  28.018  13.430
44659W        W16330  30.166  33.358   0.080
44660W        W16331  39.445  22.624  13.268
44661W        W16332   4.337  21.821  11.519
44662W        W16333  35.146  44.894  13.837
44663W        W16334  40.245   4.902  12.843
44664W        W16335  41.622  33.059  10.730
44665W        W16336  40.356   1.691   2.851
44666W        W16337  22.601  37.294   3.297
44667W        W16338  36.418   0.530   3.644
44668W        W16339  35.899  13.239  11.456
44669W        W16340  19.581  11.526   5.470
44670W        W16341  15.811  13.133  13.399
44671W        W16342   8.713  38.593   2.007
44672W        W16343   0.477   5.890   1.184
44673W        W16344   2.291  13.301   3.723
44674W        W16345  32.452   1.765   4.168
44675W        W16346  39.233  23.714  11.835
44676W        W16347  12.389   5.417   2.855
44677W        W16348  21.964  40.496  13.970
44678W        W16349   3.593  41.338   0.909
44679W        W16350  13.220  24.223  12.554
44680W        W16351   7.536  22.697  10.247
44681W        W16352  37.388  30.189  14.902
44682W        W16353   8.618  38.583  13.838
44683W        W16354  31.597  26.607   0.024
44684W        W16355  40.587  33.040  12.584
44685W        W16356  13.825  22.838   4.741
44686W        W16357  21.104  18.205  13.789
44687W        W16358  10.484   5.944   0.023
44688W        W16359  28.159   8.538  11.426
44689W        W16360  11.896  34.060  13.213
44690W        W16361   8.825  12.177  11.385
44691W        W16362   1.302   1.521  12.585
44692W        W16363  39.423  38.320   4.523
44693W        W16364  18.885  18.292  11.999
44694W        W16365  40.971  44.464  12.607
44695W        W16366  17.297   1.038  13.317
44696W        W16367  14.345  26.936   4.220
44697W        W16368  19.209  23.336  14.888
44698W        W16369  33.870  23.090  12.488
44699W        W16370   4.917  10.262  13.051
44700W        W16371   9.301  21.691  11.502
44701W        W16372   1.841  12.771   2.310
44702W        W16373  28.595  26.135   0.033
44703W        W16374  15.556  25.398  13.697
44704W        W16375  36.097  28.108  14.375
44705W        W16376  33.979  27.757   2.218
44706W        W16377  23.705  44.576   2.274
44707W        W16378  41.929  31.571   4.592
44708W        W16379  35.878  42.862   0.409
44709W        W16380  43.282  38.022  14.436
44710W        W16381  30.801  10.231  12.498
44711W        W16382  38.283  14.667   2.271
44712W        W16383  11.126  38.546   4.626
44713W        W16384  44.240  24.633  11.136
44714W        W16385  44.040  16.381  13.060
44715W        W16386  16.112   3.660   0.492
44716W        W16387   1.884  19.831  14.389
44717W        W16388  38.075  10.770   1.336
44718W        W16389   9.388  13.160   1.421
44719W        W16390  34.835  38.651   4.955
44720W        W16391  29.522   2.345  14.896
44721W        W16392  34.541  37.950   2.754
44722W        W16393  34.962  22.794   3.755
44723W        W16394   5.915  20.518  14.728
44724W        W16395  15.096  24.550   4.336
44725W        W16396  12.707   3.177   4.152
44726W        W16397  33.476  12.428  11.268
44727W        W16398   7.253  16.125  10.991
44728W        W16399   8.759   7.913   3.252
44729W        W16400  25.065  28.979  11.351
44730W        W16401  31.132  17.025  14.909
44731W        W16402  33.345  19.511  10.973
44732W        W16403  21.241  17.212  13.005
44733W        W16404  17.282  35.206   3.713
44734W        W16405  13.634   3.848   4.270
44735W        W16406   9.120  10.329   1.228
44736W        W16407   4.984  15.337  10.647
44737W        W16408  26.538   7.274  13.486
44738W        W16409  36.008   8.917   0.338
44739W        W16410  44.082  39.183  13.998
44740W        W16411  38.235  30.926   2.765
44741W        W16412   8.974  26.363  12.736
44742W        W16413  24.747  44.725   0.749
44743W        W16414  32.144  34.533  14.961
44744W        W16415  28.918  42.429  12.710
44745W        W16416  22.652  40.213   2.787
44746W        W16417  10.255  37.680  11.511
44747W        W16418  37.907  14.283  13.276
44748W        W16419  34.895  22.719  12.896
44749W        W16420  16.693   7.859  11.616
44750W        W16421  21.624  42.768  10.914
44751W        W16422  20.353  32.460  11.178
44752W        W16423   6.630   8.379   3.266
44753W        W16424  44.603   1.350   2.129
44754W        W16425   6.392  43.546  13.943
44755W        W16426  41.022  42.433  11.701
44756W        W16427  23.481  26.523   2.118
44757W        W16428   2.782  30.452   4.670
44758W        W16429  16.363  32.944   3.485
44759W        W16430   9.173   1.829  12.838
44760W        W16431   9.305  45.000   1.892
44761W        W16432  38.326  30.558  13.842
44762W        W16433  27.424  31.617  10.461
44763W        W16434  20.580  30.432  11.218
44764W        W16435  26.135  34.410   2.510
44765W        W16436  26.846  15.171  12.012
44766W        W16437   3.328   3.378   4.871
44767W        W16438   7.135  43.904   3.215
44768W        W16439  22.930  41.841  11.174
44769W        W16440  15.647  37.056  10.350
44770W        W16441  38.348  16.164   3.125
44771W        W16442  31.140  40.316   2.870
44772W        W16443   7.078   7.676   4.444
44773W        W16444   6.347  10.211   4.154
44774W        W16445  31.621  43.433   0.784
44775W        W16446   9.368   2.415  14.849
44776W        W16447  30.406  16.599   1.804
44777W        W16448  10.016  24.835   0.267
44778W        W16449   3.871  37.132   2.156
44779W        W16450  37.905  11.384  12.776
44780W        W16451  12.765  42.927   4.584
44781W        W16452   0.523  42.740  11.145
44782W        W16453  11.547   2.441  12.766
44783W        W16454  38.574  36.011  11.572
44784W        W16455  38.547  42.118  12.162
44785W        W16456  24.596  26.701   0.430
44786W        W16457  23.123  15.208   2.929
44787W        W16458  31.047  27.437   2.046
44788W        W16459  33.048  16.051   3.604
44789W        W16460  13.742  12.658   4.329
44790W        W16461  22.582  37.942   9.860
44791W        W16462  35.002  34.385  13.851
44792W        W16463   1.959   6.896   2.392
44793W        W16464  11.805  27.096  13.559
44794W        W16465   6.364   3.153   3.984
44795W        W16466  34.138  24.680   1.215
44796W        W16467  40.095  25.214  13.873
44797W        W16468   3.806  11.771   2.065
44798W        W16469   3.055  30.453  11.677
44799W        W16470  27.098  23.600  12.040
44800W        W16471  26.257  30.153   2.769
44801W        W16472  17.755  28.829   1.011
44802W        W16473  38.092  37.474   4.605
44803W        W16474   8.706  22.661   0.308
44804W        W16475  15.675  35.115   3.231
44805W        W16476  27.061  27.453  14.699
44806W        W16477  29.186  27.215   0.867
44807W        W16478  27.928  15.195  10.093
44808W        W16479  13.006  27.959  11.514
44809W        W16480   9.707  33.674   4.171
44810W        W16481   9.606   9.415   1.167
44811W        W16482  33.637  14.013  10.038
44812W        W16483  10.326  28.551  10.650
44813W        W16484  22.036  31.825   4.821
44814W        W16485  38.965  41.014  12.488
44815W        W16486  18.092  30.571  12.566
44816W        W16487  30.233   0.911   4.474
44817W        W16488  37.278  12.028  13.837
44818W        W16489  12.584  17.146   1.664
44819W        W16490  25.264  31.552  13.008
44820W        W16491   7.108  29.526   0.299
44821W        W16492   6.947  17.073   3.380
44822W        W16493  29.451  31.523  13.531
44823W        W16494  13.808  19.045  11.997
44824W        W16495  24.438  16.281   2.898
44825W        W16496  13.874   2.862   4.321
44826W        W16497  34.013  39.556   2.374
44827W        W16498   8.912   4.376  13.161
44828W        W16499  27.236  41.566   0.787
44829W        W16500  38.515  43.465  11.714
44830W        W16501  27.759  26.619  10.737
44831W        W16502  29.624  24.258   3.651
44832W        W16503   1.435  16.728   1.001
44833W        W16504   4.823   5.696  14.832
44834W        W16505  27.612  15.254  14.231
44835W        W16506  38.599   0.134   4.249
44836W        W16507  21.607  28.421  14.904
44837W        W16508  23.962  29.703  11.098
44838W        W16509  31.225   1.713  11.964
44839W        W16510  11.231  36.839  10.482
44840W        W16511   3.281   8.763  12.494
44841W        W16512  41.622   6.603   3.624
44842W        W16513   9.631  35.508  10.984
44843W        W16514  10.695   6.157   0.438
44844W        W16515  42.295  42.227   0.878
44845W        W16516  22.277   3.243   1.718
44846W        W16517  33.025  12.257  11.579
44847W        W16518  44.103  42.287   4.180
44848W        W16519   8.885  15.194   3.385
44849W        W16520  23.728  10.357   3.251
44850W        W16521  35.335   8.482  11.144
44851W        W16522  32.221  43.255   3.872
44852W        W16523  30.752  39.592   1.784
44853W        W16524  40.925  34.947   4.569
44854W        W16525  13.399  37.912   0.227
44855W        W16526  35.976   4.259  10.918
44856W        W16527  38.301  24.992   0.462
44857W        W16528  29.105  21.712  14.320
44858W        W16529  25.482  39.925  12.118
44859W        W16530  10.117  42.227   4.255
44860W        W16531  42.047   1.915   4.619
44861W        W16532  13.814  10.783   0.284
44862W        W16533  27.013  44.074  14.285
44863W        W16534   3.254  14.829  10.690
44864W        W16535  24.644  36.799  14.062
44865W        W16536  10.333  11.446   2.310
44866W        W16537  13.691  24.700  13.628
44867W        W16538  14.727  35.584   3.692
44868W        W16539  29.895  23.884   1.496
44869W        W16540  41.501  28.071  10.841
44870W        W16541  10.869  15.705   0.510
44871W        W16542  39.061  18.778  11.158
44872W        W16543  17.193  29.393  14.470
44873W        W16544  41.827  16.760  10.741
44874W        W16545  43.220   3.344  14.675
44875W        W16546  27.085  29.263  13.823
44876W        W16547  26.998   2.737  13.787
44877W        W16548   5.183  18.185  14.355
44878W        W16549   3.325   9.316   3.093
44879W        W16550  13.149  41.771  11.170
44880W        W16551  35.286   4.701   4.104
44881W        W16552  31.975  27.698   4.574
44882W        W16553  38.398  15.663  13.824
44883W        W16554   0.825  31.602  10.477
44884W        W16555   1.275   6.436   3.848
44885W        W16556  12.208  22.400   4.713
44886W        W16557  15.922   5.345   4.391
44887W        W16558  24.474  29.696   1.721
44888W        W16559  11.347  37.615  12.844
44889W        W16560  39.706   6.228   3.174
44890W        W16561  29.443  27.926  11.247
44891W        W16562  31.916  33.028   0.785
44892W        W16563  33.040  25.915  13.084
44893W        W16564   7.478  44.452  11.700
44894W        W16565  30.069  23.881   2.922
44895W        W16566  24.508  35.909  14.895
44896W        W16567  25.501  38.713   4.584
44897W        W16568   5.697  43.482  10.685
44898W        W16569  29.684  42.758  12.420
44899W        W16570  42.062   1.430   3.216
44900W        W16571  36.838  36.822  14.301
44901W        W16572  10.370  10.863  10.056
44902W        W16573   2.779   2.619   4.061
44903W        W16574  19.527  32.476  12.859
44904W        W16575   7.293  30.500   2.866
44905W        W16576  29.641  12.130   2.602
44906W        W16577   9.605  10.767   4.619
44907W        W16578  29.856  40.868   3.973
44908W        W16579  29.996   0.147  14.725
44909W        W16580  41.296  37.680   3.237
44910W        W16581  22.677  44.463   2.911
44911W        W16582  33.489  23.962  14.669
44912W        W16583  29.214  31.415  12.857
44913W        W16584  37.577  20.645   1.250
44914W        W16585  20.433  43.349  12.348
44915W        W16586   5.184  40.684  13.392
44916W        W16587  40.810   2.345  12.526
44917W        W16588  15.681  12.395   4.062
44918W        W16589  36.864  11.033   1.686
44919W        W16590  37.010   5.406   0.905
44920W        W16591  39.289  42.474  10.690
44921W        W16592  32.718  14.155   3.308
44922W        W16593  23.388   4.659  11.746
44923W        W16594  37.475  40.866  13.431
44924W        W16595  37.592  35.086  12.875
44925W        W16596  26.427  14.776   2.278
44926W        W16597  38.389  19.163  10.681
44927W        W16598  25.198  36.374   3.459
44928W        W16599  18.666  43.690   4.197
44929W        W16600   7.778  37.358   2.920
44930W        W16601  14.287  16.161  12.142
44931W        W16602  42.350  13.813  13.733
44932W        W16603  35.144  23.166  13.000
44933W        W16604  10.522  28.438   4.723
44934W        W16605  24.837  18.396   2.728
44935W        W16606  32.255  18.609   0.003
44936W        W16607   4.745  24.986  11.759
44937W        W16608  12.328  12.213  11.840
44938W        W16609  28.178  43.395   3.046
44939W        W16610  12.323   4.882   4.672
44940W        W16611  26.024   6.671   4.225
44941W        W16612  11.576  13.236  11.041
44942W        W16613   8.970   3.281   1.359
44943W        W16614   8.605   8.119   3.694
44944W        W16615   2.103   6.235  14.169
44945W        W16616  13.587  12.407   0.656
44946W        W16617   5.354  42.318   3.623
44947W        W16618  38.955   8.788   3.861
44948W        W16619  37.847  19.745  14.065
44949W        W16620  40.048  25.417   2.827
44950W        W16621  26.187  19.816  14.895
44951W        W16622  18.139  38.184   3.640
44952W        W16623  44.274   0.957   4.767
44953W        W16624  22.580   3.040  12.991
44954W        W16625  27.867   2.067  13.053
44955W        W16626   7.362  18.724   1.899
44956W        W16627  29.599  17.480   1.130
44957W        W16628  26.951  16.844  13.329
44958W        W16629  42.558  13.307  12.364
44959W        W16630  36.052  19.306   0.898
44960W        W16631  33.606  27.479  11.156
44961W        W16632  20.476  40.153  12.544
44962W        W16633   3.945  42.520   4.097
44963W        W16634  14.742   1.191  10.738
44964W        W16635  20.474   8.831   1.942
44965W        W16636  20.855  43.977   3.923
44966W        W16637  17.838   6.954   2.720
44967W        W16638  41.829  27.243   1.419
44968W        W16639  11.817   2.990  11.655
44969W        W16640  15.015  23.214   0.613
44970W        W16641   8.669  36.413  11.572
44971W        W16642  40.224  19.600   1.757
44972W        W16643   1.382   2.021   0.377
44973W        W16644   4.373  35.781  11.719
44974W        W16645  32.562  33.375   3.841
44975W        W16646  16.592  41.080   0.335
44976W        W16647  41.995  21.142   4.370
44977W        W16648  13.127  35.903  14.054
44978W        W16649  35.799  16.474   3.351
44979W        W16650  15.122  21.728   0.672
44980W        W16651  31.910   5.778   1.886
44981W        W16652  22.669  40.747  11.158
44982W        W16653  18.238  26.960   0.787
44983W        W16654  13.659  16.313  11.179
44984W        W16655   8.827  16.734   3.189
44985W        W16656   7.828  24.558   4.835
44986W        W16657  38.039   3.840   1.486
44987W        W16658   2.438  26.661  14.182
44988W        W16659  13.817  41.339   3.458
44989W        W16660  26.960   1.752   1.436
44990W        W16661  11.128   4.363  11.155
44991W        W16662  10.207  35.442   2.241
44992W        W16663  31.127   0.900   1.315
44993W        W16664  40.815  38.563   2.174
44994W        W16665  13.252  23.479  10.605
44995W        W16666  18.786   2.385   4.565
44996W        W16667  14.225  14.807  12.520
44997W        W16668   6.755  26.727  13.112
44998W        W16669  37.578  25.609   0.843
44999W        W16670  13.408   9.726  13.908
45000W        W16671  30.851  38.349  13.546
45001W        W16672  36.223   4.480   1.371
45002W        W16673  19.639   4.195   0.423
45003W        W16674  39.280  12.646   4.755
45004W        W16675  21.447  20.332  14.005
45005W        W16676  23.574  36.727  12.620
45006W        W16677  15.240  20.735   0.556
45007W        W16678  30.927  27.410   2.554
45008W        W16679   3.765  35.646   2.207
45009W        W16680  29.162  36.005  10.669
45010W        W16681  44.273  28.713   3.264
45011W        W16682  37.862  20.297  13.065
45012W        W16683  23.670   1.520   3.785
45013W        W16684  34.495  22.569   3.036
45014W        W16685  21.855  44.417   1.822
45015W        W16686  28.998   3.249   4.513
45016W        W16687  40.766  33.509  12.475
45017W        W16688   0.457  43.233   4.360
45018W        W16689  10.865  12.820   1.191
45019W        W16690  35.415  23.204  13.805
45020W        W16691  29.133  44.999   1.525
45021W        W16692   4.649  20.132   3.813
45022W        W16693  37.209  41.574  12.971
45023W        W16694  30.421   9.118   3.946
45024W        W16695  35.096  25.749   2.896
45025W        W16696  32.431   4.016   2.169
45026W        W16697  36.700  30.696   2.300
45027W        W16698  36.119  17.674   2.882
45028W        W16699  11.782  13.519   0.944
45029W        W16700  35.757   6.969   4.198
45030W        W16701  20.881   9.814   0.792
45031W        W16702  22.714  44.323   3.769
45032W        W16703  30.600  33.549   4.504
45033W        W16704  13.778  22.326  12.455
45034W        W16705  32.867  22.321   2.845
45035W        W16706  35.987  19.491   1.403
45036W        W16707   4.875  36.242  13.619
45037W        W16708  24.011  41.043   1.876
45038W        W16709  41.203   2.677   3.606
45039W        W16710  20.296  42.373  12.050
45040W        W16711   3.987   3.431  11.578
45041W        W16712   4.355  26.685  12.970
45042W        W16713   6.852  16.280   1.831
45043W        W16714  37.632  12.247  11.161
45044W        W16715  22.733  33.551  12.975
45045W        W16716  14.471  25.918  10.598
45046W        W16717  26.566  41.916  14.958
45047W        W16718   5.623  37.950   4.747
45048W        W16719  40.354  11.068  13.009
45049W        W16720   4.844  20.647   1.105
45050W        W16721  35.667  22.533  12.489
45051W        W16722  28.941  41.279   1.689
45052W        W16723  39.351  30.113   4.527
45053W        W16724  36.413  15.562   4.127
45054W        W16725   3.347   6.533   0.721
45055W        W16726   5.962  43.202  14.038
45056W        W16727   1.759  26.829  13.538
45057W        W16728  12.509   5.156   4.093
45058W        W16729  36.412  25.421  11.995
45059W        W16730  37.413   6.222   0.004
45060W        W16731  30.107   0.740  10.671
45061W        W16732  24.902  20.983   1.429
45062W        W16733  17.860  24.479   1.741
45063W        W16734  29.391  33.518  14.402
45064W        W16735  26.768   7.612  10.200
45065W        W16736  36.465  39.003   1.395
45066W        W16737   2.335  21.522   1.328
45067W        W16738   8.145   3.426   3.154
45068W        W16739   6.542  31.378   0.333
45069W        W16740  38.788   1.231  11.185
45070W        W16741  14.004  29.538   4.340
45071W        W16742   8.118  30.609  10.661
45072W        W16743  39.501  41.519   0.965
45073W        W16744  16.140  35.327  11.228
45074W        W16745  27.597  12.695  14.123
45075W        W16746  38.374  24.503  12.588
45076W        W16747  32.563   2.484  14.952
45077W        W16748  20.499  39.361  13.847
45078W        W16749  41.082   7.414  13.463
45079W        W16750  19.876   2.416  10.806
45080W        W16751  29.461   4.685   3.142
45081W        W16752  17.361  24.184   2.208
45082W        W16753  37.866  41.948   3.958
45083W        W16754  14.512  25.706  11.075
45084W        W16755   7.323  29.068   4.666
45085W        W16756  12.926  13.646  13.349
45086W        W16757   2.471  44.231   1.915
45087W        W16758  25.931  17.198  12.498
45088W        W16759  31.603  40.371   2.478
45089W        W16760  23.518  11.370   2.784
45090W        W16761   8.596  35.441   1.448
45091W        W16762   7.967   2.780  13.390
45092W        W16763  36.190  18.782   1.687
45093W        W16764  20.793  10.212  12.746
45094W        W16765   5.640  11.254   3.750
45095W        W16766  36.510  17.682  12.902
45096W        W16767  12.792  17.519  14.648
45097W        W16768  20.278   8.133  13.335
45098W        W16769  36.253  42.800   1.574
45099W        W16770   2.336  19.144  11.633
45100W        W16771  44.176   0.897   2.871
45101W        W16772  38.708   9.597  10.082
45102W        W16773  17.273  24.344  14.440
45103W        W16774  16.088  32.475  12.056
45104W        W16775  32.155  14.094   4.127
45105W        W16776  21.215   9.133   3.209
45106W        W16777  14.562  42.903  12.556
45107W        W16778  29.249  23.646  12.140
45108W        W16779  18.361  26.569   0.311
45109W        W16780  42.040  16.098  14.963
45110W        W16781   3.982   0.939   1.340
45111W        W16782   8.402  40.433   2.445
45112W        W16783  22.105  32.386   1.825
45113W        W16784   7.110  31.065   0.560
45114W        W16785  35.122  36.981  10.701
45115W        W16786  16.764  26.973  12.566
45116W        W16787  20.299  21.514  11.141
45117W        W16788   5.629   8.025   4.641
45118W        W16789   2.509   0.567   2.770
45119W        W16790   1.238  40.124  12.948
45120W        W16791  31.051  23.558   0.146
45121W        W16792   1.257  22.295   5.442
45122W        W16793   3.822   5.048  14.366
45123W        W16794  16.405  17.295   2.662
45124W        W16795   4.272  42.080  13.497
45125W        W16796   2.281  39.869   0.542
45126W        W16797   1.241  35.343  10.488
45127W        W16798   1.552  28.036  11.218
45128W        W16799   8.374  22.132  11.514
45129W        W16800  18.397  18.990   0.054
45130W        W16801  12.331  18.893  13.365
45131W        W16802  42.198  33.017  11.615
45132W        W16803   2.315   0.679   1.057
45133W        W16804  15.304  42.317   3.338
45134W        W16805   3.392  11.501  12.638
45135W        W16806  20.269   2.161  14.763
45136W        W16807  30.897  38.327  12.000
45137W        W16808  28.523   7.013   5.071
45138W        W16809  37.934  24.549   4.316
45139W        W16810  41.231  39.605  12.473
45140W        W16811  14.814  38.053  13.361
45141W        W16812  17.546  15.107   0.328
45142W        W16813   1.187  14.723   1.882
45143W        W16814   1.868  36.994   3.685
45144W        W16815  40.051  23.159   1.479
45145W        W16816  20.169  17.599  12.087
45146W        W16817   1.333  28.020  12.906
45147W        W16818  25.734  24.011  14.830
45148W        W16819  10.846  35.533  14.766
45149W        W16820   0.924   0.727   2.242
45150W        W16821  39.017  16.974   1.708
45151W        W16822  26.208   8.338   0.925
45152W        W16823  41.148   1.184  11.476
45153W        W16824  35.881   6.395   1.279
45154W        W16825  28.668  14.277  12.423
45155W        W16826   2.822  44.762   3.601
45156W        W16827   7.119  17.031   2.909
45157W        W16828  18.341  28.067  12.476
45158W        W16829  43.980   9.865   3.565
45159W        W16830  18.155   7.157   1.877
45160W        W16831  18.295  30.062   3.799
45161W        W16832  28.206  32.012  11.578
45162W        W16833  38.399  27.366  14.425
45163W        W16834  20.187  37.932  11.373
45164W        W16835  10.131  42.335  12.793
45165W        W16836  40.326  39.226  12.120
45166W        W16837  27.480  37.622   2.745
45167W        W16838   4.172   3.374   0.983
45168W        W16839  41.505  15.866   1.840
45169W        W16840  28.936   6.710   0.931
45170W        W16841  11.847  20.209   3.632
45171W        W16842  28.878  26.133   2.651
45172W        W16843  32.504  36.596  14.822
45173W        W16844  34.353  14.560   2.977
45174W        W16845  39.022  21.197   1.778
45175W        W16846   4.296  34.894   2.212
45176W        W16847   2.455  37.170   0.060
45177W        W16848  42.918  32.092  10.300
45178W        W16849  18.821  17.714  12.665
45179W        W16850  13.643  39.494  10.551
45180W        W16851  44.426   0.777   2.401
45181W        W16852   8.428  17.974  11.303
45182W        W16853  35.386  37.325  11.142
45183W        W16854  21.608  42.560  14.205
45184W        W16855   5.968  35.960  13.895
45185W        W16856  16.561   2.356  13.309
45186W        W16857  27.282  13.632  11.604
45187W        W16858  44.240  41.203   9.822
45188W        W16859   2.043  10.737  11.525
45189W        W16860  22.446  29.477  12.720
45190W        W16861  44.474  31.910   4.637
45191W        W16862  39.935  35.617   0.967
45192W        W16863  35.848  40.419   2.877
45193W        W16864  17.215  41.302  13.805
45194W        W16865  37.110   6.771  10.713
45195W        W16866  36.050  41.644   3.827
45196W        W16867  21.859   8.958   2.635
45197W        W16868  31.164  32.954   3.730
45198W        W16869  35.175   0.518   1.435
45199W        W16870  13.620   9.666   4.807
45200W        W16871  20.663   5.157   1.293
45201W        W16872  25.482  11.761   3.204
45202W        W16873  11.364   8.886  14.893
45203W        W16874   9.531  30.306   3.310
45204W        W16875   8.853  18.591   0.230
45205W        W16876  43.819   9.357  11.911
45206W        W16877  10.686  10.892  12.362
45207W        W16878  19.098  33.518  14.407
45208W        W16879   1.195  29.220  11.204
45209W        W16880   0.490  21.731  10.609
45210W        W16881  43.891  27.206   0.203
45211W        W16882   0.051   5.414  14.755
45212W        W16883  17.608  31.594  12.423
45213W        W16884  39.487  26.232   2.738
45214W        W16885  39.088  16.331   4.695
45215W        W16886  29.463   6.824  10.148
45216W        W16887  15.635  35.952   3.891
45217W        W16888   3.928  24.912   3.194
45218W        W16889  30.090   7.817  11.177
45219W        W16890  44.022  26.918  14.821
45220W        W16891   8.327   2.218   1.802
45221W        W16892   1.535  27.137  10.966
45222W        W16893  41.898   9.275   1.941
45223W        W16894  27.122  35.250   2.216
45224W        W16895   0.284  36.879  13.916
45225W        W16896  33.310   4.511  11.574
45226W        W16897  31.456  39.129  10.253
45227W        W16898  16.294  10.136   2.351
45228W        W16899  22.675  16.697   0.418
45229W        W16900  44.818  26.493  13.889
45230W        W16901  30.168   0.851   1.670
45231W        W16902  25.679   8.671  14.827
45232W        W16903  19.565   6.961   4.578
45233W        W16904  17.589  30.687  13.408
45234W        W16905  34.890  29.948  13.029
45235W        W16906  35.268  34.133  10.649
45236W        W16907  14.320  31.519   0.672
45237W        W16908  44.552  23.500  14.852
45238W        W16909  14.352  40.512   3.660
45239W        W16910  31.216  35.927  13.097
45240W        W16911  20.259   5.972   1.373
45241W        W16912  15.594  27.880   0.998
45242W        W16913   5.867  25.123  12.632
45243W        W16914  16.544   4.802   4.753
45244W        W16915  20.961   7.982   0.992
45245W        W16916   3.367   6.009   4.571
45246W        W16917  41.925  35.482   1.336
45247W        W16918  17.625  30.593   2.013
45248W        W16919  41.123  42.089  12.933
45249W        W16920  25.452  25.996   0.936
45250W        W16921  28.685  40.519   0.223
45251W        W16922   8.545  31.813  12.922
45252W        W16923   0.400  19.814   3.728
45253W        W16924  15.135  15.374  11.022
45254W        W16925   3.461  16.697  11.074
45255W        W16926  40.422  39.028  12.590
45256W        W16927  18.135   7.179   4.531
45257W        W16928   1.197  19.786   5.058
45258W        W16929   1.100  31.508   2.420
45259W        W16930  41.865  20.679  14.271
45260W        W16931  34.155  35.369   2.696
45261W        W16932  18.513   0.974   0.407
45262W        W16933   8.252  43.276  10.674
45263W        W16934  16.959   6.469   5.430
45264W        W16935  20.485  22.617   4.294
45265W        W16936   8.619  28.008   1.700
45266W        W16937  19.634  44.816  12.903
45267W        W16938  43.962  14.330   1.356
45268W        W16939  25.867  43.397  13.878
45269W        W16940  14.195  40.400   1.849
45270W        W16941   5.439   7.771  12.653
45271W        W16942  25.200  18.547  11.568
45272W        W16943  22.889  26.447  10.302
45273W        W16944  29.476  20.784  13.628
45274W        W16945  36.451  29.667   4.661
45275W        W16946  15.781  11.299  13.897
45276W        W16947   1.989  30.037  14.935
45277W        W16948   1.709  11.073   3.789
45278W        W16949  43.768   5.400   4.184
45279W        W16950  43.352   0.986  13.018
45280W        W16951  16.830  42.316   3.668
45281W        W16952  25.631  17.000   1.173
45282W        W16953  25.401  41.869   3.638
45283W        W16954  20.777  13.110   3.797
45284W        W16955  34.864  19.068   0.376
45285W        W16956   6.274  15.239  10.729
45286W        W16957  44.500  19.553  11.069
45287W        W16958  40.606  13.061  11.565
45288W        W16959  14.733  24.509  12.453
45289W        W16960   2.901  31.816  14.448
45290W        W16961   2.397  19.011  10.721
45291W        W16962  40.208   0.995  14.696
45292W        W16963   1.277  42.299   1.265
45293W        W16964  30.314  15.028   2.643
45294W        W16965  12.248  18.602  11.159
45295W        W16966  15.123  36.751   1.887
45296W        W16967   1.415  37.348   2.585
45297W        W16968  10.820   0.739  10.578
45298W        W16969  21.513  35.434  12.333
45299W        W16970  23.986   8.992  12.162
45300W        W16971  41.416  24.265   1.807
45301W        W16972  32.962  31.197  14.558
45302W        W16973  16.171  33.544  11.135
45303W        W16974  38.373  18.293   1.233
45304W        W16975  26.941  33.119   2.463
45305W        W16976   2.439   3.959  11.708
45306W        W16977  20.704  35.309   3.259
45307W        W16978  16.786  25.152  12.931
45308W        W16979  43.053   1.995   3.665
45309W        W16980  17.616  43.422   2.447
45310W        W16981  44.234  10.568  14.793
45311W        W16982   9.330  25.032   5.078
45312W        W16983   7.164  21.109  11.300
45313W        W16984  15.238  23.751  12.448
45314W        W16985  35.316   8.381  14.752
45315W        W16986  22.801  44.770  10.227
45316W        W16987   0.401  42.928   4.790
45317W        W16988  40.915  16.102  11.546
45318W        W16989  34.443  30.661  12.639
45319W        W16990   0.095  16.209   3.054
45320W        W16991  41.606  15.602   3.240
45321W        W16992  23.907  16.205  12.891
45322W        W16993  35.509  37.938  13.926
45323W        W16994   1.004  11.716  14.799
45324W        W16995  24.055  17.487   3.683
45325W        W16996   9.109  15.601  12.905
45326W        W16997  41.522  30.868  14.681
45327W        W16998  18.788  19.964   2.120
45328W        W16999  23.196  30.801  12.843
45329W        W17000   3.068   7.781   4.633
45330W        W17001  15.555  32.957  11.504
45331W        W17002  22.221  27.679  11.282
45332W        W17003  30.158  23.749   0.219
45333W        W17004   2.897   0.248   0.857
45334W        W17005  21.527  42.859   4.361
45335W        W17006  39.074   8.513  13.417
45336W        W17007   3.241  31.562   3.157
45337W        W17008  15.907  20.982   4.034
45338W        W17009  41.423  23.227   1.728
45339W        W17010  27.430  12.808   0.638
45340W        W17011  44.771  44.857   2.279
45341W        W17012  39.023   5.678   3.085
45342W        W17013  20.945  23.057   9.663
45343W        W17014  40.989  24.813   3.213
45344W        W17015  12.071  25.900  12.080
45345W        W17016  19.880  17.349  14.618
45346W        W17017   1.667  24.010  10.541
45347W        W17018  32.630   0.341  13.385
45348W        W17019  22.970  16.259   2.534
45349W        W17020  13.985   6.132   4.820
45350W        W17021  33.794  12.907   3.303
45351W        W17022   7.433  31.670  10.511
45352W        W17023   8.156  34.698   1.614
45353W        W17024  43.727  19.663  11.181
45354W        W17025  26.042   0.701   3.197
45355W        W17026   8.900  24.771  13.348
45356W        W17027  12.707   1.946   3.734
45357W        W17028  20.137  27.605  11.608
45358W        W17029   3.930  19.831   5.528
45359W        W17030  31.436  38.124  12.866
45360W        W17031  14.952  27.054  14.285
45361W        W17032   4.609  22.017   0.433
45362W        W17033  33.431   8.146   3.609
45363W        W17034  38.975  23.531  10.828
45364W        W17035  29.676  31.223   3.319
45365W        W17036  41.232  41.006   5.122
45366W        W17037   4.005  42.362   1.702
45367W        W17038  43.971  15.757   3.667
45368W        W17039   6.255  18.915  13.973
45369W        W17040  25.303   9.020  11.571
45370W        W17041  34.706  15.765  11.611
45371W        W17042   4.822  27.849  11.480
45372W        W17043  39.460  20.155   1.212
45373W        W17044  42.103   1.943  13.214
45374W        W17045   2.207  39.859   4.735
45375W        W17046  34.744   2.778   4.166
45376W        W17047  19.654   5.809   3.084
45377W        W17048   4.717  41.060   3.799
45378W        W17049  33.813  44.505  11.674
45379W        W17050   9.882  27.626  12.162
45380W        W17051  10.453   9.564  13.476
45381W        W17052  10.216   2.223   1.241
45382W        W17053  34.118  41.361  11.558
45383W        W17054  39.134  28.403   4.572
45384W        W17055  42.979   5.993   0.971
45385W        W17056  16.366   2.328  12.836
45386W        W17057  13.032  44.763   1.772
45387W        W17058   7.182  37.021   3.286
45388W        W17059  35.413   6.954  11.114
45389W        W17060  32.647  33.486   0.831
45390W        W17061  12.617  23.405  11.172
45391W        W17062  42.875  29.565  12.295
45392W        W17063  21.504   2.303  13.461
45393W        W17064  30.478   3.245  13.957
45394W        W17065  24.442  42.937   3.251
45395W        W17066   9.199   6.359   1.814
45396W        W17067  13.044  38.952  11.701
45397W        W17068  38.278  33.067   3.336
45398W        W17069   3.533  31.131   0.967
45399W        W17070  37.915  34.968  14.892
45400W        W17071  40.228  16.215  12.047
45401W        W17072  33.014  31.833   1.321
45402W        W17073  40.003  10.929  14.843
45403W        W17074   7.294  36.801  11.520
45404W        W17075  41.430   7.876   3.164
45405W        W17076  39.890  17.512  12.639
45406W        W17077  23.515  16.729  13.905
45407W        W17078  24.117  39.010   4.200
45408W        W17079  29.115  27.116   2.926
45409W        W17080   7.094   6.190  14.605
45410W        W17081  44.187  12.050  11.200
45411W        W17082  26.956  27.670   2.941
45412W        W17083  29.148  27.729   0.837
45413W        W17084  36.502   2.940  11.883
45414W        W17085  18.082  26.997   0.281
45415W        W17086  10.691  41.384   2.309
45416W        W17087  35.914  13.633  13.033
45417W        W17088  29.165  34.375  14.926
45418W        W17089   7.184  13.196  10.637
45419W        W17090   8.778   9.104  13.316
45420W        W17091   3.106  28.553   1.553
45421W        W17092  23.028  40.802  14.762
45422W        W17093   4.858  29.168   0.766
45423W        W17094  19.515  11.293   3.333
45424W        W17095  25.617  34.476   2.635
45425W        W17096   1.622  12.948  12.099
45426W        W17097  13.168  43.335  13.413
45427W        W17098  29.859  18.256  13.987
45428W        W17099  22.673  25.665   5.140
45429W        W17100  17.570  38.437  12.024
45430W        W17101  20.647  34.064  10.431
45431W        W17102   8.711  18.608   2.722
45432W        W17103  18.892  23.072  11.833
45433W        W17104  22.149  36.795  14.363
45434W        W17105  11.802   9.441  12.862
45435W        W17106  16.938  26.233   4.816
45436W        W17107  23.752  21.063   2.221
45437W        W17108   7.389  19.489   2.821
45438W        W17109  21.722  24.663  14.443
45439W        W17110   8.619   7.724   4.146
45440W        W17111  13.150  43.779   0.103
45441W        W17112  14.632  24.850  12.840
45442W        W17113  19.028  29.697   2.756
45443W        W17114   7.741  28.029   2.026
45444W        W17115  15.558  17.120   0.374
45445W        W17116   7.182  16.886   2.040
45446W        W17117  23.186  14.746  12.977
45447W        W17118  14.094  34.327   0.433
45448W        W17119  16.615   3.421  14.171
45449W        W17120  36.972   3.411   1.725
45450W        W17121  14.093  30.512   0.603
45451W        W17122   2.505  29.898   3.149
45452W        W17123  21.298  34.389  13.938
45453W        W17124  10.912   1.472  11.146
45454W        W17125  39.764  11.671   1.842
45455W        W17126  34.624   1.318   3.808
45456W        W17127  31.474  33.609   3.605
45457W        W17128   2.335   2.523   4.575
45458W        W17129  35.008   4.162  13.646
45459W        W17130   8.934  10.898  13.052
45460W        W17131  29.831  31.669  10.175
45461W        W17132  37.271  22.008   3.701
45462W        W17133   5.174  18.225   0.472
45463W        W17134  42.973  21.832   0.086
45464W        W17135  20.472   3.564   0.345
45465W        W17136  36.525  28.468   2.376
45466W        W17137  14.838   8.663  11.934
45467W        W17138  34.929  29.680   3.970
45468W        W17139  18.103  12.457   0.362
45469W        W17140  39.541  36.451   3.245
45470W        W17141  42.160  30.630  11.118
45471W        W17142  36.557  22.456  11.436
45472W        W17143  24.059  31.040  13.528
45473W        W17144  39.262  14.377   4.232
45474W        W17145  14.166  17.401   0.185
45475W        W17146  35.910  16.286  13.139
45476W        W17147  12.277  35.992  13.590
45477W        W17148  40.585  17.274   2.764
45478W        W17149  14.201  14.214  14.175
45479W        W17150  29.542  16.818   2.091
45480W        W17151  15.815   3.723  10.111
45481W        W17152  12.306  24.185   0.312
45482W        W17153  36.447  41.239   2.284
45483W        W17154  10.562  15.573  11.613
45484W        W17155  13.645   7.401   1.007
45485W        W17156   5.690  16.602  11.715
45486W        W17157  37.754  18.713   1.777
45487W        W17158  43.422  12.649  13.527
45488W        W17159  31.458   0.817  13.923
45489W        W17160  37.581   2.919  14.197
45490W        W17161  11.272  13.789   3.257
45491W        W17162  13.322   7.856  13.919
45492W        W17163   4.488  32.893  10.704
45493W        W17164   8.280   7.670  13.358
45494W        W17165  28.560  26.993  10.694
45495W        W17166  17.711   0.429  11.680
45496W        W17167  11.273   6.135   3.358
45497W        W17168   2.960  34.633   0.797
45498W        W17169  24.444  13.746   4.252
45499W        W17170  26.605  11.852   0.317
45500W        W17171   3.372  44.927  12.846
45501W        W17172   0.458  12.346  12.089
45502W        W17173  33.913  10.783  13.877
45503W        W17174  27.278  12.809  12.890
45504W        W17175  36.437   8.277   4.554
45505W        W17176  24.024  24.637   0.123
45506W        W17177  29.555  27.988   1.907
45507W        W17178  29.957   8.208  14.018
45508W        W17179  12.415  17.040   3.891
45509W        W17180  17.088  27.540  14.994
45510W        W17181   0.994  22.721   3.837
45511W        W17182   1.061  19.274  12.899
45512W        W17183   7.942  10.683  11.116
45513W        W17184   7.464  31.036  13.704
45514W        W17185  16.958  17.308   3.603
45515W        W17186  23.563  17.816   3.585
45516W        W17187  36.687  38.591   3.227
45517W        W17188  27.171  23.226  11.094
45518W        W17189  16.817  24.110   2.288
45519W        W17190  41.826   9.682  11.923
45520W        W17191  36.718  24.732  13.959
45521W        W17192  30.034  13.348  12.071
45522W        W17193  10.665  23.977   4.574
45523W        W17194  12.025  32.786   3.131
45524W        W17195   7.908  12.683  10.617
45525W        W17196  28.151  15.614  12.987
45526W        W17197  36.622   0.047   3.750
45527W        W17198  13.350  41.004  14.908
45528W        W17199  22.712  20.553   0.846
45529W        W17200  29.429   8.245  13.934
45530W        W17201  11.964  37.348  10.370
45531W        W17202  43.683  15.206   0.453
45532W        W17203   8.904  44.966  12.992
45533W        W17204   4.832  35.495  10.773
45534W        W17205  44.945   3.361  11.390
45535W        W17206  42.405  19.465  13.128
45536W        W17207  11.912   2.377   0.042
45537W        W17208  21.923  25.236   2.371
45538W        W17209  21.076  20.661   4.857
45539W        W17210   2.785  19.818  14.430
45540W        W17211  28.034  33.352  12.782
45541W        W17212  21.812  36.050  14.266
45542W        W17213   8.226  26.023   0.307
45543W        W17214  21.207  18.212  14.809
45544W        W17215   2.720  16.640  14.778
45545W        W17216  29.764  40.510   4.584
45546W        W17217  14.391   5.294   0.920
45547W        W17218  31.847  11.745   4.027
45548W        W17219  27.990  27.774   3.803
45549W        W17220  42.570  17.514  10.723
45550W        W17221  26.174   7.210   1.401
45551W        W17222  10.339  25.028  12.113
45552W        W17223  13.226  25.563  10.570
45553W        W17224  19.731  43.456  12.053
45554W        W17225  34.428  24.743   2.715
45555W        W17226  36.112  18.971   3.265
45556W        W17227  13.191  35.737   1.864
45557W        W17228  25.616   6.604  12.993
45558W        W17229   0.436  28.338   4.044
45559W        W17230  30.147  11.773   0.663
45560W        W17231  26.212  21.508   1.277
45561W        W17232  32.522  31.225   1.666
45562W        W17233  21.105  29.102   2.356
45563W        W17234  20.174  38.427  13.313
45564W        W17235  32.902  34.441  13.304
45565W        W17236  16.309   3.035  14.367
45566W        W17237  41.563   7.393  13.242
45567W        W17238   8.261  28.530   4.351
45568W        W17239  12.783  30.362  11.126
45569W        W17240  15.160  11.737  10.917
45570W        W17241  12.923  19.583  11.023
45571W        W17242  14.111  30.898   2.354
45572W        W17243   8.343  16.666  14.296
45573W        W17244  42.228   6.688  10.789
45574W        W17245   1.497  18.339   2.987
45575W        W17246  34.229  24.024   3.705
45576W        W17247  20.798  20.680  12.152
45577W        W17248   3.425  26.930   1.367
45578W        W17249   1.864  42.993  12.506
45579W        W17250   7.644  34.826  13.574
45580W        W17251  16.044  13.557   0.631
45581W        W17252  30.086   5.190  12.587
45582W        W17253  17.047  32.363   0.341
45583W        W17254  33.407  20.831  12.144
45584W        W17255  20.663  32.805   0.817
45585W        W17256  41.811   9.165  12.048
45586W        W17257  30.616   5.323   3.786
45587W        W17258   5.988  25.535   1.243
45588W        W17259  41.406  20.735  14.060
45589W        W17260  21.192  22.040  11.880
45590W        W17261  39.305  10.871   1.855
45591W        W17262  10.722  35.400  11.460
45592W        W17263  32.064  39.392   2.189
45593W        W17264  19.110  41.032  11.217
45594W        W17265  19.000  18.621   3.249
45595W        W17266  36.143  32.615   2.858
45596W        W17267  36.185  25.189   4.775
45597W        W17268  37.815  28.714   2.774
45598W        W17269  30.518  13.723   0.862
45599W        W17270  21.232  16.180   1.234
45600W        W17271   2.066  10.763  12.410
45601W        W17272  32.489   1.366   4.819
45602W        W17273  37.554  15.517  13.048
45603W        W17274   9.267  14.814   1.797
45604W        W17275  14.568  32.137  13.956
45605W        W17276  18.140  34.926  14.721
45606W        W17277  40.804  33.704   1.765
45607W        W17278  11.846  29.640  13.016
45608W        W17279  28.323  27.604  12.670
45609W        W17280  20.064  44.726  10.614
45610W        W17281   2.490  11.704  12.462
45611W        W17282  13.565  21.522  12.069
45612W        W17283   0.141  19.068   2.600
45613W        W17284  33.967  10.195   2.342
45614W        W17285  27.234  26.830   3.904
45615W        W17286  15.246  44.516  14.024
45616W        W17287  30.909   0.713  14.742
45617W        W17288  31.977  13.622  13.051
45618W        W17289   4.955  37.578  12.997
45619W        W17290   2.052  15.569   0.317
45620W        W17291  11.911  13.623   4.049
45621W        W17292  20.977  18.593  10.842
45622W        W17293  40.075   3.122   0.404
45623W        W17294  25.335  44.785  12.002
45624W        W17295  39.360  20.593   4.370
45625W        W17296  30.465  28.556   0.213
45626W        W17297  11.756  41.696   0.326
45627W        W17298  27.361   6.365   2.724
45628W        W17299  18.714  14.306   1.397
45629W        W17300  30.381   7.934  14.858
45630W        W17301   9.782  14.834  10.515
45631W        W17302  44.852  37.536   3.792
45632W        W17303  24.542  25.132  13.859
45633W        W17304  27.765  35.614  12.018
45634W        W17305  28.317  17.033   1.036
45635W        W17306   5.952  28.592   0.316
45636W        W17307  16.539  29.965  12.168
45637W        W17308  19.257  26.173  13.836
45638W        W17309  18.855  12.183  10.636
45639W        W17310  35.220  43.157  12.573
45640W        W17311  42.475   9.826   1.453
45641W        W17312   8.933   7.199  10.812
45642W        W17313  10.435   0.109  11.610
45643W        W17314  15.640  19.654   0.870
45644W        W17315  37.542   0.945   3.587
45645W        W17316  13.170  42.574  11.593
45646W        W17317  28.530   0.393   4.688
45647W        W17318  17.338  38.767   2.816
45648W        W17319  42.931   9.861  13.500
45649W        W17320  19.436  13.135   2.605
45650W        W17321  22.970  33.639   0.997
45651W        W17322  23.145  24.937  10.775
45652W        W17323  29.155  37.030   4.154
45653W        W17324   6.965  24.490   0.719
45654W        W17325  19.091  19.545  13.637
45655W        W17326  10.912  21.997   1.726
45656W        W17327   4.871  43.380  12.931
45657W        W17328   5.695  30.652   3.660
45658W        W17329  36.918  24.026  13.233
45659W        W17330   3.270  27.212   5.139
45660W        W17331   3.422  25.326   2.381
45661W        W17332  33.827  19.284  10.752
45662W        W17333  20.659   4.196   2.647
45663W        W17334  11.378  28.568  12.041
45664W        W17335  15.678  25.529   2.936
45665W        W17336  10.979  15.737   2.844
45666W        W17337  39.082   7.469  11.026
45667W        W17338  12.606  43.516  14.346
45668W        W17339  16.836  21.047  11.941
45669W        W17340   8.214  17.044  10.604
45670W        W17341  42.246  28.171   4.626
45671W        W17342  20.181  40.573  14.900
45672W        W17343  22.053   0.694  12.847
45673W        W17344  19.190   3.732   0.868
45674W        W17345  43.255  24.641  14.836
45675W        W17346  40.493  27.468  13.673
45676W        W17347  22.770  32.711   3.960
45677W        W17348  18.651   3.344   4.914
45678W        W17349  29.905  28.948   1.866
45679W        W17350  34.332  29.703   2.276
45680W        W17351  24.025  31.888   9.997
45681W        W17352   4.459   4.271   4.153
45682W        W17353  30.624  16.030  12.326
45683W        W17354  37.033  13.357   4.089
45684W        W17355  27.658   7.313   0.160
45685W        W17356   2.201  11.339  12.903
45686W        W17357  13.828  22.620  10.693
45687W        W17358  41.605  19.018   3.184
45688W        W17359  40.715  24.407   4.955
45689W        W17360   4.252  32.184  14.306
45690W        W17361  44.423  13.050  11.126
45691W        W17362  26.224  33.197   3.110
45692W        W17363   8.165  13.158  10.582
45693W        W17364  44.289  10.636  11.871
45694W        W17365  24.122  26.120   0.724
45695W        W17366  18.663  41.793  12.601
45696W        W17367  25.180  40.168   2.483
45697W        W17368   6.017  25.139  10.738
45698W        W17369  29.471  30.979   0.238
45699W        W17370  17.245  43.508  10.960
45700W        W17371  11.122  37.115  14.917
45701W        W17372  22.431   6.376  11.486
45702W        W17373  18.148   4.855   2.076
45703W        W17374  42.249  12.937  13.823
45704W        W17375  36.927  29.380  12.538
45705W        W17376  23.194   3.056   1.929
45706W        W17377  32.353  11.154  10.742
45707W        W17378  15.052  22.173  10.610
45708W        W17379  30.946  20.614   3.695
45709W        W17380  23.158  18.256   4.309
45710W        W17381  42.223  32.306   1.780
45711W        W17382  33.762  10.669   2.311
45712W        W17383   7.847  43.747   2.724
45713W        W17384  32.941  44.728   1.158
45714W        W17385  12.541  39.550  10.786
45715W        W17386  19.638  29.050   1.375
45716W        W17387  40.878  30.168   0.838
45717W        W17388   7.245   1.364   2.266
45718W        W17389   2.525  17.287  13.810
45719W        W17390   5.732   7.911  12.066
45720W        W17391  40.831  33.876  10.783
45721W        W17392  25.710   1.508   2.196
45722W        W17393  33.564  12.970  11.397
45723W        W17394   6.314  20.492   4.675
45724W        W17395  27.040  33.455  13.497
45725W        W17396  40.267  25.664   0.552
45726W        W17397  43.875  35.517  14.021
45727W        W17398   2.907  38.540   4.445
45728W        W17399  17.260  21.861   4.300
45729W        W17400  24.040  35.636   3.546
45730W        W17401  31.877   6.007   3.244
45731W        W17402   0.426  22.098   4.212
45732W        W17403  40.784   9.667  13.025
45733W        W17404   2.315  16.703   2.886
45734W        W17405  38.025  37.474  10.150
45735W        W17406  18.690  27.510  11.440
45736W        W17407  18.321   2.341   4.802
45737W        W17408   2.251  40.200   4.323
45738W        W17409  29.732   3.265   3.356
45739W        W17410   8.365   3.819  12.083
45740W        W17411  31.075  24.254  13.940
45741W        W17412  35.479   2.384   4.807
45742W        W17413  23.501  44.119   2.405
45743W        W17414   9.931   3.448   2.772
45744W        W17415  36.648  27.041   3.847
45745W        W17416  25.457  42.800  12.093
45746W        W17417  21.714  17.275   3.154
45747W        W17418   6.454  29.225   3.069
45748W        W17419  28.434   5.513   1.696
45749W        W17420  18.252  44.990  10.493
45750W        W17421  18.035  22.756   1.921
45751W        W17422  21.716   7.357  14.057
45752W        W17423  38.496  39.337   4.418
45753W        W17424   2.663  40.770   2.821
45754W        W17425  44.872   3.529   3.262
45755W        W17426  35.157  17.272   0.516
45756W        W17427  30.099  20.183  11.700
45757W        W17428  12.125  25.704  11.299
45758W        W17429   5.345  19.540   4.878
45759W        W17430   6.247  36.385   3.775
45760W        W17431  34.229  40.429  11.567
45761W        W17432   8.760  34.437   4.924
45762W        W17433   0.606  20.481  14.752
45763W        W17434   3.021  44.473  12.909
45764W        W17435   4.236  34.891  11.111
45765W        W17436  31.446   9.796   1.889
45766W        W17437  27.506   6.960  12.350
45767W        W17438  15.254  44.166  11.120
45768W        W17439  26.846  26.898   0.944
45769W        W17440  39.905  16.669   3.876
45770W        W17441   3.261  21.749  12.577
45771W        W17442  33.062  33.940   2.149
45772W        W17443  31.502  31.883  14.785
45773W        W17444  38.490  16.863   0.471
45774W        W17445  14.753  18.091  10.267
45775W        W17446  10.320  40.036  14.818
45776W        W17447  30.204  23.360   2.816
45777W        W17448  14.252  16.166  13.144
45778W        W17449  43.462  25.420  13.866
45779W        W17450  28.202   6.453  12.899
45780W        W17451  30.534  13.721   4.459
45781W        W17452  37.618  27.541   1.833
45782W        W17453  44.309  24.713  12.063
45783W        W17454  34.618  17.172  12.784
45784W        W17455  13.970  33.358  14.403
45785W        W17456  33.639  18.839   4.255
45786W        W17457  14.712   9.367  13.994
45787W        W17458  32.862  39.887  12.592
45788W        W17459  33.340  21.733  12.132
45789W        W17460  40.587  12.294  14.480
45790W        W17461   2.027  43.344  11.637
45791W        W17462   8.453   5.208  13.515
45792W        W17463  31.021  29.671  14.943
45793W        W17464   8.438  15.728  11.218
45794W        W17465  20.608  29.032   1.288
45795W        W17466  28.465  19.955   4.323
45796W        W17467   1.447  43.278   1.872
45797W        W17468  24.007  43.954   2.359
45798W        W17469  44.230  42.497   3.383
45799W        W17470  13.153  13.083   1.349
45800W        W17471  28.844   2.211  14.583
45801W        W17472  30.663  39.373   4.245
45802W        W17473   3.944  16.826   4.619
45803W        W17474  11.324  28.668  14.921
45804W        W17475  27.003  14.025   5.225
45805W        W17476  30.598  29.563   3.193
45806W        W17477  14.390  40.854   4.671
45807W        W17478  39.271  13.886  13.020
45808W        W17479  35.002  11.345  13.229
45809W        W17480   0.902   5.441  13.062
45810W        W17481  35.581  38.044  11.153
45811W        W17482  11.131  36.989   0.843
45812W        W17483  24.778  29.948  11.182
45813W        W17484   4.220   5.961  12.545
45814W        W17485  15.601  10.609  11.759
45815W        W17486  43.523  43.147  14.902
45816W        W17487  39.316   5.965   0.318
45817W        W17488  44.545   7.215  14.977
45818W        W17489   1.091  17.614  11.688
45819W        W17490  33.645  18.800  13.879
45820W        W17491  31.385   6.805  14.904
45821W        W17492  34.674   8.820  11.462
45822W        W17493   6.753  19.075  10.752
45823W        W17494  44.546  27.008  13.868
45824W        W17495  15.700   0.635  13.417
45825W        W17496  41.220   7.109  11.024
45826W        W17497   2.462  12.537  11.995
45827W        W17498  12.717  41.932   4.732
45828W        W17499  34.954  31.444  11.668
45829W        W17500   4.723  19.083   4.602
45830W        W17501   2.361  12.164   4.149
45831W        W17502   2.711  12.273   4.554
45832W        W17503   5.398  25.869   4.455
45833W        W17504  43.945  19.561   5.054
45834W        W17505  18.239   9.263  13.372
45835W        W17506   1.792  31.081  14.298
45836W        W17507   6.331  36.403   2.853
45837W        W17508  27.490  36.830   3.198
45838W        W17509  43.907  21.050  11.986
45839W        W17510  16.008  27.576   0.775
45840W        W17511  10.664  34.822  13.981
45841W        W17512   8.864  36.017  13.795
45842W        W17513  21.693  17.489  14.908
45843W        W17514   0.876   0.415   4.585
45844W        W17515   0.293  10.401   4.993
45845W        W17516  33.143   8.666  11.665
45846W        W17517  18.208   5.980   3.607
45847W        W17518  14.496   0.040  13.541
45848W        W17519   2.361  33.905  13.678
45849W        W17520  17.802  24.873   3.010
45850W        W17521  11.101   9.476   3.102
45851W        W17522   9.805  17.308  14.823
45852W        W17523   9.216  38.336   0.296
45853W        W17524  14.631  14.584   1.237
45854W        W17525  20.663  33.987  11.989
45855W        W17526  38.301  35.610  11.458
45856W        W17527  19.306  24.786  13.824
45857W        W17528  34.664  35.106   1.284
45858W        W17529  18.090  37.500  12.856
45859W        W17530  40.923  15.603  10.720
45860W        W17531   0.761  27.660   3.834
45861W        W17532  31.752   1.632  11.778
45862W        W17533  41.987  15.163  11.554
45863W        W17534  23.491  39.390  13.074
45864W        W17535   8.774  41.162  12.460
45865W        W17536  11.322   0.273   1.096
45866W        W17537  28.463  11.419  14.884
45867W        W17538  18.344  22.225  10.705
45868W        W17539   6.179   0.342  13.037
45869W        W17540  14.980  27.026  11.135
45870W        W17541  15.342  11.821  14.563
45871W        W17542  29.476  15.068   0.802
45872W        W17543   7.190  23.186   1.032
45873W        W17544  12.457  17.557  13.387
45874W        W17545  16.153   6.874   2.947
45875W        W17546  12.616   7.818  13.301
45876W        W17547  29.979  18.920   0.997
45877W        W17548   5.616  34.126   4.387
45878W        W17549  20.098   1.376  11.874
45879W        W17550  31.404  19.872  11.111
45880W        W17551   5.880  29.881   1.396
45881W        W17552   3.194  20.330  14.814
45882W        W17553  37.589  28.444  13.475
45883W        W17554   8.320  12.642  13.524
45884W        W17555  33.971  10.705   0.955
45885W        W17556  37.827  43.142   1.216
45886W        W17557  32.391  26.682  11.045
45887W        W17558  16.058  22.050  12.157
45888W        W17559   9.624  36.787   2.164
45889W        W17560  14.730  30.947   2.866
45890W        W17561   1.435  19.100   2.266
45891W        W17562   0.825  27.794  13.551
45892W        W17563  27.524  14.862  13.317
45893W        W17564  24.619  32.123  14.862
45894W        W17565  19.983   1.694  12.326
45895W        W17566  11.365  28.771   1.738
45896W        W17567  19.905  39.866   1.912
45897W        W17568  28.075  14.001   0.317
45898W        W17569  22.070  17.329   2.089
45899W        W17570  29.627  22.412  13.565
45900W        W17571  43.498  33.126   3.403
45901W        W17572  34.457  33.401   1.370
45902W        W17573  23.791  35.582   2.831
45903W        W17574  24.366   7.977   3.770
45904W        W17575   2.654  42.562  11.498
45905W        W17576  24.228  12.763  10.786
45906W        W17577  24.246  44.013  14.380
45907W        W17578   4.931  43.053  14.462
45908W        W17579  30.915  22.237  12.953
45909W        W17580  34.869  25.552   1.934
45910W        W17581   2.498  32.129  14.317
45911W        W17582  22.136  43.240   2.886
45912W        W17583   3.348  21.773  11.544
45913W        W17584  15.602   6.892   2.836
45914W        W17585  17.223  31.344   1.313
45915W        W17586   7.882   5.838   0.628
45916W        W17587   1.948  33.868   1.455
45917W        W17588  43.075  13.768   1.343
45918W        W17589  22.161  38.500   2.147
45919W        W17590  39.063   7.510  13.427
45920W        W17591  30.069  19.396  10.793
45921W        W17592  13.722  39.050   4.398
45922W        W17593  35.146   0.322  12.466
45923W        W17594  21.838  22.173   1.752
45924W        W17595  27.692   8.977   5.093
45925W        W17596  44.395  33.304   4.640
45926W        W17597  27.995  14.194  13.076
45927W        W17598   1.447  19.875  11.223
45928W        W17599  21.506   4.291  14.502
45929W        W17600  38.520  34.592   0.408
45930W        W17601   0.374  13.211   3.894
45931W        W17602  17.749  39.475   2.603
45932W        W17603   7.191  32.192  12.891
45933W        W17604  21.773  42.496  12.867
45934W        W17605   5.695  38.509  12.235
45935W        W17606  26.616  17.034  10.938
45936W        W17607  15.760  22.583   1.944
45937W        W17608  35.396  28.969   0.898
45938W        W17609  32.451  29.956   3.227
45939W        W17610  42.482   7.377   4.580
45940W        W17611   5.936  13.604  10.513
45941W        W17612   6.993  23.571  13.714
45942W        W17613  19.475  44.388   0.060
45943W        W17614  19.929   4.049  13.342
45944W        W17615  18.610  44.687  14.889
45945W        W17616  16.314  33.510  13.060
45946W        W17617  21.377   8.203  13.524
45947W        W17618  38.394  30.244  13.416
45948W        W17619   7.280   4.729  11.651
45949W        W17620  16.264  14.539  11.294
45950W        W17621  16.117  25.495   2.070
45951W        W17622  14.003   4.437   1.685
45952W        W17623  36.878  16.833  12.039
45953W        W17624  31.420   0.928  11.439
45954W        W17625  27.715  33.000   3.854
45955W        W17626   7.192   4.706   0.299
45956W        W17627  44.370  15.035   3.289
45957W        W17628  35.007   1.157   2.294
45958W        W17629  32.172   5.084   0.864
45959W        W17630  26.538  11.198   2.592
45960W        W17631   2.943  29.631   4.098
45961W        W17632  22.960  32.463  12.441
45962W        W17633   3.325  33.116  11.999
45963W        W17634   7.908  10.729   1.054
45964W        W17635  41.048   1.392  14.964
45965W        W17636  11.286  42.391   3.987
45966W        W17637   2.464  27.546  11.972
45967W        W17638   7.213  30.484   3.710
45968W        W17639  19.823  25.957   2.889
45969W        W17640  38.727  35.563  11.734
45970W        W17641  44.921  36.367  12.882
45971W        W17642  18.376  20.222  13.530
45972W        W17643  20.654  24.428   1.749
45973W        W17644  36.454  24.523  10.725
45974W        W17645  37.894  18.020   2.186
45975W        W17646   6.904  22.627   2.932
45976W        W17647   4.359  43.090  13.194
45977W        W17648  26.134  21.825   2.113
45978W        W17649  32.351  39.087  10.703
45979W        W17650  27.735  29.225   3.415
45980W        W17651  31.224   8.012  11.285
45981W        W17652  34.418  18.235  11.928
45982W        W17653  36.542  20.897  13.899
45983W        W17654  33.658   0.463   2.758
45984W        W17655   3.134  35.845   3.380
45985W        W17656  23.586   8.764  14.978
45986W        W17657  41.984   4.374   1.063
45987W        W17658  17.088  21.259   0.163
45988W        W17659  15.266  39.791   3.288
45989W        W17660  20.970  20.763  13.050
45990W        W17661  40.384   4.828   2.667
45991W        W17662  15.228   8.804  13.447
45992W        W17663   9.720  28.696   2.144
45993W        W17664   4.496  14.602   3.385
45994W        W17665  28.159   6.313   3.829
45995W        W17666  37.814  30.182   2.343
45996W        W17667   0.851   4.042   0.757
45997W        W17668  38.925  24.644   4.492
45998W        W17669  39.446  37.110   3.198
45999W        W17670   4.084  40.048   3.055
46000W        W17671  34.116  20.137   2.390
46001W        W17672   7.366   7.401  13.398
46002W        W17673  24.586  43.210  14.690
46003W        W17674  44.238   6.781   2.920
46004W        W17675  29.445  28.170  13.984
46005W        W17676  19.853   3.383  14.057
46006W        W17677   1.520  14.289  11.965
46007W        W17678   7.675   8.376   3.671
46008W        W17679  19.548  39.359   4.589
46009W        W17680   0.820  17.241   0.663
46010W        W17681   5.947  15.879  12.165
46011W        W17682  22.031  27.988  11.940
46012W        W17683  34.714   4.826  14.305
46013W        W17684   7.430   5.958  12.046
46014W        W17685   2.439  30.638   3.623
46015W        W17686  16.372  24.541   1.010
46016W        W17687  22.721  36.495  11.264
46017W        W17688  38.358   3.298  10.489
46018W        W17689  19.294  29.731   4.240
46019W        W17690  38.535   4.357  11.990
46020W        W17691   2.461  20.224   2.173
46021W        W17692  14.467  30.895  13.358
46022W        W17693  42.503  31.624   4.268
46023W        W17694  39.952  41.943  12.481
46024W        W17695  37.440  18.383   5.031
46025W        W17696  13.822  27.011  13.370
46026W        W17697  43.905  41.605   3.694
46027W        W17698  43.441   1.566  14.338
46028W        W17699  44.959  13.560  10.609
46029W        W17700  34.865  15.416  11.170
46030W        W17701  10.249  14.062   3.702
46031W        W17702  42.298  37.111   3.644
46032W        W17703  28.249   0.748  10.323
46033W        W17704   6.304   1.504   2.324
46034W        W17705  19.016  36.793  13.922
46035W        W17706   6.146  27.968   1.245
46036W        W17707   5.946   5.933   4.524
46037W        W17708  24.797  43.012   3.889
46038W        W17709  20.668   8.659  12.484
46039W        W17710  20.150  29.920  13.405
46040W        W17711   8.949  25.223   2.762
46041W        W17712  19.514  15.093   4.093
46042W        W17713  32.563  13.886  14.659
46043W        W17714  34.732   0.909  11.965
46044W        W17715   9.775  34.592  13.726
46045W        W17716  34.066  43.913  12.604
46046W        W17717   3.207  43.176   2.638
46047W        W17718  13.906  44.424  14.299
46048W        W17719  36.707  17.329   1.436
46049W        W17720   2.838  25.360   1.262
46050W        W17721   7.136   8.963  11.977
46051W        W17722   7.675   4.464   0.007
46052W        W17723  30.482  26.241   1.798
46053W        W17724   2.853  21.142  12.899
46054W        W17725  19.629  24.139   1.062
46055W        W17726  26.997  36.545   4.093
46056W        W17727  12.312  43.563  14.789
46057W        W17728  25.757  25.970  14.937
46058W        W17729  32.486  44.406  13.723
46059W        W17730  11.671  12.179   2.578
46060W        W17731  26.275  16.547  11.623
46061W        W17732  15.061  18.178   1.391
46062W        W17733  44.418  25.001  13.817
46063W        W17734  37.971  43.001  10.289
46064W        W17735  26.505  15.492   0.843
46065W        W17736  33.148  15.674  12.834
46066W        W17737  39.366   4.741  14.424
46067W        W17738  20.182  41.930  14.689
46068W        W17739  22.974  25.165   0.057
46069W        W17740  17.420   8.437   4.718
46070W        W17741  22.584  24.642  13.331
46071W        W17742  26.610  26.298  13.461
46072W        W17743   2.377  29.895  11.609
46073W        W17744  26.960  44.860   1.634
46074W        W17745  42.382   3.744  12.538
46075W        W17746  14.825  10.548   1.463
46076W        W17747  15.310  22.138   0.324
46077W        W17748  16.123  22.727  13.028
46078W        W17749  40.054  19.439  10.727
46079W        W17750  36.656  34.067   0.484
46080W        W17751  40.368  36.825  12.960
46081W        W17752   6.611  15.781   1.318
46082W        W17753   5.747   7.637  11.625
46083W        W17754  11.944  28.168   1.172
46084W        W17755   7.434  30.627   2.364
46085W        W17756  39.052  41.975  10.610
46086W        W17757   4.262  38.589   4.513
46087W        W17758  16.981  22.550   9.941
46088W        W17759  33.484   3.181  13.474
46089W        W17760  32.913  19.508  14.840
46090W        W17761   7.445  41.420   0.870
46091W        W17762  19.678   7.427   2.509
46092W        W17763  14.930  14.721  13.169
46093W        W17764  28.240  11.927  12.613
46094W        W17765  41.127  34.218  11.935
46095W        W17766  28.677  27.962   0.778
46096W        W17767  26.532  17.902   1.871
46097W        W17768  11.198  22.175  12.850
46098W        W17769  17.786  37.526   0.511
46099W        W17770  21.106  28.173  11.077
46100W        W17771  33.612  29.592   1.785
46101W        W17772  18.993  16.755  12.019
46102W        W17773  23.004  40.466   2.445
46103W        W17774   5.383  41.895  14.420
46104W        W17775  38.017  19.514  12.188
46105W        W17776  14.134  43.440  12.877
46106W        W17777  22.971  16.765  15.000
46107W        W17778  32.726  20.446  12.424
46108W        W17779  10.971   7.901  10.566
46109W        W17780  10.651  33.005   0.924
46110W        W17781  13.574  12.125   2.683
46111W        W17782   3.903  10.322  13.402
46112W        W17783  37.603  15.034   3.428
46113W        W17784   6.337  14.133   1.691
46114W        W17785  15.772  21.442  11.064
46115W        W17786   2.100   5.784  13.863
46116W        W17787  41.383  34.439  14.928
46117W        W17788  31.220  31.951   0.257
46118W        W17789  16.044   8.819   0.658
46119W        W17790  27.870  43.872  14.662
46120W        W17791  17.300  21.007  14.009
46121W        W17792  25.287  13.692   1.444
46122W        W17793  32.355  10.505  11.512
46123W        W17794   9.072  30.094  13.069
46124W        W17795  27.155   0.333  12.518
46125W        W17796  44.088  12.675  10.227
46126W        W17797  11.306  34.399  13.370
46127W        W17798  20.711  43.867   0.060
46128W        W17799  31.099   2.285   1.974
46129W        W17800   1.746   9.705   2.691
46130W        W17801   4.248  43.152   1.228
46131W        W17802  13.300  38.805   3.597
46132W        W17803  25.196  21.678  12.576
46133W        W17804  19.145   3.922  14.259
46134W        W17805  19.798  25.586  11.041
46135W        W17806  23.905   1.824   0.452
46136W        W17807  18.204  17.248  12.069
46137W        W17808  17.279  14.426  12.011
46138W        W17809  38.849   1.050   0.053
46139W        W17810  34.188  34.929  13.266
46140W        W17811  34.413  37.615   0.899
46141W        W17812  18.619  10.456   1.301
46142W        W17813  43.190  19.645  14.413
46143W        W17814  26.569  38.759  12.961
46144W        W17815  42.953   2.940   3.874
46145W        W17816  31.662  27.692  10.928
46146W        W17817   7.707  27.062   2.236
46147W        W17818   7.095  24.011  12.088
46148W        W17819  15.736  28.403  11.757
46149W        W17820  25.645  15.824  12.985
46150W        W17821   4.227   4.277  14.489
46151W        W17822  29.868   9.130  10.444
46152W        W17823  42.106   5.200   0.610
46153W        W17824  22.785  13.077  14.799
46154W        W17825  26.361   4.895   4.466
46155W        W17826  44.955   2.970   4.170
46156W        W17827   6.107  39.072   0.372
46157W        W17828   0.256   9.230   3.975
46158W        W17829  44.272  33.891   0.268
46159W        W17830   0.989  35.957  11.140
46160W        W17831  39.434   3.498  10.562
46161W        W17832  19.226  21.272  11.457
46162W        W17833  20.928  40.957   4.216
46163W        W17834  18.615  15.610  13.704
46164W        W17835  20.128   1.369  12.997
46165W        W17836  32.079  26.397  14.935
46166W        W17837   1.503  17.178   4.106
46167W        W17838   9.603  35.037  13.965
46168W        W17839   1.720  31.458  12.866
46169W        W17840  42.768  40.350  11.615
46170W        W17841  37.480  13.623   4.158
46171W        W17842  15.604  36.483   3.128
46172W        W17843  14.693  25.870  12.808
46173W        W17844   0.045  40.182   1.980
46174W        W17845  14.065  23.497   3.908
46175W        W17846  29.575  15.793   2.326
46176W        W17847   2.609  21.277   3.228
46177W        W17848  35.521  43.394   0.718
46178W        W17849   8.277  25.517  14.376
46179W        W17850  15.401   5.717   0.291
46180W        W17851  33.280  25.183  13.278
46181W        W17852   5.508   5.606  11.516
46182W        W17853  28.129  17.486   0.821
46183W        W17854  35.974   9.869   1.419
46184W        W17855  41.906  36.490   4.628
46185W        W17856  36.316  40.125   9.732
46186W        W17857  21.634  32.437   0.393
46187W        W17858  12.806  24.677  12.972
46188W        W17859  38.904  11.633  11.569
46189W        W17860  27.950  39.429   2.759
46190W        W17861  36.066  41.510  14.870
46191W        W17862   5.612   7.569   2.399
46192W        W17863  40.486  27.369   3.764
46193W        W17864   4.009   2.215   0.520
46194W        W17865  32.376   4.668  10.471
46195W        W17866  23.742  24.080   3.276
46196W        W17867  33.129  40.920   2.778
46197W        W17868   0.521   2.102   2.726
46198W        W17869  33.967  17.124  14.663
46199W        W17870  41.751   5.285  12.665
46200W        W17871  33.381  30.079  13.090
46201W        W17872  25.741  16.083   2.819
46202W        W17873  29.501  18.590  13.801
46203W        W17874  23.405  33.327   0.900
46204W        W17875  42.559  42.249  14.874
46205W        W17876  41.786   2.662  12.185
46206W        W17877  43.074  41.880  10.585
46207W        W17878  13.712  16.108  14.854
46208W        W17879  26.344  14.365   1.017
46209W        W17880  19.448  23.845  13.702
46210W        W17881  24.232  31.950  13.024
46211W        W17882  15.603  31.288  14.353
46212W        W17883  37.986   1.614  12.970
46213W        W17884   3.453  19.709   4.134
46214W        W17885  37.442   5.740   0.846
46215W        W17886   8.935  27.122  13.994
46216W        W17887   8.136  44.729  11.969
46217W        W17888   7.774  37.852   3.236
46218W        W17889  23.685  35.305   2.389
46219W        W17890   0.776  10.553   3.474
46220W        W17891  41.320  29.979   0.075
46221W        W17892  18.092   1.890   4.604
46222W        W17893   2.519  44.835  14.246
46223W        W17894   4.497  37.557  13.220
46224W        W17895  37.264  28.138  12.546
46225W        W17896  38.416  42.809   2.430
46226W        W17897   0.524  38.165  10.960
46227W        W17898  11.230   8.506  13.811
46228W        W17899  35.299  36.187  13.208
46229W        W17900   5.242  35.008  13.354
46230W        W17901   5.843  14.790  12.577
46231W        W17902  25.074  34.947   3.215
46232W        W17903   2.818   8.108   3.316
46233W        W17904   4.344  22.608   3.958
46234W        W17905  16.842   5.703  13.427
46235W        W17906  25.874  37.573   2.165
46236W        W17907  31.824  12.894  11.100
46237W        W17908  44.236  39.485   4.280
46238W        W17909  15.702  22.450  12.069
46239W        W17910   9.189   8.191  13.710
46240W        W17911  32.733  19.708  14.119
46241W        W17912  31.678   4.865   0.811
46242W        W17913  25.174  10.329   4.907
46243W        W17914  18.579  26.918  10.129
46244W        W17915  37.627  40.594   2.959
46245W        W17916  42.863  15.802  10.616
46246W        W17917  34.649  42.138  13.078
46247W        W17918  42.062  22.792  12.197
46248W        W17919  13.056  37.060  12.539
46249W        W17920  32.138   1.492   0.391
46250W        W17921   0.259  10.807  14.938
46251W        W17922  12.805  15.869   2.826
46252W        W17923   9.909  17.275  14.303
46253W        W17924  33.305  44.765  14.244
46254W        W17925  33.963   0.436   2.176
46255W        W17926  32.686  31.457  10.556
46256W        W17927  41.927  33.655   1.748
46257W        W17928  38.970   8.761   4.732
46258W        W17929  38.470  22.203   4.664
46259W        W17930  19.592  22.417   2.367
46260W        W17931  26.883  34.859   1.902
46261W        W17932  41.971  33.641   4.744
46262W        W17933  27.533  26.126   0.730
46263W        W17934  21.263   2.477   0.619
46264W        W17935   9.842  18.690  10.897
46265W        W17936  33.596  12.128   3.123
46266W        W17937  19.610  16.099   0.967
46267W        W17938  20.077   8.247  14.391
46268W        W17939   0.909  26.538  14.829
46269W        W17940   8.344  12.150  14.831
46270W        W17941   3.186  32.633  12.169
46271W        W17942  14.087  22.237   0.110
46272W        W17943  28.184  33.529   2.762
46273W        W17944  34.424   5.046   0.767
46274W        W17945   3.667   1.257  13.418
46275W        W17946  37.082  40.573  13.226
46276W        W17947   1.616  15.625   3.741
46277W        W17948  12.082   6.795   1.192
46278W        W17949  31.319  22.657   3.045
46279W        W17950   3.725  13.788   4.337
46280W        W17951  11.111  42.899   0.242
46281W        W17952  21.116   8.273   1.403
46282W        W17953  36.439   7.414  10.756
46283W        W17954  16.013   6.694  13.862
46284W        W17955  39.876   9.296  14.769
46285W        W17956  37.024  20.703  13.764
46286W        W17957  35.387  37.156   0.467
46287W        W17958  26.294  24.227   0.662
46288W        W17959  20.925  19.753   1.304
46289W        W17960  16.921  31.064   0.372
46290W        W17961  34.829  11.139   3.821
46291W        W17962  25.008  42.931   2.401
46292W        W17963  12.417  34.977   2.014
46293W        W17964   0.068  37.737   2.938
46294W        W17965  15.101  19.622  10.876
46295W        W17966   8.130   3.049   1.220
46296W        W17967  30.562  35.960   2.135
46297W        W17968  24.272  12.031  14.809
46298W        W17969  33.090  12.176  12.539
46299W        W17970  36.535  11.161   2.469
46300W        W17971  37.288  28.695   4.606
46301W        W17972  32.524  10.872   1.723
46302W        W17973  25.077  27.460  12.445
46303W        W17974  44.162  26.455   0.329
46304W        W17975  24.286  17.949  11.139
46305W        W17976  41.974  21.352  10.221
46306W        W17977  18.970  17.544   2.209
46307W        W17978   7.134  41.063   2.770
46308W        W17979  23.660  34.450   4.773
46309W        W17980  14.270  12.717   4.244
46310W        W17981  40.637   6.852   4.546
46311W        W17982  14.759   3.676  10.633
46312W        W17983  33.609   3.820   1.780
46313W        W17984  38.457   0.380   0.410
46314W        W17985  31.235  33.875  13.358
46315W        W17986  36.837  14.920   4.267
46316W        W17987  28.724  26.922   0.854
46317W        W17988  22.511  31.762   2.852
46318W        W17989   2.760   7.950   0.326
46319W        W17990  19.938  23.732   0.953
46320W        W17991  22.363  16.566   1.944
46321W        W17992  29.461   8.539  12.670
46322W        W17993  42.935  17.654  13.886
46323W        W17994   7.731  11.928  11.128
46324W        W17995  17.229  24.451   4.996
46325W        W17996  11.628  24.002  14.558
46326W        W17997  31.564  29.428  13.453
46327W        W17998   3.854  42.438  12.578
46328W        W17999  30.371  26.987   1.310
46329W        W18000   4.425  40.421  10.690
46330W        W18001  43.933  26.721   4.850
46331W        W18002   3.470   8.688  11.133
46332W        W18003  15.328   6.470   2.749
46333W        W18004  14.258  23.106   3.114
46334W        W18005  13.030  22.776   2.263
46335W        W18006  42.553  17.509  12.191
46336W        W18007  38.501   8.922   0.871
46337W        W18008   6.267  40.437   4.655
46338W        W18009  13.388  25.494   4.846
46339W        W18010  41.484  27.591   1.664
46340W        W18011  24.939   5.348   4.359
46341W        W18012  28.491  16.703   4.178
46342W        W18013  42.987  38.463   1.467
46343W        W18014  12.059  19.657   4.642
46344W        W18015  32.595  36.556  10.967
46345W        W18016   3.683  27.480   0.731
46346W        W18017  28.468  22.724   3.313
46347W        W18018  37.040  33.961   2.933
46348W        W18019  11.163  29.767   1.783
46349W        W18020  36.956  17.513   2.384
46350W        W18021  41.506  15.608   3.756
46351W        W18022  28.734  43.504  10.626
46352W        W18023  35.713  15.090  11.624
46353W        W18024  13.232   4.288   3.228
46354W        W18025  40.367  13.378  10.807
46355W        W18026  32.118  15.216  10.668
46356W        W18027  26.992  20.589   1.006
46357W        W18028  16.220  34.815   0.210
46358W        W18029  43.465  28.943  14.101
46359W        W18030  23.233  22.690  11.551
46360W        W18031  27.392  31.097   3.678
46361W        W18032  29.971  13.267  13.524
46362W        W18033   1.304  17.549   1.247
46363W        W18034  34.374   1.479  11.983
46364W        W18035  11.198   4.827  10.724
46365W        W18036  15.236  25.024  13.947
46366W        W18037  20.433  31.526  10.738
46367W        W18038  23.602  15.263   3.317
46368W        W18039  31.478  37.960   1.831
46369W        W18040   3.772  32.898   2.276
46370W        W18041  31.298  37.384  10.302
46371W        W18042  12.184  12.372   2.809
46372W        W18043  13.439   1.665   1.219
46373W        W18044  32.801   7.905   3.126
46374W        W18045   7.821  17.729   0.690
46375W        W18046  13.765  22.556  12.009
46376W        W18047  44.921  14.354   1.325
46377W        W18048  42.896  22.073   3.540
46378W        W18049  21.098  13.276  10.484
46379W        W18050  22.481  20.511  14.399
46380W        W18051  21.803  37.995  10.318
46381W        W18052  37.542  30.948   5.118
46382W        W18053  31.097  19.726   0.528
46383W        W18054   8.405  22.476  13.265
46384W        W18055  31.081  41.027   4.249
46385W        W18056   5.344  31.438   1.907
46386W        W18057  12.884  22.720  14.600
46387W        W18058  15.808  25.597   0.711
46388W        W18059  33.890  38.570  13.321
46389W        W18060  25.923   3.137  11.274
46390W        W18061   8.353  23.476  10.701
46391W        W18062  29.641  43.381  11.415
46392W        W18063  25.463  18.891  12.442
46393W        W18064  36.418   1.634  14.709
46394W        W18065  36.684  17.759   1.146
46395W        W18066  26.189  32.487   1.690
46396W        W18067  20.198  27.499  13.050
46397W        W18068  19.672   1.014   4.294
46398W        W18069   5.838  28.573  12.895
46399W        W18070  30.455   6.668  11.028
46400W        W18071  15.608  34.516   1.377
46401W        W18072  27.036  41.952  10.896
46402W        W18073  43.863  14.008  11.452
46403W        W18074   4.227  12.249  14.372
46404W        W18075   9.548  31.506  12.790
46405W        W18076  33.795   6.672  13.357
46406W        W18077  14.979  21.190   2.476
46407W        W18078  13.819   1.349   4.575
46408W        W18079  22.746   4.873   3.093
46409W        W18080  13.491  11.732   4.136
46410W        W18081  44.477  19.925   0.464
46411W        W18082   5.731  40.775  14.774
46412W        W18083  42.180  39.488  12.425
46413W        W18084  33.510  41.435  12.239
46414W        W18085  18.048  34.486  10.410
46415W        W18086   4.141  37.558  10.823
46416W        W18087  33.575   5.596   2.291
46417W        W18088  19.668  31.085  12.024
46418W        W18089   2.484  37.892  12.536
46419W        W18090  32.617  31.747  14.947
46420W        W18091  37.628  17.020   0.646
46421W        W18092  35.604   2.760   2.636
46422W        W18093  21.741   6.289   3.835
46423W        W18094  37.110  41.080  13.109
46424W        W18095  31.905  17.637   0.925
46425W        W18096  24.043   1.857  14.935
46426W        W18097  41.922  25.119  11.609
46427W        W18098  33.764  11.737   0.399
46428W        W18099   7.767  32.638   2.819
46429W        W18100  21.480  28.192   3.770
46430W        W18101  26.073  11.625  13.223
46431W        W18102  38.783  28.615   4.163
46432W        W18103  31.993  20.503  12.868
46433W        W18104  27.902  12.303   4.121
46434W        W18105  34.605   1.303  11.134
46435W        W18106  22.058  24.204   2.332
46436W        W18107  32.035   1.228   1.304
46437W        W18108   7.802  12.818   9.992
46438W        W18109  40.032  24.146   1.471
46439W        W18110   6.034  29.875  11.841
46440W        W18111  42.412  31.206   1.263
46441W        W18112  17.832  27.588  14.773
46442W        W18113  44.744  27.831   1.734
46443W        W18114  28.494  25.647  11.126
46444W        W18115  33.434  44.962  11.531
46445W        W18116  44.704  16.943  10.495
46446W        W18117  39.849  30.671   0.287
46447W        W18118  12.653  14.303   2.700
46448W        W18119  36.452  15.055  11.799
46449W        W18120   6.918  33.565   0.417
46450W        W18121  32.583   2.014  13.536
46451W        W18122   7.242   6.579  14.273
46452W        W18123  17.959  19.665  12.956
46453W        W18124  21.589  22.708   4.351
46454W        W18125  40.165  26.681  12.920
46455W        W18126  13.640  41.421   2.960
46456W        W18127  44.749  39.833  11.071
46457W        W18128  17.426   0.763  14.409
46458W        W18129  11.896   8.207  12.066
46459W        W18130   3.812  21.393   3.659
46460W        W18131  26.389   3.727   3.180
46461W        W18132   4.251   6.132   3.622
46462W        W18133  42.520  23.505  13.128
46463W        W18134  18.289  36.687   3.773
46464W        W18135  36.930   6.217   4.344
46465W        W18136   0.887  30.099  10.520
46466W        W18137  21.459   8.481   0.384
46467W        W18138  12.830  26.673  12.117
46468W        W18139   6.872   9.843  14.923
46469W        W18140   6.370  39.365   4.797
46470W        W18141  24.017  29.183   0.311
46471W        W18142  26.762   1.051   0.089
46472W        W18143  43.254   0.351   2.648
46473W        W18144  16.175  22.209  13.119
46474W        W18145  10.782  24.539  10.897
46475W        W18146  40.979   0.967  12.376
46476W        W18147   0.273  41.788   0.342
46477W        W18148   8.677   9.633   0.772
46478W        W18149  41.868   4.245   4.705
46479W        W18150  12.785  41.560   2.081
46480W        W18151  16.196  15.878  11.021
46481W        W18152  44.026   7.320  14.938
46482W        W18153  18.427  15.697  12.091
46483W        W18154  17.765  35.016  11.566
46484W        W18155  25.462  11.345  10.562
46485W        W18156  19.123  23.112   3.845
46486W        W18157  25.563   6.261   4.666
46487W        W18158  32.580  28.994  13.872
46488W        W18159  17.541  31.533   1.734
46489W        W18160  15.080  15.739   0.665
46490W        W18161  16.219  43.358   3.649
46491W        W18162  41.894  24.566  10.842
46492W        W18163  22.207   5.923  13.934
46493W        W18164   5.752  15.531   3.557
46494W        W18165  44.521  17.993  11.125
46495W        W18166   5.355  32.560  13.901
46496W        W18167  30.266  22.989  13.206
46497W        W18168   0.649  40.824  14.263
46498W        W18169  12.878   5.249   2.904
46499W        W18170   9.875  18.013   4.096
46500W        W18171  36.006  43.115   2.782
46501W        W18172  11.702   4.274   0.350
46502W        W18173  11.121   2.200   4.674
46503W        W18174  13.838  25.243   2.818
46504W        W18175  21.241  37.505   1.401
46505W        W18176  21.555  23.376   9.761
46506W        W18177  37.945  35.365  12.599
46507W        W18178  26.467  36.025   1.384
46508W        W18179   1.729  42.521  14.849
46509W        W18180  20.525  39.223   3.736
46510W        W18181  41.265  27.768  12.946
46511W        W18182  10.427  24.076  11.940
46512W        W18183  28.539  39.887   1.229
46513W        W18184  10.296   6.612  10.581
46514W        W18185  35.304   8.818  12.999
46515W        W18186  35.165  43.876  12.761
46516W        W18187  24.983  27.992  10.585
46517W        W18188  33.876   2.150  14.691
46518W        W18189  23.641   4.373   4.155
46519W        W18190  44.356  24.579   9.711
46520W        W18191  19.489  26.477   3.697
46521W        W18192   1.276   5.650   3.324
46522W        W18193  21.653  42.654   2.333
46523W        W18194   7.392  23.166   3.148
46524W        W18195  34.001  10.008  11.026
46525W        W18196  30.861   2.273  13.081
46526W        W18197  32.657  39.719   3.440
46527W        W18198  29.516  13.282  12.138
46528W        W18199  30.930   3.350  12.980
46529W        W18200   9.624  39.975   3.668
46530W        W18201   8.254  36.326   4.634
46531W        W18202  23.805  32.668  12.034
46532W        W18203  17.198  32.810  11.422
46533W        W18204  30.008  13.054   0.085
46534W        W18205   2.176  11.114   0.914
46535W        W18206   6.936  44.685   2.090
46536W        W18207  10.706  16.616   3.235
46537W        W18208  44.799   9.366   0.152
46538W        W18209  34.416  34.950  11.608
46539W        W18210  36.647  17.220   0.933
46540W        W18211  31.168  25.977  13.084
46541W        W18212   7.915  33.531  12.500
46542W        W18213   7.327  35.553   2.472
46543W        W18214   5.979  19.148   2.691
46544W        W18215   5.307   6.387   0.013
46545W        W18216  43.371  16.286  11.930
46546W        W18217  14.304  31.630   3.710
46547W        W18218  13.968  35.018  10.732
46548W        W18219  38.460  40.533  14.929
46549W        W18220  24.066  20.614   0.936
46550W        W18221   0.533   9.820   1.843
46551W        W18222   0.784  22.751   1.412
46552W        W18223  26.954  13.208  12.889
46553W        W18224  42.524   4.851   2.612
46554W        W18225  16.383  28.026   2.376
46555W        W18226   5.287   4.344  10.845
46556W        W18227   5.153  11.143   2.830
46557W        W18228  36.402  44.094  11.202
46558W        W18229  35.742  41.208   1.596
46559W        W18230  13.097  13.832  14.768
46560W        W18231   3.943  22.165   1.363
46561W        W18232  15.294  38.334   4.433
46562W        W18233  43.414  21.532   0.264
46563W        W18234  24.004  25.973   0.231
46564W        W18235  29.523   8.229  10.087
46565W        W18236   6.732  33.006  10.772
46566W        W18237  13.855  18.373   2.096
46567W        W18238  14.255   1.016  12.382
46568W        W18239  30.380   4.849  14.418
46569W        W18240   5.781  26.989   2.465
46570W        W18241  30.333  26.858   3.878
46571W        W18242  37.353  27.207  12.543
46572W        W18243  40.771  24.031   3.650
46573W        W18244  36.916   9.384   4.307
46574W        W18245  40.825  33.864   3.023
46575W        W18246  32.206  30.637   2.353
46576W        W18247  42.935   5.007   4.732
46577W        W18248  27.990  33.813  12.996
46578W        W18249  31.509  28.701  12.973
46579W        W18250  27.676  24.701   3.689
46580W        W18251  36.027  40.943   0.723
46581W        W18252  26.244  20.767  12.614
46582W        W18253   1.728  16.836  13.353
46583W        W18254  41.342  44.768  12.802
46584W        W18255  36.562  33.408  14.237
46585W        W18256  37.866   0.763  10.638
46586W        W18257  18.973  38.910  12.989
46587W        W18258  13.217  35.510   3.755
46588W        W18259  28.216   0.255  12.510
46589W        W18260  33.940  17.303   0.850
46590W        W18261  41.446  26.278  13.799
46591W        W18262   8.906  25.512   3.784
46592W        W18263  39.099  28.901   4.464
46593W        W18264  41.885   4.579   1.516
46594W        W18265  28.466  33.062  12.778
46595W        W18266  15.755  11.841   1.281
46596W        W18267  17.817  28.076  12.538
46597W        W18268  18.800  42.831   0.071
46598W        W18269  26.941  37.851   3.569
46599W        W18270  34.057   6.477   4.556
46600W        W18271  43.775  21.035   4.255
46601W        W18272  43.203  37.962  10.644
46602W        W18273   9.471  40.181   0.015
46603W        W18274  31.124   6.490  12.921
46604W        W18275  27.085  22.892  11.488
46605W        W18276   2.340  24.095  12.922
46606W        W18277  18.622  44.250   3.219
46607W        W18278   1.888  10.310   1.369
46608W        W18279  30.038   7.942   1.984
46609W        W18280  33.290  10.553  11.116
46610W        W18281   0.521  29.649   3.785
46611W        W18282  21.806  12.342  12.400
46612W        W18283   4.873   6.675  13.906
46613W        W18284   5.306   7.181   3.886
46614W        W18285  12.820  39.412  14.451
46615W        W18286   5.950  38.280   0.352
46616W        W18287   6.343  37.843  10.428
46617W        W18288   1.349  38.529  11.918
46618W        W18289   4.732  43.940  10.735
46619W        W18290   8.773   7.081   3.657
46620W        W18291  13.838   7.342   2.778
46621W        W18292   8.978  43.186   3.372
46622W        W18293   7.361  12.393  12.775
46623W        W18294   8.116  12.992  13.924
46624W        W18295  40.416  19.102   3.182
46625W        W18296  18.973  31.850   3.251
46626W        W18297   6.628  41.302  14.351
46627W        W18298  32.032  33.595   3.830
46628W        W18299  28.911  14.764   1.771
46629W        W18300  16.631  28.123  11.195
46630W        W18301  37.810  41.477  13.950
46631W        W18302  31.370  14.334   0.842
46632W        W18303   1.987  11.554  13.926
46633W        W18304   7.277  13.372  12.640
46634W        W18305   6.286  31.424   4.819
46635W        W18306   0.864  15.531  13.843
46636W        W18307  44.195  18.097   3.290
46637W        W18308  12.801  32.601  13.841
46638W        W18309  15.367   1.256   2.418
46639W        W18310  16.176  33.965   2.033
46640W        W18311  20.996  33.359   4.666
46641W        W18312  22.430  41.040   9.770
46642W        W18313  12.118   8.052  13.416
46643W        W18314  18.465  23.062   1.866
46644W        W18315  11.753  18.647  11.126
46645W        W18316  12.747  12.091   4.824
46646W        W18317  33.351  43.006   0.338
46647W        W18318   9.282  21.973  11.920
46648W        W18319  10.407  35.127   4.555
46649W        W18320  29.523  33.933   0.292
46650W        W18321  21.017  11.256   3.443
46651W        W18322  35.556  12.168   1.835
46652W        W18323  32.500  31.126  13.149
46653W        W18324   1.863   3.272  14.005
46654W        W18325  37.422  44.734   0.479
46655W        W18326  12.843  36.064  14.472
46656W        W18327  25.526  37.792  13.384
46657W        W18328  29.604  35.509  13.877
46658W        W18329  37.611  10.649   2.596
46659W        W18330  10.822  43.778  11.449
46660W        W18331  36.654  28.752  13.600
46661W        W18332  18.755   5.344   0.281
46662W        W18333  36.105   1.232  10.684
46663W        W18334  40.871   5.543   4.630
46664W        W18335  23.244  40.962   3.179
46665W        W18336  36.833  34.791   4.251
46666W        W18337  32.400  16.780  14.976
46667W        W18338   5.222  13.267   4.892
46668W        W18339  38.302  38.852   3.617
46669W        W18340  22.179  19.213  13.753
46670W        W18341  19.122   5.832   4.942
46671W        W18342  18.369  11.891  10.485
46672W        W18343   3.842  14.143  14.915
46673W        W18344  39.754  36.920  11.715
46674W        W18345  24.637  17.522  13.589
46675W        W18346  11.803  26.583  13.675
46676W        W18347  13.230   5.389  11.594
46677W        W18348   6.914  20.759   0.358
46678W        W18349  37.473  27.248   2.952
46679W        W18350  29.216   6.362   4.049
46680W        W18351  37.090  44.251   4.868
46681W        W18352  38.681  32.598  12.037
46682W        W18353  43.794  40.993   2.399
46683W        W18354  27.468   2.150  10.625
46684W        W18355  37.530   9.907   1.205
46685W        W18356  17.495  28.641   2.039
46686W        W18357  41.190   5.281   4.299
46687W        W18358   7.199  16.398   2.182
46688W        W18359  41.365  10.197  10.027
46689W        W18360  35.625   7.659  13.416
46690W        W18361  22.269  44.469  13.453
46691W        W18362  24.214  43.888  12.163
46692W        W18363  34.564  13.707   2.085
46693W        W18364  13.523  13.098   2.780
46694W        W18365   1.451  14.234  11.129
46695W        W18366   8.329  32.380  10.822
46696W        W18367  26.408   1.982   4.972
46697W        W18368  23.252  11.086  11.154
46698W        W18369  40.022  44.238   2.802
46699W        W18370  20.070  32.657   0.870
46700W        W18371  32.289  27.565  13.031
46701W        W18372  16.298  11.396   3.246
46702W        W18373  27.445  16.237  14.329
46703W        W18374  22.667  43.350   4.804
46704W        W18375  34.374  22.696  11.993
46705W        W18376  36.890  10.222  14.962
46706W        W18377   7.289   6.035  12.919
46707W        W18378  28.529  35.568   4.742
46708W        W18379  20.533   6.866  14.002
46709W        W18380   6.714   3.825   3.211
46710W        W18381  33.143  35.091   4.812
46711W        W18382  35.450  34.906   0.694
46712W        W18383   2.653   3.834   1.469
46713W        W18384  12.394  12.288  10.689
46714W        W18385  13.316  35.506  11.588
46715W        W18386  11.629  21.427  13.475
46716W        W18387  20.673  39.812  14.815
46717W        W18388  27.503  19.093   4.662
46718W        W18389  29.055  16.190   3.602
46719W        W18390  43.017  12.384  12.609
46720W        W18391   9.726  30.168  12.498
46721W        W18392   7.189  10.078   3.826
46722W        W18393   4.931  15.769   0.356
46723W        W18394  31.172  26.137   3.714
46724W        W18395  15.453  26.974  11.267
46725W        W18396  17.229  34.388  12.187
46726W        W18397  29.548  39.869   1.998
46727W        W18398   5.215  18.985   2.177
46728W        W18399  22.249  29.739  13.134
46729W        W18400  37.944   4.367  11.624
46730W        W18401   4.366  30.990  11.041
46731W        W18402  24.403  12.602   5.119
46732W        W18403  41.894   7.466  14.003
46733W        W18404   4.632  41.265  14.479
46734W        W18405  23.976  40.459   2.350
46735W        W18406  21.453   5.913  11.516
46736W        W18407   4.143  17.009  11.658
46737W        W18408  14.335  30.117  13.895
46738W        W18409  10.097  17.671   2.743
46739W        W18410  32.080  32.387   1.958
46740W        W18411   4.810  14.827   1.193
46741W        W18412   7.113   6.950  13.396
46742W        W18413  11.289   6.681  10.710
46743W        W18414  38.955  35.851   0.351
46744W        W18415  11.332  15.202  10.829
46745W        W18416  26.666   9.356   5.019
46746W        W18417  13.901  11.064  10.659
46747W        W18418  41.145  35.507   1.832
46748W        W18419  33.918  17.610   3.614
46749W        W18420  13.113  22.728   0.522
46750W        W18421  32.829  37.346  13.353
46751W        W18422   1.654   9.972   3.180
46752W        W18423  41.391  32.079   1.015
46753W        W18424  20.508  44.302   4.065
46754W        W18425  16.300  13.833   3.583
46755W        W18426  16.694  42.506   2.730
46756W        W18427  42.881  32.572   4.521
46757W        W18428   7.267   3.758   1.847
46758W        W18429  44.954   8.195   0.774
46759W        W18430  37.408   9.201   4.386
46760W        W18431  17.738  39.371  12.066
46761W        W18432  17.276  20.541   4.166
46762W        W18433  10.771   6.623   1.867
46763W        W18434  35.555  32.228   2.190
46764W        W18435  27.909  34.243  11.090
46765W        W18436  12.091  30.420  13.318
46766W        W18437  26.143  35.854  10.505
46767W        W18438  21.483   4.001   3.167
46768W        W18439  38.109  36.699   5.516
46769W        W18440  10.696   1.313   4.613
46770W        W18441  19.946  30.040   4.607
46771W        W18442   6.117  30.565   4.492
46772W        W18443  42.310  22.816   4.005
46773W        W18444  38.439  38.348   3.701
46774W        W18445  20.260  38.867  13.573
46775W        W18446  40.738  34.755   1.388
46776W        W18447  32.479   1.738   2.844
46777W        W18448  19.476  21.896   3.723
46778W        W18449   8.914  29.422  14.323
46779W        W18450  43.283   6.739   2.607
46780W        W18451  14.681   4.415   0.266
46781W        W18452  25.113   8.345  12.325
46782W        W18453  30.222  27.677  11.243
46783W        W18454   5.324  11.200   0.049
46784W        W18455   3.327  24.438   2.607
46785W        W18456   5.425  44.577   0.681
46786W        W18457   2.471  23.534   4.077
46787W        W18458   0.946  14.256  11.098
46788W        W18459  14.996  25.151  10.989
46789W        W18460  26.965  19.248   2.847
46790W        W18461  28.430   2.627   1.813
46791W        W18462  42.219  32.374  10.745
46792W        W18463  19.330   0.444  11.027
46793W        W18464  25.526  16.102   1.680
46794W        W18465  44.339   9.453   3.434
46795W        W18466  28.506   0.980  13.404
46796W        W18467  42.560  17.598   2.094
46797W        W18468  20.653   7.663  11.551
46798W        W18469  25.029  21.240   5.038
46799W        W18470  44.401   2.031  11.195
46800W        W18471  35.642  37.440  14.052
46801W        W18472  29.162   0.935   1.723
46802W        W18473  31.865  20.560   1.193
46803W        W18474   2.714  22.582   2.346
46804W        W18475  22.390   8.025   1.374
46805W        W18476   8.955  41.081  10.260
46806W        W18477  12.604  35.095  14.880
46807W        W18478  31.859   4.965  12.009
46808W        W18479  15.156  14.312   1.787
46809W        W18480  41.666  44.852   0.471
46810W        W18481  38.236   2.233   3.866
46811W        W18482  17.319  40.399   3.753
46812W        W18483  25.294  29.835  11.183
46813W        W18484  38.060  25.287   3.279
46814W        W18485  34.978  22.190  10.722
46815W        W18486   8.667  18.115  12.476
46816W        W18487  25.012  24.510  10.628
46817W        W18488  28.386  23.722  13.766
46818W        W18489  44.244  15.588  10.944
46819W        W18490  19.669  20.225  11.486
46820W        W18491   7.708  41.647   0.465
46821W        W18492  28.216  38.260  11.585
46822W        W18493  19.770  16.719   3.636
46823W        W18494  13.271  17.655  14.842
46824W        W18495   0.974  28.202   0.601
46825W        W18496   5.858   0.398  11.477
46826W        W18497   6.484  36.138  12.030
46827W        W18498  37.991  38.921   3.185
46828W        W18499  18.686  29.099  12.067
46829W        W18500  14.641  25.044   5.082
46830W        W18501  16.263   1.213   4.072
46831W        W18502  40.550  30.955  13.516
46832W        W18503   7.858  25.979   4.391
46833W        W18504  29.987  33.452  14.216
46834W        W18505   8.597  32.150  12.097
46835W        W18506  18.589  35.600   3.781
46836W        W18507  33.593  42.235  10.689
46837W        W18508   6.326  17.777   3.724
46838W        W18509   4.570  15.300   1.900
46839W        W18510  42.381  38.861  10.596
46840W        W18511  37.023   7.210   0.933
46841W        W18512  34.788  18.316  13.587
46842W        W18513   7.923  43.429  12.095
46843W        W18514  26.077  26.495   1.232
46844W        W18515  23.988   6.412  12.390
46845W        W18516  22.582   4.482  11.887
46846W        W18517  26.094  13.832  14.400
46847W        W18518  27.049  22.815   0.315
46848W        W18519  37.896  16.928   0.205
46849W        W18520  14.221  27.234  14.909
46850W        W18521   0.171  19.596   2.429
46851W        W18522  36.990  40.290   3.617
46852W        W18523   2.794   8.239   4.757
46853W        W18524  29.768   1.734   3.235
46854W        W18525  42.860   7.935  13.545
46855W        W18526  11.611   4.687   4.320
46856W        W18527  40.812  41.833   0.889
46857W        W18528  31.041  21.364   4.157
46858W        W18529  11.266  35.796  13.594
46859W        W18530  13.855  28.355   1.074
46860W        W18531  26.956  25.599   1.944
46861W        W18532   1.802   8.768   2.013
46862W        W18533  12.956  41.555  10.740
46863W        W18534  23.800  29.012  11.608
46864W        W18535   8.627  44.818   1.404
46865W        W18536  19.106  27.407   4.533
46866W        W18537  25.521   3.528   2.491
46867W        W18538  43.367  15.300  14.996
46868W        W18539  36.631  39.912   3.435
46869W        W18540  23.464   0.380   2.792
46870W        W18541  15.533   2.421  11.595
46871W        W18542   6.151   8.825   0.913
46872W        W18543  28.520  23.545  10.700
46873W        W18544   0.984  10.343   0.077
46874W        W18545  39.933  17.037   1.782
46875W        W18546  10.238   5.890   4.227
46876W        W18547  29.104   4.135   3.639
46877W        W18548  10.819  16.210  11.941
46878W        W18549  16.744  28.452   4.668
46879W        W18550  44.075  14.791  12.924
46880W        W18551  24.044  41.242   4.921
46881W        W18552  18.248  27.707  11.673
46882W        W18553  40.548   4.634   4.190
46883W        W18554  26.896   8.733   3.622
46884W        W18555  30.831   9.179   5.022
46885W        W18556  31.904  38.149  11.205
46886W        W18557  15.603  15.386   0.039
46887W        W18558  14.618  26.637  12.331
46888W        W18559   5.475  24.934   0.782
46889W        W18560  13.310  29.716   1.229
46890W        W18561  22.596  33.668  13.464
46891W        W18562  33.945  40.921   4.900
46892W        W18563   5.788   4.426  11.646
46893W        W18564   4.796  33.922   5.037
46894W        W18565  24.474  17.325   3.411
46895W        W18566  31.729  20.295  12.442
46896W        W18567   1.009   3.299   1.351
46897W        W18568  26.639   9.399  14.092
46898W        W18569   8.034  27.048  14.923
46899W        W18570  19.317   3.282  12.007
46900W        W18571  14.156  36.077  13.492
46901W        W18572  33.427  15.792  11.572
46902W        W18573  19.017  20.222   4.744
46903W        W18574   3.325  29.920  11.646
46904W        W18575   6.698  32.322  10.712
46905W        W18576  24.965  39.565  11.466
46906W        W18577  17.128  27.957  11.226
46907W        W18578  15.985  26.979   3.127
46908W        W18579  21.336  20.980   3.364
46909W        W18580  31.331  22.759  11.132
46910W        W18581   3.955   8.716   3.364
46911W        W18582  15.067  35.188   3.791
46912W        W18583  10.894  31.484   2.880
46913W        W18584  11.690  26.221  12.917
46914W        W18585   0.165  18.279  13.409
46915W        W18586   4.892   0.779  10.890
46916W        W18587   6.280   3.286  10.277
46917W        W18588   0.928  42.358  14.444
46918W        W18589  34.551  36.333  11.115
46919W        W18590  36.429  36.517  10.190
46920W        W18591  38.440  23.620   4.466
46921W        W18592  15.790  26.562  13.991
46922W        W18593  34.944  30.070  12.175
46923W        W18594  12.219  13.572  12.107
46924W        W18595  35.492  41.669   1.625
46925W        W18596  27.708   5.297  11.542
46926W        W18597  37.381  19.083   0.888
46927W        W18598  13.867  30.257  13.445
46928W        W18599  14.709  19.049  14.451
46929W        W18600   2.554  37.705  13.922
46930W        W18601  29.148  15.881   2.671
46931W        W18602  21.328  37.582  12.846
46932W        W18603  29.231  39.434  11.536
46933W        W18604  30.641  27.175   1.730
46934W        W18605  29.498  12.114   1.621
46935W        W18606  33.854   8.341   0.771
46936W        W18607  32.467   8.207  14.933
46937W        W18608  12.036  18.341  14.416
46938W        W18609  31.383  13.422   3.919
46939W        W18610  26.468  27.753   3.623
46940W        W18611  32.441  24.875   4.664
46941W        W18612  32.111  26.672  10.556
46942W        W18613  33.423  11.210  14.815
46943W        W18614  15.330  12.279  13.031
46944W        W18615   6.349  30.529  12.515
46945W        W18616  35.861  23.829   2.839
46946W        W18617   4.722  23.996  13.897
46947W        W18618  20.081  20.735  14.234
46948W        W18619   3.292  21.244  14.882
46949W        W18620  18.511  21.239   0.464
46950W        W18621   1.791  44.383  12.612
46951W        W18622  10.891  12.334  12.038
46952W        W18623   0.265  41.272  11.707
46953W        W18624   5.204  18.736  14.177
46954W        W18625  41.061  16.283  14.743
46955W        W18626  22.589  26.743   1.197
46956W        W18627  22.171  20.744   4.830
46957W        W18628  13.861  26.972  11.251
46958W        W18629  17.925  44.627   9.738
46959W        W18630  33.543   2.892  10.721
46960W        W18631  12.012  11.524  14.804
46961W        W18632  17.210  12.063   2.760
46962W        W18633  33.124  44.230   3.520
46963W        W18634  28.452  30.890  13.788
46964W        W18635  27.581  23.431  11.957
46965W        W18636  26.735  43.737   2.794
46966W        W18637  34.848  33.980  14.779
46967W        W18638  12.704  28.133  13.324
46968W        W18639  11.718  43.457   4.666
46969W        W18640  10.755   0.724  14.323
46970W        W18641   0.903  38.652  12.670
46971W        W18642  24.597  22.821  10.580
46972W        W18643  40.749  14.708   4.152
46973W        W18644  14.836  24.510  10.767
46974W        W18645  43.406   1.057   0.263
46975W        W18646  25.906   1.946   1.938
46976W        W18647  14.450  44.947  12.568
46977W        W18648  17.315  38.965  11.936
46978W        W18649   8.779  26.331  12.252
46979W        W18650   5.496  20.715  12.827
46980W        W18651   9.914  16.117   1.434
46981W        W18652  30.577  27.417  13.329
46982W        W18653  32.978  23.520  13.025
46983W        W18654  25.605  41.546  14.822
46984W        W18655  16.199  20.159   0.499
46985W        W18656  37.855   1.043   2.725
46986W        W18657   9.210  10.381  11.961
46987W        W18658  10.184  36.390   2.639
46988W        W18659  28.266  29.920   0.887
46989W        W18660  12.392   5.231   1.432
46990W        W18661   6.808  13.574  10.575
46991W        W18662  34.560   0.444   2.776
46992W        W18663  39.872   3.425   4.075
46993W        W18664   4.243  17.295  12.127
46994W        W18665  16.820  27.935  11.635
46995W        W18666  20.171  39.316  14.266
46996W        W18667  21.766  16.654  13.629
46997W        W18668  35.880   2.737  10.669
46998W        W18669  17.810  36.605   1.606
46999W        W18670   3.907  15.275  13.338
47000W        W18671  12.659  21.434   2.370
47001W        W18672  28.371  36.066   2.888
47002W        W18673  13.450  37.126   4.621
47003W        W18674  26.077   9.216  11.993
47004W        W18675  14.807  33.217  11.814
47005W        W18676  44.309  38.630   9.994
47006W        W18677  21.362  25.690  12.626
47007W        W18678  24.556   8.463   4.077
47008W        W18679  21.943  30.337   1.634
47009W        W18680   1.441   9.241  10.716
47010W        W18681  24.415  15.162  12.001
47011W        W18682   1.934  24.180   4.675
47012W        W18683  37.007  44.374  10.161
47013W        W18684  24.018  24.219   3.680
47014W        W18685  38.923  37.404   0.122
47015W        W18686   3.227   0.079  13.331
47016W        W18687  38.575   0.232  14.903
47017W        W18688  21.713  16.081  11.952
47018W        W18689   0.979  29.673   1.227
47019W        W18690  29.641  23.783  14.875
47020W        W18691   5.199  30.568  14.591
47021W        W18692  42.020  31.454   4.073
47022W        W18693  27.502  32.104   2.737
47023W        W18694  18.619  13.571  13.857
47024W        W18695  31.502   7.931   4.785
47025W        W18696  15.663  32.574   3.305
47026W        W18697  41.848  30.660   5.099
47027W        W18698  27.692  28.178  10.731
47028W        W18699  39.038   9.349  12.943
47029W        W18700   3.378   8.801   3.431
47030W        W18701  14.288  17.468   3.600
47031W        W18702  35.438  44.779   0.369
47032W        W18703   9.393   2.977   2.142
47033W        W18704  44.938  18.569   4.767
47034W        W18705  36.858  14.708  12.827
47035W        W18706  20.144  15.543  12.480
47036W        W18707  22.210  20.783  13.329
47037W        W18708   3.012  37.431  13.821
47038W        W18709   4.744  18.019   2.678
47039W        W18710  39.726  19.431   4.147
47040W        W18711  21.507  29.976   2.299
47041W        W18712  19.039   7.872  14.361
47042W        W18713   9.596  36.549  10.956
47043W        W18714   9.948  15.705   4.635
47044W        W18715  32.158  13.884  11.155
47045W        W18716   1.213   8.397   2.766
47046W        W18717  16.132   4.526   3.697
47047W        W18718   1.010  32.551   2.864
47048W        W18719  10.185   8.323   2.329
47049W        W18720   5.100  14.705  12.121
47050W        W18721   7.713  18.064  13.884
47051W        W18722  36.636   1.764   1.870
47052W        W18723  14.788  34.736  12.267
47053W        W18724  12.750  15.393   1.351
47054W        W18725  15.376  17.592  14.055
47055W        W18726  35.115  37.108   1.328
47056W        W18727  39.942  33.334  12.840
47057W        W18728  39.482  24.127  13.285
47058W        W18729  14.554   9.864   0.293
47059W        W18730   4.784  34.574   3.283
47060W        W18731   3.442  36.602  12.042
47061W        W18732   7.347   9.427  11.968
47062W        W18733   9.360  36.843   0.478
47063W        W18734   2.333  25.725   1.889
47064W        W18735  21.166  40.668   2.714
47065W        W18736  10.514   7.800  12.140
47066W        W18737   6.359   6.960  12.337
47067W        W18738   6.286   2.257   4.488
47068W        W18739  41.268  14.097  12.867
47069W        W18740  16.154  13.107   0.235
47070W        W18741  28.476  31.693   3.125
47071W        W18742  26.124   6.812  11.974
47072W        W18743  43.957   9.392   3.770
47073W        W18744  30.977  18.037  14.965
47074W        W18745  31.562  37.032  14.941
47075W        W18746  30.402  33.073  10.648
47076W        W18747  15.734  30.930   2.950
47077W        W18748   3.630  40.130   1.477
47078W        W18749  27.475  40.164   0.964
47079W        W18750  14.756  19.818  14.900
47080W        W18751   7.639  15.218   3.871
47081W        W18752  10.591  28.606   3.501
47082W        W18753  31.090  42.090  13.445
47083W        W18754   1.890   5.571  12.095
47084W        W18755  32.221  28.116  12.070
47085W        W18756   8.391  13.116  11.468
47086W        W18757   4.942  42.878   0.770
47087W        W18758  20.405   1.720   3.227
47088W        W18759   1.706  11.652   1.209
47089W        W18760  33.852  36.837  13.952
47090W        W18761  27.458   9.628   3.434
47091W        W18762   7.339  35.643  11.988
47092W        W18763  14.360  15.630  14.499
47093W        W18764  15.094  17.870   4.082
47094W        W18765  44.289  14.190   4.075
47095W        W18766  26.227  36.104  11.964
47096W        W18767  34.391  40.753   3.775
47097W        W18768  36.170  16.750  14.946
47098W        W18769  15.139   9.699  14.550
47099W        W18770  25.267  19.053   4.136
47100W        W18771  19.502  16.197  11.566
47101W        W18772  14.285  20.311  11.084
47102W        W18773  23.976  21.333   4.298
47103W        W18774  43.312  15.393   3.671
47104W        W18775   4.995  33.709   3.760
47105W        W18776  24.192   9.135  13.919
47106W        W18777  42.975  36.804   4.039
47107W        W18778  33.030  14.777  12.934
47108W        W18779  29.444  26.716  11.400
47109W        W18780  28.074  32.280   4.630
47110W        W18781  34.665  14.089   0.243
47111W        W18782  40.344  26.095   0.249
47112W        W18783   9.146  22.989  12.176
47113W        W18784  14.690  38.857  14.683
47114W        W18785  19.199   7.499   1.204
47115W        W18786  20.495  26.250  11.197
47116W        W18787  22.003  26.626  13.086
47117W        W18788   3.904  19.769   1.389
47118W        W18789  34.380  25.971  14.964
47119W        W18790  21.731  35.455  14.925
47120W        W18791  33.968  36.193  11.966
47121W        W18792  19.284  32.069   4.195
47122W        W18793   4.270  19.198  10.580
47123W        W18794  13.345   2.525   2.225
47124W        W18795  18.001   2.634   4.130
47125W        W18796  15.297  32.129  13.616
47126W        W18797  44.772  18.218   4.331
47127W        W18798  29.553  41.259  14.336
47128W        W18799  38.513  27.423   1.169
47129W        W18800  30.717  28.917  14.710
47130W        W18801  33.461   0.396  10.254
47131W        W18802   3.441  14.157   1.804
47132W        W18803  40.696  29.691   5.003
47133W        W18804  28.031  17.216   1.829
47134W        W18805  26.985  35.844  10.714
47135W        W18806   8.983  37.829  10.634
47136W        W18807  15.484  20.128   4.252
47137W        W18808  42.554  37.890   2.157
47138W        W18809  23.992  35.093  13.457
47139W        W18810  30.150   7.095   4.666
47140W        W18811  15.788  40.255  12.474
47141W        W18812   9.284  24.463  13.485
47142W        W18813  26.936  19.072  11.577
47143W        W18814   4.510  43.165   0.789
47144W        W18815  42.850   7.656   3.355
47145W        W18816  33.658  24.689   1.452
47146W        W18817  34.421  18.885   3.320
47147W        W18818  38.853   3.792  13.363
47148W        W18819  20.362   9.199  14.515
47149W        W18820   5.802  44.470   4.933
47150W        W18821  32.667  13.045  14.465
47151W        W18822  23.206  17.195   4.714
47152W        W18823   6.216  42.965   2.592
47153W        W18824  24.356  34.054  12.291
47154W        W18825  37.964  35.676   1.691
47155W        W18826  40.844  17.588   4.958
47156W        W18827  24.268  38.146   3.919
47157W        W18828  22.248  24.552   0.224
47158W        W18829  32.463   0.034   3.119
47159W        W18830  19.582  44.554  14.560
47160W        W18831   4.807  21.685  12.769
47161W        W18832  28.873  43.759  14.411
47162W        W18833  41.933  44.065   3.983
47163W        W18834  14.171  23.536  11.918
47164W        W18835   3.653  34.042  11.885
47165W        W18836  13.294  28.978   4.099
47166W        W18837  33.671  13.355   1.052
47167W        W18838   1.413  25.686   1.899
47168W        W18839  23.995  11.895  11.417
47169W        W18840  37.634  43.970   3.742
47170W        W18841  28.980  27.052   4.312
47171W        W18842   3.296  38.887   1.904
47172W        W18843  42.119   5.773   4.517
47173W        W18844  31.617  34.891   3.901
47174W        W18845  20.034   6.980   3.680
47175W        W18846  36.017   5.344  11.636
47176W        W18847  13.401  25.959   0.355
47177W        W18848   4.765  44.123   2.788
47178W        W18849  13.577  19.818  13.551
47179W        W18850  28.943   4.679   4.526
47180W        W18851  19.115  18.120   0.372
47181W        W18852   1.011  13.137   2.422
47182W        W18853  36.163  42.184  12.350
47183W        W18854  35.701  11.858  11.602
47184W        W18855  33.419  20.191  11.275
47185W        W18856  25.685  38.552   3.628
47186W        W18857  27.626  20.000  13.399
47187W        W18858  13.309   9.651  11.607
47188W        W18859  40.605  18.065  11.723
47189W        W18860  25.730  37.514  10.453
47190W        W18861   6.308  39.106   4.057
47191W        W18862  18.522  32.423  12.850
47192W        W18863  40.063  43.152   1.742
47193W        W18864   9.421  33.578  10.336
47194W        W18865  42.304  31.925   3.340
47195W        W18866   7.467  16.590  10.918
47196W        W18867  30.632  29.684   1.738
47197W        W18868  33.082  18.296  12.923
47198W        W18869  26.387  27.945   2.629
47199W        W18870   3.439  10.575   0.441
47200W        W18871   7.661  12.145  12.380
47201W        W18872   8.840  28.818  10.762
47202W        W18873  10.221  18.255   1.669
47203W        W18874  41.027   9.289   1.000
47204W        W18875   4.524  16.164   3.569
47205W        W18876  14.226   1.810  14.369
47206W        W18877   4.268  13.281  10.399
47207W        W18878  44.894   9.847  14.928
47208W        W18879  40.308  42.031   2.640
47209W        W18880   0.690  19.158  13.348
47210W        W18881  13.713  14.358  14.387
47211W        W18882  18.214  25.426   0.734
47212W        W18883  33.297  29.148   1.661
47213W        W18884  41.089   0.459   0.889
47214W        W18885  42.639  10.392   1.748
47215W        W18886  33.058  21.803  10.889
47216W        W18887  10.170  35.308   2.766
47217W        W18888   0.516  25.969  12.387
47218W        W18889  39.371  37.051   4.066
47219W        W18890  30.720  25.901   3.783
47220W        W18891   8.368   4.188   3.536
47221W        W18892  41.050  36.994   1.041
47222W        W18893  24.653  40.302  14.088
47223W        W18894  11.952  25.113   2.702
47224W        W18895  18.813   1.664   4.085
47225W        W18896   0.220  30.949   3.312
47226W        W18897   5.288  14.209   3.140
47227W        W18898  26.237  39.079   0.891
47228W        W18899   0.303  20.257   4.999
47229W        W18900   8.626  32.656   2.731
47230W        W18901   0.525  35.325   3.703
47231W        W18902   2.327   9.367   3.306
47232W        W18903  36.146   4.743  12.401
47233W        W18904  19.608  19.799  11.180
47234W        W18905   4.360  19.984  11.202
47235W        W18906  41.810   7.502   3.218
47236W        W18907  24.714   3.218   0.877
47237W        W18908  28.491  40.735  14.783
47238W        W18909  32.294  21.967   4.204
47239W        W18910  40.567  36.891  11.184
47240W        W18911  20.742  21.056   1.794
47241W        W18912  36.048  12.639   3.847
47242W        W18913  34.379  14.809  11.562
47243W        W18914  18.529  29.455   1.456
47244W        W18915  35.587  30.070  12.526
47245W        W18916   4.210  32.564  14.678
47246W        W18917   9.189  39.312   1.200
47247W        W18918  41.935  17.876   1.386
47248W        W18919  16.144  32.176   4.557
47249W        W18920  16.772  20.698  12.385
47250W        W18921   9.513  23.464   1.003
47251W        W18922  21.630  23.220  10.245
47252W        W18923  15.171   3.625   0.616
47253W        W18924  17.024  27.204   1.286
47254W        W18925  17.061  33.476   2.989
47255W        W18926  35.019  40.486  10.502
47256W        W18927  28.865  14.155   5.060
47257W        W18928  37.841  18.371   0.462
47258W        W18929  21.821  30.998  10.749
47259W        W18930   8.636  10.855  13.906
47260W        W18931  33.927  36.791  10.705
47261W        W18932  37.487  15.156   4.296
47262W        W18933   6.795   6.772  12.983
47263W        W18934  15.748  13.076  11.550
47264W        W18935  20.097  42.949  13.564
47265W        W18936   0.879  16.201   4.186
47266W        W18937   1.333   6.827  10.993
47267W        W18938  43.945  20.271   0.720
47268W        W18939  33.655  34.819  14.481
47269W        W18940   4.159  31.408  14.975
47270W        W18941  40.421  41.985   4.663
47271W        W18942  10.786   1.619   1.949
47272W        W18943  21.776  41.934  12.876
47273W        W18944  38.938   7.723   3.091
47274W        W18945   8.714   8.984  14.579
47275W        W18946  41.476  37.048   3.889
47276W        W18947  25.117  16.584  11.583
47277W        W18948  35.614  41.335   2.961
47278W        W18949  17.586  32.473   1.286
47279W        W18950   8.121  10.293   3.610
47280W        W18951  35.349  11.813  12.919
47281W        W18952  38.826   5.217   3.436
47282W        W18953  36.948  25.689   1.271
47283W        W18954  24.472   9.874   5.061
47284W        W18955  41.533   9.112  12.902
47285W        W18956   6.934  39.768   2.901
47286W        W18957  40.278  31.194  13.140
47287W        W18958   0.170  20.298  11.566
47288W        W18959  34.936  11.775   0.049
47289W        W18960   3.822   9.593  11.421
47290W        W18961  12.733   5.760   2.708
47291W        W18962  30.375  11.141   2.269
47292W        W18963  43.302   7.163  14.408
47293W        W18964  42.804  36.056  13.493
47294W        W18965   8.749   4.756   4.119
47295W        W18966  15.354  25.590  11.427
47296W        W18967  32.652  32.703  12.384
47297W        W18968   9.647  44.487  14.734
47298W        W18969  36.931  16.808  13.441
47299W        W18970  19.491  15.384  11.079
47300W        W18971  19.721   1.739   3.841
47301W        W18972   8.883   7.893   2.241
47302W        W18973  26.495  19.028  12.898
47303W        W18974  22.942   9.481  12.989
47304W        W18975  30.902   5.440   2.806
47305W        W18976  29.587   1.102  11.692
47306W        W18977  30.335   6.608   4.631
47307W        W18978   6.841  15.034  10.745
47308W        W18979  42.037   0.886  14.877
47309W        W18980  12.950  42.839   0.427
47310W        W18981  38.807  38.809   3.771
47311W        W18982  25.627  34.090  12.091
47312W        W18983  33.336   0.867  12.853
47313W        W18984  26.130  26.149  11.680
47314W        W18985   1.535  40.503   4.651
47315W        W18986  22.773  10.438   1.863
47316W        W18987  27.690   3.771  12.445
47317W        W18988   2.640   2.315   3.639
47318W        W18989  18.264  18.224  10.726
47319W        W18990  43.513  19.063   4.696
47320W        W18991  37.404  21.721   3.251
47321W        W18992  25.996  29.653   2.741
47322W        W18993  36.020  23.938   3.650
47323W        W18994  27.063  13.768   1.637
47324W        W18995  20.639  14.891   4.158
47325W        W18996  25.966   9.296   0.943
47326W        W18997  39.919   1.852  12.498
47327W        W18998  22.742  42.874   3.617
47328W        W18999  18.758  33.588   9.755
47329W        W19000  22.142  32.423   0.268
47330W        W19001  10.632  43.433  10.664
47331W        W19002  14.815  10.375   4.673
47332W        W19003  18.611  31.428   0.460
47333W        W19004   6.123  40.355  10.759
47334W        W19005  37.609  39.427  10.541
47335W        W19006  29.928  26.568   2.602
47336W        W19007   6.178  25.686   3.235
47337W        W19008  24.711   0.410   3.790
47338W        W19009  43.724  37.472  11.842
47339W        W19010  20.978  14.706  13.741
47340W        W19011  14.118  29.818   2.597
47341W        W19012  21.049  11.865   1.311
47342W        W19013  37.467  30.987   0.506
47343W        W19014  21.851   1.102   4.632
47344W        W19015   1.919  38.956  11.105
47345W        W19016  27.393   8.712  13.472
47346W        W19017  28.705  11.273  11.161
47347W        W19018  40.372  29.323   2.391
47348W        W19019  33.969   9.596   1.257
47349W        W19020  39.241  23.518   2.930
47350W        W19021   7.321  29.025  11.639
47351W        W19022  30.620  27.719   1.731
47352W        W19023  27.948  43.478  11.098
47353W        W19024  10.186  18.555   2.264
47354W        W19025  18.540   2.543  12.411
47355W        W19026  27.042   1.871  10.659
47356W        W19027  24.653  19.469  10.495
47357W        W19028  25.645  44.286  10.261
47358W        W19029  20.828  26.229   2.797
47359W        W19030   4.871  28.942   0.262
47360W        W19031   2.855   6.584   3.224
47361W        W19032  14.372   1.853   0.561
47362W        W19033  32.661  43.460   3.628
47363W        W19034  25.206  24.915   3.665
47364W        W19035  15.817  27.872   0.235
47365W        W19036  28.666  23.526  13.370
47366W        W19037  39.072  11.328   1.959
47367W        W19038  27.169  23.728   4.958
47368W        W19039  44.360  14.619  10.046
47369W        W19040  21.264  10.362  12.598
47370W        W19041  15.262  41.794  11.337
47371W        W19042  24.508  17.101   0.829
47372W        W19043  38.068  20.706   2.777
47373W        W19044  16.232  28.172  12.499
47374W        W19045  20.308  20.284   2.847
47375W        W19046   7.893   4.237  11.066
47376W        W19047  10.318  16.750   4.412
47377W        W19048  43.499  23.542   3.610
47378W        W19049  27.133  29.034  12.467
47379W        W19050  16.934  13.386   9.897
47380W        W19051  42.286  31.308  12.075
47381W        W19052   6.198  13.944  12.191
47382W        W19053   1.923  19.565   3.144
47383W        W19054  29.696  11.429   0.498
47384W        W19055  42.863  44.614  13.330
47385W        W19056  38.174  22.507   2.371
47386W        W19057   9.382  36.892  11.299
47387W        W19058  12.587  38.535   1.441
47388W        W19059  39.491  41.505  14.514
47389W        W19060   3.334  28.510  11.670
47390W        W19061  27.949  13.206  12.955
47391W        W19062  23.177   2.493   4.159
47392W        W19063   9.779  36.099  14.332
47393W        W19064  27.512   2.397   2.339
47394W        W19065   2.639  43.130  13.656
47395W        W19066  43.893   1.774  14.050
47396W        W19067   6.760  28.985  13.651
47397W        W19068  17.834  27.059  14.829
47398W        W19069  22.524  28.353  11.136
47399W        W19070  29.903  42.345  13.756
47400W        W19071   7.829   7.247   4.149
47401W        W19072  32.672  14.676  11.650
47402W        W19073  28.707  17.966   0.965
47403W        W19074  21.557   5.202  13.535
47404W        W19075   3.542  12.815  10.728
47405W        W19076  30.637  44.479   3.317
47406W        W19077  34.090  23.852   4.345
47407W        W19078   6.942   6.502  12.160
47408W        W19079  17.142  35.501   4.599
47409W        W19080  34.333  38.576   0.038
47410W        W19081  37.076  17.079   1.731
47411W        W19082  38.597  30.058  13.873
47412W        W19083  16.252   3.863  10.623
47413W        W19084  30.591   7.982   2.894
47414W        W19085  26.657  44.377   3.178
47415W        W19086   1.457  43.960   3.357
47416W        W19087   1.773  15.961   3.168
47417W        W19088   3.313  22.559   0.433
47418W        W19089   3.470  22.889   5.139
47419W        W19090   6.480  31.912  13.460
47420W        W19091   7.588  14.633  14.865
47421W        W19092   2.132   8.219   3.885
47422W        W19093   8.631  40.500  11.110
47423W        W19094  10.790  12.874  11.249
47424W        W19095   1.748  34.851   0.337
47425W        W19096  12.362  32.888   0.426
47426W        W19097  15.884  44.830  14.716
47427W        W19098   3.759  30.041   2.652
47428W        W19099  32.923   9.143  12.514
47429W        W19100  16.596   0.922  11.502
47430W        W19101  13.861  44.264   0.193
47431W        W19102  20.326  10.421  11.536
47432W        W19103  38.459  13.857  11.507
47433W        W19104  31.074  31.206   3.655
47434W        W19105  39.917  26.933   0.501
47435W        W19106  41.490  14.038  14.452
47436W        W19107  15.350   1.491   1.961
47437W        W19108   3.794  22.584   2.641
47438W        W19109   2.415  18.074  13.283
47439W        W19110  15.842  32.035   3.613
47440W        W19111  33.941   3.328  12.216
47441W        W19112  22.171  43.391  14.348
47442W        W19113   0.497  24.712   3.776
47443W        W19114  14.076  35.905   1.761
47444W        W19115  43.752   6.206   3.824
47445W        W19116   9.337  30.883  11.197
47446W        W19117  27.572  11.812   3.362
47447W        W19118   6.001   3.489  11.533
47448W        W19119  12.137  17.769   4.608
47449W        W19120  18.576   2.061  12.248
47450W        W19121  19.108   6.754  10.506
47451W        W19122  39.423  43.973   1.214
47452W        W19123  13.752  43.728  11.106
47453W        W19124   1.423  25.020   4.328
47454W        W19125  33.554  24.890  11.476
47455W        W19126  14.938   1.234   5.198
47456W        W19127  26.295   4.633   0.423
47457W        W19128   8.149  14.489  13.048
47458W        W19129   9.743  10.674   4.112
47459W        W19130  15.332  30.413  14.076
47460W        W19131  30.417  36.947   0.868
47461W        W19132  26.783  11.081   4.151
47462W        W19133  33.395  21.051  10.924
47463W        W19134   4.854  12.579  13.414
47464W        W19135  22.732   6.330  11.035
47465W        W19136  37.946  41.353   2.831
47466W        W19137  25.044  34.415   3.399
47467W        W19138  12.743  33.131  10.633
47468W        W19139  43.500  31.446  11.440
47469W        W19140  18.371  29.348   4.196
47470W        W19141  22.614  34.636   0.333
47471W        W19142   9.872  29.901   0.198
47472W        W19143  22.504  29.292   5.176
47473W        W19144   1.985  28.012  14.117
47474W        W19145  31.675  36.105  13.378
47475W        W19146   0.218  26.753   0.706
47476W        W19147   3.252   2.832  14.442
47477W        W19148  22.956  21.350  14.855
47478W        W19149  23.465  13.199   1.250
47479W        W19150  23.839  25.194   4.580
47480W        W19151   1.694   8.209  12.133
47481W        W19152  28.943  22.795   4.918
47482W        W19153  40.275  18.649  14.258
47483W        W19154  26.951  34.462  11.727
47484W        W19155  14.488  23.159  12.037
47485W        W19156  19.236  23.715   2.068
47486W        W19157  37.881  35.053   0.875
47487W        W19158  12.701  21.233   4.171
47488W        W19159  22.153   2.729   3.205
47489W        W19160  33.141   2.449   3.755
47490W        W19161  42.285  30.461  14.854
47491W        W19162  40.381  17.830   3.808
47492W        W19163   7.785  23.684   1.494
47493W        W19164  20.503   8.542  13.084
47494W        W19165  40.619  37.544  11.086
47495W        W19166  38.752  40.535   4.545
47496W        W19167  43.939   6.065   3.314
47497W        W19168  35.787  35.807  11.866
47498W        W19169  24.596   7.419  11.658
47499W        W19170  21.604  43.668  14.974
47500W        W19171  31.342  28.522   1.722
47501W        W19172  27.922   6.882  14.984
47502W        W19173   6.332   9.725   2.786
47503W        W19174  10.438   4.267  11.619
47504W        W19175  22.051  34.799   4.246
47505W        W19176  41.265  38.382   1.290
47506W        W19177  38.256  32.909   4.616
47507W        W19178  36.577  27.281   4.286
47508W        W19179  14.300  28.250  14.641
47509W        W19180   1.675  21.277   3.967
47510W        W19181  34.716  10.057  11.637
47511W        W19182   9.872  27.577   3.608
47512W        W19183  31.128  27.676   4.695
47513W        W19184  37.821  15.717   2.687
47514W        W19185  15.341  16.439   0.685
47515W        W19186  42.695  32.558   1.886
47516W        W19187  33.815  31.466  13.144
47517W        W19188  38.105  10.276   0.755
47518W        W19189  20.539  19.068   2.892
47519W        W19190   1.074  10.205   4.114
47520W        W19191  11.090   1.877  12.075
47521W        W19192   6.807  13.612  12.873
47522W        W19193   1.843  41.950   1.004
47523W        W19194  20.937  11.821   0.381
47524W        W19195   9.694   4.482  12.092
47525W        W19196  13.143  16.210  11.128
47526W        W19197  40.573   7.688   1.260
47527W        W19198  27.780  36.389   0.384
47528W        W19199  18.758  44.927  12.545
47529W        W19200  26.820  28.059   1.773
47530W        W19201  44.750  44.990   0.374
47531W        W19202  32.364  42.022   2.784
47532W        W19203  21.015  11.630   1.755
47533W        W19204  32.047  32.236   3.817
47534W        W19205   6.851  31.004  12.399
47535W        W19206   6.379   8.392   2.660
47536W        W19207  10.121  35.347   4.966
47537W        W19208  25.467  14.753   0.857
47538W        W19209   2.762   2.915   1.293
47539W        W19210  25.140  37.345  14.482
47540W        W19211  12.732  27.073  14.792
47541W        W19212  23.107  19.993   1.310
47542W        W19213  22.797  21.065  11.170
47543W        W19214  31.027  13.849   1.304
47544W        W19215  25.007  13.173   2.170
47545W        W19216  40.545  18.727  14.704
47546W        W19217  44.295  11.247  10.616
47547W        W19218  37.838   2.026   4.383
47548W        W19219  19.550  42.444   4.028
47549W        W19220   7.941  13.807   3.680
47550W        W19221  28.094  27.285   2.563
47551W        W19222  24.035  14.970  11.473
47552W        W19223  30.944  13.622   3.684
47553W        W19224  43.417  20.270  13.378
47554W        W19225  37.331  40.012   0.335
47555W        W19226  25.060   7.177  13.516
47556W        W19227  28.489  33.955  12.236
47557W        W19228  40.334  30.389   2.007
47558W        W19229  18.281  14.798   3.696
47559W        W19230  41.240  44.918  14.701
47560W        W19231  11.729  26.140  10.472
47561W        W19232  40.509  38.392  14.990
47562W        W19233  35.710   0.877   3.463
47563W        W19234  39.984   5.484  13.111
47564W        W19235  24.280  28.353   1.412
47565W        W19236  17.853  17.507  12.407
47566W        W19237  20.009  37.617   1.252
47567W        W19238  44.798  37.496   1.340
47568W        W19239  11.718  43.776   4.211
47569W        W19240   6.824   4.270   4.886
47570W        W19241  26.662  42.966  14.107
47571W        W19242   4.954  11.764   1.513
47572W        W19243  16.786  37.628  11.561
47573W        W19244  13.733   6.225   4.367
47574W        W19245  36.363  15.109  13.290
47575W        W19246  16.209   0.229  12.022
47576W        W19247  16.661  35.282   0.937
47577W        W19248  26.155   4.946  13.016
47578W        W19249  19.666  35.789  13.514
47579W        W19250  11.292   3.970   3.727
47580W        W19251  33.869   5.937   4.354
47581W        W19252  43.724  19.585  14.552
47582W        W19253  28.512  24.159  14.988
47583W        W19254  36.607   8.093  12.562
47584W        W19255  25.670  41.146  12.913
47585W        W19256  27.181   8.934   2.333
47586W        W19257  19.743   2.914   0.918
47587W        W19258  37.891   8.184   4.219
47588W        W19259   6.701  12.062   4.213
47589W        W19260  41.897  14.538   2.163
47590W        W19261  21.603  44.227   1.375
47591W        W19262  33.639  27.598   0.957
47592W        W19263  38.268  27.252   0.736
47593W        W19264  43.855  29.511   1.195
47594W        W19265  13.845  28.664  12.978
47595W        W19266  36.421  41.275   4.729
47596W        W19267  42.366  22.243   3.076
47597W        W19268   1.595  23.930   4.305
47598W        W19269  40.261  37.974   3.734
47599W        W19270  26.514   2.035  14.767
47600W        W19271  23.678   5.425  14.201
47601W        W19272   4.707  29.888  14.305
47602W        W19273  44.444   8.270  14.508
47603W        W19274   0.412   9.826  11.385
47604W        W19275  15.361  21.289   1.007
47605W        W19276  19.147  16.092  13.128
47606W        W19277   8.984  29.510  13.512
47607W        W19278  27.661   6.731   0.671
47608W        W19279  38.869  19.322  10.969
47609W        W19280  43.499   1.983  10.996
47610W        W19281   8.857   7.262   4.119
47611W        W19282  39.480  13.343  13.864
47612W        W19283  42.920   1.590  14.264
47613W        W19284   0.061  35.861   2.938
47614W        W19285  30.856  25.560   3.398
47615W        W19286   3.329  18.139  13.368
47616W        W19287  42.007   1.259  11.534
47617W        W19288  30.435  42.916  10.515
47618W        W19289  24.538  32.127   0.813
47619W        W19290  34.464  40.553  14.814
47620W        W19291  27.616  37.628   3.681
47621W        W19292  24.296  42.498   1.855
47622W        W19293   0.798   0.276  14.534
47623W        W19294  12.398   5.752   2.227
47624W        W19295  25.961  17.729   0.003
47625W        W19296  27.977  29.508  10.336
47626W        W19297   6.290  13.658  14.991
47627W        W19298  41.236  40.801  12.012
47628W        W19299  37.085  15.997   2.102
47629W        W19300  19.021  13.568   0.309
47630W        W19301  41.732  28.079   4.833
47631W        W19302  14.526  15.544   0.421
47632W        W19303  32.850  26.580   4.557
47633W        W19304   8.676  38.395  14.348
47634W        W19305  27.735  18.660  14.278
47635W        W19306  27.571   7.630   3.275
47636W        W19307  34.520   6.950  11.613
47637W        W19308  37.950  27.722  13.227
47638W        W19309  41.275  41.925   3.105
47639W        W19310  32.573  17.127  12.402
47640W        W19311  39.443  28.055   1.722
47641W        W19312  22.132  35.288   2.343
47642W        W19313   6.430  41.868   4.894
47643W        W19314  19.584  15.182   2.696
47644W        W19315   6.482   6.787   1.810
47645W        W19316   1.953  32.367   1.575
47646W        W19317  17.638   2.465  10.534
47647W        W19318  11.566  31.529  10.883
47648W        W19319  34.082   8.204   3.451
47649W        W19320  37.111  25.135  10.642
47650W        W19321  20.153   9.826   5.036
47651W        W19322  35.577  18.241   1.373
47652W        W19323  24.273  40.920  10.689
47653W        W19324  12.049   2.328  12.916
47654W        W19325  39.514  30.852   2.088
47655W        W19326  32.494  18.211   2.855
47656W        W19327   5.995  43.476   4.471
47657W        W19328  42.974  31.140  12.576
47658W        W19329  30.745  41.941  13.888
47659W        W19330  16.286   3.296  11.571
47660W        W19331   4.282   0.307  11.903
47661W        W19332  19.112  29.181  12.536
47662W        W19333  18.871   7.945   2.894
47663W        W19334  35.089  17.090  14.082
47664W        W19335  16.787  37.787  13.462
47665W        W19336  43.544  36.362  11.110
47666W        W19337  19.667   7.579  10.784
47667W        W19338  43.743  31.723  13.527
47668W        W19339  12.665  27.816   3.726
47669W        W19340  21.267  19.248   1.728
47670W        W19341  22.609   8.804  11.171
47671W        W19342  44.126  19.270   2.716
47672W        W19343  13.751  19.512  11.092
47673W        W19344   6.641  44.464  10.601
47674W        W19345  43.806  18.356   0.880
47675W        W19346  44.832  29.078  11.501
47676W        W19347   0.804   8.951   0.262
47677W        W19348  14.216   0.489   0.245
47678W        W19349  37.152  43.846  11.531
47679W        W19350  19.867  35.398   2.703
47680W        W19351  42.953  38.131   0.266
47681W        W19352   4.015  12.846  10.910
47682W        W19353   0.892  42.969  14.934
47683W        W19354  18.402  16.681  11.285
47684W        W19355  30.248  34.853   4.276
47685W        W19356   1.962   3.797  14.009
47686W        W19357  34.932  14.732  10.690
47687W        W19358  19.913  14.022   2.700
47688W        W19359  33.267  31.826   0.456
47689W        W19360  40.001  25.075  12.582
47690W        W19361  32.660  29.310  13.469
47691W        W19362  25.207  33.938  12.381
47692W        W19363   3.415  13.600  11.045
47693W        W19364  26.025  23.213   3.299
47694W        W19365  36.987  35.326  12.244
47695W        W19366  20.131  23.567  12.670
47696W        W19367   6.360  40.436   2.180
47697W        W19368  25.920  24.181  11.086
47698W        W19369  36.955  29.193   3.908
47699W        W19370  16.074  36.070  11.218
47700W        W19371   0.492   5.722   0.162
47701W        W19372   5.155  18.167   2.943
47702W        W19373   6.326  19.047  12.132
47703W        W19374  27.138  30.558  14.322
47704W        W19375   6.868  35.830  11.874
47705W        W19376  10.335  12.328  11.987
47706W        W19377  26.575  34.565   2.233
47707W        W19378  11.173   6.835  13.046
47708W        W19379  15.320   6.722   3.288
47709W        W19380  38.881  20.167   2.769
47710W        W19381  37.964  20.029   2.256
47711W        W19382   8.322  10.259  14.491
47712W        W19383  14.254  27.939   2.765
47713W        W19384  44.784  20.737   0.439
47714W        W19385  14.606  43.774   3.763
47715W        W19386  13.327  12.269  12.879
47716W        W19387  32.498  43.448  10.598
47717W        W19388  22.274  25.191   5.302
47718W        W19389  22.628  30.676   4.095
47719W        W19390  31.561  12.256  10.772
47720W        W19391  25.617  12.061  14.333
47721W        W19392  13.456  20.095   0.191
47722W        W19393  18.108  20.833  13.045
47723W        W19394  36.085  36.647  14.345
47724W        W19395  41.783  44.025  14.774
47725W        W19396   9.204  34.676   4.727
47726W        W19397  23.015  13.198   5.235
47727W        W19398  11.075  28.937  14.202
47728W        W19399  42.500  37.542   0.985
47729W        W19400  25.794   5.804  12.540
47730W        W19401  30.942  12.147   1.474
47731W        W19402  17.212   2.206  10.685
47732W        W19403   0.767  28.674  13.700
47733W        W19404  36.355  21.254  13.565
47734W        W19405  24.674  31.094   0.807
47735W        W19406  21.795  40.016  10.222
47736W        W19407  17.750  33.029   2.447
47737W        W19408  38.351  12.419  14.719
47738W        W19409   2.877  23.574  10.496
47739W        W19410   9.280  33.621  13.847
47740W        W19411   1.363  26.663  12.144
47741W        W19412  41.782   5.850   0.796
47742W        W19413  32.337  41.750  11.042
47743W        W19414  32.928  15.299   3.209
47744W        W19415  23.879  44.919  14.872
47745W        W19416   2.344  32.334   0.719
47746W        W19417  19.301  10.283   5.041
47747W        W19418  10.837  25.496   4.890
47748W        W19419  43.290  18.313   4.049
47749W        W19420  26.596   1.320  13.045
47750W        W19421  26.049  44.794  13.791
47751W        W19422  34.927  18.964  12.062
47752W        W19423  23.582   5.879   3.449
47753W        W19424  10.183  17.776  11.653
47754W        W19425  20.242  38.970  11.513
47755W        W19426   2.894  26.936  14.349
47756W        W19427   9.303  32.924   4.333
47757W        W19428  40.864   6.432   4.786
47758W        W19429  41.075   7.171  12.023
47759W        W19430  33.579  14.165  14.015
47760W        W19431  39.564  23.204   0.713
47761W        W19432   8.474  30.463  12.904
47762W        W19433  23.671   1.490  14.566
47763W        W19434  27.574  39.361   3.246
47764W        W19435   6.093   2.636   2.659
47765W        W19436  12.220  33.355   4.112
47766W        W19437  22.583  36.509   0.829
47767W        W19438   1.158   9.793   2.630
47768W        W19439  30.630   2.262   2.734
47769W        W19440  15.562  28.660   1.482
47770W        W19441  42.987  41.489   2.674
47771W        W19442  29.129  33.005  14.435
47772W        W19443  33.511  43.238  10.796
47773W        W19444  37.501  19.013   3.437
47774W        W19445  25.569  28.036   2.787
47775W        W19446  25.573  19.089   2.935
47776W        W19447  14.354  33.325  11.002
47777W        W19448  26.715  19.359   5.235
47778W        W19449  39.042  26.140   3.579
47779W        W19450  20.104  26.532  12.050
47780W        W19451  39.028   5.468   1.807
47781W        W19452  25.971  28.149   0.424
47782W        W19453  36.523   6.279   3.625
47783W        W19454   3.142  21.812  10.236
47784W        W19455  41.677   1.681  13.365
47785W        W19456  32.535  40.838   1.255
47786W        W19457  38.903  18.312   1.220
47787W        W19458  32.671   3.500   0.593
47788W        W19459  14.765  15.770  10.544
47789W        W19460  32.501   3.423   0.098
47790W        W19461  41.627   0.938   2.401
47791W        W19462  35.144  28.464   4.189
47792W        W19463  24.527  38.877   2.318
47793W        W19464  41.368  35.062   2.374
47794W        W19465  16.086  44.165  14.960
47795W        W19466  34.960  37.998  13.054
47796W        W19467  18.227  19.799   1.908
47797W        W19468   2.934  36.951   3.549
47798W        W19469  37.848  34.520   2.093
47799W        W19470   0.742   5.308   3.320
47800W        W19471  21.992  40.755   1.269
47801W        W19472   8.361  23.343  14.529
47802W        W19473  37.126  12.731   0.509
47803W        W19474  21.254  22.300  13.834
47804W        W19475  34.045   6.147  14.198
47805W        W19476  18.191  14.075   3.060
47806W        W19477  35.630   3.728   0.327
47807W        W19478  13.180  15.667  11.021
47808W        W19479   5.808   2.822   3.146
47809W        W19480  16.024  10.032  14.518
47810W        W19481  21.660  35.577  14.429
47811W        W19482  24.566  39.575  10.140
47812W        W19483   1.048  29.775  12.708
47813W        W19484  19.763   2.521   4.106
47814W        W19485  10.240  23.207   1.010
47815W        W19486   1.735  25.144  12.069
47816W        W19487  19.674  41.893  14.816
47817W        W19488  16.045  13.136  12.930
47818W        W19489  16.829  31.420   0.961
47819W        W19490  19.632   9.922   0.304
47820W        W19491  16.712   5.251   5.025
47821W        W19492   2.910  42.052   0.270
47822W        W19493  22.765  31.502   4.791
47823W        W19494   5.486   9.684  14.699
47824W        W19495  27.758  19.334  11.193
47825W        W19496  24.079  39.042   2.508
47826W        W19497  13.608   8.192  10.920
47827W        W19498   2.374   8.197   2.474
47828W        W19499  21.042  13.280  12.789
47829W        W19500   9.125  17.483  11.695
47830W        W19501   0.002  41.303  14.172
47831W        W19502  35.302  41.746  11.129
47832W        W19503  17.240  26.005   0.012
47833W        W19504   5.510  27.182   4.930
47834W        W19505  26.166   2.901   4.610
47835W        W19506  36.940   3.925  11.562
47836W        W19507  35.979   6.363   2.932
47837W        W19508  21.189  32.314   4.587
47838W        W19509   3.378  20.944   4.128
47839W        W19510  27.447   7.847   1.371
47840W        W19511   7.315   6.678   2.830
47841W        W19512  11.895  30.149   2.220
47842W        W19513  24.814  22.020  10.530
47843W        W19514  10.409  15.189  13.117
47844W        W19515  39.367  36.639   0.407
47845W        W19516  31.348   9.732  13.055
47846W        W19517  32.563   1.238   0.209
47847W        W19518  37.503  43.235   2.848
47848W        W19519  21.669  35.068   2.264
47849W        W19520  33.622  37.961  10.290
47850W        W19521  37.162  18.635  10.710
47851W        W19522  31.510  16.591  10.278
47852W        W19523   0.314  42.231  13.298
47853W        W19524   2.348  40.785  14.116
47854W        W19525  33.575  20.300   0.480
47855W        W19526  23.815  13.334   2.772
47856W        W19527   4.336  19.172  12.206
47857W        W19528   6.946  27.522   1.440
47858W        W19529   5.668   7.358   1.592
47859W        W19530  10.067   6.858  11.900
47860W        W19531   3.223  30.290   0.802
47861W        W19532   4.718  29.699  13.067
47862W        W19533  44.765  39.887  10.171
47863W        W19534  30.658   8.659   3.976
47864W        W19535  37.999  21.810  12.957
47865W        W19536   6.963  35.623  11.060
47866W        W19537  19.642  26.145  12.592
47867W        W19538   9.423  17.971   2.136
47868W        W19539  28.992   1.752  13.047
47869W        W19540   5.114  39.609   3.683
47870W        W19541   3.773  38.588   2.365
47871W        W19542  21.857  21.111  13.024
47872W        W19543  33.324  42.367   3.813
47873W        W19544  27.499  30.067   2.331
47874W        W19545  34.389  18.416   1.969
47875W        W19546  38.116  11.068  11.270
47876W        W19547  18.080  29.043   0.636
47877W        W19548  19.768  28.331  14.424
47878W        W19549  18.803  27.444   1.444
47879W        W19550  14.349  10.649   1.216
47880W        W19551  15.245   6.290   4.073
47881W        W19552  16.051  13.799   4.533
47882W        W19553  27.119  40.975   2.909
47883W        W19554  25.648   7.126  13.006
47884W        W19555  15.122  27.916  11.092
47885W        W19556  22.091   2.909  11.216
47886W        W19557   0.645  38.492  14.230
47887W        W19558   8.310  18.342   3.770
47888W        W19559   8.680  35.010   4.113
47889W        W19560   8.827   4.311   4.473
47890W        W19561  12.103   1.903  14.836
47891W        W19562  21.499  36.022   2.440
47892W        W19563  35.889  10.201  13.538
47893W        W19564  12.211  35.371  12.366
47894W        W19565  17.374  10.450   5.242
47895W        W19566  16.816  21.013  14.796
47896W        W19567  17.884  25.357   2.872
47897W        W19568  16.159  39.564   0.782
47898W        W19569  32.187  32.973   4.615
47899W        W19570  35.755  21.697   0.210
47900W        W19571  43.059  25.207  12.277
47901W        W19572  27.477  20.723   4.934
47902W        W19573  18.682   1.742  10.740
47903W        W19574   7.438  12.204  14.731
47904W        W19575  24.486  23.171  12.371
47905W        W19576  42.494  14.682  14.204
47906W        W19577  14.822  20.511   0.813
47907W        W19578  33.933   4.384   4.235
47908W        W19579   0.002  44.478  13.972
47909W        W19580  15.142  21.984  11.582
47910W        W19581  10.272  39.013  14.868
47911W        W19582  43.283   6.465   1.783
47912W        W19583  29.597  10.946  12.116
47913W        W19584  33.595  35.940   2.342
47914W        W19585  32.452  21.720  11.604
47915W        W19586  14.146  14.175  13.041
47916W        W19587  12.105  20.916  11.129
47917W        W19588  35.645   5.789  13.004
47918W        W19589  42.544  36.029   0.288
47919W        W19590  38.071   0.045  11.136
47920W        W19591  41.520  35.057   4.599
47921W        W19592  10.296  31.050   1.363
47922W        W19593  28.628   9.841   5.185
47923W        W19594   8.398  27.069  13.997
47924W        W19595  39.989   0.909  13.331
47925W        W19596   2.366  30.330   0.693
47926W        W19597   3.988  40.788  13.916
47927W        W19598  24.540   6.935  11.471
47928W        W19599   5.311  29.189  12.489
47929W        W19600  33.620  17.831  10.374
47930W        W19601   8.841   0.556  11.946
47931W        W19602  23.117   8.696   4.251
47932W        W19603   0.228  39.548  11.214
47933W        W19604  23.055  18.483  14.400
47934W        W19605  21.249  27.925  14.822
47935W        W19606  25.630  38.088  13.798
47936W        W19607   9.475  30.166   4.128
47937W        W19608  10.637  43.004   4.019
47938W        W19609  16.102  35.656  12.176
47939W        W19610  23.058  44.890  12.699
47940W        W19611  34.141  21.780  12.596
47941W        W19612  27.917  29.530  13.968
47942W        W19613   8.948  16.243   4.166
47943W        W19614  38.078  22.652  14.367
47944W        W19615   7.805   1.198  13.394
47945W        W19616  27.641  24.764   0.868
47946W        W19617   4.270   7.438   3.681
47947W        W19618  40.600  39.254  14.368
47948W        W19619  29.001  18.180  11.271
47949W        W19620   0.658  31.741   2.326
47950W        W19621  23.245  44.915   2.816
47951W        W19622  41.430  30.699   0.555
47952W        W19623  10.842  34.621  10.966
47953W        W19624  42.917   7.188  11.797
47954W        W19625  16.302  20.652  12.562
47955W        W19626   9.269  34.623  13.798
47956W        W19627  39.598   4.940   1.424
47957W        W19628  12.360  30.019   1.312
47958W        W19629  35.823   2.815  11.500
47959W        W19630  10.240   7.318   0.821
47960W        W19631   3.192  16.161   0.892
47961W        W19632   2.872   0.876  12.784
47962W        W19633   3.785  36.958   2.703
47963W        W19634  20.729  12.686   4.093
47964W        W19635  17.181  16.835  10.764
47965W        W19636  16.738  37.494  10.295
47966W        W19637   1.470  42.988  14.946
47967W        W19638  23.943  15.732   2.837
47968W        W19639  41.341   4.903   3.688
47969W        W19640   5.491  43.486   0.821
47970W        W19641  12.722   4.244   3.333
47971W        W19642  36.995  17.959  12.908
47972W        W19643  32.233  32.153   4.617
47973W        W19644  17.676  33.873   2.583
47974W        W19645  21.187  11.907   5.079
47975W        W19646  44.674  43.451   2.148
47976W        W19647  31.459   5.738   0.433
47977W        W19648  19.608  18.956   4.725
47978W        W19649   6.681  10.043   1.305
47979W        W19650  11.894  22.514   0.998
47980W        W19651  33.418  11.604  11.916
47981W        W19652   8.089  31.327   1.838
47982W        W19653  21.067  37.983   4.692
47983W        W19654  20.174  15.904   4.549
47984W        W19655  24.034  43.968  11.632
47985W        W19656  12.368  36.453  13.368
47986W        W19657  32.554  19.174  13.567
47987W        W19658  36.571  31.673  14.915
47988W        W19659  16.498  42.848  13.144
47989W        W19660  29.605   3.222  12.429
47990W        W19661  34.139   3.727  11.949
47991W        W19662   9.361  22.621   2.932
47992W        W19663  22.587  26.514  11.138
47993W        W19664  25.455   0.127   4.107
47994W        W19665  29.134  30.624   2.834
47995W        W19666   1.715  39.801  12.176
47996W        W19667  17.653  34.564  14.797
47997W        W19668   8.401  17.158   2.361
47998W        W19669  43.741  39.922   3.176
47999W        W19670  23.596  11.331  14.531
48000W        W19671  32.457  41.858   0.750
48001W        W19672  30.550  30.723   0.518
48002W        W19673  24.748   8.441   4.548
48003W        W19674  30.098  43.968   1.663
48004W        W19675   4.444  40.600   1.841
48005W        W19676  39.400  28.529  13.043
48006W        W19677  16.727  27.725  13.745
48007W        W19678  34.408  29.894  12.064
48008W        W19679   9.295   3.643  11.697
48009W        W19680   0.824  27.195   2.279
48010W        W19681  13.181  36.517   2.097
48011W        W19682  41.552  39.432  10.652
48012W        W19683  19.650  36.571   4.664
48013W        W19684  20.996  28.236   0.742
48014W        W19685  17.553  17.302   1.586
48015W        W19686  13.643   0.225   4.598
48016W        W19687  41.480  20.222  13.954
48017W        W19688  35.994  40.357   1.485
48018W        W19689  35.256  13.695   4.223
48019W        W19690  44.309  13.284   3.568
48020W        W19691   2.929  37.761   4.165
48021W        W19692   5.856   4.971   4.835
48022W        W19693  32.508  19.243   0.524
48023W        W19694  42.926  41.463   1.778
48024W        W19695  31.731  38.400   0.303
48025W        W19696  41.990   6.845   3.888
48026W        W19697  30.158  15.986   2.979
48027W        W19698  37.778  43.128  11.143
48028W        W19699   2.394  37.023   3.661
48029W        W19700  37.714  21.342   4.159
48030W        W19701   9.636  27.125   1.718
48031W        W19702  22.523  33.554   0.270
48032W        W19703  13.286   1.843   3.800
48033W        W19704  21.629   7.301   2.264
48034W        W19705  39.621  18.687  12.614
48035W        W19706  43.907  11.618  11.109
48036W        W19707  11.683  32.395  13.503
48037W        W19708  27.477   5.796   5.010
48038W        W19709  24.877  20.742   0.943
48039W        W19710  40.757  29.109   3.676
48040W        W19711  13.599  43.885  14.890
48041W        W19712  11.807  14.113   1.902
48042W        W19713  13.619  19.028  13.938
48043W        W19714  31.718   9.432   0.197
48044W        W19715  20.624  37.572   2.950
48045W        W19716  44.439  15.234   4.192
48046W        W19717  44.499  15.875   3.577
48047W        W19718   1.814  31.326  13.376
48048W        W19719  36.523  12.727  13.951
48049W        W19720   2.924  26.163  14.894
48050W        W19721  24.107  32.078   2.186
48051W        W19722  43.239   7.391   0.655
48052W        W19723   5.289  38.870   3.763
48053W        W19724  35.552   7.705   1.467
48054W        W19725  12.065  23.702   4.398
48055W        W19726  35.891  13.139   0.648
48056W        W19727  24.652  14.209  10.551
48057W        W19728   8.312  19.578  10.797
48058W        W19729  18.088  21.330  12.817
48059W        W19730  28.546  32.128  12.960
48060W        W19731   3.959  13.611  13.477
48061W        W19732  39.512  31.054  13.360
48062W        W19733  37.073  18.208   4.718
48063W        W19734  43.026  36.472   3.602
48064W        W19735   9.238  35.692  14.724
48065W        W19736  22.520  16.658   4.416
48066W        W19737  26.737  35.827  11.162
48067W        W19738   0.830  15.267   4.820
48068W        W19739  37.931   7.185   1.751
48069W        W19740  43.377  34.911  10.986
48070W        W19741  14.805   7.876   5.814
48071W        W19742  34.491  27.597   2.137
48072W        W19743  34.610  31.539   1.832
48073W        W19744  39.627  15.335   4.154
48074W        W19745  41.683  24.800  10.344
48075W        W19746  13.782  21.225   3.456
48076W        W19747  37.974  32.089   9.798
48077W        W19748  36.568  44.953  14.057
48078W        W19749  20.257  32.923  11.002
48079W        W19750   9.210  10.829  10.636
48080W        W19751  39.036  43.371   2.783
48081W        W19752  26.652  17.575  11.018
48082W        W19753  34.479  37.881  10.119
48083W        W19754  15.966  10.253   0.007
48084W        W19755   3.159   5.142  13.394
48085W        W19756  24.262  28.803  11.538
48086W        W19757  15.140   6.655   0.513
48087W        W19758   0.396   0.039   1.635
48088W        W19759  43.361   9.322   0.124
48089W        W19760   8.186   8.673   4.196
48090W        W19761  19.836   8.802   4.331
48091W        W19762  26.443  12.634  14.195
48092W        W19763  42.832  19.991   2.368
48093W        W19764  26.944  35.323  10.695
48094W        W19765  19.632   1.538  13.059
48095W        W19766  32.484  15.083   2.978
48096W        W19767  16.824  13.773   5.621
48097W        W19768  31.984  20.654   4.560
48098W        W19769  13.396  10.761  12.607
48099W        W19770  25.920  39.791  11.640
48100W        W19771  39.516  42.305  12.854
48101W        W19772  24.203   2.308  14.714
48102W        W19773  30.894  11.509  11.702
48103W        W19774   7.374  14.952   4.240
48104W        W19775  18.158  28.454   4.814
48105W        W19776  15.895   7.369   3.755
48106W        W19777  40.625  21.517  14.772
48107W        W19778  42.418  34.033  10.764
48108W        W19779   6.904   1.639   0.904
48109W        W19780  18.155   1.274   0.197
48110W        W19781  16.863  38.070  13.039
48111W        W19782  24.715  40.971   2.882
48112W        W19783   4.155   7.759   4.601
48113W        W19784  13.909   7.848  14.790
48114W        W19785  29.235  18.533  12.840
48115W        W19786  38.249   5.807  11.483
48116W        W19787  21.193  25.949  13.626
48117W        W19788  29.991  39.900  11.627
48118W        W19789  33.451  40.329   3.313
48119W        W19790  39.023  24.946   3.643
48120W        W19791  15.766  38.979   0.513
48121W        W19792  28.605  36.476   3.103
48122W        W19793  44.746  39.540   3.785
48123W        W19794  37.035  24.246   1.350
48124W        W19795   8.645  16.187   1.423
48125W        W19796  22.251  32.211   2.788
48126W        W19797  22.917  42.029   3.321
48127W        W19798  31.537  41.816   0.372
48128W        W19799   7.758  35.905   2.419
48129W        W19800  42.668  11.941   0.788
48130W        W19801  22.213  21.346   3.183
48131W        W19802  23.066  32.220  11.035
48132W        W19803  36.860  19.844   0.916
48133W        W19804  23.290  38.143   2.338
48134W        W19805  11.463   5.258  11.789
48135W        W19806  32.103  30.572  12.602
48136W        W19807  30.480  13.576   0.353
48137W        W19808  21.417  13.808   3.798
48138W        W19809  13.916  33.628  10.948
48139W        W19810  28.281  35.945  14.221
48140W        W19811   6.385  37.502  12.030
48141W        W19812  19.025  26.117   4.260
48142W        W19813   0.821  34.517   0.923
48143W        W19814   2.941  33.609  13.129
48144W        W19815  36.486   0.822  14.341
48145W        W19816  10.322  39.305  12.545
48146W        W19817   7.408  11.258   2.282
48147W        W19818  31.924  18.615   5.484
48148W        W19819  10.556  22.778   1.888
48149W        W19820  28.403  39.430  13.060
48150W        W19821  36.917  14.099   2.236
48151W        W19822  28.952  20.229  14.722
48152W        W19823   5.704   0.217   2.292
48153W        W19824   8.673   9.680   3.614
48154W        W19825  31.178  16.816  12.654
48155W        W19826  10.464   5.510   1.264
48156W        W19827  30.944  42.612  11.140
48157W        W19828  27.123  26.423   0.354
48158W        W19829  27.202  27.430   1.588
48159W        W19830   2.985  11.137  13.953
48160W        W19831  31.167  14.824  14.095
48161W        W19832   0.487  19.263   2.213
48162W        W19833   6.388  24.160  14.992
48163W        W19834  21.420  26.452  10.313
48164W        W19835  38.093   1.497   3.246
48165W        W19836  12.681  34.092  12.184
48166W        W19837  15.742  35.425  10.919
48167W        W19838  12.037  22.924  13.043
48168W        W19839  12.333  30.392  12.013
48169W        W19840  19.320  44.540   3.575
48170W        W19841  24.552  41.160   4.888
48171W        W19842  21.403   8.758  12.961
48172W        W19843   3.197   0.353  12.603
48173W        W19844  15.589  15.275  10.543
48174W        W19845  20.033  39.330   2.655
48175W        W19846  27.694  39.084  12.624
48176W        W19847   9.675   5.684  10.843
48177W        W19848  15.533  42.390  14.529
48178W        W19849   7.154  32.977  14.398
48179W        W19850  31.428  44.593  11.424
48180W        W19851   2.284   4.476  13.933
48181W        W19852  41.037  33.613   0.425
48182W        W19853  22.064  29.903   4.891
48183W        W19854  21.382  23.684  10.169
48184W        W19855  18.727  39.583   3.761
48185W        W19856  39.640  41.505   5.118
48186W        W19857   6.223  25.572   0.772
48187W        W19858  30.063   0.980  12.045
48188W        W19859   7.136  12.758  12.081
48189W        W19860   2.822  43.439   2.855
48190W        W19861  17.695   7.187  12.809
48191W        W19862  41.305  25.507  14.175
48192W        W19863  31.191  16.777  12.109
48193W        W19864  25.326  30.690  13.913
48194W        W19865   7.913  17.041   3.238
48195W        W19866   9.979  24.000   0.484
48196W        W19867  37.804   6.149   0.860
48197W        W19868  24.924  14.049   0.184
48198W        W19869  21.225  36.590   4.104
48199W        W19870  32.449  30.410   2.824
48200W        W19871  35.113  16.234   1.848
48201W        W19872  41.477  38.402  13.639
48202W        W19873  30.485  28.714  12.928
48203W        W19874  11.457  27.620   4.951
48204W        W19875  12.644  29.346   3.681
48205W        W19876   3.443  36.893  10.745
48206W        W19877  37.941   9.235  12.309
48207W        W19878  13.361  14.194   2.372
48208W        W19879  18.806  30.170  12.317
48209W        W19880  40.511  35.246  10.599
48210W        W19881  11.379  18.180  10.919
48211W        W19882  28.950  37.565  13.450
48212W        W19883  36.877  43.034  12.160
48213W        W19884  24.745  25.626   3.122
48214W        W19885  34.990   8.762   9.960
48215W        W19886  12.887  23.121   4.194
48216W        W19887  22.192  26.458   1.060
48217W        W19888  40.275  16.403  13.251
48218W        W19889  37.389  26.453   1.323
48219W        W19890   3.731  36.128   2.397
48220W        W19891  24.571  16.241   1.954
48221W        W19892  39.926   7.189   2.921
48222W        W19893  38.394  37.754   1.499
48223W        W19894  35.385   7.788   4.634
48224W        W19895  27.941  25.076   1.145
48225W        W19896  19.508  34.846   1.760
48226W        W19897  33.103   2.731   1.320
48227W        W19898   0.905  37.851   0.671
48228W        W19899  35.833   4.264   1.650
48229W        W19900  41.865  30.413   0.449
48230W        W19901  43.035  36.771   1.203
48231W        W19902  44.314  16.675  10.694
48232W        W19903  28.866  40.298   0.668
48233W        W19904  35.599  22.563   4.874
48234W        W19905  21.658  30.526   1.228
48235W        W19906  23.641  39.994   3.594
48236W        W19907  12.273  18.393  13.147
48237W        W19908  12.869  22.395  11.122
48238W        W19909  43.333   6.587   3.563
48239W        W19910  33.797   9.834  12.740
48240W        W19911  35.836  26.290  13.193
48241W        W19912   3.486  10.168   2.671
48242W        W19913  30.976  13.906   4.678
48243W        W19914  22.305   2.923   3.678
48244W        W19915  18.616   7.635   3.886
48245W        W19916  19.658  18.332  13.582
48246W        W19917  36.952  13.791  13.123
48247W        W19918  21.400  22.247   1.505
48248W        W19919  42.730  40.491   0.267
48249W        W19920  34.425  38.585   1.742
48250W        W19921  18.325  25.541   4.115
48251W        W19922  14.274  24.451   0.040
48252W        W19923   9.910  19.475  14.334
48253W        W19924  37.481  13.751  14.995
48254W        W19925  22.483  17.138  13.612
48255W        W19926   0.730  19.851  10.608
48256W        W19927  34.039  31.191  14.059
48257W        W19928  16.166  17.700  14.476
48258W        W19929  36.845   4.478  12.537
48259W        W19930  13.800  37.410   1.919
48260W        W19931   8.370  15.792  12.447
48261W        W19932  14.835  14.234  12.454
48262W        W19933  20.157  23.416  13.167
48263W        W19934   9.344   8.856   3.094
48264W        W19935  40.093   4.412  12.058
48265W        W19936   7.316  26.215   1.408
48266W        W19937  44.401  42.073   0.120
48267W        W19938  36.842  27.180  12.537
48268W        W19939  26.641  44.384   4.542
48269W        W19940  26.224  24.985   1.905
48270W        W19941  27.035  35.110  12.344
48271W        W19942  43.471  39.415   2.233
48272W        W19943  39.413   6.338   1.956
48273W        W19944  40.616  10.097  12.791
48274W        W19945  19.380  33.494   1.731
48275W        W19946  37.597  37.374   4.535
48276W        W19947  15.060   0.454   2.835
48277W        W19948  17.748  22.664  13.496
48278W        W19949  28.995  38.234   3.240
48279W        W19950  22.073  39.930   4.319
48280W        W19951  19.177   3.923   2.474
48281W        W19952  25.296   0.705   1.430
48282W        W19953  23.971   3.524   5.032
48283W        W19954  28.642  34.138   0.765
48284W        W19955   0.222  21.124   9.963
48285W        W19956  22.024  13.121   2.626
48286W        W19957  40.339   6.198   1.447
48287W        W19958  36.743  29.091   2.046
48288W        W19959  29.655  35.992   0.833
48289W        W19960  35.046  19.895  12.956
48290W        W19961   8.696  37.729   3.637
48291W        W19962   0.938  15.562   3.116
48292W        W19963   7.467  25.456   1.814
48293W        W19964  34.831  16.282   4.487
48294W        W19965  14.414  17.790   2.436
48295W        W19966  13.318  10.486   2.974
48296W        W19967  25.425  38.835  11.426
48297W        W19968   6.081   5.352  12.465
48298W        W19969  41.959  20.607  11.871
48299W        W19970  26.594  33.136  14.771
48300W        W19971  41.052  42.265   1.729
48301W        W19972   8.822  19.979  10.212
48302W        W19973   2.788  31.110   4.275
48303W        W19974  31.897  12.378   4.779
48304W        W19975  23.588   3.218   9.982
48305W        W19976  41.689   1.470   4.580
48306W        W19977   9.763  41.956   1.275
48307W        W19978  19.383   0.261   4.231
48308W        W19979   6.124  39.802  14.010
48309W        W19980   9.334   9.406   2.917
48310W        W19981  12.787  27.651   1.168
48311W        W19982  13.301  14.705   2.287
48312W        W19983  38.469  25.565  13.589
48313W        W19984  38.805  11.679   2.855
48314W        W19985   0.679  39.456  13.071
48315W        W19986  29.956  44.285  13.433
48316W        W19987  32.575  42.446   4.597
48317W        W19988   5.940  12.161   0.867
48318W        W19989   1.538  12.341   1.442
48319W        W19990  27.285  13.352   3.706
48320W        W19991   4.840  27.059   1.390
48321W        W19992  29.089  35.329  12.944
48322W        W19993  14.253   2.993  12.358
48323W        W19994  31.548  19.899  14.306
48324W        W19995   4.001  14.142  10.694
48325W        W19996  24.684  30.427   3.648
48326W        W19997  11.115  19.371   1.305
48327W        W19998  17.540   0.086  10.372
48328W        W19999  41.259   9.314   2.680
48329W        W20000  28.972  39.336   4.349
48330W        W20001  38.818  39.439  14.460
48331W        W20002   5.877  43.693   1.123
48332W        W20003   2.188  35.948  12.472
48333W        W20004  14.823   8.922  10.652
48334W        W20005  24.968   9.228  11.938
48335W        W20006  14.139   5.828  13.964
48336W        W20007  28.682   6.860  14.243
48337W        W20008  16.334  42.288  14.919
48338W        W20009  31.869  19.026  14.300
48339W        W20010   1.873  12.034   3.577
48340W        W20011  14.371   4.457   4.183
48341W        W20012  41.345  11.210   3.644
48342W        W20013  35.042  11.923  13.417
48343W        W20014  20.758  29.263  13.107
48344W        W20015  19.070  34.042  14.320
48345W        W20016  14.818   3.292  14.815
48346W        W20017  40.215  11.533  12.060
48347W        W20018  35.197  15.682  11.467
48348W        W20019   6.695   6.349  11.685
48349W        W20020  27.680  16.269  13.377
48350W        W20021  25.141   1.624   1.133
48351W        W20022  39.434  28.887   0.318
48352W        W20023  25.105  42.829  10.820
48353W        W20024  15.714  18.725  14.832
48354W        W20025   9.708  27.430  12.600
48355W        W20026  25.477  30.928  13.430
48356W        W20027  38.818  18.515  14.564
48357W        W20028  11.802  17.617  11.328
48358W        W20029  33.781  14.168  11.854
48359W        W20030  20.572  10.406  13.629
48360W        W20031   9.973  40.229   0.143
48361W        W20032   9.403  22.489  11.023
48362W        W20033   9.321  14.594  12.434
48363W        W20034  14.462  39.495  10.912
48364W        W20035  13.269  10.223  13.971
48365W        W20036  34.996  26.157   3.741
48366W        W20037   4.690   6.314   2.886
48367W        W20038  23.085   8.375  13.024
48368W        W20039  39.769  19.954  14.499
48369W        W20040  15.821  44.999  11.054
48370W        W20041  14.445  30.396  10.768
48371W        W20042  35.882  19.608   3.709
48372W        W20043  15.678  34.269  13.044
48373W        W20044  35.536   5.369  13.472
48374W        W20045  29.234  39.841   4.180
48375W        W20046   7.676  36.667  14.329
48376W        W20047  19.900  32.431  11.856
48377W        W20048  30.079  16.575  13.354
48378W        W20049  29.934  28.721   0.949
48379W        W20050   3.139  34.814  11.449
48380W        W20051   7.704  39.103   5.143
48381W        W20052  20.211   4.916  13.531
48382W        W20053  27.899  42.447   0.898
48383W        W20054  40.613  25.990  14.786
48384W        W20055  16.031  41.088   0.931
48385W        W20056  35.838  34.115   2.003
48386W        W20057  11.676  44.635   1.695
48387W        W20058  11.535  34.075   0.556
48388W        W20059  43.277   8.903   1.554
48389W        W20060  39.993  30.148  13.399
48390W        W20061   4.237  21.732   0.772
48391W        W20062  41.093  34.775   3.121
48392W        W20063  23.090  42.558   3.985
48393W        W20064  42.595  30.339   4.779
48394W        W20065  33.639  39.895  14.432
48395W        W20066  40.261  30.355  12.713
48396W        W20067  22.581  20.337  11.656
48397W        W20068  34.833  35.056  10.665
48398W        W20069  13.728  17.713   0.076
48399W        W20070  34.008  12.777   0.002
48400W        W20071  31.860  13.724  14.529
48401W        W20072  42.066  26.761   0.959
48402W        W20073  25.443  26.977  12.610
48403W        W20074  17.727  33.096   3.427
48404W        W20075  34.564  43.402   4.603
48405W        W20076  23.605  32.505  12.528
48406W        W20077  34.078  40.029  13.487
48407W        W20078  16.480  39.344  13.647
48408W        W20079  43.412  25.537   1.587
48409W        W20080  31.962  28.619   4.127
48410W        W20081  15.144   2.881  14.936
48411W        W20082  13.377  16.638  12.451
48412W        W20083   0.884  34.595  10.775
48413W        W20084  24.243   5.778   2.349
48414W        W20085  33.915  20.608   2.265
48415W        W20086  18.060  38.396  11.890
48416W        W20087  18.320  30.151   3.275
48417W        W20088  41.944  37.153   5.070
48418W        W20089  11.641   9.808  12.552
48419W        W20090  22.295  22.600   0.289
48420W        W20091  25.499  22.693   3.997
48421W        W20092   8.952  25.435   0.421
48422W        W20093  42.265  16.153   3.337
48423W        W20094  23.768  35.497  10.701
48424W        W20095  24.183  32.582  12.374
48425W        W20096  31.316  43.971  13.091
48426W        W20097   3.681  32.152   4.232
48427W        W20098  16.826   2.680   0.837
48428W        W20099   3.498  11.778  14.389
48429W        W20100   8.822  43.073  11.181
48430W        W20101  34.690  15.240  11.621
48431W        W20102  19.584  43.917   3.289
48432W        W20103   4.684  18.850  11.035
48433W        W20104  41.293  32.604   0.913
48434W        W20105  31.376  23.151  10.765
48435W        W20106  33.937  23.877   2.911
48436W        W20107  27.152   6.356  12.905
48437W        W20108  31.912  38.383  14.812
48438W        W20109  27.204  12.038  12.453
48439W        W20110  13.785   4.040  10.628
48440W        W20111   8.441  13.758  12.740
48441W        W20112  41.845  19.378  10.452
48442W        W20113  39.921  26.213  13.926
48443W        W20114  30.950   8.850  11.287
48444W        W20115  14.594  34.826   3.783
48445W        W20116  15.277   5.163  12.317
48446W        W20117   3.957  13.445  13.979
48447W        W20118  36.153  41.072   1.880
48448W        W20119  35.158  22.617  12.442
48449W        W20120  12.762  28.865   2.689
48450W        W20121   1.575  15.295   1.183
48451W        W20122   4.314  30.671   2.305
48452W        W20123  29.781  25.031   1.876
48453W        W20124   5.949   6.365  12.048
48454W        W20125  19.749  34.046   1.150
48455W        W20126   3.523  31.785   5.160
48456W        W20127  44.262  17.860  12.880
48457W        W20128  32.016   0.603   4.666
48458W        W20129  44.960  11.788   1.742
48459W        W20130  36.938  41.488   1.717
48460W        W20131  15.129   6.096  12.598
48461W        W20132  39.556  30.106  11.511
48462W        W20133  25.870  14.632   2.413
48463W        W20134   6.891  35.638  13.898
48464W        W20135  27.422   0.252   0.410
48465W        W20136  18.340  43.768   0.402
48466W        W20137  10.218  27.125   0.245
48467W        W20138  19.624  10.663  14.741
48468W        W20139  20.273  26.934  13.922
48469W        W20140  33.426  37.412   0.922
48470W        W20141  25.993  16.862  13.415
48471W        W20142  22.620  30.136   3.267
48472W        W20143  18.363  17.366  12.960
48473W        W20144  37.214  42.397  10.648
48474W        W20145  12.106  19.314   3.207
48475W        W20146  40.512  38.447   4.578
48476W        W20147   6.914  15.257   4.128
48477W        W20148  22.654  25.456  12.973
48478W        W20149  25.784  36.140   2.701
48479W        W20150  35.544  28.315  14.496
48480W        W20151   0.812  23.018   3.475
48481W        W20152   3.910  31.658   4.299
48482W        W20153   0.223  26.129   3.924
48483W        W20154  31.601  18.259   2.849
48484W        W20155  29.629  11.109  11.615
48485W        W20156   9.161  21.562  14.882
48486W        W20157  25.975   0.638  12.001
48487W        W20158  32.172   0.538  13.456
48488W        W20159  15.105   8.010   3.635
48489W        W20160  34.034  11.623  13.303
48490W        W20161  34.108  15.087   1.803
48491W        W20162  18.278  40.952   4.591
48492W        W20163  40.514   8.613   4.425
48493W        W20164  27.433  32.884  12.218
48494W        W20165  35.643  42.891  12.409
48495W        W20166  25.682  12.834  12.266
48496W        W20167  40.326   9.290   0.057
48497W        W20168  22.143  25.144  13.764
48498W        W20169  12.364   2.034  10.905
48499W        W20170  13.872  41.052   0.857
48500W        W20171  21.236   3.782  10.701
48501W        W20172  26.003   1.651   4.607
48502W        W20173  16.956   4.257  12.285
48503W        W20174   5.413  16.878  14.639
48504W        W20175  13.555  28.358   3.634
48505W        W20176  19.649  26.983   4.968
48506W        W20177  27.948   3.983   4.114
48507W        W20178   3.085  26.169   0.394
48508W        W20179  12.004  15.360  11.628
48509W        W20180   5.249  40.983  14.728
48510W        W20181  21.562   6.165   1.444
48511W        W20182  29.008  40.693   1.002
48512W        W20183   7.256  13.203  14.079
48513W        W20184  38.821  21.008  11.663
48514W        W20185   3.921  16.914  10.978
48515W        W20186  20.668   6.779   2.591
48516W        W20187  39.789  44.909  11.714
48517W        W20188   5.312   3.189  12.173
48518W        W20189  13.197  26.502  12.475
48519W        W20190   2.445  22.258  14.424
48520W        W20191  17.669  44.942  14.633
48521W        W20192   1.281   3.601   4.773
48522W        W20193  26.156  10.084  12.020
48523W        W20194  41.631  10.105   1.631
48524W        W20195  31.780   9.255   1.855
48525W        W20196   1.442  42.318  13.463
48526W        W20197  20.104   7.201   4.159
48527W        W20198  35.508  32.685  11.451
48528W        W20199   1.831  11.128  14.883
48529W        W20200  22.002   2.205   2.165
48530W        W20201  18.067   9.201   2.377
48531W        W20202  40.029   6.714   2.084
48532W        W20203  10.903   3.729  11.998
48533W        W20204  20.851   0.913   3.236
48534W        W20205  38.854  41.421  13.877
48535W        W20206  29.182   2.915  10.612
48536W        W20207   3.105  18.916   1.732
48537W        W20208   2.907  20.718  14.104
48538W        W20209  36.443  18.264  13.915
48539W        W20210   3.479   3.283   2.730
48540W        W20211  37.123  20.289  14.533
48541W        W20212  19.831  17.641  14.068
48542W        W20213   4.693  34.832   4.091
48543W        W20214  25.170   1.215   1.482
48544W        W20215  12.323  25.409  13.851
48545W        W20216  19.330  16.092   4.672
48546W        W20217  40.885   8.799  13.371
48547W        W20218  32.090  22.689   4.612
48548W        W20219  20.015  42.561  12.568
48549W        W20220  18.275  11.875   5.115
48550W        W20221   1.338  42.565  12.091
48551W        W20222  26.563   9.280  10.335
48552W        W20223  43.561  14.299   0.362
48553W        W20224  41.375  40.497   3.538
48554W        W20225  44.613  38.088  11.577
48555W        W20226  43.617  18.249  14.455
48556W        W20227  21.176  35.834   2.917
48557W        W20228  18.105   4.245  11.974
48558W        W20229   2.860  37.311  10.470
48559W        W20230  24.900  34.469  12.929
48560W        W20231  12.353  18.938   2.622
48561W        W20232  10.273  11.338  13.056
48562W        W20233  14.809  44.379  10.927
48563W        W20234  30.314  15.541   2.779
48564W        W20235  35.988  28.959  14.837
48565W        W20236  26.387  18.756  13.350
48566W        W20237  39.203  36.010   4.771
48567W        W20238  29.973  38.968   3.235
48568W        W20239   7.662  42.793  11.646
48569W        W20240  32.670  42.391  11.567
48570W        W20241  42.157  29.089   0.858
48571W        W20242  40.232  29.883  12.997
48572W        W20243  38.940  16.936  12.017
48573W        W20244  25.716  19.578  14.508
48574W        W20245  38.437  12.792   0.047
48575W        W20246  30.657   3.041   3.821
48576W        W20247   1.487  22.757   5.444
48577W        W20248  20.803  34.521  11.275
48578W        W20249  11.673  40.508  11.549
48579W        W20250  30.613  31.152   0.249
48580W        W20251  42.290   5.784   2.675
48581W        W20252  30.643  16.871  14.904
48582W        W20253  38.983  24.218  14.076
48583W        W20254  25.130   7.804   1.736
48584W        W20255  24.802   4.193  10.703
48585W        W20256  17.732  35.612   2.867
48586W        W20257  12.047   5.821  10.990
48587W        W20258  26.448  19.764   4.285
48588W        W20259  41.885  24.504   2.641
48589W        W20260   8.293  32.436   3.649
48590W        W20261  36.302   8.343   1.356
48591W        W20262   7.117  13.568  11.011
48592W        W20263  43.323  14.738  10.059
48593W        W20264  43.350  27.571   3.646
48594W        W20265  29.089  38.054  13.476
48595W        W20266  32.735  34.992   4.537
48596W        W20267  36.538  33.842   1.495
48597W        W20268  27.035  11.279  13.052
48598W        W20269  26.736  35.965  11.961
48599W        W20270   8.729  42.564  14.498
48600W        W20271   2.422  38.983  11.104
48601W        W20272  15.608  17.525   4.720
48602W        W20273  27.001  12.347  10.543
48603W        W20274  37.502  11.881  14.787
48604W        W20275   3.275   0.293  11.723
48605W        W20276   1.063  27.560   1.698
48606W        W20277  12.777  24.262   5.133
48607W        W20278  29.326  17.019  11.708
48608W        W20279  40.438  19.228  13.808
48609W        W20280  19.981   7.244  14.240
48610W        W20281   5.320   3.928  13.021
48611W        W20282  24.695   7.973  13.467
48612W        W20283  43.621   3.043   0.462
48613W        W20284  27.959  35.032  12.324
48614W        W20285  34.104  15.489   3.276
48615W        W20286  10.101  21.170   1.019
48616W        W20287  18.153  41.782  14.844
48617W        W20288  25.671   3.402   2.014
48618W        W20289  19.707  20.060   0.198
48619W        W20290  17.339  18.217   3.646
48620W        W20291  44.850  41.540  10.926
48621W        W20292  40.898   9.224  10.682
48622W        W20293  43.576   4.890  13.096
48623W        W20294  16.806  27.735  10.873
48624W        W20295   6.817  43.786  11.910
48625W        W20296   4.032   3.730   3.340
48626W        W20297   4.477  18.434  14.514
48627W        W20298  10.433  10.519   1.379
48628W        W20299   5.349  34.099   3.758
48629W        W20300  22.971   9.376  10.611
48630W        W20301  19.519  33.237  14.294
48631W        W20302  15.278  40.025  12.448
48632W        W20303  14.791  38.647   2.669
48633W        W20304   5.489   4.123   4.111
48634W        W20305  10.969  23.276  11.475
48635W        W20306   2.698  17.239  14.470
48636W        W20307   3.464  16.279   2.861
48637W        W20308   1.989  40.244  14.498
48638W        W20309   3.232  26.612   2.940
48639W        W20310  27.567  25.671  13.740
48640W        W20311  23.871   3.769  12.765
48641W        W20312  29.063  32.148   2.723
48642W        W20313  20.081  43.966  13.970
48643W        W20314  27.495  10.758  11.527
48644W        W20315   9.620   4.430   2.361
48645W        W20316  42.837  32.950  12.717
48646W        W20317  40.293  10.318   1.274
48647W        W20318  31.589  35.031   2.432
48648W        W20319  15.798  39.923  11.103
48649W        W20320  33.966  33.095  13.563
48650W        W20321   7.100  33.385   4.328
48651W        W20322   6.146  18.346  11.023
48652W        W20323  42.478  40.962  14.569
48653W        W20324  31.047  27.446   1.025
48654W        W20325  36.988  20.088  14.047
48655W        W20326  17.711  21.968   2.481
48656W        W20327  42.358  39.616   2.783
48657W        W20328  29.102   6.393   1.962
48658W        W20329  17.037  30.947   1.010
48659W        W20330  29.333   9.654   0.774
48660W        W20331  42.398  39.070   4.186
48661W        W20332  11.835  39.508   1.883
48662W        W20333   4.283  24.166   2.305
48663W        W20334   3.360  36.561  11.177
48664W        W20335  20.018  20.982   0.315
48665W        W20336  38.341  43.958   4.890
48666W        W20337  34.688   3.400  12.996
48667W        W20338   5.281  20.367   2.618
48668W        W20339   1.056  40.065  11.591
48669W        W20340  38.899  41.214  12.000
48670W        W20341  18.056   5.938   5.019
48671W        W20342  20.225  33.404  10.847
48672W        W20343   9.565  16.695   0.438
48673W        W20344   4.427  22.620   4.463
48674W        W20345   8.071  35.496   1.313
48675W        W20346  36.892  12.392   4.444
48676W        W20347  39.434  24.668   0.841
48677W        W20348   8.373  11.390   0.547
48678W        W20349  42.817  30.709  11.661
48679W        W20350  28.640   4.273  10.707
48680W        W20351  27.451  19.075   0.524
48681W        W20352   1.706   5.907   3.090
48682W        W20353  30.522   1.896   4.598
48683W        W20354  28.139  29.104  10.660
48684W        W20355   5.161   4.827   1.843
48685W        W20356  17.580  34.441   4.385
48686W        W20357  26.528  22.690  14.446
48687W        W20358  17.109  23.101   4.851
48688W        W20359  40.330  25.958  12.210
48689W        W20360  26.519  20.755   4.702
48690W        W20361   6.843   0.342   2.652
48691W        W20362  13.389  40.752  11.070
48692W        W20363  15.304   5.287  11.410
48693W        W20364  31.277  20.638   1.316
48694W        W20365   5.658   4.663   0.806
48695W        W20366  13.990  17.199   3.266
48696W        W20367  17.608  34.491   3.333
48697W        W20368  16.784  14.690   3.613
48698W        W20369   4.978  32.439   0.385
48699W        W20370  34.398  42.955  14.373
48700W        W20371  14.244  39.447  13.984
48701W        W20372  34.120  29.482   1.845
48702W        W20373   1.941   4.456  13.386
48703W        W20374  31.943  21.710  13.982
48704W        W20375  11.827  21.698  14.988
48705W        W20376  15.494  23.182   4.635
48706W        W20377  32.926   8.983   0.006
48707W        W20378  44.249  37.889   4.567
48708W        W20379  41.762  34.198  13.840
48709W        W20380  26.127  34.914  13.893
48710W        W20381  21.709  23.633   4.045
48711W        W20382  42.318  23.120   3.109
48712W        W20383  19.053  41.410  11.576
48713W        W20384  19.946  36.075  14.852
48714W        W20385  10.143  20.294   0.929
48715W        W20386  38.654  33.626   2.628
48716W        W20387   2.551  26.378  11.539
48717W        W20388  43.679  43.485  14.316
48718W        W20389   0.659  20.421   5.335
48719W        W20390  33.794  44.939  12.620
48720W        W20391  36.469  38.466  12.077
48721W        W20392  33.989  18.780  12.988
48722W        W20393  32.991  17.441   1.951
48723W        W20394  34.734  33.347  11.078
48724W        W20395  36.993   8.149   3.717
48725W        W20396   4.471   4.819  12.868
48726W        W20397  35.372   4.696   3.211
48727W        W20398  16.429  21.798   1.801
48728W        W20399  23.145  12.072   3.566
48729W        W20400  44.310  41.952   3.320
48730W        W20401  22.560   9.260  11.563
48731W        W20402  43.282  14.887   3.523
48732W        W20403  15.727   7.937  11.710
48733W        W20404  17.515  24.180  14.994
48734W        W20405  22.504  17.848  10.988
48735W        W20406  33.506   1.785   0.349
48736W        W20407   5.252  40.954   4.144
48737W        W20408  39.545  41.713  13.474
48738W        W20409   3.937  19.268  14.449
48739W        W20410  40.093  36.002  14.811
48740W        W20411  35.470   0.697  10.779
48741W        W20412  26.220   6.701  11.476
48742W        W20413  22.628   1.377   1.585
48743W        W20414  14.266  35.525  13.809
48744W        W20415   9.777  18.789  13.043
48745W        W20416  44.474  18.319  12.930
48746W        W20417   0.435  32.131   0.902
48747W        W20418   0.860  40.445   2.060
48748W        W20419  22.222   0.677   0.159
48749W        W20420   0.834  19.575   0.864
48750W        W20421   2.416  13.822  11.689
48751W        W20422  30.372  18.528  11.575
48752W        W20423   2.917   0.786   4.773
48753W        W20424   0.432  14.287  11.032
48754W        W20425   2.268  15.302   2.942
48755W        W20426  41.801   9.759  13.754
48756W        W20427   6.867  21.108  13.143
48757W        W20428  38.590   5.805   0.752
48758W        W20429  22.228   2.202   0.440
48759W        W20430  29.554   2.448   4.488
48760W        W20431  33.814  42.924  11.079
48761W        W20432  10.972   2.520  12.085
48762W        W20433  38.101  17.585  12.567
48763W        W20434   1.760  41.257  12.055
48764W        W20435  25.684   0.712  14.795
48765W        W20436   4.292  23.941  11.217
48766W        W20437   3.194  33.719   1.651
48767W        W20438  25.667  43.563   1.905
48768W        W20439   0.201  41.344   2.314
48769W        W20440   8.213  20.992  12.024
48770W        W20441  16.280  33.071   2.957
48771W        W20442  28.838  32.600  13.535
48772W        W20443  40.057  40.896   4.578
48773W        W20444   7.587   7.679   4.272
48774W        W20445  39.850  39.011  13.952
48775W        W20446  14.946  28.431  14.739
48776W        W20447  42.457   8.617   2.815
48777W        W20448   8.070   6.385  13.951
48778W        W20449  19.998  28.447   1.731
48779W        W20450  26.932  41.369   4.042
48780W        W20451  44.310   8.865   2.713
48781W        W20452  41.889  20.773  11.370
48782W        W20453  44.436  31.601   5.038
48783W        W20454  21.562   2.904  10.469
48784W        W20455  23.793   6.257  14.553
48785W        W20456  38.172  33.205  10.142
48786W        W20457  42.877  30.861   3.399
48787W        W20458  29.399  13.846   3.178
48788W        W20459  19.165  26.248   1.815
48789W        W20460  38.270  35.715   4.585
48790W        W20461  11.646   7.427   1.104
48791W        W20462   1.349  26.151  11.423
48792W        W20463  31.418   1.960  11.569
48793W        W20464  22.767  23.844   4.639
48794W        W20465  12.534  19.732  10.741
48795W        W20466  38.331  35.780  14.956
48796W        W20467  18.674  15.533   2.295
48797W        W20468   3.902  24.457  14.148
48798W        W20469   2.373  22.907   2.609
48799W        W20470  28.630  37.854  13.831
48800W        W20471   8.172  33.836   1.448
48801W        W20472   6.260   3.723   1.913
48802W        W20473  12.185  22.463   0.312
48803W        W20474  11.090  34.651   3.829
48804W        W20475  29.040   8.265   0.878
48805W        W20476  16.238  35.935  12.634
48806W        W20477  15.533  13.095  12.243
48807W        W20478  17.459  42.093  10.984
48808W        W20479  23.650  28.131   4.736
48809W        W20480   6.265   9.018  11.559
48810W        W20481  18.536  39.336   1.639
48811W        W20482   5.449  35.483  13.140
48812W        W20483   6.157  10.387  10.398
48813W        W20484   7.723  32.528   3.678
48814W        W20485   7.365  19.009  12.069
48815W        W20486  33.965   0.340  14.418
48816W        W20487  44.304  41.343   1.350
48817W        W20488  29.056  35.873   2.323
48818W        W20489  12.356  23.627  13.498
48819W        W20490  41.975  34.432  12.519
48820W        W20491  21.387   0.574  10.217
48821W        W20492  24.253  13.108  14.399
48822W        W20493  24.246  40.003  13.865
48823W        W20494   0.833  29.498   0.224
48824W        W20495  28.071  39.895  11.975
48825W        W20496  26.183  29.038   1.373
48826W        W20497  17.405  19.254   2.728
48827W        W20498   6.301  27.708  14.910
48828W        W20499   5.634  23.633  13.552
48829W        W20500  27.733  37.916  14.987
48830W        W20501  20.268  26.981  11.861
48831W        W20502  35.447   6.743  14.317
48832W        W20503  31.816  16.304   3.819
48833W        W20504  41.975  12.827   4.152
48834W        W20505  29.554  44.367  14.038
48835W        W20506  19.641  39.958   1.105
48836W        W20507  33.077  35.861   2.249
48837W        W20508  41.522  28.071   2.242
48838W        W20509  30.899   4.070  13.513
48839W        W20510   9.829  32.041   3.903
48840W        W20511   4.755  23.919  10.972
48841W        W20512  21.241  10.300   4.190
48842W        W20513  14.400   9.908  12.058
48843W        W20514  25.562  10.125  14.350
48844W        W20515  39.267  44.851  14.836
48845W        W20516  36.317   3.432   1.515
48846W        W20517  23.036  35.517  11.265
48847W        W20518  38.315   2.911  13.413
48848W        W20519  35.994  20.760  14.731
48849W        W20520  39.466   9.709   1.659
48850W        W20521  11.598   6.977   1.378
48851W        W20522  24.444  39.680   5.398
48852W        W20523  42.747   8.869  12.005
48853W        W20524   9.884  44.976   2.728
48854W        W20525   5.158  13.053  13.914
48855W        W20526  34.936  34.118  12.570
48856W        W20527  33.132  15.245   2.188
48857W        W20528  17.806  19.711   0.980
48858W        W20529  27.914  15.484   1.325
48859W        W20530  24.263  36.839  13.732
48860W        W20531  23.516  43.871   0.756
48861W        W20532  12.464  28.512  10.786
48862W        W20533  31.037  27.163  12.490
48863W        W20534  21.696  41.035  12.419
48864W        W20535  12.651   2.979  12.937
48865W        W20536  26.655  22.202   4.143
48866W        W20537  38.488  39.057  11.116
48867W        W20538  16.780  43.025   1.295
48868W        W20539   2.364  39.558  10.717
48869W        W20540  29.019  18.753   0.878
48870W        W20541  20.256  35.747   2.830
48871W        W20542  38.081  17.518   2.234
48872W        W20543  24.890  17.428   2.762
48873W        W20544   5.705   2.063   4.071
48874W        W20545  10.586  42.923   2.681
48875W        W20546  18.685  32.856  13.130
48876W        W20547  39.486  25.162  10.661
48877W        W20548  31.255  28.185   4.626
48878W        W20549  42.703  19.542  10.963
48879W        W20550  29.718   5.246   2.390
48880W        W20551   6.129  20.388  11.559
48881W        W20552  39.198  42.535   1.736
48882W        W20553  12.889  18.021  14.761
48883W        W20554  43.171  16.366   1.736
48884W        W20555  37.833  23.117   4.459
48885W        W20556  35.930  28.471   1.221
48886W        W20557  43.826  34.173  12.541
48887W        W20558  30.178  28.450   3.116
48888W        W20559  38.450  25.825   2.131
48889W        W20560  43.276  20.822  12.721
48890W        W20561  21.567  28.767   4.211
48891W        W20562  11.488   5.047   9.889
48892W        W20563  35.128   0.179   0.231
48893W        W20564  27.895  41.768   3.714
48894W        W20565  16.251  24.475  10.567
48895W        W20566  27.611   6.452  10.207
48896W        W20567  25.812  23.957  11.544
48897W        W20568  21.716  22.562  12.780
48898W        W20569  39.633  20.308   0.399
48899W        W20570   0.038  11.766   4.561
48900W        W20571  23.120   3.516   2.911
48901W        W20572  38.562  23.577  12.612
48902W        W20573  23.596  28.595  14.776
48903W        W20574  20.451  29.453  12.215
48904W        W20575  33.047  29.237  14.026
48905W        W20576  19.442  15.890  11.141
48906W        W20577  29.872   1.804   2.323
48907W        W20578   8.735  19.684   4.106
48908W        W20579   3.292  26.669  14.516
48909W        W20580  37.094  37.048   2.680
48910W        W20581   7.240  43.075  11.578
48911W        W20582  27.360  41.552  13.486
48912W        W20583   1.960  26.841  10.919
48913W        W20584  27.134  18.239  14.706
48914W        W20585   7.046  10.237   4.305
48915W        W20586  19.647  14.175  12.814
48916W        W20587  14.656  20.959   1.721
48917W        W20588  24.980  16.806   0.826
48918W        W20589  37.145  35.400   0.387
48919W        W20590  15.782   8.672  12.826
48920W        W20591  22.139  40.971   5.213
48921W        W20592   0.286   1.996  12.845
48922W        W20593   0.272  15.534  13.359
48923W        W20594  43.956   8.321  13.794
48924W        W20595   4.624  33.392   3.589
48925W        W20596  38.921  38.533   4.573
48926W        W20597  21.884  16.624   2.730
48927W        W20598  23.113  32.623  14.393
48928W        W20599  23.604  23.297  14.517
48929W        W20600  17.846   5.981   1.290
48930W        W20601  14.760  26.703   4.423
48931W        W20602  26.573  43.869   3.290
48932W        W20603   8.710  13.808   0.456
48933W        W20604   6.853  25.529  10.704
48934W        W20605  22.766   8.373  12.034
48935W        W20606  14.165  38.892  12.874
48936W        W20607   0.744  28.989  10.519
48937W        W20608   3.957  20.076   2.911
48938W        W20609  20.672  36.588  12.353
48939W        W20610  29.159  25.958  12.538
48940W        W20611  34.039  38.586   9.787
48941W        W20612   1.519  21.664  10.633
48942W        W20613   0.269  19.243  10.752
48943W        W20614  31.947  41.773   1.952
48944W        W20615  23.499  32.238  12.078
48945W        W20616  44.905  41.979  11.223
48946W        W20617  18.629  20.758   0.380
48947W        W20618  22.199  20.563   1.401
48948W        W20619  32.221  10.817   3.358
48949W        W20620  24.922  15.940  12.484
48950W        W20621  28.538   2.638   3.115
48951W        W20622  31.172  16.342  11.007
48952W        W20623   1.387  39.551  14.485
48953W        W20624   4.033  27.073   0.437
48954W        W20625   6.282  15.593  14.014
48955W        W20626  27.046  15.153   4.878
48956W        W20627  30.343   9.679   0.602
48957W        W20628  37.100  12.165  12.024
48958W        W20629  12.021  29.049   3.232
48959W        W20630  27.645  11.842   4.382
48960W        W20631  14.080  24.973   0.810
48961W        W20632  17.594  11.605  12.903
48962W        W20633  37.636  14.760  11.543
48963W        W20634   1.265  11.936  12.017
48964W        W20635  33.278  40.099   9.857
48965W        W20636  15.361  34.162  11.900
48966W        W20637  28.688   9.120  11.188
48967W        W20638   7.011  19.042  11.210
48968W        W20639  24.222  19.241   4.891
48969W        W20640  39.974  34.500   0.288
48970W        W20641  32.828  32.222  12.473
48971W        W20642  17.578  23.301  10.145
48972W        W20643  40.968  20.121  11.206
48973W        W20644  15.199  39.324  13.126
48974W        W20645  32.310  36.564   0.291
48975W        W20646  17.785  14.336  11.326
48976W        W20647  24.951  31.332  12.673
48977W        W20648  36.293   3.302  13.885
48978W        W20649  15.513  19.533  12.058
48979W        W20650  16.421  12.662  14.988
48980W        W20651  27.811  43.591  14.125
48981W        W20652  19.325  41.312   4.605
48982W        W20653  17.135   9.288  11.236
48983W        W20654  18.996  34.505   2.694
48984W        W20655  12.300  30.227  14.968
48985W        W20656  20.506  43.240  11.468
48986W        W20657  28.684  15.257  13.878
48987W        W20658  12.663  13.565  11.342
48988W        W20659  12.674  26.545  12.600
48989W        W20660  22.774  21.587  14.022
48990W        W20661  41.501  41.456   1.241
48991W        W20662  11.903   9.912  13.979
48992W        W20663  14.800  11.860   4.652
48993W        W20664  17.965  13.725   0.179
48994W        W20665   1.778  22.726  14.015
48995W        W20666  23.719  37.566  13.781
48996W        W20667  40.863  40.939  12.349
48997W        W20668  27.790  17.012   2.690
48998W        W20669  39.063  40.240   1.513
48999W        W20670  21.231  43.453   2.254
49000W        W20671  10.648  19.988  11.361
49001W        W20672  37.319  29.274  13.533
49002W        W20673  19.291  26.990  12.987
49003W        W20674   5.912   2.307  13.451
49004W        W20675  16.785  17.817   0.631
49005W        W20676  31.624   7.745  11.455
49006W        W20677  19.152  14.622  12.962
49007W        W20678  15.124  25.657  10.992
49008W        W20679  42.947  31.723  12.572
49009W        W20680  15.195  41.510  10.389
49010W        W20681  41.782  31.096   2.507
49011W        W20682  35.216  22.146  14.986
49012W        W20683  21.466  18.105   4.346
49013W        W20684   6.760   3.531  14.319
49014W        W20685  39.348   1.960   3.305
49015W        W20686  15.621  33.477   0.521
49016W        W20687  33.350  44.988   4.647
49017W        W20688  39.516  20.669   1.225
49018W        W20689  30.825  11.851  11.318
49019W        W20690   4.755   7.643  12.128
49020W        W20691  20.039  43.359   2.868
49021W        W20692  33.484  11.306   0.375
49022W        W20693  12.986  41.808   4.265
49023W        W20694   3.879  36.741  14.751
49024W        W20695  14.620  40.067   1.884
49025W        W20696  18.815  42.503  10.530
49026W        W20697   6.561  17.023  11.695
49027W        W20698  13.548  32.427  11.191
49028W        W20699  43.775  38.698   5.552
49029W        W20700  18.116  14.932   2.777
49030W        W20701  19.783  31.191  12.545
49031W        W20702  29.512  28.788  10.962
49032W        W20703  22.565  44.571   2.213
49033W        W20704   3.431  21.244  11.580
49034W        W20705  43.012  13.766   2.761
49035W        W20706  34.042  16.127  13.683
49036W        W20707   9.380   3.913   2.390
49037W        W20708  14.970   7.741  12.355
49038W        W20709  15.723  44.778  12.984
49039W        W20710  29.682   4.302   4.118
49040W        W20711   2.919   1.803  13.688
49041W        W20712   5.652   1.885  13.252
49042W        W20713  18.482  30.621   3.373
49043W        W20714   6.562   3.889  12.588
49044W        W20715  10.217   8.628   1.881
49045W        W20716   0.244  28.725  12.936
49046W        W20717  28.470  37.502  13.033
49047W        W20718   7.168  44.949   4.618
49048W        W20719  25.232  24.470  14.436
49049W        W20720  26.728   8.962  11.504
49050W        W20721  18.570  37.043  13.954
49051W        W20722  44.370  15.390  10.398
49052W        W20723  14.111   5.514  13.529
49053W        W20724   5.393  10.688  14.476
49054W        W20725  41.479  35.552   4.782
49055W        W20726   3.645  25.646   3.810
49056W        W20727   6.714   8.952   3.792
49057W        W20728  33.752  31.429   4.975
49058W        W20729   8.209   7.971  13.987
49059W        W20730  15.202   1.791   4.038
49060W        W20731   6.425  22.028   3.737
49061W        W20732   2.225  27.645  11.095
49062W        W20733   4.753  25.485   2.349
49063W        W20734   2.960  35.535   0.203
49064W        W20735  36.498  30.559   3.178
49065W        W20736  22.203  25.692   5.446
49066W        W20737   9.790  18.103  11.587
49067W        W20738   7.966  42.803   4.527
49068W        W20739  16.467  20.380  14.025
49069W        W20740  33.397   7.225  14.766
49070W        W20741   0.361   7.621  11.214
49071W        W20742   5.860  13.057   1.298
49072W        W20743   3.248   8.183   1.701
49073W        W20744  21.578  19.029   0.027
49074W        W20745  13.746   4.965   3.606
49075W        W20746  43.125   8.848  11.161
49076W        W20747  39.802   2.619   1.791
49077W        W20748  43.295   0.187   1.156
49078W        W20749  16.297  33.336  14.975
49079W        W20750   2.756  26.611   0.411
49080W        W20751  40.343  38.879  14.071
49081W        W20752  29.611  37.100   4.443
49082W        W20753  14.784   6.122  10.881
49083W        W20754  25.850   9.680  11.953
49084W        W20755  25.726  26.421   0.821
49085W        W20756   0.351   3.928  11.436
49086W        W20757  41.966  39.250   3.973
49087W        W20758  32.915   7.936  14.945
49088W        W20759  10.359  43.553   0.316
49089W        W20760  12.119  25.621   0.227
49090W        W20761  38.598  33.783   0.857
49091W        W20762  43.843   7.888   4.105
49092W        W20763  34.523  21.781   4.680
49093W        W20764  25.508  10.978   1.313
49094W        W20765  26.045  43.341   0.428
49095W        W20766  37.271  27.476  10.641
49096W        W20767  26.905  19.763   0.746
49097W        W20768  41.371  42.536   3.750
49098W        W20769  22.643   9.620   3.093
49099W        W20770   6.812  15.748  10.291
49100W        W20771  21.536  21.801   0.782
49101W        W20772  21.337  42.747  14.607
49102W        W20773  14.827   9.847   0.863
49103W        W20774  41.529   9.743   3.709
49104W        W20775  27.099  28.364   4.861
49105W        W20776  17.639   4.235   3.689
49106W        W20777   9.666  36.446   1.674
49107W        W20778  17.298  22.261  10.746
49108W        W20779   6.627  20.579   4.244
49109W        W20780   6.657  29.974   2.546
49110W        W20781   1.016  35.473   1.840
49111W        W20782   1.849  26.660  14.938
49112W        W20783  16.157  22.246   1.344
49113W        W20784  44.224  17.203  14.743
49114W        W20785  10.349  29.498  10.735
49115W        W20786  24.642   7.454  14.343
49116W        W20787   2.844  21.653  10.638
49117W        W20788   8.004  16.387   0.210
49118W        W20789   7.312  19.659   0.021
49119W        W20790  33.420  33.371  14.776
49120W        W20791  22.699  40.892   3.823
49121W        W20792  41.139   5.699  13.013
49122W        W20793  31.835  42.886   2.728
49123W        W20794  20.089  42.248   2.431
49124W        W20795  29.098  44.266  12.505
49125W        W20796  34.044  27.174  11.145
49126W        W20797  40.294  37.666   0.520
49127W        W20798   7.724  42.777   1.727
49128W        W20799   7.868   3.307  11.438
49129W        W20800  32.900  20.501   1.236
49130W        W20801  14.142   8.684  12.762
49131W        W20802   8.976  34.444   1.202
49132W        W20803   2.634  36.710   5.011
49133W        W20804  18.133  40.689  11.309
49134W        W20805   1.018  43.019  12.980
49135W        W20806  30.960   8.759  12.392
49136W        W20807  36.388  28.155   1.964
49137W        W20808  32.785  30.947  10.660
49138W        W20809   8.296  37.815  14.051
49139W        W20810  13.957  35.699  12.905
49140W        W20811   0.395  17.822   0.145
49141W        W20812  36.832  17.530   4.167
49142W        W20813  39.951   2.032   2.321
49143W        W20814   9.633  24.787   1.456
49144W        W20815  12.926  44.163   3.213
49145W        W20816  22.616  23.012  10.532
49146W        W20817  19.069  42.562  12.503
49147W        W20818   2.626   2.559  12.281
49148W        W20819   7.641  25.684  11.563
49149W        W20820  23.796   8.936  13.076
49150W        W20821  27.930  23.966   1.816
49151W        W20822  41.505  14.111  13.467
49152W        W20823  13.729  12.837   3.263
49153W        W20824  11.878  24.113   4.155
49154W        W20825  32.164  34.362   4.421
49155W        W20826  24.469   5.421  11.460
49156W        W20827   4.346  38.936  13.012
49157W        W20828   7.035   3.905   1.397
49158W        W20829   4.433  31.627   2.797
49159W        W20830  13.649  13.280  13.362
49160W        W20831  41.963  20.488  14.730
49161W        W20832  44.848  37.048   0.072
49162W        W20833  24.950  21.158  10.696
49163W        W20834   6.920   2.834   3.356
49164W        W20835  17.373  23.080  14.331
49165W        W20836  20.644   5.154   0.343
49166W        W20837  35.623  37.087   4.560
49167W        W20838   5.410  41.766  12.630
49168W        W20839  30.799  22.442  10.346
49169W        W20840  12.773  15.249   4.792
49170W        W20841  10.169  25.637   4.152
49171W        W20842  35.603  33.242   3.906
49172W        W20843  44.984   8.823  10.682
49173W        W20844   2.878  39.466  12.562
49174W        W20845  35.804  24.799  12.769
49175W        W20846  18.791   7.091   5.303
49176W        W20847  21.705  28.447   0.428
49177W        W20848  30.013   7.380   0.553
49178W        W20849   9.586   3.879   0.430
49179W        W20850  32.688  34.874  11.575
49180W        W20851  38.021  12.148  14.401
49181W        W20852  19.573  16.548  14.322
49182W        W20853  44.411  13.635   3.191
49183W        W20854  15.720   0.275  13.797
49184W        W20855  40.236  14.380   0.729
49185W        W20856  39.646   3.230  13.230
49186W        W20857  26.346   1.235   4.491
49187W        W20858   5.963  23.846   2.172
49188W        W20859  29.016  19.760   0.004
49189W        W20860  18.817  41.916  14.084
49190W        W20861  25.517  24.444  11.531
49191W        W20862  16.920  37.202   1.346
49192W        W20863  33.352   2.681  14.364
49193W        W20864  17.627  31.349  12.876
49194W        W20865   1.069  43.327  11.333
49195W        W20866   8.621   4.737  11.930
49196W        W20867  26.437  25.301   0.367
49197W        W20868   0.509  30.440   3.654
49198W        W20869  23.745   2.389   2.396
49199W        W20870  17.324  29.436   4.119
49200W        W20871  27.437  21.616  12.861
49201W        W20872  43.823  11.710  12.476
49202W        W20873   2.294  35.857  13.467
49203W        W20874  27.208  27.829  14.301
49204W        W20875   0.910   6.861  11.248
49205W        W20876   5.260   4.231   4.572
49206W        W20877  24.457  32.382  13.845
49207W        W20878  23.159  38.457  13.780
49208W        W20879  23.577  16.296   3.201
49209W        W20880  27.521  44.737  13.064
49210W        W20881   4.387  29.437  11.935
49211W        W20882   4.278  19.665   4.587
49212W        W20883  10.613  23.207   0.185
49213W        W20884  22.198  37.307   0.328
49214W        W20885   2.199  23.058  14.724
49215W        W20886   3.689  15.262  12.028
49216W        W20887  35.920  29.619  14.392
49217W        W20888  25.499  21.798   1.757
49218W        W20889  39.391  33.455   3.835
49219W        W20890   7.841  39.925   4.152
49220W        W20891  39.852  12.276  10.819
49221W        W20892  43.959  15.840   2.738
49222W        W20893  43.555  37.477   0.952
49223W        W20894  30.965   3.781  11.406
49224W        W20895  30.744  28.458  11.113
49225W        W20896  19.755  20.100   2.198
49226W        W20897   7.801  23.690   4.286
49227W        W20898  17.882  25.871   2.822
49228W        W20899  32.603  29.058   2.977
49229W        W20900   2.948  27.434   1.868
49230W        W20901  42.449  12.466  11.135
49231W        W20902  37.845   7.029   2.788
49232W        W20903   0.853  41.074  11.582
49233W        W20904  24.308   1.179  13.494
49234W        W20905   7.148  44.486  10.378
49235W        W20906  17.566  36.310   4.520
49236W        W20907  19.726  39.770  12.972
49237W        W20908   9.337  31.930   4.083
49238W        W20909  44.777  31.099   0.902
49239W        W20910  14.323  22.501   3.587
49240W        W20911  25.753  11.724  13.967
49241W        W20912  31.898  21.517   0.193
49242W        W20913  13.295  40.233  11.109
49243W        W20914   2.111  19.190  12.986
49244W        W20915   7.285  35.585  13.508
49245W        W20916  36.583  23.651  11.235
49246W        W20917  15.221   8.823   2.737
49247W        W20918  30.078  23.796  14.372
49248W        W20919  15.339  43.575  11.687
49249W        W20920  41.947   4.225  14.541
49250W        W20921  14.145  42.399  14.060
49251W        W20922  28.503  13.216  11.433
49252W        W20923  30.931  38.594  14.896
49253W        W20924   6.132  17.617  14.745
49254W        W20925  37.281  19.698   1.208
49255W        W20926  19.033   8.710   0.385
49256W        W20927  22.274  43.457   0.556
49257W        W20928  32.605   5.587  13.902
49258W        W20929   8.190  22.861   1.985
49259W        W20930  30.064  23.120   1.025
49260W        W20931   0.333  42.349  12.791
49261W        W20932   7.820   7.528   1.193
49262W        W20933  29.214  27.905   2.278
49263W        W20934  31.476  37.469  12.207
49264W        W20935  24.325  37.885   1.483
49265W        W20936  16.769  40.229   2.300
49266W        W20937  27.196  19.732  10.651
49267W        W20938   3.874  28.691  13.662
49268W        W20939  41.955  21.132   3.854
49269W        W20940  42.029  10.831  14.357
49270W        W20941  35.505  26.370   1.864
49271W        W20942  14.593  20.010   3.223
49272W        W20943  42.053   1.231   1.167
49273W        W20944  44.188  18.145   1.920
49274W        W20945  12.072   1.808   3.245
49275W        W20946  20.659  35.409  11.279
49276W        W20947  25.506  32.115   0.496
49277W        W20948  37.908  44.348  12.992
49278W        W20949   9.307   3.428   1.894
49279W        W20950  19.303  14.803  10.076
49280W        W20951  10.515   4.591   1.379
49281W        W20952  44.833  44.284  11.568
49282W        W20953   1.543  42.273   1.710
49283W        W20954  40.936  44.526   2.459
49284W        W20955   3.613  40.312  14.838
49285W        W20956   0.514   4.623  12.869
49286W        W20957  19.729  29.174   0.475
49287W        W20958   0.720   2.230   2.265
49288W        W20959  37.107   0.428   4.093
49289W        W20960  16.153   4.634   5.101
49290W        W20961  20.241  12.158   3.257
49291W        W20962  30.390  42.473  11.581
49292W        W20963  38.820  34.764   3.116
49293W        W20964  22.515  13.254  12.995
49294W        W20965   6.202   9.214   3.809
49295W        W20966  38.126  32.247   3.680
49296W        W20967  34.851  29.921   0.785
49297W        W20968  13.292  18.220   1.061
49298W        W20969  36.643   6.890   1.266
49299W        W20970   5.261  22.718  11.144
49300W        W20971  42.544  13.689  14.211
49301W        W20972  31.419  34.467   3.680
49302W        W20973  16.514   9.230  14.257
49303W        W20974  36.602  34.315  10.805
49304W        W20975  40.992  23.156   0.351
49305W        W20976  41.924  27.708   3.508
49306W        W20977  12.784  26.467   4.121
49307W        W20978  33.451  40.315   1.484
49308W        W20979  24.428  23.225   3.752
49309W        W20980   8.707  12.788   0.420
49310W        W20981  28.251   2.841   4.684
49311W        W20982   7.842   4.344   4.669
49312W        W20983  26.962   3.702  12.049
49313W        W20984  39.517  39.314   2.716
49314W        W20985   4.647  33.893  14.850
49315W        W20986  23.197   9.857  10.652
49316W        W20987  33.281  44.502  12.463
49317W        W20988  20.914  37.914   4.181
49318W        W20989   7.253  44.458   4.731
49319W        W20990  23.038  15.547   1.389
49320W        W20991  44.892  37.009   3.841
49321W        W20992  26.924  32.407  10.782
49322W        W20993  42.499  16.447  12.902
49323W        W20994   7.687  26.447   4.518
49324W        W20995   0.732  11.257   4.647
49325W        W20996  20.481  35.991   0.024
49326W        W20997  12.165   7.783  14.915
49327W        W20998  31.635  31.118   3.204
49328W        W20999  40.383  30.539   1.494
49329W        W21000  10.856  18.473   2.784
49330W        W21001  41.568   2.681   1.236
49331W        W21002  16.741  43.816   4.556
49332W        W21003  24.498  27.865  13.322
49333W        W21004   8.267  35.411   2.205
49334W        W21005  30.890   7.263  11.683
49335W        W21006   7.045  41.266  12.113
49336W        W21007  22.693  10.775  13.523
49337W        W21008  15.066   7.353   5.322
49338W        W21009   9.295  27.642   1.454
49339W        W21010  40.613  35.752  10.460
49340W        W21011  16.397  38.539   1.615
49341W        W21012  44.537  17.732  12.043
49342W        W21013  29.018  39.158  12.540
49343W        W21014  36.384  16.695   2.162
49344W        W21015  18.992   3.425  14.400
49345W        W21016  35.481   2.011   2.079
49346W        W21017  14.223  21.356   4.205
49347W        W21018  29.716   8.386  13.508
49348W        W21019  19.413  21.852   0.869
49349W        W21020  14.313  38.868  14.278
49350W        W21021  32.069  22.817  12.590
49351W        W21022  41.949  37.114  14.022
49352W        W21023   4.995  29.614  14.910
49353W        W21024   1.934  42.001  14.943
49354W        W21025  25.426  11.578  11.657
49355W        W21026  12.408   4.644   3.300
49356W        W21027  21.750   9.266   3.027
49357W        W21028  13.086  21.036   3.358
49358W        W21029  41.349  17.212  11.154
49359W        W21030  21.126  44.098  10.183
49360W        W21031  35.536  27.658   1.300
49361W        W21032  44.324  26.901  10.889
49362W        W21033  38.640  38.770  14.849
49363W        W21034  42.957  42.980  14.293
49364W        W21035  29.050  33.000   1.207
49365W        W21036  17.247  21.046  11.539
49366W        W21037  27.574  20.928  13.585
49367W        W21038  21.895  34.652  12.058
49368W        W21039  14.986  27.675  13.500
49369W        W21040   1.516   8.732   3.041
49370W        W21041  25.971  26.870   0.852
49371W        W21042  16.544   5.907   4.777
49372W        W21043  36.864  24.213   2.800
49373W        W21044  42.610   4.988  11.116
49374W        W21045  29.862  10.383   2.668
49375W        W21046  21.589   0.026  12.524
49376W        W21047   3.559  44.428  11.067
49377W        W21048   8.866  20.245   2.883
49378W        W21049  26.554  28.104  13.917
49379W        W21050  40.027   5.519  14.015
49380W        W21051  36.382   3.633  12.560
49381W        W21052  44.176  25.011   9.953
49382W        W21053  27.000  11.629   0.997
49383W        W21054  43.997  19.240   3.782
49384W        W21055  22.690  35.020   3.027
49385W        W21056  27.000   2.320  11.091
49386W        W21057  43.208  39.066   0.326
49387W        W21058  37.773   4.210   2.281
49388W        W21059  26.900  42.724   4.190
49389W        W21060  23.259   3.931  10.469
49390W        W21061   5.469  34.067   4.885
49391W        W21062  44.014  41.488  13.444
49392W        W21063  18.743   6.704   1.386
49393W        W21064  39.980  17.033  11.130
49394W        W21065  26.864  17.660  14.457
49395W        W21066  25.632  29.132  12.883
49396W        W21067  36.356  19.843   0.228
49397W        W21068   4.002  27.018   4.062
49398W        W21069  40.912  13.119   0.852
49399W        W21070  24.450  38.288   0.325
49400W        W21071   7.498  28.586   3.572
49401W        W21072  39.834  24.701  14.964
49402W        W21073  21.322   9.308   1.739
49403W        W21074   3.611  27.612  12.982
49404W        W21075  23.965  18.724   3.114
49405W        W21076  34.380  27.733  13.763
49406W        W21077  24.691  29.414   1.302
49407W        W21078   2.657  34.614  13.079
49408W        W21079   1.214  39.872  12.060
49409W        W21080  18.258  40.021   3.288
49410W        W21081  29.313  22.065  12.857
49411W        W21082  26.599  29.858  14.248
49412W        W21083  26.284  40.334   4.625
49413W        W21084  33.091   1.630   2.032
49414W        W21085  20.056  25.970   3.371
49415W        W21086  43.914  11.819  13.385
49416W        W21087  38.960  22.942  14.030
49417W        W21088  33.606  43.743  12.110
49418W        W21089  25.101  22.217   1.952
49419W        W21090  22.515   8.299  12.482
49420W        W21091   1.207  11.345  10.299
49421W        W21092  26.796  11.292   1.622
49422W        W21093  19.505  19.217   4.302
49423W        W21094   6.157  34.586   2.307
49424W        W21095  44.797   1.729  13.516
49425W        W21096  38.887  28.237  14.981
49426W        W21097  12.816  32.135   3.128
49427W        W21098   6.960  37.240   1.216
49428W        W21099  26.733  22.450  11.128
49429W        W21100  28.544  10.730  13.921
49430W        W21101  18.650   0.935  13.722
49431W        W21102  34.293   9.434   0.469
49432W        W21103  23.254  38.449  11.458
49433W        W21104  20.546   8.179   4.879
49434W        W21105  21.186  16.700   4.610
49435W        W21106  32.708  19.829  11.544
49436W        W21107  28.530  21.087   0.949
49437W        W21108  35.406  36.974   2.811
49438W        W21109   4.155  40.083  11.504
49439W        W21110   2.726  23.562  14.342
49440W        W21111  34.581  41.371  12.512
49441W        W21112  21.510  31.090   1.392
49442W        W21113  22.716  32.403   3.549
49443W        W21114   8.932  43.283  13.905
49444W        W21115  20.051  23.786  14.450
49445W        W21116  42.461  18.571  12.390
49446W        W21117  43.740  21.763  11.697
49447W        W21118   4.678  20.120  14.448
49448W        W21119   4.830  42.888  13.410
49449W        W21120  11.252  20.337  12.515
49450W        W21121   0.673   1.866   4.584
49451W        W21122  15.644  19.861  14.944
49452W        W21123  35.366  15.563   3.306
49453W        W21124   6.964  18.245  14.919
49454W        W21125   2.897  15.294   3.623
49455W        W21126   3.496  18.274  11.932
49456W        W21127  43.122  21.499   2.951
49457W        W21128  29.466   4.418   2.679
49458W        W21129  15.355  38.099  12.597
49459W        W21130   1.357   9.801   4.008
49460W        W21131  10.721  31.083   4.597
49461W        W21132   3.927   7.164  12.064
49462W        W21133  23.620   2.224  12.812
49463W        W21134  40.023  38.523   2.593
49464W        W21135  13.112  18.043  11.561
49465W        W21136  43.024  13.175   2.152
49466W        W21137  14.372  32.561  13.320
49467W        W21138   2.341  42.736   4.049
49468W        W21139  12.876   1.201   4.157
49469W        W21140  43.342  17.701   4.432
49470W        W21141  41.515  31.899  11.073
49471W        W21142   3.279  28.475  14.767
49472W        W21143  25.321  26.478  13.915
49473W        W21144  24.412   9.208   0.907
49474W        W21145  44.052  44.909  14.889
49475W        W21146  12.495  15.764   1.632
49476W        W21147  11.563  23.595   4.567
49477W        W21148  39.587  15.090   2.320
49478W        W21149  39.975  20.415  14.348
49479W        W21150  35.687  37.855  14.871
49480W        W21151   1.829  23.179  12.943
49481W        W21152  23.215  34.844  14.436
49482W        W21153   1.827   1.202  11.129
49483W        W21154  32.978  28.732  10.894
49484W        W21155  12.443  42.875   0.526
49485W        W21156   3.639  39.471  13.067
49486W        W21157   0.564  22.673  11.459
49487W        W21158  34.552  22.558   4.042
49488W        W21159   7.955  30.344   3.217
49489W        W21160  19.305  42.019  13.880
49490W        W21161  14.816  19.081   1.732
49491W        W21162  26.473  36.013  12.875
49492W        W21163  11.244  34.049  13.948
49493W        W21164  42.902  14.543   5.474
49494W        W21165   6.114  39.574   1.764
49495W        W21166   6.279  30.601   0.954
49496W        W21167  20.202  43.417   4.232
49497W        W21168  24.043  18.676   4.588
49498W        W21169   4.171   5.244  11.524
49499W        W21170  17.033  11.383  12.530
49500W        W21171  32.069   8.578   3.667
49501W        W21172  18.238   6.186  14.142
49502W        W21173  32.829  39.358  12.932
49503W        W21174  15.265   4.483  12.878
49504W        W21175  34.921   3.771  13.983
49505W        W21176   9.174  19.776   1.193
49506W        W21177  16.546   4.484  12.081
49507W        W21178  22.964   6.749   4.567
49508W        W21179  37.131   6.741   1.195
49509W        W21180  40.571  30.943  14.880
49510W        W21181  14.976  15.663  13.927
49511W        W21182   7.114   8.393  13.069
49512W        W21183  20.075  36.016   0.360
49513W        W21184  16.114   1.182  10.724
49514W        W21185   5.370   3.454  13.934
49515W        W21186  10.769  44.464   1.743
49516W        W21187  10.244  11.902   0.477
49517W        W21188  40.968  35.116   0.780
49518W        W21189  11.203  25.032  12.473
49519W        W21190  29.543   2.805  14.266
49520W        W21191   9.554   3.804  10.656
49521W        W21192   3.006   0.217  12.153
49522W        W21193   6.878  34.820  14.302
49523W        W21194  25.982  24.238   0.241
49524W        W21195  16.339   2.975   2.306
49525W        W21196   3.349  20.759   1.968
49526W        W21197   9.198  30.413  13.461
49527W        W21198  34.703  16.008   3.742
49528W        W21199  11.114  41.498   0.486
49529W        W21200  41.484  33.419  11.939
49530W        W21201  22.670  19.865   1.641
49531W        W21202  25.025  36.384  11.621
49532W        W21203  35.964  19.394  12.832
49533W        W21204  37.076  40.578   0.695
49534W        W21205  31.667  17.188   3.888
49535W        W21206  18.043  37.025  12.654
49536W        W21207  36.887  19.833  14.487
49537W        W21208   2.346  18.545  14.521
49538W        W21209  22.441  14.243  13.190
49539W        W21210  41.329  17.307   4.126
49540W        W21211  27.846  22.481  10.739
49541W        W21212  20.495  29.910  14.849
49542W        W21213  32.368  14.027   2.327
49543W        W21214   5.405  16.354   3.735
49544W        W21215  34.423  13.600   3.578
49545W        W21216  10.394  20.642   4.311
49546W        W21217   7.302   5.781  13.789
49547W        W21218  20.771  25.677   0.720
49548W        W21219  21.412  13.754   0.957
49549W        W21220  20.375  22.055   1.407
49550W        W21221  43.266   0.261  11.978
49551W        W21222  34.539  22.672   2.542
49552W        W21223  17.495  43.313   4.796
49553W        W21224  24.609  12.465  12.414
49554W        W21225  22.737  12.831   0.298
49555W        W21226  27.129  25.138   1.643
49556W        W21227  22.663   0.919   0.256
49557W        W21228   4.670  37.528  10.754
49558W        W21229  27.583  20.620  14.470
49559W        W21230  33.553   6.454   4.364
49560W        W21231   5.319  16.874   3.704
49561W        W21232  42.837  19.169  10.641
49562W        W21233   6.362  11.278   1.698
49563W        W21234  16.730  33.621  10.384
49564W        W21235  16.605  27.458   2.592
49565W        W21236  11.657  33.614  14.367
49566W        W21237  14.810   7.651   1.865
49567W        W21238  18.067  35.173  12.504
49568W        W21239   7.390   2.941  12.074
49569W        W21240  14.041  21.772  10.787
49570W        W21241  14.208  31.926   1.409
49571W        W21242  29.005   2.660   3.684
49572W        W21243  24.159  35.804  11.649
49573W        W21244  41.581  30.592  12.951
49574W        W21245   8.695  32.638  11.989
49575W        W21246   0.266  38.472   4.650
49576W        W21247  34.018   1.325  12.327
49577W        W21248  14.141  36.206   4.739
49578W        W21249   6.186   7.353  13.123
49579W        W21250  33.530  38.592   4.586
49580W        W21251  33.177   6.901   0.777
49581W        W21252  31.866   4.145  11.615
49582W        W21253  10.725  18.950   1.761
49583W        W21254   0.864  42.345  11.981
49584W        W21255   3.944  22.416   5.517
49585W        W21256  27.113  17.715   3.180
49586W        W21257  33.220  19.828  11.601
49587W        W21258  32.780  12.296  12.131
49588W        W21259  35.103  31.481   1.620
49589W        W21260  17.167  16.108   1.827
49590W        W21261   6.677   9.202   1.412
49591W        W21262  14.781  35.616  11.292
49592W        W21263   1.306  40.669  12.967
49593W        W21264   8.128  26.151  12.910
49594W        W21265  42.066  29.012   4.858
49595W        W21266  25.933  39.983   4.176
49596W        W21267   9.528  11.386   3.262
49597W        W21268  42.909   1.414  10.684
49598W        W21269  21.913   0.954  14.828
49599W        W21270  41.510   4.266  14.263
49600W        W21271  37.584  14.607  14.799
49601W        W21272  31.887   7.708   0.850
49602W        W21273  33.655  30.536  13.081
49603W        W21274  21.819  18.257  14.242
49604W        W21275   5.826  19.932  12.707
49605W        W21276  19.193  31.070   3.857
49606W        W21277  21.246  17.135   0.323
49607W        W21278  21.998  26.214  11.043
49608W        W21279   2.761  20.561  14.994
49609W        W21280   2.966  30.192  14.744
49610W        W21281  21.169   0.428  10.679
49611W        W21282  32.212  14.093   1.828
49612W        W21283  20.011  11.349  12.570
49613W        W21284  34.421  31.492   0.316
49614W        W21285  27.680  11.627  13.291
49615W        W21286  11.750  14.860  14.350
49616W        W21287  36.551  44.762   1.982
49617W        W21288  24.222  16.433  14.597
49618W        W21289  20.581   5.826   2.204
49619W        W21290  27.936   2.318  12.108
49620W        W21291  17.220  34.900  12.192
49621W        W21292  11.964  12.648   4.769
49622W        W21293  10.884  15.592   1.033
49623W        W21294  39.297  15.404  12.822
49624W        W21295  23.654   9.194   3.716
49625W        W21296  43.309  41.354  13.058
49626W        W21297  22.481  23.530  11.490
49627W        W21298   6.691  14.541  12.728
49628W        W21299  36.020   2.053  12.049
49629W        W21300  10.300   5.804   3.259
49630W        W21301  30.663  14.116  14.221
49631W        W21302  10.369  17.261   1.809
49632W        W21303   9.739  12.595   3.939
49633W        W21304  28.455  33.601   3.833
49634W        W21305  11.211  18.100   0.335
49635W        W21306  13.166  39.181   1.152
49636W        W21307   4.153  21.647  11.971
49637W        W21308   6.259  10.863   4.445
49638W        W21309  29.015   2.793   0.468
49639W        W21310  28.077  26.569   3.988
49640W        W21311   4.416  18.719   1.794
49641W        W21312   9.927  39.348   4.650
49642W        W21313  33.060  25.205  10.690
49643W        W21314  21.237  31.999   2.893
49644W        W21315  24.055  16.531  11.550
49645W        W21316  25.161  20.530   1.366
49646W        W21317  16.693  39.755  14.459
49647W        W21318  19.968   3.799  10.635
49648W        W21319  37.404  35.882   3.618
49649W        W21320  33.179  40.328   3.804
49650W        W21321  12.593  24.292  10.750
49651W        W21322   1.191   2.468   2.306
49652W        W21323  33.516  13.370  10.429
49653W        W21324  25.539  19.799  10.415
49654W        W21325   8.336  31.485   2.802
49655W        W21326  33.685  41.502   4.944
49656W        W21327  19.650  13.784   4.371
49657W        W21328   9.263  13.146  10.942
49658W        W21329  28.022  40.752  11.434
49659W        W21330  38.794  27.233   0.776
49660W        W21331  13.580  32.536  12.975
49661W        W21332  28.650  24.028  13.161
49662W        W21333  36.009  41.674   1.650
49663W        W21334   7.012  19.143   2.829
49664W        W21335   3.274  26.391  14.056
49665W        W21336   9.835  23.690   3.226
49666W        W21337  19.874  32.236  11.076
49667W        W21338  36.408  19.954   4.865
49668W        W21339   8.436   8.659   3.316
49669W        W21340  28.282  36.230  11.208
49670W        W21341  12.332  39.490   0.483
49671W        W21342  31.368  13.314  13.286
49672W        W21343  38.528  40.004  13.404
49673W        W21344   1.825   7.363   1.199
49674W        W21345  39.985   8.580  10.704
49675W        W21346  17.581  15.361  13.829
49676W        W21347  29.980  42.972  12.072
49677W        W21348  18.348  19.094  11.040
49678W        W21349  17.180   5.458  12.378
49679W        W21350  31.410  22.007  12.998
49680W        W21351   2.190  32.645  13.835
49681W        W21352  20.568  20.682  11.065
49682W        W21353  20.590  40.928   4.590
49683W        W21354   8.884  20.828   4.123
49684W        W21355  14.193  22.256   0.653
49685W        W21356  36.474  18.772  13.886
49686W        W21357   7.134  44.281   1.825
49687W        W21358  24.530  15.764   1.343
49688W        W21359  34.914  37.573  10.131
49689W        W21360   0.066   6.740  11.804
49690W        W21361  39.760  14.296  14.770
49691W        W21362  27.065  38.970  12.896
49692W        W21363  28.031  37.873   0.556
49693W        W21364   2.732   6.938   3.568
49694W        W21365  41.442  22.665  10.348
49695W        W21366  13.791  31.166  11.690
49696W        W21367  13.080  39.525  12.528
49697W        W21368  37.952  38.218   4.815
49698W        W21369  40.263  15.285  11.991
49699W        W21370   8.947  38.924  13.998
49700W        W21371  41.443  15.734  13.815
49701W        W21372   0.042  35.507   1.997
49702W        W21373  10.189   0.907  11.667
49703W        W21374  18.503  32.792  11.501
49704W        W21375  38.478  10.809   4.917
49705W        W21376   9.177  29.435  12.476
49706W        W21377  18.377  29.963   1.382
49707W        W21378  36.659  13.044   1.657
49708W        W21379  12.827  16.179  14.682
49709W        W21380  31.825  15.657  11.445
49710W        W21381  22.486  29.477  14.894
49711W        W21382  36.057  38.408  14.805
49712W        W21383   2.499  34.104   3.898
49713W        W21384  34.617   2.267  11.682
49714W        W21385  39.414  31.872   0.896
49715W        W21386   3.019  16.630   0.697
49716W        W21387  22.095  14.087   1.950
49717W        W21388   6.749  36.556   0.052
49718W        W21389  28.342  29.829  12.571
49719W        W21390  39.024   9.354  13.492
49720W        W21391  41.806   9.363   4.876
49721W        W21392  28.612  41.772  14.764
49722W        W21393  27.939  19.195   4.955
49723W        W21394  10.130  35.008  10.968
49724W        W21395  30.880  22.669   3.321
49725W        W21396  13.195  21.079  13.361
49726W        W21397   5.710  17.232   2.272
49727W        W21398  19.486   8.995   3.242
49728W        W21399   7.644   6.780   4.244
49729W        W21400  30.886  24.640  13.092
49730W        W21401  36.817  23.176  14.468
49731W        W21402  42.298  11.263  11.462
49732W        W21403   7.480  39.008   0.927
49733W        W21404  34.955   6.522   0.323
49734W        W21405  13.375  29.854   4.566
49735W        W21406  42.409   5.636  14.185
49736W        W21407  20.289   2.463   1.457
49737W        W21408  11.487  28.832   2.653
49738W        W21409  19.093   9.285  14.364
49739W        W21410  30.943  18.660  10.719
49740W        W21411  19.084  18.779  11.925
49741W        W21412   3.998   2.318   1.358
49742W        W21413   0.203   7.262   0.759
49743W        W21414   0.329  37.106   4.155
49744W        W21415  10.357  43.803  11.672
49745W        W21416  25.498  41.264  13.953
49746W        W21417   3.728   0.221  13.386
49747W        W21418  12.905  31.260   0.192
49748W        W21419  20.699  44.540  12.415
49749W        W21420   0.510  11.059   1.340
49750W        W21421   6.522   3.353   0.039
49751W        W21422  29.355  43.608  11.040
49752W        W21423  37.518  29.509  12.712
49753W        W21424   2.281  13.348   0.471
49754W        W21425  36.487  26.302   5.069
49755W        W21426  42.038  35.427  10.677
49756W        W21427  33.419  15.865   3.922
49757W        W21428  30.980  34.972  13.910
49758W        W21429  31.036  29.862   2.403
49759W        W21430  28.460  22.119   4.529
49760W        W21431   0.807  40.323   2.556
49761W        W21432   2.342  27.494   4.733
49762W        W21433   3.367   7.338   4.705
49763W        W21434   0.152   3.877  14.361
49764W        W21435  29.460  38.560   0.714
49765W        W21436  30.809  22.653   2.803
49766W        W21437  41.514  10.948   3.191
49767W        W21438  19.712  24.808   1.833
49768W        W21439  44.924  31.062   2.861
49769W        W21440   0.364  18.700  14.493
49770W        W21441  11.316  19.238  11.773
49771W        W21442  37.326   5.219  14.933
49772W        W21443  35.903  39.606  12.759
49773W        W21444  18.601  39.285   4.154
49774W        W21445  15.215   6.465  12.988
49775W        W21446  24.451  40.904  11.669
49776W        W21447   4.329   6.909   1.166
49777W        W21448   9.626  36.476  12.903
49778W        W21449  14.047  16.592  10.995
49779W        W21450  29.956  33.868  14.545
49780W        W21451  10.851  17.801  12.971
49781W        W21452   7.814   2.531   0.836
49782W        W21453  22.198  25.590   4.951
49783W        W21454  31.115  30.229  12.506
49784W        W21455  24.479  16.825  14.857
49785W        W21456  21.178  11.199   0.707
49786W        W21457  38.841  19.294   2.694
49787W        W21458   4.693  23.083   0.854
49788W        W21459  43.122  42.048   9.994
49789W        W21460   5.378  11.345   3.297
49790W        W21461  31.411  25.191  11.139
49791W        W21462  38.323  31.062  11.157
49792W        W21463  30.935  23.697  14.132
49793W        W21464   8.654   0.255   3.891
49794W        W21465  22.067  33.105  13.948
49795W        W21466  40.431  32.265   4.144
49796W        W21467  41.420   6.856  10.642
49797W        W21468   4.629   3.405  11.670
49798W        W21469   5.299  22.601  12.955
49799W        W21470  14.365   3.900   0.905
49800W        W21471  13.256  21.723  11.337
49801W        W21472  42.535   2.452  12.235
49802W        W21473  33.985  27.936  14.053
49803W        W21474  14.998  36.534  13.903
49804W        W21475   6.782  24.810   1.075
49805W        W21476  14.841  40.434   0.371
49806W        W21477   4.486   1.354  12.965
49807W        W21478   1.344  27.750  11.618
49808W        W21479  44.247   7.389   4.919
49809W        W21480  12.880  10.432   2.264
49810W        W21481  27.650  27.997  13.087
49811W        W21482  18.031   8.970  12.970
49812W        W21483  19.065  36.316  11.149
49813W        W21484  13.365  19.214  12.183
49814W        W21485  16.004  29.184  13.421
49815W        W21486  38.065  30.552   1.048
49816W        W21487  19.629  38.551   1.416
49817W        W21488  40.806   2.925   3.214
49818W        W21489  26.872   3.225  13.938
49819W        W21490  28.013  40.962   2.726
49820W        W21491  41.206  32.588   4.636
49821W        W21492  26.987  32.655  12.546
49822W        W21493  16.937  17.990  14.717
49823W        W21494  41.344  32.550   3.664
49824W        W21495  25.632  44.784  14.571
49825W        W21496  26.315  13.154   5.174
49826W        W21497  13.602   0.147   1.236
49827W        W21498  24.975  41.224  14.010
49828W        W21499  23.964  30.902   0.769
49829W        W21500  15.311  42.036   3.756
49830W        W21501  31.888   7.313  11.394
49831W        W21502   9.240  24.477   1.287
49832W        W21503  34.969   4.953  14.898
49833W        W21504  10.133  43.592  13.231
49834W        W21505  18.068   9.203   4.748
49835W        W21506  36.707  31.487  11.916
49836W        W21507  30.956   7.597   1.839
49837W        W21508   5.633  25.490   4.144
49838W        W21509   0.022  40.433  12.899
49839W        W21510  13.935  34.140  11.960
49840W        W21511  25.578  20.662   4.717
49841W        W21512  20.679  29.674  14.418
49842W        W21513  29.311  16.347  14.866
49843W        W21514  11.302   0.711   3.802
49844W        W21515  28.702  28.418   4.634
49845W        W21516  44.064   1.913   1.379
49846W        W21517  16.201  32.870   3.990
49847W        W21518   7.840  23.809  13.310
49848W        W21519  18.718  25.655   4.844
49849W        W21520   7.263   7.054  13.903
49850W        W21521  13.722  21.750   0.872
49851W        W21522   7.078  25.317  11.126
49852W        W21523  26.598  25.766  12.437
49853W        W21524  13.645   8.892  12.619
49854W        W21525  15.609   0.863  14.545
49855W        W21526  40.971  40.470   1.389
49856W        W21527  15.622  41.729  10.570
49857W        W21528  33.749  38.831  12.008
49858W        W21529  32.428  15.174  11.564
49859W        W21530  28.888   3.023   5.125
49860W        W21531  10.028   0.002   1.339
49861W        W21532  41.560  27.227  13.768
49862W        W21533   6.575  15.232  14.282
49863W        W21534  21.750  16.814  12.641
49864W        W21535  22.151   0.253   4.850
49865W        W21536   8.145   6.791  10.796
49866W        W21537  20.600   1.850  14.501
49867W        W21538  18.000  16.753   2.582
49868W        W21539  25.626   3.595  13.768
49869W        W21540  28.836  18.304  13.874
49870W        W21541   2.751  21.264   5.097
49871W        W21542  40.845  44.948  10.703
49872W        W21543  11.404  15.755  14.034
49873W        W21544  33.170   9.711  10.812
49874W        W21545  27.141  43.088   2.908
49875W        W21546   9.273  22.977   0.523
49876W        W21547  27.765  38.443  11.481
49877W        W21548  14.814  21.999   1.962
49878W        W21549  29.134   2.499   1.342
49879W        W21550  13.118  23.278   2.274
49880W        W21551  28.419   3.422  14.075
49881W        W21552  17.984  29.279   2.439
49882W        W21553  40.312  12.799   1.190
49883W        W21554  14.765  15.977   0.323
49884W        W21555  11.672  21.492  14.550
49885W        W21556  42.378   8.149  12.677
49886W        W21557   9.312  28.078   3.603
49887W        W21558   5.366  21.696  12.557
49888W        W21559  39.999  41.247  10.975
49889W        W21560  33.454  12.953   0.771
49890W        W21561  37.410  27.072  11.410
49891W        W21562  24.590  27.696   4.081
49892W        W21563   3.202   6.868   1.678
49893W        W21564  18.803  10.101   5.057
49894W        W21565  30.150  21.589   1.286
49895W        W21566  26.918   1.391  14.254
49896W        W21567  28.651  43.529   2.841
49897W        W21568  11.294   2.741   2.805
49898W        W21569  32.361  11.815   1.744
49899W        W21570  21.898  40.789   3.381
49900W        W21571  39.594  37.054   0.837
49901W        W21572  37.609   9.250   4.855
49902W        W21573  22.037   4.643   1.330
49903W        W21574  39.305  43.311   2.347
49904W        W21575  11.849  11.978  14.995
49905W        W21576  18.275  22.513   0.734
49906W        W21577  15.158  22.393   1.768
49907W        W21578  17.439  13.751   5.058
49908W        W21579  38.925  21.271  13.126
49909W        W21580   2.627  19.250  12.841
49910W        W21581  16.185  23.198   3.876
49911W        W21582  21.123   6.838  10.681
49912W        W21583  28.403   9.932  11.568
49913W        W21584  30.704  17.099  11.634
49914W        W21585  18.096  35.341   4.563
49915W        W21586   3.660  24.660   4.724
49916W        W21587  31.302   2.360   4.245
49917W        W21588  35.837  17.727  13.526
49918W        W21589  41.284  42.046   5.023
49919W        W21590  16.798  34.475  14.134
49920W        W21591   0.854  41.812  10.179
49921W        W21592  16.725  16.770  13.383
49922W        W21593  11.623   0.257  13.844
49923W        W21594  36.062  35.082   1.170
49924W        W21595  13.169  32.988   4.650
49925W        W21596  30.822  24.833   0.759
49926W        W21597  43.416   5.367   1.382
49927W        W21598  17.313  24.379   0.832
49928W        W21599  30.865   9.656  11.596
49929W        W21600  12.193  30.932   1.001
49930W        W21601  17.073  19.954   0.331
49931W        W21602  11.020  31.609  13.267
49932W        W21603  34.540   5.316  11.188
49933W        W21604  17.756  41.358  13.006
49934W        W21605  40.518  34.596   4.529
49935W        W21606  23.103  21.391   4.105
49936W        W21607  44.143  32.109   4.992
49937W        W21608   6.345   3.837  14.957
49938W        W21609  28.486  32.412   2.862
49939W        W21610  11.343  27.618   4.411
49940W        W21611  23.218  24.983  12.257
49941W        W21612  28.546  20.237   2.737
49942W        W21613   2.942   2.700  14.860
49943W        W21614  26.578  13.457   4.336
49944W        W21615  17.064  33.541  11.652
49945W        W21616   8.349  44.711  10.650
49946W        W21617  23.853  13.783   1.013
49947W        W21618   5.491  12.714   1.398
49948W        W21619   0.512  24.126  13.584
49949W        W21620  29.163  37.098  11.087
49950W        W21621  30.533  42.867   1.081
49951W        W21622  22.927  14.006  12.527
49952W        W21623  28.678  28.017  14.786
49953W        W21624   1.097  18.788   1.062
49954W        W21625  33.605  28.434   5.082
49955W        W21626   3.259  19.005   2.689
49956W        W21627  33.049  11.916   1.565
49957W        W21628  23.018  18.629   1.603
49958W        W21629  13.306  31.596   2.439
49959W        W21630  36.682  23.118   3.669
49960W        W21631  15.843  17.825   0.826
49961W        W21632  14.230  23.398  13.331
49962W        W21633  31.704   9.874   3.220
49963W        W21634  39.317   1.001   0.929
49964W        W21635  26.319  30.673  12.348
49965W        W21636  32.374  27.057   3.861
49966W        W21637  19.753  39.387  10.914
49967W        W21638   2.862  30.023  11.413
49968W        W21639  41.127  40.251  10.250
49969W        W21640  13.700  21.109  10.272
49970W        W21641   3.156   8.854   1.181
49971W        W21642  42.816   7.189   0.344
49972W        W21643  11.150  41.488   3.618
49973W        W21644  41.046  26.250   0.466
49974W        W21645  22.516   9.219  13.114
49975W        W21646   8.949   1.743  13.289
49976W        W21647  34.678  39.616   0.773
49977W        W21648  25.704  23.256   0.295
49978W        W21649  29.328  44.112   1.384
49979W        W21650   7.337   0.850   3.705
49980W        W21651  43.487  34.985   3.837
49981W        W21652   7.256  40.917  14.974
49982W        W21653  13.869  26.142  12.588
49983W        W21654  38.352  15.088  11.966
49984W        W21655  21.530   4.897   4.135
49985W        W21656   2.350   6.600   3.954
49986W        W21657  42.490  17.180   3.800
49987W        W21658  16.377  41.430   1.834
49988W        W21659  33.307  11.614  13.431
49989W        W21660   7.291  41.742  14.664
49990W        W21661  25.147  26.509  11.603
49991W        W21662  11.352   0.736   4.298
49992W        W21663  20.166  28.567   3.392
49993W        W21664  12.302  23.283  11.581
49994W        W21665  32.981  31.635   2.850
49995W        W21666  23.434   6.734   3.000
49996W        W21667   7.767  30.562  12.412
49997W        W21668  29.280  38.066   4.142
49998W        W21669  36.458  34.108   4.582
49999W        W21670  40.284  41.744  12.928
50000W        W21671  28.423  10.279  13.014
50001W        W21672  34.535  16.145   0.980
50002W        W21673  32.617  37.400  12.896
50003W        W21674  41.299  10.600   2.808
50004W        W21675   5.192  22.714   3.348
50005W        W21676  26.749  13.466  11.054
50006W        W21677  32.022   9.167   2.883
50007W        W21678  31.466  13.677   2.948
50008W        W21679   8.716  15.296   0.864
50009W        W21680  44.331   5.363  13.592
50010W        W21681  14.460   8.746   0.939
50011W        W21682  30.334  16.257   2.175
50012W        W21683  16.609  22.975   0.755
50013W        W21684  40.048   4.861   2.264
50014W        W21685  21.628   4.389   1.903
50015W        W21686   6.200  30.684  14.807
50016W        W21687  28.679  17.078  12.451
50017W        W21688  21.304  20.355  13.038
50018W        W21689  25.709  42.011   4.442
50019W        W21690   5.271  13.638   2.607
50020W        W21691  14.486   9.272   2.804
50021W        W21692  44.400   9.220  13.494
50022W        W21693  29.021   9.633  10.583
50023W        W21694  41.366  22.232  14.884
50024W        W21695   0.860  28.073   2.742
50025W        W21696  24.595  10.853  10.424
50026W        W21697  22.536  22.194  12.602
50027W        W21698  18.504  36.601   1.082
50028W        W21699  43.903   6.633   0.708
50029W        W21700  41.376  13.542   0.374
50030W        W21701  38.613   8.462   5.050
50031W        W21702  25.723  40.650  13.027
50032W        W21703   6.808  12.316  11.906
50033W        W21704  19.946  10.538  12.992
50034W        W21705  19.464  32.661   0.494
50035W        W21706  34.086  39.801   2.840
50036W        W21707  40.830  19.509  13.630
50037W        W21708  29.382   7.294   3.222
50038W        W21709   5.964  22.314   0.436
50039W        W21710   3.694   9.862  13.536
50040W        W21711  33.628  10.677  13.430
50041W        W21712   6.264  18.319   4.507
50042W        W21713  28.937  15.213   3.930
50043W        W21714  18.043  41.528  12.576
50044W        W21715  43.460  16.311  11.050
50045W        W21716  40.315  40.444   4.554
50046W        W21717   9.417  37.114  10.279
50047W        W21718  10.410  33.853   2.739
50048W        W21719   0.530  12.823  14.409
50049W        W21720   0.396   1.221  13.124
50050W        W21721  27.589  29.148  13.850
50051W        W21722  43.477  18.072   2.742
50052W        W21723  24.277  36.981  13.229
50053W        W21724   5.012  41.764   4.199
50054W        W21725  37.503  36.581  11.995
50055W        W21726   1.420  40.907  13.975
50056W        W21727   6.705  23.730   3.257
50057W        W21728  36.108   6.237   3.988
50058W        W21729  35.621  12.601  14.817
50059W        W21730  20.012  34.875  13.975
50060W        W21731  18.042  19.487  11.164
50061W        W21732  33.631  14.656   1.157
50062W        W21733   2.013  23.437  11.463
50063W        W21734  32.356  32.407  11.038
50064W        W21735  39.429   4.336   0.632
50065W        W21736  44.530  31.632   0.909
50066W        W21737  27.619   3.485   3.764
50067W        W21738  26.131  36.487  13.794
50068W        W21739  38.788  24.738  13.484
50069W        W21740  43.757  44.738   0.312
50070W        W21741  27.529  25.639   4.682
50071W        W21742  30.097  19.770  13.069
50072W        W21743  37.290  12.135   4.662
50073W        W21744  13.168  44.414  10.729
50074W        W21745  12.355  22.875   4.560
50075W        W21746   8.897  27.508  11.253
50076W        W21747  13.797  29.606  11.256
50077W        W21748  33.995  40.079   2.390
50078W        W21749  37.558   8.469   1.919
50079W        W21750  27.804  22.696  14.933
50080W        W21751  38.198  37.860   3.680
50081W        W21752   6.953  42.318   0.863
50082W        W21753  13.111  30.020   3.235
50083W        W21754  28.143   5.227  13.474
50084W        W21755  18.830  15.130  11.615
50085W        W21756  32.839  34.604  13.798
50086W        W21757   8.078  22.275   2.370
50087W        W21758  25.550  11.768   1.794
50088W        W21759  21.207  26.982   2.387
50089W        W21760  11.636  33.152   0.699
50090W        W21761  13.797  22.460   4.388
50091W        W21762  17.529  41.037  10.726
50092W        W21763   9.501  31.741   1.275
50093W        W21764   5.137  31.346   0.914
50094W        W21765   0.344  36.401   0.338
50095W        W21766  38.342  41.904   0.211
50096W        W21767   5.899   7.326  12.098
50097W        W21768  14.565  40.830  14.269
50098W        W21769  16.747  20.830   0.275
50099W        W21770  34.205  16.688   4.910
50100W        W21771  17.265  23.750  10.486
50101W        W21772  10.946  30.804   4.229
50102W        W21773  21.997  29.701  14.022
50103W        W21774  29.174  37.605   2.430
50104W        W21775   7.250  44.924  11.702
50105W        W21776  31.472  23.328  11.745
50106W        W21777   1.887  20.510  11.764
50107W        W21778  20.677   3.714  13.924
50108W        W21779   2.000  32.390  14.241
50109W        W21780  44.995  13.042  10.459
50110W        W21781  41.051  29.965  12.528
50111W        W21782  36.931  20.763  10.990
50112W        W21783  37.707   8.815   0.908
50113W        W21784  14.579  30.907   1.847
50114W        W21785  12.294   2.199   4.992
50115W        W21786  21.964   1.837   4.368
50116W        W21787  43.422  12.634  10.997
50117W        W21788  26.249   8.647   5.649
50118W        W21789  41.796  16.669   0.771
50119W        W21790   4.897  24.478   1.478
50120W        W21791  20.116  23.212  13.654
50121W        W21792  43.188  26.481  11.135
50122W        W21793   5.964  24.273   4.625
50123W        W21794  15.523   1.015   1.933
50124W        W21795  28.121  34.716  11.093
50125W        W21796  43.031  36.111  11.995
50126W        W21797  44.819  24.397   4.109
50127W        W21798  39.629   3.189  11.505
50128W        W21799   8.433   2.483  13.429
50129W        W21800  27.916  18.103  10.480
50130W        W21801  44.520  34.317   2.193
50131W        W21802  40.819  10.132  14.702
50132W        W21803  26.182   1.021   0.617
50133W        W21804  36.450  10.204   1.778
50134W        W21805   8.760  39.348  13.732
50135W        W21806  41.482  14.823   0.697
50136W        W21807   6.658  35.831   3.239
50137W        W21808   9.364   9.169   3.631
50138W        W21809  18.876   0.147  14.946
50139W        W21810  21.621  25.934  13.902
50140W        W21811   0.839  34.677   2.739
50141W        W21812  43.331  17.971  14.002
50142W        W21813  32.001  35.544   1.366
50143W        W21814   1.702  15.777   0.000
50144W        W21815   5.140  37.420  12.545
50145W        W21816  30.064  14.156  10.775
50146W        W21817  35.048  12.563   3.624
50147W        W21818  43.390  30.586  13.453
50148W        W21819  13.217  12.814   1.805
50149W        W21820  38.536  23.025  13.514
50150W        W21821  10.701  21.009  12.474
50151W        W21822  41.937  22.469   1.752
50152W        W21823   3.803  38.401   0.271
50153W        W21824   0.203  20.996   0.298
50154W        W21825  39.827  41.745  11.024
50155W        W21826  13.692  39.251   1.395
50156W        W21827  10.176  29.071   4.601
50157W        W21828  35.148   4.222   4.221
50158W        W21829  42.654  12.398   1.034
50159W        W21830  22.703  34.694  13.536
50160W        W21831  39.047   7.521   4.256
50161W        W21832   7.890  36.847   2.854
50162W        W21833  29.020  21.832   0.828
50163W        W21834  44.504   2.468  12.929
50164W        W21835   3.912   3.013   0.680
50165W        W21836  39.963  44.148  10.963
50166W        W21837   2.928  20.406   5.555
50167W        W21838  16.569  35.572   2.786
50168W        W21839  32.827  22.610  12.936
50169W        W21840  44.047   8.256   0.195
50170W        W21841  38.313  31.600   0.544
50171W        W21842  36.230   4.687   0.333
50172W        W21843  38.503  37.141   0.355
50173W        W21844  28.492  26.585   3.652
50174W        W21845  14.621  34.019   0.850
50175W        W21846  13.416  31.544  13.206
50176W        W21847  21.340  43.713   2.727
50177W        W21848  23.072  37.641  13.284
50178W        W21849  43.981   3.887   0.195
50179W        W21850  32.507  42.726  14.293
50180W        W21851   4.504  34.879  11.556
50181W        W21852  17.705   8.551  12.089
50182W        W21853  34.134  26.677  12.154
50183W        W21854  32.395  39.762  12.773
50184W        W21855  19.533  37.044   0.401
50185W        W21856  14.920   4.148  10.461
50186W        W21857   0.979  35.572   3.689
50187W        W21858  33.032  26.241  14.923
50188W        W21859  17.960  18.930   1.801
50189W        W21860  17.860   2.680  12.040
50190W        W21861  42.805  18.491   4.238
50191W        W21862  27.408  39.945  14.366
50192W        W21863  11.117   1.968   2.212
50193W        W21864  27.553  39.978  13.865
50194W        W21865  16.231  27.630  12.079
50195W        W21866  11.191   7.220  12.461
50196W        W21867   8.907  21.082  13.075
50197W        W21868   9.331   0.780   3.738
50198W        W21869  29.757  39.426   3.148
50199W        W21870  41.362  39.797  11.975
50200W        W21871   4.326  19.014   2.188
50201W        W21872   5.885  41.779  14.597
50202W        W21873   8.285  13.124   3.753
50203W        W21874  28.581  40.937   3.329
50204W        W21875   2.614  33.087  14.482
50205W        W21876  19.478  10.518  12.382
50206W        W21877   6.439  25.270  13.439
50207W        W21878  19.933  31.683  10.850
50208W        W21879  37.300   8.289   4.941
50209W        W21880  30.392   4.857   3.570
50210W        W21881  13.597   3.880  12.729
50211W        W21882   6.872  37.057  12.874
50212W        W21883  18.009  22.660   1.414
50213W        W21884  41.130  19.302  12.090
50214W        W21885  44.077   4.675   1.998
50215W        W21886  13.840   7.000   0.158
50216W        W21887  19.235  23.271   0.806
50217W        W21888  26.148  24.601   2.756
50218W        W21889   9.466  41.807   3.528
50219W        W21890  19.892  36.304   3.741
50220W        W21891  38.849   7.675  14.763
50221W        W21892  42.549  29.618  13.346
50222W        W21893  24.152   1.874  10.693
50223W        W21894  14.450  27.158   3.768
50224W        W21895  35.808  15.595   4.491
50225W        W21896  13.803  26.740   2.819
50226W        W21897   1.001   5.257  11.867
50227W        W21898  38.977  21.493   1.326
50228W        W21899   5.172  31.050   2.332
50229W        W21900  37.881  17.451  11.259
50230W        W21901  21.254  25.057   2.669
50231W        W21902  25.072  24.711  11.537
50232W        W21903  27.564  14.062   0.399
50233W        W21904  35.888  20.038   4.907
50234W        W21905  29.617   8.545  10.978
50235W        W21906  25.696  44.886  12.346
50236W        W21907  30.920  25.235  14.845
50237W        W21908  20.290   1.414   2.822
50238W        W21909  23.561  33.164   1.375
50239W        W21910   0.928  12.672   4.619
50240W        W21911  16.718  13.910   2.503
50241W        W21912   7.522  23.589  13.798
50242W        W21913  15.368  31.395  14.833
50243W        W21914  39.391  13.820  10.669
50244W        W21915  10.890  18.269   3.855
50245W        W21916  25.309  41.114  11.600
50246W        W21917  19.051  22.621   2.696
50247W        W21918  32.838  37.027   0.487
50248W        W21919  43.807  10.797  13.566
50249W        W21920  44.033  30.900   1.312
50250W        W21921   9.240  41.890   1.382
50251W        W21922   3.248  42.292  14.919
50252W        W21923  11.412  44.291  11.130
50253W        W21924  17.517  28.526   4.015
50254W        W21925  19.682  29.157   4.305
50255W        W21926  10.285  41.390   1.781
50256W        W21927   1.170  34.370  10.376
50257W        W21928  22.779  42.921  10.850
50258W        W21929  14.846  32.545   0.905
50259W        W21930  32.381  41.608   3.749
50260W        W21931  44.984   7.279  11.140
50261W        W21932  42.993  14.243  11.607
50262W        W21933  38.589  44.255  14.951
50263W        W21934  35.722  39.478   0.292
50264W        W21935  37.565  34.835  12.402
50265W        W21936  15.544  25.119   1.837
50266W        W21937  10.827  16.177  10.580
50267W        W21938   9.696  33.809   3.350
50268W        W21939   9.632  27.918  12.504
50269W        W21940   0.914  23.629   0.366
50270W        W21941  38.803  33.861  14.451
50271W        W21942   2.738   8.818  10.641
50272W        W21943  33.405   5.857   0.451
50273W        W21944  10.706  16.561  11.547
50274W        W21945  14.425  14.978   1.498
50275W        W21946  36.614  27.549  14.200
50276W        W21947   2.881   0.527   2.378
50277W        W21948   4.941   4.750  12.076
50278W        W21949  26.962  33.635   3.824
50279W        W21950  34.803   7.318   1.414
50280W        W21951   3.536   5.423  13.668
50281W        W21952  25.166   2.884  13.460
50282W        W21953   5.163   2.695  13.443
50283W        W21954  44.888   6.414  11.061
50284W        W21955  31.747  16.117  11.650
50285W        W21956  10.108  25.174  11.692
50286W        W21957  32.962   2.448   4.660
50287W        W21958  44.353  31.910  14.068
50288W        W21959  10.644   1.027  14.944
50289W        W21960  21.198  19.045   5.118
50290W        W21961  31.436   2.936  14.604
50291W        W21962  24.312   0.940   2.634
50292W        W21963  26.722  18.099  14.991
50293W        W21964  40.994  13.327   4.139
50294W        W21965  31.860  10.979  11.221
50295W        W21966  18.212  33.002   2.697
50296W        W21967  12.634  23.623  14.540
50297W        W21968  42.997   7.706  12.610
50298W        W21969   8.200  25.686  11.347
50299W        W21970  34.354  19.370  10.767
50300W        W21971  30.916  32.127   0.803
50301W        W21972  17.748  38.844   1.134
50302W        W21973  37.356  28.480   4.145
50303W        W21974  36.808  12.358  12.973
50304W        W21975  42.920   2.010  13.701
50305W        W21976  44.967  24.882  13.885
50306W        W21977   4.301  11.503   2.380
50307W        W21978   8.229   3.372   0.840
50308W        W21979   2.381   4.684   0.385
50309W        W21980   7.737  22.051   2.683
50310W        W21981  32.259  36.799  14.367
50311W        W21982  36.072  23.854  11.621
50312W        W21983  26.254  27.018  12.122
50313W        W21984  18.850  24.236  10.804
50314W        W21985   3.330  30.694   3.863
50315W        W21986  42.726  20.428   2.656
50316W        W21987  40.306  42.479  12.426
50317W        W21988   5.928  23.666   0.564
50318W        W21989  39.257   6.407   1.479
50319W        W21990  16.684  14.046  14.782
50320W        W21991   0.009   7.400   3.261
50321W        W21992  42.512  38.331   0.037
50322W        W21993  20.655  38.385   2.301
50323W        W21994   9.914  43.937  11.905
50324W        W21995  25.052  33.076  13.150
50325W        W21996  30.548   3.274   2.816
50326W        W21997  22.006  13.202  12.916
50327W        W21998  30.485  16.633   0.333
50328W        W21999  15.385  42.024   1.305
50329W        W22000  29.984  19.623  12.034
50330W        W22001  43.169  43.066   4.124
50331W        W22002  14.540   4.496  10.293
50332W        W22003  15.288  28.025  14.083
50333W        W22004  12.786  18.516  14.047
50334W        W22005  35.831   5.189  11.197
50335W        W22006  27.073  38.239  14.706
50336W        W22007  36.424  14.749   3.537
50337W        W22008  29.598  19.130  13.372
50338W        W22009  23.785  17.363   1.304
50339W        W22010  33.297  12.208  12.060
50340W        W22011  21.061  17.798  10.821
50341W        W22012  36.036  13.865   2.766
50342W        W22013  19.781   4.699  11.074
50343W        W22014  17.021  36.143   2.208
50344W        W22015  23.743  17.880   4.717
50345W        W22016  11.427   2.295  12.146
50346W        W22017   5.964  34.376  13.047
50347W        W22018  23.226   9.636   1.945
50348W        W22019  22.221  31.618  11.154
50349W        W22020  36.321  26.285  10.876
50350W        W22021  18.688  40.359  10.538
50351W        W22022  23.901  17.059  14.055
50352W        W22023  10.477  27.451   4.660
50353W        W22024  13.221  29.150  14.099
50354W        W22025  12.780  27.366  13.849
50355W        W22026  32.142   7.867  13.343
50356W        W22027  22.304  21.134   4.335
50357W        W22028  41.108  13.142  11.535
50358W        W22029  10.797  25.068   2.194
50359W        W22030   5.257  35.346   3.392
50360W        W22031  44.446  25.949  10.118
50361W        W22032   6.794  38.294   1.852
50362W        W22033  18.203   9.687  14.831
50363W        W22034  38.075  21.575  14.373
50364W        W22035  22.737  20.257  12.549
50365W        W22036  38.012  25.819  14.409
50366W        W22037   1.132  21.610  12.799
50367W        W22038  31.017  28.408   4.144
50368W        W22039   4.007   9.182  12.644
50369W        W22040   7.677   3.221  13.448
50370W        W22041  15.630  44.309  14.763
50371W        W22042  24.684  19.712  10.979
50372W        W22043  35.555  27.677  11.112
50373W        W22044   9.835  23.620   0.165
50374W        W22045  15.072   8.509   3.796
50375W        W22046   0.421  22.023   5.226
50376W        W22047  27.732   7.878  13.324
50377W        W22048  37.972  24.121   4.052
50378W        W22049   2.576  27.160  14.012
50379W        W22050  29.453  17.019   0.877
50380W        W22051  30.308   6.751   2.409
50381W        W22052  14.099   2.982  14.877
50382W        W22053   1.500  27.558  10.671
50383W        W22054  20.339   3.186   0.691
50384W        W22055  32.225   5.440  13.037
50385W        W22056  31.139   5.628   2.291
50386W        W22057  33.114  34.033  14.495
50387W        W22058  40.414  34.135  13.077
50388W        W22059  35.730  31.105   4.153
50389W        W22060  39.798  14.112  10.491
50390W        W22061   2.708  30.260  10.512
50391W        W22062  27.977  44.352   0.578
50392W        W22063  13.285  44.894   0.291
50393W        W22064   3.522   4.175   0.402
50394W        W22065   3.781  21.574   2.721
50395W        W22066  31.512  36.349   3.502
50396W        W22067  42.383   3.772  13.942
50397W        W22068  15.963  25.425   1.191
50398W        W22069  30.047  43.740  12.570
50399W        W22070  14.651  41.298   0.947
50400W        W22071  38.025  13.707  14.890
50401W        W22072   8.404  43.339  12.897
50402W        W22073   5.428  13.279  14.572
50403W        W22074  28.195  14.387   3.634
50404W        W22075   2.361  14.770  11.888
50405W        W22076  43.035   8.677   1.155
50406W        W22077  11.160  14.183  12.115
50407W        W22078  37.024  23.144   4.044
50408W        W22079   1.337  33.857  11.003
50409W        W22080  43.002  32.042   1.224
50410W        W22081  18.316  43.723   1.317
50411W        W22082   0.226   9.647  13.954
50412W        W22083  43.976  34.127  14.383
50413W        W22084  39.871  14.926   4.355
50414W        W22085  33.668  34.432   5.047
50415W        W22086  16.721  18.374  14.388
50416W        W22087  28.685   1.428   3.810
50417W        W22088  12.386  11.395   0.150
50418W        W22089  27.448  41.069  14.255
50419W        W22090   9.231  26.669   0.033
50420W        W22091  23.651  34.046   0.294
50421W        W22092   0.984   4.760  11.985
50422W        W22093  23.130  43.908  11.228
50423W        W22094  20.941  40.721   3.686
50424W        W22095  16.628  13.117   4.728
50425W        W22096   3.176   9.146  12.174
50426W        W22097  29.119  21.031   2.186
50427W        W22098  38.235  29.526   4.208
50428W        W22099  39.283  28.398   0.373
50429W        W22100  20.677  31.666   4.090
50430W        W22101  36.973  15.419  14.954
50431W        W22102   4.810  19.101   0.862
50432W        W22103  34.920  32.232  12.110
50433W        W22104  39.050   3.506  12.037
50434W        W22105  40.095  15.766  11.289
50435W        W22106   3.725  19.307  10.622
50436W        W22107   8.739  37.344  12.349
50437W        W22108   5.244   9.509  11.524
50438W        W22109  30.022  16.983   1.918
50439W        W22110  22.033  18.801   1.701
50440W        W22111  20.523  19.535  14.613
50441W        W22112  33.017  17.615   3.812
50442W        W22113  17.999  40.894   3.620
50443W        W22114   2.787  41.200   3.116
50444W        W22115   7.371   8.258   2.727
50445W        W22116  19.055  40.981  12.564
50446W        W22117  30.673  24.777   2.905
50447W        W22118  28.485  26.379  10.099
50448W        W22119   5.828   3.197  13.336
50449W        W22120  42.083  30.005   3.292
50450W        W22121  27.108  39.852  14.812
50451W        W22122   9.685  18.477  13.448
50452W        W22123  23.796  26.544   1.630
50453W        W22124  13.685   9.219   0.014
50454W        W22125  10.323   4.440   3.129
50455W        W22126  29.593  24.121  13.005
50456W        W22127   8.327   6.365  12.196
50457W        W22128  26.825   7.872   0.509
50458W        W22129  18.743  15.714   3.725
50459W        W22130  17.098  30.840  11.950
50460W        W22131  34.929  43.291  12.142
50461W        W22132  33.838  22.145   0.932
50462W        W22133   9.301  33.876  12.014
50463W        W22134  22.720   9.887  14.864
50464W        W22135  19.296  31.169  12.373
50465W        W22136   4.503  27.678   2.942
50466W        W22137  42.971  40.618   4.747
50467W        W22138  31.684  25.976  13.806
50468W        W22139  43.185  19.280  14.824
50469W        W22140  36.838   9.676   0.846
50470W        W22141  21.704  26.228   1.814
50471W        W22142  38.659  44.338  11.709
50472W        W22143   9.513  32.646   2.203
50473W        W22144  21.726  36.925   2.875
50474W        W22145   2.242   3.351  13.506
50475W        W22146  10.852  12.678  14.411
50476W        W22147  18.296  19.028  14.366
50477W        W22148  14.639   7.210   0.531
50478W        W22149  41.759  43.742   1.761
50479W        W22150  22.126  10.232   1.865
50480W        W22151  27.186   3.720  11.155
50481W        W22152  42.927  21.774   2.536
50482W        W22153   9.460  25.754   4.659
50483W        W22154  38.724  44.737  13.013
50484W        W22155  39.643   4.740  13.994
50485W        W22156   0.965  12.371  12.059
50486W        W22157  31.642  22.085  13.455
50487W        W22158  18.675  10.258   1.944
50488W        W22159  36.843  12.627   1.439
50489W        W22160   0.431  26.495   4.193
50490W        W22161  23.612  11.842   3.670
50491W        W22162  21.041  26.754   0.513
50492W        W22163   1.045  35.868   4.157
50493W        W22164   3.275  26.034   5.023
50494W        W22165  40.767  18.288  14.911
50495W        W22166  37.492  28.496   1.464
50496W        W22167  28.236  12.646  10.190
50497W        W22168  12.984   0.285  12.427
50498W        W22169   6.706  11.563   4.098
50499W        W22170  16.325   8.434   3.336
50500W        W22171  22.640  27.695  14.353
50501W        W22172  26.216  39.017   0.344
50502W        W22173   3.118  20.084   3.884
50503W        W22174   3.854  23.638  14.292
50504W        W22175  41.622  19.146  12.080
50505W        W22176   3.023   1.955   1.400
50506W        W22177   0.012   0.688  14.347
50507W        W22178  25.137   2.222   1.412
50508W        W22179  37.330   5.883  12.442
50509W        W22180  18.065  38.741  12.479
50510W        W22181  19.053   7.869  12.494
50511W        W22182   4.181   6.644  11.916
50512W        W22183  28.337  39.734  14.919
50513W        W22184  30.200  11.053   1.740
50514W        W22185  25.204  25.805   3.046
50515W        W22186   0.435  14.705  10.658
50516W        W22187  28.620   0.488  13.369
50517W        W22188  40.040  44.605  11.171
50518W        W22189   9.449  20.083  14.350
50519W        W22190   0.701  39.555  14.788
50520W        W22191  40.715  44.714   1.463
50521W        W22192  36.440  22.067   1.432
50522W        W22193  16.781   2.020  10.487
50523W        W22194   9.818  13.265   4.382
50524W        W22195   1.252  15.798  14.067
50525W        W22196  43.758  13.595  12.137
50526W        W22197  38.898  31.424  11.628
50527W        W22198  32.591  21.139  13.040
50528W        W22199  35.527  36.384  10.741
50529W        W22200  36.512   9.817   4.355
50530W        W22201   8.154  15.662  11.668
50531W        W22202   7.932  15.355   0.355
50532W        W22203  32.635   2.469  11.145
50533W        W22204  13.296  36.049   3.779
50534W        W22205   0.296  26.456   3.206
50535W        W22206   9.739  26.582  14.862
50536W        W22207  10.785  32.907   3.383
50537W        W22208  19.524  20.570  14.898
50538W        W22209  44.047   0.694   0.795
50539W        W22210  25.173  10.914   3.705
50540W        W22211  24.643  43.968  10.707
50541W        W22212  13.644  14.229   3.844
50542W        W22213   2.240  43.454  13.819
50543W        W22214  29.106   6.392   0.568
50544W        W22215  26.644  31.784  11.451
50545W        W22216  26.458   0.210  14.394
50546W        W22217  28.702  26.462  10.572
50547W        W22218   5.317  38.781   4.275
50548W        W22219  38.571  17.684   3.316
50549W        W22220  35.181  23.663   1.282
50550W        W22221  19.371  18.207  14.941
50551W        W22222  19.350  25.499   2.907
50552W        W22223  41.945   6.386   1.949
50553W        W22224  42.325  21.655   0.567
50554W        W22225  37.047  14.207   2.749
50555W        W22226  22.735   7.877  12.687
50556W        W22227   5.135  27.670  11.107
50557W        W22228  26.895  11.950   1.414
50558W        W22229   1.000  37.628   0.224
50559W        W22230  34.181  27.620   4.490
50560W        W22231  43.244  20.883   2.345
50561W        W22232  15.270   0.506   4.734
50562W        W22233  42.544  36.898   1.340
50563W        W22234   6.904   5.815  14.988
50564W        W22235  25.606  13.751  11.828
50565W        W22236  41.774  22.514  13.538
50566W        W22237  43.839  30.539   0.947
50567W        W22238  17.724  40.055   0.434
50568W        W22239   0.856  17.817   1.448
50569W        W22240  17.239  32.107  10.719
50570W        W22241  19.142  28.631  12.547
50571W        W22242  11.187  29.362   4.673
50572W        W22243  37.500  32.277   9.906
50573W        W22244  42.728  16.102   0.611
50574W        W22245  44.499   8.974   3.326
50575W        W22246  29.241   7.759  14.159
50576W        W22247   4.723  41.269   3.313
50577W        W22248  31.816   6.839  12.510
50578W        W22249  26.063  14.833   4.231
50579W        W22250  30.369  30.152  12.792
50580W        W22251  36.890  44.689   2.362
50581W        W22252  31.937   6.875  14.840
50582W        W22253  18.561  31.523  10.812
50583W        W22254  21.359  22.037   2.705
50584W        W22255  22.486  20.453  12.967
50585W        W22256  10.727  17.552  13.405
50586W        W22257  16.804  40.041  14.036
50587W        W22258  19.980  11.136   4.150
50588W        W22259   0.809  16.174   4.696
50589W        W22260  32.107   1.045  13.393
50590W        W22261   5.642  35.245  10.982
50591W        W22262  23.596  16.802  12.933
50592W        W22263  16.331  39.252  14.137
50593W        W22264   9.759  20.258   1.299
50594W        W22265  40.242  21.273  11.080
50595W        W22266  25.721  22.717   0.792
50596W        W22267  42.862  32.618   0.434
50597W        W22268  19.273  37.931  11.524
50598W        W22269  22.578   1.317   0.579
50599W        W22270  43.885  27.439  14.743
50600W        W22271   0.693  28.717  13.169
50601W        W22272  15.210  19.861   0.222
50602W        W22273  28.211  28.003   4.449
50603W        W22274  25.091  16.622  13.436
50604W        W22275  39.320  21.575  11.447
50605W        W22276  19.326   8.186   1.879
50606W        W22277   0.919  10.557  10.862
50607W        W22278  10.236  30.201  10.015
50608W        W22279  36.580   2.985   2.372
50609W        W22280  35.881  38.602  13.776
50610W        W22281   1.282  40.608   2.297
50611W        W22282  41.381  19.656   0.921
50612W        W22283  34.994  27.734  11.948
50613W        W22284  41.614  33.440   5.264
50614W        W22285  22.813  16.061   1.311
50615W        W22286  31.359   1.244  13.552
50616W        W22287  44.656  33.957  14.911
50617W        W22288  28.683  20.745  10.908
50618W        W22289  20.646   4.321   3.737
50619W        W22290   1.429  32.097  12.946
50620W        W22291  23.266  32.357  12.953
50621W        W22292  16.703  42.826   3.652
50622W        W22293  33.423  15.113  11.642
50623W        W22294   4.120  34.444  12.366
50624W        W22295  39.469  30.982   1.258
50625W        W22296  15.401  11.619   5.110
50626W        W22297  31.141  29.636   1.871
50627W        W22298  18.355  22.133  13.970
50628W        W22299  14.017  30.525  11.537
50629W        W22300  20.079  31.174  11.612
50630W        W22301  16.314  27.781   0.404
50631W        W22302  32.571  26.990   2.394
50632W        W22303  22.389  22.017   2.427
50633W        W22304  19.230  26.621  12.156
50634W        W22305  23.803   8.367   3.315
50635W        W22306  40.646  29.139  12.790
50636W        W22307  22.057  34.656  12.931
50637W        W22308  24.690  10.701  12.367
50638W        W22309  31.209  13.019  14.970
50639W        W22310  27.386  25.487   0.357
50640W        W22311  17.669  15.326   4.918
50641W        W22312  33.777  37.949  12.622
50642W        W22313  12.746  31.830  11.104
50643W        W22314  35.337  22.646   0.258
50644W        W22315  43.775   7.661   1.978
50645W        W22316  39.463  16.809   4.103
50646W        W22317  17.227   0.580   2.314
50647W        W22318  40.116  21.687   0.448
50648W        W22319  19.234  11.425   0.941
50649W        W22320  21.827  41.998  11.533
50650W        W22321  24.893  22.838   1.145
50651W        W22322  18.593  38.988   4.586
50652W        W22323  11.469  44.827   0.761
50653W        W22324  38.753  13.739  14.494
50654W        W22325  18.990  44.999   3.393
50655W        W22326  17.173  10.439  14.459
50656W        W22327  12.149  25.609   2.632
50657W        W22328   8.161  28.816  11.268
50658W        W22329  27.482   6.036  11.117
50659W        W22330   2.280  42.951   3.581
50660W        W22331  24.044  39.659   5.016
50661W        W22332  30.967  10.718  12.447
50662W        W22333  41.719   9.168  11.184
50663W        W22334  38.610  43.437   4.888
50664W        W22335  30.988  10.232   1.199
50665W        W22336  10.345  16.243   3.052
50666W        W22337   1.906  17.150   2.342
50667W        W22338  43.748   0.530  10.634
50668W        W22339   1.786  39.825  14.287
50669W        W22340   9.269  28.618   2.733
50670W        W22341  11.306  41.957   1.037
50671W        W22342  30.657  11.867  13.912
50672W        W22343  44.268  13.582   2.652
50673W        W22344   3.654  40.639   1.367
50674W        W22345   6.102  24.566  12.911
50675W        W22346  42.831  20.571   5.129
50676W        W22347  24.964   8.782   4.206
50677W        W22348  12.792  31.560   2.181
50678W        W22349  43.732  28.127  11.486
50679W        W22350  13.007  40.216   1.817
50680W        W22351  23.931  44.552   1.284
50681W        W22352   2.244   4.764   2.872
50682W        W22353  35.026  12.349  10.638
50683W        W22354  17.163  38.872   0.552
50684W        W22355   8.695  24.924  14.767
50685W        W22356  32.649  21.062  10.452
50686W        W22357   1.101  22.559  13.829
50687W        W22358   7.634  40.884   4.401
50688W        W22359  18.648  34.648   2.333
50689W        W22360  38.592  41.059  14.238
50690W        W22361  11.695  42.232   2.712
50691W        W22362  34.103  34.029  14.560
50692W        W22363  36.020   2.851  13.837
50693W        W22364  34.090  20.189   0.507
50694W        W22365   4.912  15.732  12.512
50695W        W22366  44.518  13.288   9.830
50696W        W22367   6.620   4.778   4.695
50697W        W22368  24.820  26.279   5.080
50698W        W22369  40.840  39.560   4.522
50699W        W22370  44.053  17.295   2.711
50700W        W22371  29.549   5.911  12.789
50701W        W22372   4.900  35.543  12.523
50702W        W22373  35.391  12.330  12.929
50703W        W22374  40.315   3.477  14.446
50704W        W22375   6.185  32.889   3.717
50705W        W22376   0.804   6.135  10.814
50706W        W22377  12.561  34.698   2.691
50707W        W22378  19.131  26.063   9.429
50708W        W22379  24.698   4.878  11.963
50709W        W22380   4.623  30.883  13.155
50710W        W22381  41.471  22.779  13.983
50711W        W22382  38.328   7.558  13.994
50712W        W22383  16.000  25.155  11.049
50713W        W22384  22.034  34.398  11.639
50714W        W22385  19.386   6.865  11.922
50715W        W22386  32.895  44.111  14.733
50716W        W22387   3.774  25.948  14.402
50717W        W22388  11.840  35.517   0.072
50718W        W22389  28.646  40.896   1.447
50719W        W22390  22.813  13.278  12.090
50720W        W22391  41.375  15.997  14.443
50721W        W22392   7.345  26.283  12.414
50722W        W22393  17.664  37.389   1.005
50723W        W22394  31.942  24.208  10.699
50724W        W22395  10.362  12.797  12.597
50725W        W22396  17.119   7.224   2.404
50726W        W22397   0.364  26.978  12.620
50727W        W22398  33.052  42.005  12.660
50728W        W22399  13.809  29.601  10.686
50729W        W22400  17.656   3.261   0.551
50730W        W22401  19.971  28.219  11.675
50731W        W22402  25.714  10.253   0.881
50732W        W22403  30.587  19.090   3.853
50733W        W22404  29.730  16.812  14.044
50734W        W22405  33.377  28.031   3.125
50735W        W22406   8.927  29.883   2.234
50736W        W22407   2.360  32.960   4.131
50737W        W22408   0.919   0.734  14.234
50738W        W22409  24.538  24.617   0.188
50739W        W22410  34.230  15.768   3.867
50740W        W22411  13.623  30.154   3.315
50741W        W22412  13.325  43.993  10.989
50742W        W22413  36.380  30.198  14.761
50743W        W22414  10.336  26.068  11.255
50744W        W22415   2.302  41.857   0.429
50745W        W22416  32.486   6.310   0.302
50746W        W22417  38.894  22.793   1.891
50747W        W22418  12.160  14.733   4.862
50748W        W22419  42.212  41.242   3.449
50749W        W22420  12.108  19.995  11.030
50750W        W22421   6.183  27.465   4.612
50751W        W22422  31.475  15.566  12.389
50752W        W22423   2.528  30.466  12.555
50753W        W22424   0.812  31.740  14.301
50754W        W22425  37.516  14.820   4.707
50755W        W22426  40.314  25.616   0.041
50756W        W22427   3.749  41.014  12.579
50757W        W22428   2.815  14.021  14.941
50758W        W22429   0.281  28.015   3.640
50759W        W22430   2.409   7.496  10.052
50760W        W22431  40.318  24.858   4.984
50761W        W22432  26.713   3.741   3.650
50762W        W22433   7.879  40.801  10.551
50763W        W22434  21.422   0.673  11.476
50764W        W22435  17.022  23.567  12.092
50765W        W22436  17.343  24.513   1.742
50766W        W22437   2.648  15.720   1.969
50767W        W22438  43.413   0.286  11.489
50768W        W22439  19.189  19.982  13.389
50769W        W22440  35.068  29.129  12.006
50770W        W22441   4.203  15.839   4.587
50771W        W22442  39.295  43.018  14.359
50772W        W22443   8.615  42.967  13.633
50773W        W22444  38.892  15.692   0.275
50774W        W22445  31.197  29.673  11.599
50775W        W22446  19.638  10.263   4.643
50776W        W22447  34.487  39.810   4.405
50777W        W22448   3.679  23.992  10.603
50778W        W22449  32.902  32.465  10.379
50779W        W22450  36.079  13.546  13.877
50780W        W22451   5.200   2.400   3.709
50781W        W22452  17.596  27.125   3.809
50782W        W22453  20.214  42.591  13.908
50783W        W22454  16.654  12.120   4.959
50784W        W22455   7.246  36.083   2.421
50785W        W22456  31.436  22.043   2.873
50786W        W22457  37.976  10.812  14.497
50787W        W22458  16.366  18.310  13.423
50788W        W22459  36.072  44.496  11.188
50789W        W22460  10.672  43.363  11.714
50790W        W22461  38.045  29.961   3.748
50791W        W22462  25.947  40.948   0.607
50792W        W22463  38.414  34.800  14.917
50793W        W22464  18.566  28.920   3.330
50794W        W22465   3.779   8.966  13.428
50795W        W22466  29.393  30.569  12.089
50796W        W22467  35.141  12.124  11.086
50797W        W22468  13.422  20.471  11.218
50798W        W22469  13.126   4.080  11.505
50799W        W22470   2.859  33.980  13.514
50800W        W22471   1.209   7.841   4.180
50801W        W22472  15.076   9.764  13.490
50802W        W22473   7.943   8.233  11.593
50803W        W22474  29.962   2.556   3.696
50804W        W22475  14.025  42.283   4.661
50805W        W22476   2.445  11.339   3.568
50806W        W22477  30.488  42.391  14.470
50807W        W22478  21.347   2.365   5.167
50808W        W22479  36.081  31.857   0.886
50809W        W22480  36.462  18.686   4.830
50810W        W22481  23.305  39.439  12.466
50811W        W22482  31.033  34.512   2.228
50812W        W22483  10.220  40.482   0.958
50813W        W22484  16.009  20.616   2.735
50814W        W22485  25.468  38.962  14.534
50815W        W22486  16.814   4.315   3.347
50816W        W22487  29.604  28.112  13.109
50817W        W22488  14.649   2.403  11.445
50818W        W22489  39.090  17.673   3.417
50819W        W22490   8.138   7.329   2.105
50820W        W22491  22.191  44.288   2.863
50821W        W22492  10.485  31.132   0.870
50822W        W22493  44.663  11.300   3.817
50823W        W22494  10.212  24.101   2.676
50824W        W22495  24.329  19.755   4.892
50825W        W22496  14.074   9.451   4.677
50826W        W22497  20.841  43.325   3.246
50827W        W22498  29.088  23.007  14.816
50828W        W22499  20.179  31.665  11.732
50829W        W22500  13.109   7.752   0.210
50830W        W22501  25.649   0.208  12.800
50831W        W22502   6.201  28.026   4.582
50832W        W22503  36.827  41.498  14.413
50833W        W22504  17.845  29.130   1.952
50834W        W22505  10.655  31.965  14.315
50835W        W22506  29.702  17.367  11.660
50836W        W22507  13.746  15.917   2.144
50837W        W22508  31.054   6.140   1.821
50838W        W22509  41.973   7.050  11.532
50839W        W22510  40.581  34.037   4.511
50840W        W22511  31.145  39.173   4.248
50841W        W22512   8.275  40.803  12.518
50842W        W22513  20.264  38.512   3.127
50843W        W22514  42.344  43.410   2.081
50844W        W22515  35.024  30.093   3.656
50845W        W22516  41.403  11.210   4.528
50846W        W22517  30.702  28.339   4.847
50847W        W22518  18.814  23.063  13.311
50848W        W22519  14.860  31.494   0.727
50849W        W22520   5.885   8.750  13.106
50850W        W22521  39.725  43.512   3.225
50851W        W22522   0.502  10.138   0.862
50852W        W22523  36.810   1.938   2.349
50853W        W22524   8.960   0.486   4.236
50854W        W22525  41.886  31.555  12.907
50855W        W22526  42.822  29.095   0.553
50856W        W22527   0.723   4.266  14.775
50857W        W22528  43.705   5.961  10.469
50858W        W22529  36.693  31.546  11.413
50859W        W22530  34.460  33.360  13.510
50860W        W22531  17.594  39.938   3.629
50861W        W22532  14.976  20.696   2.713
50862W        W22533  10.838  40.896  10.952
50863W        W22534  14.556   5.282  13.022
50864W        W22535   8.635  28.568   3.335
50865W        W22536  32.168  39.055   4.507
50866W        W22537  37.496  30.998   4.109
50867W        W22538   6.470  26.787  11.703
50868W        W22539  14.887  37.850   3.241
50869W        W22540  39.261  20.704  12.484
50870W        W22541  21.731  17.323  12.551
50871W        W22542  38.512  19.494  12.961
50872W        W22543  15.112  28.698   3.177
50873W        W22544  21.030  23.567   5.119
50874W        W22545  39.799  38.874   2.880
50875W        W22546  15.099  12.882   0.302
50876W        W22547  32.380  38.546   4.559
50877W        W22548   5.437  16.605   3.285
50878W        W22549  34.664  16.658   2.676
50879W        W22550   9.760  17.158   3.396
50880W        W22551  40.329  11.651  11.258
50881W        W22552   6.895   6.328   0.076
50882W        W22553  41.814  39.400   0.130
50883W        W22554  20.432   3.164  12.882
50884W        W22555  11.912   9.595   4.165
50885W        W22556   3.370  13.461  11.561
50886W        W22557  15.876  22.339  11.500
50887W        W22558   7.576  36.279   0.243
50888W        W22559  35.394   8.326   3.956
50889W        W22560  17.808  20.092  12.155
50890W        W22561  36.684  34.915  13.476
50891W        W22562  19.670  35.012   2.229
50892W        W22563  17.815  32.371  11.884
50893W        W22564  31.811  27.767  14.916
50894W        W22565  34.885  44.983  11.488
50895W        W22566  36.364   3.390  14.856
50896W        W22567  32.172  12.364   9.744
50897W        W22568  34.163  29.675  11.157
50898W        W22569  34.413   4.304   4.559
50899W        W22570  43.685  18.217   1.867
50900W        W22571  18.782  16.812   3.729
50901W        W22572  34.373  31.958   2.692
50902W        W22573  20.469  34.129   4.542
50903W        W22574  41.242   4.519   2.151
50904W        W22575   1.822  37.871   3.598
50905W        W22576  27.305  42.480   1.857
50906W        W22577  27.043  14.029  14.871
50907W        W22578   4.390  19.263   1.738
50908W        W22579  37.216   2.706   0.512
50909W        W22580  20.311  28.944  12.074
50910W        W22581   5.393   1.055   2.295
50911W        W22582  13.622  19.144   1.466
50912W        W22583  12.875   7.295   0.329
50913W        W22584  30.910  29.516  14.430
50914W        W22585  37.332  20.721  10.675
50915W        W22586  44.294   1.982  12.813
50916W        W22587   6.354  29.759  14.784
50917W        W22588  39.490  38.068  12.962
50918W        W22589   7.221  15.766  12.946
50919W        W22590   2.004  31.108   2.543
50920W        W22591  21.397   6.430  11.563
50921W        W22592  42.332  11.722   1.181
50922W        W22593  32.385   3.297  14.084
50923W        W22594  36.589  24.219  14.104
50924W        W22595  39.862  24.333  11.688
50925W        W22596  40.721   8.638  13.855
50926W        W22597  19.984  27.074   9.506
50927W        W22598   7.235   7.805   1.033
50928W        W22599  36.382   3.661   1.052
50929W        W22600  40.272  15.079  12.482
50930W        W22601  41.976  42.344   4.107
50931W        W22602  30.926   9.749   1.910
50932W        W22603  21.289  38.055   0.318
50933W        W22604  42.673  11.695  10.242
50934W        W22605  30.363   0.249   3.685
50935W        W22606  16.733   3.738   1.195
50936W        W22607   5.714  18.830   3.272
50937W        W22608  12.782  10.905  12.965
50938W        W22609  39.250  19.942   0.782
50939W        W22610   1.196  27.911   3.718
50940W        W22611  35.382   3.198  14.945
50941W        W22612  42.231  42.345   2.743
50942W        W22613  32.338  10.177  13.438
50943W        W22614  16.832  31.068  12.494
50944W        W22615  42.659  14.207  10.337
50945W        W22616  13.093  41.503  14.831
50946W        W22617  39.924  43.498  12.829
50947W        W22618  29.518   4.459   3.624
50948W        W22619  37.879  17.779  11.647
50949W        W22620  31.033  17.797  12.380
50950W        W22621  34.709   8.877   4.688
50951W        W22622  11.735  27.138  12.960
50952W        W22623   4.392  37.034  13.236
50953W        W22624   8.922  10.197  12.339
50954W        W22625  14.033  25.402  12.016
50955W        W22626   9.870  20.528   1.762
50956W        W22627  40.853  13.580  11.609
50957W        W22628  41.256  37.824  14.760
50958W        W22629  19.833  37.087  11.560
50959W        W22630  35.121   8.584  11.599
50960W        W22631  21.838  33.620   4.576
50961W        W22632  41.025  21.220   2.782
50962W        W22633  41.864  40.740   2.256
50963W        W22634  29.991   4.369   0.958
50964W        W22635  23.636  13.872  12.819
50965W        W22636  13.099  11.503  10.802
50966W        W22637  29.048   1.088  11.193
50967W        W22638   4.717  30.484   4.604
50968W        W22639  30.059  43.384  11.120
50969W        W22640   3.762  36.615  14.244
50970W        W22641  34.559  24.182   2.203
50971W        W22642  17.235  36.607   1.281
50972W        W22643  15.972  38.631  14.727
50973W        W22644  10.337   4.726   2.665
50974W        W22645  44.547  13.631   0.461
50975W        W22646   9.239  19.062  10.948
50976W        W22647  30.506  34.430  10.879
50977W        W22648  26.580  31.872   5.049
50978W        W22649   1.672  40.597   3.076
50979W        W22650  30.380  14.311  14.985
50980W        W22651   3.713  17.257   2.274
50981W        W22652  22.951  36.030   4.543
50982W        W22653  40.852  37.178  13.071
50983W        W22654  31.460  29.242   1.391
50984W        W22655  31.059  24.075   1.241
50985W        W22656  37.348  41.879  14.839
50986W        W22657   1.055  36.319  13.981
50987W        W22658  10.885  41.946   0.254
50988W        W22659  32.598  28.015   4.606
50989W        W22660  25.415  32.450  13.620
50990W        W22661   1.317  38.037   0.375
50991W        W22662   9.244   8.647   3.579
50992W        W22663  13.243   4.363   2.704
50993W        W22664  39.886  12.561  11.724
50994W        W22665  34.056  32.539   2.719
50995W        W22666   3.134  13.800  14.370
50996W        W22667  21.716  23.623  10.592
50997W        W22668   5.494  19.581  13.918
50998W        W22669  25.647  44.341   2.299
50999W        W22670  18.477  14.645   4.159
51000W        W22671  12.359  21.113  12.440
51001W        W22672  34.353  19.396   1.592
51002W        W22673  21.678   3.407  12.757
51003W        W22674  12.962  44.309   2.298
51004W        W22675   9.906  20.108  10.531
51005W        W22676  17.283   8.738  14.771
51006W        W22677   9.748  12.231   3.595
51007W        W22678   9.561  24.578   3.218
51008W        W22679  19.509  21.100   0.231
51009W        W22680  38.501  33.141  10.541
51010W        W22681   4.666  12.723   1.092
51011W        W22682  35.732  16.082  12.660
51012W        W22683  18.840  44.256   0.832
51013W        W22684  25.556  19.796   4.608
51014W        W22685  35.411   5.194   1.695
51015W        W22686   4.305   9.822  14.389
51016W        W22687  41.461  25.909   4.440
51017W        W22688   0.973  17.257   4.147
51018W        W22689   1.032   7.976   1.916
51019W        W22690  34.534  35.662  14.874
51020W        W22691  19.770  33.275  13.472
51021W        W22692   8.263   8.749   0.244
51022W        W22693  27.603  16.600  13.010
51023W        W22694  39.485  18.450   0.725
51024W        W22695   1.460  13.893  13.281
51025W        W22696  27.677   2.478   3.639
51026W        W22697   9.354  17.696   1.674
51027W        W22698   4.211  18.108   4.273
51028W        W22699  30.360  40.275   3.262
51029W        W22700  11.275   6.756   2.635
51030W        W22701   9.331  27.496   1.954
51031W        W22702  15.099   6.619   1.033
51032W        W22703   0.235  21.043   4.319
51033W        W22704  27.735  35.822   1.762
51034W        W22705  15.458  42.039  11.964
51035W        W22706   2.729  15.050  12.126
51036W        W22707  32.446  32.948   4.149
51037W        W22708  10.368  25.128   0.008
51038W        W22709  42.095  23.604  12.845
51039W        W22710  37.126  40.000  11.683
51040W        W22711   1.228  40.403  13.409
51041W        W22712  22.590  38.302   1.371
51042W        W22713  25.193  17.872  12.378
51043W        W22714  39.990   7.750   3.601
51044W        W22715  20.829   7.819   1.496
51045W        W22716  10.116  15.080  14.908
51046W        W22717  17.173  29.334  11.298
51047W        W22718  38.598  32.474   4.005
51048W        W22719  40.303  15.780   2.411
51049W        W22720  36.328  24.153   4.076
51050W        W22721  17.924  41.875  10.831
51051W        W22722  25.761  13.561  13.797
51052W        W22723  35.109  14.646   2.450
51053W        W22724   3.919  30.695  10.304
51054W        W22725  20.049  27.403  12.066
51055W        W22726   6.968   3.915  13.548
51056W        W22727  43.391  38.348   3.264
51057W        W22728  28.698  12.919   4.495
51058W        W22729  20.647   6.485   0.814
51059W        W22730  44.893  28.914   2.379
51060W        W22731  30.673  44.447   0.354
51061W        W22732  23.479   7.664  14.858
51062W        W22733  36.324  38.755  12.971
51063W        W22734  27.542  26.014  11.257
51064W        W22735  12.144  33.909   1.893
51065W        W22736  24.084  40.959  12.180
51066W        W22737   2.750  34.593  11.172
51067W        W22738  38.461   1.795   3.023
51068W        W22739  28.467   8.702   4.588
51069W        W22740  33.359  37.636  11.031
51070W        W22741  33.573  38.528   3.577
51071W        W22742  28.053   5.750   5.244
51072W        W22743   1.213  30.898  12.469
51073W        W22744  10.896  22.786   0.388
51074W        W22745  42.308  29.934  12.123
51075W        W22746   0.001   0.430   1.251
51076W        W22747  41.292   9.822   3.248
51077W        W22748  13.894  31.413  13.068
51078W        W22749  30.428   9.187   1.411
51079W        W22750  37.218   8.316  11.087
51080W        W22751  12.419  14.723  13.910
51081W        W22752  34.977  13.428  13.251
51082W        W22753   0.699  26.987   1.324
51083W        W22754  11.771  35.997  10.697
51084W        W22755  16.852   5.324  11.575
51085W        W22756  34.559  31.898  11.867
51086W        W22757  33.971  41.869  13.535
51087W        W22758  23.674  22.291   1.344
51088W        W22759  14.124   9.281  12.808
51089W        W22760  15.215  23.482   0.184
51090W        W22761  35.900  20.446  11.128
51091W        W22762   3.363   8.787   4.837
51092W        W22763  41.580  12.039  11.132
51093W        W22764  17.543  29.180   0.723
51094W        W22765  19.203  16.359   0.749
51095W        W22766  17.517  14.438  14.289
51096W        W22767  22.673  37.495  10.119
51097W        W22768   3.146  35.220   2.870
51098W        W22769  17.229  23.533  12.555
51099W        W22770  44.894  30.116   2.376
51100W        W22771  42.423  27.170   0.277
51101W        W22772  40.941  14.343   1.480
51102W        W22773  38.815   5.280  14.901
51103W        W22774  15.246   0.210   0.770
51104W        W22775  33.434  15.675   2.014
51105W        W22776  30.487   4.111   1.690
51106W        W22777  15.801  32.795  10.265
51107W        W22778   3.432  19.507   3.099
51108W        W22779  39.846   5.173  11.618
51109W        W22780  39.321  25.354  11.123
51110W        W22781  43.826  11.204  12.549
51111W        W22782  33.645  40.378  10.675
51112W        W22783  26.218   9.889   2.242
51113W        W22784  33.717  35.304   0.970
51114W        W22785  28.366  16.585   4.683
51115W        W22786  38.871  30.045  13.314
51116W        W22787  25.983  37.063  14.877
51117W        W22788  14.186  40.932  10.978
51118W        W22789  12.910  35.422  13.095
51119W        W22790  38.881  22.210  11.113
51120W        W22791  18.565  15.140  13.922
51121W        W22792  14.884   9.709  11.999
51122W        W22793  16.488   6.679  14.078
51123W        W22794  21.691   2.576  11.247
51124W        W22795   2.746  36.358   2.314
51125W        W22796  35.165   5.676   0.903
51126W        W22797  38.246   6.468   1.730
51127W        W22798  15.641  38.326  13.387
51128W        W22799  44.700   4.578   2.150
51129W        W22800  10.689   0.041   2.972
51130W        W22801  25.287   3.209  13.849
51131W        W22802  25.713  34.864  11.130
51132W        W22803   3.150  30.776   0.939
51133W        W22804  12.008  32.024  14.118
51134W        W22805  23.562  36.442   4.599
51135W        W22806  11.851   9.673  11.562
51136W        W22807  13.391   3.341   0.770
51137W        W22808  14.350  37.447  14.953
51138W        W22809   5.314   1.347   4.563
51139W        W22810  27.052   1.310  13.782
51140W        W22811  22.051  20.581   4.357
51141W        W22812  44.506  37.376   4.622
51142W        W22813  31.360  31.045   1.174
51143W        W22814  32.089  16.375  13.945
51144W        W22815  20.158  39.790   2.395
51145W        W22816   4.931  31.066   4.968
51146W        W22817   7.071  42.051  11.133
51147W        W22818  23.181  22.021  11.939
51148W        W22819   8.189   8.435   3.729
51149W        W22820  22.251   9.621  12.144
51150W        W22821  20.217   5.790  13.611
51151W        W22822   6.532   0.346  14.329
51152W        W22823   4.932  32.951   1.262
51153W        W22824  28.162  38.530   4.573
51154W        W22825  40.383  11.286  14.923
51155W        W22826  26.191  26.551   3.836
51156W        W22827  21.255  14.615  13.268
51157W        W22828  22.302  29.525   3.731
51158W        W22829  22.322  21.640   4.681
51159W        W22830  33.920  10.603   4.573
51160W        W22831   1.800  10.329  12.527
51161W        W22832  29.085  28.078   4.579
51162W        W22833  17.871  15.806  13.688
51163W        W22834  41.003  27.653  11.363
51164W        W22835  35.858   1.389   2.623
51165W        W22836  39.334  40.633  12.494
51166W        W22837   6.837  42.836   4.885
51167W        W22838   9.285   4.221  11.901
51168W        W22839  24.740  18.672  11.674
51169W        W22840  40.467  12.236   3.130
51170W        W22841   0.529   1.045   0.765
51171W        W22842  41.727  19.698  14.533
51172W        W22843  26.780  24.387   3.632
51173W        W22844  25.447  41.373   3.785
51174W        W22845   4.427   4.599   2.334
51175W        W22846  42.316  32.023   2.828
51176W        W22847  22.589  30.409   2.720
51177W        W22848  42.985  22.878   1.424
51178W        W22849  25.229   6.435  11.095
51179W        W22850  29.827  30.403  11.552
51180W        W22851  33.258  29.222   4.074
51181W        W22852   1.383  34.295   2.612
51182W        W22853  34.758  23.635   4.806
51183W        W22854  31.357  25.100   1.715
51184W        W22855  30.952   1.332  12.194
51185W        W22856  43.703   8.187  14.747
51186W        W22857  33.128  22.715  13.384
51187W        W22858  21.680   7.024   1.835
51188W        W22859  15.710  11.126  13.331
51189W        W22860  10.598  24.247  11.502
51190W        W22861   6.407  35.618  12.121
51191W        W22862  15.440   5.245  13.305
51192W        W22863  26.718  19.194   3.880
51193W        W22864  42.497  26.142  12.093
51194W        W22865  20.806  13.107   5.264
51195W        W22866  10.878   7.150   3.255
51196W        W22867  20.148  29.574  13.805
51197W        W22868   0.790   1.999   0.875
51198W        W22869  17.727  23.747   2.271
51199W        W22870   4.789  23.051   2.503
51200W        W22871  27.207  21.196  12.060
51201W        W22872  35.389   3.138   3.268
51202W        W22873  35.470  40.496  14.608
51203W        W22874  38.490  20.185   2.416
51204W        W22875  24.293   4.147  14.841
51205W        W22876   9.538  23.231   3.213
51206W        W22877   2.941  32.949  11.494
51207W        W22878  25.568   0.527   2.293
51208W        W22879  29.946  10.335   1.179
51209W        W22880  38.509  44.715  14.038
51210W        W22881  16.463  17.023  12.503
51211W        W22882  18.828  31.030   1.857
51212W        W22883   3.443  33.070  11.480
51213W        W22884   5.696  30.731   2.703
51214W        W22885  14.275   3.803  12.872
51215W        W22886  13.919   5.054  10.713
51216W        W22887  12.227   6.905   3.556
51217W        W22888   0.323  40.931  10.905
51218W        W22889  11.475  19.626  14.540
51219W        W22890  39.828  20.264  14.911
51220W        W22891  10.537  11.361   3.277
51221W        W22892  30.639  19.258   1.711
51222W        W22893  29.627  20.318  11.581
51223W        W22894  36.920  35.665   1.443
51224W        W22895  25.088  39.415   2.129
51225W        W22896  36.593   0.532  11.211
51226W        W22897  25.416  44.922   3.639
51227W        W22898  11.301  22.332  11.517
51228W        W22899   5.419   1.935   3.647
51229W        W22900  23.723  43.375  10.708
51230W        W22901  25.970  35.688  12.958
51231W        W22902  28.483  25.385  12.046
51232W        W22903   1.625   0.758  11.207
51233W        W22904  29.244  21.177   4.620
51234W        W22905  44.737  11.331   0.885
51235W        W22906   5.116  15.676   5.088
51236W        W22907  30.904  36.670  11.151
51237W        W22908  37.821   0.010   2.202
51238W        W22909  15.398   3.916   9.861
51239W        W22910  13.750  29.628  13.511
51240W        W22911  22.058   6.865  12.172
51241W        W22912  12.018  44.163   1.265
51242W        W22913  43.385  42.774  13.359
51243W        W22914  15.606  37.373   2.601
51244W        W22915   2.731  40.344   3.204
51245W        W22916   1.558  13.672   4.260
51246W        W22917  20.659  33.121  10.679
51247W        W22918  13.296   7.287   1.957
51248W        W22919   0.980   3.699   3.712
51249W        W22920  36.976  27.464  13.839
51250W        W22921  42.515  11.580  12.680
51251W        W22922  20.037  10.863  13.960
51252W        W22923  13.805  22.543   3.863
51253W        W22924  44.516   7.864  12.458
51254W        W22925  25.562  42.576  10.712
51255W        W22926  41.316  13.670   1.282
51256W        W22927  28.176  14.588   4.832
51257W        W22928  11.306  15.968   0.980
51258W        W22929   9.712  28.509  11.833
51259W        W22930  31.627   1.144  14.835
51260W        W22931  29.842  29.440   3.742
51261W        W22932  11.669  41.215   2.780
51262W        W22933   2.539  10.056  10.264
51263W        W22934   4.210  11.825   4.129
51264W        W22935  31.182  25.009  14.468
51265W        W22936  43.458  26.633   4.655
51266W        W22937  24.131  37.797  13.504
51267W        W22938   4.490  22.730  12.363
51268W        W22939  38.728  20.336   0.896
51269W        W22940  21.727   3.672  13.749
51270W        W22941  39.678  35.125   3.146
51271W        W22942  28.468  39.969  11.668
51272W        W22943  39.778   8.263  12.935
51273W        W22944   4.818  20.416   3.379
51274W        W22945  19.988  30.072  13.910
51275W        W22946  11.896  36.891   4.334
51276W        W22947   9.754  12.358  11.052
51277W        W22948   1.395  38.305   4.694
51278W        W22949  35.895  39.127  12.943
51279W        W22950  19.452  22.026  14.339
51280W        W22951  13.389  27.040   2.916
51281W        W22952   6.382   1.078  10.922
51282W        W22953  39.782  36.547   2.787
51283W        W22954  21.312  40.388  10.188
51284W        W22955  22.459  33.159  14.294
51285W        W22956  35.049  41.929   3.491
51286W        W22957  11.417  33.417  13.314
51287W        W22958   6.818  40.009  13.456
51288W        W22959  31.558  18.712  14.882
51289W        W22960  27.257  33.207   3.773
51290W        W22961  41.635  26.781   3.820
51291W        W22962  27.317   0.266  13.001
51292W        W22963   4.878   7.495   0.252
51293W        W22964  19.052  42.338  14.247
51294W        W22965  16.522  21.921   3.067
51295W        W22966  29.145  43.803  10.609
51296W        W22967  25.503   8.100  12.080
51297W        W22968  25.055  26.239   3.320
51298W        W22969  34.077  28.070   1.811
51299W        W22970  33.671  35.568   2.710
51300W        W22971  32.013  29.835   2.640
51301W        W22972  14.785  39.118  14.240
51302W        W22973   6.535  10.560  11.180
51303W        W22974  44.865  26.980   3.098
51304W        W22975  15.660  32.903   3.743
51305W        W22976   1.411   2.007   2.310
51306W        W22977  25.192  22.195   0.677
51307W        W22978  28.617   0.645   0.512
51308W        W22979  37.468  40.421  12.537
51309W        W22980   6.281  39.061  13.596
51310W        W22981   6.697  30.290   0.454
51311W        W22982  40.525  12.791   2.350
51312W        W22983  30.712  18.112  14.527
51313W        W22984   1.496  13.652  11.651
51314W        W22985  25.157  16.162   2.172
51315W        W22986  11.715  13.008   1.011
51316W        W22987  37.437  34.502   0.433
51317W        W22988  20.692  39.788   3.219
51318W        W22989  11.666  19.881   4.366
51319W        W22990   8.761  24.737   2.824
51320W        W22991  22.558   4.768   2.625
51321W        W22992  33.952  32.616  14.664
51322W        W22993  22.211  39.015   4.347
51323W        W22994   3.960  10.873   4.160
51324W        W22995  28.895   0.148   2.787
51325W        W22996  37.975   2.436   0.277
51326W        W22997  34.656  28.188   0.325
51327W        W22998   7.393  30.151   2.151
51328W        W22999  33.594  32.365   2.878
51329W        W23000  43.974  39.702   2.631
51330W        W23001  10.702  32.621   4.252
51331W        W23002  28.856  32.778   0.427
51332W        W23003  15.831   4.670   2.000
51333W        W23004  21.654  10.871  10.518
51334W        W23005  43.788   9.451  14.282
51335W        W23006  43.347  22.663  12.149
51336W        W23007   7.762  24.574  11.174
51337W        W23008  25.233  31.441  11.703
51338W        W23009  28.703  41.948  13.461
51339W        W23010  14.838  37.200   0.672
51340W        W23011  38.011  18.165  12.821
51341W        W23012  23.206  11.426   4.734
51342W        W23013   2.911  22.757  10.062
51343W        W23014   8.753   2.471  13.020
51344W        W23015  26.171   4.441  12.262
51345W        W23016  28.215  36.745  11.235
51346W        W23017  15.986  29.598   1.356
51347W        W23018  34.861   8.749   1.714
51348W        W23019  38.540  24.974  12.428
51349W        W23020  22.503  10.610   0.878
51350W        W23021  29.952  17.480  14.426
51351W        W23022  44.988  31.943  12.573
51352W        W23023  36.577  29.227  12.114
51353W        W23024  39.060  29.504   0.271
51354W        W23025  10.568  29.584   3.887
51355W        W23026  18.204   9.713   4.644
51356W        W23027  21.624  24.132   4.135
51357W        W23028  25.515  39.495  14.360
51358W        W23029  43.949  42.078  11.075
51359W        W23030  14.669   6.753   1.708
51360W        W23031  37.093  22.495  14.839
51361W        W23032  22.229  28.490  11.946
51362W        W23033  16.727  14.347  10.684
51363W        W23034  22.608  44.773  13.672
51364W        W23035  42.562  12.996   4.740
51365W        W23036  10.106   1.372  10.485
51366W        W23037  30.537  24.334   4.985
51367W        W23038  36.529   5.542   2.386
51368W        W23039  38.628  38.925  12.616
51369W        W23040  14.023   2.344  11.993
51370W        W23041  30.493  36.044  11.867
51371W        W23042  40.564   2.395  12.960
51372W        W23043  24.511  23.253  10.850
51373W        W23044  24.422  11.851   4.216
51374W        W23045  44.910   0.476  12.513
51375W        W23046  14.113  26.281  14.876
51376W        W23047  39.884   9.192  12.499
51377W        W23048   0.563  10.814  11.562
51378W        W23049  35.795  23.476  14.039
51379W        W23050   9.462  37.432   1.313
51380W        W23051   1.953  32.515   2.082
51381W        W23052  20.134  12.701   0.335
51382W        W23053   7.122   5.345  14.951
51383W        W23054  38.809  11.317  11.138
51384W        W23055   3.265  16.555   1.914
51385W        W23056   4.142   9.640  12.880
51386W        W23057  26.574   5.170   3.175
51387W        W23058   1.168   1.826  14.427
51388W        W23059  39.607  32.120  13.030
51389W        W23060  10.432  42.003  12.424
51390W        W23061  24.969  37.597   0.871
51391W        W23062  15.192  39.376   2.115
51392W        W23063  39.078   5.926  14.021
51393W        W23064  37.146  22.156   2.811
51394W        W23065  21.492  22.228   4.578
51395W        W23066   4.983  21.943  13.835
51396W        W23067   0.342  39.376  12.444
51397W        W23068  31.404  41.722   1.872
51398W        W23069  32.066   0.245  10.499
51399W        W23070  37.286  34.301   1.755
51400W        W23071   7.419  23.994   2.814
51401W        W23072  23.528  42.931   4.744
51402W        W23073  38.385  28.869   2.740
51403W        W23074  31.838  44.149  11.524
51404W        W23075  27.601  34.149  12.994
51405W        W23076  39.299  37.643  11.534
51406W        W23077  35.086   7.341   1.888
51407W        W23078   4.629  34.046  14.334
51408W        W23079  37.349  19.580   1.716
51409W        W23080  37.002  36.793  11.875
51410W        W23081  15.829  29.351  13.883
51411W        W23082   7.669  44.756   1.373
51412W        W23083  31.934  37.065  14.033
51413W        W23084  14.649  36.837   2.401
51414W        W23085  16.662  33.835  12.003
51415W        W23086  15.958  33.188  12.903
51416W        W23087  30.232   4.081   2.908
51417W        W23088   1.958  20.567  13.008
51418W        W23089  38.870   5.453  10.954
51419W        W23090  18.588  36.845   2.845
51420W        W23091   0.719  37.568  13.481
51421W        W23092  18.285   1.259  14.353
51422W        W23093  10.310  29.365   1.846
51423W        W23094   4.243  24.665  11.097
51424W        W23095  27.298   2.240   0.003
51425W        W23096  42.761   3.905   4.215
51426W        W23097  13.086  38.476  12.904
51427W        W23098  13.541   5.926   4.939
51428W        W23099  16.723   4.942  11.922
51429W        W23100  43.357  14.411   2.629
51430W        W23101   0.237   3.892   3.294
51431W        W23102  20.216   7.919   1.676
51432W        W23103  36.538  42.841  10.653
51433W        W23104  36.788  40.830   2.376
51434W        W23105  44.297  42.892  13.283
51435W        W23106  16.634  35.134   4.502
51436W        W23107  25.994  23.063  14.844
51437W        W23108  30.422  24.272   4.152
51438W        W23109  18.575  24.688   2.532
51439W        W23110  40.729  31.430  10.906
51440W        W23111  13.555  30.428  11.305
51441W        W23112  26.611   8.742  10.234
51442W        W23113  17.706   4.159  13.435
51443W        W23114  34.954  35.981  14.664
51444W        W23115   8.418  30.648  13.827
51445W        W23116  27.633   6.700  13.767
51446W        W23117  42.807  25.639   3.378
51447W        W23118  16.660  16.783  10.691
51448W        W23119  44.318  17.182   3.188
51449W        W23120  20.583  33.961  13.430
51450W        W23121   9.221   3.991  12.684
51451W        W23122  39.943   9.323   2.431
51452W        W23123  38.498  15.608  14.945
51453W        W23124   9.704   8.839   2.668
51454W        W23125  12.820  30.870   2.691
51455W        W23126  17.096  43.295   0.503
51456W        W23127  25.838  31.630   2.306
51457W        W23128   2.947  22.956   4.260
51458W        W23129  17.470   6.365  10.567
51459W        W23130  15.280  13.165   3.053
51460W        W23131  22.708  42.015   4.691
51461W        W23132   5.876  43.145  13.510
51462W        W23133  30.500  17.843  13.317
51463W        W23134  11.349  39.089   2.275
51464W        W23135  10.083  23.602   1.377
51465W        W23136  31.805  42.594   0.866
51466W        W23137  27.991   7.601  11.567
51467W        W23138  31.236  24.053  11.450
51468W        W23139  21.833   8.699  13.885
51469W        W23140  39.831  25.409   0.275
51470W        W23141   1.456  22.982  12.612
51471W        W23142   4.231  31.887  12.193
51472W        W23143  43.416   6.208  14.783
51473W        W23144  15.353  20.433  11.616
51474W        W23145   7.885   2.264   0.367
51475W        W23146  32.628   0.981   3.534
51476W        W23147  13.798  13.624  12.998
51477W        W23148  10.741   3.780   0.507
51478W        W23149  33.788   5.770  10.654
51479W        W23150  39.056  38.843   0.761
51480W        W23151  28.053  35.166  14.433
51481W        W23152  14.523  33.617  11.632
51482W        W23153   5.850  26.324  13.120
51483W        W23154  18.696  25.119  14.099
51484W        W23155  20.579  28.584  12.379
51485W        W23156  20.726  43.023   0.422
51486W        W23157  12.598  15.847   1.129
51487W        W23158   0.266  17.369   1.943
51488W        W23159  44.829  40.754  13.317
51489W        W23160  13.940  19.309   4.199
51490W        W23161  40.245  32.017  10.690
51491W        W23162  33.544   5.594   4.104
51492W        W23163   1.749  42.527  10.559
51493W        W23164  38.955  44.988   1.589
51494W        W23165  11.142   4.643   4.551
51495W        W23166  28.601  14.349   1.905
51496W        W23167  38.634   7.757   0.454
51497W        W23168  17.631  15.176   3.423
51498W        W23169  14.366  41.974   3.735
51499W        W23170  15.595  40.116   3.547
51500W        W23171   4.352  31.485  13.065
51501W        W23172  21.359  24.649  12.435
51502W        W23173   7.199  26.188   3.787
51503W        W23174   2.254  24.598   4.704
51504W        W23175  33.336  10.761  13.880
51505W        W23176  27.305  25.167   3.154
51506W        W23177  11.883  19.539   0.801
51507W        W23178  26.156   3.830   0.862
51508W        W23179   5.642  23.234  11.519
51509W        W23180  14.037  19.720  12.961
51510W        W23181   2.172   1.379   4.136
51511W        W23182  10.326   8.286  12.035
51512W        W23183   4.789  32.035  11.709
51513W        W23184  37.131   4.215   3.119
51514W        W23185  29.679  16.734  14.870
51515W        W23186  26.279  31.530   1.738
51516W        W23187  22.211  44.860   4.500
51517W        W23188  15.372  32.611   0.940
51518W        W23189  39.566  26.482   3.205
51519W        W23190  39.971   6.544  14.397
51520W        W23191  16.561  10.698   4.658
51521W        W23192  30.725  31.449  11.308
51522W        W23193  26.086  21.994   1.109
51523W        W23194  28.427   9.930   2.008
51524W        W23195  15.139  26.916   3.253
51525W        W23196  14.751  22.100  13.068
51526W        W23197  23.958  33.420  11.791
51527W        W23198  30.852  32.916   4.131
51528W        W23199  33.518   4.921   0.731
51529W        W23200   0.448  44.540  11.543
51530W        W23201  12.508  22.219  12.012
51531W        W23202  20.744  20.218   3.116
51532W        W23203  38.436  28.578  11.569
51533W        W23204  19.132   1.864  10.503
51534W        W23205   8.373   9.843   4.390
51535W        W23206  22.380  25.719   4.495
51536W        W23207  18.560  20.104   0.772
51537W        W23208   6.674  43.331  10.684
51538W        W23209   5.496  21.666  14.522
51539W        W23210  43.324   6.835   3.115
51540W        W23211  19.759  10.176   2.675
51541W        W23212  41.878  39.818  10.491
51542W        W23213  44.794  32.651   4.069
51543W        W23214   4.819   1.330   1.208
51544W        W23215  39.420  44.898   3.271
51545W        W23216  39.057  32.531   4.249
51546W        W23217  40.462   2.662  13.543
51547W        W23218  26.276  23.064   1.928
51548W        W23219   3.591  25.898   1.270
51549W        W23220  43.795  35.975  13.754
51550W        W23221   7.118   1.827  14.284
51551W        W23222  29.656   3.249  13.334
51552W        W23223  35.181  20.978  10.183
51553W        W23224  38.559   3.334   4.600
51554W        W23225   9.366   6.348  10.694
51555W        W23226  28.361  11.824  10.519
51556W        W23227  33.275  25.557   1.956
51557W        W23228  40.218  40.878   1.398
51558W        W23229  27.656  36.365  13.878
51559W        W23230  23.194   7.652   3.310
51560W        W23231  15.797  37.404  11.588
51561W        W23232  19.251   1.787  13.951
51562W        W23233  35.936   6.284  13.856
51563W        W23234  21.055  19.948  10.603
51564W        W23235   6.304   4.912   3.587
51565W        W23236  24.998  14.066   0.681
51566W        W23237  42.858  12.123   5.162
51567W        W23238   5.932  26.969   3.394
51568W        W23239  43.477   8.137   3.812
51569W        W23240  42.324  33.158   0.470
51570W        W23241  16.046  18.210   1.170
51571W        W23242  34.578  27.288  13.913
51572W        W23243   6.448  33.370  10.090
51573W        W23244   3.136  41.583   4.571
51574W        W23245  19.258   3.395   1.335
51575W        W23246  24.590  17.472   4.815
51576W        W23247   4.415  37.872   3.809
51577W        W23248  36.903  40.436  10.910
51578W        W23249  27.004  27.245   4.150
51579W        W23250  18.161  13.319  13.876
51580W        W23251  38.028   4.822   1.964
51581W        W23252   4.364   8.886   2.217
51582W        W23253  30.387   1.520   1.511
51583W        W23254  39.349  26.662  14.445
51584W        W23255  21.820  23.135   5.666
51585W        W23256  18.693  21.221  11.568
51586W        W23257  15.036  36.011  13.853
51587W        W23258  38.804  41.439   0.458
51588W        W23259  11.976  20.987  12.833
51589W        W23260   9.475   0.455  11.538
51590W        W23261  28.433  12.742   2.179
51591W        W23262  43.900  26.539   1.203
51592W        W23263  15.231  18.036   0.861
51593W        W23264  17.076  43.946  10.717
51594W        W23265  26.991  31.464   0.051
51595W        W23266  14.715  44.504   0.750
51596W        W23267  10.431  38.506  14.932
51597W        W23268   3.949  32.989  11.450
51598W        W23269  12.241  19.198   1.762
51599W        W23270  17.424  10.686  12.977
51600W        W23271  19.108  33.506   3.077
51601W        W23272  24.922  12.759  13.848
51602W        W23273  39.823   1.831   2.772
51603W        W23274   4.718   1.928   2.954
51604W        W23275  27.457  42.942   2.294
51605W        W23276  15.098   3.449   2.770
51606W        W23277  42.534  25.529   3.877
51607W        W23278   1.955   6.596   0.129
51608W        W23279  30.040  11.148  10.541
51609W        W23280  39.037  41.523  12.572
51610W        W23281   4.209  20.478  11.158
51611W        W23282   5.978  34.035   4.748
51612W        W23283  38.360   6.147  14.555
51613W        W23284  29.934  16.557   0.311
51614W        W23285  11.410  33.702  12.581
51615W        W23286  24.528  38.859   1.228
51616W        W23287  17.059  18.205   4.074
51617W        W23288  35.295  26.664   2.728
51618W        W23289  29.503  22.606  11.168
51619W        W23290  29.684  20.045  12.012
51620W        W23291  13.748   7.576   1.963
51621W        W23292   2.211  35.660  11.712
51622W        W23293   7.336  15.198  10.594
51623W        W23294  29.993  36.851  14.744
51624W        W23295  18.214  44.037   4.142
51625W        W23296  28.042  22.110  13.735
51626W        W23297  15.424   5.338   4.233
51627W        W23298  32.951  17.363   3.338
51628W        W23299   5.395  19.571   0.371
51629W        W23300   1.266  14.062  14.474
51630W        W23301  14.110  13.887   1.847
51631W        W23302   0.241  24.416  14.434
51632W        W23303  20.286   8.913  11.574
51633W        W23304  23.651  31.866   2.215
51634W        W23305  16.794  36.475  12.790
51635W        W23306  39.471   6.246  14.409
51636W        W23307   4.348  36.911  11.885
51637W        W23308  17.568   2.219  13.356
51638W        W23309  36.844  11.718  14.038
51639W        W23310  38.022  32.432  14.983
51640W        W23311  34.578   8.344  13.510
51641W        W23312  19.703   9.963   2.198
51642W        W23313  16.639   7.621   0.941
51643W        W23314  18.244  16.298  14.866
51644W        W23315   9.236  13.688   2.256
51645W        W23316  19.098  19.671  12.044
51646W        W23317  36.439  33.358  14.726
51647W        W23318  28.977  38.970  11.593
51648W        W23319  16.313   1.502   0.301
51649W        W23320  26.466  20.278   0.276
51650W        W23321  22.652  23.886   5.177
51651W        W23322  26.631  13.100  14.646
51652W        W23323   6.402  21.245   4.174
51653W        W23324  21.192  42.379   4.187
51654W        W23325  26.990   1.363  11.870
51655W        W23326  32.508   0.228  14.480
51656W        W23327  38.958  34.941   4.816
51657W        W23328  33.544  39.530  14.831
51658W        W23329   5.136  37.797   4.591
51659W        W23330   6.942   8.265  14.458
51660W        W23331  44.796  17.451  10.590
51661W        W23332  16.181   6.523   1.345
51662W        W23333   1.533  35.763   1.620
51663W        W23334  16.294  26.926   3.548
51664W        W23335  14.330  34.385   1.479
51665W        W23336   1.242  10.432  11.841
51666W        W23337  13.241  40.532  11.506
51667W        W23338  25.497   8.449   0.365
51668W        W23339  39.886  28.909   3.775
51669W        W23340   1.841  33.572  12.410
51670W        W23341  43.100  34.317  13.313
51671W        W23342  18.685  39.623  13.923
51672W        W23343  29.449   6.989  14.441
51673W        W23344  28.367  16.782   1.505
51674W        W23345  43.181  22.146  12.430
51675W        W23346  23.097   9.098   0.882
51676W        W23347  19.967  37.097   1.337
51677W        W23348  25.983   6.874  10.514
51678W        W23349   2.492  15.243  12.539
51679W        W23350  11.284  18.157   1.890
51680W        W23351  16.263  33.860   1.512
51681W        W23352  41.289  32.599  10.770
51682W        W23353  40.862  17.765  13.022
51683W        W23354  32.890  18.027   0.161
51684W        W23355  13.733  36.948   4.220
51685W        W23356  13.265  32.603   3.888
51686W        W23357  30.692  18.543   3.214
51687W        W23358  12.517  44.266  13.276
51688W        W23359   8.407  31.776   2.069
51689W        W23360   3.666  37.264  11.123
51690W        W23361  33.174  14.302   3.113
51691W        W23362   2.779  31.638   3.369
51692W        W23363  40.556  19.522   3.917
51693W        W23364   1.587  24.138  11.686
51694W        W23365   0.276  19.034   4.238
51695W        W23366  38.923  37.290  14.173
51696W        W23367  14.673  10.884  14.832
51697W        W23368  15.279  10.567  14.068
51698W        W23369  35.021   1.957  10.709
51699W        W23370  35.962  27.993  11.163
51700W        W23371  25.151  31.746   0.304
51701W        W23372  21.657  12.590   2.288
51702W        W23373  12.334  29.984  13.453
51703W        W23374  44.342  21.995   0.956
51704W        W23375  42.402  27.167   2.170
51705W        W23376  40.743  20.064  11.650
51706W        W23377   9.372  29.182   0.442
51707W        W23378   2.399  35.420  12.141
51708W        W23379  33.883  34.557  12.005
51709W        W23380  12.711  16.902  13.373
51710W        W23381   1.454   2.878   2.169
51711W        W23382  15.888  32.641   0.902
51712W        W23383  13.741  36.172  11.860
51713W        W23384  18.152  30.829  11.927
51714W        W23385   8.253  35.516   4.068
51715W        W23386   5.460  23.205  11.038
51716W        W23387   6.215   8.249  10.946
51717W        W23388  28.608  43.424   3.363
51718W        W23389  10.226  13.252  12.902
51719W        W23390  36.512  13.752  14.078
51720W        W23391  24.476  43.772   2.157
51721W        W23392   3.265  37.011  12.891
51722W        W23393  23.162  36.141   3.590
51723W        W23394   5.217  39.078  10.675
51724W        W23395  18.248  36.858   1.859
51725W        W23396  41.002   8.154   0.103
51726W        W23397  19.103  30.585   3.645
51727W        W23398  33.046  16.179  13.054
51728W        W23399  10.907  16.226  14.484
51729W        W23400   7.409   3.875  14.881
51730W        W23401  34.115  30.563  14.725
51731W        W23402  37.662  42.728   0.974
51732W        W23403  19.954   3.272   3.356
51733W        W23404  10.470  12.239   4.945
51734W        W23405  27.112  28.666   2.668
51735W        W23406  40.376  38.177  12.084
51736W        W23407  14.690  25.680  12.342
51737W        W23408   5.354  13.078   0.043
51738W        W23409  36.488   6.635  12.606
51739W        W23410  33.881  32.045   2.567
51740W        W23411  33.949  32.605  11.876
51741W        W23412  30.180  28.932  13.479
51742W        W23413  38.444  15.193   4.723
51743W        W23414  39.818   1.278  12.109
51744W        W23415   8.595  33.039   0.688
51745W        W23416  44.838  43.755  11.302
51746W        W23417  15.280  40.034  11.106
51747W        W23418  25.081  11.268   2.903
51748W        W23419  32.475  34.376  12.082
51749W        W23420  22.975  18.062  11.821
51750W        W23421  34.115   4.500  13.416
51751W        W23422  23.209  11.265  13.712
51752W        W23423  16.765   9.542  14.919
51753W        W23424  26.693   4.799  14.694
51754W        W23425  29.861  36.163   1.387
51755W        W23426  10.316  32.013  12.556
51756W        W23427  23.178  39.376  10.172
51757W        W23428  38.791  19.019  11.569
51758W        W23429  11.417  12.220   1.321
51759W        W23430  22.528  14.858  11.287
51760W        W23431  12.898  17.359  13.243
51761W        W23432  28.721  18.577   3.204
51762W        W23433  42.058   8.701  12.515
51763W        W23434  20.990  16.611   1.426
51764W        W23435  38.252   2.386   4.342
51765W        W23436  12.107  41.471  12.307
51766W        W23437  21.720  27.118   1.667
51767W        W23438  34.259   2.778   0.390
51768W        W23439   4.377  27.873   4.343
51769W        W23440  29.797  34.586   4.198
51770W        W23441  22.786  21.052   4.501
51771W        W23442  22.709  15.745  13.934
51772W        W23443  42.285  43.834  12.148
51773W        W23444   8.472  43.469   0.360
51774W        W23445  29.500   6.168   0.344
51775W        W23446  24.954   1.873  12.408
51776W        W23447  15.759  21.597   0.864
51777W        W23448  26.344   6.077  14.620
51778W        W23449  41.462  30.152   4.522
51779W        W23450  41.124  27.123  14.672
51780W        W23451  34.436   3.331   4.602
51781W        W23452  10.733  11.199   3.725
51782W        W23453   4.889  22.757  13.476
51783W        W23454  10.764  20.441  11.592
51784W        W23455  18.833  41.870  11.732
51785W        W23456  10.674  25.025  13.706
51786W        W23457   8.753  28.188  12.080
51787W        W23458  10.233  25.897  12.468
51788W        W23459  28.106   5.734  12.656
51789W        W23460  32.649  31.996   3.109
51790W        W23461  32.465   9.582   1.926
51791W        W23462  41.923  14.758   0.411
51792W        W23463   2.210  28.406   3.755
51793W        W23464   4.648  31.508  13.557
51794W        W23465  40.431  40.364  11.500
51795W        W23466  32.111  19.217   4.191
51796W        W23467  38.702  23.561   4.014
51797W        W23468  40.691  35.102  14.019
51798W        W23469  17.207  19.729   2.325
51799W        W23470  28.270  29.054   4.216
51800W        W23471  14.438  13.970   5.126
51801W        W23472  33.415  36.812  14.761
51802W        W23473  29.128  44.302  10.724
51803W        W23474   6.515  38.853  14.008
51804W        W23475   3.980   3.290   4.124
51805W        W23476  39.567   8.885  12.167
51806W        W23477  33.565  15.005  12.144
51807W        W23478  34.955  43.877   2.176
51808W        W23479  44.982   6.883   1.831
51809W        W23480  34.903  27.949   2.230
51810W        W23481  28.141  17.855   2.688
51811W        W23482  12.150  32.434   4.261
51812W        W23483  41.843  13.578   0.780
51813W        W23484  32.057  25.567   3.587
51814W        W23485  12.415  37.688   5.153
51815W        W23486  23.015  20.973   3.628
51816W        W23487  17.251  40.284   0.407
51817W        W23488  43.342  21.276   4.081
51818W        W23489  21.594  40.806   1.947
51819W        W23490  38.689  37.268   5.167
51820W        W23491  23.073  27.871  13.176
51821W        W23492  43.271  28.189   2.718
51822W        W23493   6.315  20.763  14.920
51823W        W23494  42.106   2.337   1.549
51824W        W23495  20.008   5.152   2.381
51825W        W23496   8.819  21.583   1.264
51826W        W23497  24.030  37.197  10.423
51827W        W23498  27.915  33.094   2.879
51828W        W23499  27.727  40.339  14.208
51829W        W23500   5.243  41.325   4.974
51830W        W23501  19.777  36.640  13.878
51831W        W23502  38.805  25.524   4.847
51832W        W23503  34.237  34.406   3.393
51833W        W23504  33.351  12.429  10.383
51834W        W23505  44.817  23.106  10.488
51835W        W23506  30.920   0.582   0.458
51836W        W23507  23.475  30.175   4.159
51837W        W23508  39.808  28.420   1.791
51838W        W23509  24.532   7.009   3.792
51839W        W23510  35.978   9.195   1.760
51840W        W23511  12.371  18.303   0.853
51841W        W23512  16.941  10.270  14.035
51842W        W23513   1.053  17.729   3.336
51843W        W23514   6.938  22.483  13.945
51844W        W23515  22.774   7.830  10.466
51845W        W23516  37.022  13.332  13.852
51846W        W23517   3.446  15.897  11.459
51847W        W23518  24.182  11.595  11.048
51848W        W23519  28.937  14.283   0.668
51849W        W23520  39.878  37.891   0.821
51850W        W23521  38.606   3.399   5.182
51851W        W23522  14.727  36.131  14.849
51852W        W23523  36.969  18.792   2.131
51853W        W23524  25.593  44.278  14.390
51854W        W23525  40.490  43.813  14.422
51855W        W23526  33.246   2.035  12.977
51856W        W23527  14.605  31.503   2.637
51857W        W23528   4.184  37.059   0.313
51858W        W23529  18.973  21.800   2.623
51859W        W23530  27.434  17.261   3.157
51860W        W23531  29.978  16.684  12.481
51861W        W23532  16.524   2.737   3.574
51862W        W23533  11.268  24.186  14.888
51863W        W23534   4.247  33.883  13.277
51864W        W23535  40.863  18.274  12.138
51865W        W23536  18.178  18.992   4.585
51866W        W23537  43.558  32.108  13.229
51867W        W23538  21.731  33.872   3.248
51868W        W23539  18.680  43.998  11.456
51869W        W23540  40.572  19.577   2.341
51870W        W23541  22.455   2.940  11.606
51871W        W23542  41.357  33.543   2.744
51872W        W23543  37.433  24.129   4.064
51873W        W23544   6.750  26.167   4.491
51874W        W23545  25.794  19.011   4.224
51875W        W23546  20.765  32.250  10.950
51876W        W23547  22.096   7.445   2.742
51877W        W23548  34.335  17.994  11.135
51878W        W23549  27.450   1.400  12.084
51879W        W23550  42.222  38.863   1.226
51880W        W23551  29.157  20.476  11.450
51881W        W23552  43.633  21.274  13.015
51882W        W23553  31.517  44.504   4.570
51883W        W23554  32.574  40.874   4.199
51884W        W23555  24.288  23.150   4.256
51885W        W23556  29.086  38.117   2.225
51886W        W23557  44.030  12.073   1.035
51887W        W23558  35.354  15.357  14.792
51888W        W23559  25.718   8.035   0.870
51889W        W23560  20.551  16.027  14.362
51890W        W23561  38.430  25.484   0.393
51891W        W23562  27.595  11.279  11.081
51892W        W23563  28.078  38.053  12.850
51893W        W23564  24.525  35.358  12.971
51894W        W23565  17.135  13.874   3.321
51895W        W23566  15.260  24.239   3.958
51896W        W23567  21.093  38.099   2.234
51897W        W23568  17.618  10.552   1.249
51898W        W23569  11.803  16.085   0.353
51899W        W23570  10.241  36.474   3.608
51900W        W23571   7.233  33.380  11.442
51901W        W23572  31.209  41.854  12.517
51902W        W23573   6.157  16.147   3.575
51903W        W23574  26.872  17.398   3.990
51904W        W23575  44.319  22.271  10.946
51905W        W23576  16.580  30.992   0.745
51906W        W23577  27.439  35.613   3.154
51907W        W23578   5.863  25.665   3.686
51908W        W23579   1.494  30.830   4.255
51909W        W23580   9.160  20.594  13.070
51910W        W23581   6.742  34.406   1.223
51911W        W23582  42.290  43.810  13.949
51912W        W23583   4.238   5.085   2.233
51913W        W23584  27.709  37.374   0.358
51914W        W23585  19.652  42.047  13.428
51915W        W23586  36.050  28.118  10.672
51916W        W23587  14.687  35.325   2.327
51917W        W23588  30.005  16.028   2.495
51918W        W23589  43.378  20.522  14.694
51919W        W23590  18.853  25.961   3.335
51920W        W23591  11.576  11.201  12.539
51921W        W23592   2.975   0.289  14.983
51922W        W23593  19.677  35.960   1.798
51923W        W23594  37.420  19.162   1.406
51924W        W23595  43.417   9.589  12.278
51925W        W23596  42.367  34.929   0.731
51926W        W23597  15.197  23.668   0.824
51927W        W23598  15.871  34.148   1.662
51928W        W23599   9.689  17.705   0.758
51929W        W23600  27.477  38.022  11.347
51930W        W23601   9.441  33.612  11.177
51931W        W23602  23.220  38.942   0.487
51932W        W23603  22.867  16.217  14.097
51933W        W23604  44.315  18.733  11.532
51934W        W23605  16.218  11.912   1.502
51935W        W23606   8.878  22.932  14.869
51936W        W23607  43.492   9.374   4.679
51937W        W23608  28.410  39.897  10.734
51938W        W23609  43.096  24.377  10.111
51939W        W23610   2.435  17.501  10.708
51940W        W23611  34.347  44.372  10.146
51941W        W23612   5.873  34.924  14.001
51942W        W23613  20.705  26.009   5.591
51943W        W23614  14.115  18.505   3.653
51944W        W23615  11.217  39.580  14.340
51945W        W23616   7.270  25.152   3.683
51946W        W23617  25.786   3.832   3.668
51947W        W23618  27.425  24.653  14.956
51948W        W23619  27.719   8.519   4.338
51949W        W23620  37.558  40.356   4.389
51950W        W23621   1.602  10.070  12.088
51951W        W23622  26.519  41.995  10.719
51952W        W23623  44.611  19.171   3.155
51953W        W23624  37.804   5.708  12.410
51954W        W23625  27.901  26.568   2.336
51955W        W23626   8.290   5.176  14.426
51956W        W23627   9.896  19.992   4.221
51957W        W23628   1.433  25.082   2.174
51958W        W23629  42.525  33.661   2.299
51959W        W23630  37.568  31.976   4.443
51960W        W23631  30.388  16.559   1.211
51961W        W23632  14.232  32.511  14.295
51962W        W23633  29.406  30.358  14.809
51963W        W23634  44.265   7.178   0.415
51964W        W23635  29.539  41.118   3.642
51965W        W23636  30.538  21.680  12.794
51966W        W23637   8.234  30.376   1.880
51967W        W23638  13.919   7.748  13.443
51968W        W23639  22.977   2.259   0.643
51969W        W23640   5.026   8.778   1.818
51970W        W23641   2.007  39.786   3.193
51971W        W23642  29.425  39.362   4.066
51972W        W23643   9.260  14.187   2.371
51973W        W23644  42.503  35.334  12.336
51974W        W23645  33.801   0.196   0.840
51975W        W23646  41.353   6.217   4.556
51976W        W23647   4.698  23.038  10.540
51977W        W23648  28.611  44.759  13.938
51978W        W23649   2.374  32.280  10.104
51979W        W23650   1.861  27.164  12.909
51980W        W23651  16.377  33.498  13.575
51981W        W23652  26.878   8.671  13.491
51982W        W23653  33.538  27.905  12.360
51983W        W23654  32.839  16.275  12.094
51984W        W23655  38.375  36.903  11.723
51985W        W23656  16.724  44.239   0.700
51986W        W23657  15.038  36.910   2.735
51987W        W23658   0.573  12.156  14.062
51988W        W23659  23.591  13.964   3.380
51989W        W23660  11.335  13.658   1.169
51990W        W23661  41.417  28.433  14.742
51991W        W23662  20.322   0.740   3.240
51992W        W23663   0.962  11.824  11.617
51993W        W23664  40.080  26.514   0.806
51994W        W23665  31.883  43.598   4.148
51995W        W23666  44.933   6.306   1.772
51996W        W23667   3.019   3.252  11.537
51997W        W23668  44.346  14.077  14.334
51998W        W23669  26.644  44.557   0.547
51999W        W23670  42.028  11.720  14.383
52000W        W23671   2.310   2.794   4.132
52001W        W23672   4.054  30.486   0.439
52002W        W23673  11.326  35.290  13.522
52003W        W23674  10.747  15.709  12.085
52004W        W23675  12.199  28.519  11.221
52005W        W23676  32.120  21.065   0.305
52006W        W23677   5.885  30.060  13.591
52007W        W23678  19.601   6.913  14.062
52008W        W23679  23.118  37.131   2.407
52009W        W23680  27.949   3.468   4.157
52010W        W23681   7.625  11.353   1.392
52011W        W23682   6.821  40.422  14.434
52012W        W23683  21.203   5.805  12.657
52013W        W23684  16.314  29.508  12.091
52014W        W23685  25.994  36.006  13.948
52015W        W23686  36.553  38.049   0.484
52016W        W23687  21.031  32.343  10.488
52017W        W23688  11.800  38.771  14.243
52018W        W23689  23.300  14.630  13.471
52019W        W23690  36.498  21.248  12.128
52020W        W23691   2.352  12.678   4.942
52021W        W23692  24.028   0.670  12.306
52022W        W23693  41.507  20.836  12.072
52023W        W23694   6.898  24.040   2.848
52024W        W23695  20.554   3.605   1.425
52025W        W23696   4.279  21.221  13.985
52026W        W23697   0.318  44.500  10.700
52027W        W23698  26.337  43.536  13.363
52028W        W23699  38.025  41.506   0.993
52029W        W23700  20.200  26.502  14.864
52030W        W23701  35.089   1.858   0.809
52031W        W23702  44.217  32.153  11.176
52032W        W23703  15.033   2.458  13.500
52033W        W23704   7.314  32.929   4.209
52034W        W23705  44.170   5.330  12.504
52035W        W23706  38.886   1.252   2.201
52036W        W23707  27.864  21.076  14.366
52037W        W23708  19.739   9.343   3.551
52038W        W23709  34.294  41.461  10.736
52039W        W23710   2.780  35.055   0.315
52040W        W23711   8.879  31.122   1.305
52041W        W23712  21.982  15.957  14.376
52042W        W23713  39.451  28.367  11.504
52043W        W23714  17.296   6.362   9.548
52044W        W23715  30.813   2.196  10.660
52045W        W23716   8.463  42.530  13.849
52046W        W23717  43.765  42.769  12.053
52047W        W23718  42.026  19.089  13.294
52048W        W23719  26.630  27.946   5.303
52049W        W23720  27.393   1.956   1.617
52050W        W23721  11.055  25.065   1.008
52051W        W23722  17.945  15.856   2.659
52052W        W23723  22.161  11.941  12.513
52053W        W23724  29.933  35.019   0.871
52054W        W23725  42.683  41.743  12.510
52055W        W23726  26.121  23.461   1.630
52056W        W23727   5.229  10.679   3.075
52057W        W23728  13.316   1.941  12.436
52058W        W23729  33.886  16.374   2.334
52059W        W23730   5.689  37.645  11.698
52060W        W23731  10.940   5.457   1.471
52061W        W23732   6.405  10.628   2.710
52062W        W23733  44.370  13.063   2.583
52063W        W23734  18.275   2.394  11.996
52064W        W23735   5.667  10.675  14.970
52065W        W23736  12.682  20.954  11.131
52066W        W23737  23.741  30.105  11.365
52067W        W23738   2.789  11.760   0.451
52068W        W23739  39.603  13.671  12.564
52069W        W23740  39.904  31.318  10.577
52070W        W23741   2.430  28.903  10.855
52071W        W23742  29.891   4.198  13.715
52072W        W23743  22.573   5.122   4.644
52073W        W23744  17.421  37.092   1.346
52074W        W23745  36.289  32.858   1.502
52075W        W23746  23.288  21.196   2.000
52076W        W23747   5.410  32.318   0.682
52077W        W23748  20.075  38.623   1.123
52078W        W23749  27.229  38.608  14.353
52079W        W23750   6.121  34.173   4.248
52080W        W23751  18.577  24.674  14.288
52081W        W23752  31.020  37.876  13.458
52082W        W23753  25.734  24.651  13.576
52083W        W23754  23.274  44.342  13.277
52084W        W23755   2.504  35.318   4.018
52085W        W23756  20.924  33.034   3.856
52086W        W23757   6.933  41.313   2.364
52087W        W23758   9.660  31.906   4.944
52088W        W23759   2.874   4.230  11.882
52089W        W23760  22.943  20.543  11.192
52090W        W23761   9.846  29.481   1.241
52091W        W23762  16.097  41.284  14.935
52092W        W23763  34.359  20.132  14.031
52093W        W23764  18.755  31.111  13.536
52094W        W23765   3.340  11.751  10.609
52095W        W23766  31.402   5.666  12.002
52096W        W23767  20.372  31.824  14.507
52097W        W23768   0.992  37.118  10.579
52098W        W23769  34.339  40.026  10.954
52099W        W23770  27.902  28.529  12.928
52100W        W23771   8.830  42.004  13.603
52101W        W23772  11.568  34.661   2.935
52102W        W23773  17.870  10.443  12.979
52103W        W23774  19.514  32.890   3.833
52104W        W23775  13.544  41.990   0.790
52105W        W23776  43.735  35.906  11.185
52106W        W23777  42.800  29.381   3.332
52107W        W23778   4.008  34.608   0.803
52108W        W23779  42.901  20.768  12.042
52109W        W23780  16.562  41.845  10.477
52110W        W23781  30.210  25.143  10.669
52111W        W23782  37.220  28.789  13.384
52112W        W23783  21.963  20.190  13.871
52113W        W23784  36.084  18.478   3.161
52114W        W23785  25.032  42.000   0.891
52115W        W23786   9.219   1.838  14.765
52116W        W23787  30.013  38.344  12.555
52117W        W23788  32.465  37.621  12.468
52118W        W23789  17.096  23.081  14.783
52119W        W23790  35.075   8.237  13.001
52120W        W23791   7.409  26.233  13.508
52121W        W23792   5.949  38.486   1.315
52122W        W23793  34.616  23.155  12.111
52123W        W23794  43.840   3.264  13.232
52124W        W23795  24.072   4.832   1.921
52125W        W23796  37.938  33.629  11.107
52126W        W23797  23.709   2.839  14.468
52127W        W23798  43.363  43.860  14.093
52128W        W23799  42.453  14.246   9.857
52129W        W23800  40.405  26.360  12.522
52130W        W23801  29.281  32.572   4.930
52131W        W23802  44.415  27.223   3.212
52132W        W23803  35.807  41.018   2.304
52133W        W23804  41.599  22.375   3.660
52134W        W23805   8.127  17.328  12.895
52135W        W23806  18.957   0.589   1.325
52136W        W23807  17.510  37.029  14.862
52137W        W23808  18.159  12.569   1.635
52138W        W23809  35.141  35.092  11.067
52139W        W23810  15.135  17.100   1.859
52140W        W23811   9.162   8.867  14.332
52141W        W23812  41.107  18.273  14.449
52142W        W23813  10.389  16.234  14.376
52143W        W23814  24.176  18.290   3.254
52144W        W23815  20.025  16.619  13.976
52145W        W23816  43.447  19.176  14.395
52146W        W23817   4.811  20.056   1.924
52147W        W23818  43.884  27.730   4.953
52148W        W23819  17.183  14.568  10.738
52149W        W23820   4.212  35.897   0.291
52150W        W23821   6.267  33.086   2.886
52151W        W23822   8.457   3.348  13.995
52152W        W23823  32.069  26.086   3.636
52153W        W23824  35.889  44.771  12.473
52154W        W23825  42.006   1.320   0.665
52155W        W23826  27.324   7.931  14.956
52156W        W23827  44.708  30.892   3.307
52157W        W23828  43.373  34.997  12.438
52158W        W23829  15.410  11.077   3.244
52159W        W23830  11.874  11.569   3.211
52160W        W23831  15.088  29.345  14.826
52161W        W23832  34.590  17.889   3.112
52162W        W23833  43.219  12.687   2.452
52163W        W23834  21.223   9.288  12.298
52164W        W23835  37.276  15.169  14.374
52165W        W23836  43.976  17.680   0.704
52166W        W23837  23.750   2.493   4.875
52167W        W23838  25.386  25.037   4.252
52168W        W23839  11.539  31.571   4.235
52169W        W23840   9.550   0.503   1.026
52170W        W23841   6.237  25.947  11.643
52171W        W23842  28.546  19.678   0.986
52172W        W23843  18.687   2.941   0.022
52173W        W23844   4.202  36.185  10.744
52174W        W23845   6.828  44.782   0.816
52175W        W23846  39.253  44.887   4.054
52176W        W23847  21.220  37.094   4.696
52177W        W23848  25.056  11.183   1.893
52178W        W23849  31.433  42.500   2.154
52179W        W23850  29.492   7.988   5.297
52180W        W23851  32.436  42.085  11.882
52181W        W23852  29.744  39.456   1.737
52182W        W23853   9.379  15.245  10.566
52183W        W23854  24.217   1.706  13.463
52184W        W23855  41.820  30.418  12.505
52185W        W23856  11.125  11.119   3.353
52186W        W23857  23.609  40.638   2.975
52187W        W23858  37.777  11.949   4.628
52188W        W23859  11.815  31.247  13.728
52189W        W23860  19.708   5.969   2.143
52190W        W23861  20.428  30.704  10.815
52191W        W23862  35.700  25.463  11.639
52192W        W23863  22.704   6.805  11.222
52193W        W23864  12.137  41.033  13.502
52194W        W23865  33.578  14.026   3.313
52195W        W23866   2.804  32.451   1.897
52196W        W23867   9.717  20.778  14.783
52197W        W23868  25.049  28.564  14.381
52198W        W23869  43.960  10.455   2.188
52199W        W23870  27.287  17.730  13.316
52200W        W23871  24.960  32.709  13.495
52201W        W23872  20.548   9.464   2.227
52202W        W23873   7.452  19.888  13.006
52203W        W23874  15.759  20.798  11.575
52204W        W23875  17.319  34.962   4.566
52205W        W23876  16.375   2.134   2.534
52206W        W23877  42.866  36.882  14.897
52207W        W23878  44.343  11.076   4.148
52208W        W23879  42.015  42.228  13.920
52209W        W23880   9.068  28.738   1.399
52210W        W23881  42.496  14.341  12.406
52211W        W23882  31.366  25.450   4.566
52212W        W23883  15.835   3.167   3.319
52213W        W23884   1.026  27.619   0.696
52214W        W23885  22.537  12.338   2.779
52215W        W23886  36.325  26.623   3.167
52216W        W23887  37.042   8.175   0.914
52217W        W23888  24.750  38.458   0.947
52218W        W23889  37.331  11.816   1.334
52219W        W23890   7.961  25.115   4.310
52220W        W23891   4.177  22.199  11.970
52221W        W23892   0.860  31.266  12.559
52222W        W23893  40.913  23.823   3.176
52223W        W23894  38.059   4.180   3.212
52224W        W23895   5.283  17.398   3.688
52225W        W23896  11.070  25.777   2.473
52226W        W23897  42.818  16.737   4.015
52227W        W23898  14.715  43.111  12.102
52228W        W23899   3.935  28.040  11.606
52229W        W23900  17.175  37.233   0.889
52230W        W23901  25.725  35.996  11.974
52231W        W23902  20.823   0.943  12.581
52232W        W23903   1.465  16.709   1.504
52233W        W23904  42.946  43.782   1.421
52234W        W23905  20.508  24.145   3.788
52235W        W23906  32.057  19.131  13.828
52236W        W23907  12.016  34.918  10.722
52237W        W23908   4.207   2.470   3.869
52238W        W23909  29.112  12.094  12.111
52239W        W23910  30.372  10.804   3.656
52240W        W23911  37.224   5.882  11.519
52241W        W23912  15.344  18.266  11.137
52242W        W23913  17.202  24.631  10.378
52243W        W23914  21.253  12.421  14.820
52244W        W23915  15.136  35.030  11.488
52245W        W23916   1.613   3.997  12.225
52246W        W23917  25.651  31.013  12.540
52247W        W23918   7.214  35.077  13.487
52248W        W23919  41.975  16.598  12.051
52249W        W23920  21.218  12.903   4.046
52250W        W23921  44.904  43.991  14.042
52251W        W23922  23.741   3.893  13.244
52252W        W23923  13.106  15.749   1.451
52253W        W23924  26.545  33.581   4.604
52254W        W23925  43.799  34.698  12.618
52255W        W23926  33.378   5.413   0.782
52256W        W23927   1.564   0.673  12.945
52257W        W23928  44.715  12.158   2.816
52258W        W23929  18.848  24.015  11.321
52259W        W23930  37.351   2.841   3.437
52260W        W23931  13.528   4.709  13.298
52261W        W23932   6.853   4.533  11.381
52262W        W23933   5.676  44.861  13.576
52263W        W23934  15.351  31.587   0.954
52264W        W23935  30.727  11.849  13.003
52265W        W23936   6.301  15.339   2.326
52266W        W23937   5.235  15.601   3.391
52267W        W23938  34.200  20.633  13.795
52268W        W23939  34.053  14.769   4.754
52269W        W23940   7.454  18.856  12.960
52270W        W23941  19.801   1.343  11.120
52271W        W23942  37.262  41.904   1.830
52272W        W23943  25.125   5.266  13.149
52273W        W23944  14.156  40.493  14.000
52274W        W23945  43.551  37.983   3.600
52275W        W23946  13.689  43.418  12.586
52276W        W23947  28.899  34.338   2.156
52277W        W23948  19.688   2.362   1.877
52278W        W23949  23.014  16.192  14.601
52279W        W23950  10.678  44.275   3.279
52280W        W23951  21.532   3.836  14.741
52281W        W23952  34.641  39.285   1.189
52282W        W23953   4.905  42.887  10.487
52283W        W23954  23.752  18.808  10.708
52284W        W23955  44.404  37.811   1.047
52285W        W23956  33.835  15.239   0.802
52286W        W23957  29.986   4.415   2.436
52287W        W23958  24.483  18.989   0.889
52288W        W23959  19.512  11.234  11.646
52289W        W23960  23.239  10.654   1.840
52290W        W23961   4.328   1.415  12.414
52291W        W23962   1.613  35.859  14.513
52292W        W23963   7.774   5.375   1.916
52293W        W23964  38.556   5.453   0.318
52294W        W23965   4.407   3.128   2.428
52295W        W23966  13.858  20.198  12.994
52296W        W23967   0.757   0.806  13.306
52297W        W23968  15.267  10.899   2.767
52298W        W23969   9.037  16.592   2.193
52299W        W23970  35.804   4.339  11.582
52300W        W23971  41.599   2.463  10.697
52301W        W23972  32.962   1.784  14.821
52302W        W23973  38.805  38.293  14.042
52303W        W23974  33.358  23.587   4.741
52304W        W23975  25.218  37.376  10.386
52305W        W23976  36.578  24.735   0.259
52306W        W23977  37.551  10.603   3.117
52307W        W23978  16.237  42.230   4.168
52308W        W23979  38.833  36.976   2.415
52309W        W23980  15.767  14.644  11.640
52310W        W23981   3.479  12.975   5.163
52311W        W23982  18.787   2.208   2.735
52312W        W23983  25.956   8.993   1.499
52313W        W23984  26.587  10.187   3.733
52314W        W23985  14.529  36.714  14.050
52315W        W23986  17.526  27.190   3.286
52316W        W23987  12.746  34.506  14.910
52317W        W23988  27.176  37.356   3.619
52318W        W23989  17.581  25.944   0.398
52319W        W23990   7.415  12.250  13.268
52320W        W23991  16.175  37.503  14.531
52321W        W23992  13.874  34.489  10.676
52322W        W23993  30.490  33.502  11.858
52323W        W23994  13.445  37.411  12.508
52324W        W23995  39.590  27.332  11.523
52325W        W23996   9.793   1.285  14.372
52326W        W23997  25.178  19.889   2.794
52327W        W23998  37.603  12.242  13.480
52328W        W23999  29.148  22.638   3.880
52329W        W24000  19.667   9.178   2.571
52330W        W24001  30.235  27.123  11.574
52331W        W24002  12.583   2.950  10.694
52332W        W24003  38.838   5.744  13.601
52333W        W24004  10.904  37.090  11.896
52334W        W24005  27.117  12.904  13.851
52335W        W24006  40.394  17.535  11.848
52336W        W24007  32.993  34.634   3.842
52337W        W24008  30.566   9.655  13.119
52338W        W24009  17.157  22.626   0.049
52339W        W24010  28.533   3.780  14.774
52340W        W24011  39.347  19.987  14.803
52341W        W24012   4.262  32.326  11.535
52342W        W24013   3.461  28.093  11.389
52343W        W24014  35.861   3.377  14.981
52344W        W24015  39.429  25.403  12.882
52345W        W24016   5.432  44.811  11.105
52346W        W24017  36.052  18.269   0.590
52347W        W24018   9.134  23.046   1.675
52348W        W24019  31.948   9.162   0.570
52349W        W24020  22.195  40.348  12.920
52350W        W24021  38.690  16.698  11.619
52351W        W24022  37.660  16.032  14.848
52352W        W24023   9.690   3.452  12.102
52353W        W24024  37.260   8.620  10.649
52354W        W24025  18.844  37.007   4.794
52355W        W24026  32.827   3.807  14.690
52356W        W24027   3.825   8.391  14.025
52357W        W24028  43.302  23.134  11.383
52358W        W24029  31.494   4.136  11.992
52359W        W24030  35.540  26.099  12.765
52360W        W24031  43.215  15.232   4.995
52361W        W24032  35.638  41.344  11.583
52362W        W24033  29.186   0.025  14.760
52363W        W24034  19.473  30.144   4.768
52364W        W24035  36.994   8.342  12.808
52365W        W24036  24.830  43.809  11.153
52366W        W24037  42.897   3.387   1.935
52367W        W24038  24.963   2.931  12.962
52368W        W24039  29.489  13.112  11.267
52369W        W24040  20.556   4.647  14.398
52370W        W24041  14.620  11.053   1.373
52371W        W24042   3.561  18.196   1.349
52372W        W24043   5.244   5.381  11.106
52373W        W24044  14.320   8.160  14.229
52374W        W24045  36.767  35.258   0.032
52375W        W24046  22.438   9.193  13.617
52376W        W24047   9.590   1.451  10.578
52377W        W24048  15.691   6.272   1.371
52378W        W24049  31.014   0.747  12.942
52379W        W24050  41.526  31.548   0.303
52380W        W24051  44.026  20.476   2.490
52381W        W24052  19.768  10.133   5.189
52382W        W24053   2.204  27.133   2.287
52383W        W24054  38.098  41.780   3.163
52384W        W24055  38.753   1.422  12.011
52385W        W24056   5.623  16.598   0.245
52386W        W24057  27.723   7.986   4.307
52387W        W24058  20.185  37.492  11.665
52388W        W24059   3.775  36.506  10.752
52389W        W24060  44.890  30.527   4.500
52390W        W24061  36.614  20.079  10.974
52391W        W24062   9.026  44.538   9.923
52392W        W24063  43.933  26.947   1.810
52393W        W24064  25.497  17.720   3.978
52394W        W24065  35.811  25.680  12.570
52395W        W24066   6.745   1.865  11.862
52396W        W24067  28.936  14.661  10.623
52397W        W24068  43.639  11.920   9.897
52398W        W24069  35.133  18.378   3.254
52399W        W24070  34.420  23.212  11.619
52400W        W24071  21.696  17.822   0.799
52401W        W24072  29.956  40.869  13.684
52402W        W24073  13.719  15.238  13.414
52403W        W24074  35.009  38.612   3.174
52404W        W24075  44.041  24.030  10.171
52405W        W24076  11.254  37.974  11.585
52406W        W24077  19.621  26.482   5.082
52407W        W24078  24.654   1.281   4.320
52408W        W24079  36.969   5.777   2.231
52409W        W24080  18.368  25.374  10.219
52410W        W24081  34.953  23.158   0.022
52411W        W24082  36.003  14.844  13.524
52412W        W24083   9.538   2.788   1.084
52413W        W24084   2.376   5.245  14.370
52414W        W24085  42.964  35.654   2.370
52415W        W24086  37.791  24.609  14.064
52416W        W24087  20.689  41.736   4.959
52417W        W24088  21.237  26.960   3.236
52418W        W24089  23.211  15.513  11.648
52419W        W24090  15.492  28.781   3.522
52420W        W24091  35.009  15.819   2.444
52421W        W24092  42.452   9.944   1.947
52422W        W24093  29.589  39.721   3.533
52423W        W24094  10.707  19.679  10.478
52424W        W24095  32.433  41.526  13.239
52425W        W24096  40.369  24.553   2.440
52426W        W24097  18.359  25.785  11.638
52427W        W24098  21.947  43.393   1.456
52428W        W24099  32.851  12.762  14.048
52429W        W24100  16.679   7.439   3.320
52430W        W24101  39.794  10.670   2.781
52431W        W24102  15.197  36.866   4.323
52432W        W24103  36.498  12.237  13.811
52433W        W24104  28.728   6.248   5.489
52434W        W24105  40.329  14.863  13.503
52435W        W24106  34.461  11.859   4.927
52436W        W24107   8.939  21.651  11.129
52437W        W24108   2.787   1.942  11.486
52438W        W24109   9.699  44.990  10.658
52439W        W24110  26.043  23.604  13.133
52440W        W24111  31.002  12.679  14.464
52441W        W24112  36.103   2.058  14.531
52442W        W24113  31.404  12.980  14.512
52443W        W24114  10.416  24.030   3.205
52444W        W24115  10.665  43.743   3.347
52445W        W24116  14.625  20.250  12.477
52446W        W24117  39.081  36.677   4.353
52447W        W24118  14.671  20.001  10.368
52448W        W24119  34.668  26.723   0.855
52449W        W24120  42.274  41.958  11.187
52450W        W24121  39.257   0.458  13.911
52451W        W24122  43.834  23.560  12.019
52452W        W24123  37.831  40.536   1.172
52453W        W24124   6.216  16.518  14.464
52454W        W24125   7.095  11.580   3.247
52455W        W24126  22.649   6.646  13.584
52456W        W24127  10.688   0.653  13.816
52457W        W24128  18.824   3.640  13.972
52458W        W24129  12.545  28.883  11.204
52459W        W24130  31.648  26.394   3.722
52460W        W24131  43.885   1.306  14.447
52461W        W24132  16.848  18.586   1.328
52462W        W24133  35.095  33.613  12.475
52463W        W24134  21.013  31.162  13.046
52464W        W24135  28.232  33.519  11.505
52465W        W24136  20.013   8.985   3.281
52466W        W24137  36.085   1.389   2.161
52467W        W24138  20.924   3.843  12.148
52468W        W24139  32.231  20.718  13.289
52469W        W24140  38.600  35.695   2.192
52470W        W24141   7.092  24.671   3.496
52471W        W24142  42.830  40.616   3.233
52472W        W24143  15.326   5.731   2.329
52473W        W24144   6.816   2.427  12.910
52474W        W24145   6.156   8.849   2.576
52475W        W24146  33.048  40.326   1.825
52476W        W24147  43.286   8.091  14.438
52477W        W24148  19.460  24.593  11.398
52478W        W24149  29.843  39.539   0.839
52479W        W24150   8.899  11.727  10.733
52480W        W24151  25.635  43.206   3.848
52481W        W24152   6.109  11.445  10.159
52482W        W24153  10.253   5.157   4.494
52483W        W24154  25.524  17.709  14.720
52484W        W24155  23.580  16.554   1.745
52485W        W24156   3.239   5.813   3.739
52486W        W24157  13.271  18.657   2.738
52487W        W24158  36.960  33.539   1.360
52488W        W24159  21.557  25.217  12.423
52489W        W24160   8.816  14.790   4.187
52490W        W24161   6.141  20.764   4.236
52491W        W24162  37.150  23.571   0.387
52492W        W24163  35.968  40.437  10.480
52493W        W24164   4.648  34.503  12.375
52494W        W24165  21.739  22.793  11.660
52495W        W24166  16.245  35.960  14.427
52496W        W24167  12.880  17.527   0.153
52497W        W24168  27.256  38.892   2.417
52498W        W24169  22.521  10.235   0.462
52499W        W24170   7.465  14.239   4.711
52500W        W24171  44.721  23.127   3.606
52501W        W24172  26.317  42.814  13.767
52502W        W24173  17.591  20.604   1.406
52503W        W24174  44.814  14.550  10.301
52504W        W24175   7.698  42.853  13.489
52505W        W24176  14.217   3.386   5.062
52506W        W24177  12.138  28.947  10.887
52507W        W24178  20.649  39.043  11.175
52508W        W24179   7.293   6.178   4.578
52509W        W24180   5.839  36.476   3.029
52510W        W24181   3.914  20.731   3.136
52511W        W24182   8.390  21.811   2.354
52512W        W24183  10.768  16.085   0.864
52513W        W24184   7.905  21.163  12.969
52514W        W24185  44.022  15.573   4.190
52515W        W24186   5.359  39.475   0.941
52516W        W24187  26.685   1.783  13.925
52517W        W24188  17.345  40.852  11.557
52518W        W24189  35.788  43.387   3.183
52519W        W24190   3.960  36.488  12.039
52520W        W24191   4.470   1.869  10.769
52521W        W24192  40.141  14.401  13.611
52522W        W24193  11.153  39.985   1.228
52523W        W24194  20.288  26.461   4.185
52524W        W24195  28.964  33.787  12.431
52525W        W24196  29.654  23.566   0.932
52526W        W24197  14.063  14.189   0.966
52527W        W24198   2.930  37.044  13.278
52528W        W24199  37.879  44.013  11.134
52529W        W24200  27.726  22.494   0.836
52530W        W24201  34.885   3.129   3.309
52531W        W24202   8.639  15.788  12.887
52532W        W24203  10.934   5.146   0.394
52533W        W24204  29.466   9.887  10.689
52534W        W24205  37.304   6.821   4.475
52535W        W24206  29.257  27.428   3.413
52536W        W24207   8.781  40.309  14.616
52537W        W24208  10.660  19.109   1.284
52538W        W24209   1.828  19.610  11.951
52539W        W24210  36.321   8.813   1.130
52540W        W24211  42.764  38.295   1.908
52541W        W24212  36.394  24.672  13.508
52542W        W24213  27.205   9.936  13.816
52543W        W24214   0.791  11.330  11.523
52544W        W24215   1.325  19.136  11.513
52545W        W24216  12.777  11.377   0.486
52546W        W24217  27.361  23.741   1.402
52547W        W24218  40.061  40.353  11.122
52548W        W24219  21.256  25.964  14.270
52549W        W24220  38.361  43.009   4.642
52550W        W24221  19.422  38.723   2.654
52551W        W24222   8.160  31.817   0.423
52552W        W24223  21.300   7.201  14.328
52553W        W24224  20.224  20.819  14.844
52554W        W24225  33.906   5.994  12.185
52555W        W24226  22.202  37.186   2.979
52556W        W24227  17.774   7.759  14.680
52557W        W24228  37.579  17.808  12.805
52558W        W24229  17.906  32.582   1.694
52559W        W24230  19.115  32.612   0.883
52560W        W24231  13.141  20.792  10.864
52561W        W24232  18.205  34.783   3.719
52562W        W24233  36.413  43.720   0.533
52563W        W24234  16.526   3.028  10.755
52564W        W24235  42.823  29.449  11.096
52565W        W24236   4.854  39.352  13.515
52566W        W24237   7.936  29.530   2.230
52567W        W24238  28.875  22.369   0.183
52568W        W24239  29.453   0.924  13.001
52569W        W24240  37.937  21.067  12.653
52570W        W24241  23.289  17.155  14.912
52571W        W24242  35.385  19.184  11.482
52572W        W24243  30.172  40.789  12.006
52573W        W24244   1.068  15.458   3.614
52574W        W24245  42.178  29.729   4.096
52575W        W24246  24.604  22.367  10.844
52576W        W24247  34.958   4.364   3.294
52577W        W24248  10.280  44.747  10.128
52578W        W24249   1.038  34.976  14.475
52579W        W24250  17.492  26.122   4.659
52580W        W24251  23.737  39.597   4.584
52581W        W24252  13.583  32.861  11.475
52582W        W24253   4.600  26.932   4.403
52583W        W24254  44.835  33.116   3.880
52584W        W24255  35.962  32.974   0.211
52585W        W24256  10.962  39.952  10.434
52586W        W24257  33.423  34.333   0.169
52587W        W24258  10.821  13.135   2.720
52588W        W24259  42.827  12.330   4.123
52589W        W24260  11.618  14.925   0.736
52590W        W24261  17.183  16.982  13.487
52591W        W24262  21.499  17.087  13.467
52592W        W24263   5.899  40.895  11.369
52593W        W24264   4.337  35.466   4.862
52594W        W24265  24.174  10.272  11.661
52595W        W24266  10.208   1.902   0.016
52596W        W24267  22.756  27.094   3.348
52597W        W24268   9.514   6.138   0.911
52598W        W24269  29.395  12.660   5.171
52599W        W24270  10.693   0.876   4.942
52600W        W24271  13.381  30.511   1.899
52601W        W24272  29.328  41.024  14.746
52602W        W24273  30.148  12.762   4.885
52603W        W24274  15.865  12.125  10.586
52604W        W24275  44.810   8.599  14.355
52605W        W24276  15.736  22.433  13.941
52606W        W24277  24.230  15.751  11.906
52607W        W24278  41.505  35.793   4.071
52608W        W24279   5.233  36.098  14.318
52609W        W24280  31.797  16.110   4.704
52610W        W24281  11.280  17.173   1.091
52611W        W24282  44.363   2.986  12.924
52612W        W24283  43.771  15.861   2.249
52613W        W24284  29.912  10.311  14.918
52614W        W24285  12.273  10.943   3.045
52615W        W24286  44.771  44.869   2.899
52616W        W24287   3.292  26.644   0.444
52617W        W24288  25.009  26.427   0.256
52618W        W24289  22.178   3.319   3.285
52619W        W24290  13.748  31.160   1.360
52620W        W24291   6.981  38.106   4.174
52621W        W24292  27.499  13.623   1.858
52622W        W24293  19.005   2.238  11.474
52623W        W24294  23.208  23.463  12.015
52624W        W24295  35.297  41.052   2.421
52625W        W24296  39.439  23.558  10.590
52626W        W24297  22.477  36.068  10.480
52627W        W24298   0.372  23.527   2.351
52628W        W24299  16.318  30.669   3.601
52629W        W24300  25.615   6.092  12.147
52630W        W24301  24.335  30.730   1.163
52631W        W24302  34.534  12.107   2.436
52632W        W24303   7.722  39.112   4.578
52633W        W24304  42.548  34.399   4.873
52634W        W24305  19.085  37.855   0.877
52635W        W24306  37.417   8.389  12.505
52636W        W24307  24.479  14.343   2.333
52637W        W24308   1.366  34.873   2.659
52638W        W24309   0.183  19.304  13.234
52639W        W24310  32.153  42.494  11.596
52640W        W24311  26.872   0.847  13.983
52641W        W24312  35.824   3.404   3.677
52642W        W24313  31.923  15.704  10.551
52643W        W24314  44.721  14.392  14.498
52644W        W24315  44.328  18.473  10.243
52645W        W24316  13.635   1.543  13.837
52646W        W24317  41.224  44.520  13.571
52647W        W24318  39.393  10.161   0.005
52648W        W24319   4.079  11.170  10.727
52649W        W24320  34.074  43.077  13.077
52650W        W24321  28.857  33.121   1.654
52651W        W24322  19.157  21.262   3.957
52652W        W24323  39.638  35.840  11.257
52653W        W24324  11.762  15.367  12.071
52654W        W24325   8.844   7.509   4.579
52655W        W24326  41.034  15.761  14.119
52656W        W24327  12.454  12.858  12.640
52657W        W24328  40.015  15.733  12.165
52658W        W24329  35.612  25.007  10.649
52659W        W24330  27.717  20.025   0.217
52660W        W24331   7.514  39.093  12.021
52661W        W24332  23.562  43.025   3.222
52662W        W24333  19.285  32.673   2.030
52663W        W24334  28.673   3.616   1.755
52664W        W24335  22.131  31.423   1.859
52665W        W24336  11.856  25.478   4.847
52666W        W24337  13.402  21.283  11.535
52667W        W24338   5.152  26.181   2.882
52668W        W24339  34.150  38.485  14.528
52669W        W24340  21.674  41.216   3.708
52670W        W24341  34.834   9.615   0.985
52671W        W24342  35.345   3.444   4.543
52672W        W24343  17.294  29.136   1.230
52673W        W24344  43.797  27.396  10.623
52674W        W24345  44.105   3.910   2.872
52675W        W24346  34.017  42.774  10.247
52676W        W24347  44.831  22.138   0.877
52677W        W24348  17.205  24.685  10.908
52678W        W24349  25.948  22.181   4.829
52679W        W24350  29.561  32.056   1.699
52680W        W24351  42.758  15.671   4.390
52681W        W24352  26.287  37.506  14.880
52682W        W24353  15.234   6.200  11.142
52683W        W24354  21.765  18.139  11.279
52684W        W24355  44.402  19.005   4.749
52685W        W24356  27.563  11.103  13.757
52686W        W24357  33.059   3.516  13.451
52687W        W24358  43.528  38.351  10.774
52688W        W24359  28.487  29.993   0.407
52689W        W24360  10.465   0.779   2.887
52690W        W24361  14.684   2.812   3.819
52691W        W24362  24.047  17.576  12.768
52692W        W24363  30.695  26.616   1.505
52693W        W24364  27.085  26.029  12.594
52694W        W24365  42.347  10.297   1.279
52695W        W24366  34.757  39.429   4.658
52696W        W24367  16.246  36.984  13.790
52697W        W24368   3.465  33.923   4.711
52698W        W24369   1.269  31.380   3.309
52699W        W24370  41.504  10.815   4.177
52700W        W24371  15.238  15.849  12.742
52701W        W24372  43.499  27.049  14.849
52702W        W24373  24.075  11.334   4.525
52703W        W24374  31.973  11.429  12.586
52704W        W24375  43.061   3.762   3.833
52705W        W24376   7.930  39.884  12.277
52706W        W24377  27.678   1.309   0.401
52707W        W24378   4.218  20.636  13.981
52708W        W24379  33.010   9.175   1.243
52709W        W24380   8.222   0.746   1.882
52710W        W24381  33.938  27.460  13.620
52711W        W24382  32.970   6.873  10.881
52712W        W24383  17.513  22.438  11.177
52713W        W24384  30.881  42.784   3.716
52714W        W24385  40.597  27.635   3.336
52715W        W24386  11.116  32.669   2.300
52716W        W24387  42.961  34.665  12.945
52717W        W24388  37.546  20.776   0.278
52718W        W24389   9.068  29.926  10.358
52719W        W24390  44.981   7.661  12.440
52720W        W24391   8.588  12.894   2.359
52721W        W24392  39.861  14.919   4.864
52722W        W24393   7.640  37.806   1.468
52723W        W24394  39.651  37.502   1.116
52724W        W24395  24.156  38.756   4.656
52725W        W24396   0.498  20.261   4.532
52726W        W24397  41.027   5.891   3.260
52727W        W24398   4.260  39.144   2.806
52728W        W24399  17.322  19.532   1.840
52729W        W24400  29.145   5.906   2.845
52730W        W24401  25.748  38.468  11.623
52731W        W24402   3.308  11.898   1.363
52732W        W24403  19.178  22.699   1.281
52733W        W24404   5.617  38.353   4.159
52734W        W24405  30.979  19.845  10.132
52735W        W24406  22.118  33.453  13.552
52736W        W24407   1.109   4.283  10.704
52737W        W24408   0.394  40.526   2.836
52738W        W24409   1.649  15.501  14.150
52739W        W24410  26.823   7.060   9.955
52740W        W24411   7.184   0.196  10.733
52741W        W24412   3.548  34.491  11.473
52742W        W24413  21.823  14.357  10.907
52743W        W24414   1.991  14.577  13.871
52744W        W24415  12.431  29.486   1.401
52745W        W24416  14.349  39.032  10.717
52746W        W24417   3.331  26.484  11.226
52747W        W24418  14.090  23.972  10.517
52748W        W24419  12.349  44.826   4.704
52749W        W24420  18.525   7.355   0.708
52750W        W24421   9.953  18.248  10.686
52751W        W24422  32.114  37.595  10.526
52752W        W24423  14.123   1.457  13.261
52753W        W24424  26.649  38.254  13.071
52754W        W24425   5.797  11.669  14.755
52755W        W24426  35.045  13.875   2.832
52756W        W24427   1.226   3.191   3.411
52757W        W24428  24.424  33.489  11.288
52758W        W24429   2.956  15.043   0.270
52759W        W24430  12.702  44.715  12.046
52760W        W24431  33.600  43.803  13.882
52761W        W24432  23.755  36.704  14.303
52762W        W24433  19.170   2.697  13.757
52763W        W24434  43.534  37.029  11.394
52764W        W24435   8.335  19.545  14.965
52765W        W24436  36.321  37.015   3.799
52766W        W24437   2.419   4.348   3.138
52767W        W24438  43.989  42.676  10.149
52768W        W24439  20.234  14.825   2.153
52769W        W24440  18.638  14.707  13.299
52770W        W24441  16.024   0.778   1.847
52771W        W24442  16.054  43.774  10.796
52772W        W24443  18.126  18.618  12.410
52773W        W24444  22.718  11.226  13.842
52774W        W24445  28.523  10.874   0.736
52775W        W24446  39.906   0.807   1.894
52776W        W24447  31.047  26.726  14.784
52777W        W24448  16.626  39.803   0.749
52778W        W24449  33.560  22.489   3.679
52779W        W24450  24.224  29.385  10.746
52780W        W24451  10.869  33.620  11.472
52781W        W24452  20.071  13.648   4.115
52782W        W24453  32.942   2.145   2.159
52783W        W24454   2.984  10.908  11.571
52784W        W24455   2.435  39.940  13.021
52785W        W24456  28.256  23.566   0.793
52786W        W24457  29.002   4.217   2.771
52787W        W24458  31.944  18.706  13.519
52788W        W24459  26.794  18.100   0.598
52789W        W24460  22.902  27.086   4.646
52790W        W24461  13.065  23.968  11.747
52791W        W24462   0.274  24.507   4.574
52792W        W24463   6.272  40.468  12.072
52793W        W24464   7.715   1.728  12.511
52794W        W24465  28.041  42.142  13.953
52795W        W24466  12.708   4.900   5.042
52796W        W24467  11.997  11.268   2.228
52797W        W24468  23.509  21.179  13.512
52798W        W24469  31.592  43.955  12.594
52799W        W24470   2.271  24.635   3.232
52800W        W24471   8.306  31.036   4.171
52801W        W24472  12.247   7.641  14.408
52802W        W24473  16.333  32.928   1.013
52803W        W24474  11.440  43.031   0.631
52804W        W24475  42.981  20.229  12.143
52805W        W24476  34.102  24.065   1.923
52806W        W24477   5.240  10.294   0.324
52807W        W24478  23.991  40.279   2.857
52808W        W24479   1.038  30.225   0.310
52809W        W24480  39.267  15.730  11.003
52810W        W24481  39.924  22.219  11.088
52811W        W24482  13.659  35.917  12.314
52812W        W24483  11.141  12.603  11.651
52813W        W24484   7.146   9.702  12.338
52814W        W24485  41.512  30.839   2.985
52815W        W24486  42.980  39.335   1.199
52816W        W24487  26.634  40.486   4.994
52817W        W24488  32.180  42.452  12.119
52818W        W24489  15.173  18.645   1.234
52819W        W24490  36.729  21.271   4.422
52820W        W24491  32.531  38.293   1.427
52821W        W24492  17.362   0.547  13.514
52822W        W24493  11.931  43.099   3.497
52823W        W24494  25.457  19.839  12.658
52824W        W24495  25.445  13.061  13.043
52825W        W24496  19.286  17.766  11.223
52826W        W24497  32.315  10.303  11.992
52827W        W24498  21.032  37.834   2.770
52828W        W24499  38.545  29.505  14.489
52829W        W24500  41.523  44.847  13.268
52830W        W24501  16.320   5.624  14.107
52831W        W24502  10.061  19.038   2.564
52832W        W24503  28.207  42.517   1.452
52833W        W24504  19.159  14.159   0.435
52834W        W24505  19.258  31.724   1.635
52835W        W24506  31.626  43.943  13.504
52836W        W24507  12.964  33.195   3.226
52837W        W24508  43.350  41.850  14.360
52838W        W24509   8.145   9.174  11.948
52839W        W24510  30.559  37.894  13.716
52840W        W24511  14.042  38.979  13.828
52841W        W24512  38.371  16.219  12.233
52842W        W24513  37.036   9.785  10.527
52843W        W24514  17.095  17.772   3.775
52844W        W24515  41.333  43.791  13.085
52845W        W24516  36.500  39.799  10.104
52846W        W24517  11.371  16.372   1.497
52847W        W24518  20.664  24.720  12.963
52848W        W24519  12.835  39.448   0.381
52849W        W24520  14.861  40.602   3.673
52850W        W24521  11.604  34.542   1.416
52851W        W24522  38.677   5.879  11.240
52852W        W24523  28.355  11.561  11.916
52853W        W24524   5.647  30.213   2.761
52854W        W24525  15.564   2.897  12.454
52855W        W24526  33.864   0.667  12.118
52856W        W24527  42.031  39.757   3.808
52857W        W24528  27.084  32.541   4.046
52858W        W24529  43.956   0.190  12.542
52859W        W24530  25.061  26.565  14.357
52860W        W24531  15.913  28.134  14.748
52861W        W24532  25.689  23.220  13.410
52862W        W24533   0.369   9.466   2.933
52863W        W24534  41.182  44.692   1.256
52864W        W24535  17.666  11.614  12.012
52865W        W24536   7.991  44.347  11.622
52866W        W24537  30.491  14.820  12.866
52867W        W24538  39.896  33.103   2.253
52868W        W24539  21.159  27.678   1.684
52869W        W24540  41.994   0.786  12.437
52870W        W24541  35.307   4.284  14.985
52871W        W24542  17.795  16.888   4.454
52872W        W24543  22.490  22.054  10.751
52873W        W24544  22.349  15.241  14.963
52874W        W24545  25.127  26.020  10.979
52875W        W24546  15.772   5.376   0.261
52876W        W24547   8.696  24.964  13.773
52877W        W24548  38.358   7.045  14.063
52878W        W24549   0.312  35.993   1.093
52879W        W24550  17.075  33.074  11.856
52880W        W24551  15.981  30.138   0.732
52881W        W24552  18.094  26.661  10.119
52882W        W24553  10.936  43.950   2.963
52883W        W24554  30.067   4.669  12.578
52884W        W24555   2.375   5.586  10.937
52885W        W24556   2.274   6.722   3.447
52886W        W24557  41.838  24.196  11.644
52887W        W24558   5.816  24.551   3.638
52888W        W24559  22.885   0.971   3.294
52889W        W24560  35.407  30.741  14.094
52890W        W24561  22.626  24.153   1.423
52891W        W24562   4.356  28.977  12.887
52892W        W24563  35.953  18.747   4.533
52893W        W24564  29.768  27.693   5.001
52894W        W24565  21.496  37.536   0.945
52895W        W24566   2.878  12.329  13.446
52896W        W24567  30.607  41.451  10.481
52897W        W24568   8.079  33.068  11.534
52898W        W24569  11.598  37.428  14.894
52899W        W24570   7.827   0.055  10.032
52900W        W24571  21.295  36.613  11.732
52901W        W24572  36.580  17.324   3.719
52902W        W24573  20.589  29.079  13.552
52903W        W24574   0.651  18.132   4.263
52904W        W24575  17.174  33.594  10.093
52905W        W24576  17.316  25.265  10.202
52906W        W24577  19.649  43.637   3.697
52907W        W24578   8.223  25.571  10.822
52908W        W24579  12.576  42.770   3.742
52909W        W24580  33.609  36.309  10.775
52910W        W24581  19.154  27.583   0.906
52911W        W24582  29.894  35.408  13.461
52912W        W24583  34.627  24.008  10.570
52913W        W24584   2.774  22.750  11.106
52914W        W24585  42.158  38.681   9.820
52915W        W24586  22.415  32.849  12.367
52916W        W24587  28.531   3.847  11.509
52917W        W24588  10.321  41.807  14.010
52918W        W24589  36.647  43.802  13.053
52919W        W24590  28.539  10.401  14.874
52920W        W24591  37.787   8.685  13.839
52921W        W24592   2.408  21.420  10.398
52922W        W24593  34.544  29.205   2.258
52923W        W24594   8.672   6.003   4.957
52924W        W24595  41.535  23.024  14.444
52925W        W24596   9.084   0.229   2.737
52926W        W24597   4.223  23.312  14.560
52927W        W24598  25.106  11.812   3.588
52928W        W24599  40.829  32.957   1.389
52929W        W24600  13.140  37.089  10.792
52930W        W24601  42.483  10.996   9.708
52931W        W24602   4.242  36.716  10.592
52932W        W24603   0.253  30.417   2.639
52933W        W24604   2.246  18.556   2.209
52934W        W24605  14.504  12.335   1.270
52935W        W24606  38.954  42.078   1.623
52936W        W24607  17.274  35.894   1.771
52937W        W24608  19.056  15.301   2.946
52938W        W24609  10.266   2.138  11.618
52939W        W24610   3.163  13.155  12.437
52940W        W24611   1.745   3.884  13.154
52941W        W24612  23.518   8.202   3.750
52942W        W24613  34.379  40.898  13.968
52943W        W24614  16.834  24.784   3.288
52944W        W24615  38.908   3.721   4.588
52945W        W24616  37.123  36.984   4.034
52946W        W24617  40.514  10.181   3.148
52947W        W24618  39.005  17.118  13.037
52948W        W24619  30.429  10.907  11.112
52949W        W24620  18.317  15.252  14.829
52950W        W24621   5.871  37.051   0.333
52951W        W24622  40.905  33.113  12.068
52952W        W24623  42.295  11.275  14.340
52953W        W24624  30.901  40.587   2.414
52954W        W24625   3.797  10.663   3.101
52955W        W24626  19.756  12.643  11.464
52956W        W24627  42.901  10.335  10.092
52957W        W24628  13.644  36.231  13.946
52958W        W24629  17.694  43.070  11.207
52959W        W24630  37.814  37.114   3.449
52960W        W24631  38.536  36.201  13.441
52961W        W24632  22.718  33.651  10.608
52962W        W24633  26.218  41.110   3.406
52963W        W24634  29.047  26.835  10.774
52964W        W24635  41.748  44.974   0.954
52965W        W24636  22.218  34.860  13.387
52966W        W24637  42.738  41.015  12.120
52967W        W24638  35.952  13.111  10.655
52968W        W24639  20.272  29.479   4.281
52969W        W24640  22.147  43.424  12.392
52970W        W24641  29.114  22.152  13.442
52971W        W24642  33.048  14.101   4.297
52972W        W24643  44.591   6.831   4.280
52973W        W24644  11.580  27.710   0.327
52974W        W24645   7.822  41.487  13.729
52975W        W24646  34.963  39.643   4.187
52976W        W24647  13.852  21.809  12.393
52977W        W24648  21.483  19.087  13.128
52978W        W24649  39.324  38.617  11.578
52979W        W24650  27.681   9.151   3.536
52980W        W24651   4.661  30.291   4.115
52981W        W24652  19.755  36.885  14.467
52982W        W24653   7.295  44.976  11.205
52983W        W24654  30.848  21.162  10.645
52984W        W24655  32.152  28.221  13.783
52985W        W24656   8.473  15.007   2.596
52986W        W24657  40.847  14.399  12.909
52987W        W24658   3.443  10.597  12.464
52988W        W24659   2.942  31.481  14.051
52989W        W24660  43.771  31.067  13.090
52990W        W24661  39.782  23.490   2.941
52991W        W24662  42.329  11.438   9.971
52992W        W24663  28.602  19.634  11.867
52993W        W24664  41.855   0.347  13.802
52994W        W24665  27.136   8.601   3.191
52995W        W24666   1.513   7.237   4.292
52996W        W24667  39.287  22.790   1.264
52997W        W24668  26.125  21.964  10.737
52998W        W24669  28.683  21.454  12.849
52999W        W24670   7.981   8.951  13.472
53000W        W24671  32.944  35.033  14.893
53001W        W24672   8.168  19.788  13.283
53002W        W24673  29.619  21.878   3.409
53003W        W24674  24.162   2.285   3.285
53004W        W24675   5.745  11.141  14.768
53005W        W24676   7.006  15.831   1.640
53006W        W24677  30.570  37.423  10.464
53007W        W24678  36.801   8.202   1.368
53008W        W24679  21.701  23.412   3.586
53009W        W24680  26.487  11.285   4.531
53010W        W24681  30.102  22.796   2.225
53011W        W24682  21.768   0.978   0.341
53012W        W24683   3.325  19.726   2.217
53013W        W24684  26.529  41.832   2.009
53014W        W24685   9.305  34.968   4.194
53015W        W24686  28.178  15.091  12.987
53016W        W24687  41.758  13.669  11.297
53017W        W24688   1.726   2.389   2.168
53018W        W24689  26.483  12.276   1.359
53019W        W24690  40.965   6.715   0.366
53020W        W24691  23.671  36.367  11.256
53021W        W24692   9.023  23.182   3.152
53022W        W24693  44.500  41.608  13.415
53023W        W24694   8.336  43.226   4.569
53024W        W24695  17.684  25.168  12.003
53025W        W24696   3.471   2.371  13.256
53026W        W24697  13.412  34.226   3.189
53027W        W24698  24.542  40.467  10.789
53028W        W24699  10.833  13.017   3.210
53029W        W24700  24.655  32.391   1.903
53030W        W24701  39.677  25.765   2.794
53031W        W24702   9.778  16.682   3.584
53032W        W24703  28.675   7.551   2.516
53033W        W24704  16.368  21.047  14.561
53034W        W24705  30.173  16.160  13.629
53035W        W24706  35.506   7.916  12.976
53036W        W24707  23.037  22.523   0.862
53037W        W24708  41.290  31.671  13.808
53038W        W24709  19.155   6.650  13.873
53039W        W24710   8.539  44.356   2.689
53040W        W24711  43.670  44.298  12.984
53041W        W24712  41.602  26.574   1.043
53042W        W24713   6.262  28.860  10.981
53043W        W24714   3.738   1.945   4.587
53044W        W24715  43.777  19.833  11.658
53045W        W24716   8.345   1.423   2.774
53046W        W24717   3.592  36.084  12.010
53047W        W24718  29.454  42.554  12.885
53048W        W24719  39.939  30.954  14.866
53049W        W24720   9.750  43.210  10.727
53050W        W24721  39.336  19.309   2.893
53051W        W24722  21.071  38.818   0.738
53052W        W24723  27.425   8.334  12.619
53053W        W24724  12.502   7.172   1.285
53054W        W24725  21.970  30.036  14.519
53055W        W24726  26.032  37.087  13.501
53056W        W24727   4.745   3.255   1.213
53057W        W24728  42.404   8.913   3.238
53058W        W24729  41.250   3.902  10.723
53059W        W24730   6.872  35.060   3.813
53060W        W24731  27.036  27.148   3.561
53061W        W24732  44.067  17.043   1.394
53062W        W24733  22.024  21.811   3.230
53063W        W24734  44.233  22.217   4.062
53064W        W24735  17.949  13.107  14.277
53065W        W24736  38.075  26.437   2.666
53066W        W24737  37.319  26.700  10.605
53067W        W24738  14.355  30.388  13.395
53068W        W24739  35.431  13.294   4.922
53069W        W24740   7.630  22.280  14.545
53070W        W24741  14.132   6.361   3.527
53071W        W24742  10.943  10.811  11.051
53072W        W24743  36.127  32.013   3.324
53073W        W24744  34.860   1.882  14.019
53074W        W24745  18.210  21.609  14.766
53075W        W24746  41.548  11.147  13.853
53076W        W24747  26.403  35.313   2.789
53077W        W24748  15.017  30.487   2.924
53078W        W24749  44.819  34.398  14.734
53079W        W24750  25.675  39.322  11.620
53080W        W24751   6.365  15.201   4.163
53081W        W24752  11.464  16.655   2.842
53082W        W24753  43.797   5.409  12.098
53083W        W24754  35.622  34.968  14.252
53084W        W24755  22.643   7.995   1.835
53085W        W24756  40.076  37.400  14.476
53086W        W24757  24.619  15.374   0.017
53087W        W24758  10.059  31.633  13.457
53088W        W24759  34.476  41.449   2.701
53089W        W24760  17.629  22.198   4.449
53090W        W24761  37.354  20.724  14.788
53091W        W24762  17.578   0.230  13.892
53092W        W24763  44.012  10.084   4.926
53093W        W24764  30.495   7.294   2.465
53094W        W24765  44.065  35.408   1.000
53095W        W24766   4.272   4.472   4.597
53096W        W24767  11.843  12.107   1.050
53097W        W24768   8.226  38.110   3.211
53098W        W24769  24.136  35.333   3.139
53099W        W24770   2.097  36.896   3.226
53100W        W24771   5.326  13.591   1.810
53101W        W24772  37.468  13.662  13.946
53102W        W24773  23.271  40.841  14.290
53103W        W24774  11.810  41.434  14.515
53104W        W24775  21.377  16.724   2.838
53105W        W24776  41.881  35.246   2.699
53106W        W24777  38.243  28.374   2.741
53107W        W24778  28.664   0.448  11.453
53108W        W24779   0.456  28.371   1.860
53109W        W24780   8.410  22.070   3.776
53110W        W24781  37.143  42.925  13.065
53111W        W24782  18.791  27.479  10.511
53112W        W24783  36.935   6.140  12.977
53113W        W24784   6.259  39.576  13.566
53114W        W24785   2.186  33.374   0.407
53115W        W24786  10.336  29.906  11.179
53116W        W24787  16.568  29.943  14.061
53117W        W24788   4.677  44.806  13.307
53118W        W24789   7.817   1.165  11.045
53119W        W24790  21.553   4.387   2.423
53120W        W24791  19.297  36.529   2.346
53121W        W24792   2.298  17.394   3.630
53122W        W24793  40.574  21.341   1.904
53123W        W24794   9.226  26.072  14.317
53124W        W24795  10.730  16.225   0.359
53125W        W24796  36.717   6.704  11.705
53126W        W24797  16.555  42.340   1.247
53127W        W24798  18.534   3.810  11.967
53128W        W24799  17.173   7.236  12.626
53129W        W24800  44.048  23.647  12.888
53130W        W24801  34.703  33.541   0.926
53131W        W24802  20.797  31.597   1.298
53132W        W24803  17.530  34.825   0.960
53133W        W24804  37.429  40.135   2.870
53134W        W24805  33.309  39.346   4.111
53135W        W24806  28.669  43.829  13.943
53136W        W24807  31.679  31.140   0.770
53137W        W24808  36.983  35.031  11.491
53138W        W24809   8.842  35.578   2.901
53139W        W24810  27.754  22.069  12.188
53140W        W24811  41.092   5.544  14.754
53141W        W24812   3.956  44.715  14.001
53142W        W24813  32.025  44.533   2.510
53143W        W24814  11.789  42.467   4.122
53144W        W24815  36.054  36.518  10.599
53145W        W24816  27.069   3.903   0.526
53146W        W24817   5.762  27.704  14.704
53147W        W24818  28.046  38.592  12.798
53148W        W24819   9.666  23.320  14.303
53149W        W24820  14.647   7.710   0.343
53150W        W24821  41.489  24.915   4.754
53151W        W24822  27.475  26.507  14.475
53152W        W24823  40.828  13.533   1.158
53153W        W24824  14.627   3.743  12.024
53154W        W24825  32.973   3.021  14.470
53155W        W24826  32.185  35.709   1.832
53156W        W24827  20.435  15.280   2.299
53157W        W24828  34.997  32.399  13.886
53158W        W24829  41.097  18.619  13.445
53159W        W24830  11.021  35.022  12.143
53160W        W24831   6.856  20.698  11.120
53161W        W24832  16.468  16.607   3.205
53162W        W24833   1.448  18.822   2.757
53163W        W24834  28.724   6.230   2.284
53164W        W24835  24.756  34.555   1.889
53165W        W24836   0.924  24.273   3.420
53166W        W24837  32.530  24.730   4.171
53167W        W24838  22.740   2.322   4.350
53168W        W24839  13.870  33.520   1.806
53169W        W24840  14.897  35.987   3.405
53170W        W24841  34.301  20.402  12.885
53171W        W24842   8.874   5.987  13.685
53172W        W24843  17.759  20.125  12.756
53173W        W24844  12.803   9.180   2.681
53174W        W24845  22.970  11.079   3.658
53175W        W24846  29.581  20.360  13.922
53176W        W24847  13.608   4.460  12.822
53177W        W24848  37.406  31.014   4.623
53178W        W24849   1.936  19.134  13.861
53179W        W24850  43.220  37.286  11.030
53180W        W24851  22.731  40.271   5.029
53181W        W24852  15.827  38.362   3.745
53182W        W24853  42.238  36.544  10.558
53183W        W24854  32.658  35.809   2.840
53184W        W24855  24.226   1.281  14.368
53185W        W24856   8.256  42.511   4.861
53186W        W24857  43.176  20.608   0.696
53187W        W24858  10.252  27.593   0.502
53188W        W24859   7.306  23.623   1.788
53189W        W24860  13.446  20.778  13.755
53190W        W24861   2.052  44.668   0.863
53191W        W24862  42.886  33.836   2.628
53192W        W24863   5.127   3.648   3.349
53193W        W24864  17.722  25.113  10.948
53194W        W24865  22.341  31.116  12.048
53195W        W24866  11.216  31.482  10.493
53196W        W24867  24.041   8.750  14.399
53197W        W24868  34.956  44.458   3.336
53198W        W24869   7.940  34.084  12.484
53199W        W24870  34.603  31.399  12.031
53200W        W24871  21.383  37.008  12.776
53201W        W24872  43.609  40.858   1.849
53202W        W24873  12.345   9.293  14.096
53203W        W24874   3.676  33.542  12.073
53204W        W24875   2.325   8.281   1.438
53205W        W24876  19.603  39.397   4.072
53206W        W24877   1.308  38.083  10.676
53207W        W24878  30.020   9.208  12.427
53208W        W24879  20.539   0.774   4.647
53209W        W24880  35.513  42.455   0.646
53210W        W24881  19.603  31.421   1.886
53211W        W24882  28.766   1.998  12.259
53212W        W24883  34.892  28.003   0.794
53213W        W24884   5.184   9.736   0.490
53214W        W24885   2.038   4.201  10.941
53215W        W24886  38.285   7.868  11.587
53216W        W24887  34.952  44.566  13.047
53217W        W24888   0.693  32.788  13.289
53218W        W24889  25.519  19.821  13.205
53219W        W24890  34.436  17.035  14.443
53220W        W24891  19.323  30.461  12.982
53221W        W24892  42.351   7.719  13.876
53222W        W24893   1.881  21.944  11.930
53223W        W24894   9.198  22.489  12.908
53224W        W24895  28.547  11.719   4.405
53225W        W24896   3.020   7.308  13.973
53226W        W24897  16.861  32.434   1.787
53227W        W24898   4.735   1.675  13.344
53228W        W24899   3.331  41.485  14.536
53229W        W24900   4.362  35.359   3.479
53230W        W24901  10.467  18.296  13.456
53231W        W24902  19.463  39.235   2.765
53232W        W24903  42.250  25.453  10.790
53233W        W24904  21.820  21.440  11.177
53234W        W24905  42.991  33.465  12.932
53235W        W24906   2.960  38.738  12.075
53236W        W24907   5.379  21.798   0.004
53237W        W24908  28.974  12.747  14.298
53238W        W24909   3.738  43.863   1.700
53239W        W24910  20.726  33.027   4.347
53240W        W24911  14.591  22.872  11.130
53241W        W24912   6.861  41.797   4.580
53242W        W24913  16.148  15.636  10.563
53243W        W24914  13.157   7.651  12.544
53244W        W24915  11.858  16.899   0.761
53245W        W24916  36.849  15.920  14.092
53246W        W24917  33.623  21.314  12.921
53247W        W24918  37.261  26.616   4.078
53248W        W24919  29.315   1.964   3.217
53249W        W24920  23.469  43.884  10.753
53250W        W24921  24.568  35.293  12.107
53251W        W24922  18.244  19.548  14.362
53252W        W24923   2.978  12.856   3.829
53253W        W24924   6.420   9.035   1.860
53254W        W24925  17.482  43.483   1.523
53255W        W24926   4.745  39.288   4.319
53256W        W24927   3.902  35.551   1.174
53257W        W24928  21.285  18.327  12.866
53258W        W24929  40.407   5.437   1.927
53259W        W24930  42.036  17.287  14.187
53260W        W24931   4.495   3.301   4.149
53261W        W24932  21.312  40.868  14.309
53262W        W24933  39.438  42.593   1.201
53263W        W24934  30.528  24.299  12.113
53264W        W24935  32.176   9.116   3.713
53265W        W24936  11.763  32.830   1.269
53266W        W24937   3.533   3.878  10.842
53267W        W24938  35.892  36.059   3.711
53268W        W24939  25.532   2.459   3.308
53269W        W24940  19.282  36.135  13.310
53270W        W24941  30.394  22.158   2.788
53271W        W24942  12.224   3.818  12.602
53272W        W24943  43.528  43.339  11.400
53273W        W24944  12.771  29.439  14.018
53274W        W24945   6.183  26.787  12.436
53275W        W24946  17.328   8.631  12.491
53276W        W24947  35.028  20.255   0.904
53277W        W24948  34.903   2.291  12.656
53278W        W24949  36.014   3.217  12.490
53279W        W24950   4.805  26.906   2.336
53280W        W24951   7.243  10.296  10.041
53281W        W24952  24.910  39.087  13.228
53282W        W24953   6.896  40.534  12.838
53283W        W24954   4.626  27.699  11.022
53284W        W24955  27.340  24.281   1.371
53285W        W24956  32.745  29.854   0.696
53286W        W24957  30.725   0.966  13.382
53287W        W24958   9.377  25.255  10.633
53288W        W24959  26.380   6.438   2.663
53289W        W24960  15.103  40.345   1.846
53290W        W24961   0.839  36.829  14.007
53291W        W24962   2.276   0.508   3.612
53292W        W24963  26.450  28.716  10.933
53293W        W24964  19.085  41.227  12.067
53294W        W24965  34.013   6.696   1.166
53295W        W24966  13.208  39.013  10.805
53296W        W24967  31.869  31.800   1.337
53297W        W24968  11.150  35.439  12.433
53298W        W24969  17.653  12.098   3.278
53299W        W24970  27.111  11.773  14.033
53300W        W24971  10.896  42.980  11.439
53301W        W24972  31.530   7.565  10.998
53302W        W24973  35.495  17.785  13.937
53303W        W24974  44.454   4.798   1.214
53304W        W24975  44.871  43.266  11.536
53305W        W24976  43.480  20.802  10.526
53306W        W24977  11.632   1.330  10.217
53307W        W24978  22.963   7.481   2.894
53308W        W24979  17.356  34.351   1.729
53309W        W24980  23.752  11.901   2.216
53310W        W24981   2.273  27.097   0.893
53311W        W24982   4.423  13.341   2.399
53312W        W24983  18.635  20.560   3.568
53313W        W24984  32.959   7.677   0.389
53314W        W24985   0.310   3.303   3.986
53315W        W24986  38.017   2.746   2.201
53316W        W24987  39.866  36.863   3.917
53317W        W24988  29.250  18.250   0.173
53318W        W24989  29.716  14.795  11.233
53319W        W24990  14.647  33.932  13.420
53320W        W24991  24.685  16.983   4.958
53321W        W24992  44.027  36.643  13.247
53322W        W24993  44.675   5.742   4.636
53323W        W24994  42.412  24.561  13.911
53324W        W24995  27.544  35.014   1.022
53325W        W24996  11.853   2.585  11.977
53326W        W24997   9.240  40.005   1.059
53327W        W24998  23.688  11.326  13.477
53328W        W24999   6.661  19.736   1.157
53329W        W25000  13.137  17.269   4.964
53330W        W25001   7.529  40.730   2.638
53331W        W25002  33.089   8.146  14.303
53332W        W25003  19.143  26.140  12.366
53333W        W25004   1.932  44.612  14.556
53334W        W25005  34.562   4.042  11.884
53335W        W25006   3.446  26.784   2.499
53336W        W25007  15.067  17.785   0.441
53337W        W25008  28.540   4.984   4.829
53338W        W25009  20.209  14.309   4.606
53339W        W25010   8.821  41.489   1.464
53340W        W25011   9.312  32.460   2.766
53341W        W25012  28.413   9.404  12.951
53342W        W25013  36.045  36.173  10.173
53343W        W25014  16.162  38.263   4.186
53344W        W25015  22.314  20.225   1.804
53345W        W25016   0.745   4.138  13.039
53346W        W25017  15.828   7.596   3.300
53347W        W25018  32.935  43.653   0.988
53348W        W25019  20.778  42.446  10.344
53349W        W25020  37.754  18.046  12.396
53350W        W25021  34.531  34.626   2.002
53351W        W25022  32.663  36.631  12.500
53352W        W25023  24.680  28.047  12.882
53353W        W25024  29.323  22.847  10.242
53354W        W25025  30.127   1.898  10.626
53355W        W25026  15.607  23.012   2.790
53356W        W25027  15.493  12.334   1.329
53357W        W25028  38.886  14.775  12.992
53358W        W25029   7.032   8.860   5.096
53359W        W25030  25.095   7.464   3.280
53360W        W25031  13.911  37.283  12.331
53361W        W25032  31.590   9.320  11.920
53362W        W25033  43.623  23.697  10.236
53363W        W25034   6.056   2.934  11.585
53364W        W25035  17.754   2.185  12.071
53365W        W25036  28.601  27.002  13.913
53366W        W25037   3.017   1.028   2.222
53367W        W25038  44.975  38.719   2.922
53368W        W25039  30.627  33.953  14.962
53369W        W25040  36.995  31.044  13.056
53370W        W25041  23.724  41.314  12.108
53371W        W25042  21.325   9.900  10.185
53372W        W25043  20.611  18.052   2.683
53373W        W25044  37.403  23.273  13.557
53374W        W25045  42.445   4.479  10.387
53375W        W25046   4.242  17.979   2.296
53376W        W25047  35.991   5.699   0.914
53377W        W25048  21.482  17.736   2.920
53378W        W25049   6.222  43.550   2.375
53379W        W25050   7.329   3.922  11.981
53380W        W25051  17.087  37.430   0.062
53381W        W25052  24.314  13.390  11.955
53382W        W25053   9.367  15.312   2.680
53383W        W25054  26.256  12.680   3.193
53384W        W25055   2.905  31.650  12.229
53385W        W25056  28.725  15.280   2.266
53386W        W25057  11.635  37.435   5.069
53387W        W25058  42.345  38.008  12.153
53388W        W25059  26.225  25.226  14.717
53389W        W25060  17.719  13.781  10.153
53390W        W25061  22.203  13.788   0.202
53391W        W25062  37.309   1.929   2.912
53392W        W25063  31.565  34.691  10.864
53393W        W25064   0.526  44.808  14.599
53394W        W25065  23.710  11.235   3.246
53395W        W25066  30.163  12.171  10.767
53396W        W25067  35.947   8.958  10.471
53397W        W25068  35.547  24.690   0.674
53398W        W25069  13.156  13.492   3.548
53399W        W25070  31.659   4.711  14.532
53400W        W25071  38.320  32.949   2.111
53401W        W25072  27.070   0.668   0.383
53402W        W25073  18.290   9.126  12.520
53403W        W25074  26.523  21.919  12.839
53404W        W25075   4.682  31.023   0.311
53405W        W25076  44.056  15.100   2.240
53406W        W25077   5.367  30.331  13.546
53407W        W25078  19.722  37.514   3.430
53408W        W25079   6.699  18.089  13.941
53409W        W25080  16.599  18.757  13.536
53410W        W25081  35.432  25.547   4.324
53411W        W25082  35.388   1.885   4.092
53412W        W25083  37.162  44.828  12.831
53413W        W25084  31.926  28.218   4.431
53414W        W25085  36.127  25.645   2.900
53415W        W25086   4.711   3.418  10.847
53416W        W25087   1.724   8.823  10.585
53417W        W25088   8.612  16.288   2.383
53418W        W25089  15.852  33.766  13.014
53419W        W25090   9.100   9.915   2.523
53420W        W25091   5.933   7.281   4.573
53421W        W25092  16.706   4.443  11.581
53422W        W25093  19.618  13.409   4.716
53423W        W25094  13.023  42.336   0.278
53424W        W25095  38.413   5.073   3.728
53425W        W25096  29.134  41.922  11.712
53426W        W25097  16.093  17.067  12.862
53427W        W25098  27.475  34.936   4.568
53428W        W25099  30.128  25.118  14.092
53429W        W25100  17.610  30.006   4.739
53430W        W25101  26.371  38.490  10.606
53431W        W25102  21.193  15.561  10.552
53432W        W25103  25.447   8.871   4.053
53433W        W25104  16.770   8.333  11.971
53434W        W25105  17.477   2.986  12.164
53435W        W25106  28.759  37.587  14.429
53436W        W25107  25.969  11.752   3.396
53437W        W25108   7.441  23.679  11.152
53438W        W25109  19.690  41.102  14.402
53439W        W25110  17.764  20.806   3.660
53440W        W25111  17.632  35.676  12.070
53441W        W25112   7.737  34.096   1.455
53442W        W25113  23.721  29.409  12.504
53443W        W25114  22.919  38.430  10.493
53444W        W25115  25.623  39.981   1.639
53445W        W25116   2.057  24.667  10.689
53446W        W25117   8.558   6.995  11.693
53447W        W25118  28.993  24.083   0.165
53448W        W25119  11.096  38.430   0.415
53449W        W25120  21.823  36.583   2.243
53450W        W25121  19.153   9.167   2.388
53451W        W25122  11.938   4.489   2.148
53452W        W25123  29.400  22.276   0.361
53453W        W25124  26.674  33.873   2.712
53454W        W25125  21.557  20.618  11.569
53455W        W25126  27.189  39.169  12.425
53456W        W25127   8.341  44.457  14.519
53457W        W25128  37.032  39.508   5.169
53458W        W25129  36.148  33.538  10.754
53459W        W25130  26.005  10.990  12.394
53460W        W25131   6.302  41.713   1.903
53461W        W25132  18.689  38.019  10.279
53462W        W25133   1.705  18.056   2.121
53463W        W25134  20.505  34.947  12.464
53464W        W25135  33.981  39.308   3.790
53465W        W25136  28.040  14.994  14.380
53466W        W25137   0.943  29.515   4.610
53467W        W25138  38.795  26.544   0.347
53468W        W25139  30.917  42.478  12.572
53469W        W25140  11.701  25.288   1.833
53470W        W25141   1.307  15.362  11.957
53471W        W25142  22.636  44.830   0.401
53472W        W25143   6.032  40.889   4.515
53473W        W25144  21.455  40.287   3.654
53474W        W25145  44.246   4.017  12.930
53475W        W25146  21.522  40.217  10.616
53476W        W25147  34.960  10.464  13.959
53477W        W25148  16.817   2.965  14.328
53478W        W25149   7.156  43.508   3.819
53479W        W25150  25.140  38.989  14.944
53480W        W25151  24.742  23.722  13.560
53481W        W25152  29.757   5.403  11.365
53482W        W25153   8.432   5.328   1.285
53483W        W25154  22.271   7.327   0.299
53484W        W25155  22.379   0.063   3.653
53485W        W25156   2.016  25.740   2.816
53486W        W25157   7.572  44.083   1.540
53487W        W25158  38.922   4.022   0.768
53488W        W25159  26.648   8.601   0.759
53489W        W25160  19.285  11.027   9.839
53490W        W25161  25.935   7.422  11.145
53491W        W25162  34.837   1.228  13.329
53492W        W25163  27.120  33.967  10.404
53493W        W25164  14.633   1.332  11.640
53494W        W25165  24.545  34.551   3.280
53495W        W25166  41.858  25.688   2.303
53496W        W25167  14.169  11.497   3.774
53497W        W25168  28.504  43.506   0.804
53498W        W25169  24.475  38.071  13.833
53499W        W25170  29.161  43.927  13.970
53500W        W25171  41.935  29.711  14.872
53501W        W25172  21.829  43.461   3.219
53502W        W25173  21.181   6.457  13.439
53503W        W25174  26.465  32.830  12.500
53504W        W25175  27.829   7.548   5.083
53505W        W25176  16.773  14.181   0.284
53506W        W25177  17.048  33.328   2.503
53507W        W25178  42.924  19.766   0.339
53508W        W25179  28.700  31.430  12.038
53509W        W25180   3.466   0.947  10.752
53510W        W25181  31.140  33.790   5.059
53511W        W25182  25.400  43.839   0.049
53512W        W25183  30.123  25.215  13.598
53513W        W25184  16.730   6.382   3.061
53514W        W25185  31.956   4.257   2.118
53515W        W25186  33.073   0.250   3.376
53516W        W25187   3.400   5.327  14.498
53517W        W25188  28.631   2.318   1.436
53518W        W25189   2.718   5.853   1.468
53519W        W25190   0.309  38.356   2.692
53520W        W25191   5.170  33.357   4.381
53521W        W25192  42.974  22.249   0.399
53522W        W25193  34.977   0.994   1.521
53523W        W25194   7.207  22.785  14.261
53524W        W25195  12.776  10.847  14.511
53525W        W25196  10.425  20.738   0.891
53526W        W25197  25.006   2.769  13.949
53527W        W25198   3.698   8.458   3.703
53528W        W25199   1.546  31.124  13.860
53529W        W25200  10.323  10.308  14.515
53530W        W25201  11.078  13.508  10.640
53531W        W25202  26.226  13.098   4.548
53532W        W25203  44.661   3.217  14.285
53533W        W25204  10.654   2.409   2.717
53534W        W25205  36.088  11.577   0.229
53535W        W25206   4.301   5.547   0.519
53536W        W25207  27.911  11.892   1.038
53537W        W25208  31.973   9.793   1.890
53538W        W25209  33.915  43.819   0.246
53539W        W25210   3.801  12.155   1.088
53540W        W25211  42.732  36.454  10.657
53541W        W25212  29.428  20.045  12.887
53542W        W25213   0.718   2.420  10.681
53543W        W25214  16.033   6.818   5.457
53544W        W25215   4.643  22.596  10.822
53545W        W25216  22.798  33.875  14.922
53546W        W25217   8.628   2.856  14.024
53547W        W25218  39.772  11.784  12.104
53548W        W25219   0.990  41.293   2.773
53549W        W25220  21.765   8.883   0.291
53550W        W25221  18.742  23.344   0.526
53551W        W25222  27.819  33.532   3.155
53552W        W25223  38.338  11.828   0.925
53553W        W25224  33.430  44.588   0.418
53554W        W25225  42.346  33.023  12.581
53555W        W25226  16.695  11.229  14.335
53556W        W25227   8.036  32.034   5.046
53557W        W25228  41.961  38.260   4.155
53558W        W25229  33.366   8.819   3.209
53559W        W25230  31.475  10.309  14.549
53560W        W25231  11.020   4.316  13.824
53561W        W25232  16.262  13.170   2.776
53562W        W25233  37.770  10.256   2.112
53563W        W25234  30.397  32.511  14.522
53564W        W25235  17.219  29.182  13.971
53565W        W25236  40.515   8.589  10.170
53566W        W25237  33.430  27.656  14.470
53567W        W25238  33.902  34.764   3.620
53568W        W25239   6.323  38.042   1.791
53569W        W25240  37.016  11.669  10.943
53570W        W25241  14.690   6.971   1.159
53571W        W25242  44.651  29.889  13.035
53572W        W25243  24.073  14.362   0.240
53573W        W25244  17.191   9.127   2.071
53574W        W25245  27.018   1.095  12.780
53575W        W25246  10.377   4.979  14.169
53576W        W25247  14.142  23.126  13.778
53577W        W25248  26.092  12.944  14.887
53578W        W25249   6.793  30.399   2.827
53579W        W25250  21.172  41.313   1.444
53580W        W25251  22.523  30.107  10.635
53581W        W25252  18.384  21.285   9.817
53582W        W25253  15.626  36.381  14.893
53583W        W25254  27.062  27.061  10.536
53584W        W25255  39.987  31.890  14.047
53585W        W25256  31.613  24.067  14.669
53586W        W25257  25.980  43.300  10.508
53587W        W25258  17.299  21.820  12.012
53588W        W25259  29.472  19.697   2.808
53589W        W25260  29.403  22.068  14.541
53590W        W25261   8.152   2.001  12.569
53591W        W25262  44.988  25.553   1.834
53592W        W25263  29.511  35.396   4.563
53593W        W25264  41.461  21.194  13.565
53594W        W25265   2.223  26.714   0.305
53595W        W25266  37.341   1.054   0.762
53596W        W25267  33.008  24.068   3.389
53597W        W25268   5.297  32.369   1.817
53598W        W25269   0.766   1.349   1.542
53599W        W25270  42.036  25.222   2.446
53600W        W25271  17.983  32.091  14.933
53601W        W25272  36.594  15.903   1.972
53602W        W25273  32.392  16.719  10.666
53603W        W25274  22.598  24.026   4.190
53604W        W25275  20.760  29.156  14.413
53605W        W25276  15.068  44.505   4.499
53606W        W25277  37.003  12.198   2.843
53607W        W25278   3.418  12.611  11.179
53608W        W25279  31.636  33.713   2.970
53609W        W25280   3.256  10.726  11.166
53610W        W25281  25.538  34.164   3.269
53611W        W25282   9.822  18.354  12.020
53612W        W25283   2.703  43.546   4.226
53613W        W25284   1.765  17.118  12.910
53614W        W25285  17.807   2.332  12.911
53615W        W25286  21.891  39.856   2.821
53616W        W25287  35.909  25.084  11.075
53617W        W25288  43.723   7.840  13.684
53618W        W25289   5.323  30.347  12.069
53619W        W25290  34.890   4.778  10.642
53620W        W25291  19.386  16.884  13.979
53621W        W25292  27.707  36.085   4.858
53622W        W25293  34.468  10.258   2.052
53623W        W25294  37.937  27.924   4.476
53624W        W25295   3.343   3.423   0.060
53625W        W25296  37.790  42.648  14.355
53626W        W25297  41.462  31.347   3.313
53627W        W25298  41.162   5.445   2.840
53628W        W25299  29.691  39.149  11.104
53629W        W25300  34.643  32.850   4.092
53630W        W25301  30.188  30.586  12.565
53631W        W25302  36.375   4.372   3.589
53632W        W25303  44.046   8.663  10.697
53633W        W25304  27.536   3.178   3.358
53634W        W25305   8.671  35.607   1.947
53635W        W25306  25.972  10.229  14.941
53636W        W25307  44.392  27.638   4.654
53637W        W25308   8.202  31.984  11.820
53638W        W25309  21.679   7.227   4.315
53639W        W25310   0.511  10.264  13.408
53640W        W25311  25.143  30.008  14.396
53641W        W25312  22.791  36.301  11.720
53642W        W25313  11.803  34.007   2.893
53643W        W25314  42.203  14.631   2.804
53644W        W25315  26.866  24.080   2.646
53645W        W25316  36.986   0.467  12.158
53646W        W25317  27.244  16.760   3.297
53647W        W25318  17.796   0.947  12.632
53648W        W25319  12.206  37.006   2.596
53649W        W25320  12.200   7.350  11.708
53650W        W25321   4.125  14.588  11.857
53651W        W25322  23.692  30.494   1.326
53652W        W25323  11.220  41.744  10.602
53653W        W25324   5.695  20.174  11.368
53654W        W25325   7.804  39.906  10.279
53655W        W25326  13.811   2.758  13.579
53656W        W25327   1.302   0.675   3.655
53657W        W25328  33.705  25.139  12.928
53658W        W25329  26.864  34.233  14.574
53659W        W25330  33.469  14.779   4.275
53660W        W25331   3.516   9.200  11.237
53661W        W25332   0.432   6.132   1.885
53662W        W25333  34.154  26.192  12.345
53663W        W25334  29.525  26.824   2.811
53664W        W25335  27.128  20.888  10.338
53665W        W25336   6.164  39.524   3.799
53666W        W25337  31.113  22.075  14.851
53667W        W25338  21.171   4.969  13.806
53668W        W25339  26.152  10.837  12.890
53669W        W25340  11.693  14.621   1.769
53670W        W25341   7.681  21.781  12.181
53671W        W25342   8.309  43.729   1.968
53672W        W25343  29.067   8.378   4.017
53673W        W25344  42.888   7.134   0.929
53674W        W25345  28.096  26.810  11.569
53675W        W25346  19.025  37.836   0.356
53676W        W25347  17.337   7.259  11.331
53677W        W25348  24.239  30.143  11.185
53678W        W25349  21.564  44.119  11.390
53679W        W25350  25.506  30.477  11.779
53680W        W25351   0.589  15.570  14.983
53681W        W25352  19.305  10.462   1.046
53682W        W25353  13.884   1.034  12.965
53683W        W25354  26.613  26.010   0.916
53684W        W25355  40.371  38.837   2.302
53685W        W25356   5.687  28.591   3.959
53686W        W25357  32.528  41.477  12.399
53687W        W25358  31.105  24.407   3.898
53688W        W25359  24.133   4.386   4.372
53689W        W25360  28.733  35.970  11.952
53690W        W25361  37.119  41.225  12.577
53691W        W25362  12.881  10.297   2.768
53692W        W25363   9.914   5.255  13.674
53693W        W25364  36.143  31.998  14.999
53694W        W25365   5.058  10.279  11.863
53695W        W25366  15.204  19.974   4.636
53696W        W25367  31.606  41.301   2.949
53697W        W25368  26.055   7.433  14.853
53698W        W25369  24.932  20.836  11.107
53699W        W25370  43.578  41.970  11.443
53700W        W25371  28.072   7.664   2.237
53701W        W25372  33.287  41.298  10.361
53702W        W25373   9.389  32.946  13.030
53703W        W25374  25.543  30.565   2.807
53704W        W25375  32.089  14.444   4.496
53705W        W25376  33.415  16.912   1.861
53706W        W25377  35.174   7.070   2.790
53707W        W25378  40.343  24.564  11.482
53708W        W25379   9.251  19.702   1.720
53709W        W25380  11.919  40.755   3.720
53710W        W25381  30.182   6.470  13.095
53711W        W25382  15.173   4.789  13.273
53712W        W25383  43.463   3.895   0.321
53713W        W25384  20.933  25.490   3.862
53714W        W25385   6.194  32.325   4.686
53715W        W25386  42.048   9.117  13.061
53716W        W25387   1.830  33.373   1.305
53717W        W25388  18.630  18.569   0.253
53718W        W25389  15.127  38.370   3.000
53719W        W25390  34.279  43.560  14.309
53720W        W25391  19.271   7.428  11.069
53721W        W25392  31.136  44.023   1.340
53722W        W25393   6.967  23.893  11.241
53723W        W25394  23.050  15.135  13.317
53724W        W25395  19.994   0.661  12.416
53725W        W25396   3.757  41.019  10.762
53726W        W25397  44.796  39.936   2.348
53727W        W25398  38.598  32.960  14.296
53728W        W25399  41.591  17.091   3.717
53729W        W25400  34.847  41.986  14.423
53730W        W25401  11.544  19.077  10.931
53731W        W25402  37.749  27.222   0.868
53732W        W25403  13.733   6.393   5.178
53733W        W25404   3.505  21.989   2.059
53734W        W25405  15.592   8.746  11.051
53735W        W25406  42.549  15.852  10.151
53736W        W25407   8.749   7.598  13.091
53737W        W25408  21.669  43.748   2.313
53738W        W25409   9.909   6.092   1.739
53739W        W25410  42.460   4.200  14.876
53740W        W25411  43.323   9.516  11.780
53741W        W25412  18.081  30.192   2.815
53742W        W25413   9.792  39.815   0.934
53743W        W25414  41.469  41.616  12.447
53744W        W25415  23.528  16.836  12.417
53745W        W25416   7.149  28.718   0.875
53746W        W25417  29.667  25.900  12.494
53747W        W25418  16.169   9.262  10.723
53748W        W25419  22.527  40.944  10.275
53749W        W25420  12.213   6.718  12.899
53750W        W25421  24.577  28.671   3.358
53751W        W25422  17.120  44.752  11.978
53752W        W25423  14.881   1.352   2.117
53753W        W25424  26.281  13.416  12.553
53754W        W25425  33.370  34.098  11.241
53755W        W25426  14.863  37.768  10.471
53756W        W25427   0.748  33.567  13.498
53757W        W25428  19.614  10.150  14.796
53758W        W25429  21.593  29.242  13.502
53759W        W25430  13.674  39.009   3.885
53760W        W25431   4.472   7.058   0.693
53761W        W25432   1.032  17.120   2.080
53762W        W25433  21.632   3.466  11.762
53763W        W25434   2.840  33.636   3.719
53764W        W25435  14.376  24.272   1.360
53765W        W25436  13.416  21.095   0.501
53766W        W25437  15.842   9.021   1.617
53767W        W25438  42.423  39.063   5.041
53768W        W25439  42.840  20.961   4.321
53769W        W25440  35.375  17.508   0.944
53770W        W25441  34.177  17.199   2.242
53771W        W25442  39.459  13.859  13.888
53772W        W25443  12.106  34.478  11.545
53773W        W25444  21.101  33.845  13.368
53774W        W25445  36.896  31.696   0.323
53775W        W25446  43.382  24.049   4.198
53776W        W25447  19.155   4.410   0.259
53777W        W25448  31.963  42.904  12.004
53778W        W25449  32.632  17.850   0.684
53779W        W25450  12.268  16.222   1.483
53780W        W25451  30.982   3.904  10.377
53781W        W25452  14.100  22.766  11.118
53782W        W25453  14.835  32.473  12.554
53783W        W25454  26.795  29.056  11.135
53784W        W25455  10.930  40.446  11.185
53785W        W25456  19.141  25.713  14.772
53786W        W25457  43.853  15.099  14.959
53787W        W25458  38.577  30.886   3.154
53788W        W25459  41.752  29.668  13.778
53789W        W25460  39.432  34.699   4.785
53790W        W25461   1.360  20.607   4.990
53791W        W25462  37.554  15.082  13.943
53792W        W25463   1.682  13.190   4.957
53793W        W25464   4.446  25.121   4.671
53794W        W25465  23.415  34.004   2.734
53795W        W25466  10.802  16.898  13.913
53796W        W25467  26.080  16.835  12.078
53797W        W25468  35.071  20.948  11.113
53798W        W25469   9.825  26.069   2.028
53799W        W25470   4.475  25.715  12.588
53800W        W25471  11.347  11.854  11.146
53801W        W25472  36.924   8.401   4.185
53802W        W25473  40.916  36.806   4.202
53803W        W25474  19.109  17.668   3.656
53804W        W25475  14.567  27.597   2.397
53805W        W25476  31.480  22.221  14.507
53806W        W25477  18.066  22.596  10.468
53807W        W25478  40.763   3.752   0.513
53808W        W25479  18.561  24.023   1.811
53809W        W25480  19.554  22.765  14.343
53810W        W25481   1.686  26.428  12.526
53811W        W25482  12.227   5.183   0.487
53812W        W25483  25.489  34.628  11.529
53813W        W25484   3.460  44.989  12.336
53814W        W25485  43.097   7.656  10.577
53815W        W25486   9.061  39.360   1.845
53816W        W25487  43.245  10.773   0.068
53817W        W25488   6.745  22.664  10.690
53818W        W25489  12.054  10.729   0.669
53819W        W25490  16.913  37.377   5.172
53820W        W25491  32.521  38.620  13.324
53821W        W25492   7.413  21.541  11.077
53822W        W25493  15.866  29.537   4.747
53823W        W25494   2.591  39.103  11.575
53824W        W25495  34.582   1.871   3.085
53825W        W25496   6.413  43.439  12.024
53826W        W25497  20.569  21.149  12.366
53827W        W25498  34.136  17.478   0.316
53828W        W25499  22.677   2.018  12.025
53829W        W25500  34.893  19.569  14.726
53830W        W25501  11.122  13.619   4.570
53831W        W25502  19.806  10.247   3.196
53832W        W25503  19.013  40.453   1.178
53833W        W25504  38.724  10.177  10.693
53834W        W25505  37.117  44.496   2.778
53835W        W25506  10.551   9.836  13.067
53836W        W25507  34.891  20.228  10.725
53837W        W25508   1.011  42.032  13.738
53838W        W25509  32.439  20.918  12.432
53839W        W25510  31.613  24.606  10.845
53840W        W25511  30.286  34.386  13.893
53841W        W25512   6.267   2.018   2.277
53842W        W25513  24.189  22.052  10.805
53843W        W25514  23.125   5.979   2.686
53844W        W25515   0.709  25.603  11.458
53845W        W25516  11.566  14.484   0.342
53846W        W25517  16.303   4.488  11.195
53847W        W25518  33.833  43.848   2.258
53848W        W25519  43.983  18.284   2.828
53849W        W25520   6.459  31.879   3.749
53850W        W25521  12.405  10.401   0.407
53851W        W25522  31.976  43.587  13.348
53852W        W25523   8.958  29.924  14.328
53853W        W25524  30.939   9.381  11.171
53854W        W25525  29.933   5.734   4.289
53855W        W25526  26.415   9.690   3.731
53856W        W25527  15.843  37.452  10.641
53857W        W25528  13.907  26.579   9.870
53858W        W25529  28.185  23.681  11.149
53859W        W25530  42.866  10.766   4.730
53860W        W25531   0.916  26.366   4.302
53861W        W25532  36.991  36.358  14.453
53862W        W25533  31.550   4.970  14.091
53863W        W25534   7.988  21.180  11.607
53864W        W25535   6.644  37.298   1.638
53865W        W25536  13.470   0.309  12.598
53866W        W25537  13.662   4.252   1.302
53867W        W25538   3.707  26.138  13.895
53868W        W25539  23.007  43.582  12.094
53869W        W25540  32.032  31.448   1.776
53870W        W25541   6.204  13.235  13.896
53871W        W25542  41.001  16.619  13.843
53872W        W25543  18.175   5.455  11.309
53873W        W25544  27.084  34.862  13.217
53874W        W25545  18.278  43.922  13.526
53875W        W25546   5.394   8.600  11.338
53876W        W25547  38.239  33.060   1.268
53877W        W25548  31.998  30.432  12.129
53878W        W25549  33.764  11.114   1.324
53879W        W25550  37.316  28.148  14.814
53880W        W25551   4.030  40.944   3.280
53881W        W25552  17.648  29.650  13.355
53882W        W25553  21.003  21.095  13.448
53883W        W25554  41.542  10.901   0.338
53884W        W25555  44.496  43.883  12.842
53885W        W25556   4.737  11.783   4.940
53886W        W25557  30.934  34.810  14.406
53887W        W25558  41.325  23.236  14.891
53888W        W25559  20.186  17.702  14.933
53889W        W25560  41.801  23.773   0.350
53890W        W25561  21.479  13.112  10.804
53891W        W25562  42.289   1.299  11.108
53892W        W25563  37.180  10.335   4.575
53893W        W25564  26.642   9.491   4.162
53894W        W25565  44.981   1.210  11.203
53895W        W25566  29.753  26.522  11.055
53896W        W25567  44.540  19.413   0.412
53897W        W25568  43.953  11.467  12.034
53898W        W25569  22.616  16.535   3.913
53899W        W25570  29.129   9.798   5.023
53900W        W25571  17.748  11.153   3.764
53901W        W25572  21.269  43.838  12.340
53902W        W25573  40.260  10.657  13.913
53903W        W25574   3.930  12.426   4.150
53904W        W25575  15.812  28.262  13.424
53905W        W25576  33.467   9.353   3.217
53906W        W25577  22.220  31.626  12.086
53907W        W25578   4.714  21.646   4.572
53908W        W25579  31.620  17.086   4.389
53909W        W25580   8.200   3.465   4.248
53910W        W25581  27.959  20.233  14.375
53911W        W25582   2.471   8.395  12.488
53912W        W25583  25.460   7.579  12.115
53913W        W25584  16.065   3.312   0.113
53914W        W25585  37.441  36.965   3.122
53915W        W25586  35.376   1.971  12.853
53916W        W25587  43.502  30.930   0.291
53917W        W25588   5.306   5.359   4.608
53918W        W25589  36.307  29.060  11.689
53919W        W25590  25.510  30.225   0.367
53920W        W25591  39.313  21.033  11.504
53921W        W25592  35.112   4.863   2.766
53922W        W25593  38.483  12.384   4.548
53923W        W25594  40.955  27.155   3.679
53924W        W25595  14.002  10.006   3.358
53925W        W25596   4.654  22.577  12.865
53926W        W25597   7.405  16.763  13.478
53927W        W25598  43.281   1.273  10.348
53928W        W25599   3.883  37.369   4.015
53929W        W25600  43.353  24.238  11.452
53930W        W25601  12.183  34.326  13.554
53931W        W25602  16.564  37.608  13.025
53932W        W25603  29.561   4.089  12.177
53933W        W25604  22.700  10.946   2.703
53934W        W25605  41.328   3.163   3.684
53935W        W25606  29.909   7.184   4.217
53936W        W25607  44.400  31.945   1.859
53937W        W25608  32.038   9.760  13.414
53938W        W25609  27.548   3.762  10.690
53939W        W25610   2.265  13.819   3.653
53940W        W25611  42.462   1.827   4.294
53941W        W25612  41.943  27.870  14.470
53942W        W25613  24.628  19.635   1.768
53943W        W25614   5.395  23.822  13.966
53944W        W25615  25.148  41.471   0.846
53945W        W25616  38.363  39.575  12.084
53946W        W25617  19.276   4.719  13.915
53947W        W25618   7.014   3.658   2.324
53948W        W25619  12.278  11.086  14.706
53949W        W25620  31.532  27.917  13.307
53950W        W25621  26.064  32.902   1.392
53951W        W25622  11.621  20.718  10.650
53952W        W25623  28.454  16.584  12.646
53953W        W25624  33.659  28.980   4.313
53954W        W25625  19.547  23.764   9.892
53955W        W25626   1.241  11.687   0.276
53956W        W25627   7.241  18.959  13.944
53957W        W25628  10.651  35.320  12.369
53958W        W25629  26.367   0.721  13.759
53959W        W25630  36.999  14.799  13.336
53960W        W25631  34.424   3.303  11.973
53961W        W25632  34.736  10.738   1.373
53962W        W25633  29.698  13.650   2.808
53963W        W25634  29.444   0.489  14.898
53964W        W25635  32.542  15.174  11.053
53965W        W25636  22.772  21.590  10.696
53966W        W25637  33.683  20.172   3.702
53967W        W25638  27.528  28.381   3.974
53968W        W25639  29.206  26.425  14.992
53969W        W25640   7.355  26.576   1.909
53970W        W25641  30.082   0.232  10.779
53971W        W25642  23.056  22.111  14.745
53972W        W25643  39.770  11.889   0.924
53973W        W25644  14.312  30.189  11.259
53974W        W25645  21.581  10.448  13.387
53975W        W25646  25.200  23.484   2.762
53976W        W25647   7.780  44.727  12.414
53977W        W25648  39.535  36.970   4.894
53978W        W25649  26.167  36.933  10.739
53979W        W25650  11.436  29.507   1.374
53980W        W25651  35.218  14.123   3.319
53981W        W25652  13.659  26.513  13.957
53982W        W25653   8.383  35.862   3.680
53983W        W25654  31.611   2.928   3.182
53984W        W25655   6.987  19.680   4.600
53985W        W25656  23.009  24.673   1.858
53986W        W25657  24.732  22.970   2.026
53987W        W25658  29.403  38.353   1.901
53988W        W25659  11.151  12.977   3.626
53989W        W25660  30.647   6.218   4.613
53990W        W25661  19.219   2.295  14.087
53991W        W25662  10.620  24.782   0.891
53992W        W25663  16.348  28.985   2.812
53993W        W25664  29.371   2.791  13.318
53994W        W25665  15.136  22.959  12.990
53995W        W25666  20.014   2.255  12.488
53996W        W25667  42.923  33.692   0.628
53997W        W25668   0.441   7.265   3.595
53998W        W25669   6.335   1.923   9.976
53999W        W25670  19.891  41.828   2.660
54000W        W25671  33.670   2.307  11.362
54001W        W25672  33.844  32.249  13.350
54002W        W25673  25.050  21.526  12.106
54003W        W25674  20.064  23.750  10.687
54004W        W25675  24.565  44.073  12.522
54005W        W25676  29.540  34.064  14.253
54006W        W25677   5.392  29.921   0.762
54007W        W25678   4.407  24.413   3.687
54008W        W25679   4.658  21.860   3.293
54009W        W25680  11.675  31.989   0.781
54010W        W25681   8.924  37.744  13.448
54011W        W25682  30.474  39.950  13.012
54012W        W25683  41.458  31.620  11.651
54013W        W25684  14.058  15.740   0.298
54014W        W25685  14.421   1.517  14.985
54015W        W25686   4.792  40.422   4.622
54016W        W25687  10.745   1.394  12.636
54017W        W25688  17.679  44.264   1.600
54018W        W25689  39.068  18.169   1.698
54019W        W25690  44.545  42.520   0.329
54020W        W25691  44.472  18.286  14.929
54021W        W25692  13.416   0.568   9.710
54022W        W25693  26.613  32.815   1.504
54023W        W25694  35.999  17.526  12.647
54024W        W25695  43.027  21.001  13.490
54025W        W25696   0.218  11.275   4.578
54026W        W25697   1.135  38.982  10.685
54027W        W25698   2.436  12.232  12.509
54028W        W25699  22.253   0.759   4.636
54029W        W25700   1.990  31.434  11.189
54030W        W25701   3.240  41.444   1.283
54031W        W25702  44.455  22.729  14.280
54032W        W25703  22.279  37.990  11.159
54033W        W25704  13.704  42.806   2.910
54034W        W25705   3.492   0.247   3.120
54035W        W25706  30.975  12.394   4.923
54036W        W25707   5.643  13.711   2.221
54037W        W25708  36.605   1.341  12.874
54038W        W25709   3.007  29.102  11.457
54039W        W25710   0.983  22.996  10.768
54040W        W25711   6.566  14.376  14.401
54041W        W25712  39.584   0.576  13.501
54042W        W25713  33.359   3.509  13.916
54043W        W25714  24.691  35.634  14.508
54044W        W25715  11.741  22.025   3.020
54045W        W25716   7.446  27.543   1.266
54046W        W25717  11.064  35.982  14.911
54047W        W25718  15.570  11.412   3.677
54048W        W25719  37.780  41.406   3.342
54049W        W25720  41.780  19.264  14.818
54050W        W25721  31.054  39.344  10.499
54051W        W25722  44.427  12.774   3.576
54052W        W25723  41.403  21.202   5.098
54053W        W25724  24.709  38.903   0.269
54054W        W25725  29.093  42.335  14.156
54055W        W25726  21.166  17.230  12.097
54056W        W25727   8.427  26.267  14.904
54057W        W25728  19.192   8.311  11.190
54058W        W25729  44.269   5.205   2.471
54059W        W25730  30.941  34.944   0.379
54060W        W25731  37.832  20.613  10.831
54061W        W25732  21.781  25.701  12.282
54062W        W25733  15.316  39.321   4.846
54063W        W25734  25.960   5.409   4.917
54064W        W25735   9.340  15.496   0.280
54065W        W25736  39.285  32.402  11.321
54066W        W25737  37.922  38.662  12.099
54067W        W25738   2.436  42.382   3.600
54068W        W25739  15.494  31.175  12.802
54069W        W25740  24.454  41.744  14.253
54070W        W25741   2.267   4.885  13.390
54071W        W25742  13.556  20.776   3.731
54072W        W25743  41.079   5.210  11.775
54073W        W25744  24.417  14.616  10.757
54074W        W25745   8.708  17.118   2.812
54075W        W25746  14.747   3.233  11.933
54076W        W25747  18.700  24.180   0.873
54077W        W25748  24.525  11.719   3.255
54078W        W25749  32.553   9.890   0.375
54079W        W25750  42.480  30.247  11.001
54080W        W25751  33.968   2.153   2.745
54081W        W25752  23.441   6.838   2.464
54082W        W25753   2.837  34.131   0.928
54083W        W25754   3.919   6.836  12.479
54084W        W25755  10.314  24.005   2.169
54085W        W25756  39.246  15.371  12.013
54086W        W25757   9.342  14.834  13.544
54087W        W25758  41.198  13.694  13.590
54088W        W25759  37.505  12.341   2.799
54089W        W25760   4.887  33.600  12.924
54090W        W25761  12.663  43.891   2.299
54091W        W25762  24.850  19.955   4.980
54092W        W25763  42.513  41.015  11.639
54093W        W25764  44.506   7.542  10.756
54094W        W25765  37.634   2.903  11.041
54095W        W25766   8.210   6.918   1.383
54096W        W25767  23.593  17.275  12.138
54097W        W25768   6.630  40.020   0.732
54098W        W25769  29.724  23.515   2.742
54099W        W25770   0.574  43.889  14.515
54100W        W25771  16.813  35.161  12.350
54101W        W25772  30.390  36.590  12.405
54102W        W25773   6.132  17.763   1.218
54103W        W25774  23.276  36.047   0.407
54104W        W25775  23.605   8.403  11.444
54105W        W25776  14.822  40.907  14.721
54106W        W25777  13.284  11.082  13.005
54107W        W25778  26.707  29.971  14.882
54108W        W25779  10.923  25.662  12.047
54109W        W25780  27.856   7.870   2.674
54110W        W25781   8.274  40.516   2.939
54111W        W25782  26.581  26.473   1.157
54112W        W25783  29.356  14.055   4.954
54113W        W25784  34.212  38.458  11.380
54114W        W25785   5.386  27.233  11.224
54115W        W25786  25.272  15.696   1.887
54116W        W25787  37.548  28.641  14.810
54117W        W25788  14.208  38.538  13.590
54118W        W25789   5.287  44.318  14.007
54119W        W25790  38.362  38.815   2.355
54120W        W25791  41.496   2.217  14.867
54121W        W25792  29.714  24.633   0.314
54122W        W25793  12.093  27.762  14.395
54123W        W25794  22.867   2.972  10.791
54124W        W25795  24.253   7.198   0.906
54125W        W25796  40.500  22.517  11.604
54126W        W25797  42.477  21.208   4.627
54127W        W25798  25.069  24.049   4.704
54128W        W25799   6.347  16.906  12.154
54129W        W25800  30.417  10.222   2.452
54130W        W25801  34.036  21.727   4.042
54131W        W25802   5.506  12.618  11.101
54132W        W25803  41.631   8.154  12.110
54133W        W25804   3.776  28.585   0.074
54134W        W25805  33.507  33.626  10.575
54135W        W25806  23.877  16.977   3.770
54136W        W25807  17.636  27.084   0.531
54137W        W25808  10.526  41.496   2.789
54138W        W25809  15.716  41.990   4.544
54139W        W25810  37.919  36.353  11.183
54140W        W25811  22.923   5.429  13.711
54141W        W25812   9.355  31.846  14.516
54142W        W25813   3.321  38.521  14.503
54143W        W25814  31.027  31.964  13.134
54144W        W25815  27.744  23.112  12.789
54145W        W25816  39.044  41.294   0.916
54146W        W25817  11.964   3.475  10.533
54147W        W25818   6.338   5.653  12.973
54148W        W25819  17.747  19.332  13.314
54149W        W25820  33.647  25.712   4.368
54150W        W25821  19.341   9.752  14.256
54151W        W25822  34.937  16.682   0.342
54152W        W25823  27.143  41.562  13.027
54153W        W25824  37.316  14.658  13.752
54154W        W25825   0.251  39.817   3.784
54155W        W25826  38.782  25.007   0.192
54156W        W25827  13.858  31.727  13.496
54157W        W25828   7.773  30.354  13.342
54158W        W25829  37.886  31.712  10.666
54159W        W25830  11.795  37.612   1.373
54160W        W25831  43.469   4.419   0.421
54161W        W25832  16.146  10.827   0.736
54162W        W25833  15.094  34.135   1.035
54163W        W25834  36.472   4.406  12.921
54164W        W25835  44.772  42.098   4.300
54165W        W25836   4.403  37.497  11.253
54166W        W25837  34.129  33.816  12.537
54167W        W25838   1.842  13.581  13.869
54168W        W25839   5.072   9.820  14.992
54169W        W25840   7.733  17.607   2.738
54170W        W25841  31.556   8.275  12.326
54171W        W25842   8.607  39.588   4.100
54172W        W25843   5.123  20.806  14.950
54173W        W25844  22.790  38.953  13.972
54174W        W25845   6.431  26.397   2.624
54175W        W25846  28.526  18.091   3.838
54176W        W25847   5.281  20.938   2.482
54177W        W25848  38.035  14.767  10.826
54178W        W25849  29.530   6.312  12.438
54179W        W25850  42.116  33.357   2.355
54180W        W25851   1.109  33.791  11.453
54181W        W25852   7.436   8.738  12.401
54182W        W25853  38.506  28.084  11.474
54183W        W25854  39.549  44.226   2.441
54184W        W25855  11.284  44.682  11.526
54185W        W25856  21.545   8.607   1.314
54186W        W25857   6.319   5.607  11.101
54187W        W25858  27.513  20.498  13.322
54188W        W25859  23.902  26.682  12.056
54189W        W25860  34.960  41.052   2.002
54190W        W25861   0.998  39.017   3.626
54191W        W25862   0.978  44.454  13.720
54192W        W25863  36.541  44.028  12.598
54193W        W25864   0.435   3.429   2.474
54194W        W25865  14.631   0.976   1.834
54195W        W25866   1.178   1.377   4.195
54196W        W25867  39.931  19.198   3.318
54197W        W25868  24.377   1.562   1.436
54198W        W25869  39.855  28.722  13.056
54199W        W25870   2.516  40.765   1.403
54200W        W25871  26.501  23.051  14.837
54201W        W25872   2.241  42.263   0.764
54202W        W25873  15.828  23.075   0.297
54203W        W25874  24.122   3.016   5.005
54204W        W25875  29.924  31.326   3.763
54205W        W25876  12.170  27.466   2.373
54206W        W25877  37.478  30.464  12.843
54207W        W25878  28.054  18.195   4.055
54208W        W25879  23.157   6.226  14.877
54209W        W25880  13.040   2.434  13.479
54210W        W25881  15.201  37.007   0.994
54211W        W25882  25.009   5.464  14.890
54212W        W25883  27.900   7.897  11.988
54213W        W25884   7.888  14.902   1.239
54214W        W25885  24.351  10.140  13.081
54215W        W25886   1.411   2.652  11.915
54216W        W25887  21.674  30.609  14.767
54217W        W25888  43.426  34.361   0.347
54218W        W25889  22.372  16.515   2.543
54219W        W25890  38.926  34.735  11.585
54220W        W25891   8.664  25.285  13.310
54221W        W25892  42.228  39.966  12.208
54222W        W25893  12.900   6.913   4.633
54223W        W25894  19.059  29.049   3.142
54224W        W25895  21.351  37.798  10.457
54225W        W25896   4.950  28.166   2.149
54226W        W25897  18.097   8.224   2.795
54227W        W25898  30.253  17.906  12.836
54228W        W25899  34.994  17.136   3.516
54229W        W25900  11.395  15.788   0.489
54230W        W25901  25.622  31.073   2.871
54231W        W25902  44.676  18.402  13.392
54232W        W25903  31.509  27.191  12.877
54233W        W25904  23.453   6.837  10.672
54234W        W25905  16.367  24.651   1.875
54235W        W25906  15.332   4.959   2.826
54236W        W25907  35.292  39.373   3.636
54237W        W25908   6.860  41.683   0.830
54238W        W25909   3.483   7.804  11.093
54239W        W25910  38.572  16.644   3.063
54240W        W25911  42.040  20.186  12.734
54241W        W25912  22.248  42.206   3.847
54242W        W25913  20.928  17.018  14.912
54243W        W25914  37.653  38.018  14.817
54244W        W25915  31.647   2.073  12.024
54245W        W25916   5.536   8.106   0.707
54246W        W25917  11.802  11.403  10.615
54247W        W25918   9.744  20.804   2.369
54248W        W25919  22.675  25.174   0.470
54249W        W25920  10.632   5.299  14.506
54250W        W25921  38.616  20.202  13.460
54251W        W25922  38.822  42.561   0.132
54252W        W25923  12.481  27.159   4.167
54253W        W25924   3.770  34.177  13.978
54254W        W25925   8.602  14.136  12.013
54255W        W25926  10.131  15.789  14.361
54256W        W25927   3.669  15.935   3.769
54257W        W25928  13.658   3.252  13.500
54258W        W25929  33.572  44.217   0.767
54259W        W25930  39.526  27.918   0.318
54260W        W25931  41.883   1.230   2.064
54261W        W25932  15.766  26.027  10.449
54262W        W25933  11.250   3.735   1.468
54263W        W25934  38.062  18.285   1.731
54264W        W25935   4.398  27.979   2.197
54265W        W25936  25.003   6.445   0.192
54266W        W25937  20.873  37.843   3.286
54267W        W25938  22.655  33.511   2.745
54268W        W25939  10.365   2.552   4.558
54269W        W25940  27.470  38.388  13.353
54270W        W25941  31.598  27.753  14.173
54271W        W25942  21.500  31.154  13.270
54272W        W25943  15.393  41.265  13.067
54273W        W25944  29.135   3.231  13.143
54274W        W25945   0.656  13.162  13.565
54275W        W25946  34.350  11.254  12.471
54276W        W25947   7.744  29.467  13.569
54277W        W25948  42.970  34.572   4.596
54278W        W25949  13.697  36.230   3.464
54279W        W25950  23.008   3.480   4.095
54280W        W25951  25.137  40.085  10.685
54281W        W25952  19.203   3.408   2.662
54282W        W25953  33.592  30.585   2.002
54283W        W25954  31.875  27.130   3.670
54284W        W25955  11.835  39.297  12.445
54285W        W25956  43.455  13.766   4.972
54286W        W25957  35.427   4.745  14.685
54287W        W25958  20.465  36.837   4.184
54288W        W25959  39.362   3.541   4.209
54289W        W25960   9.749  26.846   0.312
54290W        W25961  31.915  25.637  10.272
54291W        W25962  39.951   3.373   2.661
54292W        W25963  12.317  40.322  11.375
54293W        W25964   9.581   9.092  14.111
54294W        W25965  36.969   9.433   3.772
54295W        W25966  29.412   9.715  10.205
54296W        W25967  22.555  27.071  12.031
54297W        W25968  28.023   0.107   0.691
54298W        W25969  39.149  34.500  11.986
54299W        W25970  38.948  10.195   3.258
54300W        W25971   9.968   5.193  14.979
54301W        W25972  41.777   4.279  12.379
54302W        W25973  29.679  31.350  13.090
54303W        W25974  26.649  17.597  12.850
54304W        W25975  11.371  33.105   2.215
54305W        W25976  42.919  11.799   4.088
54306W        W25977  34.334  37.515  13.752
54307W        W25978  25.984  25.752   1.609
54308W        W25979  31.098  26.491  13.247
54309W        W25980  29.178   0.743   4.530
54310W        W25981  30.067  22.252   2.305
54311W        W25982   8.877  32.404   4.562
54312W        W25983  33.605  22.641  12.440
54313W        W25984  42.324  26.013   1.281
54314W        W25985  25.356  29.516   3.917
54315W        W25986   7.752  42.000  12.029
54316W        W25987  17.253  41.456  10.649
54317W        W25988  32.358  27.978   1.180
54318W        W25989   7.389   6.482  11.180
54319W        W25990  30.019  11.883   1.165
54320W        W25991  36.565  37.781   2.020
54321W        W25992  10.860  34.904   3.213
54322W        W25993  20.063  39.313  12.464
54323W        W25994  16.746  15.674  13.312
54324W        W25995   6.402  33.987   1.530
54325W        W25996  33.911  39.574  13.691
54326W        W25997   3.255  18.167   2.910
54327W        W25998  42.958  18.584   3.736
54328W        W25999  25.049  19.117   3.662
54329W        W26000  32.978  12.726   3.048
54330W        W26001  11.801  28.395  14.950
54331W        W26002  38.991  20.152   4.187
54332W        W26003  42.148  17.555   2.407
54333W        W26004  34.155  42.554   2.158
54334W        W26005   4.460  34.859   3.597
54335W        W26006  35.688  24.673  14.001
54336W        W26007  29.455  17.323   5.213
54337W        W26008   4.621  24.177  14.382
54338W        W26009  35.568  40.053  14.862
54339W        W26010   4.478   4.413   1.842
54340W        W26011  39.549  19.314   4.834
54341W        W26012  41.498  38.025   4.144
54342W        W26013  16.854  38.309   3.415
54343W        W26014  22.793  35.924   0.118
54344W        W26015  17.762  31.426   0.615
54345W        W26016  26.517  19.023  14.745
54346W        W26017   5.649  31.981   3.363
54347W        W26018  35.011  39.696   5.164
54348W        W26019  41.145  44.792  11.971
54349W        W26020   0.999  22.934   0.966
54350W        W26021  40.321  17.244  10.238
54351W        W26022  41.969  28.697  12.537
54352W        W26023  33.552  25.194  12.388
54353W        W26024   2.794   1.998   3.219
54354W        W26025  39.909  32.813  10.694
54355W        W26026  33.653  16.249   3.671
54356W        W26027  12.160   6.801   2.188
54357W        W26028  26.558  33.599  14.998
54358W        W26029  43.676   1.753   0.091
54359W        W26030   8.332   3.850  13.977
54360W        W26031  28.117  14.653  11.586
54361W        W26032  44.182   0.000  11.930
54362W        W26033   2.719  22.238  11.115
54363W        W26034  13.343  25.136  12.462
54364W        W26035  21.239  24.586   1.416
54365W        W26036  44.114  30.616  11.116
54366W        W26037   3.336  26.630   0.960
54367W        W26038  29.720  27.484   4.390
54368W        W26039  24.694  43.509   3.881
54369W        W26040  36.765  35.166  11.017
54370W        W26041  16.988  43.771  14.461
54371W        W26042  11.927  30.534   0.759
54372W        W26043  41.456   7.347  12.342
54373W        W26044  21.153  17.497  14.971
54374W        W26045   8.818  24.554   0.578
54375W        W26046  15.708  22.960   3.326
54376W        W26047   2.526  37.404   5.086
54377W        W26048   6.429   4.708   4.045
54378W        W26049  44.963   1.324   3.091
54379W        W26050  34.985   2.075   1.257
54380W        W26051  17.384   3.217  13.472
54381W        W26052   9.383   2.809  13.279
54382W        W26053  33.213   1.292   4.271
54383W        W26054  37.036   3.245   2.248
54384W        W26055  13.213   5.311  14.536
54385W        W26056  12.087  15.229   0.197
54386W        W26057   3.885   6.284   1.905
54387W        W26058  44.927  19.822  11.128
54388W        W26059  10.427   2.128   4.277
54389W        W26060  18.598  13.349  11.370
54390W        W26061  34.365   3.495  11.170
54391W        W26062  37.542  36.269  11.546
54392W        W26063  15.573  31.933   1.305
54393W        W26064  10.351  35.107  14.442
54394W        W26065  33.654  35.774   0.742
54395W        W26066  13.360  25.005   1.395
54396W        W26067  16.199  30.070   1.680
54397W        W26068  20.708  29.673   1.846
54398W        W26069  30.678   6.378  13.209
54399W        W26070  14.595  44.750  13.053
54400W        W26071   5.108  21.708   4.220
54401W        W26072  29.097  25.615   0.727
54402W        W26073   3.893  36.582   0.635
54403W        W26074  32.974  15.046   4.245
54404W        W26075  19.174  22.037   1.742
54405W        W26076  44.445  18.877   2.215
54406W        W26077  17.106  44.068  13.394
54407W        W26078   4.382  26.124  10.331
54408W        W26079  17.572  15.760  10.673
54409W        W26080  30.475   5.638   0.264
54410W        W26081  27.307  18.780  11.879
54411W        W26082   6.279  22.043  12.285
54412W        W26083  31.515  42.375  13.463
54413W        W26084  19.910  22.000   4.692
54414W        W26085   7.538   6.166   4.121
54415W        W26086  43.442  27.708  13.382
54416W        W26087  25.668   0.231   2.711
54417W        W26088  22.130  29.628   2.435
54418W        W26089  35.610   4.848  11.615
54419W        W26090  13.110  14.347  14.877
54420W        W26091  29.172  30.714  14.460
54421W        W26092  36.397  19.684   1.661
54422W        W26093  12.255  28.599   3.032
54423W        W26094  27.056  27.953  12.556
54424W        W26095   7.062  31.561   0.306
54425W        W26096  26.772  22.627  14.933
54426W        W26097  44.128   1.253  11.560
54427W        W26098  25.763  29.198  14.242
54428W        W26099  14.719  24.093   1.722
54429W        W26100  26.602  36.759  13.420
54430W        W26101   2.132   3.724   1.453
54431W        W26102  29.941  18.673   0.530
54432W        W26103  39.090  20.071   3.234
54433W        W26104   0.757  20.132   2.641
54434W        W26105  30.415  11.738   3.814
54435W        W26106  25.513  13.596   4.792
54436W        W26107  32.109   0.779  11.383
54437W        W26108  34.384  11.810   4.379
54438W        W26109   8.635  39.724   2.792
54439W        W26110  22.718  16.779   3.293
54440W        W26111  24.527   5.409   4.699
54441W        W26112  10.238  16.337   0.225
54442W        W26113  29.055  29.972  10.488
54443W        W26114  10.682  31.622   0.850
54444W        W26115  29.342  11.051   2.235
54445W        W26116  23.221  25.965   3.448
54446W        W26117  29.900  33.845  12.517
54447W        W26118  28.090  33.800   5.194
54448W        W26119  13.326  24.574  11.260
54449W        W26120   3.396  13.898   0.993
54450W        W26121  27.079  21.981  11.675
54451W        W26122   8.808  43.513   0.753
54452W        W26123   6.308  13.283   1.219
54453W        W26124   1.312  36.785   2.850
54454W        W26125   8.131   3.735   1.793
54455W        W26126  25.994  10.020   4.418
54456W        W26127  24.988  21.657   3.676
54457W        W26128  19.144  34.355  12.538
54458W        W26129  34.662  36.152   1.561
54459W        W26130  11.722  13.837   1.445
54460W        W26131   3.425  14.311  14.688
54461W        W26132   3.281   0.566  13.517
54462W        W26133  40.365  27.424  14.175
54463W        W26134  30.362  18.490  10.696
54464W        W26135  37.265  38.303   0.740
54465W        W26136  28.548  15.175  12.482
54466W        W26137  28.130  16.978   2.303
54467W        W26138   7.926  16.010  12.570
54468W        W26139  37.598  29.893   0.277
54469W        W26140  43.661   4.234  14.950
54470W        W26141  12.997   0.610   2.366
54471W        W26142   2.472  23.491  14.792
54472W        W26143   5.859  29.469   4.166
54473W        W26144  29.665  13.597   1.338
54474W        W26145  13.817  29.520  11.752
54475W        W26146  16.472   6.054  12.732
54476W        W26147  33.340  16.598  12.920
54477W        W26148  29.856  19.355   0.734
54478W        W26149  20.578  32.290  10.188
54479W        W26150  25.030  33.888   2.672
54480W        W26151   2.528  17.473   1.808
54481W        W26152  39.751  19.839   1.570
54482W        W26153  36.074  44.569   2.065
54483W        W26154  36.479   8.357  12.092
54484W        W26155  39.055  19.726  10.677
54485W        W26156  14.852  27.492   1.963
54486W        W26157   6.210  12.377   0.382
54487W        W26158   9.551  37.312  11.927
54488W        W26159  22.350   5.412   1.136
54489W        W26160  18.777   9.273  12.478
54490W        W26161   4.446   4.753   3.437
54491W        W26162  34.949   4.336  13.174
54492W        W26163   0.954  32.254   0.877
54493W        W26164   1.244   9.207  12.998
54494W        W26165   6.705  17.252   1.457
54495W        W26166  40.368  34.095   1.839
54496W        W26167   5.113   1.170  13.787
54497W        W26168  28.104  33.433  10.623
54498W        W26169   3.437  20.547   5.131
54499W        W26170   2.546  25.579   4.598
54500W        W26171  27.010  36.798  11.970
54501W        W26172  30.413  29.412  10.826
54502W        W26173  14.677  32.503  10.710
54503W        W26174  20.199  21.126   2.369
54504W        W26175   0.350   5.951   3.727
54505W        W26176  15.243  44.275   2.072
54506W        W26177  23.173  35.006   1.182
54507W        W26178  37.384  30.041   3.324
54508W        W26179   4.789  18.686  11.520
54509W        W26180  36.101  27.867   2.890
54510W        W26181  35.145  18.211  13.096
54511W        W26182  39.027  18.971  14.392
54512W        W26183  29.173  38.879  13.616
54513W        W26184  29.895  36.178  14.556
54514W        W26185  42.494  17.184   2.403
54515W        W26186  12.555  12.245  14.516
54516W        W26187  16.173  32.840  11.574
54517W        W26188  44.804  11.733  14.617
54518W        W26189  21.259  25.451  13.469
54519W        W26190  44.862  31.505   1.274
54520W        W26191  42.386  28.674   4.603
54521W        W26192   8.356  30.852  11.060
54522W        W26193  19.525   0.532  11.509
54523W        W26194  12.952  20.600  12.836
54524W        W26195  28.928  20.057  12.744
54525W        W26196  11.753  40.591   4.204
54526W        W26197   2.714   2.146   0.938
54527W        W26198  33.510   1.387  12.242
54528W        W26199   1.614  36.499   0.904
54529W        W26200   5.290  29.412   0.895
54530W        W26201  17.555  39.647   0.750
54531W        W26202  35.363  29.526  13.539
54532W        W26203  27.456  33.676   0.724
54533W        W26204  28.501  44.724  12.055
54534W        W26205   0.043  35.614   3.772
54535W        W26206  16.005   4.209   2.119
54536W        W26207  38.617  28.698   0.022
54537W        W26208  19.859  16.585  12.286
54538W        W26209  21.760  41.995   1.001
54539W        W26210  20.265  40.507   3.077
54540W        W26211  17.467   4.374   2.254
54541W        W26212   7.676   7.642   0.334
54542W        W26213  38.363  41.872  11.005
54543W        W26214  12.399  11.310   1.916
54544W        W26215  21.621   7.369  10.649
54545W        W26216  29.880  14.151   4.846
54546W        W26217  37.396  44.792   4.359
54547W        W26218  20.002  35.539   4.788
54548W        W26219  35.420  14.115  14.905
54549W        W26220   9.342  39.275  12.594
54550W        W26221  12.609  33.303   4.514
54551W        W26222  29.176  12.137  12.625
54552W        W26223  28.622   8.252   4.296
54553W        W26224   2.907  35.680   0.693
54554W        W26225  44.955  19.298  11.143
54555W        W26226  28.475  22.646   2.284
54556W        W26227   7.011   8.830  13.309
54557W        W26228  36.558  34.880   1.277
54558W        W26229   3.018  24.816   0.351
54559W        W26230  24.286  32.559   4.287
54560W        W26231  30.043  27.453  13.292
54561W        W26232  33.374  40.825   3.239
54562W        W26233  18.096  36.404   2.920
54563W        W26234  18.185  43.089  13.582
54564W        W26235   3.393  34.196   1.660
54565W        W26236   0.276   8.123   2.913
54566W        W26237  10.573  10.196   9.946
54567W        W26238   1.747  18.249  10.727
54568W        W26239  43.471  17.591  10.790
54569W        W26240  29.996  13.302  14.616
54570W        W26241  24.381  13.571   4.754
54571W        W26242  17.345   8.621   1.014
54572W        W26243  27.940  42.835  14.413
54573W        W26244  18.705  28.431   4.146
54574W        W26245  33.492  28.991  10.772
54575W        W26246  43.725  37.867  11.515
54576W        W26247  20.966  29.338   1.521
54577W        W26248  35.041  22.667   0.750
54578W        W26249  30.617  21.081   1.847
54579W        W26250  31.717  40.837  12.511
54580W        W26251  12.016   7.494  13.942
54581W        W26252   9.346   5.256   1.910
54582W        W26253   2.362  22.760  12.436
54583W        W26254   1.730  14.317   4.767
54584W        W26255  15.186  36.000   2.519
54585W        W26256  17.815  37.023  11.557
54586W        W26257   1.359  29.487  13.950
54587W        W26258   8.666  43.889   2.351
54588W        W26259  37.123  12.830   1.847
54589W        W26260  13.766  16.670   3.879
54590W        W26261  39.483  12.102  12.547
54591W        W26262  23.051  19.168  12.492
54592W        W26263  26.456  32.170   2.423
54593W        W26264  13.349  28.643  12.843
54594W        W26265  29.255  26.414  10.990
54595W        W26266   1.489  34.790  13.498
54596W        W26267  27.437  31.721   0.570
54597W        W26268  31.114  15.322  13.945
54598W        W26269  43.334  30.358   2.759
54599W        W26270  17.260   3.042   2.248
54600W        W26271  22.720  11.659  10.696
54601W        W26272  33.058  31.630  14.296
54602W        W26273  33.397  38.767   5.426
54603W        W26274   6.262  27.791   1.713
54604W        W26275  17.327  27.814   0.416
54605W        W26276  16.791  18.232   1.727
54606W        W26277  32.167  27.363  13.547
54607W        W26278  17.729  23.702  14.315
54608W        W26279  42.753  34.791   3.338
54609W        W26280  30.396  38.237  13.332
54610W        W26281  32.411  13.167  13.469
54611W        W26282  23.509  24.185  13.483
54612W        W26283  29.225   5.980  13.683
54613W        W26284  42.807   0.768  12.670
54614W        W26285  23.580  34.999  11.861
54615W        W26286  14.283  41.508  12.548
54616W        W26287  20.752  18.437  14.853
54617W        W26288  14.771   6.331   2.806
54618W        W26289  10.192  19.648  10.627
54619W        W26290  24.969  30.133   0.913
54620W        W26291  24.304  12.204   0.875
54621W        W26292  24.595   4.563  14.887
54622W        W26293  15.666  41.298   2.461
54623W        W26294  13.328  38.919  14.573
54624W        W26295  32.860  10.190  13.353
54625W        W26296   2.739  29.027   2.278
54626W        W26297  16.760  26.604   0.415
54627W        W26298  33.557   7.099   3.782
54628W        W26299  21.585   8.235   1.663
54629W        W26300  28.706  17.659  10.758
54630W        W26301  12.680  44.053   4.507
54631W        W26302  28.528   1.878  14.267
54632W        W26303   7.946  30.533   2.305
54633W        W26304  42.248   4.459   2.378
54634W        W26305   2.020  23.264  10.977
54635W        W26306  21.240  34.879   1.465
54636W        W26307  10.950   2.528   0.947
54637W        W26308  28.697  41.396   3.568
54638W        W26309  29.880  33.161  10.738
54639W        W26310  25.551   7.738  10.801
54640W        W26311  23.651  24.497   0.968
54641W        W26312   1.221  18.375  11.081
54642W        W26313  14.618  32.926   3.753
54643W        W26314  22.096   1.232  12.922
54644W        W26315  12.053  30.518  11.582
54645W        W26316  40.335  18.652  11.511
54646W        W26317   5.289  19.641   1.336
54647W        W26318  10.155  37.378   4.207
54648W        W26319  16.926   4.415  13.637
54649W        W26320  27.742  21.611  12.415
54650W        W26321  14.419  41.061   1.403
54651W        W26322   0.253  13.731  14.815
54652W        W26323  10.227  34.793   2.697
54653W        W26324  43.492  41.255   0.333
54654W        W26325  29.613  33.412   0.156
54655W        W26326  22.212  35.464  14.582
54656W        W26327  11.661  31.918  13.278
54657W        W26328   6.719  26.069   4.000
54658W        W26329  40.619  35.626  13.938
54659W        W26330  16.332  30.213   0.342
54660W        W26331  31.159  26.253  14.973
54661W        W26332  20.522  28.020  13.505
54662W        W26333  13.400   5.966  12.473
54663W        W26334  40.962  44.344  12.106
54664W        W26335  20.823  38.331  12.992
54665W        W26336  18.438   6.086  10.340
54666W        W26337   5.286  20.234  11.670
54667W        W26338  13.348  39.398   0.336
54668W        W26339   8.582  44.861   2.449
54669W        W26340  13.305  28.505   4.335
54670W        W26341   3.038   7.016   0.765
54671W        W26342  18.792  28.478   1.284
54672W        W26343  43.965  21.460  13.436
54673W        W26344  36.837  24.049  14.521
54674W        W26345  24.078  41.476  14.484
54675W        W26346  18.665  43.752   3.320
54676W        W26347  26.552  29.355  14.051
54677W        W26348  27.711   1.984   1.192
54678W        W26349   9.814  26.713   4.204
54679W        W26350   9.323   2.316   0.373
54680W        W26351  19.185  14.575  11.069
54681W        W26352  41.438  36.597  14.240
54682W        W26353  28.184   4.515   2.381
54683W        W26354  42.759   5.376  13.690
54684W        W26355  38.499   9.325  13.546
54685W        W26356  42.730  41.932  10.975
54686W        W26357  23.811   0.965  14.420
54687W        W26358  16.585   8.884   3.177
54688W        W26359   7.746  18.330   2.803
54689W        W26360  15.718   6.179   3.219
54690W        W26361  21.740  35.047  13.017
54691W        W26362  33.443  16.663  10.692
54692W        W26363  15.540  32.434  12.017
54693W        W26364   1.959   6.885   1.102
54694W        W26365  42.540  38.158   5.381
54695W        W26366  15.071  41.478  13.948
54696W        W26367  42.271  39.885   3.205
54697W        W26368  11.889  43.027   2.964
54698W        W26369  27.651  19.611  12.490
54699W        W26370  10.939  44.984  11.236
54700W        W26371  34.064   2.684  13.933
54701W        W26372   7.319  40.222   0.718
54702W        W26373  24.202  44.099  13.858
54703W        W26374  28.885  18.751   1.919
54704W        W26375  36.836  20.030  14.979
54705W        W26376  31.570  15.076  10.905
54706W        W26377  31.907  38.998   3.332
54707W        W26378  20.809  37.608  13.444
54708W        W26379  22.586  26.918  11.486
54709W        W26380  19.229   2.408   4.840
54710W        W26381  27.696  30.800   0.217
54711W        W26382  27.523  39.003   4.750
54712W        W26383  43.356   4.651  14.951
54713W        W26384  14.130  32.908   1.517
54714W        W26385  25.629   7.960   3.845
54715W        W26386   0.907  34.517   4.254
54716W        W26387   7.937  44.091   1.926
54717W        W26388  31.985  29.816   2.126
54718W        W26389  25.581   6.284  11.466
54719W        W26390   9.861  29.149   1.687
54720W        W26391  40.520  40.219   2.437
54721W        W26392   7.937  25.466  11.920
54722W        W26393  15.137  19.489   3.991
54723W        W26394  32.799  10.444  11.262
54724W        W26395   8.760  16.646   0.738
54725W        W26396  35.331  35.867  10.137
54726W        W26397  37.507  19.539  13.400
54727W        W26398   9.082  29.204  14.806
54728W        W26399  11.573  38.517   1.256
54729W        W26400  21.795  22.328  14.038
54730W        W26401  26.235  38.902  11.176
54731W        W26402  22.631   5.287   2.729
54732W        W26403  12.879  13.689  13.886
54733W        W26404  40.847   5.198   0.858
54734W        W26405  32.940  26.173   4.877
54735W        W26406  28.386  43.854  14.578
54736W        W26407  32.062  20.177   0.290
54737W        W26408  39.949   1.912  13.553
54738W        W26409   8.452  24.569  12.043
54739W        W26410  41.845  36.751   4.145
54740W        W26411  11.681   5.725   1.824
54741W        W26412  24.421  18.524  14.749
54742W        W26413  30.288  10.942   4.603
54743W        W26414  21.582  39.942   5.171
54744W        W26415  41.787   1.338   2.695
54745W        W26416   8.647  19.972  13.952
54746W        W26417  33.002  23.126   1.910
54747W        W26418  31.610  31.964   3.648
54748W        W26419  31.948  11.869  11.951
54749W        W26420  21.117   0.751   3.668
54750W        W26421  11.388  19.261   2.704
54751W        W26422  39.402  21.031  14.971
54752W        W26423  34.969  16.810  10.730
54753W        W26424   1.390   4.190   3.499
54754W        W26425  17.616   0.701  13.060
54755W        W26426   9.846  10.684   2.097
54756W        W26427  40.683  41.820   1.380
54757W        W26428  39.797  40.790   4.149
54758W        W26429  33.160   1.308   0.993
54759W        W26430   7.800  12.819   0.216
54760W        W26431   4.209  31.134  14.065
54761W        W26432  37.974  24.708   1.584
54762W        W26433  22.430   8.756  10.671
54763W        W26434  21.786  34.369   3.342
54764W        W26435  29.288   3.229   0.333
54765W        W26436   3.265  22.571   0.944
54766W        W26437  25.698  10.803  14.078
54767W        W26438   2.741  20.007  11.477
54768W        W26439  31.210   6.973  13.810
54769W        W26440  25.575  36.849  13.104
54770W        W26441  10.373   5.140   1.663
54771W        W26442  26.085   8.730  13.653
54772W        W26443  20.265  19.040   3.588
54773W        W26444  41.855  15.830   2.817
54774W        W26445  28.728  22.602  14.722
54775W        W26446  35.096  22.999  12.081
54776W        W26447  14.263  23.238   4.317
54777W        W26448  15.133  20.248   1.170
54778W        W26449  43.986  36.332   1.963
54779W        W26450  31.892  18.310  11.459
54780W        W26451  35.525  22.226  12.890
54781W        W26452   1.942  30.577   4.196
54782W        W26453  10.542  17.049  12.681
54783W        W26454  23.155  25.814   4.930
54784W        W26455   0.978  24.050   5.056
54785W        W26456  10.291  21.020  10.606
54786W        W26457  38.872   3.882   4.100
54787W        W26458  31.603  15.217  13.384
54788W        W26459  37.048  13.793  13.621
54789W        W26460  28.621  43.835   4.662
54790W        W26461  16.031  40.731  12.559
54791W        W26462  31.466   9.987   2.770
54792W        W26463   1.388  17.998   3.837
54793W        W26464   5.526  18.992  14.759
54794W        W26465  12.764  33.180   2.741
54795W        W26466   9.695  20.239  13.868
54796W        W26467  40.397   7.151  11.206
54797W        W26468  40.579  31.540  11.394
54798W        W26469  17.186  13.451   5.382
54799W        W26470  27.616  38.860   3.281
54800W        W26471  25.420  29.017  13.366
54801W        W26472  37.704   2.083   5.024
54802W        W26473  16.859   9.464   2.964
54803W        W26474  12.382  17.799   0.934
54804W        W26475   4.560  39.160  11.605
54805W        W26476  14.693  30.922  11.877
54806W        W26477  31.414  11.849   0.269
54807W        W26478  11.334  12.077  14.933
54808W        W26479   1.471  34.515  12.365
54809W        W26480  29.078  17.327  13.404
54810W        W26481  24.766  13.721  13.556
54811W        W26482  12.560  39.142   4.367
54812W        W26483  41.751   0.095   2.174
54813W        W26484  27.245   0.859  12.350
54814W        W26485  10.556  40.468   2.909
54815W        W26486  33.890  27.714  13.099
54816W        W26487  25.033  18.088  11.484
54817W        W26488   1.942   9.428   1.581
54818W        W26489  14.160  15.148   3.121
54819W        W26490  41.787   5.473  13.817
54820W        W26491   1.442   3.062   0.235
54821W        W26492  13.572  33.947  10.713
54822W        W26493  29.896   7.227  14.370
54823W        W26494  26.476  26.991   2.476
54824W        W26495   5.479   1.521  12.924
54825W        W26496  24.451  34.119   2.426
54826W        W26497  44.742   6.723   2.749
54827W        W26498  21.746   6.737   4.071
54828W        W26499  15.159  35.294   0.248
54829W        W26500   3.736  43.933  13.460
54830W        W26501  22.089  31.955  14.730
54831W        W26502  18.730   1.501  14.506
54832W        W26503  30.720   2.058   3.216
54833W        W26504  22.092  13.256   3.119
54834W        W26505   9.398  40.077   3.219
54835W        W26506   5.377  27.431  14.427
54836W        W26507  33.154  11.172  11.598
54837W        W26508  35.308  25.620   0.262
54838W        W26509  39.407  18.230   3.690
54839W        W26510  11.783  31.973  10.706
54840W        W26511  40.942  18.787  14.376
54841W        W26512  38.631  32.919   4.253
54842W        W26513  21.768  39.865   2.314
54843W        W26514   8.333  40.036   4.115
54844W        W26515  14.863  34.613   2.702
54845W        W26516  14.132  36.881   0.869
54846W        W26517  18.804  17.796   1.751
54847W        W26518  43.841  14.679  10.048
54848W        W26519  18.563   6.966  11.175
54849W        W26520  25.331  34.503  11.058
54850W        W26521  36.371  34.385  13.915
54851W        W26522  35.094  12.302   3.163
54852W        W26523  39.439   8.717   2.033
54853W        W26524  28.901  30.397  14.026
54854W        W26525  37.231  33.416   0.881
54855W        W26526  29.659  29.099  13.068
54856W        W26527  23.043  19.229  11.086
54857W        W26528  41.584  39.816  12.828
54858W        W26529  20.065  15.245  12.046
54859W        W26530  39.458  33.015  10.858
54860W        W26531   4.042  20.690  13.354
54861W        W26532  42.203  37.988  13.648
54862W        W26533  41.492  41.323  13.833
54863W        W26534  18.669  37.568   0.791
54864W        W26535  44.846  40.591   4.597
54865W        W26536   8.235  36.121  12.704
54866W        W26537   0.935   0.041   3.192
54867W        W26538   4.702  33.739   3.219
54868W        W26539   2.257  31.522  10.748
54869W        W26540  18.970  14.580  14.496
54870W        W26541  27.644  15.683  12.938
54871W        W26542  30.945  19.890  10.750
54872W        W26543   8.465  42.723   4.426
54873W        W26544   3.325  33.545  11.667
54874W        W26545  40.867  38.800  12.647
54875W        W26546  12.495  23.149   2.975
54876W        W26547  29.450   4.660   4.970
54877W        W26548   6.622  44.213   4.005
54878W        W26549  38.854   2.771   4.463
54879W        W26550   4.784   8.348   0.645
54880W        W26551  30.021  30.538   4.342
54881W        W26552  29.647   4.035   2.308
54882W        W26553  38.602  38.256  14.969
54883W        W26554   2.645  13.568  14.333
54884W        W26555   5.843  35.192  11.445
54885W        W26556  30.068  28.898   0.444
54886W        W26557  42.298  28.193  13.402
54887W        W26558  20.915  28.249   2.862
54888W        W26559  19.024   2.054   3.172
54889W        W26560   9.598  22.102  12.913
54890W        W26561  22.133   6.752  11.660
54891W        W26562  21.688  17.538   3.802
54892W        W26563   3.802  19.546  11.935
54893W        W26564  14.163  33.358   0.933
54894W        W26565  26.581   0.581   0.249
54895W        W26566  33.081  19.168  13.472
54896W        W26567  12.103   1.422  13.966
54897W        W26568  18.029  23.154   1.549
54898W        W26569   8.234  41.276  11.247
54899W        W26570  25.198  13.675   0.929
54900W        W26571  27.931  11.711   0.567
54901W        W26572  30.200  13.703  13.380
54902W        W26573  36.098   7.191  13.172
54903W        W26574  20.238  42.955  10.840
54904W        W26575  24.878  16.234   3.192
54905W        W26576  26.619  41.194  13.937
54906W        W26577  17.129  33.679  13.062
54907W        W26578  28.068   5.046  10.368
54908W        W26579  13.185  13.625  12.283
54909W        W26580  36.273  38.013   3.572
54910W        W26581   2.429   3.993  13.970
54911W        W26582   8.652   0.222   0.492
54912W        W26583  35.805  39.447   3.677
54913W        W26584  23.779  44.839  12.051
54914W        W26585  32.470  37.534   2.400
54915W        W26586  10.727   5.713  14.191
54916W        W26587  12.869  29.801   3.674
54917W        W26588  22.469  17.130   2.350
54918W        W26589  20.306  10.203   2.682
54919W        W26590  10.693   6.148   4.259
54920W        W26591   1.633  31.569  14.197
54921W        W26592   5.474  20.425  14.987
54922W        W26593  12.295   2.719   2.809
54923W        W26594  33.168   8.713  14.459
54924W        W26595  27.079  40.516   0.989
54925W        W26596   4.405  42.510   3.829
54926W        W26597  44.396  22.269  13.381
54927W        W26598  20.122  10.550   0.488
54928W        W26599   3.639  41.208  13.812
54929W        W26600   7.750  12.634  13.051
54930W        W26601  38.975   3.268   3.650
54931W        W26602  32.554  29.270  12.143
54932W        W26603  29.440   6.234   5.017
54933W        W26604   5.911   7.948  12.544
54934W        W26605  40.816   3.892   1.393
54935W        W26606  24.971  28.111  13.553
54936W        W26607   5.310  30.930   1.826
54937W        W26608   9.894  32.897  13.802
54938W        W26609  26.797  40.815   0.679
54939W        W26610  40.542  18.212  10.722
54940W        W26611  32.163  28.131   1.634
54941W        W26612   9.473  25.534  13.837
54942W        W26613   6.340  28.661  11.529
54943W        W26614   1.281  36.402   4.687
54944W        W26615   9.851  24.797  11.945
54945W        W26616  42.801   0.394   3.705
54946W        W26617  40.745   3.172   4.167
54947W        W26618   9.922  36.353   2.138
54948W        W26619  30.172  18.065   0.292
54949W        W26620  44.386   9.311   1.912
54950W        W26621   0.991  28.199  14.494
54951W        W26622  39.935  21.895   1.360
54952W        W26623   9.285  40.544  11.722
54953W        W26624   3.189  31.915   1.251
54954W        W26625   5.244  24.149  12.541
54955W        W26626  24.449   4.201  12.697
54956W        W26627  41.268  39.597   0.820
54957W        W26628  43.998  40.533  12.038
54958W        W26629  35.801  42.382  14.312
54959W        W26630  26.885  40.090  14.412
54960W        W26631  41.145  43.171  14.409
54961W        W26632  13.188  33.566  10.004
54962W        W26633   5.343   2.548   2.268
54963W        W26634  29.732  23.061   4.537
54964W        W26635   7.105   6.197   2.788
54965W        W26636   0.972  15.202  13.424
54966W        W26637  34.569   0.889  14.191
54967W        W26638  34.106  11.587   2.147
54968W        W26639  16.604  41.520   4.229
54969W        W26640  38.802   9.396  14.950
54970W        W26641   6.362  31.065  12.546
54971W        W26642   4.233  14.016  11.156
54972W        W26643  31.175  17.555   3.276
54973W        W26644   0.825   4.663  14.426
54974W        W26645  21.861  35.407  13.959
54975W        W26646  35.836   8.453  11.109
54976W        W26647  20.368  24.058  10.385
54977W        W26648  12.298  30.300   2.481
54978W        W26649  39.340  15.183  13.616
54979W        W26650  32.027   7.416  14.890
54980W        W26651   0.022  18.814  13.313
54981W        W26652  14.621  39.368  12.140
54982W        W26653   0.176   2.540   2.018
54983W        W26654  24.754  40.836   2.232
54984W        W26655  37.930  16.731   2.682
54985W        W26656  30.189   9.342   1.878
54986W        W26657   0.278  17.729  10.504
54987W        W26658  36.611  34.949   0.398
54988W        W26659  35.510  21.240  13.452
54989W        W26660   4.609  15.761  12.067
54990W        W26661   3.332  27.955  13.411
54991W        W26662  21.503   0.183  11.645
54992W        W26663  39.102  28.890  11.164
54993W        W26664   6.489   0.436   0.234
54994W        W26665  36.534  32.889  14.334
54995W        W26666  26.061   9.936  10.597
54996W        W26667  12.252  17.887  13.037
54997W        W26668  28.907  10.147  12.053
54998W        W26669   1.488  17.804  13.285
54999W        W26670  32.022   0.878   1.760
55000W        W26671   6.708  14.839  13.699
55001W        W26672   6.228  43.412   3.990
55002W        W26673  11.464  28.995   1.239
55003W        W26674  28.453  34.695  10.633
55004W        W26675  39.478  29.457  14.502
55005W        W26676  19.092  32.826   4.914
55006W        W26677  43.562   8.608  11.038
55007W        W26678  24.021  29.414  14.451
55008W        W26679   6.957  12.391  14.741
55009W        W26680  18.362  31.043   0.768
55010W        W26681  16.731  39.028   0.309
55011W        W26682  37.176  31.662  12.680
55012W        W26683  41.150  40.463  14.763
55013W        W26684  29.632  29.211  11.216
55014W        W26685  40.952  31.380  11.704
55015W        W26686   4.448  43.943   1.502
55016W        W26687   6.673  15.567   0.002
55017W        W26688   1.597  30.058  11.045
55018W        W26689   2.431  27.446  10.563
55019W        W26690   6.442  44.854  11.012
55020W        W26691  18.754  17.073   1.294
55021W        W26692  43.334  15.564  10.584
55022W        W26693   2.291  22.014   4.214
55023W        W26694   0.895  24.377  13.877
55024W        W26695   9.730  11.021  10.716
55025W        W26696  41.618  21.710   2.031
55026W        W26697  14.152  30.078  14.831
55027W        W26698  14.869  37.548  13.904
55028W        W26699  44.958  44.941   4.318
55029W        W26700   1.104  36.447   0.798
55030W        W26701   8.635   4.264   3.973
55031W        W26702  12.832  34.277   1.806
55032W        W26703  28.613  38.859   1.295
55033W        W26704  19.048   0.337  11.436
55034W        W26705  25.084  18.480  14.335
55035W        W26706   4.034  14.790  12.749
55036W        W26707   9.879   4.891  14.302
55037W        W26708  11.059  30.463   4.643
55038W        W26709  20.009  39.065   3.939
55039W        W26710  14.804  33.177   4.160
55040W        W26711  23.038  16.048  10.665
55041W        W26712  41.383  41.454  13.314
55042W        W26713  28.036  14.746  13.411
55043W        W26714  17.430  21.028   4.076
55044W        W26715  24.757   0.144   1.043
55045W        W26716  38.471  30.041   3.421
55046W        W26717  24.605  13.829  12.711
55047W        W26718  43.353  31.819   0.264
55048W        W26719  34.462  24.004  12.202
55049W        W26720  23.522   1.854  14.042
55050W        W26721   3.814  30.856  14.242
55051W        W26722  15.195  19.575  14.782
55052W        W26723  32.279  11.850   3.304
55053W        W26724  41.790   8.870  11.611
55054W        W26725  14.504  27.201  11.137
55055W        W26726  23.483  17.875   4.197
55056W        W26727  20.550   3.156   1.929
55057W        W26728  14.311  20.973  10.451
55058W        W26729  44.290  42.084  10.691
55059W        W26730   7.471  20.583  14.111
55060W        W26731  34.995  18.575   0.263
55061W        W26732  34.408  33.588  12.948
55062W        W26733   7.352  37.105   2.012
55063W        W26734  30.664  32.592   2.453
55064W        W26735  22.399   6.222   2.219
55065W        W26736   7.220  38.760  13.180
55066W        W26737   8.859  33.988   4.638
55067W        W26738   2.394   3.679   1.919
55068W        W26739   7.164  24.068   0.966
55069W        W26740  31.954  43.058   1.469
55070W        W26741  27.422  32.153  14.820
55071W        W26742  11.338   6.290   4.654
55072W        W26743  22.179  30.460  14.953
55073W        W26744  34.459  36.770  11.528
55074W        W26745   2.894  12.026  12.394
55075W        W26746  30.556  19.018   4.354
55076W        W26747  12.516  14.786   0.390
55077W        W26748  44.242  24.898   3.745
55078W        W26749   2.542   6.156  14.445
55079W        W26750  14.588  26.970  13.898
55080W        W26751  41.477   5.299  10.928
55081W        W26752   1.392  19.574   3.193
55082W        W26753  35.102  33.837   4.875
55083W        W26754  16.429  35.957   3.186
55084W        W26755  34.459  22.969   4.326
55085W        W26756   3.262  13.092  11.080
55086W        W26757   0.226  35.456  11.243
55087W        W26758  41.443  39.037   0.823
55088W        W26759  34.891  18.251   1.915
55089W        W26760  33.073  43.940  10.978
55090W        W26761  37.574  35.344  13.318
55091W        W26762  28.377  32.131   2.122
55092W        W26763  33.301   0.752   5.145
55093W        W26764  20.688  14.095   0.789
55094W        W26765  39.922   5.740   1.012
55095W        W26766  40.478  23.813   4.735
55096W        W26767  19.146  28.459  13.441
55097W        W26768  15.186   4.923   3.324
55098W        W26769  33.703   1.829  13.068
55099W        W26770  32.083   3.723  14.244
55100W        W26771  32.126  31.412  14.101
55101W        W26772  38.852   6.213   1.218
55102W        W26773   9.197  29.952   0.884
55103W        W26774  29.241  19.070   3.233
55104W        W26775  31.125  20.744  14.341
55105W        W26776  41.817  40.922   3.990
55106W        W26777  31.397  26.224   2.680
55107W        W26778  34.459   7.296   4.318
55108W        W26779  28.684  28.988  14.478
55109W        W26780  18.574  34.622  14.851
55110W        W26781   2.985  29.836   3.623
55111W        W26782  12.299   3.244   3.857
55112W        W26783  41.818  21.082  13.940
55113W        W26784  30.340   5.812   4.640
55114W        W26785  18.650  21.463   2.389
55115W        W26786  21.598  23.770  12.437
55116W        W26787  26.999   8.040   2.333
55117W        W26788   0.947  25.052   4.085
55118W        W26789   3.276   6.394   5.002
55119W        W26790  27.235  14.368  11.035
55120W        W26791  24.466   0.428  14.343
55121W        W26792  41.000   1.093  10.630
55122W        W26793  19.758  39.261  12.885
55123W        W26794  20.671   2.643  12.903
55124W        W26795  17.289   6.851  10.970
55125W        W26796  40.694  30.875   3.801
55126W        W26797  40.780  38.554   0.403
55127W        W26798   9.667   4.752  12.528
55128W        W26799   6.916  14.838   0.480
55129W        W26800  39.033  40.066  13.306
55130W        W26801  39.370  23.019  12.859
55131W        W26802   1.598  43.474   3.372
55132W        W26803  27.961  29.157   0.533
55133W        W26804  11.239   3.720  11.618
55134W        W26805  38.234  41.913  13.057
55135W        W26806   0.740  36.843  11.225
55136W        W26807   7.249  44.156  12.116
55137W        W26808  41.912  27.752   1.373
55138W        W26809  11.205   1.202   4.522
55139W        W26810  41.788  43.464   0.845
55140W        W26811   4.968  17.106   1.858
55141W        W26812  18.667  32.340   0.758
55142W        W26813  20.092  10.210  11.132
55143W        W26814   3.937  35.136   0.840
55144W        W26815  34.782  11.748  11.138
55145W        W26816  44.554  10.225  14.988
55146W        W26817  25.287   2.851  12.559
55147W        W26818  14.589  36.068   3.836
55148W        W26819   6.700  31.396  11.475
55149W        W26820  39.812  22.410  12.367
55150W        W26821  19.407   1.957   3.500
55151W        W26822  27.901   2.919  12.427
55152W        W26823  42.299  30.106   0.437
55153W        W26824   3.325  15.685  13.315
55154W        W26825  19.333  32.445   4.624
55155W        W26826  21.788  41.241  10.702
55156W        W26827  24.562   2.688   4.186
55157W        W26828  10.795   2.836   4.666
55158W        W26829  17.189  23.085  11.448
55159W        W26830  40.486  21.317   0.577
55160W        W26831  42.528  43.448   0.164
55161W        W26832   9.443  12.227   1.389
55162W        W26833  13.072  41.224   1.708
55163W        W26834  25.542  10.821  10.653
55164W        W26835  31.502  10.180   0.514
55165W        W26836  19.021   6.742  11.399
55166W        W26837  14.663  28.650  10.778
55167W        W26838  15.678  40.998   0.154
55168W        W26839  35.451   2.545  14.113
55169W        W26840   2.830  10.493  13.387
55170W        W26841   5.907  30.037  10.829
55171W        W26842  32.124  29.861  11.507
55172W        W26843   1.396  30.080  13.025
55173W        W26844  40.319  21.994  10.732
55174W        W26845  43.962   7.707  14.601
55175W        W26846  25.594   5.282   0.389
55176W        W26847  12.841  20.038   1.008
55177W        W26848  16.834  27.727   0.488
55178W        W26849  35.364  27.431  14.320
55179W        W26850   7.682   6.746  14.051
55180W        W26851  30.683  39.533  11.226
55181W        W26852  21.047  21.091   3.782
55182W        W26853  21.340  23.537  12.027
55183W        W26854  29.159  19.005  12.565
55184W        W26855  43.840  42.934  13.522
55185W        W26856  24.696   0.638  14.827
55186W        W26857  38.026  31.193  12.907
55187W        W26858  39.044  38.891   3.309
55188W        W26859   6.221  32.618  11.439
55189W        W26860   1.459   5.567  11.479
55190W        W26861  19.277  28.592  14.351
55191W        W26862  44.718  10.683   1.255
55192W        W26863  13.846  33.972   4.414
55193W        W26864  22.732   9.684  14.387
55194W        W26865  39.898  39.125  10.838
55195W        W26866  32.581  35.841   0.446
55196W        W26867   8.610   1.631   3.239
55197W        W26868  35.939  22.899   2.388
55198W        W26869  20.322  14.663   0.748
55199W        W26870   7.492  31.771  12.940
55200W        W26871  13.137  38.446   4.382
55201W        W26872   9.712  15.001  12.583
55202W        W26873  18.340  22.572   3.610
55203W        W26874  13.241   2.860   2.608
55204W        W26875  22.350  43.099   3.884
55205W        W26876  10.720   7.297   1.680
55206W        W26877  36.496  10.990  13.405
55207W        W26878   6.199  28.067  12.904
55208W        W26879   2.754  16.856  12.081
55209W        W26880   0.926  23.528  10.089
55210W        W26881  17.636  34.368   2.428
55211W        W26882  42.832   6.141  10.673
55212W        W26883  41.516  23.417  10.735
55213W        W26884  18.181  14.106  12.561
55214W        W26885   9.065  36.624  14.237
55215W        W26886  23.744  19.778  14.280
55216W        W26887  28.096  41.836  11.479
55217W        W26888  34.175  34.320  12.420
55218W        W26889  35.876  36.377  12.496
55219W        W26890  29.493  31.750  12.582
55220W        W26891  17.694   8.401  13.438
55221W        W26892  21.337  30.954  14.511
55222W        W26893   1.395  37.128  11.522
55223W        W26894  27.217  11.912   4.661
55224W        W26895  17.823   7.907  13.507
55225W        W26896  17.847  39.424   3.474
55226W        W26897  30.454  20.018   4.177
55227W        W26898  10.562  14.908  12.740
55228W        W26899  27.978  32.960  14.994
55229W        W26900   1.861  17.045  13.809
55230W        W26901  28.387   0.802   1.403
55231W        W26902   6.102  35.050   4.547
55232W        W26903  16.721  27.479   1.808
55233W        W26904   4.844  22.142   1.881
55234W        W26905   9.643  11.198  11.947
55235W        W26906  15.418   4.798  10.132
55236W        W26907  32.693   1.771   3.323
55237W        W26908  27.661  24.718  13.959
55238W        W26909  17.029  31.160   4.904
55239W        W26910   2.830  15.292  10.361
55240W        W26911   9.182  17.190   1.777
55241W        W26912  31.596   0.426   3.289
55242W        W26913  32.079  13.818   0.389
55243W        W26914  17.168  42.084   1.059
55244W        W26915  21.530  18.530   4.699
55245W        W26916  11.663  22.023  14.526
55246W        W26917  42.343  35.012   2.641
55247W        W26918  21.660  31.160  14.857
55248W        W26919  37.811  28.114   0.867
55249W        W26920  44.933  26.612  13.368
55250W        W26921  42.850  37.853   1.655
55251W        W26922   5.007  22.919  10.123
55252W        W26923  14.449  22.151   1.154
55253W        W26924   2.400  10.167   4.663
55254W        W26925  10.278  11.302  10.551
55255W        W26926  30.565  18.107  14.033
55256W        W26927   0.939   0.447  12.415
55257W        W26928  30.167   0.924   0.200
55258W        W26929  20.159   5.864   1.855
55259W        W26930  25.462  18.089  12.992
55260W        W26931  33.716  38.459  11.604
55261W        W26932  40.751  18.201   2.828
55262W        W26933  33.422  35.633  12.506
55263W        W26934  20.445   7.311   4.555
55264W        W26935  24.163  33.424   3.360
55265W        W26936  14.302  12.921  12.431
55266W        W26937  10.648  35.963  10.216
55267W        W26938  34.455   5.793  14.782
55268W        W26939  32.301  27.456  11.510
55269W        W26940   9.413  39.014   2.817
55270W        W26941   4.374  10.956   1.458
55271W        W26942   5.297  12.782   4.113
55272W        W26943  17.551   9.320  11.560
55273W        W26944  22.745  31.999  12.474
55274W        W26945  21.747  33.681   1.822
55275W        W26946  22.230   9.897   3.290
55276W        W26947  27.079  15.256  10.904
55277W        W26948  27.025  21.012   4.193
55278W        W26949  19.281   5.333   3.074
55279W        W26950  13.328  28.079  12.051
55280W        W26951  24.527  31.444   4.509
55281W        W26952   4.391  34.147  10.586
55282W        W26953  26.051   1.860   0.030
55283W        W26954  10.812  25.752  12.917
55284W        W26955  42.972  44.739   1.789
55285W        W26956  42.507  33.512  10.696
55286W        W26957  35.327   6.596  13.820
55287W        W26958   8.410  43.233  11.997
55288W        W26959  28.897   1.392   1.633
55289W        W26960  18.348  16.055  13.545
55290W        W26961  36.114  22.045  12.405
55291W        W26962  21.947  35.932  14.765
55292W        W26963  17.850  23.879  12.474
55293W        W26964   0.436  15.815   3.147
55294W        W26965  21.014  28.167   4.659
55295W        W26966  19.587  25.737   1.265
55296W        W26967  32.965  24.064  13.733
55297W        W26968  32.434  37.407  13.787
55298W        W26969  36.871  33.415  12.631
55299W        W26970  32.022  25.994  11.557
55300W        W26971  34.463  19.068  11.865
55301W        W26972  24.114  33.002   2.540
55302W        W26973  15.036  32.584  11.082
55303W        W26974  28.893   0.211   0.601
55304W        W26975  44.844  20.075  10.652
55305W        W26976  25.886  31.894  11.660
55306W        W26977  23.853  12.818  10.436
55307W        W26978  16.796  25.754   1.485
55308W        W26979  43.431  22.225  10.464
55309W        W26980  37.331  27.410  13.451
55310W        W26981  23.208   4.492   2.814
55311W        W26982  26.100  10.375  11.146
55312W        W26983  13.681  32.877   3.740
55313W        W26984  22.201   9.338   1.956
55314W        W26985  38.508   7.194   1.299
55315W        W26986  37.852  15.232  12.085
55316W        W26987  24.981  41.928   1.425
55317W        W26988   2.053  23.040  13.386
55318W        W26989  25.494  18.685  14.621
55319W        W26990  33.094   5.696  14.578
55320W        W26991  44.026  12.772   2.800
55321W        W26992  31.082  42.064   1.155
55322W        W26993  28.173  36.761  12.479
55323W        W26994  25.788  27.879  14.915
55324W        W26995  37.153   5.825   0.416
55325W        W26996  30.987  17.782  14.219
55326W        W26997   4.411   1.925   0.307
55327W        W26998  36.952  19.310  14.502
55328W        W26999  26.740   5.707   4.187
55329W        W27000  35.021  35.386  13.967
55330W        W27001  29.073  31.047  11.371
55331W        W27002   7.132  23.760   3.635
55332W        W27003  32.453  27.207   4.331
55333W        W27004  27.595   2.786   0.660
55334W        W27005   1.916  23.711  12.319
55335W        W27006  27.035  37.349   4.472
55336W        W27007   8.313  16.650  11.144
55337W        W27008  41.896  26.921   2.834
55338W        W27009  10.564  15.312  10.372
55339W        W27010  28.886   4.409  11.139
55340W        W27011  10.562  40.559   3.769
55341W        W27012   8.116  40.904   1.734
55342W        W27013  11.891   1.389   3.994
55343W        W27014  13.528  18.680  14.326
55344W        W27015  35.648  20.295   2.691
55345W        W27016  20.699  37.085  12.225
55346W        W27017   0.970  25.420  13.981
55347W        W27018   6.283  35.669  10.550
55348W        W27019  27.951  16.026   0.950
55349W        W27020  25.475   0.306  14.452
55350W        W27021  21.730  13.101   3.469
55351W        W27022  16.146  43.877  11.283
55352W        W27023   2.026  43.902   0.947
55353W        W27024  12.846  27.968  12.462
55354W        W27025  35.803  15.858   2.663
55355W        W27026  13.352  34.569  12.630
55356W        W27027  25.564   1.280   4.820
55357W        W27028  41.746  16.185   2.165
55358W        W27029  19.696   7.065   2.894
55359W        W27030  43.105  28.588  13.407
55360W        W27031   8.217  16.793   4.703
55361W        W27032  14.840  42.374   3.109
55362W        W27033  13.173  11.343   4.568
55363W        W27034  11.417  22.690  14.140
55364W        W27035   3.857  35.820   4.144
55365W        W27036  29.500  26.334   5.063
55366W        W27037  16.706  12.756   1.356
55367W        W27038   4.468  35.033   0.249
55368W        W27039  35.438  25.045  11.913
55369W        W27040  39.472  18.009  11.454
55370W        W27041  20.180  17.998   3.250
55371W        W27042   0.984   0.333  11.544
55372W        W27043   2.068  35.538   4.174
55373W        W27044   1.360  13.140  11.646
55374W        W27045  25.730   1.320   2.750
55375W        W27046  10.535  28.595  14.784
55376W        W27047  35.317  30.024   2.222
55377W        W27048  21.626  24.516   2.209
55378W        W27049  30.199  39.319  11.411
55379W        W27050  12.281   7.280  14.791
55380W        W27051  19.965  26.221  10.371
55381W        W27052  44.261  34.322  13.411
55382W        W27053  21.033   5.296  10.949
55383W        W27054  39.279  41.660   3.778
55384W        W27055  28.865   9.310   1.490
55385W        W27056  12.268   8.221   0.823
55386W        W27057   5.022  40.435  11.554
55387W        W27058  32.069  35.363  14.929
55388W        W27059  32.089  39.941  13.150
55389W        W27060   6.398  42.544   3.168
55390W        W27061  10.842  24.656  12.351
55391W        W27062  29.440  12.632   2.272
55392W        W27063  26.547  29.516   1.686
55393W        W27064  16.986  41.580   0.973
55394W        W27065  17.247  14.086  10.563
55395W        W27066  34.945  18.134   0.526
55396W        W27067   5.169  24.954  14.308
55397W        W27068  14.403  37.496  10.410
55398W        W27069  10.259  40.347  10.554
55399W        W27070  10.145   4.204  11.212
55400W        W27071  32.872  41.023  10.659
55401W        W27072  44.777  34.398   3.122
55402W        W27073  41.756  14.905  13.073
55403W        W27074  38.962  34.371   0.559
55404W        W27075  39.093   1.796  12.117
55405W        W27076  39.374  20.109  11.931
55406W        W27077   5.325   0.556   2.385
55407W        W27078  11.560  19.489  10.622
55408W        W27079  19.634  35.364  12.157
55409W        W27080  26.560   0.689  14.745
55410W        W27081   8.531  12.388  10.025
55411W        W27082  15.721  35.205   4.611
55412W        W27083  22.644  38.869  14.875
55413W        W27084  24.244  21.003   4.572
55414W        W27085  19.285  14.767   0.893
55415W        W27086  24.931  29.125   0.902
55416W        W27087  26.075  31.859   4.232
55417W        W27088  33.911  21.434   2.725
55418W        W27089  36.419  12.176   3.651
55419W        W27090   9.784  30.747   3.525
55420W        W27091  28.736  13.123   2.450
55421W        W27092  17.021  10.180   2.795
55422W        W27093   8.445  12.698   1.906
55423W        W27094  24.015  20.549   4.529
55424W        W27095  35.392  44.161   3.429
55425W        W27096  40.264   3.617   0.367
55426W        W27097  27.680  41.817   0.724
55427W        W27098  40.829  20.535   0.621
55428W        W27099  39.903  26.448  14.504
55429W        W27100  13.808  42.310   3.195
55430W        W27101  40.977  43.875  13.462
55431W        W27102   3.900   5.517  14.651
55432W        W27103  14.222   6.429   1.666
55433W        W27104  38.780  16.715  14.848
55434W        W27105  18.669  22.744   3.161
55435W        W27106  37.846  44.658  13.459
55436W        W27107   6.482  35.138  14.501
55437W        W27108  16.743  27.181  11.026
55438W        W27109   7.761  19.621  11.523
55439W        W27110   3.978  18.033  11.701
55440W        W27111  38.775  39.652   4.720
55441W        W27112  32.356  29.583   0.349
55442W        W27113  30.244  20.653  12.946
55443W        W27114  35.482  16.549  11.577
55444W        W27115  44.903  34.131   0.347
55445W        W27116   0.525  20.676  14.066
55446W        W27117  18.517  33.974   3.925
55447W        W27118  21.412   8.673  10.518
55448W        W27119  37.495  44.728   1.829
55449W        W27120  24.793  41.573   4.650
55450W        W27121  14.368  19.054   0.895
55451W        W27122   6.357  32.021   0.981
55452W        W27123  37.010   3.917   1.826
55453W        W27124  31.009  11.861   5.048
55454W        W27125  30.186   9.419   1.016
55455W        W27126  32.407  31.567  12.581
55456W        W27127  33.574   0.314   4.152
55457W        W27128  41.707  30.130  11.619
55458W        W27129   0.447  18.136   1.282
55459W        W27130  28.434  24.475  14.232
55460W        W27131  34.896  29.649   0.349
55461W        W27132  19.561  17.637   2.265
55462W        W27133  24.720  23.695  11.628
55463W        W27134  19.062   1.208   4.101
55464W        W27135  26.275  11.089  10.169
55465W        W27136  30.902  26.333  10.001
55466W        W27137  26.070  11.236   2.838
55467W        W27138  25.113  43.810   3.779
55468W        W27139  38.122  42.789   3.147
55469W        W27140  43.787   0.033   2.199
55470W        W27141  14.186  36.945  10.541
55471W        W27142   2.714  44.797   0.172
55472W        W27143   2.706   5.415   0.015
55473W        W27144   9.166  26.617  11.957
55474W        W27145  23.165  11.395  12.030
55475W        W27146  44.823  24.126   5.059
55476W        W27147   4.491  34.218   3.005
55477W        W27148  13.577   9.511   2.726
55478W        W27149  33.380   1.209  14.450
55479W        W27150  17.821  39.907   2.264
55480W        W27151  23.148  14.476  12.530
55481W        W27152  34.626  43.915  12.881
55482W        W27153  29.613   6.217   3.222
55483W        W27154  15.702   5.620   1.709
55484W        W27155  28.660   9.284   2.849
55485W        W27156  26.162  19.673  11.636
55486W        W27157  35.128  30.423  12.958
55487W        W27158  20.742   8.713  13.914
55488W        W27159   1.986  19.317   9.742
55489W        W27160   9.568  32.985  11.964
55490W        W27161   8.938  10.172   3.267
55491W        W27162   4.434  30.901  11.957
55492W        W27163   0.673   6.730   0.032
55493W        W27164  30.488   7.077   3.262
55494W        W27165  19.817  41.287  12.787
55495W        W27166   1.819  15.979   0.855
55496W        W27167  16.581  42.411   0.344
55497W        W27168   0.831   8.967   4.784
55498W        W27169  32.195  29.140   0.606
55499W        W27170  40.311  11.504  10.771
55500W        W27171   8.941  13.720  12.007
55501W        W27172  20.610   4.080   1.220
55502W        W27173  22.216  27.423  13.029
55503W        W27174   2.061   3.242  11.719
55504W        W27175   9.391  44.272   4.720
55505W        W27176  33.075  38.234   3.624
55506W        W27177  40.815   7.349  12.990
55507W        W27178  37.302  37.654  13.066
55508W        W27179  10.028   9.803   4.929
55509W        W27180  16.887  32.898  11.028
55510W        W27181   3.572  19.279  12.336
55511W        W27182  13.529  44.335   4.563
55512W        W27183  39.208  16.040   1.542
55513W        W27184   1.921  18.082  13.065
55514W        W27185  41.496  26.192   0.717
55515W        W27186  23.033  22.767   3.904
55516W        W27187  12.809  16.184   1.462
55517W        W27188  18.673  33.988  12.371
55518W        W27189   2.354  29.411  10.731
55519W        W27190  12.899  12.372   3.917
55520W        W27191  38.599   4.254  14.233
55521W        W27192  32.855  20.032   4.017
55522W        W27193  19.189  25.599   5.056
55523W        W27194  24.433  27.715   0.786
55524W        W27195  34.462  38.086   1.807
55525W        W27196  17.493  40.524   4.455
55526W        W27197  31.789   5.070  12.952
55527W        W27198  41.798  24.959   2.864
55528W        W27199  24.115  16.580  10.611
55529W        W27200   4.843  15.525   0.816
55530W        W27201   0.513  42.237   0.391
55531W        W27202  38.474  11.339  11.509
55532W        W27203  28.489  32.623   2.339
55533W        W27204  44.902  35.134   3.676
55534W        W27205  29.883  38.989  10.233
55535W        W27206  35.357  11.858   3.168
55536W        W27207  35.379  11.795   2.167
55537W        W27208  24.993  10.655   1.415
55538W        W27209  36.928  23.195  12.372
55539W        W27210  44.133  10.231  11.605
55540W        W27211  28.624  41.066   4.262
55541W        W27212  26.675  24.425   1.529
55542W        W27213  30.412  33.621   2.299
55543W        W27214  10.182   3.765   0.519
55544W        W27215  26.319  26.422  13.873
55545W        W27216  24.049  33.522   4.197
55546W        W27217  10.668   5.908   2.910
55547W        W27218   8.645  43.859   0.010
55548W        W27219  27.040  24.733   1.319
55549W        W27220  12.176  43.476   3.158
55550W        W27221  43.204  35.201   1.305
55551W        W27222   6.940   9.876   4.690
55552W        W27223  22.886  28.881  13.341
55553W        W27224  39.088  10.502   3.685
55554W        W27225  24.173  17.851  14.729
55555W        W27226  27.207   6.824  10.204
55556W        W27227  40.564  41.563   2.700
55557W        W27228  38.673  18.071   4.981
55558W        W27229  33.616  44.381  14.444
55559W        W27230   0.811  27.275  14.414
55560W        W27231  35.498   5.345  11.629
55561W        W27232  14.296  19.054   4.511
55562W        W27233   0.260   3.570   0.762
55563W        W27234   2.938  36.822  14.910
55564W        W27235  35.288  26.592   1.436
55565W        W27236  41.974   2.906  14.712
55566W        W27237  38.815  36.055  11.065
55567W        W27238   7.177   5.965   2.330
55568W        W27239  43.831  13.117   4.605
55569W        W27240  42.822  15.626   4.921
55570W        W27241  36.500  26.977  12.081
55571W        W27242  33.832  33.372   2.224
55572W        W27243  17.737   5.822   4.592
55573W        W27244  14.616  13.243  11.029
55574W        W27245   5.956  33.046   4.945
55575W        W27246  15.546  31.494  11.050
55576W        W27247   2.786  17.200  11.191
55577W        W27248  27.023  36.516   3.280
55578W        W27249  15.645   1.966   5.156
55579W        W27250  19.231  41.525   4.117
55580W        W27251  19.831   2.432  14.837
55581W        W27252  17.250  10.689  10.672
55582W        W27253   1.967  41.869  13.302
55583W        W27254  38.603  22.005   1.821
55584W        W27255  27.204   9.205   1.713
55585W        W27256   8.577  39.456  13.259
55586W        W27257   4.031   1.024   3.759
55587W        W27258   6.747  20.537   2.141
55588W        W27259  30.143  35.961   1.014
55589W        W27260  22.760   4.044  12.124
55590W        W27261   7.740  17.564   3.837
55591W        W27262  38.894  41.475   3.044
55592W        W27263  14.780  44.882  14.464
55593W        W27264   7.331  38.308  13.946
55594W        W27265  28.291   1.330   2.599
55595W        W27266  31.739  42.985   4.987
55596W        W27267  24.050  25.825  13.753
55597W        W27268  20.630  32.071  11.412
55598W        W27269   5.726  12.866  14.707
55599W        W27270  29.394   9.182   1.451
55600W        W27271  10.982  20.641   0.805
55601W        W27272  38.491  13.617  10.993
55602W        W27273  21.836  10.934  13.326
55603W        W27274  33.363  25.100  10.284
55604W        W27275   4.769  17.577   3.705
55605W        W27276   1.225  26.722   2.833
55606W        W27277  14.119  22.716  12.477
55607W        W27278  28.609  21.605   2.826
55608W        W27279  44.812  27.627  11.561
55609W        W27280  22.186   7.173   1.783
55610W        W27281   0.494  21.685   2.163
55611W        W27282   0.280  30.311  13.452
55612W        W27283  21.069  25.060   3.648
55613W        W27284   2.725   8.484   0.467
55614W        W27285   9.628   5.687   1.872
55615W        W27286  13.049  42.839   1.753
55616W        W27287  17.049  34.392  13.595
55617W        W27288   0.354   6.840  14.151
55618W        W27289  21.658  33.078  14.288
55619W        W27290  40.376  44.784  10.494
55620W        W27291  35.415  44.300  10.664
55621W        W27292  17.048   5.367   2.695
55622W        W27293  37.532  23.559  10.441
55623W        W27294  13.996   5.768  10.217
55624W        W27295  11.690  20.725   0.037
55625W        W27296  36.000  35.494   4.215
55626W        W27297  29.654  14.503   4.101
55627W        W27298   5.019  29.472  13.421
55628W        W27299  31.856  25.110   1.852
55629W        W27300  10.353  17.822   3.312
55630W        W27301  42.892  26.920   0.181
55631W        W27302  26.236  13.604   3.174
55632W        W27303  29.587   8.772   4.968
55633W        W27304  27.597  39.120   3.733
55634W        W27305  31.979  25.912   4.119
55635W        W27306  12.842  43.836  12.104
55636W        W27307  25.608  28.575   2.771
55637W        W27308  42.374   0.521   4.696
55638W        W27309  34.149  22.864   1.895
55639W        W27310  34.522  41.746  14.013
55640W        W27311  33.536  19.406   0.715
55641W        W27312  34.631  33.781  11.307
55642W        W27313  20.078  23.215  12.293
55643W        W27314  31.943   3.142  10.744
55644W        W27315  16.217  11.812  11.250
55645W        W27316  11.239  44.537  10.702
55646W        W27317  18.201  39.703  12.126
55647W        W27318  28.630  11.616   1.715
55648W        W27319  41.728   4.853   0.797
55649W        W27320  31.173  16.970   4.147
55650W        W27321  29.025   0.554  12.089
55651W        W27322  20.704  42.258   4.027
55652W        W27323  43.473   3.341   5.016
55653W        W27324  32.979  33.745   3.876
55654W        W27325   3.458   0.340   4.132
55655W        W27326  14.602  14.210   4.389
55656W        W27327   0.306  36.975  14.795
55657W        W27328  32.902   0.697   2.244
55658W        W27329  30.554  25.558   0.069
55659W        W27330  43.559  21.073   1.992
55660W        W27331  32.578  14.342  13.103
55661W        W27332   7.807  40.995  12.636
55662W        W27333  15.138  34.351   3.136
55663W        W27334  30.336  28.646   1.758
55664W        W27335  41.777  13.031  14.082
55665W        W27336  17.084  18.606   4.840
55666W        W27337  29.449  16.576  14.421
55667W        W27338  40.860   7.201   0.547
55668W        W27339  35.781  41.754   1.207
55669W        W27340  25.941  35.823   1.382
55670W        W27341  22.355  30.900   2.795
55671W        W27342  42.120   3.349   4.568
55672W        W27343   4.001  35.342  11.002
55673W        W27344  18.350  41.548  13.450
55674W        W27345   3.953  38.612   1.232
55675W        W27346  38.921  19.306  14.791
55676W        W27347  24.041  19.110   3.809
55677W        W27348   2.722  19.745   3.754
55678W        W27349  41.762   1.175  13.336
55679W        W27350   1.490  23.165   0.908
55680W        W27351  24.578  25.904   0.893
55681W        W27352  31.941  40.109  14.096
55682W        W27353   1.834  37.770  11.156
55683W        W27354   3.257  31.806   4.660
55684W        W27355   8.225  43.453  14.371
55685W        W27356  32.935  38.173  12.084
55686W        W27357  21.590  30.880  11.998
55687W        W27358  36.881   6.701  11.168
55688W        W27359  10.324  34.085   1.451
55689W        W27360  22.486  25.127  14.746
55690W        W27361   3.947  44.833  12.170
55691W        W27362   3.813  12.869   4.421
55692W        W27363  29.513  11.665   2.340
55693W        W27364   4.737  17.459  12.055
55694W        W27365  17.326  30.617   2.449
55695W        W27366  17.033  33.506  12.204
55696W        W27367   7.713  39.011  13.423
55697W        W27368  39.448  24.577  10.617
55698W        W27369  29.147  14.985   2.415
55699W        W27370  31.173   9.612  12.002
55700W        W27371   2.308  43.536   2.628
55701W        W27372  42.774  19.782  13.994
55702W        W27373  30.870  37.382  13.382
55703W        W27374  37.407  33.598   0.378
55704W        W27375  22.224  15.872   2.319
55705W        W27376  20.208  39.714  14.582
55706W        W27377  15.853  21.674  12.441
55707W        W27378  15.074  10.964   1.621
55708W        W27379  26.462  22.181   4.785
55709W        W27380  36.937  31.552  13.115
55710W        W27381  20.761   8.612  14.836
55711W        W27382  33.975   4.785   0.924
55712W        W27383  25.903  20.320   0.223
55713W        W27384  25.484  12.128   4.573
55714W        W27385  44.729   9.835  14.075
55715W        W27386   5.366  32.852  12.097
55716W        W27387  44.885  20.233   0.283
55717W        W27388  24.905  14.193  11.071
55718W        W27389  25.093  22.804  11.726
55719W        W27390  19.071  31.944   3.742
55720W        W27391  26.510  25.985   3.730
55721W        W27392  11.860   6.917   4.681
55722W        W27393  42.447   0.161  11.637
55723W        W27394  42.743  10.369   2.688
55724W        W27395  27.987  32.744   4.287
55725W        W27396   0.893  32.063  10.732
55726W        W27397  24.948  18.892   2.738
55727W        W27398  26.094  12.267   2.340
55728W        W27399  39.775  11.620  14.331
55729W        W27400  40.350  44.252  12.519
55730W        W27401  20.530  23.061  13.014
55731W        W27402  44.242  29.719   1.484
55732W        W27403  38.716   2.349   4.149
55733W        W27404  15.542  39.240   1.329
55734W        W27405  31.923  17.953  10.006
55735W        W27406  26.559  42.779   1.083
55736W        W27407  10.114  40.362  13.861
55737W        W27408  17.056  42.436  13.838
55738W        W27409   7.330  12.604  11.344
55739W        W27410  40.359   0.432   0.398
55740W        W27411  15.329  30.171   3.312
55741W        W27412  12.216  22.784  11.468
55742W        W27413  29.249  12.180   3.943
55743W        W27414  36.476   7.788   2.050
55744W        W27415   4.448  41.232  13.124
55745W        W27416   7.355  29.564  10.769
55746W        W27417   2.371   0.112  12.919
55747W        W27418   0.502  37.796   0.276
55748W        W27419  33.700  35.693  11.163
55749W        W27420   8.828  19.662  10.639
55750W        W27421   0.982  14.011   3.682
55751W        W27422  21.253  40.381  11.525
55752W        W27423  10.203  20.856  12.105
55753W        W27424  14.095  11.094   1.216
55754W        W27425  38.664  28.567   3.267
55755W        W27426  29.859   5.927   3.789
55756W        W27427   5.860  30.322  12.465
55757W        W27428  13.196  31.386  10.544
55758W        W27429   4.612  32.437   2.596
55759W        W27430  38.016  36.198  14.428
55760W        W27431  23.322   1.685   1.434
55761W        W27432  41.827   0.883  12.922
55762W        W27433  26.816  16.575   0.417
55763W        W27434  16.265  13.023   4.075
55764W        W27435   0.616  25.976   4.236
55765W        W27436   1.358   8.731  12.715
55766W        W27437   0.772  19.691  13.055
55767W        W27438   2.719  12.273  14.528
55768W        W27439  38.485   4.864   2.227
55769W        W27440  18.799   7.385  14.832
55770W        W27441  43.286  16.597  10.631
55771W        W27442  18.759  31.577   4.902
55772W        W27443  20.694  24.999  11.050
55773W        W27444  37.325   3.712  11.270
55774W        W27445   8.950  20.653   1.251
55775W        W27446   7.393  37.877  12.565
55776W        W27447  27.268  25.096   2.646
55777W        W27448  31.575  39.369  13.639
55778W        W27449  16.665   8.575  13.405
55779W        W27450   0.709  21.045  13.303
55780W        W27451  37.333  41.283  13.694
55781W        W27452   6.513  29.611   3.391
55782W        W27453  32.608  10.636  10.812
55783W        W27454  37.012  33.394   4.167
55784W        W27455  17.008   3.517  13.795
55785W        W27456  10.904  28.694   3.908
55786W        W27457  35.474   1.071  12.580
55787W        W27458  40.246   6.249   2.326
55788W        W27459  11.617  31.118  12.919
55789W        W27460  31.881  29.563   1.292
55790W        W27461  11.150  25.735  10.728
55791W        W27462  11.356  27.947  12.605
55792W        W27463  43.336  28.080   0.162
55793W        W27464  21.537  21.180  13.449
55794W        W27465   1.877  20.293  12.555
55795W        W27466  14.915  27.519   1.040
55796W        W27467  40.972  43.650   4.153
55797W        W27468   3.984  22.217  12.930
55798W        W27469  35.547  41.588  14.830
55799W        W27470  10.768  19.820  12.965
55800W        W27471  34.020  40.716   1.684
55801W        W27472  16.983  43.527   1.390
55802W        W27473  12.403   9.327   3.652
55803W        W27474   0.177   6.286  12.505
55804W        W27475   2.996   9.231   1.777
55805W        W27476  44.034  31.174  14.420
55806W        W27477  26.909  21.577  12.866
55807W        W27478  42.534   2.949  14.375
55808W        W27479  39.837   1.219   0.573
55809W        W27480   8.663  24.276  13.450
55810W        W27481  29.964  34.736  14.659
55811W        W27482  17.025  29.653   2.755
55812W        W27483  15.685  41.361   0.541
55813W        W27484   9.808  17.951   1.756
55814W        W27485  19.924  33.996  14.053
55815W        W27486  37.939  37.126  12.008
55816W        W27487  22.951  30.416  11.944
55817W        W27488  37.390  35.595   4.943
55818W        W27489  12.613   8.455  10.880
55819W        W27490  32.141   1.264  14.891
55820W        W27491   9.723  44.475   3.593
55821W        W27492  42.445   7.971   0.306
55822W        W27493  17.947   6.493  10.608
55823W        W27494   0.733   2.938  10.710
55824W        W27495   9.749  12.864   4.796
55825W        W27496  22.610  23.692   1.183
55826W        W27497   1.725  31.805   0.176
55827W        W27498  11.748  32.572   4.581
55828W        W27499   5.799  28.147  10.684
55829W        W27500  27.006  41.315   4.550
55830W        W27501  35.145  31.854  13.001
55831W        W27502  15.969  43.974  14.468
55832W        W27503  13.074  16.718   2.165
55833W        W27504   3.473  20.555   1.286
55834W        W27505  12.408  32.808   2.766
55835W        W27506  38.410  36.385  11.882
55836W        W27507   6.434  35.391  14.030
55837W        W27508   1.381  22.605   4.166
55838W        W27509  36.864   4.755  13.091
55839W        W27510  43.915  11.253   3.153
55840W        W27511  25.263  43.875  14.499
55841W        W27512  23.489  15.839   5.170
55842W        W27513  12.475  13.686   2.402
55843W        W27514   0.788   5.446   4.210
55844W        W27515  15.440   5.476  11.888
55845W        W27516  20.240  34.977  13.526
55846W        W27517   9.336  18.500   3.545
55847W        W27518  30.979  16.021  14.788
55848W        W27519  43.419  27.115   0.393
55849W        W27520  20.196  29.627  11.540
55850W        W27521  20.085  28.863   1.991
55851W        W27522  23.196  15.816  14.224
55852W        W27523  36.555  19.819   3.624
55853W        W27524   6.471  19.901  13.937
55854W        W27525   1.859   1.454   2.751
55855W        W27526  11.880  15.748  11.261
55856W        W27527   1.697  16.298  14.877
55857W        W27528  43.550  20.961   3.726
55858W        W27529   3.172  18.351   4.123
55859W        W27530  18.315  18.614  12.931
55860W        W27531  16.503  12.277   4.462
55861W        W27532  31.383  16.468   1.895
55862W        W27533  43.522  21.729  13.560
55863W        W27534  34.650  44.296   4.588
55864W        W27535  20.956  29.575  13.994
55865W        W27536  16.352  32.537  14.310
55866W        W27537  16.551  15.696   0.821
55867W        W27538  33.869  29.266  11.013
55868W        W27539  42.734   5.463  14.638
55869W        W27540  39.920  28.167  11.551
55870W        W27541  23.213  24.429  12.658
55871W        W27542  42.015  37.805   1.369
55872W        W27543  31.156  38.535   3.020
55873W        W27544  23.704  28.522   0.604
55874W        W27545  20.456  15.865  11.612
55875W        W27546  21.401  12.145  12.112
55876W        W27547  33.688  32.695   0.526
55877W        W27548   5.778   9.127   2.369
55878W        W27549  29.496  13.605   3.665
55879W        W27550  26.232  15.057   0.948
55880W        W27551  15.513  18.074   4.361
55881W        W27552  15.824  29.732  14.239
55882W        W27553  32.472  39.274   0.381
55883W        W27554  30.676  18.026   0.378
55884W        W27555  33.548   6.959   1.138
55885W        W27556  37.269  10.356  13.455
55886W        W27557  10.348  42.032   3.695
55887W        W27558  25.173  16.629   2.466
55888W        W27559  26.492  35.555  14.301
55889W        W27560   5.362   4.597   4.219
55890W        W27561  11.352  26.936  12.445
55891W        W27562  36.796   6.673  13.879
55892W        W27563  41.116  25.324   0.347
55893W        W27564   5.365  42.205   4.136
55894W        W27565  41.369  31.412   1.231
55895W        W27566  22.091   2.874   0.363
55896W        W27567   8.381  14.780  12.700
55897W        W27568  25.355   4.591  14.946
55898W        W27569  24.257   0.303  14.821
55899W        W27570  36.141  20.566   4.157
55900W        W27571   5.356  13.306  11.910
55901W        W27572   4.821   3.836  13.055
55902W        W27573  28.890  36.445  10.510
55903W        W27574  29.427  37.610  11.017
55904W        W27575  30.044  43.807  10.779
55905W        W27576  23.879  42.957  11.594
55906W        W27577   2.320  37.588  11.032
55907W        W27578   1.264  42.815  12.555
55908W        W27579  38.185  18.762   0.379
55909W        W27580  41.695  16.233  11.149
55910W        W27581  28.603  44.205   1.798
55911W        W27582  44.217  33.386   0.390
55912W        W27583  19.137  28.248   4.423
55913W        W27584  43.773   6.021  13.897
55914W        W27585  24.116  36.316  10.721
55915W        W27586  10.666  44.262  13.815
55916W        W27587  43.101  33.331  10.574
55917W        W27588  15.612  36.692  11.649
55918W        W27589  35.662  14.831   0.669
55919W        W27590  12.597   0.995  11.223
55920W        W27591  11.217  32.613   0.296
55921W        W27592  35.335   2.920   1.290
55922W        W27593  35.445  15.236  12.038
55923W        W27594   2.771  30.497  12.097
55924W        W27595   4.560  24.288   0.744
55925W        W27596  36.158  12.813   0.307
55926W        W27597  11.627  41.008  13.453
55927W        W27598  31.456  43.424   4.995
55928W        W27599  28.496  19.778   2.408
55929W        W27600  28.514  32.605  14.586
55930W        W27601   5.836   9.583   2.632
55931W        W27602  17.569  14.315   2.881
55932W        W27603  21.127   2.956   0.408
55933W        W27604  39.575  29.056   4.679
55934W        W27605  20.654  44.270  11.964
55935W        W27606   8.438  11.899   0.635
55936W        W27607  32.045  31.892  10.614
55937W        W27608  40.759  38.456  10.326
55938W        W27609  30.124  14.155  14.289
55939W        W27610  36.511  41.463  13.833
55940W        W27611  29.343   1.661   2.343
55941W        W27612   7.080  41.063   1.917
55942W        W27613  25.479  29.981  10.703
55943W        W27614  33.494   7.786   0.692
55944W        W27615  12.120  23.146  12.543
55945W        W27616   8.394  17.582  10.788
55946W        W27617  20.089  31.377  13.074
55947W        W27618  29.632  33.927   3.635
55948W        W27619  41.066  23.741   0.862
55949W        W27620   4.314   7.627   3.196
55950W        W27621   7.097  14.173  12.019
55951W        W27622  30.444  36.994  10.696
55952W        W27623  14.623   8.011   2.225
55953W        W27624  14.045   1.510   0.352
55954W        W27625  31.126   9.921  13.852
55955W        W27626  31.768  22.970  12.062
55956W        W27627  33.930   0.874   3.303
55957W        W27628  29.514  16.299   3.870
55958W        W27629  44.350  22.970  12.459
55959W        W27630  12.701  29.367   2.785
55960W        W27631  23.065   3.806  11.452
55961W        W27632  26.708  25.148   1.973
55962W        W27633  10.640  12.621  14.879
55963W        W27634  42.602  21.104  14.827
55964W        W27635  44.373  14.025  11.068
55965W        W27636  32.213   8.795   4.109
55966W        W27637  30.929   5.514  13.013
55967W        W27638  18.109  13.321  11.558
55968W        W27639  17.992  40.466   4.520
55969W        W27640  34.072  37.983   1.189
55970W        W27641  12.184  33.556   2.280
55971W        W27642  12.295  17.598   3.640
55972W        W27643  23.590  40.404  13.486
55973W        W27644  23.528  27.219   1.299
55974W        W27645  16.420  19.055   2.582
55975W        W27646   9.122  27.925  11.812
55976W        W27647  30.927   6.646  14.694
55977W        W27648  14.782   9.859   4.511
55978W        W27649  42.049  44.911   0.128
55979W        W27650  10.808  43.450   1.899
55980W        W27651  43.951   5.553  10.675
55981W        W27652  34.493  16.839  13.887
55982W        W27653  30.957  15.215  14.435
55983W        W27654   0.355   1.484  12.130
55984W        W27655  33.829   5.468   2.725
55985W        W27656  33.091   6.688   1.269
55986W        W27657  14.778  35.586   4.549
55987W        W27658   3.978  27.144  11.187
55988W        W27659  38.127  37.345   1.319
55989W        W27660  28.883   8.835   1.756
55990W        W27661  21.354   4.675  14.808
55991W        W27662   0.423   8.992  13.070
55992W        W27663   7.409  27.425  14.466
55993W        W27664  16.155  27.004  13.022
55994W        W27665   9.678  26.432  13.457
55995W        W27666  33.835  15.997   1.963
55996W        W27667  32.470  26.941   4.771
55997W        W27668  10.836  17.027  13.412
55998W        W27669  20.144   2.829   4.291
55999W        W27670  21.330   1.021  12.325
56000W        W27671  10.874   0.063  12.807
56001W        W27672  18.673  21.840  10.876
56002W        W27673  25.737  22.633  14.913
56003W        W27674   1.744  11.872  13.512
56004W        W27675   6.441   4.968  11.554
56005W        W27676   6.164  20.905  11.489
56006W        W27677  10.768  21.190  10.815
56007W        W27678  22.650   6.174  14.536
56008W        W27679   0.424  36.593   4.212
56009W        W27680   5.704  24.898  13.622
56010W        W27681  37.950  27.031  14.393
56011W        W27682  42.253   0.293  10.791
56012W        W27683  26.402   9.420   2.374
56013W        W27684  30.132  37.705  14.499
56014W        W27685  19.421  18.569   2.005
56015W        W27686  32.055  17.630  12.504
56016W        W27687  31.458   8.205   4.198
56017W        W27688  38.959   6.316  11.110
56018W        W27689  22.175  23.569  11.898
56019W        W27690  35.495  14.971  10.739
56020W        W27691  29.345  13.505  12.572
56021W        W27692   8.303  33.957   0.811
56022W        W27693  20.717   7.677  13.786
56023W        W27694  42.968   1.134   4.205
56024W        W27695  12.585  30.629   3.129
56025W        W27696  12.608   5.739   1.750
56026W        W27697   1.358  23.110  13.112
56027W        W27698   9.136  14.523   2.723
56028W        W27699  38.778  17.533   4.849
56029W        W27700  12.556   4.560  14.812
56030W        W27701  31.718  11.184  13.478
56031W        W27702   6.797   7.849  14.175
56032W        W27703  38.834  17.883   2.063
56033W        W27704  37.104   4.097   2.597
56034W        W27705  40.904  32.677   0.443
56035W        W27706  21.996  28.385  14.524
56036W        W27707  27.269  40.423  13.856
56037W        W27708  22.625  26.080   1.807
56038W        W27709   6.206  42.782  13.846
56039W        W27710  15.659  27.449  12.769
56040W        W27711   1.899  34.315  11.496
56041W        W27712  44.095  42.766  11.092
56042W        W27713  32.495  28.965   3.488
56043W        W27714   0.823  21.548   2.746
56044W        W27715   5.373  18.273   1.563
56045W        W27716  14.190   8.691   3.575
56046W        W27717  30.592  33.396   2.729
56047W        W27718  28.867   1.985   0.184
56048W        W27719  30.955   7.726   0.822
56049W        W27720  15.202  39.046  12.700
56050W        W27721   8.347  33.990   0.286
56051W        W27722  43.082  37.296   4.131
56052W        W27723  19.942  27.375   3.267
56053W        W27724   8.211  23.088  11.979
56054W        W27725  43.108   1.216   0.684
56055W        W27726  29.659  29.934   1.238
56056W        W27727   8.933  27.451  10.281
56057W        W27728  31.942  41.170  14.010
56058W        W27729   6.693  23.734   0.018
56059W        W27730  26.522  39.389   4.215
56060W        W27731  42.496  34.147   2.469
56061W        W27732  20.563   4.651   0.365
56062W        W27733  31.155   3.666  13.322
56063W        W27734   5.374   0.307  13.472
56064W        W27735  18.921  33.294  13.018
56065W        W27736  44.892  39.893   1.424
56066W        W27737   6.203  20.113  12.986
56067W        W27738   8.240  30.601   4.465
56068W        W27739  14.553  37.243  14.149
56069W        W27740  43.903  42.527  14.454
56070W        W27741  20.591  21.078  11.855
56071W        W27742  25.979  14.733  14.742
56072W        W27743   6.171   7.673  13.567
56073W        W27744  21.736  37.567  13.575
56074W        W27745   3.211  42.251   2.619
56075W        W27746  22.725  44.249  14.502
56076W        W27747  21.145  27.286   1.300
56077W        W27748  42.352  13.173   2.899
56078W        W27749   5.919  11.757   4.781
56079W        W27750   9.271  22.809   3.390
56080W        W27751  26.528  43.323   0.238
56081W        W27752  17.187   8.690   3.382
56082W        W27753  21.034  21.980  10.983
56083W        W27754  34.320   9.126   4.340
56084W        W27755  13.657  12.654  14.703
56085W        W27756  29.220   6.133   2.389
56086W        W27757  14.618   3.451   1.406
56087W        W27758  42.214  10.255   3.669
56088W        W27759  37.504  37.571  14.572
56089W        W27760  15.146   8.050   2.229
56090W        W27761  28.489  35.577   0.772
56091W        W27762  25.470   6.066  12.916
56092W        W27763  15.083  27.774   0.613
56093W        W27764   8.454  31.902   3.637
56094W        W27765   4.487  12.657  13.057
56095W        W27766  17.046  31.599  10.001
56096W        W27767   9.888   3.279   4.624
56097W        W27768  11.817  42.294  12.131
56098W        W27769  44.844  44.959  13.796
56099W        W27770  18.486  18.266   2.658
56100W        W27771  18.782   5.482   3.164
56101W        W27772   5.298   3.090   2.182
56102W        W27773  41.052  20.279  12.557
56103W        W27774  10.358   6.088  10.453
56104W        W27775  38.444  20.797  11.982
56105W        W27776  35.411   2.917   2.155
56106W        W27777  41.034  30.908  13.371
56107W        W27778  39.806  13.540  14.390
56108W        W27779  22.742  31.570  12.989
56109W        W27780  26.386  41.023   0.959
56110W        W27781  42.060  12.217   0.368
56111W        W27782  41.894  24.481   3.167
56112W        W27783  11.565  28.057  11.965
56113W        W27784  39.329  34.444   3.251
56114W        W27785  31.943   7.281   1.821
56115W        W27786  22.520  12.272  14.412
56116W        W27787  16.764   5.163  14.806
56117W        W27788   5.309  26.720   5.105
56118W        W27789  17.221  24.145   1.378
56119W        W27790  42.327  15.891   0.908
56120W        W27791  17.200  20.426   0.460
56121W        W27792   9.180  41.438   3.768
56122W        W27793  20.643  28.565  13.487
56123W        W27794  24.448  37.625  10.539
56124W        W27795  34.974   6.012   2.191
56125W        W27796  44.269   8.676  12.058
56126W        W27797  20.576   7.574  14.514
56127W        W27798  12.582  15.062   0.952
56128W        W27799   9.969   3.318  11.157
56129W        W27800   8.852  40.948   0.635
56130W        W27801  27.411   1.929   2.134
56131W        W27802  23.237  36.136   0.943
56132W        W27803  40.461  35.380  12.424
56133W        W27804  36.451  29.530   3.241
56134W        W27805  40.041   2.442  13.048
56135W        W27806  34.073  36.591  13.562
56136W        W27807   5.317  40.188   0.507
56137W        W27808   8.316  11.058  11.112
56138W        W27809  34.546   9.837   1.730
56139W        W27810   9.168  38.314  10.511
56140W        W27811  11.762  11.689  13.405
56141W        W27812   1.793   2.144   2.636
56142W        W27813  43.731  24.617   3.130
56143W        W27814   7.711  37.569   0.338
56144W        W27815   9.376   7.410   0.727
56145W        W27816  22.246   8.891   1.697
56146W        W27817  32.524   7.671   0.808
56147W        W27818  10.760  44.948   1.944
56148W        W27819  25.891  35.912   4.381
56149W        W27820  28.428  15.669  10.494
56150W        W27821  33.130  39.842   1.689
56151W        W27822  36.559  22.015   0.383
56152W        W27823  33.591  21.110  13.803
56153W        W27824  13.810  23.068   3.703
56154W        W27825   2.389  36.284   1.134
56155W        W27826  33.520   6.309   1.742
56156W        W27827  32.085  38.812  11.991
56157W        W27828  32.482   9.807   1.370
56158W        W27829   4.216  42.738  12.831
56159W        W27830  33.753   7.051  12.037
56160W        W27831  28.423  33.982  12.740
56161W        W27832  36.134  34.484  10.638
56162W        W27833  15.363  40.367   0.353
56163W        W27834  26.089  26.970   4.600
56164W        W27835  31.223  20.977  13.842
56165W        W27836  36.167   6.276  12.330
56166W        W27837   5.017  15.994   3.697
56167W        W27838  17.044   0.441   0.749
56168W        W27839  37.104  12.113   3.427
56169W        W27840   6.834  36.507  12.193
56170W        W27841  21.672  41.408  13.088
56171W        W27842  34.882  11.853  14.531
56172W        W27843  15.086   6.535   1.956
56173W        W27844  17.021   5.594  14.991
56174W        W27845  18.298  16.044  12.515
56175W        W27846   0.809  38.096  10.520
56176W        W27847  44.270  11.716   4.968
56177W        W27848   4.283  11.480  14.043
56178W        W27849  10.792  38.620  11.060
56179W        W27850  11.611  38.333   0.328
56180W        W27851   2.218  13.165  14.965
56181W        W27852  11.425  14.776  13.963
56182W        W27853  30.869  37.909  11.694
56183W        W27854  31.548   5.297  10.979
56184W        W27855  29.964  30.068  13.109
56185W        W27856  27.565  31.693   4.254
56186W        W27857  40.947   0.855  14.097
56187W        W27858  40.940  27.444  14.282
56188W        W27859  32.550  42.885  11.447
56189W        W27860  32.713   6.815   2.190
56190W        W27861   2.920  13.216  11.427
56191W        W27862   1.198  29.743  11.167
56192W        W27863  19.831  12.860  11.922
56193W        W27864  14.018  14.926   4.863
56194W        W27865  24.555  16.266   1.427
56195W        W27866  21.553  10.827  11.782
56196W        W27867   3.519  40.855  11.180
56197W        W27868  38.356  37.387  11.508
56198W        W27869   2.406   9.481  14.490
56199W        W27870  19.124  26.294   0.237
56200W        W27871  27.550  30.980  13.264
56201W        W27872  20.421   1.430  13.428
56202W        W27873  22.755  33.459   4.633
56203W        W27874  43.334  24.410  11.958
56204W        W27875  25.616  25.594   3.598
56205W        W27876  17.714  27.034  10.641
56206W        W27877  41.462   7.958   0.310
56207W        W27878   4.686  19.545  13.339
56208W        W27879  30.263  21.602  11.812
56209W        W27880  38.559  18.792  13.323
56210W        W27881   1.301  34.965  13.970
56211W        W27882  15.281  26.410  12.074
56212W        W27883  25.151   1.365  11.489
56213W        W27884  22.675  37.559   4.692
56214W        W27885  32.191   0.021   2.658
56215W        W27886  22.298  31.227  12.926
56216W        W27887  40.954  14.603   2.268
56217W        W27888   9.367  37.942   2.483
56218W        W27889  21.122  19.020   3.590
56219W        W27890  43.345  10.069   2.644
56220W        W27891  42.880  23.267  11.116
56221W        W27892  38.638  12.025   1.306
56222W        W27893  16.168  40.717   4.186
56223W        W27894  38.330   0.713   0.885
56224W        W27895  15.426  15.745  13.710
56225W        W27896  24.734  44.433   0.258
56226W        W27897  36.317  12.372   1.606
56227W        W27898  26.986   5.409   3.361
56228W        W27899  20.495   4.154   0.249
56229W        W27900  33.562   1.674  10.118
56230W        W27901  25.179  32.178   1.286
56231W        W27902  12.861  24.033  13.864
56232W        W27903   6.891  21.888   0.405
56233W        W27904  43.280  31.619   1.393
56234W        W27905   8.231  16.480   1.262
56235W        W27906  26.898  18.683  13.438
56236W        W27907  21.347   3.059   9.989
56237W        W27908   4.651  39.306   1.477
56238W        W27909  22.197   4.965  13.880
56239W        W27910  23.965  44.330  12.069
56240W        W27911  27.608   9.415  10.287
56241W        W27912  34.924  38.624   2.285
56242W        W27913  15.278  35.525  10.675
56243W        W27914  27.982  33.018   0.512
56244W        W27915   8.137  31.027   2.728
56245W        W27916   5.383  20.993   4.676
56246W        W27917  14.284  22.682  11.997
56247W        W27918  24.814  37.037  12.425
56248W        W27919   6.822   0.780  14.277
56249W        W27920  15.627  13.765   0.861
56250W        W27921  31.108  18.286  14.256
56251W        W27922  14.749   9.170  12.029
56252W        W27923  31.506  21.158   4.194
56253W        W27924  22.754   5.754  12.505
56254W        W27925  37.390  34.169  14.009
56255W        W27926   0.751  35.481  11.202
56256W        W27927  22.703   0.443  13.051
56257W        W27928  13.829  15.607  11.622
56258W        W27929  33.401   1.026  11.843
56259W        W27930  40.593  34.200   2.708
56260W        W27931  27.032  29.628  11.916
56261W        W27932  41.852  37.398  12.679
56262W        W27933  30.953  33.498   3.692
56263W        W27934  42.094  14.825  14.481
56264W        W27935  17.359  24.242  11.135
56265W        W27936  22.965  25.602   0.334
56266W        W27937  44.052  28.448   1.765
56267W        W27938  12.856  26.230   0.364
56268W        W27939  43.015   9.343   1.845
56269W        W27940  44.319  36.773   1.929
56270W        W27941  11.855  25.218  12.913
56271W        W27942  35.127  32.464  11.714
56272W        W27943  31.411  39.933  11.633
56273W        W27944   3.433  22.993   2.607
56274W        W27945  33.503  35.840  13.433
56275W        W27946  40.184  30.012   2.837
56276W        W27947   8.895  31.891  13.316
56277W        W27948   9.762   3.774   4.837
56278W        W27949  18.031  22.880  11.383
56279W        W27950   7.859  30.820   1.878
56280W        W27951  28.219  21.064  11.180
56281W        W27952   4.961  33.426   9.773
56282W        W27953  20.226   6.349  14.073
56283W        W27954  30.044  23.253  14.324
56284W        W27955  18.151  30.268   0.051
56285W        W27956  34.036   7.344  12.956
56286W        W27957  37.971  29.149  12.966
56287W        W27958   1.889   8.633  12.991
56288W        W27959  27.588   5.539   1.714
56289W        W27960   6.466   4.709  11.098
56290W        W27961  15.230  24.235   3.433
56291W        W27962  31.967  35.169   1.915
56292W        W27963  17.321  37.404   2.857
56293W        W27964  42.980   1.337   1.189
56294W        W27965   1.757  27.701  13.761
56295W        W27966  42.938   8.450   2.927
56296W        W27967  28.518  25.701  12.874
56297W        W27968  34.971  37.368  14.566
56298W        W27969  27.034  35.885  11.561
56299W        W27970   2.462   3.092   3.188
56300W        W27971  26.093   6.702   3.277
56301W        W27972  34.110  21.105   3.683
56302W        W27973  24.039  38.092   0.049
56303W        W27974  25.436  38.355  13.391
56304W        W27975  44.919  22.980   4.050
56305W        W27976  17.058   6.243   4.982
56306W        W27977  39.817  32.316   3.425
56307W        W27978  19.251  33.319  13.864
56308W        W27979  34.877  38.376   0.920
56309W        W27980  14.247  17.012  10.751
56310W        W27981  39.985   0.640  11.989
56311W        W27982   1.944   5.790  10.734
56312W        W27983  16.835  31.321  12.940
56313W        W27984  40.678  14.104  10.708
56314W        W27985  42.918   4.283  10.132
56315W        W27986  19.991  25.185  11.671
56316W        W27987   9.163  10.121   3.759
56317W        W27988  37.919  40.461   5.266
56318W        W27989  27.238   5.311   4.854
56319W        W27990   3.091  20.119  13.443
56320W        W27991  35.383  34.081  14.827
56321W        W27992  31.796  18.154  14.375
56322W        W27993  24.005   0.933  13.152
56323W        W27994  21.200   2.740  12.768
56324W        W27995  44.928  13.816   1.359
56325W        W27996   0.855  38.987  11.742
56326W        W27997  16.767   6.829   4.473
56327W        W27998  18.266  40.493   4.082
56328W        W27999  17.808  26.057  11.787
56329W        W28000  28.670  42.348  13.859
56330W        W28001  30.062  16.356   3.309
56331W        W28002   0.390  33.286   4.517
56332W        W28003  10.422  23.090   4.888
56333W        W28004   2.271  38.097   3.727
56334W        W28005   7.999  26.758  14.167
56335W        W28006  33.600   2.990  14.763
56336W        W28007  44.253  30.607   4.186
56337W        W28008   4.935  32.204   0.826
56338W        W28009  32.500  13.645  13.788
56339W        W28010  43.981  34.907  10.358
56340W        W28011  32.887   4.771  13.939
56341W        W28012  10.089   4.491  12.465
56342W        W28013  32.948  21.328  10.782
56343W        W28014  11.214   0.324   0.590
56344W        W28015  26.132  31.480  14.400
56345W        W28016  27.547   0.680   1.793
56346W        W28017  21.908  40.318   3.113
56347W        W28018  19.217  15.548   3.364
56348W        W28019  17.739  41.380  12.034
56349W        W28020  27.155  42.545   1.336
56350W        W28021  11.390   2.214   2.812
56351W        W28022  14.152  24.047   3.047
56352W        W28023  22.324  35.086   0.327
56353W        W28024  30.614   2.959   1.188
56354W        W28025  28.730  22.718   0.905
56355W        W28026  39.320  16.225  11.197
56356W        W28027  13.762  11.889   1.060
56357W        W28028  11.720  32.825  11.172
56358W        W28029  12.025  35.072   4.654
56359W        W28030  14.051  39.310  14.865
56360W        W28031  12.324   2.853  11.122
56361W        W28032  36.028  12.861  12.489
56362W        W28033  35.310   7.224   1.403
56363W        W28034   6.309  42.073   3.357
56364W        W28035   8.609  40.430   4.295
56365W        W28036  17.539  28.004  12.973
56366W        W28037   2.945  36.369   4.194
56367W        W28038  38.796  11.597  12.600
56368W        W28039  35.299   0.236  10.610
56369W        W28040  10.157  13.240   3.348
56370W        W28041  39.249  39.994   0.956
56371W        W28042   2.755  12.668  13.813
56372W        W28043  27.584  40.401  11.960
56373W        W28044  21.092  42.885   4.058
56374W        W28045  40.644  44.779  13.766
56375W        W28046  10.887   3.394   2.810
56376W        W28047   2.414  26.174   2.618
56377W        W28048   0.212  36.746  11.126
56378W        W28049  42.444   7.067  12.153
56379W        W28050   1.049  19.090   2.997
56380W        W28051  13.568  21.726   2.736
56381W        W28052   4.766  14.318   5.029
56382W        W28053  17.840  39.406  13.102
56383W        W28054  18.991  28.739   4.561
56384W        W28055  37.145  11.800   2.233
56385W        W28056  32.557  29.892   2.744
56386W        W28057  18.214   4.214  14.311
56387W        W28058  41.319  16.517  11.630
56388W        W28059  26.201  42.064  11.166
56389W        W28060   6.231   1.747   3.211
56390W        W28061  30.068   3.812  11.417
56391W        W28062  36.365  39.167   0.501
56392W        W28063   9.759   3.915   1.308
56393W        W28064  28.844  13.174   1.357
56394W        W28065  34.443  33.856  13.413
56395W        W28066  25.275  24.634   3.237
56396W        W28067  15.283  17.507   2.128
56397W        W28068  23.978  21.259  14.943
56398W        W28069  23.743  13.067   3.230
56399W        W28070  29.860   8.466  13.018
56400W        W28071  30.263  35.040   4.825
56401W        W28072  12.654  28.049   0.499
56402W        W28073  34.338  35.830  11.933
56403W        W28074  24.675  25.121   2.007
56404W        W28075  31.176  37.131   2.173
56405W        W28076  34.822  13.686  14.478
56406W        W28077  31.394  19.011  10.884
56407W        W28078  34.921  24.591   2.904
56408W        W28079  36.321  24.042   0.813
56409W        W28080   2.238  29.185   4.069
56410W        W28081   0.360  36.634   3.127
56411W        W28082  19.241  21.273   2.180
56412W        W28083  17.194   7.840   3.639
56413W        W28084  18.975   0.801  11.156
56414W        W28085  44.065  19.781   4.505
56415W        W28086  15.568   8.559   4.132
56416W        W28087  36.795  40.326  14.813
56417W        W28088  29.550  13.998  11.592
56418W        W28089  16.974  15.134   0.432
56419W        W28090  39.901  28.176  12.063
56420W        W28091  19.824   2.750  11.200
56421W        W28092   3.645  35.790   3.419
56422W        W28093  41.301  13.922   2.294
56423W        W28094  14.644  32.551   0.398
56424W        W28095   2.995  34.567  12.691
56425W        W28096  30.941   5.450  12.050
56426W        W28097  11.566  34.470  12.493
56427W        W28098  42.926  41.166   9.900
56428W        W28099   3.459  10.164  14.843
56429W        W28100   1.425  24.050   4.783
56430W        W28101  44.799  12.021   4.151
56431W        W28102  13.289  39.670  13.954
56432W        W28103  27.469   6.720  10.628
56433W        W28104   2.525   5.251   4.639
56434W        W28105  40.480  38.297   2.447
56435W        W28106  40.315   0.002   1.228
56436W        W28107  25.018   5.765  12.967
56437W        W28108  32.770  33.965   2.561
56438W        W28109  17.550  23.506   4.044
56439W        W28110  42.535  20.032  11.994
56440W        W28111  37.461  24.035  10.690
56441W        W28112  31.907  17.099  13.154
56442W        W28113   7.338  15.519   1.889
56443W        W28114  32.173  36.246  14.317
56444W        W28115   8.672  38.257   3.507
56445W        W28116  44.988  21.577   2.172
56446W        W28117   1.745  34.964  12.465
56447W        W28118  15.019  19.019  14.051
56448W        W28119  23.703  43.190   3.821
56449W        W28120  30.569  19.466   1.235
56450W        W28121   2.877  38.445   0.270
56451W        W28122  32.494  35.446  12.881
56452W        W28123  25.162  12.903   3.206
56453W        W28124  33.385  10.295   1.460
56454W        W28125  22.988   0.344   2.591
56455W        W28126  37.054  31.064   2.140
56456W        W28127  42.696  41.834  13.417
56457W        W28128   6.867  40.957  11.248
56458W        W28129  15.480   0.916   3.653
56459W        W28130  37.036  23.211  14.001
56460W        W28131  11.448  16.130  10.656
56461W        W28132  12.966   0.327  14.116
56462W        W28133   7.864  27.538  12.650
56463W        W28134  17.279  11.347   4.772
56464W        W28135   3.798  12.820  12.875
56465W        W28136  35.683   5.698  10.825
56466W        W28137   2.990  25.031   3.185
56467W        W28138  18.561  42.449  12.424
56468W        W28139  43.804  18.510  11.954
56469W        W28140   1.765  30.091   4.195
56470W        W28141  16.273  27.763  14.007
56471W        W28142  35.001  17.821   4.106
56472W        W28143  10.673  20.285  10.948
56473W        W28144   1.143  39.365  14.931
56474W        W28145  38.824   2.275  12.084
56475W        W28146   3.729   8.835  11.536
56476W        W28147  35.912  32.592  13.033
56477W        W28148  44.902  34.612   3.594
56478W        W28149  10.127  41.457   0.309
56479W        W28150  12.388  33.695  11.106
56480W        W28151  34.869   6.362  13.897
56481W        W28152  42.296  25.559   3.409
56482W        W28153  43.807  39.116  11.981
56483W        W28154  36.968  11.327  12.317
56484W        W28155  36.111  41.874  10.684
56485W        W28156  42.364  22.748   1.765
56486W        W28157  17.858  41.942   0.306
56487W        W28158   2.760  41.801   4.832
56488W        W28159  44.348  23.188   3.262
56489W        W28160  24.727  20.085   1.978
56490W        W28161  17.060  37.372  11.918
56491W        W28162  31.088  42.865   4.197
56492W        W28163  33.472  24.540   4.286
56493W        W28164  10.192  15.787   1.727
56494W        W28165   6.912  31.129  11.087
56495W        W28166  41.237  34.859  14.054
56496W        W28167  33.896  30.806   1.205
56497W        W28168  38.333  19.422   1.866
56498W        W28169  10.894   7.917   2.762
56499W        W28170   2.257  13.530  12.123
56500W        W28171  43.277  42.343  10.650
56501W        W28172  16.273  42.824   4.371
56502W        W28173  25.735  14.276   3.690
56503W        W28174  40.811  33.568   4.668
56504W        W28175  22.761   3.412  14.870
56505W        W28176  35.457   4.499   4.537
56506W        W28177   3.142  10.666   3.765
56507W        W28178  43.262  30.949  13.080
56508W        W28179  18.147   1.802  12.439
56509W        W28180  24.447  40.595  12.090
56510W        W28181  33.330  19.869   0.821
56511W        W28182  28.606  10.285   1.132
56512W        W28183  18.644  14.970   4.982
56513W        W28184  34.958  39.839  14.782
56514W        W28185  23.743   6.286   4.666
56515W        W28186  12.184  34.095  12.058
56516W        W28187  17.196  29.539   0.832
56517W        W28188  20.629  43.900  14.083
56518W        W28189  20.340   2.049   3.610
56519W        W28190  36.573  13.863  11.115
56520W        W28191  39.013  23.155   4.610
56521W        W28192  44.831  37.093  13.450
56522W        W28193  10.626  40.026  10.833
56523W        W28194   7.142  39.082   3.260
56524W        W28195  43.235  28.581   0.001
56525W        W28196  14.110   6.943   2.923
56526W        W28197   7.667  14.632   2.211
56527W        W28198   8.476   2.315  14.738
56528W        W28199  35.936   4.253   2.153
56529W        W28200  23.393  14.633   1.750
56530W        W28201  42.867  11.332  12.332
56531W        W28202  44.850  14.575   5.384
56532W        W28203  34.346  37.204  11.857
56533W        W28204  16.559  15.997   2.705
56534W        W28205  30.702  40.467   1.933
56535W        W28206   0.031  39.996   0.389
56536W        W28207  28.793  39.444   1.601
56537W        W28208  13.671  27.886  11.159
56538W        W28209  11.154  42.960  14.341
56539W        W28210   0.983  33.728  12.002
56540W        W28211   9.079  26.981   3.087
56541W        W28212  30.110   4.918   2.325
56542W        W28213  29.453  36.310   4.638
56543W        W28214  24.330   1.354   3.239
56544W        W28215  26.835  12.794  10.741
56545W        W28216  14.367  16.489   0.822
56546W        W28217  24.203   8.201   0.855
56547W        W28218  33.529   4.067  11.772
56548W        W28219   8.876  25.037  12.903
56549W        W28220  20.754   3.346   5.022
56550W        W28221  10.805   5.728   2.446
56551W        W28222  15.348  22.862   1.968
56552W        W28223  11.803  34.372   2.006
56553W        W28224  42.116  42.432   4.629
56554W        W28225   1.871  38.941   2.433
56555W        W28226  40.128   4.724  10.400
56556W        W28227  10.869  44.291  11.940
56557W        W28228  29.877  37.391   3.638
56558W        W28229  39.507   8.396   2.743
56559W        W28230  32.071  37.324  14.506
56560W        W28231  17.071  33.590  11.141
56561W        W28232   4.961  13.414  14.868
56562W        W28233  35.386   4.709  10.707
56563W        W28234  29.569   3.164   3.864
56564W        W28235  30.953  14.379  12.043
56565W        W28236   6.580  24.175  12.172
56566W        W28237  18.221  19.108   2.226
56567W        W28238   0.726  39.065   1.826
56568W        W28239  19.585   1.799  11.224
56569W        W28240  15.452  15.378  10.017
56570W        W28241  41.017  25.233   2.393
56571W        W28242   5.008  18.610   0.772
56572W        W28243  27.315  27.034  13.323
56573W        W28244  11.270  21.035   0.994
56574W        W28245  18.814  10.864   0.441
56575W        W28246   4.768  23.790   4.820
56576W        W28247  39.660  44.981   3.720
56577W        W28248  11.100  31.305   4.257
56578W        W28249   9.639   7.871   0.564
56579W        W28250  10.362  42.768  13.825
56580W        W28251   0.282  26.693  14.804
56581W        W28252   0.399  19.202  14.733
56582W        W28253  36.176   7.609  13.481
56583W        W28254  31.530   9.336   3.212
56584W        W28255  29.106   1.599  11.187
56585W        W28256  24.153  11.412  13.280
56586W        W28257  20.550  19.804   9.783
56587W        W28258  44.981  18.516  12.880
56588W        W28259  10.629  19.537   0.478
56589W        W28260  39.201   4.748  10.592
56590W        W28261  34.538  19.274   2.450
56591W        W28262  20.611  19.876   0.014
56592W        W28263  20.615  30.171  12.884
56593W        W28264  42.837  42.434  10.935
56594W        W28265  37.474  20.016   1.945
56595W        W28266  38.271   6.491  14.945
56596W        W28267  19.310   2.884   1.251
56597W        W28268  42.439  10.885   0.246
56598W        W28269  44.416  27.672   1.392
56599W        W28270  39.976  10.945   0.756
56600W        W28271  10.493  15.108  13.971
56601W        W28272   2.949  10.812   0.493
56602W        W28273   1.969  12.079   1.278
56603W        W28274   1.304  38.545  10.425
56604W        W28275  43.229  23.317   1.874
56605W        W28276  11.188  31.134   1.668
56606W        W28277  39.885   3.447   2.145
56607W        W28278   5.758  15.279   0.691
56608W        W28279  37.681   1.899   0.970
56609W        W28280  31.354  15.111   0.374
56610W        W28281  13.285  26.598   4.897
56611W        W28282  28.071  38.853  12.333
56612W        W28283  38.260  27.127  14.863
56613W        W28284  32.718  10.509  14.768
56614W        W28285  37.646  14.818  12.339
56615W        W28286  34.052   5.845   2.301
56616W        W28287  43.667   7.795  10.411
56617W        W28288   5.608  21.826   4.076
56618W        W28289  35.514  40.438  14.099
56619W        W28290  35.127  29.625   1.164
56620W        W28291  11.077  40.487  14.947
56621W        W28292  27.244  24.968  12.017
56622W        W28293  44.792  27.847   0.411
56623W        W28294  40.414  15.290   2.608
56624W        W28295   5.807  15.068  14.686
56625W        W28296  22.192   0.703   2.216
56626W        W28297  27.909  27.157   3.152
56627W        W28298  33.657  39.324   1.487
56628W        W28299  14.667  27.061  14.713
56629W        W28300   4.504  15.833  12.939
56630W        W28301   7.349   2.480   3.219
56631W        W28302  23.991  39.199  14.754
56632W        W28303  29.199  13.289   0.987
56633W        W28304  16.093  40.300  10.604
56634W        W28305  15.566  12.339   0.819
56635W        W28306  24.528  37.281   0.888
56636W        W28307  16.618   9.137  11.032
56637W        W28308  10.366  44.206  11.993
56638W        W28309   7.346  13.880   3.176
56639W        W28310  12.293  43.936   4.164
56640W        W28311  42.325  28.975  14.776
56641W        W28312  36.376   5.277   4.307
56642W        W28313  42.443   8.398   4.625
56643W        W28314  42.760   8.663   4.935
56644W        W28315  29.166  36.373   2.367
56645W        W28316  15.243  30.957   2.828
56646W        W28317   5.724   3.524   4.368
56647W        W28318  19.597  25.504   3.767
56648W        W28319  22.019  16.107   2.764
56649W        W28320  35.385  25.775   2.447
56650W        W28321  27.140  42.910  10.295
56651W        W28322  38.552  19.034   0.057
56652W        W28323  28.964   8.981  14.676
56653W        W28324  40.430  11.822   2.835
56654W        W28325  17.243  30.120  11.652
56655W        W28326   7.153  28.051   0.256
56656W        W28327   4.797  40.896  11.664
56657W        W28328   5.601  35.039   4.723
56658W        W28329  26.263  26.546  10.429
56659W        W28330  41.218  13.642  13.074
56660W        W28331  12.200  24.181   0.886
56661W        W28332  20.094  38.468   1.622
56662W        W28333  19.573  23.006   0.015
56663W        W28334  13.808  22.990  14.547
56664W        W28335  15.614  34.053   3.282
56665W        W28336  18.369  31.452   3.790
56666W        W28337  33.697  17.761   0.329
56667W        W28338  24.687  35.633  10.640
56668W        W28339  28.014  29.836   1.349
56669W        W28340  15.329  37.182  13.347
56670W        W28341  10.603  43.226   3.312
56671W        W28342  20.609  25.304  13.030
56672W        W28343   0.851  36.607   2.243
56673W        W28344  44.840  21.212  11.248
56674W        W28345   6.375  28.608  13.638
56675W        W28346  30.581   7.593  11.221
56676W        W28347  28.205  22.662   2.841
56677W        W28348   2.454  31.631  14.129
56678W        W28349  26.936  43.572  14.327
56679W        W28350  19.202  34.007   3.149
56680W        W28351  40.609  11.653   1.942
56681W        W28352  28.563   3.279   4.790
56682W        W28353  11.294  11.571   4.092
56683W        W28354   1.667   1.255  14.120
56684W        W28355  44.498  18.811  13.637
56685W        W28356  12.554  19.061   3.677
56686W        W28357  10.325  24.529  12.214
56687W        W28358  22.004   6.890   3.542
56688W        W28359  15.624  13.901   4.214
56689W        W28360  39.090   1.174   1.366
56690W        W28361  19.208  10.276   1.556
56691W        W28362  14.383  35.527  14.934
56692W        W28363  11.081  10.678   3.628
56693W        W28364  17.833  26.203   3.227
56694W        W28365  14.745   6.244  13.359
56695W        W28366  27.220  41.043   0.861
56696W        W28367  23.966  39.392   5.453
56697W        W28368  13.566  19.573   0.286
56698W        W28369  44.838  15.503   3.778
56699W        W28370  20.043  29.184   3.928
56700W        W28371  27.722   8.976   4.051
56701W        W28372  15.157  31.584  14.394
56702W        W28373  40.940  35.482  10.775
56703W        W28374  31.675  12.191   2.627
56704W        W28375  35.324  24.262   0.945
56705W        W28376  17.040   2.562   0.386
56706W        W28377  26.544  13.174   2.910
56707W        W28378   1.050  38.691  14.513
56708W        W28379  40.866   6.199   3.670
56709W        W28380  11.826   7.983  13.928
56710W        W28381   6.064   9.142  13.402
56711W        W28382   3.927   8.257   4.108
56712W        W28383  33.381  17.093   3.170
56713W        W28384  40.483   2.793   0.430
56714W        W28385  42.356  14.811   0.749
56715W        W28386  37.568  40.269  11.662
56716W        W28387  15.557  12.859   3.358
56717W        W28388  30.066  16.285   1.564
56718W        W28389  32.610  26.068  11.596
56719W        W28390  27.912   8.103  11.461
56720W        W28391  17.753  24.184  14.503
56721W        W28392  39.877  28.739  12.114
56722W        W28393  35.810  14.173   0.936
56723W        W28394   5.874   3.157  13.857
56724W        W28395  22.969  16.211  12.797
56725W        W28396  34.573  32.569   0.865
56726W        W28397  40.874  40.872   4.119
56727W        W28398  32.830   6.896  12.399
56728W        W28399  35.017  29.765  11.225
56729W        W28400  44.449   6.773  12.368
56730W        W28401  42.888   4.854   1.759
56731W        W28402   5.905  28.184  14.072
56732W        W28403  17.494  33.362  11.996
56733W        W28404  25.162  30.626   3.690
56734W        W28405   2.397  23.272  12.468
56735W        W28406  12.279  30.076  12.429
56736W        W28407  34.912  18.366   9.498
56737W        W28408  34.607   1.815   5.054
56738W        W28409  17.306  43.939  11.222
56739W        W28410  24.595   2.909   1.831
56740W        W28411  27.994  17.972  12.153
56741W        W28412   7.992   0.735   5.084
56742W        W28413  12.835  33.459  12.353
56743W        W28414  21.213   8.287   4.165
56744W        W28415  42.900  25.603   0.569
56745W        W28416  26.607  37.287  13.475
56746W        W28417  14.335  44.121   0.022
56747W        W28418  30.044   8.011   2.760
56748W        W28419  44.196  33.496  11.600
56749W        W28420  35.350  15.993  14.396
56750W        W28421  21.268   1.527   0.397
56751W        W28422  25.404  27.469   1.785
56752W        W28423   1.716   4.715   2.331
56753W        W28424   2.853  44.311  11.897
56754W        W28425  17.677   0.568   4.604
56755W        W28426  31.183  10.689   2.408
56756W        W28427  32.452  27.888  10.392
56757W        W28428  28.437  15.393   1.352
56758W        W28429   9.743  37.420  12.419
56759W        W28430  30.927  12.158  11.741
56760W        W28431  16.363  18.669  14.001
56761W        W28432  29.629  15.674   0.375
56762W        W28433  35.712   4.541   1.221
56763W        W28434  33.381  35.340  12.084
56764W        W28435  11.484   3.515  14.301
56765W        W28436   7.361  12.998  11.688
56766W        W28437   4.765  21.371  12.359
56767W        W28438  36.258  32.136   1.402
56768W        W28439  41.412   2.052  14.357
56769W        W28440  19.802  38.858  12.049
56770W        W28441  42.593  19.169   3.118
56771W        W28442  42.597  34.576  14.101
56772W        W28443  13.891  39.328   2.271
56773W        W28444   3.987  34.934   3.404
56774W        W28445  12.650   8.409  14.463
56775W        W28446   5.316  38.177  10.497
56776W        W28447   9.693  14.697  14.777
56777W        W28448  26.158  22.122   4.351
56778W        W28449  41.824  41.094   4.986
56779W        W28450  42.485   5.306   2.388
56780W        W28451  37.858  39.132   3.650
56781W        W28452   2.186  28.464   4.635
56782W        W28453  23.153   6.461  13.470
56783W        W28454   8.859  40.544   3.821
56784W        W28455  38.847   9.193   3.035
56785W        W28456  42.745  26.582  14.102
56786W        W28457  17.537  12.077   1.165
56787W        W28458  29.646  10.768  14.829
56788W        W28459  12.429  20.198   1.770
56789W        W28460  39.494  24.095   1.680
56790W        W28461  27.662  24.137   0.240
56791W        W28462  31.432   8.087  14.097
56792W        W28463  33.933  23.108   2.300
56793W        W28464  16.786  12.884  14.065
56794W        W28465  36.932  21.967   3.261
56795W        W28466  15.852   9.467   1.347
56796W        W28467  12.723   9.212  13.748
56797W        W28468  17.787  32.103  12.341
56798W        W28469  16.473   4.136   3.686
56799W        W28470  41.322  40.829  11.096
56800W        W28471  16.081  37.440  11.122
56801W        W28472  41.185  42.878  10.787
56802W        W28473  44.930  22.175   3.370
56803W        W28474  10.149  36.929   0.947
56804W        W28475  31.646   7.728   4.310
56805W        W28476  33.163  27.584  12.519
56806W        W28477  40.554  39.444  11.308
56807W        W28478  35.938  33.662   4.004
56808W        W28479  33.505  20.178   3.212
56809W        W28480  42.725  35.465   2.817
56810W        W28481  43.711  31.512   3.261
56811W        W28482   6.148  19.995  14.361
56812W        W28483  28.234  38.368   0.461
56813W        W28484  36.385  15.527  12.576
56814W        W28485   3.006  40.796  11.174
56815W        W28486  29.583   0.425   0.948
56816W        W28487  25.672  29.501  10.526
56817W        W28488  22.742  41.976   2.362
56818W        W28489  40.590   7.860  10.788
56819W        W28490   5.274  44.424  11.412
56820W        W28491  27.251  12.191   1.760
56821W        W28492   8.680  37.843   0.810
56822W        W28493  17.872   5.261   1.099
56823W        W28494  10.087  37.505  12.832
56824W        W28495   8.362  24.475   1.846
56825W        W28496  26.109   7.195   1.948
56826W        W28497   7.054  39.405  11.472
56827W        W28498  39.992  31.600   2.891
56828W        W28499  33.072  26.276   2.732
56829W        W28500   5.217  16.110  13.331
56830W        W28501  23.053  38.118  10.077
56831W        W28502  24.585  32.569   0.133
56832W        W28503  27.418  24.078   4.170
56833W        W28504  26.235  14.306  14.878
56834W        W28505  39.195  18.097  10.227
56835W        W28506   4.691  29.433   0.296
56836W        W28507   0.464  21.149  12.403
56837W        W28508   9.648  26.514  11.700
56838W        W28509  30.392   3.750   4.093
56839W        W28510   8.742  39.704  10.688
56840W        W28511  28.808   6.843   4.658
56841W        W28512  33.235  23.184  11.537
56842W        W28513  38.052  36.067  11.619
56843W        W28514  26.945   7.388   1.787
56844W        W28515  31.553  37.594   0.822
56845W        W28516  18.483  40.071   3.744
56846W        W28517  42.807  31.328   3.138
56847W        W28518  22.921  31.825  13.425
56848W        W28519   6.863  13.592   0.700
56849W        W28520  30.983  37.135  11.532
56850W        W28521   6.669  37.311  12.444
56851W        W28522   9.533  27.979  11.480
56852W        W28523  14.340  25.277   1.418
56853W        W28524  18.684  28.883  12.576
56854W        W28525   3.021   7.343   1.783
56855W        W28526  13.683  36.489  13.491
56856W        W28527  34.087   2.849  14.855
56857W        W28528  20.204   0.431  13.456
56858W        W28529  16.960  43.571  13.327
56859W        W28530   5.415  14.659   3.982
56860W        W28531  23.892  21.238   3.798
56861W        W28532  40.876  24.450  10.807
56862W        W28533  31.435  11.604   1.686
56863W        W28534   3.788  34.396   2.549
56864W        W28535  12.685  34.184   0.348
56865W        W28536   1.647  24.401  14.346
56866W        W28537  14.268  10.739  12.429
56867W        W28538  17.298  41.761  11.606
56868W        W28539  18.244  10.751  14.083
56869W        W28540  44.006  36.893  10.588
56870W        W28541  10.770  34.646  14.842
56871W        W28542  32.563  16.093  13.994
56872W        W28543  13.795  30.422  12.913
56873W        W28544   9.209   3.132  12.929
56874W        W28545   0.043  11.807   3.044
56875W        W28546  35.644   7.947  14.799
56876W        W28547  10.409   9.823   1.140
56877W        W28548   3.023  11.691   1.798
56878W        W28549  20.624  35.543   0.468
56879W        W28550  40.864  33.865  13.395
56880W        W28551  16.878   8.829   1.132
56881W        W28552  30.479  20.707   2.689
56882W        W28553  44.901  43.384  14.291
56883W        W28554  14.315  12.877   3.762
56884W        W28555  10.757  33.433  12.500
56885W        W28556  37.969  36.649   4.348
56886W        W28557  29.430  18.443  10.187
56887W        W28558  25.506  32.431  11.558
56888W        W28559  35.360  35.936   0.026
56889W        W28560  33.659  25.281   0.211
56890W        W28561  11.906  41.063   3.239
56891W        W28562   6.374  28.995  13.308
56892W        W28563  28.106   6.626  10.200
56893W        W28564  37.970   7.986   3.249
56894W        W28565  41.041  42.791   1.669
56895W        W28566   2.905  18.553  14.865
56896W        W28567  34.522   5.331  11.694
56897W        W28568  10.384  16.745   1.753
56898W        W28569  38.273  12.753  13.559
56899W        W28570   4.645  31.189   0.802
56900W        W28571   5.568  14.759   0.036
56901W        W28572   1.031  20.581   1.954
56902W        W28573  27.893   7.138  14.527
56903W        W28574  11.608  44.263   3.294
56904W        W28575   5.000   1.369  12.984
56905W        W28576   4.630  25.609   4.095
56906W        W28577  20.070   9.424  11.538
56907W        W28578   9.404   5.238   2.730
56908W        W28579   2.737  29.826   1.896
56909W        W28580  30.700  43.248   3.615
56910W        W28581  39.530  30.504   3.808
56911W        W28582   3.012  12.308  11.116
56912W        W28583  36.402   4.506   2.245
56913W        W28584   1.392  28.631   3.134
56914W        W28585  43.374  26.117  14.372
56915W        W28586  23.493  18.743  12.456
56916W        W28587  35.824   7.241   1.419
56917W        W28588   4.834  12.076  13.562
56918W        W28589  40.549   1.002   5.001
56919W        W28590  22.650  41.860   3.727
56920W        W28591  43.927  43.319  12.449
56921W        W28592  25.888  17.043   4.194
56922W        W28593  20.029  44.784   4.520
56923W        W28594  40.533  21.811   0.728
56924W        W28595  26.002  29.638  12.058
56925W        W28596  39.023  32.981   1.783
56926W        W28597  42.807  18.302   5.119
56927W        W28598  39.584  22.611   3.857
56928W        W28599   7.775  18.048  10.733
56929W        W28600  18.610   5.295  13.094
56930W        W28601  38.850  23.761  13.902
56931W        W28602   5.891  36.112   2.645
56932W        W28603  35.648  16.738  14.842
56933W        W28604   3.428  40.033  12.063
56934W        W28605  34.329  38.624  10.786
56935W        W28606  35.607  19.992  14.578
56936W        W28607  38.596  17.848  11.022
56937W        W28608  39.816  35.342  11.978
56938W        W28609  10.438  34.573   3.267
56939W        W28610  38.779   1.891  11.735
56940W        W28611  30.143  37.390   0.868
56941W        W28612   7.698  36.607  11.232
56942W        W28613  13.319   4.240  10.536
56943W        W28614   3.819  27.021   0.916
56944W        W28615  27.503  25.941   1.964
56945W        W28616   8.786  42.455  11.385
56946W        W28617  17.236  26.127   9.956
56947W        W28618   2.660  43.768  12.535
56948W        W28619  14.072  44.316  11.652
56949W        W28620  14.700  18.033   0.740
56950W        W28621  36.470  13.327   3.374
56951W        W28622  44.496   3.203   2.333
56952W        W28623  40.169  18.243   2.051
56953W        W28624   4.976  20.199  10.173
56954W        W28625   1.125  32.510  13.313
56955W        W28626  27.410   7.190   0.617
56956W        W28627  22.569  21.734   3.176
56957W        W28628  23.491  44.481   0.942
56958W        W28629   2.631   4.882  10.919
56959W        W28630  39.012   9.132   2.549
56960W        W28631  30.888   0.902  11.426
56961W        W28632   6.364  27.655   3.191
56962W        W28633  22.997  11.395   2.716
56963W        W28634  21.550  25.188   3.379
56964W        W28635  25.261  34.391  10.570
56965W        W28636   0.938  33.817   3.745
56966W        W28637   7.682  43.657   0.152
56967W        W28638  33.405  41.037   3.708
56968W        W28639  20.687  13.474  11.887
56969W        W28640   5.615   4.464  14.390
56970W        W28641  24.310  27.829   2.396
56971W        W28642   5.708  37.616  11.199
56972W        W28643  39.045  27.158   1.724
56973W        W28644   5.094  12.892   4.557
56974W        W28645  25.649  26.177  11.125
56975W        W28646  24.739  37.062  11.668
56976W        W28647  10.200  36.966   3.886
56977W        W28648  33.820  29.933  11.454
56978W        W28649  42.245   4.432   3.345
56979W        W28650  24.088  21.435   3.379
56980W        W28651  36.124  20.615   0.486
56981W        W28652  35.062  17.580  12.062
56982W        W28653   3.221  11.119   0.798
56983W        W28654   0.231  34.655   3.199
56984W        W28655  23.149  37.587   1.272
56985W        W28656  37.049  12.709   2.349
56986W        W28657  17.920  25.697   3.316
56987W        W28658  36.526  30.092  13.878
56988W        W28659  32.072  10.414   3.048
56989W        W28660  10.245  14.103   4.631
56990W        W28661  33.450  38.314  13.525
56991W        W28662  29.638   0.857   2.135
56992W        W28663  37.269   8.395  14.157
56993W        W28664  38.838  20.006  13.010
56994W        W28665   7.220  12.527   0.500
56995W        W28666   4.377  11.966  11.365
56996W        W28667  19.280  29.638   1.047
56997W        W28668  18.442  26.084   4.172
56998W        W28669  38.954  12.072  10.632
56999W        W28670   3.324   8.298   4.623
57000W        W28671  30.553  32.610  13.184
57001W        W28672  14.856   8.420   0.834
57002W        W28673   6.467  27.699   2.192
57003W        W28674  29.208  38.432  11.151
57004W        W28675  16.148  29.654   0.834
57005W        W28676  11.548  30.604  11.538
57006W        W28677  23.592  42.586   2.658
57007W        W28678  43.122  22.571  13.124
57008W        W28679   2.702  36.334  12.934
57009W        W28680  12.999  28.937  11.417
57010W        W28681  12.359  43.872  13.573
57011W        W28682   3.651   9.660   4.771
57012W        W28683  14.097  42.192   2.450
57013W        W28684  16.409   0.044  11.077
57014W        W28685  33.994  16.837   2.592
57015W        W28686  15.564  19.419  10.804
57016W        W28687   9.284  24.611  14.376
57017W        W28688  30.572  24.016  14.322
57018W        W28689  25.532  44.842   4.521
57019W        W28690   5.992  11.803  14.291
57020W        W28691  25.685  25.574   1.240
57021W        W28692  33.773  27.940  11.407
57022W        W28693  42.140  29.794  11.681
57023W        W28694  27.941  35.167  12.810
57024W        W28695  12.278   4.191   1.285
57025W        W28696  25.156  23.899   3.682
57026W        W28697  12.712  30.168   2.203
57027W        W28698  28.501   5.779   2.165
57028W        W28699   5.989   4.266   0.807
57029W        W28700  43.448  32.117   0.943
57030W        W28701  30.844  40.945  12.347
57031W        W28702   4.252   0.059  14.875
57032W        W28703  42.920   7.132   2.459
57033W        W28704  28.570  25.274   2.392
57034W        W28705   0.410  33.152  13.491
57035W        W28706   1.296  21.233  12.004
57036W        W28707  21.598   0.754  10.661
57037W        W28708  19.197  24.048  14.365
57038W        W28709   2.875  19.802  11.012
57039W        W28710  34.473  41.875  12.615
57040W        W28711  34.048  15.304  12.169
57041W        W28712  24.919  18.766  11.156
57042W        W28713  41.129   5.047  10.234
57043W        W28714   6.295  42.532  11.594
57044W        W28715  28.691  33.926  10.650
57045W        W28716  21.281  32.060  12.205
57046W        W28717  10.839  29.529   4.328
57047W        W28718  18.554  40.048  14.999
57048W        W28719  35.586   4.816   3.675
57049W        W28720  22.008  32.926   4.606
57050W        W28721  15.160  44.387   0.050
57051W        W28722  18.650  44.638  13.601
57052W        W28723   5.245  11.169  14.529
57053W        W28724  16.285  44.225  10.945
57054W        W28725   0.656  23.222   2.675
57055W        W28726  14.319  25.283   2.288
57056W        W28727  39.395  21.588   2.866
57057W        W28728   6.745  17.390   3.021
57058W        W28729  35.237  12.507   5.027
57059W        W28730  26.810  11.635   2.385
57060W        W28731  43.464  22.110  11.985
57061W        W28732  15.216  18.002   2.597
57062W        W28733   5.860   9.526  13.701
57063W        W28734  43.063  27.499   3.203
57064W        W28735  18.338   4.301  11.536
57065W        W28736   7.290   3.278  13.022
57066W        W28737  44.130  22.446   4.535
57067W        W28738  36.509  23.591  14.540
57068W        W28739  42.609   0.816   3.994
57069W        W28740   8.428  31.361   0.384
57070W        W28741  10.431  16.468   0.709
57071W        W28742  11.120  23.595   1.403
57072W        W28743  34.669  32.584  14.249
57073W        W28744  14.007  21.976  14.623
57074W        W28745  19.097  31.800  14.377
57075W        W28746  39.597  22.552  11.911
57076W        W28747   2.826  17.137  14.967
57077W        W28748   5.204   1.712  14.994
57078W        W28749  35.645  40.045   2.578
57079W        W28750  33.105  43.738   3.681
57080W        W28751  32.978  31.483   1.716
57081W        W28752  24.617  39.174   9.822
57082W        W28753  18.413  25.487   2.847
57083W        W28754   6.449   4.863   2.732
57084W        W28755  30.504  40.462   1.452
57085W        W28756  10.178  35.632   3.182
57086W        W28757  40.220  37.319   2.319
57087W        W28758  25.771  26.202   5.053
57088W        W28759   9.268  42.091  13.350
57089W        W28760   8.143  33.518   1.033
57090W        W28761  15.550  17.124  13.886
57091W        W28762   2.061   2.658  14.852
57092W        W28763  19.509   4.248  13.007
57093W        W28764  17.817  44.827   3.322
57094W        W28765   6.300  43.451  13.434
57095W        W28766   5.321   2.123   0.322
57096W        W28767   7.254   0.035   0.692
57097W        W28768  16.589  20.050  13.637
57098W        W28769  39.288  44.939  11.874
57099W        W28770  32.921  32.084   0.875
57100W        W28771  13.876  37.368  10.492
57101W        W28772  24.074  39.721  10.075
57102W        W28773   5.716   8.402   3.308
57103W        W28774   3.531   7.262   1.709
57104W        W28775   5.724  31.250   2.672
57105W        W28776  20.694  12.367  13.120
57106W        W28777  42.331  13.295  10.671
57107W        W28778  29.438  28.602  13.045
57108W        W28779   6.451  22.535   3.712
57109W        W28780  24.995   8.702   1.670
57110W        W28781  21.118  36.285   2.700
57111W        W28782  29.103  36.884   0.247
57112W        W28783   4.866   3.760   2.920
57113W        W28784   4.405  20.815   4.820
57114W        W28785  34.125  14.686  14.978
57115W        W28786  34.542  18.817  14.101
57116W        W28787  39.961  25.202   4.061
57117W        W28788  27.262  29.247  11.330
57118W        W28789  42.352  19.990  13.107
57119W        W28790  37.198  11.069  11.948
57120W        W28791  33.508   1.845  11.205
57121W        W28792  42.488  25.951  10.771
57122W        W28793  38.987  44.275  13.176
57123W        W28794  35.489   6.252   2.659
57124W        W28795   4.582   8.656   2.625
57125W        W28796  36.483  39.931  10.979
57126W        W28797  12.236  28.410   1.525
57127W        W28798  28.581  39.928   2.383
57128W        W28799  17.083  37.891  12.613
57129W        W28800  21.979  40.350   3.648
57130W        W28801  32.117   2.773   1.602
57131W        W28802   2.017   7.386   4.204
57132W        W28803   5.423   3.704   0.365
57133W        W28804   1.023  21.109  12.910
57134W        W28805   4.696  33.597   2.716
57135W        W28806  44.676   5.859  12.115
57136W        W28807  17.387  16.278  10.557
57137W        W28808  43.708  16.752   2.267
57138W        W28809  14.902  19.176   2.292
57139W        W28810   3.680  25.811  12.185
57140W        W28811  30.034  31.921   4.805
57141W        W28812  26.306  44.835  10.958
57142W        W28813  37.361  19.666   0.700
57143W        W28814  10.073  38.267   1.294
57144W        W28815  32.480  44.257  14.429
57145W        W28816  34.907  14.748  11.556
57146W        W28817  25.141  19.320  12.506
57147W        W28818   3.491   2.952  12.394
57148W        W28819  15.233   6.638  13.472
57149W        W28820   9.640  29.565  14.234
57150W        W28821   5.099   9.362   3.162
57151W        W28822   7.523  26.687   1.427
57152W        W28823  10.079  39.601   2.809
57153W        W28824   2.886  12.630   4.924
57154W        W28825  11.592   3.787  13.359
57155W        W28826   2.940  33.202   4.971
57156W        W28827   4.731  41.357   1.431
57157W        W28828  12.412  32.460   3.271
57158W        W28829  16.851  19.246  13.396
57159W        W28830  34.296  44.761   2.291
57160W        W28831  17.180   4.670  14.641
57161W        W28832  31.487  22.426  14.986
57162W        W28833   5.843  19.655   2.613
57163W        W28834  11.764  21.744  12.332
57164W        W28835  28.644   4.363  12.503
57165W        W28836  42.823  21.065  12.600
57166W        W28837   4.502  35.018   1.748
57167W        W28838  17.670  31.015   0.248
57168W        W28839  31.130  32.502   4.232
57169W        W28840   9.111  27.276  12.992
57170W        W28841  12.792   2.215   4.174
57171W        W28842  35.098  22.126  12.563
57172W        W28843  37.451   7.177  10.600
57173W        W28844  24.192  12.449  12.086
57174W        W28845   2.452  27.918  13.937
57175W        W28846  35.846   7.350   3.318
57176W        W28847  19.193  22.712   4.934
57177W        W28848  43.967  16.067  13.484
57178W        W28849  37.512  33.488   1.332
57179W        W28850   8.776  14.182  10.296
57180W        W28851  18.622  10.629  13.335
57181W        W28852  25.747  23.658   3.254
57182W        W28853  22.672   6.969  14.990
57183W        W28854   9.666  38.447  10.682
57184W        W28855  19.826   8.842  13.719
57185W        W28856  21.328  30.019   0.287
57186W        W28857  31.022  32.104  12.062
57187W        W28858  34.854   7.816  12.468
57188W        W28859  18.728  43.204   4.363
57189W        W28860  40.001  19.789   3.178
57190W        W28861  31.692  10.218   1.744
57191W        W28862  10.881  29.419   2.507
57192W        W28863  21.030  14.803  12.844
57193W        W28864   4.657  30.280   0.982
57194W        W28865  20.539  18.828  12.441
57195W        W28866  32.457  32.976   1.833
57196W        W28867  34.145   0.788  13.043
57197W        W28868  19.066   4.017  11.092
57198W        W28869  19.454  44.736   1.855
57199W        W28870  14.159  30.802  12.475
57200W        W28871  24.621  43.827   1.662
57201W        W28872  37.622  16.573   3.432
57202W        W28873  23.243  26.302  11.653
57203W        W28874   7.953  13.330  14.909
57204W        W28875  17.548  19.921   3.153
57205W        W28876   6.194  43.328  10.213
57206W        W28877  43.078  20.565   4.667
57207W        W28878  34.964  43.997   3.131
57208W        W28879   7.441  12.577   1.439
57209W        W28880  15.112  36.474  14.960
57210W        W28881  37.743  28.744   4.879
57211W        W28882  13.032  15.995  13.369
57212W        W28883  15.378   4.483   9.663
57213W        W28884  40.430  16.650  11.898
57214W        W28885  28.767  33.486   4.779
57215W        W28886  20.886  27.008   4.519
57216W        W28887   4.005   6.079  11.243
57217W        W28888  32.919  42.228  13.487
57218W        W28889  15.815  27.812  14.345
57219W        W28890  14.095  42.026  11.688
57220W        W28891   7.951   4.388   1.458
57221W        W28892  28.742  26.427   1.012
57222W        W28893  27.025  29.514   2.236
57223W        W28894  30.636  24.028  13.762
57224W        W28895  33.537  40.600  13.962
57225W        W28896  36.487  16.756  12.903
57226W        W28897   4.328  39.853   0.377
57227W        W28898  25.645  20.287  11.891
57228W        W28899  11.911  33.433   1.823
57229W        W28900  23.284  22.096   1.972
57230W        W28901  30.314   8.983   0.074
57231W        W28902  37.355  24.764   2.431
57232W        W28903   8.726  26.401   1.424
57233W        W28904  25.031  23.720   0.847
57234W        W28905   4.503  43.315   4.274
57235W        W28906  42.985  30.597   1.425
57236W        W28907  22.621  33.925  11.025
57237W        W28908   4.358  25.171   4.120
57238W        W28909  37.394  31.722  13.392
57239W        W28910   5.885  17.102  14.856
57240W        W28911  24.712   6.039   0.978
57241W        W28912  26.741  40.811   4.097
57242W        W28913   0.897  20.288  13.970
57243W        W28914  41.438  36.083  12.469
57244W        W28915   0.920  26.234   2.756
57245W        W28916   0.251  18.156   4.607
57246W        W28917  13.575  21.473   2.249
57247W        W28918  44.493  22.701   3.813
57248W        W28919  40.758   7.789  12.733
57249W        W28920   1.297  21.095  11.493
57250W        W28921  43.738   7.614   3.149
57251W        W28922   3.026  35.094  14.379
57252W        W28923  27.697  10.409   0.043
57253W        W28924  17.810   3.468   1.427
57254W        W28925  20.731   6.405  12.082
57255W        W28926  42.968  38.657   3.332
57256W        W28927  39.054  24.142   2.366
57257W        W28928  18.215   7.684  11.842
57258W        W28929  22.665  27.882  14.983
57259W        W28930  33.579  16.100  14.048
57260W        W28931  42.084  33.047  10.472
57261W        W28932  37.249   4.443  11.647
57262W        W28933  31.963   3.183  13.055
57263W        W28934   8.804  15.272   1.428
57264W        W28935  38.485  15.317  12.403
57265W        W28936  29.195  15.638   4.702
57266W        W28937   5.990  30.581  12.905
57267W        W28938  23.843  35.987  10.388
57268W        W28939  13.656  11.414  11.442
57269W        W28940   6.960  38.427  13.528
57270W        W28941  14.092  27.572   1.443
57271W        W28942  29.675  25.028   0.858
57272W        W28943  14.040   5.223   0.508
57273W        W28944   7.612   9.845  13.720
57274W        W28945  26.759  40.371  13.782
57275W        W28946  22.633   7.124   4.611
57276W        W28947  43.428  27.582   4.617
57277W        W28948  33.097  14.829   3.080
57278W        W28949  10.882   9.748   1.376
57279W        W28950  16.798  15.767   0.361
57280W        W28951   0.755  38.181   4.732
57281W        W28952  28.448   6.623  13.833
57282W        W28953   7.253   4.754  13.596
57283W        W28954  20.970  42.878   4.975
57284W        W28955   1.767  14.105  12.791
57285W        W28956  29.974   5.682  14.310
57286W        W28957  39.997  37.021   2.900
57287W        W28958  17.613  34.806   1.497
57288W        W28959  20.071  25.746   5.028
57289W        W28960  35.675  31.880  11.141
57290W        W28961  41.374  39.129   3.364
57291W        W28962  17.291  29.957   3.110
57292W        W28963  42.296  12.539  12.882
57293W        W28964  23.995  23.995  13.366
57294W        W28965  37.633  26.491  13.286
57295W        W28966  38.340  13.426  14.545
57296W        W28967  19.691  38.318   2.850
57297W        W28968  16.549   5.726  14.830
57298W        W28969  24.799  23.220  13.357
57299W        W28970   2.859   7.486   2.275
57300W        W28971  31.641  13.609  12.085
57301W        W28972   4.798  10.585   0.322
57302W        W28973  39.111  30.802   5.090
57303W        W28974  20.419  13.600  12.296
57304W        W28975  37.912  30.074   3.262
57305W        W28976  22.890  10.001  13.122
57306W        W28977  41.219  34.886   1.298
57307W        W28978  44.318  16.880   0.160
57308W        W28979  18.680  37.978   2.874
57309W        W28980   0.508  28.454  12.086
57310W        W28981  34.180  32.966   4.279
57311W        W28982  23.239  39.553   3.739
57312W        W28983  19.563   4.509   3.122
57313W        W28984  15.677  16.361  14.421
57314W        W28985  19.060  11.414  11.403
57315W        W28986  35.462  18.735   1.270
57316W        W28987  40.732  19.620   1.620
57317W        W28988  28.999  21.573   2.235
57318W        W28989  38.426  18.087   0.379
57319W        W28990  30.885  44.598   2.013
57320W        W28991  24.353   3.357  11.148
57321W        W28992   6.310   2.570   0.442
57322W        W28993  33.436  34.880   0.854
57323W        W28994   5.849  25.940   0.030
57324W        W28995  29.909  29.708  12.037
57325W        W28996  41.008  11.274   1.852
57326W        W28997  41.491  38.141  12.471
57327W        W28998  23.578  18.520  11.111
57328W        W28999  41.090  36.041   0.068
57329W        W29000  22.093  35.787   3.199
57330W        W29001  31.390  42.513  14.322
57331W        W29002  34.880  26.437   4.207
57332W        W29003  26.459  29.009   1.817
57333W        W29004  19.473  31.904  11.045
57334W        W29005  23.614  32.840  13.930
57335W        W29006  28.612  17.537  11.631
57336W        W29007  34.015  30.399  10.659
57337W        W29008  29.596   0.038  10.753
57338W        W29009   3.824   4.093  13.874
57339W        W29010   0.948  26.159  12.136
57340W        W29011   8.922  44.246  13.064
57341W        W29012  36.907   7.166  11.590
57342W        W29013  14.048  34.214   2.627
57343W        W29014  30.502  30.695   3.168
57344W        W29015  39.373   0.479   2.518
57345W        W29016  42.479   6.533  12.102
57346W        W29017  44.970  15.791   1.753
57347W        W29018  25.028   1.029  12.805
57348W        W29019  19.674  35.865  10.719
57349W        W29020  14.545  43.417  12.574
57350W        W29021   1.072  25.083  12.712
57351W        W29022  12.902  44.465   2.789
57352W        W29023  34.476  36.307  12.083
57353W        W29024   7.620  19.046  12.511
57354W        W29025   2.513  32.636  11.464
57355W        W29026  31.643  26.882   4.857
57356W        W29027  12.295  16.583   4.133
57357W        W29028  10.764  20.501   2.824
57358W        W29029  10.944   1.392  11.663
57359W        W29030  22.691  19.946   4.865
57360W        W29031  42.207  41.024  12.056
57361W        W29032   6.304  32.656  14.715
57362W        W29033  25.577  24.392  12.669
57363W        W29034  16.080  42.537   1.269
57364W        W29035  43.369  20.341  12.866
57365W        W29036  30.856   1.413  13.592
57366W        W29037   4.111  39.382   1.594
57367W        W29038  29.973   4.439   0.440
57368W        W29039  12.129  42.889  14.733
57369W        W29040   9.787  13.075  14.304
57370W        W29041  21.320  21.746  12.294
57371W        W29042  29.580  42.794  14.531
57372W        W29043  39.038  10.696   1.156
57373W        W29044  29.472   2.708   0.262
57374W        W29045  33.846  40.022  13.953
57375W        W29046   0.181  12.030   1.309
57376W        W29047  20.842   6.947  12.049
57377W        W29048  30.699  24.720   4.086
57378W        W29049  36.069  14.677   1.004
57379W        W29050  22.125  27.488   4.132
57380W        W29051   7.879  23.959  14.671
57381W        W29052  13.349  30.251   1.168
57382W        W29053  43.176  43.462  11.848
57383W        W29054  16.002  20.127   4.290
57384W        W29055  20.605   1.340  12.064
57385W        W29056  32.604  20.545  14.228
57386W        W29057   7.298  32.405   2.159
57387W        W29058  24.039  35.391  14.540
57388W        W29059   8.616  19.796   0.359
57389W        W29060  21.014  40.086  10.576
57390W        W29061   4.032  26.120  11.411
57391W        W29062  37.483  18.163   4.404
57392W        W29063  43.108  29.883   2.390
57393W        W29064   5.326  31.087  14.542
57394W        W29065  23.004  44.482  12.381
57395W        W29066  39.386  41.056   2.290
57396W        W29067  32.249  39.545   0.833
57397W        W29068  27.917  11.719  11.145
57398W        W29069   8.825  40.127   1.431
57399W        W29070   3.310  33.877   1.169
57400W        W29071  29.135  38.946   3.538
57401W        W29072  43.430   0.048  12.823
57402W        W29073  15.335  40.788   1.785
57403W        W29074  21.072  27.485   3.244
57404W        W29075  22.049  30.381   5.095
57405W        W29076  32.990   3.496  11.580
57406W        W29077  20.146  26.894   2.206
57407W        W29078  43.052  20.183  14.914
57408W        W29079  22.677  35.429  14.890
57409W        W29080  20.052  29.667  14.846
57410W        W29081  31.003  18.626   1.180
57411W        W29082  11.802   7.908  11.064
57412W        W29083   8.708  41.996  13.095
57413W        W29084  27.481  10.423   3.576
57414W        W29085  38.437  30.959   1.209
57415W        W29086   0.500   6.567  11.120
57416W        W29087  18.835  43.870   4.677
57417W        W29088  41.118   6.664   4.415
57418W        W29089  41.721  41.177  14.852
57419W        W29090  19.788  35.333  11.654
57420W        W29091   9.267   0.454   0.558
57421W        W29092  21.019  27.002  12.472
57422W        W29093  42.463  33.157   1.238
57423W        W29094  43.466  34.702   1.324
57424W        W29095  24.014  14.684   3.923
57425W        W29096  32.632   6.323  12.452
57426W        W29097  41.431  11.259  11.482
57427W        W29098  35.022  21.959   3.332
57428W        W29099  30.222  35.609  12.038
57429W        W29100  21.584  20.238  13.509
57430W        W29101  24.104   9.700  14.016
57431W        W29102   9.203   6.271  12.843
57432W        W29103  41.595   2.840   4.033
57433W        W29104  33.851  44.931   2.094
57434W        W29105   4.519  22.474   0.180
57435W        W29106  21.577  14.285  14.911
57436W        W29107   5.265   9.668  14.229
57437W        W29108   2.657  32.493  12.177
57438W        W29109   8.414  25.261   4.572
57439W        W29110  32.909  41.504   1.798
57440W        W29111   4.446  13.755  13.369
57441W        W29112  27.370  27.850   3.239
57442W        W29113  28.410  34.361   2.366
57443W        W29114   3.867  25.447  11.211
57444W        W29115  27.962  40.717   3.791
57445W        W29116  14.040  13.318   3.683
57446W        W29117  41.658  36.560   0.476
57447W        W29118  30.642  31.538  10.789
57448W        W29119  22.390  19.706   1.203
57449W        W29120  34.488  28.264  12.821
57450W        W29121  23.273  14.849  13.937
57451W        W29122   1.535   5.249   4.514
57452W        W29123  37.797  32.656   4.685
57453W        W29124  35.588  42.685   3.268
57454W        W29125  30.376  13.338   3.715
57455W        W29126  13.880  10.812  14.397
57456W        W29127  32.566  13.558   2.463
57457W        W29128  23.525   8.198   2.883
57458W        W29129   3.852  33.618  11.573
57459W        W29130  28.629  13.141  12.467
57460W        W29131  21.973  39.740  13.617
57461W        W29132  13.188  35.368   1.476
57462W        W29133  34.009   3.446  13.553
57463W        W29134   5.847  37.795   1.795
57464W        W29135  28.748  26.624   0.054
57465W        W29136  23.724  12.288  13.489
57466W        W29137  31.782  29.391   2.774
57467W        W29138  15.793  14.913  13.178
57468W        W29139  44.700   0.863   1.964
57469W        W29140   1.195  44.785   2.265
57470W        W29141   7.944   4.515  12.860
57471W        W29142  40.718  37.381   0.288
57472W        W29143  21.477  43.933  10.904
57473W        W29144  11.899  34.476   0.947
57474W        W29145  26.565  36.496  11.997
57475W        W29146  21.146  30.746  10.431
57476W        W29147   9.309  18.467   2.166
57477W        W29148   5.551  27.633   3.796
57478W        W29149  44.055  21.386  11.567
57479W        W29150  42.270   4.233   1.497
57480W        W29151  14.360  25.799   2.348
57481W        W29152  10.358  11.330   4.124
57482W        W29153  31.752  39.434   1.752
57483W        W29154  25.180   9.689  10.760
57484W        W29155  39.484   0.570   4.544
57485W        W29156  38.090   3.076  11.220
57486W        W29157   6.774  32.384   3.756
57487W        W29158   3.475  39.021   2.391
57488W        W29159  23.859  20.261   1.856
57489W        W29160  33.323  27.068  10.991
57490W        W29161  18.336  31.445  13.523
57491W        W29162   8.740   9.056   1.620
57492W        W29163  14.616  32.515   2.873
57493W        W29164  28.526  27.405  11.131
57494W        W29165   1.769  17.415   0.995
57495W        W29166   7.310  33.926   1.237
57496W        W29167  16.653  16.164   1.687
57497W        W29168  26.459  35.595   3.260
57498W        W29169  11.780  32.665   3.571
57499W        W29170   2.578  17.123  10.381
57500W        W29171  37.586  36.370   4.111
57501W        W29172  18.163  11.612  13.638
57502W        W29173  12.776  42.514   1.217
57503W        W29174  24.189  19.230  12.630
57504W        W29175  23.523  23.006  11.875
57505W        W29176  27.770  43.876   0.437
57506W        W29177  24.080  21.077  10.921
57507W        W29178  34.871   7.661  13.445
57508W        W29179   6.636   8.826  10.530
57509W        W29180  37.545  22.630   9.908
57510W        W29181  21.037  36.985   2.308
57511W        W29182  21.178  24.518  13.553
57512W        W29183  14.179   4.859  11.562
57513W        W29184  28.008  18.690   3.787
57514W        W29185  17.683  30.512   0.096
57515W        W29186  21.243  28.811   4.648
57516W        W29187  27.062  38.338  11.089
57517W        W29188   0.010   7.300   0.258
57518W        W29189  42.801  41.089   5.284
57519W        W29190  33.212  19.760  13.947
57520W        W29191  33.460  41.330   1.260
57521W        W29192   1.229  29.542   1.780
57522W        W29193  33.405   1.990  13.884
57523W        W29194   3.328  32.940  14.894
57524W        W29195  22.894  39.401  11.449
57525W        W29196  31.933  19.195   4.664
57526W        W29197  13.194  10.564  13.027
57527W        W29198   8.910  19.989   2.012
57528W        W29199   0.863  22.361   2.831
57529W        W29200  34.862   3.057  10.519
57530W        W29201  25.537  17.547   0.291
57531W        W29202  13.361  29.418  10.521
57532W        W29203  29.840   2.237   3.155
57533W        W29204  41.484  34.626  11.513
57534W        W29205  11.097   6.847  12.090
57535W        W29206  39.249  10.682   4.177
57536W        W29207  41.486   5.707  12.643
57537W        W29208  24.129  25.425  11.533
57538W        W29209   8.288   2.982  11.246
57539W        W29210  28.107  28.769   0.221
57540W        W29211  14.080   8.282   1.374
57541W        W29212  11.806  14.114   4.765
57542W        W29213  35.877  35.443  13.985
57543W        W29214  44.975  43.808  11.793
57544W        W29215  30.283  17.699  10.618
57545W        W29216  19.996  16.367  10.490
57546W        W29217   6.544  18.088  10.059
57547W        W29218  27.681  12.333   0.842
57548W        W29219  38.463  33.342  11.002
57549W        W29220  10.503  24.028   0.554
57550W        W29221  14.322  39.064   0.293
57551W        W29222  19.744   2.473   2.730
57552W        W29223   1.701  25.548  10.702
57553W        W29224   4.520   9.410  13.459
57554W        W29225   6.466   1.192  13.382
57555W        W29226  33.860   4.456   2.381
57556W        W29227  37.628   0.859  12.664
57557W        W29228   3.264  33.583   2.590
57558W        W29229  42.535   7.487   2.245
57559W        W29230  33.036  41.905  13.973
57560W        W29231  15.294  42.741   2.973
57561W        W29232   4.642  29.928  12.037
57562W        W29233  44.944  25.113  11.188
57563W        W29234  26.702  15.608   0.371
57564W        W29235  22.533  15.245  13.998
57565W        W29236  11.363  12.076  13.503
57566W        W29237  37.824   9.991   0.350
57567W        W29238  30.743  22.542   1.077
57568W        W29239   8.152   3.568  14.390
57569W        W29240  39.331  14.721  13.885
57570W        W29241   6.957  18.648   0.218
57571W        W29242   2.430   6.393  11.579
57572W        W29243  37.541  27.980   2.126
57573W        W29244   6.062  25.204   2.020
57574W        W29245  21.814  36.365   0.147
57575W        W29246   6.849  35.537   3.638
57576W        W29247  43.989   9.799   4.079
57577W        W29248  14.405  16.739   4.079
57578W        W29249  39.808   5.656  14.480
57579W        W29250  23.666  20.025  11.124
57580W        W29251   5.453  34.435   1.988
57581W        W29252   2.898  17.826  13.224
57582W        W29253  24.780  40.599   1.745
57583W        W29254   7.073  41.021   4.285
57584W        W29255  29.407  21.146  13.264
57585W        W29256  17.138  37.079  14.502
57586W        W29257  16.772  21.393   1.838
57587W        W29258  12.118  13.335   2.267
57588W        W29259  12.768   9.217  11.051
57589W        W29260  39.474   1.585   4.948
57590W        W29261   2.441  36.998  11.659
57591W        W29262  17.673  13.819   1.784
57592W        W29263  44.846  10.360  13.983
57593W        W29264  21.196   0.480   4.112
57594W        W29265  37.020  12.344  13.487
57595W        W29266  41.083  28.528  13.457
57596W        W29267  21.225   7.303  13.790
57597W        W29268  38.093  11.719  13.441
57598W        W29269  38.524  20.702   1.247
57599W        W29270  38.538  17.418   1.724
57600W        W29271  33.377   1.478   2.978
57601W        W29272   9.195  37.809   0.243
57602W        W29273  10.829  10.242   2.404
57603W        W29274  25.095  20.685  14.491
57604W        W29275  14.689  19.759   3.966
57605W        W29276  22.447   8.776  12.070
57606W        W29277  31.907  29.536  12.354
57607W        W29278  11.384   5.411  13.108
57608W        W29279  18.185  35.998   0.678
57609W        W29280   1.416   6.072  13.927
57610W        W29281  43.514  13.223  13.385
57611W        W29282   7.696   4.818   0.424
57612W        W29283  11.223   5.130   3.107
57613W        W29284  23.698  23.336  12.203
57614W        W29285  15.111  19.462  13.078
57615W        W29286  10.631  13.753  10.563
57616W        W29287  19.853  14.996  13.382
57617W        W29288   7.421  26.260  11.015
57618W        W29289  38.376  10.380  14.841
57619W        W29290  35.414   2.410   1.215
57620W        W29291  39.470  23.962   0.271
57621W        W29292  27.139   4.843   1.041
57622W        W29293  39.013  38.661  12.892
57623W        W29294  41.821   2.673  13.262
57624W        W29295   2.415  16.292  14.527
57625W        W29296  27.115  33.392  13.990
57626W        W29297  40.733  28.944   1.894
57627W        W29298  42.853  19.628   2.865
57628W        W29299  40.160  18.954  11.959
57629W        W29300   3.614  20.606  14.821
57630W        W29301   6.832   1.927  12.797
57631W        W29302   8.691   8.493  10.987
57632W        W29303  17.086   9.568   0.335
57633W        W29304  24.109   9.657   1.941
57634W        W29305   3.778   2.264  13.684
57635W        W29306  30.136  19.728   1.402
57636W        W29307  38.938  36.329  11.535
57637W        W29308  15.145  23.650   1.338
57638W        W29309  32.942  23.653  14.495
57639W        W29310  23.672  25.195   1.849
57640W        W29311  12.149   9.842  12.611
57641W        W29312   3.443  38.263   3.593
57642W        W29313  24.823  41.556   1.805
57643W        W29314  12.099  14.534   2.054
57644W        W29315   3.056  25.582   2.656
57645W        W29316  16.488  23.615   4.101
57646W        W29317  35.901  33.121   1.288
57647W        W29318  22.029  44.718  12.598
57648W        W29319  44.761  38.899  14.545
57649W        W29320   0.304  41.424   0.704
57650W        W29321  29.050  15.802  10.786
57651W        W29322  17.452  12.325  13.859
57652W        W29323  26.275  11.650   2.487
57653W        W29324  29.190  13.263  13.060
57654W        W29325  28.134  28.697   2.137
57655W        W29326  39.566  26.009  14.737
57656W        W29327  33.608  28.488   3.255
57657W        W29328  29.435  39.935  14.641
57658W        W29329  15.648  44.941   0.958
57659W        W29330  36.889  43.500  11.888
57660W        W29331  17.355  33.156   0.714
57661W        W29332  33.429  37.007   2.638
57662W        W29333  33.012  33.280   3.618
57663W        W29334  15.865   0.078   3.680
57664W        W29335  14.489  15.774  14.019
57665W        W29336  32.008  38.574   0.711
57666W        W29337  19.775  25.644  13.387
57667W        W29338   5.614  17.584   4.115
57668W        W29339  42.939  44.231   1.712
57669W        W29340   0.589  26.480  14.422
57670W        W29341   5.078  19.804  12.475
57671W        W29342  18.063  15.325  12.933
57672W        W29343  38.459   4.659  11.575
57673W        W29344  41.523  41.225   0.375
57674W        W29345  22.159  25.050   0.452
57675W        W29346   8.304  30.594   2.936
57676W        W29347  24.155   2.619   0.515
57677W        W29348  38.760  41.195   2.645
57678W        W29349  36.265  15.798   2.925
57679W        W29350  44.216  35.096  11.199
57680W        W29351  31.464   4.371  12.458
57681W        W29352  33.511  23.236   3.895
57682W        W29353  44.283  37.405  12.517
57683W        W29354  34.800   4.243  11.369
57684W        W29355  44.634   5.137  14.708
57685W        W29356  38.914  32.685  11.123
57686W        W29357  33.942  40.036   4.263
57687W        W29358  31.016   1.823   5.437
57688W        W29359  24.524   3.667   2.166
57689W        W29360   0.955   4.883   3.135
57690W        W29361  19.699   5.157  13.309
57691W        W29362   1.124  35.090   3.527
57692W        W29363   9.232  36.217   1.867
57693W        W29364   0.194  12.186  11.655
57694W        W29365  19.658  27.145   0.465
57695W        W29366   1.743   5.400   3.231
57696W        W29367   2.252  27.538  14.269
57697W        W29368   7.628  11.593   3.174
57698W        W29369  33.546  23.222   0.503
57699W        W29370  41.440  33.361  11.412
57700W        W29371  22.237  43.819  12.726
57701W        W29372  15.753  12.729  12.539
57702W        W29373   2.183  26.682  12.485
57703W        W29374  29.256  43.772  12.408
57704W        W29375  44.513  35.514  14.694
57705W        W29376  17.967  34.297   2.812
57706W        W29377  17.299   2.990   0.205
57707W        W29378  27.179  43.951   1.859
57708W        W29379  31.682   0.946   4.951
57709W        W29380  31.813  10.058  12.557
57710W        W29381  37.591  44.889   3.595
57711W        W29382  43.323  22.710  10.267
57712W        W29383  16.110  39.028   2.244
57713W        W29384  39.364  25.880  11.255
57714W        W29385   0.776   4.751  12.459
57715W        W29386   8.858  20.092   3.812
57716W        W29387  37.980  22.055  12.486
57717W        W29388  38.517   4.305  12.949
57718W        W29389  39.832  16.751  13.135
57719W        W29390  41.813  12.744   1.684
57720W        W29391  21.745   3.930   2.136
57721W        W29392  19.783   6.785   4.115
57722W        W29393  20.709  29.856   3.163
57723W        W29394  41.132  20.280   3.582
57724W        W29395   8.181  36.092  13.203
57725W        W29396  32.648  15.650  12.030
57726W        W29397  36.491  44.378   0.707
57727W        W29398  40.594   6.915   3.832
57728W        W29399  15.330  37.468   3.312
57729W        W29400  38.811   8.175  14.666
57730W        W29401  14.253  36.889   4.246
57731W        W29402  36.716   5.827  11.426
57732W        W29403  13.199   0.996  12.484
57733W        W29404  17.802  44.691  13.045
57734W        W29405  40.612  11.836  10.497
57735W        W29406  44.884  43.594   1.214
57736W        W29407  22.186  27.427   1.436
57737W        W29408  28.069  30.997   4.045
57738W        W29409  27.918  36.434   4.528
57739W        W29410  35.583  14.763   3.696
57740W        W29411  14.655  27.973   0.298
57741W        W29412  35.547  33.455  13.228
57742W        W29413  17.270  15.051  11.516
57743W        W29414   0.821  31.121   0.984
57744W        W29415   5.192  25.608   0.827
57745W        W29416  14.689  24.442   4.639
57746W        W29417  16.063  30.518  10.605
57747W        W29418  22.893  11.285   2.218
57748W        W29419  26.511  33.460   3.603
57749W        W29420  12.277  22.315  14.127
57750W        W29421  32.470  27.076   1.503
57751W        W29422  16.031  28.692   1.281
57752W        W29423  11.593  20.924  11.113
57753W        W29424   1.189  25.673  11.597
57754W        W29425  21.757   6.534   1.730
57755W        W29426  42.504  43.078  13.603
57756W        W29427  42.399   4.497  14.441
57757W        W29428  24.892  39.193   2.552
57758W        W29429  42.298   0.360  13.504
57759W        W29430  32.940   1.297  10.686
57760W        W29431  43.094  37.751   3.578
57761W        W29432   4.761  44.714  14.617
57762W        W29433  31.137  36.065   1.277
57763W        W29434   3.183  28.093   2.320
57764W        W29435  24.738   0.315   1.893
57765W        W29436  41.717  25.153   3.638
57766W        W29437  21.208  19.836  12.958
57767W        W29438  17.811  16.340   0.473
57768W        W29439  12.833  32.912  14.913
57769W        W29440  20.806  16.326  14.740
57770W        W29441  37.896  20.682   4.922
57771W        W29442  25.076  14.149  13.741
57772W        W29443   6.392   8.706  12.385
57773W        W29444  24.393   9.557   3.187
57774W        W29445   9.077  13.349  13.593
57775W        W29446  39.078  24.015  14.943
57776W        W29447  21.137   5.992   0.007
57777W        W29448   8.922  11.889   0.387
57778W        W29449   7.309  13.361   4.086
57779W        W29450  23.302  15.588  10.714
57780W        W29451  42.838   6.719   1.703
57781W        W29452  43.819  42.241  10.402
57782W        W29453   0.713  41.556   1.478
57783W        W29454   1.692   7.701   2.319
57784W        W29455  36.276  23.156   4.393
57785W        W29456  21.180   8.847  12.521
57786W        W29457  38.830  11.983   0.820
57787W        W29458  18.585  22.373   4.943
57788W        W29459  17.402   7.969  14.976
57789W        W29460  12.287  12.284   1.289
57790W        W29461  19.160  41.701   0.869
57791W        W29462  43.289  43.736  13.578
57792W        W29463  42.944   5.913  12.540
57793W        W29464  13.584   6.528  10.934
57794W        W29465  10.228  17.659  13.469
57795W        W29466  12.470  32.861  13.510
57796W        W29467   8.968  22.445   3.621
57797W        W29468  15.741  36.768   1.044
57798W        W29469  41.098  30.191   2.423
57799W        W29470  36.291  17.116  10.592
57800W        W29471  28.664  10.489   0.375
57801W        W29472  38.140  18.116   0.813
57802W        W29473  28.603  29.727  10.562
57803W        W29474   2.035  14.346  11.824
57804W        W29475  37.334   7.713   3.766
57805W        W29476   2.752  15.240   1.163
57806W        W29477  26.084   6.988   4.672
57807W        W29478  30.154  16.113  13.098
57808W        W29479   7.787  13.854   1.424
57809W        W29480  13.543   5.174   2.118
57810W        W29481  37.484   7.398  13.040
57811W        W29482  38.280  13.211  13.014
57812W        W29483  13.363  34.057   1.369
57813W        W29484  32.575   6.675  11.164
57814W        W29485  19.726  42.549   2.198
57815W        W29486  11.852  12.068  13.042
57816W        W29487  44.561   4.281   0.784
57817W        W29488  33.601   1.658  13.544
57818W        W29489   8.304   1.920  11.044
57819W        W29490   6.632   4.748   3.224
57820W        W29491  18.599   2.440  10.977
57821W        W29492  39.442  33.090   2.568
57822W        W29493  41.165   1.866  11.361
57823W        W29494   0.954  42.975  10.990
57824W        W29495  15.514  18.829  14.379
57825W        W29496  15.207   7.884  12.819
57826W        W29497  19.244  39.968  14.789
57827W        W29498  37.839  40.025   4.723
57828W        W29499  20.781  31.362  11.987
57829W        W29500  24.076   9.146   1.904
57830W        W29501  24.233   0.303   2.782
57831W        W29502   4.971  26.201  14.028
57832W        W29503  31.655  42.706  13.836
57833W        W29504  15.592   8.380  11.414
57834W        W29505  14.117   6.733   2.445
57835W        W29506  23.831   5.013   5.063
57836W        W29507  21.609  19.195   3.308
57837W        W29508  21.694  11.241   2.782
57838W        W29509  37.331  28.411  10.663
57839W        W29510   8.381  20.906   4.139
57840W        W29511  42.497  28.025   2.367
57841W        W29512   0.934   1.301   1.059
57842W        W29513  28.689  15.231  12.969
57843W        W29514  36.011   7.905  11.529
57844W        W29515  32.123   0.826   3.338
57845W        W29516  33.461  20.988  13.294
57846W        W29517  44.855  43.524  12.669
57847W        W29518  34.030  37.838  13.989
57848W        W29519  18.642  29.708   3.649
57849W        W29520  19.267   7.238   0.762
57850W        W29521  23.690  14.594  11.583
57851W        W29522  37.616   5.733   4.648
57852W        W29523   3.179  29.112   3.156
57853W        W29524   8.418   8.975   2.898
57854W        W29525  38.034  40.366   0.194
57855W        W29526   6.330  27.003  14.693
57856W        W29527  39.112  35.862  11.453
57857W        W29528  25.547  34.561  14.826
57858W        W29529  32.567  43.708  11.036
57859W        W29530  19.494  38.812  10.334
57860W        W29531  15.659  16.083  11.133
57861W        W29532  19.211  32.079   2.848
57862W        W29533  29.003  27.258   3.827
57863W        W29534   9.078  10.777  13.531
57864W        W29535  34.659  13.208  14.337
57865W        W29536  36.087  32.380   0.953
57866W        W29537  24.662  23.700  10.640
57867W        W29538  13.259  31.365   4.516
57868W        W29539   1.641   6.852   2.810
57869W        W29540  39.584   0.344  14.830
57870W        W29541  31.177  17.678  10.880
57871W        W29542  29.360  26.533  14.235
57872W        W29543  20.987  29.080  13.915
57873W        W29544  20.157  21.278  11.611
57874W        W29545  40.812  11.666  12.419
57875W        W29546  22.778  32.144  11.558
57876W        W29547  17.373   6.941   1.424
57877W        W29548  24.496  24.123  11.383
57878W        W29549  12.062  43.855   4.611
57879W        W29550  31.088  11.259   4.563
57880W        W29551   6.651  27.952   0.365
57881W        W29552   6.184   3.162  12.979
57882W        W29553  41.474  29.561  10.719
57883W        W29554  42.887   2.195   4.983
57884W        W29555  26.744  14.608  13.620
57885W        W29556   8.617  24.059   2.305
57886W        W29557  13.054   1.847   3.342
57887W        W29558  35.919   2.998   3.383
57888W        W29559  29.119  23.156  12.222
57889W        W29560  20.356   6.807  12.873
57890W        W29561  23.133  28.990   0.347
57891W        W29562  27.346  15.655   1.838
57892W        W29563   9.703  40.621   2.658
57893W        W29564  23.944  26.726  13.109
57894W        W29565   6.686  11.304  11.494
57895W        W29566  16.867   7.685   4.310
57896W        W29567  11.313  11.140   4.403
57897W        W29568   6.458  39.805  13.139
57898W        W29569  29.558  33.595   4.058
57899W        W29570  12.028  30.603   0.210
57900W        W29571   2.249   8.777  13.380
57901W        W29572  43.948  25.483   1.641
57902W        W29573   1.537  28.764   0.417
57903W        W29574  11.638  38.182  10.785
57904W        W29575  31.396  32.060   4.134
57905W        W29576   9.940   9.603  13.346
57906W        W29577  25.972   7.635   1.633
57907W        W29578  15.075   5.903   4.852
57908W        W29579  25.971  25.553  11.079
57909W        W29580  33.614  19.590   1.779
57910W        W29581  10.316  19.749  14.617
57911W        W29582  25.684  29.841   3.601
57912W        W29583  20.187   0.501   3.828
57913W        W29584   7.643   7.390   2.231
57914W        W29585  11.180  20.561   2.043
57915W        W29586  42.530  35.339   4.703
57916W        W29587  20.737  41.440   4.538
57917W        W29588  31.088  29.246  13.344
57918W        W29589  13.126  20.869  11.388
57919W        W29590  12.711  14.987  13.569
57920W        W29591  44.328  12.926   4.476
57921W        W29592   1.248  15.798  10.906
57922W        W29593  29.236  30.924  10.373
57923W        W29594   7.741  36.465   4.645
57924W        W29595  36.327  42.843   2.080
57925W        W29596  17.136  30.691   4.698
57926W        W29597  40.072  11.458   0.793
57927W        W29598  43.668  23.981   1.457
57928W        W29599  29.162   7.695   2.193
57929W        W29600  20.775   2.314  14.752
57930W        W29601  16.151  20.602  13.041
57931W        W29602  14.657  20.624  13.320
57932W        W29603   9.939   0.788  12.529
57933W        W29604  33.947  14.474   0.415
57934W        W29605  28.476  43.928   2.252
57935W        W29606  11.316  34.627  11.169
57936W        W29607  10.343  41.978  10.768
57937W        W29608   1.343   8.532   1.222
57938W        W29609  26.672  36.067   2.349
57939W        W29610  35.855   6.759   1.667
57940W        W29611  27.175  32.485  12.053
57941W        W29612  13.339  28.441  10.703
57942W        W29613  37.108  35.072  13.737
57943W        W29614  12.216  31.460   0.780
57944W        W29615  43.238  14.959   5.771
57945W        W29616  20.822  17.248  11.572
57946W        W29617   4.812  22.101  11.474
57947W        W29618  44.279  18.731   4.125
57948W        W29619   5.559  10.329  12.171
57949W        W29620  34.346  35.414  14.453
57950W        W29621   5.186  30.101  13.039
57951W        W29622   5.228  16.626   4.160
57952W        W29623  21.153   8.858   1.495
57953W        W29624  22.693  25.872   0.682
57954W        W29625  24.697  31.177   2.781
57955W        W29626  12.826   0.652  14.502
57956W        W29627  36.135   4.938   2.797
57957W        W29628  17.713  10.861  13.387
57958W        W29629  29.398   8.341   2.341
57959W        W29630   7.250  33.042   3.376
57960W        W29631  17.350   8.697  14.262
57961W        W29632  10.363   9.648   4.201
57962W        W29633  20.211  18.271  14.157
57963W        W29634  18.766  31.419   3.415
57964W        W29635  18.360  42.495  11.677
57965W        W29636   4.308  39.416   1.113
57966W        W29637  21.009  35.937  10.196
57967W        W29638  22.740  10.705  11.558
57968W        W29639  26.961   9.866   2.765
57969W        W29640  17.714  21.166  13.143
57970W        W29641   9.194  42.802   0.376
57971W        W29642  32.204  22.983  14.293
57972W        W29643  33.067   9.736   0.534
57973W        W29644  25.061  25.472  10.381
57974W        W29645  34.399  27.125   0.680
57975W        W29646   1.699  23.156  14.902
57976W        W29647  39.123  44.374  14.977
57977W        W29648  16.142  44.402   0.436
57978W        W29649  22.816  32.858  11.993
57979W        W29650  16.800  11.733   3.715
57980W        W29651   0.715  23.142  12.025
57981W        W29652   2.973  32.713   2.947
57982W        W29653  16.476  43.486   1.346
57983W        W29654  23.042  43.953  12.511
57984W        W29655  14.977  29.597   1.595
57985W        W29656  22.750  21.497  12.104
57986W        W29657  31.176  10.133  12.146
57987W        W29658  16.585  43.337  14.028
57988W        W29659  43.749   1.144  12.576
57989W        W29660   9.260   6.668  13.189
57990W        W29661  10.396  41.854   1.504
57991W        W29662  32.074  12.079   4.357
57992W        W29663  19.158  24.425  13.464
57993W        W29664  39.839  17.690   4.726
57994W        W29665   6.628   6.199   4.474
57995W        W29666  31.804  27.637   2.239
57996W        W29667  24.645  10.625   0.226
57997W        W29668  11.880  21.030   5.081
57998W        W29669  16.240   3.629   2.855
57999W        W29670  11.169   3.047   0.267
58000W        W29671  44.029  15.734  13.884
58001W        W29672   1.931  37.013   0.990
58002W        W29673  13.032   6.837   0.676
58003W        W29674  10.050   8.989  14.410
58004W        W29675  16.950   0.923  11.117
58005W        W29676  38.836  25.793   9.869
58006W        W29677   8.103  23.559  14.926
58007W        W29678  23.510  10.186   3.674
58008W        W29679  31.444  15.317   3.292
58009W        W29680  21.235  21.545   2.582
58010W        W29681  15.690  39.905  14.471
58011W        W29682  38.147  24.990   5.035
58012W        W29683  15.287  37.494   0.780
58013W        W29684  13.128  14.257  10.226
58014W        W29685  33.392   2.943   4.402
58015W        W29686  44.346  12.804  11.609
58016W        W29687  30.394  27.036  10.672
58017W        W29688  25.746  19.526   0.044
58018W        W29689  42.578  11.261  10.966
58019W        W29690  33.632  44.262   4.577
58020W        W29691  37.061  43.992   2.832
58021W        W29692   3.695   3.213   4.541
58022W        W29693  14.313  13.198  11.536
58023W        W29694  20.461  17.115  13.452
58024W        W29695  21.569  43.848  11.923
58025W        W29696  38.057  44.078   2.240
58026W        W29697  41.387  42.827  12.992
58027W        W29698   0.215  13.581  11.042
58028W        W29699  21.248   4.843  10.187
58029W        W29700  41.972  36.838  13.553
58030W        W29701  31.964  24.975   3.857
58031W        W29702   5.301  19.695   3.255
58032W        W29703   5.293  40.362   2.852
58033W        W29704  37.320  20.131   0.909
58034W        W29705  27.503  29.030   4.823
58035W        W29706  16.789  44.674   4.083
58036W        W29707  39.446  35.096   0.387
58037W        W29708  15.352   5.440   1.033
58038W        W29709   2.631  41.070   4.286
58039W        W29710   3.410  36.113   4.278
58040W        W29711   6.421   2.288  14.351
58041W        W29712   9.262  24.595   1.795
58042W        W29713  40.550   1.392   1.843
58043W        W29714   1.276   3.076  11.289
58044W        W29715  42.915  24.878   2.230
58045W        W29716  28.265  22.697  11.926
58046W        W29717  31.710  42.739  11.393
58047W        W29718  21.573  27.135  12.442
58048W        W29719  40.280   3.277   1.374
58049W        W29720  38.336   8.377  14.739
58050W        W29721  28.965  36.856   3.007
58051W        W29722  26.397  29.157  12.562
58052W        W29723  42.976  24.068   0.724
58053W        W29724  25.408  24.705  13.973
58054W        W29725  42.494  30.227   4.239
58055W        W29726  24.157  17.563  10.417
58056W        W29727   9.748   3.958  11.993
58057W        W29728  26.277  30.373   4.084
58058W        W29729  23.010  44.870   2.346
58059W        W29730  16.060  26.988   4.494
58060W        W29731  14.807   4.195  13.747
58061W        W29732  14.215  39.162  11.213
58062W        W29733  36.924  24.423  10.531
58063W        W29734  34.575   2.753   3.653
58064W        W29735  18.221   2.315   0.497
58065W        W29736  31.679  35.894  12.905
58066W        W29737   0.291  34.010  11.969
58067W        W29738  24.386  15.274   4.256
58068W        W29739   6.986  41.611  10.472
58069W        W29740  11.832  25.050   1.385
58070W        W29741   8.743   8.680  13.027
58071W        W29742  10.537  23.161  14.396
58072W        W29743  42.016   5.793  11.972
58073W        W29744  31.437   5.266  10.480
58074W        W29745  31.192  37.424   1.149
58075W        W29746  18.767   0.426   2.440
58076W        W29747   1.141   6.830   2.688
58077W        W29748  12.103  40.561  14.808
58078W        W29749  30.986   7.229   3.241
58079W        W29750  16.153  21.274   3.194
58080W        W29751  15.872  34.927  11.026
58081W        W29752   3.491   3.824   3.248
58082W        W29753   0.561  28.059   4.501
58083W        W29754  41.297   8.126   2.330
58084W        W29755   3.817  22.713   3.654
58085W        W29756  18.505  30.588  10.655
58086W        W29757  29.622  32.204   3.569
58087W        W29758  38.561  35.114  10.947
58088W        W29759  40.140   4.091   3.406
58089W        W29760  34.371   2.043   1.761
58090W        W29761  37.507  13.648   2.356
58091W        W29762   7.303  42.772  12.924
58092W        W29763  40.421  31.627  14.143
58093W        W29764  36.467  26.365   4.558
58094W        W29765   3.734   5.640   2.794
58095W        W29766  24.994   6.595  11.533
58096W        W29767  21.732  16.262  12.822
58097W        W29768   1.952  16.486  12.043
58098W        W29769  31.588  12.855   4.286
58099W        W29770  18.364  41.660   5.226
58100W        W29771   4.858  31.644   1.699
58101W        W29772  30.476  23.638   3.156
58102W        W29773   6.402  26.314  12.435
58103W        W29774  20.532  27.148  14.420
58104W        W29775  41.287   3.892  11.607
58105W        W29776  11.353  17.647   1.922
58106W        W29777  24.442  39.401   2.357
58107W        W29778  21.912   8.826  12.847
58108W        W29779   2.062  17.413  12.543
58109W        W29780   8.704  37.596   0.330
58110W        W29781  27.042  43.301  11.135
58111W        W29782  40.482  28.170  11.060
58112W        W29783  26.072  10.151   0.467
58113W        W29784   3.295  32.946   0.760
58114W        W29785   8.822  26.702  11.293
58115W        W29786  33.196  27.727   2.730
58116W        W29787  14.065  40.064   3.657
58117W        W29788   7.843  24.231   2.998
58118W        W29789  15.594  20.582  12.041
58119W        W29790  15.930  12.607   0.150
58120W        W29791  42.867  18.265  13.054
58121W        W29792   0.697  24.601   3.074
58122W        W29793  11.672  23.306   0.536
58123W        W29794   1.310  15.106   2.936
58124W        W29795   8.426  23.194   2.326
58125W        W29796   5.840  28.620   1.895
58126W        W29797  12.097  28.251  11.649
58127W        W29798   8.229   3.729  10.722
58128W        W29799  11.163  12.201   4.567
58129W        W29800  28.089  35.381   1.582
58130W        W29801   0.390   7.611  11.976
58131W        W29802   9.357  20.006   3.636
58132W        W29803  31.372  36.083   3.922
58133W        W29804   0.777  39.552  13.555
58134W        W29805  36.451  19.569   0.671
58135W        W29806  24.494  18.197   0.224
58136W        W29807  11.693  33.460   4.154
58137W        W29808  34.929  32.005   0.275
58138W        W29809  13.708  15.761   2.659
58139W        W29810   2.978  12.655  14.777
58140W        W29811  42.839  31.873  13.465
58141W        W29812  17.594  40.148   4.101
58142W        W29813   7.812   2.350   1.857
58143W        W29814  38.304   8.420   3.248
58144W        W29815   7.975  36.937   3.711
58145W        W29816  31.912  23.252   1.001
58146W        W29817  31.128   0.131   0.281
58147W        W29818  28.065   5.628   3.369
58148W        W29819  24.635  28.378  13.280
58149W        W29820  21.111  39.044  10.226
58150W        W29821  33.636  24.913  10.679
58151W        W29822  14.753   9.052  14.993
58152W        W29823  18.118  28.083  11.355
58153W        W29824  29.906  27.152   4.746
58154W        W29825  16.063  33.092   2.489
58155W        W29826  22.584  15.576   9.863
58156W        W29827  26.925  11.617  12.149
58157W        W29828   3.447  36.878  13.352
58158W        W29829  23.243  32.468   4.020
58159W        W29830  33.536  22.483  14.766
58160W        W29831  10.027   2.508  13.826
58161W        W29832   7.919  12.292  13.432
58162W        W29833   8.695   2.546   0.948
58163W        W29834  32.847  20.520   0.230
58164W        W29835  10.140   7.871   1.350
58165W        W29836  15.711  15.755  10.276
58166W        W29837  34.766  30.142   4.098
58167W        W29838  11.274  40.532  12.591
58168W        W29839  43.900  40.464  10.218
58169W        W29840   4.276  28.138   3.020
58170W        W29841  40.954  43.290   1.508
58171W        W29842   3.046  32.139  12.109
58172W        W29843   6.611   3.870   4.573
58173W        W29844  11.391   9.509   4.271
58174W        W29845  37.612  21.103   1.501
58175W        W29846  30.347  41.591  13.866
58176W        W29847   7.734  41.834   4.882
58177W        W29848  26.922  23.559  12.523
58178W        W29849  40.714  17.196  12.078
58179W        W29850  10.355  12.872   2.616
58180W        W29851  35.685  41.044   1.098
58181W        W29852   6.639  15.607  11.573
58182W        W29853  22.517  17.576  13.919
58183W        W29854  11.701  33.111  14.827
58184W        W29855  39.391  43.902   0.207
58185W        W29856  22.519   7.722   2.261
58186W        W29857  44.924  19.794  10.221
58187W        W29858  38.437   6.223   4.551
58188W        W29859  20.635  39.006   5.022
58189W        W29860  21.619  27.446  12.969
58190W        W29861  15.643  10.160   1.006
58191W        W29862   1.468  11.725   3.591
58192W        W29863  14.689   4.443  10.784
58193W        W29864  11.779  28.586  13.066
58194W        W29865  23.784   3.249   0.737
58195W        W29866  31.436  24.496  13.081
58196W        W29867   1.950  36.919  10.780
58197W        W29868  29.468  28.601  14.967
58198W        W29869   2.908  16.727   1.208
58199W        W29870   9.363  28.358  10.979
58200W        W29871  11.304  38.757   1.813
58201W        W29872  19.270  27.630  11.022
58202W        W29873  19.767   5.619  12.421
58203W        W29874  31.731  30.602  12.970
58204W        W29875   5.589  15.272   1.711
58205W        W29876  20.450  21.080   4.653
58206W        W29877  41.679  15.088  11.982
58207W        W29878  19.078  43.756   1.695
58208W        W29879  41.466  17.387   0.667
58209W        W29880  16.520  35.212  10.000
58210W        W29881  36.000  32.303  11.583
58211W        W29882  38.038   5.833   1.341
58212W        W29883  23.749   8.883  13.595
58213W        W29884   6.095  20.686  10.616
58214W        W29885   4.636   4.713  14.720
58215W        W29886   2.130  30.502  13.512
58216W        W29887  14.464  17.827  11.990
58217W        W29888  27.128  37.404  13.454
58218W        W29889  29.088  25.594  12.010
58219W        W29890   0.468   3.887   1.127
58220W        W29891  19.103  15.030   0.473
58221W        W29892  23.813  16.269  11.175
58222W        W29893   3.017  43.319  12.689
58223W        W29894  42.792  32.976   4.180
58224W        W29895  40.570  34.462   0.434
58225W        W29896   5.311  34.542   4.564
58226W        W29897  20.754  26.700  11.143
58227W        W29898  15.558  10.841  13.735
58228W        W29899  22.537  40.533  10.685
58229W        W29900  16.216   6.370   3.146
58230W        W29901  25.532   7.724  14.709
58231W        W29902  13.377   8.170   1.897
58232W        W29903  16.632  22.608  12.166
58233W        W29904  33.335  36.382   2.244
58234W        W29905  15.077  16.221  14.471
58235W        W29906  43.500  32.928  10.596
58236W        W29907  14.605  37.128  14.638
58237W        W29908  15.597  26.906   1.386
58238W        W29909  36.843  44.861  11.506
58239W        W29910   4.482   3.667  10.445
58240W        W29911  42.797   7.285  14.270
58241W        W29912  28.484   6.705   2.293
58242W        W29913  36.920  34.371   4.570
58243W        W29914  12.180  23.198   3.423
58244W        W29915   8.168  16.169  10.474
58245W        W29916  32.104  18.068  12.908
58246W        W29917   8.240  10.315  13.450
58247W        W29918  15.733  41.444  12.326
58248W        W29919  11.631  38.588   3.322
58249W        W29920  26.419  39.000  14.448
58250W        W29921  40.109   9.357  13.480
58251W        W29922   5.482  32.118  14.762
58252W        W29923   6.945  32.933   4.603
58253W        W29924   9.490   9.355   4.134
58254W        W29925   1.588  39.267  13.019
58255W        W29926  23.734  31.891  14.454
58256W        W29927  23.668   0.350   1.917
58257W        W29928  32.497  39.328   1.253
58258W        W29929   4.655  37.950   1.457
58259W        W29930  29.978  40.398   3.623
58260W        W29931   7.812  41.478   3.248
58261W        W29932  33.825   0.929   2.139
58262W        W29933  30.339   2.323   1.761
58263W        W29934  20.628  42.531   3.609
58264W        W29935  11.497  30.489   2.198
58265W        W29936  21.508  22.554   3.376
58266W        W29937  23.743  43.474  11.563
58267W        W29938   8.887  24.490  13.855
58268W        W29939  21.320   9.057  11.373
58269W        W29940  29.901   1.350   1.304
58270W        W29941   9.332  35.504   3.596
58271W        W29942   5.841  18.561  12.794
58272W        W29943  43.022  41.392   1.259
58273W        W29944  40.690  39.242  13.837
58274W        W29945  24.327  22.792  13.888
58275W        W29946  20.134  29.977  12.873
58276W        W29947  40.984  35.783   4.093
58277W        W29948  11.691  23.744  10.058
58278W        W29949  24.529  24.971   4.048
58279W        W29950   8.774  40.877  12.032
58280W        W29951  27.706  16.171   2.810
58281W        W29952   5.039  10.258  13.597
58282W        W29953  15.630  22.974  13.789
58283W        W29954   7.211  27.657   4.636
58284W        W29955   7.066  30.436   1.397
58285W        W29956  40.066  26.597   3.311
58286W        W29957  43.187  33.529  12.455
58287W        W29958   8.137   0.459   1.427
58288W        W29959  31.419  19.155   4.680
58289W        W29960  13.562  31.145   0.874
58290W        W29961   9.885  43.512   0.516
58291W        W29962  32.957  18.004   2.763
58292W        W29963  19.028  11.299  10.216
58293W        W29964  21.305  35.754   4.781
58294W        W29965  32.760  41.973  12.264
58295W        W29966  17.821   9.295   1.428
58296W        W29967  20.172  37.101  13.129
58297W        W29968  25.911  10.815   1.742
58298W        W29969  38.340   4.261   4.607
58299W        W29970  32.132  10.685   2.512
58300W        W29971  15.686  38.528   4.761
58301W        W29972  16.319  30.591   4.503
58302W        W29973  22.471  28.168  14.530
58303W        W29974  30.221  40.954   4.778
58304W        W29975  14.170  31.275   2.785
58305W        W29976  36.446   6.142  12.743
58306W        W29977   1.411  35.381  11.798
58307W        W29978   5.246  10.763  12.019
58308W        W29979  26.298  12.851   4.093
58309W        W29980  33.977   4.031   3.791
58310W        W29981   4.884  18.737  12.584
58311W        W29982  11.984  24.187  14.229
58312W        W29983  34.072  23.184  14.437
58313W        W29984  21.403   3.166   1.807
58314W        W29985   8.392  26.547   3.268
58315W        W29986   9.143   4.461   4.048
58316W        W29987  10.120  37.364   1.695
58317W        W29988   2.215  44.452   2.311
58318W        W29989  25.574   4.843   1.706
58319W        W29990  41.461  44.004  14.378
58320W        W29991   0.503  31.825   1.829
58321W        W29992  17.206  32.964   2.821
58322W        W29993  20.762  28.089   1.420
58323W        W29994  17.532  22.117  12.841
58324W        W29995   8.783  32.899   4.495
58325W        W29996  15.645  39.010  14.502
58326W        W29997  34.870  29.025   1.728
58327W        W29998   4.738  11.675   1.054
58328W        W29999  31.409  31.028  11.131
58329W        W30000  29.182  42.259   0.504
58330W        W30001  23.004   4.201   1.299
58331W        W30002  16.606  11.095   4.328
58332W        W30003  19.106  20.620   2.775
58333W        W30004  34.874   4.898   3.222
58334W        W30005  41.503  12.517   0.260
58335W        W30006  40.317  42.451  13.363
58336W        W30007  25.234  24.408  13.567
58337W        W30008  41.410  35.775  10.820
58338W        W30009  17.158  40.259  13.538
58339W        W30010  21.144  11.314   2.134
58340W        W30011   2.195  17.310   1.298
58341W        W30012  27.649  21.482  10.574
58342W        W30013   2.835  26.200   2.330
58343W        W30014  30.156  43.486  12.113
58344W        W30015  13.256   9.955   2.850
58345W        W30016   9.218  39.359  13.969
58346W        W30017  44.923   4.222   4.604
58347W        W30018   1.141  32.425  13.830
58348W        W30019   9.148   4.940   3.132
58349W        W30020  41.791  16.319  12.602
58350W        W30021  10.435  21.794   1.796
58351W        W30022   1.083  37.532   1.232
58352W        W30023   3.721  33.434  10.697
58353W        W30024  30.410  22.049  12.018
58354W        W30025  19.594  32.472   4.150
58355W        W30026  25.977  24.197   4.756
58356W        W30027  12.974  16.166   3.796
58357W        W30028  26.301   4.611   2.745
58358W        W30029   2.589  22.518  11.546
58359W        W30030  18.621  30.247   4.630
58360W        W30031  29.136  21.783   4.123
58361W        W30032   3.060  32.135  12.929
58362W        W30033   7.903  16.866  13.420
58363W        W30034  33.152  17.323  10.741
58364W        W30035  43.815  38.573  11.134
58365W        W30036   9.956  19.025  14.544
58366W        W30037   5.182  38.383   2.806
58367W        W30038  29.855  10.817   4.340
58368W        W30039  22.101  22.113   0.349
58369W        W30040   6.365  44.450   0.673
58370W        W30041  14.679  23.137   4.046
58371W        W30042  22.620  33.946   2.319
58372W        W30043   9.847  22.503   2.813
58373W        W30044   7.150  35.150  10.760
58374W        W30045   7.820  13.226  14.296
58375W        W30046   5.660  18.158  14.612
58376W        W30047  44.693  43.505  14.744
58377W        W30048  15.151   3.733  12.373
58378W        W30049  20.929  40.880   0.565
58379W        W30050  21.547  33.192   4.640
58380W        W30051   5.828  40.590   2.783
58381W        W30052  39.897  41.489  13.798
58382W        W30053   7.220  27.019  12.933
58383W        W30054   9.752  25.857   0.391
58384W        W30055   9.843  10.411  11.695
58385W        W30056  27.493  15.680  14.500
58386W        W30057   9.177  19.084  14.066
58387W        W30058   8.245   8.626  10.716
58388W        W30059  37.479  33.063   2.823
58389W        W30060  38.350  14.853   1.766
58390W        W30061  19.287  17.138  10.672
58391W        W30062  11.404  40.474   0.349
58392W        W30063  39.346  20.741   0.418
58393W        W30064  40.989  25.602   4.520
58394W        W30065   6.325  29.660   2.805
58395W        W30066  11.877  21.960   2.536
58396W        W30067  40.269  20.833   0.384
58397W        W30068  36.411  14.327   2.380
58398W        W30069  19.624  41.789  11.032
58399W        W30070   2.463  27.456   1.195
58400W        W30071  19.194  20.982   3.134
58401W        W30072  44.847  18.257   1.749
58402W        W30073  30.165  15.152   4.000
58403W        W30074   4.515  16.241   1.732
58404W        W30075  31.196  19.848  13.353
58405W        W30076  42.030  32.318  12.547
58406W        W30077   9.513   0.163   1.420
58407W        W30078   3.390  15.014   2.361
58408W        W30079   0.870  16.571  12.980
58409W        W30080  29.203  11.336  11.383
58410W        W30081  34.149  28.643   2.454
58411W        W30082  21.936  19.839  13.466
58412W        W30083   5.328  35.843   4.109
58413W        W30084  35.899  13.921  14.903
58414W        W30085  26.420  40.892   4.734
58415W        W30086   0.841  40.441  12.972
58416W        W30087  18.830   7.148   3.916
58417W        W30088  38.507  27.491   2.630
58418W        W30089  44.057  41.819  11.534
58419W        W30090  27.573   4.731  13.289
58420W        W30091  39.525  23.024   0.236
58421W        W30092   0.388  40.853  13.388
58422W        W30093  23.014  42.960  13.811
58423W        W30094  31.426  38.746   4.243
58424W        W30095  41.246  21.767  14.027
58425W        W30096  22.791  18.057  10.612
58426W        W30097   8.763  40.829  14.643
58427W        W30098  11.829  35.379   2.285
58428W        W30099  20.258  19.423   3.210
58429W        W30100   5.359   8.871   2.226
58430W        W30101  14.575  41.828  11.605
58431W        W30102  21.212   6.979  13.363
58432W        W30103   4.780  15.309   1.402
58433W        W30104   6.925   4.313   3.281
58434W        W30105  18.530  37.827   0.161
58435W        W30106  30.619   0.914  12.219
58436W        W30107  30.401  18.171  11.186
58437W        W30108  16.287  37.077   3.325
58438W        W30109  32.960  20.301  10.448
58439W        W30110  22.924  22.065   3.425
58440W        W30111  17.552  36.201   1.356
58441W        W30112   9.737  20.273  13.083
58442W        W30113   7.675  16.565   1.967
58443W        W30114  10.651  29.204  14.328
58444W        W30115  32.314  43.757  14.466
58445W        W30116  26.616  26.681   2.111
58446W        W30117  32.052  43.765  12.396
58447W        W30118  35.096  27.946  11.104
58448W        W30119  16.121   9.808  12.510
58449W        W30120   6.164  31.921  10.756
58450W        W30121  39.201  10.341  13.068
58451W        W30122  17.378  42.092  13.611
58452W        W30123   8.375   9.271   1.939
58453W        W30124  43.762  15.269  12.906
58454W        W30125  34.469  44.146  11.898
58455W        W30126  20.699  36.781  11.337
58456W        W30127   4.928  43.415  12.003
58457W        W30128   6.219  23.047  13.362
58458W        W30129   2.114   7.814  11.549
58459W        W30130  18.595   7.804   1.681
58460W        W30131   9.115  27.606   4.851
58461W        W30132  29.734  16.746  12.975
58462W        W30133  37.895  44.367  11.884
58463W        W30134  35.442  18.705   4.349
58464W        W30135  20.492  24.067  13.873
58465W        W30136  29.012  31.072  14.995
58466W        W30137  24.626  26.577  11.557
58467W        W30138  44.512   5.969   3.371
58468W        W30139  27.429  10.387  10.712
58469W        W30140  30.962  34.195  11.003
58470W        W30141   4.497  28.999  13.411
58471W        W30142   0.223   4.944   0.765
58472W        W30143  43.322  33.887  12.979
58473W        W30144  37.531  14.399   2.785
58474W        W30145  20.650  22.217  10.709
58475W        W30146  40.165  20.650  14.775
58476W        W30147  18.534  27.580  14.064
58477W        W30148  28.593  26.136  11.570
58478W        W30149  41.657   5.676  13.138
58479W        W30150  37.708   6.845  14.317
58480W        W30151  22.134  25.904   3.136
58481W        W30152   7.796  30.629   2.792
58482W        W30153   6.427  25.623   2.759
58483W        W30154  42.228  43.356   2.611
58484W        W30155  18.369  23.183  11.995
58485W        W30156  10.210  41.961   0.453
58486W        W30157  34.607  35.456  12.679
58487W        W30158  19.733  16.181  13.980
58488W        W30159  31.561  42.833   0.179
58489W        W30160  44.849  36.022   3.532
58490W        W30161   2.999   3.219  14.741
58491W        W30162  24.725   1.473  14.378
58492W        W30163  18.746  41.911  13.597
58493W        W30164  18.127  28.925  14.370
58494W        W30165  18.505   2.647   2.744
58495W        W30166   5.827  39.566  12.415
58496W        W30167  37.792  42.755   3.530
58497W        W30168  10.096   5.342   3.316
58498W        W30169   3.767   5.954   3.730
58499W        W30170  26.644  16.444  13.494
58500W        W30171   9.803   7.234  12.476
58501W        W30172  42.568  39.329   0.862
58502W        W30173  21.004  42.546  13.339
58503W        W30174  31.911   1.335   1.958
58504W        W30175  11.333   2.954  10.894
58505W        W30176  16.992  31.176   3.189
58506W        W30177  36.399  13.689  14.947
58507W        W30178   7.560  12.368  13.781
58508W        W30179  16.753  11.282   3.446
58509W        W30180  18.025  12.149  11.216
58510W        W30181  27.780   9.646  10.995
58511W        W30182  26.167  11.140  13.334
58512W        W30183  13.372  11.830  12.510
58513W        W30184  10.344  37.014   3.383
58514W        W30185   4.881  10.014   5.048
58515W        W30186  22.177  40.923  14.817
58516W        W30187  19.630  43.264  14.823
58517W        W30188  24.787  28.997   2.825
58518W        W30189  33.284  15.621   3.453
58519W        W30190  28.158  33.917   0.007
58520W        W30191  25.593  14.937  11.252
58521W        W30192  31.150  37.460   5.017
58522W        W30193  26.306  33.915   0.519
58523W        W30194   3.966  17.171  10.520
58524W        W30195  24.540   2.965   0.395
58525W        W30196   1.797  16.507  13.771
58526W        W30197   7.231  23.228  14.029
58527W        W30198  18.099  37.687   3.452
58528W        W30199   9.224   8.877  10.722
58529W        W30200  41.065  44.177   4.189
58530W        W30201  22.014  22.177   4.566
58531W        W30202   2.993   7.471  10.614
58532W        W30203  25.078   5.443   0.413
58533W        W30204   9.329  43.755  13.989
58534W        W30205   6.725  25.766  12.975
58535W        W30206   1.044   6.325  12.858
58536W        W30207  29.662  24.996   4.316
58537W        W30208  26.078   9.279   1.927
58538W        W30209   7.847  14.841   0.326
58539W        W30210  35.410  12.350   0.737
58540W        W30211   7.469  34.740  13.073
58541W        W30212  29.941  38.393  13.531
58542W        W30213   6.932   9.143   4.220
58543W        W30214  13.360  16.988  10.693
58544W        W30215   0.849  21.840   4.087
58545W        W30216  20.580  32.487   3.215
58546W        W30217   3.332  23.743  11.257
58547W        W30218  25.188  18.232  14.780
58548W        W30219  27.905  32.824  12.009
58549W        W30220  39.718  19.230   0.903
58550W        W30221  44.008  29.333   4.088
58551W        W30222  42.316  12.090  12.068
58552W        W30223  28.127   6.808   3.344
58553W        W30224  22.496  31.054   0.076
58554W        W30225  12.745  41.052   2.067
58555W        W30226  31.051  32.505  13.174
58556W        W30227  23.230  35.881   1.887
58557W        W30228  34.385  39.933   0.487
58558W        W30229   8.724  11.192  11.470
58559W        W30230  11.069  29.722  11.116
58560W        W30231  24.145  42.963  12.479
58561W        W30232  11.500  15.798  13.518
58562W        W30233  14.277  18.499  11.588
58563W        W30234  12.123  24.109   3.712
58564W        W30235  24.521   9.412   1.748
58565W        W30236  40.532  41.280  12.104
58566W        W30237  23.395  32.669   1.427
58567W        W30238  13.889  19.651  14.378
58568W        W30239   7.161  33.839  14.233
58569W        W30240   3.438   7.741   1.899
58570W        W30241  35.098   2.670   3.430
58571W        W30242  28.877  21.942  11.129
58572W        W30243  29.522  35.072   2.262
58573W        W30244  10.217  12.054   3.655
58574W        W30245  42.809  26.109  13.882
58575W        W30246  26.059  10.715  11.533
58576W        W30247   8.777  42.400   4.690
58577W        W30248  22.324   4.836   3.431
58578W        W30249   0.966   1.708  11.145
58579W        W30250   5.918  24.477   2.738
58580W        W30251  27.425  36.248  11.578
58581W        W30252  30.568  40.997   2.681
58582W        W30253  37.393  19.588  14.343
58583W        W30254  23.462  14.611  12.111
58584W        W30255   4.429  44.749   1.927
58585W        W30256   1.813  10.868  10.464
58586W        W30257  28.888  41.042  12.483
58587W        W30258  39.331  37.620   2.386
58588W        W30259  31.732   9.879   2.340
58589W        W30260  31.909   5.703   0.140
58590W        W30261  40.833  32.890  14.265
58591W        W30262   0.331  23.056   3.729
58592W        W30263   8.479  18.664   3.219
58593W        W30264  17.973  33.380   1.322
58594W        W30265  25.907   4.753  12.589
58595W        W30266   6.385  35.607   5.051
58596W        W30267  27.220   4.783   3.896
58597W        W30268  44.302  23.587   1.189
58598W        W30269   4.228  25.063  11.722
58599W        W30270   7.736  43.336  10.733
58600W        W30271  19.896  21.225  14.861
58601W        W30272  33.320  36.955  11.966
58602W        W30273  19.734  31.620  14.014
58603W        W30274  20.330  40.316  11.074
58604W        W30275   7.866   2.715   5.045
58605W        W30276  19.669  35.355  10.668
58606W        W30277  13.434   6.393  14.006
58607W        W30278   8.456  10.690   3.779
58608W        W30279  33.015   6.824  11.393
58609W        W30280  34.382  37.062   1.817
58610W        W30281  33.809  37.956   0.176
58611W        W30282  11.145  37.634  14.719
58612W        W30283  42.566  36.597  13.501
58613W        W30284   5.816  25.970   4.132
58614W        W30285  15.893  33.047  11.156
58615W        W30286  15.043  10.624   3.141
58616W        W30287  32.602   3.762  14.228
58617W        W30288  12.657  30.602  12.483
58618W        W30289  43.121  33.410   1.456
58619W        W30290  13.702  14.266  11.429
58620W        W30291  17.017  38.381   2.920
58621W        W30292  11.069  17.223   3.673
58622W        W30293  30.569  19.665  13.933
58623W        W30294  13.570   0.609  14.375
58624W        W30295  18.712   7.674  11.612
58625W        W30296  16.099  29.413   3.990
58626W        W30297   8.835  39.864  12.205
58627W        W30298  29.532  40.425  11.501
58628W        W30299  16.492  20.698  11.196
58629W        W30300  37.069  23.707  12.311
58630W        W30301  27.110  20.142   2.938
58631W        W30302   9.403  34.358   1.477
58632W        W30303  15.815  22.235  12.582
58633W        W30304  41.980  22.047  11.027
58634W        W30305   6.663  30.819   0.391
58635W        W30306  11.367  21.477  13.929
58636W        W30307   5.285  29.578   2.723
58637W        W30308  44.441  17.764   1.665
58638W        W30309  36.065  38.371   4.559
58639W        W30310  44.151  15.027   5.066
58640W        W30311  37.959   2.673   1.174
58641W        W30312  23.945   3.687  14.092
58642W        W30313  17.348  36.633   3.619
58643W        W30314  29.603  22.523  14.418
58644W        W30315  12.908  25.614   0.880
58645W        W30316   3.641   5.381  11.581
58646W        W30317  43.504  16.244  12.405
58647W        W30318   9.425  39.143  14.884
58648W        W30319   1.995  30.979  12.065
58649W        W30320  28.854  26.194  13.750
58650W        W30321  12.351  19.796   0.951
58651W        W30322  32.328  29.447   2.798
58652W        W30323   1.259   4.842   4.756
58653W        W30324  37.991  40.414  14.218
58654W        W30325  14.715  13.661  10.725
58655W        W30326   3.859  36.986  12.062
58656W        W30327  39.480  10.325   1.879
58657W        W30328  18.827  28.718   3.741
58658W        W30329  42.370  30.002  10.555
58659W        W30330  33.476  14.533  13.073
58660W        W30331  16.333   3.848  14.044
58661W        W30332  37.907   7.535  11.724
58662W        W30333  29.016  14.908   3.056
58663W        W30334   1.529  43.858   2.431
58664W        W30335   2.178  38.326  13.011
58665W        W30336  30.174   1.834   1.917
58666W        W30337  40.915   5.359  12.690
58667W        W30338  29.017  22.434  11.223
58668W        W30339   7.297  21.573   0.586
58669W        W30340  37.429  14.165   2.307
58670W        W30341  18.207  31.616   2.755
58671W        W30342  12.342  28.516   4.526
58672W        W30343  10.206  17.701   4.355
58673W        W30344  43.744  31.004   3.152
58674W        W30345  15.313   8.681   2.261
58675W        W30346  37.606  25.922  11.988
58676W        W30347  22.610  25.665  13.435
58677W        W30348  28.202   4.495  11.595
58678W        W30349  42.041  14.160   1.838
58679W        W30350   4.830  20.504   2.879
58680W        W30351  26.750  17.978   4.524
58681W        W30352  15.223  20.495   4.519
58682W        W30353  35.396  37.537   3.637
58683W        W30354  39.493  21.274  11.077
58684W        W30355  43.031  11.297   4.021
58685W        W30356  16.903   9.644   4.037
58686W        W30357  17.406  27.952  14.926
58687W        W30358  18.723  24.418   3.421
58688W        W30359  37.728  30.360   4.050
58689W        W30360  20.177  40.261   4.998
58690W        W30361  39.062  29.640   0.816
58691W        W30362  30.365  41.906  13.017
58692W        W30363  29.434  20.095  14.904
58693W        W30364  30.837   9.265  12.529
58694W        W30365   8.886  31.520  14.533
58695W        W30366   1.841  23.077   2.807
58696W        W30367  21.739  16.777   0.827
58697W        W30368   7.854   3.783  13.430
58698W        W30369   2.346   6.099  10.799
58699W        W30370  18.847  31.348  12.078
58700W        W30371  44.378  33.380   4.124
58701W        W30372  38.480  26.924  11.605
58702W        W30373  44.927  27.433  13.878
58703W        W30374  12.550  41.858  10.619
58704W        W30375  27.598  20.055  10.710
58705W        W30376   4.865  30.242   5.144
58706W        W30377  22.720  21.324   0.347
58707W        W30378  27.506  23.589  13.002
58708W        W30379   7.406  29.187  12.910
58709W        W30380  17.083  20.059   4.129
58710W        W30381  36.143  27.584  14.454
58711W        W30382   0.827  23.919  14.944
58712W        W30383  29.150  32.364   0.592
58713W        W30384   6.585  44.301   2.012
58714W        W30385   8.620   9.727  11.510
58715W        W30386  33.863   2.813  11.584
58716W        W30387  28.719  20.613  12.828
58717W        W30388  16.143   4.672   0.429
58718W        W30389  20.518  16.029   0.921
58719W        W30390  27.869  20.675  11.033
58720W        W30391   3.758  40.762   3.749
58721W        W30392  16.312  24.456   0.516
58722W        W30393   4.877   4.183   0.765
58723W        W30394  35.936   1.801   3.387
58724W        W30395  38.041  11.895  12.951
58725W        W30396  27.602  34.054   4.907
58726W        W30397  19.503   0.669   1.414
58727W        W30398  27.336  29.225  11.859
58728W        W30399  22.024  27.779   2.762
58729W        W30400  36.334  25.440  12.901
58730W        W30401  22.299  18.498   0.864
58731W        W30402   5.287  37.562   0.904
58732W        W30403  17.131  21.012   1.853
58733W        W30404  31.088  29.903  14.131
58734W        W30405  13.735  32.570  14.804
58735W        W30406  18.907  17.182   1.806
58736W        W30407   7.581  21.046  10.366
58737W        W30408  20.772  31.719  11.056
58738W        W30409  20.631  38.112   1.846
58739W        W30410   9.825  23.726   4.095
58740W        W30411  10.248  12.014  14.940
58741W        W30412  43.348   2.934   1.362
58742W        W30413  37.270  29.863  13.427
58743W        W30414  14.082  16.021  14.259
58744W        W30415  37.251   9.497   1.200
58745W        W30416   2.070  27.060  14.098
58746W        W30417  41.624  20.907  10.534
58747W        W30418  21.093   0.766   4.538
58748W        W30419   4.807   5.136  13.770
58749W        W30420  23.595  23.279  12.953
58750W        W30421  42.959   8.118  11.498
58751W        W30422  25.999  27.403  14.936
58752W        W30423   2.225  30.065   4.442
58753W        W30424   0.898  33.024   3.019
58754W        W30425   0.557  25.949  14.332
58755W        W30426  28.861   2.847  13.371
58756W        W30427  39.275   4.374  12.419
58757W        W30428  23.080  24.038  11.225
58758W        W30429  15.285  28.918   2.715
58759W        W30430  16.383  15.720   1.928
58760W        W30431  25.107   5.310  12.639
58761W        W30432  34.955  36.425  11.941
58762W        W30433  36.413   6.420   1.327
58763W        W30434  11.186  44.375   0.865
58764W        W30435   8.344   2.604   4.678
58765W        W30436  25.894   9.122  10.674
58766W        W30437   0.614  29.347  10.132
58767W        W30438  20.424  29.202   1.760
58768W        W30439  30.732  30.430   2.596
58769W        W30440   5.359  23.624  14.447
58770W        W30441  38.078  31.982   0.812
58771W        W30442  22.422  20.262   4.551
58772W        W30443  28.712   8.352  11.584
58773W        W30444   6.235  44.733   4.767
58774W        W30445  19.801  24.641  13.771
58775W        W30446  36.062  18.153  11.607
58776W        W30447   9.172  44.381  10.664
58777W        W30448  26.611  10.468   1.711
58778W        W30449  35.465  11.281  14.045
58779W        W30450   6.208  43.069   3.606
58780W        W30451  19.841  14.142  13.289
58781W        W30452  40.509  23.955  12.351
58782W        W30453   0.950   2.732  14.476
58783W        W30454   0.046  21.556   0.786
58784W        W30455   5.189  24.736   3.092
58785W        W30456   1.752  42.409   0.753
58786W        W30457  33.419  15.315   4.307
58787W        W30458  14.691   7.866  10.877
58788W        W30459  43.932  22.266  14.374
58789W        W30460   4.163   1.231   1.745
58790W        W30461   3.542  25.591   2.862
58791W        W30462  19.070  39.980  13.764
58792W        W30463  37.008   6.344   3.832
58793W        W30464   7.738  15.670  13.829
58794W        W30465  24.546  12.351   4.094
58795W        W30466   3.379  17.494  14.249
58796W        W30467  40.312  21.302  10.154
58797W        W30468  18.341  11.765   4.081
58798W        W30469  23.794   8.670   2.847
58799W        W30470  30.171  44.764  11.553
58800W        W30471  24.039   6.155  13.854
58801W        W30472  27.972  42.526  13.608
58802W        W30473  43.938  18.496  10.627
58803W        W30474   4.141  27.083  10.696
58804W        W30475  37.525  25.081  12.335
58805W        W30476   3.214   6.542  12.939
58806W        W30477  13.689  26.239   2.802
58807W        W30478  13.213   4.876  14.262
58808W        W30479  24.639  37.929  11.912
58809W        W30480   0.524  33.775   4.641
58810W        W30481  28.455  24.975  14.005
58811W        W30482   9.801  41.987  13.956
58812W        W30483  30.318  39.342   0.848
58813W        W30484  28.694  13.542   2.803
58814W        W30485  44.464  11.205   2.622
58815W        W30486  31.540  44.247  14.597
58816W        W30487  30.155   4.118  12.621
58817W        W30488  34.867  20.085   2.968
58818W        W30489  11.346   8.558   3.984
58819W        W30490  32.475  14.197   0.522
58820W        W30491  22.208  23.704  10.759
58821W        W30492  32.659   6.419  11.581
58822W        W30493   8.642  26.141  13.090
58823W        W30494  33.551  19.610  10.485
58824W        W30495  24.305  38.694   3.804
58825W        W30496  44.387   2.962   4.886
58826W        W30497  19.395  43.370   2.102
58827W        W30498  44.350  10.167  12.089
58828W        W30499  33.631  17.149  11.453
58829W        W30500  12.826  13.093   4.608
58830W        W30501  21.410  19.450   2.191
58831W        W30502  12.636  40.822  10.774
58832W        W30503  35.074   5.242  10.484
58833W        W30504   5.361  32.864  11.197
58834W        W30505  29.008  14.598  12.039
58835W        W30506   0.886  39.473  10.585
58836W        W30507  41.264  34.548  11.035
58837W        W30508   1.355  18.726  12.027
58838W        W30509  10.558  13.607   0.734
58839W        W30510  42.284   1.876   1.353
58840W        W30511  22.855  25.529   4.629
58841W        W30512  32.414   8.161  11.796
58842W        W30513  36.851  26.207  11.664
58843W        W30514  23.662   4.745  14.778
58844W        W30515  29.400  24.081   1.783
58845W        W30516  11.843   5.490   1.335
58846W        W30517  19.975  24.052  12.016
58847W        W30518   2.559  14.547  10.632
58848W        W30519   6.109   9.049  12.105
58849W        W30520  14.662  18.690   2.612
58850W        W30521  40.319  27.047   0.964
58851W        W30522   1.767  40.012   2.334
58852W        W30523  12.329  22.595  12.334
58853W        W30524  25.541   4.481  11.213
58854W        W30525  20.292  13.050   2.812
58855W        W30526  43.892  33.858  10.773
58856W        W30527  31.427   2.908  14.099
58857W        W30528   6.466  18.848   3.600
58858W        W30529  20.699  18.587   2.714
58859W        W30530   3.097  32.405   3.818
58860W        W30531   5.704  19.257   2.264
58861W        W30532   3.406   6.305   3.624
58862W        W30533  15.200  25.233   3.683
58863W        W30534  36.059  33.359  13.495
58864W        W30535  32.883  35.989  11.158
58865W        W30536  14.699  15.453   2.300
58866W        W30537  18.500  33.182  14.457
58867W        W30538  42.025   3.903  11.111
58868W        W30539  34.076   8.178   1.418
58869W        W30540  20.105  10.966   5.026
58870W        W30541   5.150  31.945   2.121
58871W        W30542  24.267   2.978   2.588
58872W        W30543  22.509  43.723  11.923
58873W        W30544  29.054   2.691  14.510
58874W        W30545   0.711  42.281   1.365
58875W        W30546  21.146  38.408  11.629
58876W        W30547   5.321  28.090  10.869
58877W        W30548   6.758  37.814   1.613
58878W        W30549  25.868  12.695   9.879
58879W        W30550  35.923  27.028  10.554
58880W        W30551  11.940   0.363   4.054
58881W        W30552  10.136  44.814   2.159
58882W        W30553  21.682   0.225  14.911
58883W        W30554  26.740  32.254  11.294
58884W        W30555   0.448  40.281  12.634
58885W        W30556  15.255  40.016   2.807
58886W        W30557  29.871  43.004   4.682
58887W        W30558  16.294  42.233   1.717
58888W        W30559  20.878  31.045  14.688
58889W        W30560   6.445  30.621   2.485
58890W        W30561  40.475  34.972  13.338
58891W        W30562  17.950  25.921   4.199
58892W        W30563  39.533  10.169  11.681
58893W        W30564   9.249  30.854   0.420
58894W        W30565  28.223   0.191  14.362
58895W        W30566  19.524  15.217   5.467
58896W        W30567   3.201  31.093  10.703
58897W        W30568  11.192   9.673  12.858
58898W        W30569  20.934  13.335   2.201
58899W        W30570  43.390  38.844   4.669
58900W        W30571  31.166  31.606   4.376
58901W        W30572  38.605  19.070  13.915
58902W        W30573  30.872  11.317   3.281
58903W        W30574  32.896  28.690   2.744
58904W        W30575  11.600  26.584   2.820
58905W        W30576  16.720   1.246   2.268
58906W        W30577  26.690   7.230   2.197
58907W        W30578  41.304   3.017  13.426
58908W        W30579  39.330  36.372   0.879
58909W        W30580  34.658  17.564   2.228
58910W        W30581  31.527   6.017   2.227
58911W        W30582  35.565  42.792   2.762
58912W        W30583  15.360  31.567  13.925
58913W        W30584  23.509  26.204   1.303
58914W        W30585   3.304  27.644  11.605
58915W        W30586   2.797  14.115  12.400
58916W        W30587  34.700  37.977  10.939
58917W        W30588   9.736  34.191  11.941
58918W        W30589  27.268  17.681   1.301
58919W        W30590  33.029  33.128  12.364
58920W        W30591  23.732  20.992  11.279
58921W        W30592  32.210  32.918  11.087
58922W        W30593  35.842  32.074   5.049
58923W        W30594  37.966  36.385   0.434
58924W        W30595  15.161  26.082   4.377
58925W        W30596  34.625   2.394  13.129
58926W        W30597   0.902  25.586  12.474
58927W        W30598  16.103   1.368   1.120
58928W        W30599   8.692  44.827   1.952
58929W        W30600   8.931  17.257   4.234
58930W        W30601  31.092  28.544   0.881
58931W        W30602  32.596   9.648   3.287
58932W        W30603  17.088  42.480  14.355
58933W        W30604  13.255  18.122   4.840
58934W        W30605  10.228   8.733  11.563
58935W        W30606  10.667  16.772  11.090
58936W        W30607  44.800  18.485  11.564
58937W        W30608  14.303  14.716  11.464
58938W        W30609  36.607   3.695   3.302
58939W        W30610  26.721  27.752   4.079
58940W        W30611  15.662   6.219  13.033
58941W        W30612  30.961  38.981  13.052
58942W        W30613  35.013  25.093  14.273
58943W        W30614  13.737  32.331  14.316
58944W        W30615   7.378   2.530   1.624
58945W        W30616   0.982  23.367  13.853
58946W        W30617  28.752  24.454   1.933
58947W        W30618  11.221   8.856  11.996
58948W        W30619  38.727  14.136   0.844
58949W        W30620  32.595  39.396   3.030
58950W        W30621  13.831  12.417  12.990
58951W        W30622  40.883  38.869  11.148
58952W        W30623   4.367   2.385  12.398
58953W        W30624  25.658   8.251   3.140
58954W        W30625  15.276   8.814   0.089
58955W        W30626  11.338   0.006  14.252
58956W        W30627  14.138   7.414   3.190
58957W        W30628  43.031  39.891  13.642
58958W        W30629  20.973  11.997  13.496
58959W        W30630  36.767  18.528   4.416
58960W        W30631  33.861   8.943   3.076
58961W        W30632  35.529  36.473   5.375
58962W        W30633  36.060  43.634   2.808
58963W        W30634  39.466   1.135  12.483
58964W        W30635  44.669  22.569  12.421
58965W        W30636  40.905  27.260   2.263
58966W        W30637   1.360  41.511  14.760
58967W        W30638  12.147   6.186  13.563
58968W        W30639  26.392  36.156   0.467
58969W        W30640  12.309  44.967   3.214
58970W        W30641  25.007  38.874   2.141
58971W        W30642  35.164  37.940   2.771
58972W        W30643  12.219  23.800  14.997
58973W        W30644  42.888   8.647   4.285
58974W        W30645  35.453  35.784  12.782
58975W        W30646  36.719  10.755   2.820
58976W        W30647  31.666  10.811   2.306
58977W        W30648  20.268   3.656  11.471
58978W        W30649  15.707  39.368   2.231
58979W        W30650  35.071  34.072   4.244
58980W        W30651   3.516  21.279  12.904
58981W        W30652  32.283  30.737  11.790
58982W        W30653   8.321  30.143  13.608
58983W        W30654  27.178  37.566  11.522
58984W        W30655  27.704  35.024   1.514
58985W        W30656  16.866  40.937  13.008
58986W        W30657  22.021  18.574  12.980
58987W        W30658  14.875  36.026   4.304
58988W        W30659   9.674  12.652  11.880
58989W        W30660  19.649  36.965  11.097
58990W        W30661  14.245  13.109   2.342
58991W        W30662  30.919  43.152  11.143
58992W        W30663  34.761  35.072   4.571
58993W        W30664  37.512  33.231  11.635
58994W        W30665  44.669   7.391   4.546
58995W        W30666  30.971  40.451   1.255
58996W        W30667  37.944  41.138  14.515
58997W        W30668   4.979  44.961  11.358
58998W        W30669  38.993  13.502  10.829
58999W        W30670  15.829   0.918   4.193
59000W        W30671   5.558  29.929  11.668
59001W        W30672  32.141  31.840  11.833
59002W        W30673  38.573   8.386  13.373
59003W        W30674  26.098   7.938   5.079
59004W        W30675  14.773  34.473  10.346
59005W        W30676  20.194  42.599   0.855
59006W        W30677  36.565  13.187   3.855
59007W        W30678  27.987  44.814   2.125
59008W        W30679  42.026  36.926  11.288
59009W        W30680  43.756  23.056   5.027
59010W        W30681  31.976  14.776  10.920
59011W        W30682  12.202  10.285   4.304
59012W        W30683  20.788  41.259   0.175
59013W        W30684  29.102  28.928  10.637
59014W        W30685   9.006  18.209   2.520
59015W        W30686  31.731  17.112   1.605
59016W        W30687  28.652  43.680   1.817
59017W        W30688  31.653  32.957   4.631
59018W        W30689  42.946   2.321   1.842
59019W        W30690  33.799   1.130   2.614
59020W        W30691  43.410  33.215   2.251
59021W        W30692  32.919  44.645  13.865
59022W        W30693  14.546  29.889   0.867
59023W        W30694  18.595  19.341   1.308
59024W        W30695   5.400  29.012   4.098
59025W        W30696  21.231  41.144  12.066
59026W        W30697  10.645  43.744  13.103
59027W        W30698  12.834  19.136  10.753
59028W        W30699  13.793   2.731   4.814
59029W        W30700  15.959  34.811  13.593
59030W        W30701  44.964   9.118  11.511
59031W        W30702   6.340  42.256  12.602
59032W        W30703   6.906  32.092  14.924
59033W        W30704   6.320   7.366   3.797
59034W        W30705  12.200  21.113   4.086
59035W        W30706  29.388  19.357  14.463
59036W        W30707  14.607   8.293   1.284
59037W        W30708  11.885   4.921   2.432
59038W        W30709   4.385  17.581   0.698
59039W        W30710   1.049   4.664  14.927
59040W        W30711  31.608   0.349  10.735
59041W        W30712  36.966   1.389   0.534
59042W        W30713  12.983  34.940   2.863
59043W        W30714  11.783  37.040  12.305
59044W        W30715   5.776  31.576  11.969
59045W        W30716   6.228   1.489  13.738
59046W        W30717  32.063   5.496   3.322
59047W        W30718  42.825  13.074  11.979
59048W        W30719  43.166   8.636  10.684
59049W        W30720  25.675  11.266   3.174
59050W        W30721  34.029  21.163  14.520
59051W        W30722  41.822   3.389  14.551
59052W        W30723   7.377   3.342  13.936
59053W        W30724  38.847  33.417  12.961
59054W        W30725  13.611   7.424  14.986
59055W        W30726  17.751  16.318   2.714
59056W        W30727  35.046  13.522   0.931
59057W        W30728   3.142  40.340  12.800
59058W        W30729  28.841   0.056  14.306
59059W        W30730   2.328  43.544  14.928
59060W        W30731  16.244  29.659  13.799
59061W        W30732  36.694   2.251  12.884
59062W        W30733  29.669  31.585  13.994
59063W        W30734  28.892  21.168   2.768
59064W        W30735  38.089  15.725   4.297
59065W        W30736  22.978  25.051   3.194
59066W        W30737  31.197   5.859   2.759
59067W        W30738  22.662  22.383  13.053
59068W        W30739   8.749  31.149   2.819
59069W        W30740  41.517  19.040   4.139
59070W        W30741  43.993  17.687   2.049
59071W        W30742  42.416  12.779  13.346
59072W        W30743  20.622  40.589   4.980
59073W        W30744  39.488  30.505  10.617
59074W        W30745  43.466  30.078  13.075
59075W        W30746  35.872  27.657   3.788
59076W        W30747  40.516   5.291  11.083
59077W        W30748  33.920   5.277   0.715
59078W        W30749  21.026   8.276  13.912
59079W        W30750  16.875  31.524   2.269
59080W        W30751  41.867  33.159   1.928
59081W        W30752  19.171  40.057   0.302
59082W        W30753  20.150  14.214  12.867
59083W        W30754  26.189   7.328  11.918
59084W        W30755  35.341  39.554   3.155
59085W        W30756  22.713  35.064  11.906
59086W        W30757  36.156  11.673   3.629
59087W        W30758  15.837  13.717  11.503
59088W        W30759  27.994  41.480   2.926
59089W        W30760   5.549  16.690   1.059
59090W        W30761   8.994   3.193   0.378
59091W        W30762  26.549  22.934  12.326
59092W        W30763  18.229   5.310   0.419
59093W        W30764  17.321  37.585   3.725
59094W        W30765   9.773   7.993   2.195
59095W        W30766  31.032   7.759   3.120
59096W        W30767  34.645  19.826  11.457
59097W        W30768  21.829  15.476  14.206
59098W        W30769  21.483  10.264  10.596
59099W        W30770  25.190  31.387   2.925
59100W        W30771   0.280  21.630   4.932
59101W        W30772   4.374  15.063   2.312
59102W        W30773   5.425  14.675   2.941
59103W        W30774  16.148  16.768   0.067
59104W        W30775  30.520   3.926  11.589
59105W        W30776  30.528  30.715  14.020
59106W        W30777  16.011  18.646   1.622
59107W        W30778  26.641  33.585  13.198
59108W        W30779  26.962   3.829   3.211
59109W        W30780  18.093  11.441  10.230
59110W        W30781  29.533  18.244   2.873
59111W        W30782  37.160  43.226   2.465
59112W        W30783  17.667  22.386   2.158
59113W        W30784   7.359  11.029   3.679
59114W        W30785   1.759  44.267   4.790
59115W        W30786  21.130  31.105   1.947
59116W        W30787   9.128  24.147  11.694
59117W        W30788  13.777  16.388   1.317
59118W        W30789   5.706  36.831  13.365
59119W        W30790   9.658  35.057  11.216
59120W        W30791  13.190  42.021  10.700
59121W        W30792   0.573  31.803   4.115
59122W        W30793  38.453  18.632   2.337
59123W        W30794  13.613  12.588  11.605
59124W        W30795  28.188  31.539  12.884
59125W        W30796  12.201  14.351   4.508
59126W        W30797  40.240  29.612   4.150
59127W        W30798   1.714  25.065   1.293
59128W        W30799  17.705  27.999   2.813
59129W        W30800  18.082  29.384  13.405
59130W        W30801  44.296  12.184   3.441
59131W        W30802  12.824  24.159   1.127
59132W        W30803  16.641  39.914   2.703
59133W        W30804   6.614  33.849  14.305
59134W        W30805  13.335  40.008   4.206
59135W        W30806  32.318  20.713   1.698
59136W        W30807   5.332  22.896  13.790
59137W        W30808   9.731  31.472  14.792
59138W        W30809  24.276   9.087   1.398
59139W        W30810  33.048  35.105   3.620
59140W        W30811  41.515  11.463   0.241
59141W        W30812  14.300  12.593   2.745
59142W        W30813  41.868  31.209   3.015
59143W        W30814  15.547  19.014   0.221
59144W        W30815  30.923  13.186  14.556
59145W        W30816  21.218   5.337  14.471
59146W        W30817  14.749  30.347  11.979
59147W        W30818  22.814  29.223   1.860
59148W        W30819  42.872  43.445  13.563
59149W        W30820  31.902  44.705   2.965
59150W        W30821   8.792  14.321  14.090
59151W        W30822  29.978  20.093  13.492
59152W        W30823  40.759  21.947  14.049
59153W        W30824  43.411  14.849  14.740
59154W        W30825  25.110   5.426  12.145
59155W        W30826  25.862  15.508  12.633
59156W        W30827   6.443  14.732  10.583
59157W        W30828   1.705   9.712  10.595
59158W        W30829  16.443   0.019   1.210
59159W        W30830  32.033   7.952  14.903
59160W        W30831   8.070   1.346   1.838
59161W        W30832  29.067  38.316  14.837
59162W        W30833  31.618   9.339  11.386
59163W        W30834   7.435  16.740   1.232
59164W        W30835  44.027   3.237   3.242
59165W        W30836  35.869  26.649   0.167
59166W        W30837  24.376   0.945   0.182
59167W        W30838  20.323   6.802  11.446
59168W        W30839  33.924  30.427   1.600
59169W        W30840  11.358  38.022   1.387
59170W        W30841  11.267   5.569   0.329
59171W        W30842   6.423  42.315  13.951
59172W        W30843  40.288  19.113   4.162
59173W        W30844  14.685  23.252  13.524
59174W        W30845  33.603   4.484   1.598
59175W        W30846  32.935  31.575  12.501
59176W        W30847  17.998  22.562  11.810
59177W        W30848  22.536  40.513  12.472
59178W        W30849  38.224   7.820   4.095
59179W        W30850  11.384  37.359  12.395
59180W        W30851  37.593  41.890  12.034
59181W        W30852  31.437  41.497  14.351
59182W        W30853  28.704  16.684  13.073
59183W        W30854  44.560  40.050  14.098
59184W        W30855  30.621   8.680  13.332
59185W        W30856  39.421  13.172  12.453
59186W        W30857   7.911  22.139  13.949
59187W        W30858   2.749  32.744  13.039
59188W        W30859  23.129  20.628  10.707
59189W        W30860  43.876  42.993  10.665
59190W        W30861  43.318  30.493  10.542
59191W        W30862  33.144  14.611  11.439
59192W        W30863   8.205  18.196   0.308
59193W        W30864  42.848  17.198  11.028
59194W        W30865  22.829  20.266   1.924
59195W        W30866  11.878   7.173   1.902
59196W        W30867  43.011  24.860  10.238
59197W        W30868  23.537  32.061   3.997
59198W        W30869   6.609  37.151  11.137
59199W        W30870   0.038   0.900   3.843
59200W        W30871  18.076   9.712   3.177
59201W        W30872  41.004  37.405  13.903
59202W        W30873   3.002  38.042  12.496
59203W        W30874  36.022  19.044  13.836
59204W        W30875  40.559  24.630   1.978
59205W        W30876  44.070   9.599   2.217
59206W        W30877   9.367  29.677   1.326
59207W        W30878  11.337  26.979   3.223
59208W        W30879  20.023  26.090  11.826
59209W        W30880  26.586  34.099  14.077
59210W        W30881  27.744  12.635   3.261
59211W        W30882  40.428  21.541  14.287
59212W        W30883  15.459  22.166  13.569
59213W        W30884   5.194  34.906   4.169
59214W        W30885  13.840  33.085  14.827
59215W        W30886  21.700  23.736   4.549
59216W        W30887  44.337  38.804   1.282
59217W        W30888  21.481  21.197  14.878
59218W        W30889  44.463  33.595  10.474
59219W        W30890  24.709  15.482   0.940
59220W        W30891   8.788  32.599   0.892
59221W        W30892   1.516  11.124  13.940
59222W        W30893  28.046  18.998  10.605
59223W        W30894  31.600  43.827   0.426
59224W        W30895  29.638  44.464   2.665
59225W        W30896  29.698  12.835  14.727
59226W        W30897  13.638  12.351   3.440
59227W        W30898  20.982  35.980  14.078
59228W        W30899  11.950  32.843  13.558
59229W        W30900  36.964  13.704   2.739
59230W        W30901  18.529  42.344   4.269
59231W        W30902  29.237  23.485  13.432
59232W        W30903  26.896  33.882   3.228
59233W        W30904   1.947  36.078   0.908
59234W        W30905  35.005  35.572  12.289
59235W        W30906  20.749  24.007  11.711
59236W        W30907  20.042   9.722   4.444
59237W        W30908  15.824   4.506   5.504
59238W        W30909   9.727  21.658   3.598
59239W        W30910  15.773  21.079   0.711
59240W        W30911  40.383  29.626  14.012
59241W        W30912  18.540  25.110   0.513
59242W        W30913  35.957  16.925   0.380
59243W        W30914  10.364  21.626   0.939
59244W        W30915  42.506  39.344  10.314
59245W        W30916  19.262  27.861  12.103
59246W        W30917  20.766   9.441  12.118
59247W        W30918  14.134  18.587   3.135
59248W        W30919  18.409  11.116   4.167
59249W        W30920   0.186   8.083  12.953
59250W        W30921  33.039  10.209   2.764
59251W        W30922  32.906  14.615   3.533
59252W        W30923  32.083  24.885  12.296
59253W        W30924  34.437  35.578   1.393
59254W        W30925   9.289   0.018  14.739
59255W        W30926  20.243  12.230  13.903
59256W        W30927  22.800  44.287   4.634
59257W        W30928  42.030  41.499  11.171
59258W        W30929  22.157  33.964   4.298
59259W        W30930  35.718  25.922  10.855
59260W        W30931  11.691  34.502  12.996
59261W        W30932  34.162  30.421   4.565
59262W        W30933  17.182  27.007  12.867
59263W        W30934   4.867  11.085   0.271
59264W        W30935  27.087  10.404  11.103
59265W        W30936  32.487  33.452  12.959
59266W        W30937  20.686  24.342   4.529
59267W        W30938   9.208   1.784   4.525
59268W        W30939   6.407  43.749  14.935
59269W        W30940  20.570  32.113   3.805
59270W        W30941  20.403   1.419  14.292
59271W        W30942  21.595  15.322  13.763
59272W        W30943  32.224  33.082  13.342
59273W        W30944  38.274  41.402   0.525
59274W        W30945  18.604  24.347   5.024
59275W        W30946  39.829  39.878   4.121
59276W        W30947  12.386  15.086  12.635
59277W        W30948  20.676  28.585   4.127
59278W        W30949  25.569  38.107   3.883
59279W        W30950   0.243  39.473  13.380
59280W        W30951  35.309  23.509  12.461
59281W        W30952  30.324   2.402   3.128
59282W        W30953  27.071  16.790  14.992
59283W        W30954  11.419  38.450  14.130
59284W        W30955  37.072   6.153   2.761
59285W        W30956   9.454   8.857  12.081
59286W        W30957  15.114  27.542   5.015
59287W        W30958   9.591  15.507   4.961
59288W        W30959  30.381  20.057  14.187
59289W        W30960   5.392   9.149  11.183
59290W        W30961  14.050  32.988  12.574
59291W        W30962  21.506  25.435   1.417
59292W        W30963  32.859   7.439  12.320
59293W        W30964  18.004   4.768   1.186
59294W        W30965  14.524  10.777   4.417
59295W        W30966   7.491  15.265   3.393
59296W        W30967  19.052  13.336  14.048
59297W        W30968  22.931  39.882   3.095
59298W        W30969  40.465  37.483   4.204
59299W        W30970  44.421  39.562  10.358
59300W        W30971  33.227  17.827  11.681
59301W        W30972   5.935  12.727  11.469
59302W        W30973  25.607   3.267  12.445
59303W        W30974   2.983  40.788   3.363
59304W        W30975  29.705  24.400  12.588
59305W        W30976  15.543   4.829  11.622
59306W        W30977  16.271  13.691   2.702
59307W        W30978  14.530  20.665  12.828
59308W        W30979  11.357  38.682   0.037
59309W        W30980  17.095  10.590   2.463
59310W        W30981   1.899  35.560  13.598
59311W        W30982  11.896   5.776   2.331
59312W        W30983  34.615   8.946  12.495
59313W        W30984  38.040   5.340   0.280
59314W        W30985  18.976  28.486  10.895
59315W        W30986  13.159  25.162   0.946
59316W        W30987   9.337  32.447   1.764
59317W        W30988   0.029  33.565  11.112
59318W        W30989  27.464  12.415   2.192
59319W        W30990  31.980  32.332  11.691
59320W        W30991   7.673   4.862   1.915
59321W        W30992  44.803   8.848   2.906
59322W        W30993   4.793  30.396  14.294
59323W        W30994  29.447  15.064  13.447
59324W        W30995  30.106  39.118   2.267
59325W        W30996   3.210  25.816   2.212
59326W        W30997  23.944  31.128   4.102
59327W        W30998  38.404  38.044  12.528
59328W        W30999   1.483  35.317   0.345
59329W        W31000  24.440  28.654   4.651
59330W        W31001   2.775   8.815  12.458
59331W        W31002   5.156   6.219   4.904
59332W        W31003  21.362  11.410   4.350
59333W        W31004  14.947  44.816  12.646
59334W        W31005  32.392   4.916   1.370
59335W        W31006   3.725  28.343  13.311
59336W        W31007  29.872  35.379   1.647
59337W        W31008  23.831   0.178  10.585
59338W        W31009  14.172   9.381   3.207
59339W        W31010   2.899  28.848   3.866
59340W        W31011  23.186  42.436   2.971
59341W        W31012   3.255  13.944   3.066
59342W        W31013   6.806  42.376  12.322
59343W        W31014   3.957  28.072  12.920
59344W        W31015  27.587  23.244  13.850
59345W        W31016  39.382  33.839   4.237
59346W        W31017  43.562   9.209   3.001
59347W        W31018   7.828  38.046  13.931
59348W        W31019   3.743  22.137  13.373
59349W        W31020  25.847  19.310   2.334
59350W        W31021  19.472  19.639   0.494
59351W        W31022  14.147  25.999   0.906
59352W        W31023   8.784  24.058   2.838
59353W        W31024  32.544  16.321   0.943
59354W        W31025  10.388   4.576  10.528
59355W        W31026  19.351  21.702  11.172
59356W        W31027  36.867  21.394  10.312
59357W        W31028  32.420  14.104  11.943
59358W        W31029  22.993  30.148  12.573
59359W        W31030  43.790  36.513  11.538
59360W        W31031   5.398   8.592   4.132
59361W        W31032   9.453  19.530  14.029
59362W        W31033  15.095  34.783  10.626
59363W        W31034  10.182  44.800  10.669
59364W        W31035  35.073   1.440   3.598
59365W        W31036  25.636  27.828   3.268
59366W        W31037  20.123  13.697  10.171
59367W        W31038  11.353  18.189   3.642
59368W        W31039  39.975   9.322   3.296
59369W        W31040  19.316   5.003  12.980
59370W        W31041  16.310   3.665  11.917
59371W        W31042  34.342  21.775  14.369
59372W        W31043  24.688  18.102  14.740
59373W        W31044  38.517  23.641  14.935
59374W        W31045  14.677  41.542   3.683
59375W        W31046  29.904  38.951  11.711
59376W        W31047  11.396  28.858  12.515
59377W        W31048   9.941  36.953  14.484
59378W        W31049  40.530   6.028   4.035
59379W        W31050  16.360  28.765   0.323
59380W        W31051  10.085   7.519  11.478
59381W        W31052  10.118   5.324  14.492
59382W        W31053  11.133  44.891   0.301
59383W        W31054  21.912  26.664   0.675
59384W        W31055  29.651  18.152  13.528
59385W        W31056  12.682  21.257  13.577
59386W        W31057  41.323  24.677  12.906
59387W        W31058  34.356  37.177   0.042
59388W        W31059  29.482   8.060  10.951
59389W        W31060  37.225  24.136   3.196
59390W        W31061  44.323  39.531  11.345
59391W        W31062  11.290   1.013  10.460
59392W        W31063  14.874  22.841   1.802
59393W        W31064  17.136  26.253  12.191
59394W        W31065   0.054  11.371  13.883
59395W        W31066   2.179   9.127  11.957
59396W        W31067   2.264  31.844   0.925
59397W        W31068  26.449  11.618  12.427
59398W        W31069  18.252  30.928  13.497
59399W        W31070  39.013  31.543   1.635
59400W        W31071  13.070  43.337   4.210
59401W        W31072  27.712  39.435  11.688
59402W        W31073  13.446  42.817   4.954
59403W        W31074   1.258  10.335   0.540
59404W        W31075  25.008   9.664   0.484
59405W        W31076  13.111  13.301  11.054
59406W        W31077  32.507  40.726   4.711
59407W        W31078  34.505  35.342   4.153
59408W        W31079  26.685  41.533  11.612
59409W        W31080  22.161  22.118   3.896
59410W        W31081  33.659  17.723   4.611
59411W        W31082  26.695   7.239  14.580
59412W        W31083  23.849   1.959  14.425
59413W        W31084  22.357  25.558  10.308
59414W        W31085  32.222  24.098  11.573
59415W        W31086  29.698  17.694  13.212
59416W        W31087   9.233   0.215  11.950
59417W        W31088  29.948   7.312   2.761
59418W        W31089  37.244  11.516  14.473
59419W        W31090   3.922   1.533   3.359
59420W        W31091   8.638   4.217   2.349
59421W        W31092   5.224  28.614   1.466
59422W        W31093  42.310  31.169  12.920
59423W        W31094  19.337   5.402  14.579
59424W        W31095  11.848  27.119  12.423
59425W        W31096  12.376  12.428   3.306
59426W        W31097  11.879  19.098   2.792
59427W        W31098  43.326  32.361  11.414
59428W        W31099  30.475  35.581   0.888
59429W        W31100   9.330   1.687  12.377
59430W        W31101  18.221  41.221  12.072
59431W        W31102  37.091  20.416   1.262
59432W        W31103  26.036  16.755  14.914
59433W        W31104  32.132  11.670   2.176
59434W        W31105   2.946  21.205   0.398
59435W        W31106  36.673  40.772  11.592
59436W        W31107  43.251   4.437   4.173
59437W        W31108  32.435   3.512   2.215
59438W        W31109  43.406   3.591   1.975
59439W        W31110  30.010  41.792   3.326
59440W        W31111  26.854  13.554  14.810
59441W        W31112  38.145   2.726  14.797
59442W        W31113  23.684  41.499  14.821
59443W        W31114  39.794  40.988  11.533
59444W        W31115  41.346  23.637   3.837
59445W        W31116  37.418  23.627  11.944
59446W        W31117   4.229  34.356  11.043
59447W        W31118  17.215  12.557   0.347
59448W        W31119  16.886  40.115  12.526
59449W        W31120  39.508  40.149  12.486
59450W        W31121  21.064  34.848  13.844
59451W        W31122  17.685  36.839  11.053
59452W        W31123  21.790   1.514   0.370
59453W        W31124   0.974  37.813  10.085
59454W        W31125  28.743  25.781   4.055
59455W        W31126  32.117  37.360  12.866
59456W        W31127   0.524   5.648   1.647
59457W        W31128  39.285   1.317  12.025
59458W        W31129  31.142   6.667   0.767
59459W        W31130  31.556  14.104  10.451
59460W        W31131  40.639  24.645   0.599
59461W        W31132  24.212  39.272   1.417
59462W        W31133  22.698  41.914  10.699
59463W        W31134  20.375  13.939   9.781
59464W        W31135  36.825  14.892   3.278
59465W        W31136  17.787   7.834   3.941
59466W        W31137  31.880  38.656  13.966
59467W        W31138   3.217  14.081  10.984
59468W        W31139  30.314  37.485   1.390
59469W        W31140  27.465  20.752   4.353
59470W        W31141   3.789  41.418  11.092
59471W        W31142   9.132  21.133   0.501
59472W        W31143   6.618  20.047   2.320
59473W        W31144  35.933  25.437  10.685
59474W        W31145  35.064   1.445   3.092
59475W        W31146   8.345  40.023  10.721
59476W        W31147  28.041  28.212   5.279
59477W        W31148  29.457  44.243  11.213
59478W        W31149  18.700  43.310   1.361
59479W        W31150  13.569  44.681  13.999
59480W        W31151  29.137  30.384   3.880
59481W        W31152  33.905  42.202  14.392
59482W        W31153  30.965  31.100   4.155
59483W        W31154   2.180  26.562   3.802
59484W        W31155   6.744  31.666   1.730
59485W        W31156   5.327   4.312   3.182
59486W        W31157   2.702   1.379  13.427
59487W        W31158   3.771  18.619  14.056
59488W        W31159  29.934  15.653   3.314
59489W        W31160  16.057  15.754   2.784
59490W        W31161  39.493  12.844  11.467
59491W        W31162  11.911  29.416  10.782
59492W        W31163  41.836   0.500   4.687
59493W        W31164  10.629  19.627   3.119
59494W        W31165   7.501   8.122   0.226
59495W        W31166  24.693  43.352   2.366
59496W        W31167  20.166  13.282   4.526
59497W        W31168  22.677  36.892  14.768
59498W        W31169  28.530   9.823   4.683
59499W        W31170   3.228  19.507  11.289
59500W        W31171   7.908   6.545  11.976
59501W        W31172  41.950  15.564  11.895
59502W        W31173  17.360   2.509  12.008
59503W        W31174  30.880   4.498   1.329
59504W        W31175   9.715  24.506   4.433
59505W        W31176   3.843   7.086   2.127
59506W        W31177  36.562  18.920  12.592
59507W        W31178  29.048  32.522   3.109
59508W        W31179   7.139  27.232  13.433
59509W        W31180  13.074  10.845   4.394
59510W        W31181   0.150  42.000  12.458
59511W        W31182  21.572   6.258  13.139
59512W        W31183  23.063   7.305   1.606
59513W        W31184  44.312  31.118   4.109
59514W        W31185  42.882  33.887   4.124
59515W        W31186   7.407  14.649   1.298
59516W        W31187  17.138  10.210   4.153
59517W        W31188  31.053   0.734   3.864
59518W        W31189  41.352   9.751   2.364
59519W        W31190  17.384  28.758  11.436
59520W        W31191   4.223   0.317  14.418
59521W        W31192  19.177  29.921  14.804
59522W        W31193  10.218  32.004  11.463
59523W        W31194   9.328  38.426   3.671
59524W        W31195  30.370  25.321   1.353
59525W        W31196  22.292  29.966   0.041
59526W        W31197  41.575  22.771  12.039
59527W        W31198  14.016  37.987   0.269
59528W        W31199   1.236  11.269   3.654
59529W        W31200  16.858  17.758  13.789
59530W        W31201  17.120  42.250   4.073
59531W        W31202  13.626  17.152   4.784
59532W        W31203  27.715  44.793   0.396
59533W        W31204  21.954   5.350  12.612
59534W        W31205  41.499  31.376  14.756
59535W        W31206   1.531  13.909   1.501
59536W        W31207  41.944  26.179  12.464
59537W        W31208  26.040  19.917  12.563
59538W        W31209  25.508   5.708   4.887
59539W        W31210  21.149   7.472   2.030
59540W        W31211  11.978  17.581   0.261
59541W        W31212   3.129  21.585  14.502
59542W        W31213  30.621  23.010   3.923
59543W        W31214  28.261  39.597   0.836
59544W        W31215  12.574  33.394  14.851
59545W        W31216  10.694  34.503   4.138
59546W        W31217  11.454  19.733   3.511
59547W        W31218   7.228  27.074  10.678
59548W        W31219  40.127  33.303   1.376
59549W        W31220  38.486  28.606  14.539
59550W        W31221  33.952  37.301   5.003
59551W        W31222  36.553  23.812  13.625
59552W        W31223  33.610  24.662   0.396
59553W        W31224  25.609  18.268  11.562
59554W        W31225  20.285  18.906   4.101
59555W        W31226  35.582  34.512   0.071
59556W        W31227  11.088  43.389  10.943
59557W        W31228  30.686  39.264  12.209
59558W        W31229  15.334  41.862  12.903
59559W        W31230  44.289  32.858   1.826
59560W        W31231   7.109  33.266   2.679
59561W        W31232  33.501   7.780   4.532
59562W        W31233  33.053  44.418   1.573
59563W        W31234   5.847  28.590  11.371
59564W        W31235  26.090  20.451   4.657
59565W        W31236  38.769  38.850   1.235
59566W        W31237   6.367   5.295  11.969
59567W        W31238   0.617  17.363   0.209
59568W        W31239  19.673  12.884   3.246
59569W        W31240  39.852  22.655   1.583
59570W        W31241   8.965  21.151   2.764
59571W        W31242  22.421  14.632   0.300
59572W        W31243  10.356  40.831  13.788
59573W        W31244  22.170  26.091   2.055
59574W        W31245  25.694  39.938  13.520
59575W        W31246  16.996  29.165   2.116
59576W        W31247   7.214  21.622  13.793
59577W        W31248  23.259  21.178  11.536
59578W        W31249  38.187  10.375  14.349
59579W        W31250  35.272  18.763  11.736
59580W        W31251  26.964  38.331  11.951
59581W        W31252  12.170  20.608   2.867
59582W        W31253   0.900  21.933   3.210
59583W        W31254  37.648  23.600  14.465
59584W        W31255  13.580  37.011   3.733
59585W        W31256   6.769  38.090   3.708
59586W        W31257  29.530   0.857   0.659
59587W        W31258  18.942  19.735  13.006
59588W        W31259   6.961  16.037  11.600
59589W        W31260  15.798  30.245   0.282
59590W        W31261  22.549  31.659  10.724
59591W        W31262  34.517  24.737   4.149
59592W        W31263  25.065  27.945   4.160
59593W        W31264  31.349  27.156   3.817
59594W        W31265  35.135  17.362   2.325
59595W        W31266   0.851   7.404   0.310
59596W        W31267   1.697  30.623  13.948
59597W        W31268  17.555  15.071   3.933
59598W        W31269  10.731   0.788   1.276
59599W        W31270  26.528  22.645   2.151
59600W        W31271  34.172  21.794   1.768
59601W        W31272  26.582  27.328   0.441
59602W        W31273   5.401  31.491  10.680
59603W        W31274   2.793  39.831   2.627
59604W        W31275  17.238   7.162  13.128
59605W        W31276   6.163  40.250   0.898
59606W        W31277   5.225   4.087   3.652
59607W        W31278  28.970  13.288  11.634
59608W        W31279  29.897  21.410   0.726
59609W        W31280  23.177   1.492  14.840
59610W        W31281  43.628  36.055   4.223
59611W        W31282  12.932  23.981   4.077
59612W        W31283  15.559  44.897   3.283
59613W        W31284   6.693  33.826   3.308
59614W        W31285   4.068  43.808  14.727
59615W        W31286   1.613   6.422  11.072
59616W        W31287  33.027  12.402   2.633
59617W        W31288  28.391   1.724   4.572
59618W        W31289   5.649  20.166  14.480
59619W        W31290  32.733  18.306   5.128
59620W        W31291  38.856   7.969  11.242
59621W        W31292  15.739   4.438  11.894
59622W        W31293  42.739   9.810  14.839
59623W        W31294  19.263  15.306   9.963
59624W        W31295  11.877  36.923  13.972
59625W        W31296  15.071  33.904  10.601
59626W        W31297  14.711   6.237   1.749
59627W        W31298  23.854  33.369   3.758
59628W        W31299  33.722  19.945  11.612
59629W        W31300   0.995  38.034  13.412
59630W        W31301  42.450  18.537  11.522
59631W        W31302  39.818  44.189   0.312
59632W        W31303   0.210   3.285  13.040
59633W        W31304  36.392   7.938  13.120
59634W        W31305  17.559  38.311   2.886
59635W        W31306  41.588   1.853  13.894
59636W        W31307  42.178  29.916  13.961
59637W        W31308  25.734  30.864  11.551
59638W        W31309  18.564  34.313   4.707
59639W        W31310  37.571  22.760  11.729
59640W        W31311  13.857   3.772   3.413
59641W        W31312  34.182  10.274  14.951
59642W        W31313   5.504  13.770   0.732
59643W        W31314  40.801  38.304   1.716
59644W        W31315  36.364  38.529  13.572
59645W        W31316   2.467  40.826  11.112
59646W        W31317  27.210  31.852  12.839
59647W        W31318  40.081  10.060   0.455
59648W        W31319  11.965  41.716  11.242
59649W        W31320  31.595  26.974  11.396
59650W        W31321  22.736  26.202   3.734
59651W        W31322  36.421  19.216   1.297
59652W        W31323   8.508  11.243   2.425
59653W        W31324  16.521  31.908   4.287
59654W        W31325  37.135  37.791  14.280
59655W        W31326  25.354   5.615   3.192
59656W        W31327  18.806   8.837  14.361
59657W        W31328  36.169  34.900  13.368
59658W        W31329   0.528  28.036  14.254
59659W        W31330  31.087  32.191   5.061
59660W        W31331  24.468  33.815   1.289
59661W        W31332  16.744  40.944  14.853
59662W        W31333  31.963  11.275   3.285
59663W        W31334  10.246  25.013  14.514
59664W        W31335  42.410  39.351   3.716
59665W        W31336  43.572  18.676  10.930
59666W        W31337   6.023  10.921  10.305
59667W        W31338  41.387  12.256   5.249
59668W        W31339  39.290   6.939  12.489
59669W        W31340  39.946   4.713  13.561
59670W        W31341  34.932   3.209   2.187
59671W        W31342  39.346  32.520   3.349
59672W        W31343  20.341  43.519  13.871
59673W        W31344  17.311  39.275   2.806
59674W        W31345  22.646  44.507  14.963
59675W        W31346  28.740  18.152  12.177
59676W        W31347   0.503  40.416  13.966
59677W        W31348  15.088  29.527  12.513
59678W        W31349  43.582  19.151  11.131
59679W        W31350  29.645  10.120   3.227
59680W        W31351   0.142  21.134   5.162
59681W        W31352  14.142  37.774  11.655
59682W        W31353  35.406  23.646  12.951
59683W        W31354  19.509  34.512   1.315
59684W        W31355  28.440  30.099   4.293
59685W        W31356  44.234  40.460   1.869
59686W        W31357  31.446  21.318   3.324
59687W        W31358  31.466  26.810   0.473
59688W        W31359  24.577  44.409   2.891
59689W        W31360  16.602   9.237  11.570
59690W        W31361  34.092  32.348   4.246
59691W        W31362   1.358   9.892   4.528
59692W        W31363  39.023  42.309  12.089
59693W        W31364  41.669  17.272  10.735
59694W        W31365   4.853  24.611  14.554
59695W        W31366  26.521   1.628  10.693
59696W        W31367  11.975   6.224  10.219
59697W        W31368  14.017   2.333   1.482
59698W        W31369  11.166  25.348   4.156
59699W        W31370   1.046  15.227   1.238
59700W        W31371   1.871  35.488  12.087
59701W        W31372  21.759  34.575   4.626
59702W        W31373  11.113   3.448   3.713
59703W        W31374  10.321  14.081  12.599
59704W        W31375   4.774   9.041   2.905
59705W        W31376  30.053  21.542   3.045
59706W        W31377  13.157  39.817   2.425
59707W        W31378  12.401  32.487   0.951
59708W        W31379  37.861  30.955  13.322
59709W        W31380  44.749  27.951  14.323
59710W        W31381  44.122  17.057   4.538
59711W        W31382  39.276   8.360   0.336
59712W        W31383   1.816  26.116   4.568
59713W        W31384  22.623  23.584   0.133
59714W        W31385   6.653  15.178   3.701
59715W        W31386   7.446  25.099  14.080
59716W        W31387   3.910   7.677  13.298
59717W        W31388  10.316   6.535  13.871
59718W        W31389  23.003  43.793  14.477
59719W        W31390  41.944  22.288  12.983
59720W        W31391   8.509  27.067   2.721
59721W        W31392  31.722  29.940   3.972
59722W        W31393  39.397  22.841   2.285
59723W        W31394  30.201  20.276   1.395
59724W        W31395   8.331   4.962  11.133
59725W        W31396  34.428  34.853   4.272
59726W        W31397  14.482   0.539  13.511
59727W        W31398   1.750  41.890  12.356
59728W        W31399  23.235  13.139  13.532
59729W        W31400   2.797  30.346   2.789
59730W        W31401  35.303  12.319   1.357
59731W        W31402  21.850  36.078   0.960
59732W        W31403   4.921   1.312   0.704
59733W        W31404   4.595  20.905  13.745
59734W        W31405  40.094  41.004  13.847
59735W        W31406  16.113   9.679   1.771
59736W        W31407  11.726  35.135   2.741
59737W        W31408  33.889   3.638  13.080
59738W        W31409  27.039  25.845  11.154
59739W        W31410  33.679  28.099  12.798
59740W        W31411  40.466  21.550  12.331
59741W        W31412  33.117  15.617  14.306
59742W        W31413   4.161  20.136  14.484
59743W        W31414  10.162  30.539   1.449
59744W        W31415  25.316   2.235   4.474
59745W        W31416  11.976  36.392   3.257
59746W        W31417   8.252   5.949   3.187
59747W        W31418  15.922  28.212   2.252
59748W        W31419   1.107  23.556   5.191
59749W        W31420  18.818  29.801   1.189
59750W        W31421  11.398  22.876   0.410
59751W        W31422  40.854  25.718   2.426
59752W        W31423   0.453  29.687  14.002
59753W        W31424   7.653  30.104  12.917
59754W        W31425  22.835  31.030  14.353
59755W        W31426  22.628  33.503  11.960
59756W        W31427   2.355  31.672   4.551
59757W        W31428  28.904   7.384   9.824
59758W        W31429   2.331  43.086  12.131
59759W        W31430   0.253  39.280   4.244
59760W        W31431   2.351  39.128  14.268
59761W        W31432   5.302   6.517   1.786
59762W        W31433  16.541  15.195  14.087
59763W        W31434  15.719   9.497  10.595
59764W        W31435  14.290  19.338  14.495
59765W        W31436   8.424  28.662  13.858
59766W        W31437  34.652  37.665   9.687
59767W        W31438  10.879  12.158   0.502
59768W        W31439   0.817  15.556   2.194
59769W        W31440  26.055  25.236   1.465
59770W        W31441  38.601   6.680  11.139
59771W        W31442   9.759  13.131   3.871
59772W        W31443  42.504   3.788  13.437
59773W        W31444  22.703  24.832  11.079
59774W        W31445  29.181   6.190  14.177
59775W        W31446   5.718  13.369  13.808
59776W        W31447  29.299  33.776  13.270
59777W        W31448  22.257  29.958  13.613
59778W        W31449  22.542  20.995   2.275
59779W        W31450  21.569  15.286  13.132
59780W        W31451  42.839   3.848   1.267
59781W        W31452  21.987   5.722   4.282
59782W        W31453  18.506  32.562   2.569
59783W        W31454  10.386   1.843   1.540
59784W        W31455  25.936   5.856   4.570
59785W        W31456  11.208  41.718   3.164
59786W        W31457  34.836  15.801   1.920
59787W        W31458  19.623  26.420  11.886
59788W        W31459  37.887  36.059   0.844
59789W        W31460  32.306  28.591  11.594
59790W        W31461  25.101   0.043  13.480
59791W        W31462  27.999  34.443   2.736
59792W        W31463  21.211   1.964   1.362
59793W        W31464   9.657  37.561   0.833
59794W        W31465  41.122  29.000  12.631
59795W        W31466  15.231   7.550   2.164
59796W        W31467  21.051  25.268   4.664
59797W        W31468  36.111   3.478   3.253
59798W        W31469  38.264   8.830  12.351
59799W        W31470   6.841   2.956   4.422
59800W        W31471  13.128  18.626  10.963
59801W        W31472  22.237  23.080  14.287
59802W        W31473  38.162  24.672  11.157
59803W        W31474  25.954  25.022  13.094
59804W        W31475  43.481   3.944   2.890
59805W        W31476   3.562  21.176   1.717
59806W        W31477  30.838  16.190   2.185
59807W        W31478   1.587  32.501   0.243
59808W        W31479  21.605  26.562  10.796
59809W        W31480  36.558  14.278   3.756
59810W        W31481  28.028  26.469   1.354
59811W        W31482  12.328  29.716  13.892
59812W        W31483  35.032  41.801   4.514
59813W        W31484  22.056  31.515   4.099
59814W        W31485  39.823  25.337  14.289
59815W        W31486   8.139   3.053  12.574
59816W        W31487  20.907  39.863   4.687
59817W        W31488  17.206  35.365  14.931
59818W        W31489  18.115  40.208  12.175
59819W        W31490  10.674  27.706  11.126
59820W        W31491  22.552   0.307   3.223
59821W        W31492  39.474  30.182  13.818
59822W        W31493  39.865  27.501  14.312
59823W        W31494   2.156   7.275   5.121
59824W        W31495  43.802  43.965  12.062
59825W        W31496   8.980   8.296   1.902
59826W        W31497  34.329   2.843  11.302
59827W        W31498  32.948   4.959   4.823
59828W        W31499  20.867  40.981  10.873
59829W        W31500  13.634  11.149  13.366
59830W        W31501  16.250   7.253  12.504
59831W        W31502  33.830  29.848   0.915
59832W        W31503  42.335  26.704  11.998
59833W        W31504  40.608  22.475  14.389
59834W        W31505  38.992   6.705   4.050
59835W        W31506  15.141  16.178   1.534
59836W        W31507  43.521   3.777   4.738
59837W        W31508  21.720   6.255  14.546
59838W        W31509  42.389  44.946  14.086
59839W        W31510  29.208  25.392   5.082
59840W        W31511  40.984  33.042  13.799
59841W        W31512  31.047  41.161  14.279
59842W        W31513  20.598  27.704  14.372
59843W        W31514  44.976   6.045   4.322
59844W        W31515  15.780  37.981  12.001
59845W        W31516  37.699  27.678   1.336
59846W        W31517  41.793  44.033   2.271
59847W        W31518  26.685  20.155  12.154
59848W        W31519  28.478  10.784   2.369
59849W        W31520  28.751   4.907  13.395
59850W        W31521   5.907  27.582  11.984
59851W        W31522  32.045  12.131  11.535
59852W        W31523   8.251  10.827  11.571
59853W        W31524  10.012  23.184   3.397
59854W        W31525  20.162   0.026   3.570
59855W        W31526  12.642  14.818  14.402
59856W        W31527  18.718  44.717  13.035
59857W        W31528  12.449  35.377  12.836
59858W        W31529  33.829  31.935  12.941
59859W        W31530   6.806  39.929   4.405
59860W        W31531  35.957  15.356  13.549
59861W        W31532  37.155  25.839   4.712
59862W        W31533  21.311  15.765  11.884
59863W        W31534  14.574   6.295   3.819
59864W        W31535  36.026  34.034   2.891
59865W        W31536  29.966  34.902   3.830
59866W        W31537  36.055   1.406   0.693
59867W        W31538  14.299  41.028   2.926
59868W        W31539  37.897  34.110   2.873
59869W        W31540  35.104  36.937   3.209
59870W        W31541   1.716  42.335   2.218
59871W        W31542  23.031  15.611   4.883
59872W        W31543  22.950  43.532  14.957
59873W        W31544  31.690  14.132   1.795
59874W        W31545  12.751  33.514   4.059
59875W        W31546   6.130  33.639   4.179
59876W        W31547  25.138  42.239   0.190
59877W        W31548   3.187  38.011  14.405
59878W        W31549  17.482  17.726   2.470
59879W        W31550  11.359  43.949   0.139
59880W        W31551  18.011  39.916   1.774
59881W        W31552   3.848  15.801  13.422
59882W        W31553  43.618  13.477  11.557
59883W        W31554  11.916  10.589  13.013
59884W        W31555  31.125  43.538   1.165
59885W        W31556  26.743  42.419   3.365
59886W        W31557  10.505   9.714   4.710
59887W        W31558   8.806  10.446   4.126
59888W        W31559   0.419   1.948  12.355
59889W        W31560  19.120   4.772   3.273
59890W        W31561  40.992   3.945   3.821
59891W        W31562   5.214  30.611   3.828
59892W        W31563  41.576  17.587   0.189
59893W        W31564  26.562  10.315  14.203
59894W        W31565  39.995  15.681   1.038
59895W        W31566  37.571   7.081  13.584
59896W        W31567  32.317   5.389  14.395
59897W        W31568  34.385  35.000   4.929
59898W        W31569  21.197  24.054   1.161
59899W        W31570  19.245  17.688  12.276
59900W        W31571  41.577   6.773   2.303
59901W        W31572  11.215  23.508  12.892
59902W        W31573  40.515  43.003   4.788
59903W        W31574  28.719  25.241  14.532
59904W        W31575  36.498  29.194  11.203
59905W        W31576   6.856  22.043  13.134
59906W        W31577  21.951  11.709   0.979
59907W        W31578  11.797   6.305   0.734
59908W        W31579   7.269   9.373  13.045
59909W        W31580   2.455  15.223   0.172
59910W        W31581  32.601  43.823  12.443
59911W        W31582  43.784  16.684  11.629
59912W        W31583  35.329  30.113   1.302
59913W        W31584  41.085  39.100  14.502
59914W        W31585  20.716  41.895  14.063
59915W        W31586  42.538  24.425  11.597
59916W        W31587  16.268   7.429   1.922
59917W        W31588  28.074  33.981   2.507
59918W        W31589  10.696   8.901  11.629
59919W        W31590   2.967  39.079   4.342
59920W        W31591  29.050  19.255   1.729
59921W        W31592  41.298  28.692   3.280
59922W        W31593  27.583  37.995  10.852
59923W        W31594  20.161  44.858  13.402
59924W        W31595  21.728  33.166   1.715
59925W        W31596  24.256  26.254  13.991
59926W        W31597  18.284   4.903   3.759
59927W        W31598   3.640  20.321  10.697
59928W        W31599   1.724  17.356  13.388
59929W        W31600   0.693  40.434  13.485
59930W        W31601  14.940  13.290   4.044
59931W        W31602   8.052  11.251   1.052
59932W        W31603  26.527  27.229  12.518
59933W        W31604  32.688  41.489   4.575
59934W        W31605   2.385  19.117  14.942
59935W        W31606  28.546  21.079   0.442
59936W        W31607   6.649   2.209   4.129
59937W        W31608  34.606   8.903  14.381
59938W        W31609  30.194   6.310   2.138
59939W        W31610   6.914  19.649   2.109
59940W        W31611  33.979  21.139   0.038
59941W        W31612  10.198   3.243   2.348
59942W        W31613  19.581  13.873   1.442
59943W        W31614  29.027   1.525   1.151
59944W        W31615  38.231  31.507  13.778
59945W        W31616  20.490  29.919  12.454
59946W        W31617   7.332  20.919   1.194
59947W        W31618  20.944   7.299   4.434
59948W        W31619  12.006  15.210   2.224
59949W        W31620  11.125  10.489   0.860
59950W        W31621  16.777   0.168  11.604
59951W        W31622  43.943   3.016  10.688
59952W        W31623  39.129   8.484   4.254
59953W        W31624  19.953   5.372   1.809
59954W        W31625  32.285  26.695  14.568
59955W        W31626  43.605  14.804   9.592
59956W        W31627  32.947  38.694   2.726
59957W        W31628   8.755  13.414   2.394
59958W        W31629  40.103  33.568  11.925
59959W        W31630  11.574   4.988   5.241
59960W        W31631  26.004  32.559   4.714
59961W        W31632  16.255  20.792   2.306
59962W        W31633  43.431  44.365   4.194
59963W        W31634   2.318  42.743   0.964
59964W        W31635  41.974   6.946  12.890
59965W        W31636  20.249  31.450   1.252
59966W        W31637  30.628  32.884  11.093
59967W        W31638  15.265  32.807   2.665
59968W        W31639  15.271  16.291  12.473
59969W        W31640   6.251   4.237   4.618
59970W        W31641  19.904  38.040  12.776
59971W        W31642  29.216  25.935  11.613
59972W        W31643   5.448   8.514  11.854
59973W        W31644  36.228  15.918  12.931
59974W        W31645   2.910   2.223  12.015
59975W        W31646  10.104  36.854   2.384
59976W        W31647  39.369   7.671  14.811
59977W        W31648  27.060  40.610  10.999
59978W        W31649  25.077   3.400  13.390
59979W        W31650  10.849  17.504  10.921
59980W        W31651  19.002  14.603   0.220
59981W        W31652  35.169  36.325   9.920
59982W        W31653  16.527  14.567   1.712
59983W        W31654  10.659  31.825   3.183
59984W        W31655  19.794  25.082  11.176
59985W        W31656  29.221  44.511  14.996
59986W        W31657  29.627  35.840  10.377
59987W        W31658  15.790  13.828   2.828
59988W        W31659  32.100  26.044  12.970
59989W        W31660  35.943  34.543   4.176
59990W        W31661   0.777  17.899  10.557
59991W        W31662  28.610  14.461  11.739
59992W        W31663  27.682  42.506   1.380
59993W        W31664  25.672  17.225   2.749
59994W        W31665   8.978  12.940   4.293
59995W        W31666  26.760  36.529   0.438
59996W        W31667  25.193   6.920   1.742
59997W        W31668   2.846  32.289  14.721
59998W        W31669  36.938  24.503   4.675
59999W        W31670  26.446  35.116  11.590
60000W        W31671  34.520   7.470  13.119
60001W        W31672  43.730   9.991   2.254
60002W        W31673   8.760   0.924   4.550
60003W        W31674  15.779  44.224  13.896
60004W        W31675  33.660  14.068   1.843
60005W        W31676  10.635  20.797  14.993
60006W        W31677  17.661  16.192  10.985
60007W        W31678  43.988   6.217  14.441
60008W        W31679  24.465  36.356  13.830
60009W        W31680   4.649  37.162   2.587
60010W        W31681  29.274  12.661   3.179
60011W        W31682  28.041  24.953   1.636
60012W        W31683  43.550  31.916  10.683
60013W        W31684  30.840  41.003   3.795
60014W        W31685   0.514   5.849  10.502
60015W        W31686  20.237  37.574  14.815
60016W        W31687  14.267  17.523  10.887
60017W        W31688  33.461  27.457  10.210
60018W        W31689   9.821  24.988   4.182
60019W        W31690  18.697  13.776  13.369
60020W        W31691  18.237  11.236  14.717
60021W        W31692  32.013  36.797  14.844
60022W        W31693   9.854  31.738  12.450
60023W        W31694  20.274   0.399  12.030
60024W        W31695  21.472  44.732   2.140
60025W        W31696   9.413   3.277   0.008
60026W        W31697  18.401   7.731   2.725
60027W        W31698  30.536   4.960  12.446
60028W        W31699  40.806  15.187   1.702
60029W        W31700   9.976  19.757   4.679
60030W        W31701   2.524   8.674   2.746
60031W        W31702  32.937  30.514  14.432
60032W        W31703  20.833  18.048  11.210
60033W        W31704  28.517  12.609   3.657
60034W        W31705  13.391   9.686  14.830
60035W        W31706  42.943   2.668   2.452
60036W        W31707  24.736  19.965  11.424
60037W        W31708  15.326  16.007   3.371
60038W        W31709  25.457  21.261  11.920
60039W        W31710  44.281  23.228   0.208
60040W        W31711  20.469  22.147   4.500
60041W        W31712  20.095  35.863  13.817
60042W        W31713   6.740  30.649  12.032
60043W        W31714  41.000   9.906  12.476
60044W        W31715   1.924  19.746  10.021
60045W        W31716  34.488  41.650   4.115
60046W        W31717  16.126  40.254  14.959
60047W        W31718   9.001  24.940   0.287
60048W        W31719  41.414  35.460   0.857
60049W        W31720   7.905  23.952   0.197
60050W        W31721  16.694  33.688   1.293
60051W        W31722   0.923  38.506  11.658
60052W        W31723   6.090   4.864  10.713
60053W        W31724  29.789  43.846  11.220
60054W        W31725  22.135  32.131  13.865
60055W        W31726   5.163  16.797  10.513
60056W        W31727  33.159  32.884  11.938
60057W        W31728   1.734  19.460  11.467
60058W        W31729  31.680  22.204   2.418
60059W        W31730  33.325   1.927   2.582
60060W        W31731  10.641   4.741  11.607
60061W        W31732  23.072  32.411  10.538
60062W        W31733   4.238   4.980  13.376
60063W        W31734  21.231  37.005  13.264
60064W        W31735  24.877  36.973  10.558
60065W        W31736  39.311  21.041  10.673
60066W        W31737  36.592  42.461   2.857
60067W        W31738   0.083  21.780  11.965
60068W        W31739  36.336   4.754   3.232
60069W        W31740  38.393  35.717  13.596
60070W        W31741  16.422   9.408   3.209
60071W        W31742   2.528   5.488  13.945
60072W        W31743  24.944  43.820   2.334
60073W        W31744  11.916  34.111   1.483
60074W        W31745  22.694  42.705  10.304
60075W        W31746   0.056   2.438  13.037
60076W        W31747  30.136  41.923   1.578
60077W        W31748   7.336  44.953   3.631
60078W        W31749  44.474  39.976  10.643
60079W        W31750  11.720  34.425   2.524
60080W        W31751   0.846  28.036  11.981
60081W        W31752   4.798  24.735   0.057
60082W        W31753   7.484   9.843   1.223
60083W        W31754  28.703  24.636  12.490
60084W        W31755  10.928  23.057   3.665
60085W        W31756  17.157  12.255   4.726
60086W        W31757   9.297  36.334  13.859
60087W        W31758  43.055  24.142  11.023
60088W        W31759  28.137   4.825   3.805
60089W        W31760  35.147   5.923   4.320
60090W        W31761  14.363  15.600   3.728
60091W        W31762  24.755  43.297  11.623
60092W        W31763  28.828  11.916  10.764
60093W        W31764  15.601  23.510   0.537
60094W        W31765  23.151   6.874  11.570
60095W        W31766  43.878  25.934  10.905
60096W        W31767  22.685  34.643   4.804
60097W        W31768  37.646   5.931   3.334
60098W        W31769  33.653  22.215   3.248
60099W        W31770  39.107  17.993   4.068
60100W        W31771  12.010  31.557  13.343
60101W        W31772   0.323  32.106   2.217
60102W        W31773  13.049  22.200   0.280
60103W        W31774   2.729  21.621  13.127
60104W        W31775   1.777  37.256  11.164
60105W        W31776  25.989  35.364  11.645
60106W        W31777  43.758  39.000   2.127
60107W        W31778  18.671  27.707   1.015
60108W        W31779  30.661  21.813  11.441
60109W        W31780  33.579  21.609  14.809
60110W        W31781  41.379  22.736  14.855
60111W        W31782  18.492  37.944   4.402
60112W        W31783   1.518  12.672   1.907
60113W        W31784  11.646  14.566   3.369
60114W        W31785  21.066   9.471  10.595
60115W        W31786  42.687   0.318  13.001
60116W        W31787   0.641  34.078   4.090
60117W        W31788   5.163  27.243  13.977
60118W        W31789   5.708   8.228   1.718
60119W        W31790  28.904  12.831   0.688
60120W        W31791  39.518  15.281  11.595
60121W        W31792  33.067  40.262  13.350
60122W        W31793  18.850   1.302   2.738
60123W        W31794  42.208  43.985  11.040
60124W        W31795  42.257  11.576   4.627
60125W        W31796   3.424  33.885  12.406
60126W        W31797  23.771  27.748   2.202
60127W        W31798  23.685  30.891  14.484
60128W        W31799   8.345  39.260   0.863
60129W        W31800   3.223  14.682   0.936
60130W        W31801  26.714  32.642  14.748
60131W        W31802  13.705  23.627   1.276
60132W        W31803  18.354  44.296  11.138
60133W        W31804  44.447  24.749  13.377
60134W        W31805  38.741  39.116   0.335
60135W        W31806  20.625  35.438   1.886
60136W        W31807   3.431   0.768  11.224
60137W        W31808  27.996  37.447  11.945
60138W        W31809  27.764  35.945   4.365
60139W        W31810  22.743  44.807   4.548
60140W        W31811  33.444  40.009  10.346
60141W        W31812  37.042   2.999  12.542
60142W        W31813   1.837  43.982   1.431
60143W        W31814   1.144  10.365   4.592
60144W        W31815  40.591   8.115   3.274
60145W        W31816   4.483  32.376   3.216
60146W        W31817  16.610  25.762   1.988
60147W        W31818   2.833   0.052  11.240
60148W        W31819  22.750  27.486  12.952
60149W        W31820  29.565  11.310   2.689
60150W        W31821  31.679  27.174   2.871
60151W        W31822  31.598  44.772   1.461
60152W        W31823  43.293   7.854   4.229
60153W        W31824   2.642  40.405  12.856
60154W        W31825   1.413  26.265  14.019
60155W        W31826  33.171  35.007  14.421
60156W        W31827  16.751  36.726   1.401
60157W        W31828  23.722  12.294  11.190
60158W        W31829  34.970  18.197  10.515
60159W        W31830  12.192  41.014  12.103
60160W        W31831  16.876   5.567   4.610
60161W        W31832  19.605   5.444   2.165
60162W        W31833  27.019  18.513   1.420
60163W        W31834   9.366  11.693   0.562
60164W        W31835  22.771  31.041  13.033
60165W        W31836  38.786   0.978   0.929
60166W        W31837  21.111  43.719  10.588
60167W        W31838   7.065  40.443  14.894
60168W        W31839  31.060  20.017   1.109
60169W        W31840  37.924  12.742  14.817
60170W        W31841  11.228  32.392  10.990
60171W        W31842   8.875  31.922  12.507
60172W        W31843  31.557  15.365  14.819
60173W        W31844  14.101  14.297   3.556
60174W        W31845  22.097  29.032   4.933
60175W        W31846  41.286  33.839  12.552
60176W        W31847  22.144  15.355   1.840
60177W        W31848   5.034  40.804  11.119
60178W        W31849  42.878  13.465   1.725
60179W        W31850   7.791  33.890   4.165
60180W        W31851  28.154  28.470   4.722
60181W        W31852  39.791  17.043  10.630
60182W        W31853   8.170  42.882   3.105
60183W        W31854  14.374  21.503  13.806
60184W        W31855  14.346  42.235  10.741
60185W        W31856  20.493  36.712  13.192
60186W        W31857  35.968  27.165   0.396
60187W        W31858  30.395   2.875   0.714
60188W        W31859   4.892  23.062  11.013
60189W        W31860  32.176  37.141   1.277
60190W        W31861   7.012  12.707  10.655
60191W        W31862  23.636   6.934   0.510
60192W        W31863  24.083  43.236   1.395
60193W        W31864  13.366  28.959  14.885
60194W        W31865  25.747  11.067  10.215
60195W        W31866  37.019   5.757   4.074
60196W        W31867  43.375   7.659  13.359
60197W        W31868  41.413  40.442   2.326
60198W        W31869  38.424  44.316  10.710
60199W        W31870  16.817  39.022  13.892
60200W        W31871  27.227  14.731  13.741
60201W        W31872  24.493  25.603  13.005
60202W        W31873  36.414   3.013  13.455
60203W        W31874   6.689   8.158  12.407
60204W        W31875  27.598   5.837   0.021
60205W        W31876  37.329  17.645  12.368
60206W        W31877  40.904  43.948  12.452
60207W        W31878  36.159   7.877  14.800
60208W        W31879  22.478  13.253   2.319
60209W        W31880   4.715  25.251   0.177
60210W        W31881  14.018  44.822  11.782
60211W        W31882  28.854  34.839  12.810
60212W        W31883  36.446  14.736   2.041
60213W        W31884  24.194  19.018  14.459
60214W        W31885  23.178  40.268   0.987
60215W        W31886   1.348  26.695  10.236
60216W        W31887  26.609   2.474  12.714
60217W        W31888   4.455  19.739   0.707
60218W        W31889  17.309   0.340   2.817
60219W        W31890  34.386  36.787   0.424
60220W        W31891   6.477  35.080  12.107
60221W        W31892  17.726   5.046  11.900
60222W        W31893  10.604  12.363  11.114
60223W        W31894  11.709   3.464   1.368
60224W        W31895  25.727   7.403   3.739
60225W        W31896  24.131   0.654  11.120
60226W        W31897   8.494   0.835   0.512
60227W        W31898   2.941  39.876  11.130
60228W        W31899  16.097  20.461  12.100
60229W        W31900   7.754   0.420   0.893
60230W        W31901   0.989  22.840  12.858
60231W        W31902  33.389  23.841   2.212
60232W        W31903  13.207  36.217  13.638
60233W        W31904   5.827  12.982   4.128
60234W        W31905   8.132  42.048  10.959
60235W        W31906  40.577   9.623   0.910
60236W        W31907  29.695  42.889  11.664
60237W        W31908  21.178  24.612   2.423
60238W        W31909  23.757  35.362  12.631
60239W        W31910  35.631   0.428   4.076
60240W        W31911  16.885  17.300  11.614
60241W        W31912   8.153  13.543   1.230
60242W        W31913  13.852   8.774  14.828
60243W        W31914  33.571   5.463  11.411
60244W        W31915   9.417  21.537   3.994
60245W        W31916  37.981  28.775  14.448
60246W        W31917   1.899  22.712  12.656
60247W        W31918  31.488   3.485   2.158
60248W        W31919  37.182  32.119  12.381
60249W        W31920  39.436  28.674  14.053
60250W        W31921  26.125  28.403   2.421
60251W        W31922  29.816  21.629  11.570
60252W        W31923  20.997   7.485   1.159
60253W        W31924   1.381  39.830   0.015
60254W        W31925   7.275   0.300   1.788
60255W        W31926  25.241  23.275   1.906
60256W        W31927  17.676  20.092  11.598
60257W        W31928  18.671  26.193   1.029
60258W        W31929  11.779   9.807   4.622
60259W        W31930   5.144  26.999  13.505
60260W        W31931  28.057  23.067  14.625
60261W        W31932  14.308  19.269  12.094
60262W        W31933  38.948  17.629  14.720
60263W        W31934  37.119  15.240   3.032
60264W        W31935   1.729  29.795  14.575
60265W        W31936  38.416  33.552   4.019
60266W        W31937   5.891  21.144   4.564
60267W        W31938   1.730   0.059   4.225
60268W        W31939  24.491   1.747  14.013
60269W        W31940  39.971  35.017   4.116
60270W        W31941  35.565  42.653  14.669
60271W        W31942  28.260   3.168   0.406
60272W        W31943  39.050  25.669   3.335
60273W        W31944  38.967  11.898   4.158
60274W        W31945  10.919  10.317   1.334
60275W        W31946  39.229  20.455   0.834
60276W        W31947   4.208  32.129   2.280
60277W        W31948  10.157  43.364  14.535
60278W        W31949  44.851  44.081   1.406
60279W        W31950  21.778  41.843  14.988
60280W        W31951  16.071   3.798  12.899
60281W        W31952  39.064  38.989  11.880
60282W        W31953  30.114  14.592   3.322
60283W        W31954  38.842  18.675   3.741
60284W        W31955   5.676   4.296   3.673
60285W        W31956  38.353  18.475   3.768
60286W        W31957   0.389  42.091   2.850
60287W        W31958  38.658  18.029   0.852
60288W        W31959  37.278  10.349   1.241
60289W        W31960  43.341  13.314  11.992
60290W        W31961   4.445   2.340   3.117
60291W        W31962  24.323  18.101   1.908
60292W        W31963  14.563  30.063  14.433
60293W        W31964  21.174  41.379   1.967
60294W        W31965  12.541  18.806   1.941
60295W        W31966   9.965  43.613  12.737
60296W        W31967  37.198  17.468  12.897
60297W        W31968  26.232   4.505   3.682
60298W        W31969  28.956  16.117  13.894
60299W        W31970  32.869   5.153   2.810
60300W        W31971  10.144  40.837   2.952
60301W        W31972   1.847  36.415   3.182
60302W        W31973   3.709   7.916  11.536
60303W        W31974  20.450  18.965  14.759
60304W        W31975   6.401  13.531  12.562
60305W        W31976   3.857  20.741  10.917
60306W        W31977  31.517  40.335  13.867
60307W        W31978  16.643  28.469   2.824
60308W        W31979  17.040  38.844   3.248
60309W        W31980  29.722  43.784   1.274
60310W        W31981  23.238  37.297  11.969
60311W        W31982  11.118  11.723   0.282
60312W        W31983  29.121  31.132  13.551
60313W        W31984   0.647  16.631   4.835
60314W        W31985  27.529  38.833   0.570
60315W        W31986  17.710  32.101   1.856
60316W        W31987  12.122  36.958  10.661
60317W        W31988  37.978  19.581  13.582
60318W        W31989  35.026  40.633   2.319
60319W        W31990  44.827  27.488   3.932
60320W        W31991  26.621  34.024  10.606
60321W        W31992   0.706  11.207  14.657
60322W        W31993  18.716  21.128  12.600
60323W        W31994  26.682  24.480  13.832
60324W        W31995  28.874   4.156  12.925
60325W        W31996  43.947  42.419   0.320
60326W        W31997  11.923  22.709  11.070
60327W        W31998  16.873  24.033  11.049
60328W        W31999  19.612  14.154   0.170
60329W        W32000   0.850  20.561   1.039
60330W        W32001  39.222  37.853   3.663
60331W        W32002  26.095  43.695   3.125
60332W        W32003  37.960  12.130  14.932
60333W        W32004  24.745  21.084   4.585
60334W        W32005  19.265  23.241   2.277
60335W        W32006  40.859  12.167   0.807
60336W        W32007   5.360  26.580   0.436
60337W        W32008  12.626   9.956   2.216
60338W        W32009   7.904  27.283  11.724
60339W        W32010  13.458  18.603   4.750
60340W        W32011  44.902  17.647   0.340
60341W        W32012  19.750  30.383   0.854
60342W        W32013  15.602  28.222   0.541
60343W        W32014  19.170   7.603   3.184
60344W        W32015  41.080   3.000  14.213
60345W        W32016  10.611   0.508  14.911
60346W        W32017  10.320  32.350  14.290
60347W        W32018  14.112  44.327  11.113
60348W        W32019  10.388  37.831   4.175
60349W        W32020  22.708   3.261   2.055
60350W        W32021  29.782  24.562  11.173
60351W        W32022  13.736  33.024   1.897
60352W        W32023  30.972  26.464  11.281
60353W        W32024   9.442  34.434   0.951
60354W        W32025  13.119  29.619  14.877
60355W        W32026  36.208  42.000   2.012
60356W        W32027   0.868  24.524  12.886
60357W        W32028  31.848  21.267   4.574
60358W        W32029  19.082  42.515   1.163
60359W        W32030  17.522  33.030   0.044
60360W        W32031  27.159  43.004  13.423
60361W        W32032   2.591  26.088   0.301
60362W        W32033   9.186  12.190  13.843
60363W        W32034  32.674  12.067  13.278
60364W        W32035   3.495   2.388   1.441
60365W        W32036  31.613  26.129  13.312
60366W        W32037  22.240  20.062  14.312
60367W        W32038  16.274  13.591  11.983
60368W        W32039  11.725   3.934  11.576
60369W        W32040  16.825  19.511   2.018
60370W        W32041  26.281  18.129   0.591
60371W        W32042   9.243  40.407   2.811
60372W        W32043   7.431  40.098  11.084
60373W        W32044   4.620  37.834   4.648
60374W        W32045  32.043   6.781  12.037
60375W        W32046   7.872  26.753   0.518
60376W        W32047  13.191  10.262   0.948
60377W        W32048  27.639  10.599   2.340
60378W        W32049  25.660  17.079   3.706
60379W        W32050  44.620   2.208   3.211
60380W        W32051  42.087   6.167  14.350
60381W        W32052   1.490  36.206   4.258
60382W        W32053  42.069   5.924  13.889
60383W        W32054  27.366  25.253  12.433
60384W        W32055  29.014   9.181  11.966
60385W        W32056  37.413  26.592   2.670
60386W        W32057  21.175  32.229  13.141
60387W        W32058   4.393   1.872  14.428
60388W        W32059   2.448  38.732   0.201
60389W        W32060   7.712  39.828   2.745
60390W        W32061  25.153  38.571   1.751
60391W        W32062  11.264   7.495   3.319
60392W        W32063  19.223   7.292   2.745
60393W        W32064  23.453  38.045   1.209
60394W        W32065   7.436  40.534  11.931
60395W        W32066  40.960  33.646  12.932
60396W        W32067   5.821   1.860  13.728
60397W        W32068   7.393  11.902  11.928
60398W        W32069  44.366   1.144  14.565
60399W        W32070  33.408  41.237   0.770
60400W        W32071   2.333  19.554  14.347
60401W        W32072  14.416   3.747   4.712
60402W        W32073  26.783  29.986   1.824
60403W        W32074  41.739  13.378   1.256
60404W        W32075  11.864  22.454   2.738
60405W        W32076  21.642  44.714  14.940
60406W        W32077  15.141  13.393   0.240
60407W        W32078  44.234   6.965  11.590
60408W        W32079  38.086  13.543  14.060
60409W        W32080  20.002  22.835   4.169
60410W        W32081   0.753  40.510  11.610
60411W        W32082   4.991   2.825  12.020
60412W        W32083  32.554  16.867   0.957
60413W        W32084  27.094  42.546  12.653
60414W        W32085  15.984  34.861  12.358
60415W        W32086  28.358   1.850  13.146
60416W        W32087  23.274  29.416   3.116
60417W        W32088  16.669  15.240   4.143
60418W        W32089  36.931  37.450   1.862
60419W        W32090   0.826  43.834   1.937
60420W        W32091  42.315   3.786   1.240
60421W        W32092  31.670  19.796  11.564
60422W        W32093  12.566  18.123  11.541
60423W        W32094  16.569  16.992  14.851
60424W        W32095  25.628  13.274  10.495
60425W        W32096  22.247  40.093  14.843
60426W        W32097   8.638   4.272  11.665
60427W        W32098  39.786  12.908   0.908
60428W        W32099  24.780   9.204  13.936
60429W        W32100   9.852  15.625   3.335
60430W        W32101  19.043  30.286   5.030
60431W        W32102   6.909   1.976   1.805
60432W        W32103   2.293  41.639   4.929
60433W        W32104   9.931  13.242   1.377
60434W        W32105  10.073  26.193  14.046
60435W        W32106  31.388  13.827  12.473
60436W        W32107  18.070  15.060   0.329
60437W        W32108   5.245  29.160   2.284
60438W        W32109  19.262  32.419   3.748
60439W        W32110  13.969  32.707  12.060
60440W        W32111  31.904  19.446   2.035
60441W        W32112  34.585  26.178  12.638
60442W        W32113  12.851  37.399   5.180
60443W        W32114   6.656  23.135  11.640
60444W        W32115  30.045   6.225  12.573
60445W        W32116   1.456   1.393  14.564
60446W        W32117  25.441  21.349  10.588
60447W        W32118  25.763  39.111  11.152
60448W        W32119  39.095   3.166  12.441
60449W        W32120   1.852  34.636   0.799
60450W        W32121  33.374   9.312  11.684
60451W        W32122  36.032  39.828   2.226
60452W        W32123  38.414  42.830  10.567
60453W        W32124  26.668  16.237   4.932
60454W        W32125  10.381   6.350   0.815
60455W        W32126  32.046   0.189   1.269
60456W        W32127  18.070  32.114  11.173
60457W        W32128  23.099  36.561   0.660
60458W        W32129  37.074  39.108  11.205
60459W        W32130  18.111  20.009  10.499
60460W        W32131   0.354  35.433   1.201
60461W        W32132  23.092  29.922   3.276
60462W        W32133  21.326  26.298  12.155
60463W        W32134  21.634  20.828   0.935
60464W        W32135  33.862  37.748   4.659
60465W        W32136  14.797   5.744   1.723
60466W        W32137  23.818  36.857   4.867
60467W        W32138  11.377  24.052   2.891
60468W        W32139  43.464  38.205  14.007
60469W        W32140  44.500  40.365  12.850
60470W        W32141  17.041  16.441   4.765
60471W        W32142  41.779  30.501   1.405
60472W        W32143   8.957  43.023  14.503
60473W        W32144   4.001   8.393  11.557
60474W        W32145  26.158  41.549  11.180
60475W        W32146  19.661  30.420   2.786
60476W        W32147  30.510  29.855  10.512
60477W        W32148  42.370  23.566  13.619
60478W        W32149  22.298  37.827   0.319
60479W        W32150  34.416  26.770   0.298
60480W        W32151  42.835  23.335  12.104
60481W        W32152   3.802   2.780  11.951
60482W        W32153  19.794  41.337   4.374
60483W        W32154   9.409  11.281  10.414
60484W        W32155   8.978  35.887   3.693
60485W        W32156  14.817  22.058  14.371
60486W        W32157   8.308  32.889   1.332
60487W        W32158  19.908  23.736  13.497
60488W        W32159  23.953  30.062  10.725
60489W        W32160  21.672  33.181  13.394
60490W        W32161  29.080  37.836   0.074
60491W        W32162  35.908   9.697   4.542
60492W        W32163   3.463   0.407  10.749
60493W        W32164  16.793  25.009  12.005
60494W        W32165  10.872  38.454  13.535
60495W        W32166  28.333  39.571   3.116
60496W        W32167  38.477   0.429  13.510
60497W        W32168  37.775  12.872  13.542
60498W        W32169  40.231  28.472   4.538
60499W        W32170  35.293  14.836  12.343
60500W        W32171  42.743   4.882  13.801
60501W        W32172  17.488  21.155  14.850
60502W        W32173  43.321   7.467  10.124
60503W        W32174  27.311   2.477   4.837
60504W        W32175   0.328  28.641  13.955
60505W        W32176  36.539  42.970  12.545
60506W        W32177   1.861  43.939  10.695
60507W        W32178   0.725  37.241   0.444
60508W        W32179  43.499  21.310  10.494
60509W        W32180  12.474   4.659   4.209
60510W        W32181  35.512  44.335   0.635
60511W        W32182  27.450  43.473   0.348
60512W        W32183  30.560  38.315  11.601
60513W        W32184   7.554  31.540  13.843
60514W        W32185  29.304  12.002  13.845
60515W        W32186   3.798  37.269  13.412
60516W        W32187  29.959  35.944   9.893
60517W        W32188  20.951  39.906   9.715
60518W        W32189   6.777  16.033  12.963
60519W        W32190  10.621   7.597  10.795
60520W        W32191  17.073  20.712   4.628
60521W        W32192   4.944  39.901   1.810
60522W        W32193  11.216  44.422   4.014
60523W        W32194  15.062   6.452  14.988
60524W        W32195  31.385  43.539   2.931
60525W        W32196   9.468  24.588  11.135
60526W        W32197   8.871  20.899  11.642
60527W        W32198  21.479  23.268  12.578
60528W        W32199   7.254  19.710   4.004
60529W        W32200  27.186  42.430  11.039
60530W        W32201   6.713  22.200   4.174
60531W        W32202  25.456  44.179   2.750
60532W        W32203  23.833  40.574   4.307
60533W        W32204  39.400  44.952  11.383
60534W        W32205  40.841   8.187  14.099
60535W        W32206  17.283  24.169   4.539
60536W        W32207  34.974   9.405   2.359
60537W        W32208  43.293  16.085  10.618
60538W        W32209   8.634   6.136  11.455
60539W        W32210  25.633  39.599   4.438
60540W        W32211   5.879   9.947  14.475
60541W        W32212  40.988  14.115  11.521
60542W        W32213  17.484  20.919  11.088
60543W        W32214  31.092   7.159   4.603
60544W        W32215  22.951  26.445   3.301
60545W        W32216  38.270  33.081   0.302
60546W        W32217  38.420  38.821  11.594
60547W        W32218  15.546  13.561   2.423
60548W        W32219  16.065  18.759  14.417
60549W        W32220   5.233  38.972   0.967
60550W        W32221   9.655   0.518  14.080
60551W        W32222  13.303  44.709   2.228
60552W        W32223  40.727  32.573  13.843
60553W        W32224   3.554  39.404   1.819
60554W        W32225   3.426  14.257  14.193
60555W        W32226  21.519  12.156  11.604
60556W        W32227   6.453  38.889   2.296
60557W        W32228   3.085  20.804  14.615
60558W        W32229  28.067  26.670  10.284
60559W        W32230  40.893   0.479   3.819
60560W        W32231  41.604  30.873   3.510
60561W        W32232  36.302   8.250  11.157
60562W        W32233  10.694  44.493  12.655
60563W        W32234  44.802  22.962   9.985
60564W        W32235  22.621  41.026  14.522
60565W        W32236  39.440  42.536   0.637
60566W        W32237   9.363   1.229   2.875
60567W        W32238   1.389  13.881  13.827
60568W        W32239   6.319  14.815   2.363
60569W        W32240  19.944  28.308   3.783
60570W        W32241   7.360  40.434   1.223
60571W        W32242  16.645  25.972  10.999
60572W        W32243  44.820  31.403  12.631
60573W        W32244  14.308  35.434   1.712
60574W        W32245  34.909   2.253   4.284
60575W        W32246  23.631   0.702   1.532
60576W        W32247  20.834   3.254  14.384
60577W        W32248  31.614  11.493  11.114
60578W        W32249  41.863  30.498  14.532
60579W        W32250  36.944  27.999   1.903
60580W        W32251   2.439  11.811   4.534
60581W        W32252  23.990  11.043  12.074
60582W        W32253  14.163  16.494  10.509
60583W        W32254  43.880  14.066  11.962
60584W        W32255  42.901   1.757  11.559
60585W        W32256   7.841   5.384  14.350
60586W        W32257  33.521  10.091   5.056
60587W        W32258  30.902  22.195   4.180
60588W        W32259  36.923  29.429  14.805
60589W        W32260  43.523  29.037   2.818
60590W        W32261  19.841   4.382  10.665
60591W        W32262  20.303  34.597  11.407
60592W        W32263  18.533  35.340   4.236
60593W        W32264  37.922  11.665   0.684
60594W        W32265  16.638   5.336   3.199
60595W        W32266   1.885  37.973   2.111
60596W        W32267  20.185  12.737  11.143
60597W        W32268  18.872   2.446   3.675
60598W        W32269  18.565   0.794   1.654
60599W        W32270  10.450  21.222  14.192
60600W        W32271   7.167  11.585  11.551
60601W        W32272  37.052  15.284  10.479
60602W        W32273   4.884  29.960  12.647
60603W        W32274   3.885  25.551   2.267
60604W        W32275   3.253  29.083  12.947
60605W        W32276  24.997  22.362   1.470
60606W        W32277   4.372   5.285  14.017
60607W        W32278  26.795  28.511   0.916
60608W        W32279  41.446  20.815   4.537
60609W        W32280  31.410  42.820   4.596
60610W        W32281  25.157  42.453   0.679
60611W        W32282  37.585   0.338  11.171
60612W        W32283  34.560  38.996  13.332
60613W        W32284  24.844  11.075  11.258
60614W        W32285   7.290  20.812   4.787
60615W        W32286  43.445  36.370  12.169
60616W        W32287  30.367   7.614   5.386
60617W        W32288  22.542  10.006   9.828
60618W        W32289  36.355   1.334  12.418
60619W        W32290  19.703  10.999   2.776
60620W        W32291   2.357   0.366   4.087
60621W        W32292   8.666  33.969   3.644
60622W        W32293  25.290   8.323   2.761
60623W        W32294   3.708  18.680  10.984
60624W        W32295  20.279  25.790  11.121
60625W        W32296  32.591  35.181  12.445
60626W        W32297  11.256  36.637  13.132
60627W        W32298   8.868  14.415   4.550
60628W        W32299   4.351  18.072   0.488
60629W        W32300  37.593  10.167  13.045
60630W        W32301   6.429  19.678  14.663
60631W        W32302  13.631  27.062   0.844
60632W        W32303  25.811  27.039  14.304
60633W        W32304   9.141  27.971   1.865
60634W        W32305  38.124  21.134   4.906
60635W        W32306  16.619  24.137  13.566
60636W        W32307  34.530   4.906   2.853
60637W        W32308   7.964   7.968  11.137
60638W        W32309  43.768  29.151  14.513
60639W        W32310  21.037  22.741  13.708
60640W        W32311   7.371  17.527  12.508
60641W        W32312  23.544  24.464   2.917
60642W        W32313  36.809  22.768  10.614
60643W        W32314  23.423  38.413  10.574
60644W        W32315   6.667  26.732  12.606
60645W        W32316   2.954  35.057   3.763
60646W        W32317  36.288  38.844  13.973
60647W        W32318   4.247  20.777   0.847
60648W        W32319  14.476  36.319   2.389
60649W        W32320  33.014  37.647  14.265
60650W        W32321  35.278  33.235  10.757
60651W        W32322  42.399  33.862   2.901
60652W        W32323  15.182   6.820   3.790
60653W        W32324  13.814  14.113  13.867
60654W        W32325  16.058  23.669  13.114
60655W        W32326  21.249  30.866   0.017
60656W        W32327  13.883  41.029   2.609
60657W        W32328   3.303  34.988   5.321
60658W        W32329   6.453  20.503   0.326
60659W        W32330  33.729  40.294  11.570
60660W        W32331  13.556  16.108   1.691
60661W        W32332   4.904  40.107  12.464
60662W        W32333  22.440  17.697  10.467
60663W        W32334  26.143  40.945  12.796
60664W        W32335  16.731   0.489   4.334
60665W        W32336  33.427   0.443  14.993
60666W        W32337  38.100  27.260  13.069
60667W        W32338  32.634  26.553   1.471
60668W        W32339  42.633  31.939   0.858
60669W        W32340  22.725   5.332   1.798
60670W        W32341   7.319  20.877  13.019
60671W        W32342  35.628  31.539   0.834
60672W        W32343  21.761  28.231   4.201
60673W        W32344  28.194  44.521  14.114
60674W        W32345  41.489  36.972   0.189
60675W        W32346   2.311   1.339  13.793
60676W        W32347   4.688  20.749  12.529
60677W        W32348  32.682  32.781   0.157
60678W        W32349  22.623  26.916  10.383
60679W        W32350  21.530  17.744  10.582
60680W        W32351  23.850  14.260  12.043
60681W        W32352   6.747  41.260   3.691
60682W        W32353  32.466   7.130  14.902
60683W        W32354  18.647   8.078  13.754
60684W        W32355  35.434  10.767  14.826
60685W        W32356  13.757  16.404  14.439
60686W        W32357  37.384  43.693  11.963
60687W        W32358   5.845  40.301   4.350
60688W        W32359   8.984  16.305  13.797
60689W        W32360   1.275   0.175  14.704
60690W        W32361  44.429  17.273  11.811
60691W        W32362  23.808  37.959   1.626
60692W        W32363   8.205  40.755  11.222
60693W        W32364   4.269  26.575   0.429
60694W        W32365  39.833  11.092  14.378
60695W        W32366   9.652  23.257  13.799
60696W        W32367  24.395   3.882   3.206
60697W        W32368  16.546   5.984  14.373
60698W        W32369  17.651  37.568  13.807
60699W        W32370  44.795   1.817  14.554
60700W        W32371  33.767  27.260  14.669
60701W        W32372   0.336  12.942   4.558
60702W        W32373  34.505  32.388   3.176
60703W        W32374  32.103  22.279  12.419
60704W        W32375  31.695   2.251  13.604
60705W        W32376   2.163  19.722   0.776
60706W        W32377  36.028  13.638   1.267
60707W        W32378   1.285  14.876   0.361
60708W        W32379  27.497  34.773  10.653
60709W        W32380   1.936  32.246   1.057
60710W        W32381   9.915  17.027   1.959
60711W        W32382  17.231   2.167  10.153
60712W        W32383  35.512  13.390   2.244
60713W        W32384  39.068  22.725  11.896
60714W        W32385  34.042  11.375   3.369
60715W        W32386  44.166  13.563  11.207
60716W        W32387  43.391   5.884  13.113
60717W        W32388  11.780  36.073  14.463
60718W        W32389  15.038  16.233  13.064
60719W        W32390  29.381  24.117  13.469
60720W        W32391  31.312  39.389   2.720
60721W        W32392  40.894  33.551  13.850
60722W        W32393  15.805  36.986  10.838
60723W        W32394  20.210  39.027  12.902
60724W        W32395  27.651   4.473   0.409
60725W        W32396  36.013   0.809   3.862
60726W        W32397  14.945   3.733   4.763
60727W        W32398   4.043   9.668  14.843
60728W        W32399   9.706   8.623  12.993
60729W        W32400  19.731  17.097  11.641
60730W        W32401  34.865  20.448  12.012
60731W        W32402  30.563  36.977  13.533
60732W        W32403  27.444  39.258  13.077
60733W        W32404  24.680  16.070  12.030
60734W        W32405  29.374  25.111   1.425
60735W        W32406  17.738  34.882   2.355
60736W        W32407   8.422   6.143  13.444
60737W        W32408  34.823  11.103   1.736
60738W        W32409  10.301  24.525  14.294
60739W        W32410   9.239  34.331   2.698
60740W        W32411  20.247  40.328  13.420
60741W        W32412  10.788   9.438  11.657
60742W        W32413   3.274  40.527  13.268
60743W        W32414  19.183   1.054   3.132
60744W        W32415   0.755  11.812   2.223
60745W        W32416  27.656   0.884  13.293
60746W        W32417  21.275  29.074  14.359
60747W        W32418  40.007  21.123   0.732
60748W        W32419  38.806  28.658   1.858
60749W        W32420  40.469  41.402  13.428
60750W        W32421  41.543   9.832  12.414
60751W        W32422  18.477  36.360   2.565
60752W        W32423  44.393  27.496   3.645
60753W        W32424  30.745  28.054   2.433
60754W        W32425   5.143  13.929   0.362
60755W        W32426  33.947  14.419   1.511
60756W        W32427  22.124  13.793  11.906
60757W        W32428  18.154   0.593  11.427
60758W        W32429  41.959  40.554  11.042
60759W        W32430  16.572   8.404   1.174
60760W        W32431  17.779  30.032   1.419
60761W        W32432   5.837  36.009   4.894
60762W        W32433  21.357  35.996   1.069
60763W        W32434  24.375  41.679   4.928
60764W        W32435  29.900  27.003   1.671
60765W        W32436   9.306  32.477  12.778
60766W        W32437  37.457  18.488   3.661
60767W        W32438   9.382  42.991   4.982
60768W        W32439  22.995   5.295   0.024
60769W        W32440  11.627   0.294  11.085
60770W        W32441  36.460   0.834  10.733
60771W        W32442   4.161  19.315  14.925
60772W        W32443  25.153   1.189  14.330
60773W        W32444   5.669  33.629   4.605
60774W        W32445  26.602  12.938   0.662
60775W        W32446  35.928  14.535  13.940
60776W        W32447  21.049  29.653  11.097
60777W        W32448  36.838  11.824  12.945
60778W        W32449  40.518  20.489   4.196
60779W        W32450   7.872  40.705   0.458
60780W        W32451   9.265  41.750   1.960
60781W        W32452   0.194   0.002  11.506
60782W        W32453   8.089  22.712  10.976
60783W        W32454  12.688  31.047  11.681
60784W        W32455  31.411  30.354   3.332
60785W        W32456   9.893  33.163   2.721
60786W        W32457  38.880  21.501   2.760
60787W        W32458  22.070  41.730  14.565
60788W        W32459   8.213  11.813   2.321
60789W        W32460  15.195   7.321   4.512
60790W        W32461  15.687  18.242  12.838
60791W        W32462  28.990  44.203   3.898
60792W        W32463  18.402  17.589  13.876
60793W        W32464  10.342  33.720  10.810
60794W        W32465  24.983   0.440  12.570
60795W        W32466   8.301   9.098  13.883
60796W        W32467  42.257  22.103   4.101
60797W        W32468   3.353  30.762  11.994
60798W        W32469  11.770  11.680  12.334
60799W        W32470  42.462  11.509   3.327
60800W        W32471  27.317  17.174   4.139
60801W        W32472   3.088  19.385   3.940
60802W        W32473  35.494  37.487  14.538
60803W        W32474  16.832  42.857   0.399
60804W        W32475  25.585   4.537  14.114
60805W        W32476  35.087  28.168   1.736
60806W        W32477  24.672  22.212   0.534
60807W        W32478  39.107  11.192  12.703
60808W        W32479  37.832  39.409   5.494
60809W        W32480   4.380  30.630   1.259
60810W        W32481  40.386   4.788   4.635
60811W        W32482  43.454   7.272   1.336
60812W        W32483  16.113  22.395  10.023
60813W        W32484   7.413   4.372   3.157
60814W        W32485  16.562  31.124  11.087
60815W        W32486  22.251   9.783  10.521
60816W        W32487  16.789   3.230   2.250
60817W        W32488  27.810  20.639   2.354
60818W        W32489  23.943  44.350   3.201
60819W        W32490  27.214  43.004  12.461
60820W        W32491  23.561  18.725   2.605
60821W        W32492  32.254  17.607  13.815
60822W        W32493  25.646  11.298   0.881
60823W        W32494  29.463  11.796  12.357
60824W        W32495  41.343   8.805   1.985
60825W        W32496  40.836   9.290  12.094
60826W        W32497  29.912  18.870   4.115
60827W        W32498  35.023  20.185  12.537
60828W        W32499  33.322   5.701   3.636
60829W        W32500  33.686  23.354  14.028
60830W        W32501  24.754  22.689  13.516
60831W        W32502  23.454   5.374  13.715
60832W        W32503  22.135  22.288  13.251
60833W        W32504  14.114  24.117   0.753
60834W        W32505   9.111  39.977   3.647
60835W        W32506  23.845   3.884   1.006
60836W        W32507  16.792  29.496  13.026
60837W        W32508  41.200  11.690   3.398
60838W        W32509  39.341  25.098  14.318
60839W        W32510  27.955   5.324   3.795
60840W        W32511   6.953  34.845   4.266
60841W        W32512  24.594   2.293  13.153
60842W        W32513  13.287   3.587   2.065
60843W        W32514  29.847  42.050  13.001
60844W        W32515  42.793   8.266  10.590
60845W        W32516  37.884  11.107   2.494
60846W        W32517   5.763  38.727   2.804
60847W        W32518  14.741  20.314  14.886
60848W        W32519  44.647  41.971  12.504
60849W        W32520  40.055  40.840   0.345
60850W        W32521  28.928   2.732   1.751
60851W        W32522   2.771  23.667  13.401
60852W        W32523  26.717  15.475   3.005
60853W        W32524  42.177  15.689  13.382
60854W        W32525  39.973  43.247  11.926
60855W        W32526  39.323  30.888  14.374
60856W        W32527   3.719   3.503   0.715
60857W        W32528  25.489  31.909   3.777
60858W        W32529  26.176  28.512   1.289
60859W        W32530  27.140   9.677   4.206
60860W        W32531  11.860   8.893  13.600
60861W        W32532  17.994  10.464   0.275
60862W        W32533  25.604  10.315  13.484
60863W        W32534  40.921  16.261  14.240
60864W        W32535  12.867  35.796   1.384
60865W        W32536  38.899  37.076   1.923
60866W        W32537   8.876   8.400   3.286
60867W        W32538  18.963  34.718   3.892
60868W        W32539   8.958  31.218  12.061
60869W        W32540  29.500  30.763   3.170
60870W        W32541  12.676   8.249  11.341
60871W        W32542  42.520   5.777  13.194
60872W        W32543  37.981  44.563   2.940
60873W        W32544  25.643  15.624   4.676
60874W        W32545  37.345  36.753   3.613
60875W        W32546  18.094  32.088   3.189
60876W        W32547  32.442  44.746   4.531
60877W        W32548  10.280  31.903  13.965
60878W        W32549  34.662  32.326  11.547
60879W        W32550   2.852  34.116   1.462
60880W        W32551  29.951  16.365  12.085
60881W        W32552  34.042   2.934   1.875
60882W        W32553   3.911  31.348   2.859
60883W        W32554  19.656  17.634  10.910
60884W        W32555   8.675  38.722   9.968
60885W        W32556  18.685  10.584   3.858
60886W        W32557  36.116  44.441  13.482
60887W        W32558   9.280  19.960  10.489
60888W        W32559  24.732   7.837   3.419
60889W        W32560  20.267  12.692  12.117
60890W        W32561  22.876  17.090   3.647
60891W        W32562  25.411  41.031   1.208
60892W        W32563  40.416  35.637  10.919
60893W        W32564  26.774  29.488  12.437
60894W        W32565   1.227  32.084   4.911
60895W        W32566   2.374  33.798   0.209
60896W        W32567   1.840  33.230   4.134
60897W        W32568  26.950  22.050  12.580
60898W        W32569  24.990  22.652   2.327
60899W        W32570  15.171  28.197   0.903
60900W        W32571  19.879  27.999   1.990
60901W        W32572  16.203  30.999  14.239
60902W        W32573   1.207  41.628   2.400
60903W        W32574  43.955  28.419  10.526
60904W        W32575  16.372  19.198  14.376
60905W        W32576  26.169  15.996   1.727
60906W        W32577  32.500  44.595   3.683
60907W        W32578  24.890   3.909   3.084
60908W        W32579  19.875  19.147  13.884
60909W        W32580  24.921  12.694   2.437
60910W        W32581  39.400  34.537  12.453
60911W        W32582  11.124  20.771  12.804
60912W        W32583  21.582  24.827   1.746
60913W        W32584  20.775   6.209   0.359
60914W        W32585  23.627  18.249  12.573
60915W        W32586   7.196  10.561   1.679
60916W        W32587   2.825  24.583  14.924
60917W        W32588  28.960  34.613   0.410
60918W        W32589  37.895   4.291   3.676
60919W        W32590  28.001  18.257   1.271
60920W        W32591  10.410   5.337  12.838
60921W        W32592  40.966  18.278  13.076
60922W        W32593  13.726   6.446  11.413
60923W        W32594  11.332  18.315   1.189
60924W        W32595  12.195  37.140   3.939
60925W        W32596  31.238  11.968  13.021
60926W        W32597  28.548  29.440   2.936
60927W        W32598  32.416  32.253  10.513
60928W        W32599  30.006  14.837  12.125
60929W        W32600  20.128  37.547   3.110
60930W        W32601  14.791  19.222  11.041
60931W        W32602  29.326  28.493   4.395
60932W        W32603  29.367   6.540  12.000
60933W        W32604  21.708  16.832  14.454
60934W        W32605   4.178  16.118  14.246
60935W        W32606  23.431   0.572  14.480
60936W        W32607  20.293  28.092   3.212
60937W        W32608  19.241  19.784   4.992
60938W        W32609  27.978  17.797   4.760
60939W        W32610   3.764  44.444   0.371
60940W        W32611  42.524  32.194   0.386
60941W        W32612  21.230   7.812  13.857
60942W        W32613   9.777  21.285  14.709
60943W        W32614  31.400  42.002  14.414
60944W        W32615   0.007  44.466   4.098
60945W        W32616  30.823  32.524   4.740
60946W        W32617  21.627  20.271   4.332
60947W        W32618  36.020  44.985   0.738
60948W        W32619  12.261  34.038  13.975
60949W        W32620   1.438   3.522  11.068
60950W        W32621  30.914  15.507   3.390
60951W        W32622   9.674  11.730   3.661
60952W        W32623  42.577   8.982   0.294
60953W        W32624   9.945  28.969   1.221
60954W        W32625  11.148  43.482   4.009
60955W        W32626  34.193   1.251   4.094
60956W        W32627  21.141   2.460   1.126
60957W        W32628  41.411  42.341   1.339
60958W        W32629  31.598   2.254  11.137
60959W        W32630  14.829  25.146   0.448
60960W        W32631  23.696  14.317   3.746
60961W        W32632  23.602  30.893  11.048
60962W        W32633   9.772  35.415   4.607
60963W        W32634  30.714   2.722  10.795
60964W        W32635  21.543  13.737   4.814
60965W        W32636   0.256  35.918  13.918
60966W        W32637   1.409  35.863  12.009
60967W        W32638  36.476   7.501   4.149
60968W        W32639  31.044  38.427   3.523
60969W        W32640  23.063  29.442   0.024
60970W        W32641  19.710  24.994   0.023
60971W        W32642  24.315  30.886  12.023
60972W        W32643  15.163  39.067  14.729
60973W        W32644  33.838   9.096   1.780
60974W        W32645   4.920  44.235   4.440
60975W        W32646  41.791  30.766  10.795
60976W        W32647  19.894  30.426  14.477
60977W        W32648   6.150  13.840  11.152
60978W        W32649  12.347  31.924  11.413
60979W        W32650  26.763   7.584  11.091
60980W        W32651  44.924  43.790   1.826
60981W        W32652  34.318  33.252   2.217
60982W        W32653  16.841  11.078   4.899
60983W        W32654  24.553  16.743   4.048
60984W        W32655   7.953  17.104   4.106
60985W        W32656  30.204   0.877  14.237
60986W        W32657  16.817  14.782   2.082
60987W        W32658  29.967  33.863  11.583
60988W        W32659  13.138  14.115  12.166
60989W        W32660  29.154  11.275  14.187
60990W        W32661  36.878  12.331   4.980
60991W        W32662  28.982  30.401   2.329
60992W        W32663  23.900  11.811  13.456
60993W        W32664   0.575  14.013   9.989
60994W        W32665  12.867  20.119  13.107
60995W        W32666  21.658  11.777  10.987
60996W        W32667  28.520  10.794   1.871
60997W        W32668  30.152  21.730  14.131
60998W        W32669  39.771  36.053   0.756
60999W        W32670  36.740   8.230  10.875
61000W        W32671  42.628  17.246  13.741
61001W        W32672  29.475   8.810  10.561
61002W        W32673  13.042  17.834   2.737
61003W        W32674  22.243  16.124  11.111
61004W        W32675   8.297  38.315  10.747
61005W        W32676  10.360   5.636   4.675
61006W        W32677  37.834   8.585  10.627
61007W        W32678   8.926   3.426  14.873
61008W        W32679   1.223  38.482   2.326
61009W        W32680  30.561  14.899  11.510
61010W        W32681  43.852  30.750  14.930
61011W        W32682  16.500   6.559   3.518
61012W        W32683  15.616  29.425  12.472
61013W        W32684  42.575  11.112  13.909
61014W        W32685   7.158  23.637   4.574
61015W        W32686  37.738  43.918   4.259
61016W        W32687  29.183  15.057  12.979
61017W        W32688  23.109   6.969  14.353
61018W        W32689  30.211  26.374   4.014
61019W        W32690   0.454  41.611   2.670
61020W        W32691  41.506  30.368   3.609
61021W        W32692  16.216  29.048   3.662
61022W        W32693  33.819  40.419   0.666
61023W        W32694  31.144  17.036   3.194
61024W        W32695   6.770  22.958   3.746
61025W        W32696  35.177  39.880  13.319
61026W        W32697  35.667   7.948   0.708
61027W        W32698  20.679   9.869   2.548
61028W        W32699  14.763  18.274  12.449
61029W        W32700  42.786  18.085   0.301
61030W        W32701  43.907  25.669  10.467
61031W        W32702  22.019  16.279   4.198
61032W        W32703  44.958  34.979  13.497
61033W        W32704  42.222   1.346  13.498
61034W        W32705  22.439  38.039  13.909
61035W        W32706  20.140  35.993  13.336
61036W        W32707   0.797  15.904   3.516
61037W        W32708  24.576  21.961   2.780
61038W        W32709  27.511   4.428  14.912
61039W        W32710  25.538  19.269   4.595
61040W        W32711  31.505  21.532  10.298
61041W        W32712  38.204   1.419   2.767
61042W        W32713   4.896  26.517   3.269
61043W        W32714  21.538   8.168   4.598
61044W        W32715  28.473   4.987   2.865
61045W        W32716  27.705  14.725   5.123
61046W        W32717   1.988  24.531   3.640
61047W        W32718  28.686  34.984  11.968
61048W        W32719  31.579  18.640   4.667
61049W        W32720  40.141  15.337   4.113
61050W        W32721  36.863   8.355  13.315
61051W        W32722   5.999  21.225  13.026
61052W        W32723  20.894  25.708   1.987
61053W        W32724  39.626   5.682  11.070
61054W        W32725  43.732   8.700   0.865
61055W        W32726  32.924  35.575   3.300
61056W        W32727  32.020  37.557   3.175
61057W        W32728  21.659  30.438  14.265
61058W        W32729  37.896  10.930   2.964
61059W        W32730  18.387   2.387  13.770
61060W        W32731  36.371  42.930   1.089
61061W        W32732   2.847  36.099   3.734
61062W        W32733  10.400   0.651   0.860
61063W        W32734  17.129  10.943   0.679
61064W        W32735  33.167  16.097   1.866
61065W        W32736   8.072  41.328  14.488
61066W        W32737  37.160   8.844   4.125
61067W        W32738   1.285  13.294   1.105
61068W        W32739  25.767  43.470   2.409
61069W        W32740  17.903  28.898  10.789
61070W        W32741  13.617  38.127   1.938
61071W        W32742  18.624  35.950   4.152
61072W        W32743  21.821  20.197   0.200
61073W        W32744   6.724   2.257   2.194
61074W        W32745  28.540  16.853  14.830
61075W        W32746  38.634  38.383   2.312
61076W        W32747  12.711  39.977   1.316
61077W        W32748   7.251  24.472  10.830
61078W        W32749  38.415   1.680  12.684
61079W        W32750  36.493  42.922  10.070
61080W        W32751  39.708  17.997   0.884
61081W        W32752  23.740  26.108  11.598
61082W        W32753  32.056   9.712   2.879
61083W        W32754  23.630  17.233  14.489
61084W        W32755  40.464  15.525  10.105
61085W        W32756  26.810   5.496   2.863
61086W        W32757  19.600   1.953   4.745
61087W        W32758  37.443  19.069  12.504
61088W        W32759  18.183  10.639  13.588
61089W        W32760   0.527   6.807   3.840
61090W        W32761   8.751   8.395  12.042
61091W        W32762  27.959  39.849  11.468
61092W        W32763   2.961  29.307   3.603
61093W        W32764  13.152  26.046  13.940
61094W        W32765  40.495  17.063  11.580
61095W        W32766   4.068   3.807  14.386
61096W        W32767  10.283   2.889  12.462
61097W        W32768  16.247  31.852  11.686
61098W        W32769  31.920  27.430   4.119
61099W        W32770  17.157  34.125   4.273
61100W        W32771  24.608   8.693   1.279
61101W        W32772   4.818  30.966   3.252
61102W        W32773  16.149  29.023  12.042
61103W        W32774   5.652  23.968  13.150
61104W        W32775  21.592  16.315  14.444
61105W        W32776  17.307  12.687  11.586
61106W        W32777  29.577   2.663   2.257
61107W        W32778  31.176  29.467   0.823
61108W        W32779  41.336  30.449  13.383
61109W        W32780  12.804  16.571   3.391
61110W        W32781   3.410  14.840   0.477
61111W        W32782  27.212   7.835   1.842
61112W        W32783  14.690   1.411   3.692
61113W        W32784  44.812  38.449   2.393
61114W        W32785  26.619  19.242   0.298
61115W        W32786  44.471  34.429   4.500
61116W        W32787   7.736  19.530   4.058
61117W        W32788  26.136  28.707   2.827
61118W        W32789  35.665  33.710  11.425
61119W        W32790  11.715  36.535  12.112
61120W        W32791  39.840   0.303   4.819
61121W        W32792  23.969  12.865   3.653
61122W        W32793  40.589   2.455  10.769
61123W        W32794  26.420  13.927   0.722
61124W        W32795  29.406  15.087  14.365
61125W        W32796  36.399  14.135   0.250
61126W        W32797  39.257  11.652  14.261
61127W        W32798  43.279  28.193  14.617
61128W        W32799  24.750   3.413   1.788
61129W        W32800   9.337  32.004  11.649
61130W        W32801  16.077  43.734  13.664
61131W        W32802   7.816  33.394   1.883
61132W        W32803   4.175  27.418   0.785
61133W        W32804  31.255  20.576  13.522
61134W        W32805  23.660  42.041   1.430
61135W        W32806   5.434  14.818  11.755
61136W        W32807  15.719  42.506  12.065
61137W        W32808  31.891  33.848   4.298
61138W        W32809  13.632  11.420  12.840
61139W        W32810  34.517  39.999   1.690
61140W        W32811  35.870  26.048   3.186
61141W        W32812   3.131  11.736  11.076
61142W        W32813   5.423   8.829   0.071
61143W        W32814  28.689  12.339   4.691
61144W        W32815  30.151  16.762   0.719
61145W        W32816   4.458  37.619   1.787
61146W        W32817   1.677  12.988   2.748
61147W        W32818  42.825  26.545  12.673
61148W        W32819  42.065  34.121  11.147
61149W        W32820   3.731  10.893  11.015
61150W        W32821  41.873  27.682  11.662
61151W        W32822  19.098   3.029   2.315
61152W        W32823  14.779   3.707  13.583
61153W        W32824   2.069  24.368  11.756
61154W        W32825  41.931  35.821  13.568
61155W        W32826  44.677  29.560  12.345
61156W        W32827   4.140  31.505   3.574
61157W        W32828  25.481   8.972   3.565
61158W        W32829   7.516  18.933  11.167
61159W        W32830  40.298  10.254  14.688
61160W        W32831  24.102  27.356   2.300
61161W        W32832  21.519  43.570  13.174
61162W        W32833  43.831  38.284   4.281
61163W        W32834  26.843   5.310  11.292
61164W        W32835  41.888  32.384   3.891
61165W        W32836  28.896  40.363   2.291
61166W        W32837   9.457  10.133   1.596
61167W        W32838  23.181  34.299   3.195
61168W        W32839  19.596  10.496   3.688
61169W        W32840  30.640  12.797   3.197
61170W        W32841  41.082   2.937   1.285
61171W        W32842   3.242  36.012   0.101
61172W        W32843  43.364  43.161   2.129
61173W        W32844   6.047  18.106   0.003
61174W        W32845   4.910   7.201  13.893
61175W        W32846   0.002  11.858   3.698
61176W        W32847  17.661  27.218  14.376
61177W        W32848  21.514   6.737   3.608
61178W        W32849  11.681  24.962  14.973
61179W        W32850   4.151  38.050   4.793
61180W        W32851   7.627  21.817   3.476
61181W        W32852  31.417  24.056   1.957
61182W        W32853   9.127  38.827  12.944
61183W        W32854  35.255   9.408  11.229
61184W        W32855  12.817  36.464  14.844
61185W        W32856  31.033  28.412  12.735
61186W        W32857  44.436  27.963   4.221
61187W        W32858   5.299  18.466  11.341
61188W        W32859   4.816  17.620   1.062
61189W        W32860  36.385  16.204   2.318
61190W        W32861   4.947  13.212  14.398
61191W        W32862  32.035  15.219   3.310
61192W        W32863  24.886   9.475   3.403
61193W        W32864  15.604  34.603   3.212
61194W        W32865  27.599  12.618   2.697
61195W        W32866  43.743  15.987   4.322
61196W        W32867  25.505  39.457   3.947
61197W        W32868   0.882  43.252   3.671
61198W        W32869  10.179  28.420   2.248
61199W        W32870   3.935   5.750  12.922
61200W        W32871  28.679  29.161  12.018
61201W        W32872   1.033  18.076   2.943
61202W        W32873  39.141  27.657  12.613
61203W        W32874  35.077  28.881  13.966
61204W        W32875  15.539  20.451   1.442
61205W        W32876  43.813  44.078  13.894
61206W        W32877   6.901  18.293  13.375
61207W        W32878  15.141   8.380  13.793
61208W        W32879   1.721  14.594   0.444
61209W        W32880  23.460  43.530  11.128
61210W        W32881  13.920  23.177   0.518
61211W        W32882  19.947   3.431  14.589
61212W        W32883  23.099   3.147  12.159
61213W        W32884  23.977  40.444  13.846
61214W        W32885  21.408   0.934   4.911
61215W        W32886  28.848  25.076   1.340
61216W        W32887  36.344  31.417   0.885
61217W        W32888   6.873  28.513  12.311
61218W        W32889  22.306  34.876  14.435
61219W        W32890  33.803  22.471   2.814
61220W        W32891  14.761  24.906  13.743
61221W        W32892   7.985  41.057  14.043
61222W        W32893  14.799   9.458   2.242
61223W        W32894  17.510  30.150  14.769
61224W        W32895  18.781  11.891  13.039
61225W        W32896  29.493  35.626   4.101
61226W        W32897  16.309  16.832   1.314
61227W        W32898  15.297   9.676   4.589
61228W        W32899  17.774   3.050  14.251
61229W        W32900  23.231   2.581  10.781
61230W        W32901  15.980  38.003   1.390
61231W        W32902  22.810   1.496   4.372
61232W        W32903  15.625  21.630   2.227
61233W        W32904  15.278  27.738  10.628
61234W        W32905  26.717  21.126   1.781
61235W        W32906  32.130  35.674   2.771
61236W        W32907  27.069  42.340  11.734
61237W        W32908  29.462  27.910   2.728
61238W        W32909  31.070  33.380  10.371
61239W        W32910   6.949   2.155   3.436
61240W        W32911  32.780  30.057  10.665
61241W        W32912  42.844  33.206   0.458
61242W        W32913  31.630   8.794  13.443
61243W        W32914  29.188  43.506  11.959
61244W        W32915  34.544  30.882  11.967
61245W        W32916  30.503  42.272  11.120
61246W        W32917  19.258   6.741   0.823
61247W        W32918  17.142   7.737   2.664
61248W        W32919  24.268  35.517  13.590
61249W        W32920  20.684  32.054  13.346
61250W        W32921   0.770  10.222  11.880
61251W        W32922  28.140  21.289   2.183
61252W        W32923  25.867  19.779  11.236
61253W        W32924   4.235  25.465  13.062
61254W        W32925  17.653   3.290   3.337
61255W        W32926  14.711   4.713  13.499
61256W        W32927  24.924   3.882  13.540
61257W        W32928   5.369  10.534  11.529
61258W        W32929  11.203   0.090  11.998
61259W        W32930  17.089  32.946   1.702
61260W        W32931  42.963   5.139  10.771
61261W        W32932   9.352  41.968  14.896
61262W        W32933  21.109  20.005   2.298
61263W        W32934  21.102   6.685   4.648
61264W        W32935  30.670   3.198  11.048
61265W        W32936  29.695   4.871   0.841
61266W        W32937  15.106  38.006   4.044
61267W        W32938  37.295   1.761  11.623
61268W        W32939  44.152   3.913   0.681
61269W        W32940  10.768   2.340  14.451
61270W        W32941  28.727  31.385  13.800
61271W        W32942  22.126  41.903   1.446
61272W        W32943  14.809  13.790   2.927
61273W        W32944  38.396  36.598  12.723
61274W        W32945   0.263  23.559   5.549
61275W        W32946  40.381  38.194   1.423
61276W        W32947   9.791  36.906  13.138
61277W        W32948   0.885  43.717   1.261
61278W        W32949  35.709   8.061  12.438
61279W        W32950  31.552  41.853  13.507
61280W        W32951  29.924  23.570  13.923
61281W        W32952  25.139  40.507  14.786
61282W        W32953   3.694  31.379   3.322
61283W        W32954  10.239  37.331  13.651
61284W        W32955   6.870   6.396  11.207
61285W        W32956  21.573  15.641   0.197
61286W        W32957  22.181  15.742   3.239
61287W        W32958  16.556   9.823   2.023
61288W        W32959  17.342   7.979  13.307
61289W        W32960  19.719  29.728   1.993
61290W        W32961  38.210  30.439   4.294
61291W        W32962  31.371  20.137  14.771
61292W        W32963  12.658  20.677  10.704
61293W        W32964  37.318  17.230  10.619
61294W        W32965  22.832  10.426   2.683
61295W        W32966   8.252  37.076   0.768
61296W        W32967  43.475  42.674   1.207
61297W        W32968   3.300  17.238  11.136
61298W        W32969  12.414  37.906   2.725
61299W        W32970  31.406  26.893  13.976
61300W        W32971  37.317   7.672   0.804
61301W        W32972   7.842  25.253  14.443
61302W        W32973  20.691  40.520   2.778
61303W        W32974  39.198  24.224   4.662
61304W        W32975   5.685   3.926  11.576
61305W        W32976  17.978  30.629   3.149
61306W        W32977  23.548   3.411  13.327
61307W        W32978  22.027  43.343   1.952
61308W        W32979  35.929  42.940   3.933
61309W        W32980  40.617  25.267   0.297
61310W        W32981  36.116  27.998  13.374
61311W        W32982  17.260  11.864   3.894
61312W        W32983  33.144  16.901   4.673
61313W        W32984  39.433  35.571  11.707
61314W        W32985  34.368  24.997   0.090
61315W        W32986  23.248  33.761  10.665
61316W        W32987  25.228  41.947  14.001
61317W        W32988  41.507  10.831  14.397
61318W        W32989   0.464  22.217  11.197
61319W        W32990  33.119  24.036   4.739
61320W        W32991  15.659   3.233  10.425
61321W        W32992  11.323  13.328  14.948
61322W        W32993  25.419  13.970   3.303
61323W        W32994  30.935  28.444   0.404
61324W        W32995  34.336  34.010   3.730
61325W        W32996  22.708   4.673  13.332
61326W        W32997  19.927  12.214   9.663
61327W        W32998  34.399  17.496  11.164
61328W        W32999  29.511  41.836   4.257
61329W        W33000  42.565  38.872  10.119
61330W        W33001  39.294  31.240  12.856
61331W        W33002  23.976  28.935  10.721
61332W        W33003   8.800   8.021   4.529
61333W        W33004   2.218  44.939   4.351
61334W        W33005  33.890   4.110  14.436
61335W        W33006  43.289   7.359   3.260
61336W        W33007  35.707   7.939  11.094
61337W        W33008  17.484  43.022   4.017
61338W        W33009  25.205  33.140   0.439
61339W        W33010  13.563   2.173   1.273
61340W        W33011  22.640  15.030  12.142
61341W        W33012  18.827  27.219  13.028
61342W        W33013  30.402  11.167  12.877
61343W        W33014   3.749  42.700  13.033
61344W        W33015   7.785  15.273   2.674
61345W        W33016   9.197  26.531   2.874
61346W        W33017  14.543  36.217  13.860
61347W        W33018  17.071  41.451   2.815
61348W        W33019  10.418   7.266  14.810
61349W        W33020  13.289   1.483  12.670
61350W        W33021  34.090  17.372  10.793
61351W        W33022  44.242  28.914   1.983
61352W        W33023  18.832  24.507   9.864
61353W        W33024  41.435   7.689  11.982
61354W        W33025  36.705  10.262  12.016
61355W        W33026  44.698  30.538   2.635
61356W        W33027  43.300  12.163   2.689
61357W        W33028  41.411  12.902   2.352
61358W        W33029   0.313  20.786   2.802
61359W        W33030  29.672  35.225   2.848
61360W        W33031  42.386  10.787  11.142
61361W        W33032   4.338   6.522  12.572
61362W        W33033  43.454  25.185  11.477
61363W        W33034   0.761   8.272  13.856
61364W        W33035   2.973  19.781   4.255
61365W        W33036  35.611  27.589  12.856
61366W        W33037  43.215  15.882  12.623
61367W        W33038  36.605  41.914  14.141
61368W        W33039  34.688  27.650   4.646
61369W        W33040   4.340  27.217  11.561
61370W        W33041  24.096   6.531   4.974
61371W        W33042  23.111   3.921   1.722
61372W        W33043  22.312  34.425  13.729
61373W        W33044  32.934  33.466  11.909
61374W        W33045  27.173  32.671   2.627
61375W        W33046  44.143   9.557   0.467
61376W        W33047  43.761  33.658  14.443
61377W        W33048  33.315  29.621   4.634
61378W        W33049  36.936  39.730   3.848
61379W        W33050  37.874  44.333  10.709
61380W        W33051  44.756  43.794  10.803
61381W        W33052   4.472  34.072   1.305
61382W        W33053   1.271   2.316  14.538
61383W        W33054   7.729  30.286   1.760
61384W        W33055   7.402  22.250   3.660
61385W        W33056  16.845   9.254  12.611
61386W        W33057  33.854  22.647  11.987
61387W        W33058  26.630  26.008   1.415
61388W        W33059  18.229  10.146  11.502
61389W        W33060  27.199  30.074  14.995
61390W        W33061   3.447  16.627   0.977
61391W        W33062  26.309  10.840   4.180
61392W        W33063  42.439  11.420   0.279
61393W        W33064  15.112  40.604  11.988
61394W        W33065  23.279  20.624  13.936
61395W        W33066  17.754   8.856  11.681
61396W        W33067  22.671  33.884  13.939
61397W        W33068  10.395  38.478   3.511
61398W        W33069  34.903   7.616  11.524
61399W        W33070  11.111  39.776   3.550
61400W        W33071  28.905  35.433  11.590
61401W        W33072   0.729  10.682   2.955
61402W        W33073   0.256  33.652  13.559
61403W        W33074  27.512  12.871   4.578
61404W        W33075   1.179  37.396  14.783
61405W        W33076  23.950  25.483  13.363
61406W        W33077  28.367   9.735   2.895
61407W        W33078  41.788  10.085   2.656
61408W        W33079  27.865  33.688  14.384
61409W        W33080   6.594  27.594   0.783
61410W        W33081  17.201  11.861  13.882
61411W        W33082  30.957  11.751  13.469
61412W        W33083  22.189   5.731  10.417
61413W        W33084  30.078  31.555  10.657
61414W        W33085  11.659  19.725   0.340
61415W        W33086  22.104  36.180  12.849
61416W        W33087  30.294  39.999  14.325
61417W        W33088  22.678  12.173   3.291
61418W        W33089   0.244  38.816   0.346
61419W        W33090   6.973  31.902  12.520
61420W        W33091  38.859  22.252  12.045
61421W        W33092  34.681  29.564   2.655
61422W        W33093  40.302  17.855   0.879
61423W        W33094   6.432  12.327  13.024
61424W        W33095  41.619  25.961  11.112
61425W        W33096   8.809  21.226  13.558
61426W        W33097  30.270  32.027  11.542
61427W        W33098   6.184  22.451   3.211
61428W        W33099  33.067   0.801   3.321
61429W        W33100  38.572  44.992  14.452
61430W        W33101  21.445   0.992   1.717
61431W        W33102  44.395  32.957  12.111
61432W        W33103  36.958  44.488   3.870
61433W        W33104   1.032  40.514   4.545
61434W        W33105  22.531   0.075   2.359
61435W        W33106   2.862  19.813  13.058
61436W        W33107  27.978  44.994  13.968
61437W        W33108  11.202  29.130  10.482
61438W        W33109   1.537   6.380  14.311
61439W        W33110  11.140  35.119   3.581
61440W        W33111   6.258  44.861   1.460
61441W        W33112  11.122   2.992  10.416
61442W        W33113   4.542  21.199   2.677
61443W        W33114  29.695  26.132   1.341
61444W        W33115   7.222   5.754   4.103
61445W        W33116  41.019  18.058  13.545
61446W        W33117   6.932  33.515   1.352
61447W        W33118   0.498  31.928  11.503
61448W        W33119  20.702   2.493   3.200
61449W        W33120  25.603   1.401   1.711
61450W        W33121  29.784  32.070   3.096
61451W        W33122  22.004  27.716   1.030
61452W        W33123  10.165  41.436  11.002
61453W        W33124  19.745  41.537  13.498
61454W        W33125   4.732   0.497   0.153
61455W        W33126   8.814  38.561  11.768
61456W        W33127  28.430  28.440  14.959
61457W        W33128   3.735  19.289  11.482
61458W        W33129   5.694   7.700  10.531
61459W        W33130  27.303  37.868   2.271
61460W        W33131  26.454  19.020  13.804
61461W        W33132  40.688  27.819  14.004
61462W        W33133  22.498  37.842   0.854
61463W        W33134  40.528   9.220  12.861
61464W        W33135   0.646  14.043  11.460
61465W        W33136  32.146  21.529   1.273
61466W        W33137  16.567   0.359  14.057
61467W        W33138  14.572   9.525  12.483
61468W        W33139  32.002  23.967   0.200
61469W        W33140  43.420  42.741   4.493
61470W        W33141  32.627  23.499   4.075
61471W        W33142   8.680  21.413  10.770
61472W        W33143  21.040  14.385   5.432
61473W        W33144  36.326   9.696  13.989
61474W        W33145  25.558  41.920   0.180
61475W        W33146   9.767  25.550   1.916
61476W        W33147  30.411  15.941   4.499
61477W        W33148  41.459  26.039  14.249
61478W        W33149   3.814   1.790  14.787
61479W        W33150  11.124  38.875   3.759
61480W        W33151  13.055  39.493  10.712
61481W        W33152  29.862  29.458   1.319
61482W        W33153  23.557  31.984  10.273
61483W        W33154  26.453  37.444  12.902
61484W        W33155  20.088  19.295   2.716
61485W        W33156  30.354   7.424   4.094
61486W        W33157   6.001  35.377  11.911
61487W        W33158  33.579  29.405   3.721
61488W        W33159  14.554  29.728  14.848
61489W        W33160  37.163  14.627  12.394
61490W        W33161  36.862  38.215  14.431
61491W        W33162  14.770  20.095  14.403
61492W        W33163   1.396  36.242   1.815
61493W        W33164  26.461  39.937  13.019
61494W        W33165  32.703  44.949   2.678
61495W        W33166  35.994  42.463   4.573
61496W        W33167  12.109  43.957  11.312
61497W        W33168  20.179  26.127  13.350
61498W        W33169  40.006  40.888  11.994
61499W        W33170  16.041   8.407  12.475
61500W        W33171  23.780  23.539  14.106
61501W        W33172  41.390  43.757  10.677
61502W        W33173  44.076   6.755  12.030
61503W        W33174  34.160  10.905   4.175
61504W        W33175  22.166   9.570   2.863
61505W        W33176  43.969  14.566  11.883
61506W        W33177  20.204   4.735   4.466
61507W        W33178  28.587  15.243   3.157
61508W        W33179  28.634  34.983  14.427
61509W        W33180  40.664  39.297  10.142
61510W        W33181  14.710  15.228  14.521
61511W        W33182  11.684   0.284  10.230
61512W        W33183   7.261  31.961   2.898
61513W        W33184  12.288  41.462   0.798
61514W        W33185  30.709  31.531   2.170
61515W        W33186  27.601  32.180  12.978
61516W        W33187   4.123  24.106  14.419
61517W        W33188  41.113  17.253   3.656
61518W        W33189   3.243   2.407   0.186
61519W        W33190  34.045   8.207  13.534
61520W        W33191   0.706  34.855   3.347
61521W        W33192  17.183  30.646   0.243
61522W        W33193   0.223  33.388   4.052
61523W        W33194  26.677  34.349   1.759
61524W        W33195   4.622   4.912   1.916
61525W        W33196  16.236  35.863   4.645
61526W        W33197   1.803  38.611   1.770
61527W        W33198  38.223   2.185   5.080
61528W        W33199  16.051  41.338   2.798
61529W        W33200  28.230  10.716   0.238
61530W        W33201  24.965  32.201  13.440
61531W        W33202  26.926  43.863  12.912
61532W        W33203  37.076  15.562  12.642
61533W        W33204  26.514  16.908   1.706
61534W        W33205  28.528  14.989  11.682
61535W        W33206   8.225  28.981   3.597
61536W        W33207  30.757   5.100   0.697
61537W        W33208  19.382   1.504   1.687
61538W        W33209  25.404  27.339  11.650
61539W        W33210  24.949  10.785   4.643
61540W        W33211  26.154  12.319  11.095
61541W        W33212  19.238   2.811   0.746
61542W        W33213  20.299   0.956  12.734
61543W        W33214   1.942  30.080  12.286
61544W        W33215  14.371   5.278   1.451
61545W        W33216  43.771   9.825   1.395
61546W        W33217  20.078  42.446   2.918
61547W        W33218   5.436  37.319   0.474
61548W        W33219  32.125   3.689  12.532
61549W        W33220  17.993   3.962  13.060
61550W        W33221  42.833   9.143   1.000
61551W        W33222  10.791   2.585  14.960
61552W        W33223  17.817  17.741   0.371
61553W        W33224  24.027  30.542   2.157
61554W        W33225  42.852  32.512  14.877
61555W        W33226  38.684  24.188   4.619
61556W        W33227   0.935  21.348  12.413
61557W        W33228  33.621  34.947   4.939
61558W        W33229  12.424  28.521   0.704
61559W        W33230   7.819  32.270  11.981
61560W        W33231  23.816  34.528   4.285
61561W        W33232  31.433   8.082  11.769
61562W        W33233  37.852  31.448   1.918
61563W        W33234   8.828  15.428  14.409
61564W        W33235  11.813  26.559  10.769
61565W        W33236   4.404   7.371   1.418
61566W        W33237   4.755  16.395  13.365
61567W        W33238  26.618  31.615   3.157
61568W        W33239  33.104  28.537   0.998
61569W        W33240   0.305  21.841  14.269
61570W        W33241  40.010  37.274  11.436
61571W        W33242   9.161   1.970   3.294
61572W        W33243   5.748  44.397  11.092
61573W        W33244  14.823  35.495   0.880
61574W        W33245  41.023  14.115  13.315
61575W        W33246  29.252   6.735   4.998
61576W        W33247  22.599   9.884   2.655
61577W        W33248  10.816  15.697  11.177
61578W        W33249   7.330  22.233  14.960
61579W        W33250   5.642   7.610   4.288
61580W        W33251   3.436  38.748   5.023
61581W        W33252  41.355  25.604   2.319
61582W        W33253  12.107  44.345   3.440
61583W        W33254   6.217  18.712  14.557
61584W        W33255  11.504  34.926  10.803
61585W        W33256  13.228  29.686  14.012
61586W        W33257  19.603  27.756   3.298
61587W        W33258  13.780  17.147  11.655
61588W        W33259   9.610  19.291  11.687
61589W        W33260  27.452  36.509  12.003
61590W        W33261  30.201  18.661   3.205
61591W        W33262  13.548  10.114   4.124
61592W        W33263  16.831  11.047   2.417
61593W        W33264  33.647  31.368  10.391
61594W        W33265  39.616  23.036  10.649
61595W        W33266  15.520   0.954   4.604
61596W        W33267  14.574  39.297  14.916
61597W        W33268  33.569  10.848   0.151
61598W        W33269  29.602  36.426  11.584
61599W        W33270  15.108  30.971   1.708
61600W        W33271  13.769  43.426   4.006
61601W        W33272  34.068   8.663   4.416
61602W        W33273  10.632   7.937   4.439
61603W        W33274  24.360  37.233   3.887
61604W        W33275   9.091  36.583  11.039
61605W        W33276  38.550  14.841  11.541
61606W        W33277  20.461  14.694  13.668
61607W        W33278  25.181  36.339   0.264
61608W        W33279  35.005  23.718   3.843
61609W        W33280  15.061  32.863  10.632
61610W        W33281  27.876  15.652   1.837
61611W        W33282  36.255   9.321  14.969
61612W        W33283   3.751  10.173   2.189
61613W        W33284  35.467  13.239   4.406
61614W        W33285   9.424   7.382  10.766
61615W        W33286   8.307  41.336   2.235
61616W        W33287   8.098  17.677  13.867
61617W        W33288   3.246  36.014  14.582
61618W        W33289  14.100  31.165   4.563
61619W        W33290  15.697  11.818  12.794
61620W        W33291  39.434  12.860   2.122
61621W        W33292  11.561  26.208  11.496
61622W        W33293  33.487  36.295  14.758
61623W        W33294   2.479  35.467   0.471
61624W        W33295  21.770  14.103   3.178
61625W        W33296   0.779  44.369   0.697
61626W        W33297  14.133   7.909   0.299
61627W        W33298  12.876  12.227   2.035
61628W        W33299  38.936  38.380   0.530
61629W        W33300  32.613  11.783   1.286
61630W        W33301  15.070  29.964   2.921
61631W        W33302  25.665  23.228   4.616
61632W        W33303  21.818   1.726   3.869
61633W        W33304  41.305   2.502  12.503
61634W        W33305  36.694  21.469  11.561
61635W        W33306  11.193  33.892  13.440
61636W        W33307  33.086   6.504  12.633
61637W        W33308  33.916   9.366  11.683
61638W        W33309  44.388  32.446  13.031
61639W        W33310  37.173  43.856  14.725
61640W        W33311  26.488  40.362  13.315
61641W        W33312  43.220  33.707   2.150
61642W        W33313  14.322   6.030  10.608
61643W        W33314  35.038  10.730  11.112
61644W        W33315   3.450  18.881  12.652
61645W        W33316  36.908  34.510   0.487
61646W        W33317  27.726  23.502   0.320
61647W        W33318   5.257   5.810  12.171
61648W        W33319  27.559  18.311   4.176
61649W        W33320  41.563  25.170   0.998
61650W        W33321   2.509  19.613   4.217
61651W        W33322  44.438  24.414   0.845
61652W        W33323   9.947   5.382   1.282
61653W        W33324  20.028  43.511  11.456
61654W        W33325  34.757  12.855   1.911
61655W        W33326  22.825  17.749   3.163
61656W        W33327  30.637   3.195  12.139
61657W        W33328  40.097  13.620  12.652
61658W        W33329  17.796  29.135   1.432
61659W        W33330  37.241   5.722  14.901
61660W        W33331  28.462  37.887  10.906
61661W        W33332   9.852  41.111  11.420
61662W        W33333  39.440   5.732   4.365
61663W        W33334  25.352  35.994  12.314
61664W        W33335   7.916   4.839   3.785
61665W        W33336  26.087  36.504   0.801
61666W        W33337  40.513  16.500   0.314
61667W        W33338   9.423  35.654  12.330
61668W        W33339  43.855   6.431  10.629
61669W        W33340   1.790  10.273   0.493
61670W        W33341  27.001  41.448   3.084
61671W        W33342  43.480  11.360  11.887
61672W        W33343  33.765   9.945  10.557
61673W        W33344   7.921   0.499  14.246
61674W        W33345  23.767  44.289  13.422
61675W        W33346  22.827  35.855  12.448
61676W        W33347   8.870  20.303  11.010
61677W        W33348  35.816  36.564  13.898
61678W        W33349  29.216  22.479  14.803
61679W        W33350  25.361  13.241   1.695
61680W        W33351  34.081  25.802  12.019
61681W        W33352   2.828   0.775  14.726
61682W        W33353  21.205  41.055   4.654
61683W        W33354  20.060  23.762  11.576
61684W        W33355   9.845  42.606  14.580
61685W        W33356  44.576  38.059   0.631
61686W        W33357  25.536  28.496  14.510
61687W        W33358  35.296  26.487  12.455
61688W        W33359   3.705  34.824   4.401
61689W        W33360   8.293  34.946  10.980
61690W        W33361  27.234  23.158  12.874
61691W        W33362  41.337   7.680  13.887
61692W        W33363  38.903   0.372  14.281
61693W        W33364  41.885   8.396  10.812
61694W        W33365  23.661  16.314  10.686
61695W        W33366  25.476  14.569  10.829
61696W        W33367  26.773   5.490   1.214
61697W        W33368   6.658  34.352  10.841
61698W        W33369  10.315  14.691  11.914
61699W        W33370  32.673   2.913  10.712
61700W        W33371  30.007  40.997  14.230
61701W        W33372  14.421  11.187  13.797
61702W        W33373  42.485  39.642  11.561
61703W        W33374  42.339  12.259  11.589
61704W        W33375   5.282  40.015   0.027
61705W        W33376  36.086  13.640   4.896
61706W        W33377   8.904  26.097   1.792
61707W        W33378  39.020  42.352  13.000
61708W        W33379  14.339  36.700   2.849
61709W        W33380  43.376  35.467  11.171
61710W        W33381   5.772  32.905  11.541
61711W        W33382  13.789   0.849   1.552
61712W        W33383  18.993  26.664  13.926
61713W        W33384  11.603  10.558  10.709
61714W        W33385  34.395  33.008   2.666
61715W        W33386   8.767  41.900   4.130
61716W        W33387  34.848   3.096   1.281
61717W        W33388   1.146  24.638   2.176
61718W        W33389  24.702  36.842  12.981
61719W        W33390   7.363  40.037  14.658
61720W        W33391  32.364  41.252  11.165
61721W        W33392  26.959  38.735  10.745
61722W        W33393  26.119  13.127  12.114
61723W        W33394   9.640  40.478   4.153
61724W        W33395  26.219  11.952   3.841
61725W        W33396  30.640   5.066   5.188
61726W        W33397  32.324  19.136  11.986
61727W        W33398   9.594  16.583  11.715
61728W        W33399  27.608  10.736  14.121
61729W        W33400  22.436  16.799  14.920
61730W        W33401  23.152  39.905   1.363
61731W        W33402  31.599  38.772  11.123
61732W        W33403  11.673  24.131   4.608
61733W        W33404  33.627  33.631  11.096
61734W        W33405  39.388   2.474  13.880
61735W        W33406  40.520  13.874   4.257
61736W        W33407  31.627  19.285  12.498
61737W        W33408  39.142  38.114  11.239
61738W        W33409  27.739   1.940   4.072
61739W        W33410  18.553  15.140  12.058
61740W        W33411  36.776  11.449  11.845
61741W        W33412  25.112  40.313  13.818
61742W        W33413  12.908  11.722   2.229
61743W        W33414  22.307   1.422  13.774
61744W        W33415  34.408   8.654  13.944
61745W        W33416  17.081   5.697  11.190
61746W        W33417  36.856  41.532   0.852
61747W        W33418   5.035  36.388   2.902
61748W        W33419  13.553   5.813   4.023
61749W        W33420   2.314  39.501  13.434
61750W        W33421  33.499  39.040   1.897
61751W        W33422  43.536  43.785  11.646
61752W        W33423   7.651  34.505   0.748
61753W        W33424  14.711  29.638   3.734
61754W        W33425   0.703   8.809   2.793
61755W        W33426  26.061  10.151  13.332
61756W        W33427  30.965  36.260   2.326
61757W        W33428  20.974  21.440  12.525
61758W        W33429  20.952  38.893   3.694
61759W        W33430  19.156  20.981  11.023
61760W        W33431   1.059   2.486   5.009
61761W        W33432  18.326  27.498  10.733
61762W        W33433  30.870  16.312   0.948
61763W        W33434  43.831   1.900  13.018
61764W        W33435   7.716  23.067   1.917
61765W        W33436   7.283   0.701  10.714
61766W        W33437  29.029  16.283  12.997
61767W        W33438  27.624  24.808  10.757
61768W        W33439  37.647  30.905   3.617
61769W        W33440  28.241   1.984  10.719
61770W        W33441  35.652   6.631  10.755
61771W        W33442  39.231  36.634  14.121
61772W        W33443  37.914  40.542   4.744
61773W        W33444  15.146  18.053  14.048
61774W        W33445  38.816  14.191   4.447
61775W        W33446  38.613  32.492  13.020
61776W        W33447   5.624  39.968  14.063
61777W        W33448  21.553  43.840  10.330
61778W        W33449  30.132  37.021   0.256
61779W        W33450  29.021   1.012  13.451
61780W        W33451  24.476  19.543   2.264
61781W        W33452  38.421  35.915   1.714
61782W        W33453  27.640  21.945  10.810
61783W        W33454  14.748  12.858   2.962
61784W        W33455  43.888  25.758  12.601
61785W        W33456  16.247  44.738   0.824
61786W        W33457   5.786  27.199  12.334
61787W        W33458  44.980   7.074  13.837
61788W        W33459  20.135  13.245  12.975
61789W        W33460   9.268  42.578  13.184
61790W        W33461  31.554   7.321  12.944
61791W        W33462  38.252   0.197   3.303
61792W        W33463   2.705   8.875   0.874
61793W        W33464  33.542  35.542   4.830
61794W        W33465  30.707  10.097   4.086
61795W        W33466  31.028  21.934  13.933
61796W        W33467   4.154  13.152  12.684
61797W        W33468  32.285  34.574   3.238
61798W        W33469   0.747  44.344  14.700
61799W        W33470  29.011  33.704  11.001
61800W        W33471   5.767  18.458   1.889
61801W        W33472  23.143  10.944   1.424
61802W        W33473  38.091  10.031  13.091
61803W        W33474   8.691   4.770  13.404
61804W        W33475  24.706  27.649  14.193
61805W        W33476   9.137   3.447  10.833
61806W        W33477  44.375  32.939   3.845
61807W        W33478   6.663  34.410  14.738
61808W        W33479  43.978   5.971  11.339
61809W        W33480  25.663   3.224   2.890
61810W        W33481   6.901  34.292  14.303
61811W        W33482   4.004  29.203  10.272
61812W        W33483  40.267  28.286   4.025
61813W        W33484   4.686  38.532   2.763
61814W        W33485   7.759   7.352   3.651
61815W        W33486   6.324  44.937   0.411
61816W        W33487  19.712   5.886  12.852
61817W        W33488  36.015  13.906  11.136
61818W        W33489  15.119   6.907   1.466
61819W        W33490  41.346  24.507   1.340
61820W        W33491   6.310   0.254   1.776
61821W        W33492  22.633  15.712   4.550
61822W        W33493  37.683   5.437   3.413
61823W        W33494  35.825   2.459  11.137
61824W        W33495   7.491  33.705  11.804
61825W        W33496  25.793  11.340   4.946
61826W        W33497  22.266  17.640   4.639
61827W        W33498  32.421  31.793   4.939
61828W        W33499  22.169  36.641  12.617
61829W        W33500  31.603  32.678  14.003
61830W        W33501  39.326  40.765  14.381
61831W        W33502  21.030  15.635   3.663
61832W        W33503  21.117   4.475   3.233
61833W        W33504   2.191   1.304   1.720
61834W        W33505  44.907  42.859   0.495
61835W        W33506  33.479  20.178  12.001
61836W        W33507  21.650  33.608   3.681
61837W        W33508   3.423   8.130   2.766
61838W        W33509  11.734  36.616   1.298
61839W        W33510   5.199  30.338  11.014
61840W        W33511  43.805  29.468  11.919
61841W        W33512  42.034   7.484   1.948
61842W        W33513   6.556  34.875  12.918
61843W        W33514  23.704  23.642  10.532
61844W        W33515  27.845  24.193   1.314
61845W        W33516  21.167  27.855   2.666
61846W        W33517  39.430   4.252   1.664
61847W        W33518   4.252  19.717  12.160
61848W        W33519  19.029  27.052   1.161
61849W        W33520  42.237  19.267  14.542
61850W        W33521  11.489  35.092   4.534
61851W        W33522  27.624  44.054   4.473
61852W        W33523  42.616  43.318  14.055
61853W        W33524  10.793   4.199   1.929
61854W        W33525  35.203  16.164  12.608
61855W        W33526  36.059  37.335  13.384
61856W        W33527  11.197  17.266   0.052
61857W        W33528  21.877  17.332  14.442
61858W        W33529  40.720   4.704   0.933
61859W        W33530  20.122  14.765  14.065
61860W        W33531  26.449  33.891   5.015
61861W        W33532  23.986   9.869   3.308
61862W        W33533  19.729  22.175  10.822
61863W        W33534  35.819  29.917  11.519
61864W        W33535  42.179  25.177  14.469
61865W        W33536  34.433  23.934   3.227
61866W        W33537   5.203   8.232  13.525
61867W        W33538   8.787  24.012   3.414
61868W        W33539  35.296  11.437   4.789
61869W        W33540   5.812  42.967   1.970
61870W        W33541  17.537  29.464   2.687
61871W        W33542  44.070   3.392   0.034
61872W        W33543  21.003  16.089  12.469
61873W        W33544  34.212  16.442   1.239
61874W        W33545  16.231  25.045   3.763
61875W        W33546  19.573   8.595  12.830
61876W        W33547  33.088  41.897   0.063
61877W        W33548  38.355  19.176  14.439
61878W        W33549  21.193  33.618   0.962
61879W        W33550  15.017  32.465  12.027
61880W        W33551  18.754   4.697  14.052
61881W        W33552  14.836  25.978   1.310
61882W        W33553  18.657  21.075   3.851
61883W        W33554  12.171  10.147   3.260
61884W        W33555   9.709  34.870   1.923
61885W        W33556  33.892  43.442   3.007
61886W        W33557  29.232  39.950  13.291
61887W        W33558  42.714  16.493  13.367
61888W        W33559  28.077  16.667  11.765
61889W        W33560  28.966  38.342  12.121
61890W        W33561  42.959  37.963  12.449
61891W        W33562  11.797  44.194   1.930
61892W        W33563  39.819  31.575   0.813
61893W        W33564  21.320  37.831  13.360
61894W        W33565  16.732   1.005   4.212
61895W        W33566   3.203   7.324  13.478
61896W        W33567  25.419  39.013  13.050
61897W        W33568  44.904  31.591   3.790
61898W        W33569  31.541   1.227   2.298
61899W        W33570  37.819   4.356   4.631
61900W        W33571  43.987  17.670  14.725
61901W        W33572  28.621   5.347  11.405
61902W        W33573  15.698  13.606  14.379
61903W        W33574  24.735  20.613  13.335
61904W        W33575   4.831   0.125   4.120
61905W        W33576   3.398   4.292   4.660
61906W        W33577  43.587  20.770   9.596
61907W        W33578   9.791  21.308   2.312
61908W        W33579  39.464  22.256   4.818
61909W        W33580  28.160  30.899   4.548
61910W        W33581  31.901   6.915  11.064
61911W        W33582  24.986  30.403   0.467
61912W        W33583  37.509  20.108  14.236
61913W        W33584  21.581  27.547   1.952
61914W        W33585  10.752  44.038   0.782
61915W        W33586  11.481  43.355   3.647
61916W        W33587  18.775  31.388  14.026
61917W        W33588  10.244  35.470  11.728
61918W        W33589  24.626  21.297  10.145
61919W        W33590  11.036  35.331   1.220
61920W        W33591  44.869  27.377   3.420
61921W        W33592   6.327  31.790   1.464
61922W        W33593  24.092  36.090  13.045
61923W        W33594  43.351  11.293   0.280
61924W        W33595  35.099   9.836  10.822
61925W        W33596  26.394  20.157   3.663
61926W        W33597  17.699  13.866  11.170
61927W        W33598  26.184  41.796  11.626
61928W        W33599   2.306   1.456   2.214
61929W        W33600  42.817  26.031   0.287
61930W        W33601  35.579  11.099  13.118
61931W        W33602  10.175   8.124  10.697
61932W        W33603  10.745  13.199  14.417
61933W        W33604  29.182  23.662   0.411
61934W        W33605  25.270  26.430   1.962
61935W        W33606  28.422  41.864   3.663
61936W        W33607   1.440  18.125  14.300
61937W        W33608   4.643  43.795   0.715
61938W        W33609  35.561  42.286   2.909
61939W        W33610  27.305  21.171   0.059
61940W        W33611   3.265  23.941   2.746
61941W        W33612  25.610   1.033   2.329
61942W        W33613  25.470  26.847  11.801
61943W        W33614  14.518  28.647   3.813
61944W        W33615  18.298  15.191  11.599
61945W        W33616  41.899   3.650  13.210
61946W        W33617   3.452  11.085  11.616
61947W        W33618  24.411  21.501   4.564
61948W        W33619  39.861  23.722  11.185
61949W        W33620  20.717  18.802   0.194
61950W        W33621  24.145  38.003   3.427
61951W        W33622  30.917  11.675   1.639
61952W        W33623  29.041  39.073  13.142
61953W        W33624  15.270  25.856  12.160
61954W        W33625  22.677  42.752   1.441
61955W        W33626  21.518  36.576   1.823
61956W        W33627   2.533  42.895  13.180
61957W        W33628   8.290   8.452  13.108
61958W        W33629  10.437   3.126  11.140
61959W        W33630   0.464  29.196   1.403
61960W        W33631  23.869   2.775  11.567
61961W        W33632   0.839  29.022   0.034
61962W        W33633  28.901   6.338   2.773
61963W        W33634  39.805   4.184   2.874
61964W        W33635  42.872  16.235  11.734
61965W        W33636  38.603  18.885   2.854
61966W        W33637   8.979  34.946  13.476
61967W        W33638   3.843  25.315  12.107
61968W        W33639  27.114  40.233  10.634
61969W        W33640  19.006  20.437   1.714
61970W        W33641  35.886  26.732   1.879
61971W        W33642  10.817   7.138  11.591
61972W        W33643  13.514  34.622  13.135
61973W        W33644  29.602  31.042  12.053
61974W        W33645  18.168  36.044  13.769
61975W        W33646  43.873   7.355   2.718
61976W        W33647   3.894   4.118   4.432
61977W        W33648  16.060   2.590   2.618
61978W        W33649  38.085  26.183  12.421
61979W        W33650  33.999  15.027   0.370
61980W        W33651  17.521  33.044   1.981
61981W        W33652  25.688  13.583  13.274
61982W        W33653  30.523  14.910   0.879
61983W        W33654  22.402  31.433  10.265
61984W        W33655  43.466  44.093   4.650
61985W        W33656   3.663  25.014   1.416
61986W        W33657  36.634  33.586  10.579
61987W        W33658   6.221   7.192   0.481
61988W        W33659   7.701  19.543  12.432
61989W        W33660  31.373   8.333   0.820
61990W        W33661  44.511  35.390   2.246
61991W        W33662  19.067  13.118   4.092
61992W        W33663   4.996   0.291  12.584
61993W        W33664  13.070  16.034   1.904
61994W        W33665  12.578  43.551   4.387
61995W        W33666  43.314   5.208   3.248
61996W        W33667   2.453  37.566   1.403
61997W        W33668  44.032  14.559  10.523
61998W        W33669  35.364   7.118  13.866
61999W        W33670  34.525  18.731   0.107
62000W        W33671  16.416  29.690   0.335
62001W        W33672  11.065  28.047   2.995
62002W        W33673   3.841  39.042   4.880
62003W        W33674  27.485  12.143   1.298
62004W        W33675   5.906  14.592   3.712
62005W        W33676   0.923  23.151   4.941
62006W        W33677  34.311   2.418  14.747
62007W        W33678  37.479  27.911  13.442
62008W        W33679   5.465   7.734  14.436
62009W        W33680  16.403  26.628   0.785
62010W        W33681   6.384  17.242   0.001
62011W        W33682  37.906  37.992  13.788
62012W        W33683   3.478   6.755  14.189
62013W        W33684  37.472  44.326  13.276
62014W        W33685  26.468  36.635  11.522
62015W        W33686  37.174   8.674   0.793
62016W        W33687  32.116   8.733  12.690
62017W        W33688  12.673  23.242  10.684
62018W        W33689  30.735   0.193   1.890
62019W        W33690   3.435  11.948   3.628
62020W        W33691  25.734   1.074  10.646
62021W        W33692  33.621  25.097  13.708
62022W        W33693   4.055  11.261  13.362
62023W        W33694   1.382  44.504  12.311
62024W        W33695  35.462  12.295   0.222
62025W        W33696  36.799  15.345   0.911
62026W        W33697  28.085  42.691   4.418
62027W        W33698  16.248  34.687  11.941
62028W        W33699  35.031  38.116  14.046
62029W        W33700   2.311  10.605  13.407
62030W        W33701  33.608  42.520   1.473
62031W        W33702  12.188  42.615  12.343
62032W        W33703  40.078  32.881  13.037
62033W        W33704   5.840  44.503   2.826
62034W        W33705  42.827  25.508   1.953
62035W        W33706   4.298  37.917   0.871
62036W        W33707   6.295  35.297   0.402
62037W        W33708   0.474  41.044   1.498
62038W        W33709  24.812   2.852   2.748
62039W        W33710  23.087   3.868  14.841
62040W        W33711  42.813  43.060  12.789
62041W        W33712  40.712  25.022   3.682
62042W        W33713  44.440  36.343   0.972
62043W        W33714  28.989   9.434  10.106
62044W        W33715  13.372  36.995   3.174
62045W        W33716  32.104  17.612  10.816
62046W        W33717   8.946  43.821  11.578
62047W        W33718  11.895   9.387   3.666
62048W        W33719  25.209   6.683  14.755
62049W        W33720  13.789   7.648  13.967
62050W        W33721  32.860  21.736  11.908
62051W        W33722  24.232   3.240   1.691
62052W        W33723   8.153  11.727   4.893
62053W        W33724  24.751  43.922  14.460
62054W        W33725  35.331  24.222  13.831
62055W        W33726  10.801  26.944   1.111
62056W        W33727   7.091  16.825   4.272
62057W        W33728   8.295  27.990   2.123
62058W        W33729  18.110   3.694  10.767
62059W        W33730  40.880  28.010   0.486
62060W        W33731   1.411  22.048   1.347
62061W        W33732  32.381  29.742  12.271
62062W        W33733   0.068  15.104  11.495
62063W        W33734  21.887   9.818   0.728
62064W        W33735   3.980   1.426  13.042
62065W        W33736   3.443  38.985  11.172
62066W        W33737  14.687   7.282   0.012
62067W        W33738  43.964  33.449   4.887
62068W        W33739  16.500   8.345  11.541
62069W        W33740  43.801  35.925   1.219
62070W        W33741  38.346  31.173  12.450
62071W        W33742  34.300  35.452  13.119
62072W        W33743  41.803  32.089  10.665
62073W        W33744   7.410  18.519   0.867
62074W        W33745  40.887  42.454  10.759
62075W        W33746  16.820   2.300  14.990
62076W        W33747   6.381  16.025   3.107
62077W        W33748  36.388  20.080   0.767
62078W        W33749   2.007  34.071   3.721
62079W        W33750  22.629   8.064  11.647
62080W        W33751  36.462  22.650   3.608
62081W        W33752  35.438  15.044   2.417
62082W        W33753  19.269  26.649   0.907
62083W        W33754  39.038  27.679   0.855
62084W        W33755  20.056  23.067  12.803
62085W        W33756   4.292  19.829   2.616
62086W        W33757  26.092  11.846  11.263
62087W        W33758   6.788  42.812  11.538
62088W        W33759  10.011  40.237   4.923
62089W        W33760  42.074  12.248  14.514
62090W        W33761  44.742  30.153  13.460
62091W        W33762  30.617  18.272  11.955
62092W        W33763  19.753  34.037  11.757
62093W        W33764   8.498  19.426   2.732
62094W        W33765  14.745  25.193   2.808
62095W        W33766   4.050   6.566  11.035
62096W        W33767  36.816  29.623  11.119
62097W        W33768  33.961  15.862  11.507
62098W        W33769   6.221  14.216  11.488
62099W        W33770  34.536  28.641  12.508
62100W        W33771  26.017  30.162  10.693
62101W        W33772  36.584  35.809   3.301
62102W        W33773   7.916  25.177   2.860
62103W        W33774  42.338  20.062   2.594
62104W        W33775  10.541  12.333   3.355
62105W        W33776  15.772  20.018  12.100
62106W        W33777  20.506  23.575   5.146
62107W        W33778  40.050  31.573   1.662
62108W        W33779  44.728  40.850  14.204
62109W        W33780   0.697  39.500   3.659
62110W        W33781  18.989  42.722  10.958
62111W        W33782   8.245  37.509  12.331
62112W        W33783  21.546  37.717   2.752
62113W        W33784  37.623  35.871  14.528
62114W        W33785  44.319  13.861  13.867
62115W        W33786  21.361   5.722   0.403
62116W        W33787  13.115  35.612   3.251
62117W        W33788  19.736  17.018   1.189
62118W        W33789  21.956  19.636  11.658
62119W        W33790  31.866  12.609  13.019
62120W        W33791   3.236  16.361   1.382
62121W        W33792  44.510   9.405  11.410
62122W        W33793  41.519  41.957  11.618
62123W        W33794   6.434   9.687   0.163
62124W        W33795   3.289  42.902   1.778
62125W        W33796  12.144  41.431   2.922
62126W        W33797  17.912   2.867   4.577
62127W        W33798  42.373  31.181   4.560
62128W        W33799  33.475   3.100   1.194
62129W        W33800  14.564  34.060   0.341
62130W        W33801  37.629  15.740   0.744
62131W        W33802  14.696  24.673   2.641
62132W        W33803  31.879   3.676  12.971
62133W        W33804  38.442   5.307   1.701
62134W        W33805  40.326   9.880   2.769
62135W        W33806   5.361  24.504  14.514
62136W        W33807  25.194  18.715   1.088
62137W        W33808  41.032  26.194  14.539
62138W        W33809   6.665  38.047  12.053
62139W        W33810  38.575   8.748  11.920
62140W        W33811  30.078   1.551  13.966
62141W        W33812  33.105  21.284  12.125
62142W        W33813  22.688   8.005   0.075
62143W        W33814  27.831  43.077   0.345
62144W        W33815   0.947  28.477   1.748
62145W        W33816  38.460  44.415   4.632
62146W        W33817  27.607   2.308  13.428
62147W        W33818   4.494  17.611  12.477
62148W        W33819  31.087  22.220  10.729
62149W        W33820   1.846  26.498  10.225
62150W        W33821   4.736  10.651   4.489
62151W        W33822   3.895  11.685  14.798
62152W        W33823  38.444  21.300  11.946
62153W        W33824  40.051  42.544  11.435
62154W        W33825  33.197  10.214  14.703
62155W        W33826  39.764  25.519  12.465
62156W        W33827   5.316   0.216   4.791
62157W        W33828  14.975  40.957   2.172
62158W        W33829   6.258  16.330  12.097
62159W        W33830  38.571  12.788  13.083
62160W        W33831  37.240   2.231   2.284
62161W        W33832  17.570   4.755  11.508
62162W        W33833   7.429  36.835   1.340
62163W        W33834   0.229  18.758  11.626
62164W        W33835  27.866  23.677   1.361
62165W        W33836  21.661  34.545   2.888
62166W        W33837  15.043   6.742   4.286
62167W        W33838  35.741  30.933  13.389
62168W        W33839   7.023   9.837  13.606
62169W        W33840   6.293  26.443   4.509
62170W        W33841  18.675  32.504   3.872
62171W        W33842  31.417  19.678  12.794
62172W        W33843  44.252   2.270  13.369
62173W        W33844  11.952  34.819   1.782
62174W        W33845  28.654  14.962   2.679
62175W        W33846   8.665  19.708  11.954
62176W        W33847  38.075  28.702  11.196
62177W        W33848  42.825  28.514   2.314
62178W        W33849  16.567  36.643   4.656
62179W        W33850  25.183  19.998  12.162
62180W        W33851  27.478  39.260   4.288
62181W        W33852  39.871   2.788  13.967
62182W        W33853   1.245  36.200  14.467
62183W        W33854  19.725  43.461   4.542
62184W        W33855   7.152  28.797  11.189
62185W        W33856  12.368   7.428   1.737
62186W        W33857  16.309  37.408  11.598
62187W        W33858   5.891  35.399  12.842
62188W        W33859  13.145  29.919   0.780
62189W        W33860  43.954   4.596  13.274
62190W        W33861  32.500  10.336  14.312
62191W        W33862  16.310  44.426   1.435
62192W        W33863   1.172  42.043  14.915
62193W        W33864  26.746  36.541  14.429
62194W        W33865  37.424  42.815   1.423
62195W        W33866  41.247  10.078   2.730
62196W        W33867   7.741  42.624  10.319
62197W        W33868  36.027  10.904   2.394
62198W        W33869  32.123  21.005   1.264
62199W        W33870  40.128   4.795   1.281
62200W        W33871  19.042  12.869   0.788
62201W        W33872   8.217  31.498   0.839
62202W        W33873  13.014  39.858  12.993
62203W        W33874  21.434  15.606  14.676
62204W        W33875  11.945  25.724   3.251
62205W        W33876  18.421  13.050  13.528
62206W        W33877   4.896  16.901   4.989
62207W        W33878  30.124  16.992  14.344
62208W        W33879  15.724  36.077  12.000
62209W        W33880  40.538  39.801  14.790
62210W        W33881  43.740  25.177   0.365
62211W        W33882  25.910  28.014  11.963
62212W        W33883  12.355  44.842  11.327
62213W        W33884   6.609  13.615  12.083
62214W        W33885  21.926  13.943   3.659
62215W        W33886  27.545  22.311   4.514
62216W        W33887  22.665  42.832  13.057
62217W        W33888  30.002   4.686   4.269
62218W        W33889  20.617  38.877  10.236
62219W        W33890   3.010  20.789  10.253
62220W        W33891  15.283  13.336   0.739
62221W        W33892  22.245  39.069   5.259
62222W        W33893  27.996  12.617   3.698
62223W        W33894   2.079  22.031   5.500
62224W        W33895   8.179   5.737   1.467
62225W        W33896   8.196  22.106  10.548
62226W        W33897  42.018   6.600   3.233
62227W        W33898  23.594  31.173  13.692
62228W        W33899  29.085  16.536   0.696
62229W        W33900  27.254  36.711  12.431
62230W        W33901   6.206  43.538  10.697
62231W        W33902  17.744  22.031   3.040
62232W        W33903  39.467  35.151  12.955
62233W        W33904  27.120  34.694  14.536
62234W        W33905  25.228  15.034  10.819
62235W        W33906  23.015  10.598  11.124
62236W        W33907  19.332  16.374  14.751
62237W        W33908  18.157  22.920   3.277
62238W        W33909  20.548  16.285  12.417
62239W        W33910  25.321  19.728  14.804
62240W        W33911  44.254  23.257  12.002
62241W        W33912  14.657  14.364  13.990
62242W        W33913  39.879   4.329   2.263
62243W        W33914  28.068  16.039   3.653
62244W        W33915  35.500  16.011   4.106
62245W        W33916  37.322  39.108  12.099
62246W        W33917   7.809   5.305   4.850
62247W        W33918  29.538  11.144   1.276
62248W        W33919  12.840  39.369  13.444
62249W        W33920   6.874  38.876   2.710
62250W        W33921   4.808   8.156  12.046
62251W        W33922  39.341  34.344   4.115
62252W        W33923  41.488  40.325  11.084
62253W        W33924  18.182  22.161  13.451
62254W        W33925  12.344  30.973  13.077
62255W        W33926  40.604  41.316  10.344
62256W        W33927  44.539  30.061   0.746
62257W        W33928  35.582   1.679   0.747
62258W        W33929  24.130   9.868   1.042
62259W        W33930  31.787   6.484   2.223
62260W        W33931  37.435   3.172   1.858
62261W        W33932  16.635  44.287   2.385
62262W        W33933  20.029   5.028  11.858
62263W        W33934  24.931   9.397   0.031
62264W        W33935  16.491   9.883  10.314
62265W        W33936   5.357  21.463   0.406
62266W        W33937   0.320  22.963   1.356
62267W        W33938  22.479   5.296   3.257
62268W        W33939  36.503  37.826  14.045
62269W        W33940  18.633  42.184   5.059
62270W        W33941  24.186  20.043  14.475
62271W        W33942   8.768   8.565   1.471
62272W        W33943  32.788  28.479  11.709
62273W        W33944  36.939  44.122  11.149
62274W        W33945  42.266   3.179   3.672
62275W        W33946  36.400  31.174   1.436
62276W        W33947  29.519  29.739  10.498
62277W        W33948  12.115  36.853  14.942
62278W        W33949  13.232   6.362  11.259
62279W        W33950   4.483  41.612   4.124
62280W        W33951  42.593  32.521  12.543
62281W        W33952  23.531  37.518  14.871
62282W        W33953  29.355   6.929  13.598
62283W        W33954  32.477   5.090  13.996
62284W        W33955  27.795   4.176   2.291
62285W        W33956  14.750   8.223   4.532
62286W        W33957  27.252  24.813  11.144
62287W        W33958  22.759  42.710   2.771
62288W        W33959  15.523  42.793   2.127
62289W        W33960  23.708  34.802  13.889
62290W        W33961  10.461  36.848  12.578
62291W        W33962  20.256  44.322   0.327
62292W        W33963  36.910  41.939   4.498
62293W        W33964  33.399   3.375  12.352
62294W        W33965   2.272  22.605   3.601
62295W        W33966  33.299  35.838  12.045
62296W        W33967  33.935  10.398  14.513
62297W        W33968  25.852   5.426  11.500
62298W        W33969  24.986  26.697  10.177
62299W        W33970  24.808  32.629  12.949
62300W        W33971   3.628   9.689   3.304
62301W        W33972  34.934   1.774  12.623
62302W        W33973  24.090   5.038   2.806
62303W        W33974  41.078  12.217   0.345
62304W        W33975  10.445  34.602   4.555
62305W        W33976   5.384  11.357   2.382
62306W        W33977  37.490  38.393   4.600
62307W        W33978  27.664  13.670   3.894
62308W        W33979  44.720   1.346  10.775
62309W        W33980  26.695  26.654  11.445
62310W        W33981  19.890  13.746  12.069
62311W        W33982  19.237  35.579  12.485
62312W        W33983  42.759  28.358   1.420
62313W        W33984  14.349  16.270  13.888
62314W        W33985  36.389  37.505  11.979
62315W        W33986  15.100   7.401  11.870
62316W        W33987  27.879  39.534  12.999
62317W        W33988  11.688  19.308   3.734
62318W        W33989  19.598  16.018  14.446
62319W        W33990  44.498  26.237  13.575
62320W        W33991  27.940   4.599   3.372
62321W        W33992  37.862  16.215   2.836
62322W        W33993  33.426  25.660   2.965
62323W        W33994  17.698   2.818   2.386
62324W        W33995   3.351  33.940  13.825
62325W        W33996  23.241  38.333  11.974
62326W        W33997  20.544  16.796   0.197
62327W        W33998  35.618  12.763  11.552
62328W        W33999  20.893  12.200  12.111
62329W        W34000  41.829  38.931  10.629
62330W        W34001   0.603  32.795   2.628
62331W        W34002  29.404  37.346  13.313
62332W        W34003  44.344  22.597   1.183
62333W        W34004  24.791   6.736  11.085
62334W        W34005   7.196  39.060   1.369
62335W        W34006  25.191  19.038  12.930
62336W        W34007  40.057  34.766   1.310
62337W        W34008  15.086  43.268   4.325
62338W        W34009  44.805   9.894  10.609
62339W        W34010  29.007  18.762  13.742
62340W        W34011  13.616   8.849   1.380
62341W        W34012  13.567  13.459  11.967
62342W        W34013  13.746  23.965  11.281
62343W        W34014  22.244  19.233   0.361
62344W        W34015  32.926  14.066   3.778
62345W        W34016   8.318  37.001   1.757
62346W        W34017  39.455  40.307  13.450
62347W        W34018  29.168  25.146   0.948
62348W        W34019  10.893  33.453  13.454
62349W        W34020  16.906  42.249  13.375
62350W        W34021  41.913  11.169   2.786
62351W        W34022   7.766   7.889  12.002
62352W        W34023   7.946   7.313   1.635
62353W        W34024  43.827   1.683  12.544
62354W        W34025   6.394  24.048   1.364
62355W        W34026  10.740  42.443   2.735
62356W        W34027  34.226   6.856  12.046
62357W        W34028   0.734  41.555  12.892
62358W        W34029  31.664   5.716  10.704
62359W        W34030  43.139  23.129   2.755
62360W        W34031   5.697  18.638  14.425
62361W        W34032  26.191  16.293   3.695
62362W        W34033  19.206   8.866  14.028
62363W        W34034  30.048  19.229  12.860
62364W        W34035  31.030  40.773  11.493
62365W        W34036  32.644  33.204  10.819
62366W        W34037   9.846  14.051   3.356
62367W        W34038   0.722  14.062   2.216
62368W        W34039  19.186   7.356  14.454
62369W        W34040  39.865  24.654  10.946
62370W        W34041  28.412  22.301  12.977
62371W        W34042  20.917  15.412   0.504
62372W        W34043  31.729  41.904  12.435
62373W        W34044  39.352  19.084   2.172
62374W        W34045  19.741  36.295  13.452
62375W        W34046  13.207  25.118  13.062
62376W        W34047  27.409   2.396   0.943
62377W        W34048  20.286  14.623  13.189
62378W        W34049  38.221  39.868  12.489
62379W        W34050  23.761  15.601  13.061
62380W        W34051  39.057  41.257  14.348
62381W        W34052  37.664  29.361   1.801
62382W        W34053  38.131   9.918  11.956
62383W        W34054  19.462  31.400  11.074
62384W        W34055  11.068   8.795   0.319
62385W        W34056  28.046  39.066   4.559
62386W        W34057   6.345   4.841  13.967
62387W        W34058   6.002  39.072   2.485
62388W        W34059  29.032  40.428   3.831
62389W        W34060   0.894  39.291   1.364
62390W        W34061   3.331  18.004  14.319
62391W        W34062  43.521  18.568   2.575
62392W        W34063  42.383  33.342  12.135
62393W        W34064  10.320   0.194  13.926
62394W        W34065  38.996   5.743   1.363
62395W        W34066  34.348  16.602   2.257
62396W        W34067   3.697  19.083   2.972
62397W        W34068  31.042  32.612  11.889
62398W        W34069  40.312  42.556   1.688
62399W        W34070  25.019  37.707   2.203
62400W        W34071  36.578   0.797   1.651
62401W        W34072  35.076  23.097   2.687
62402W        W34073  22.913  10.151  12.525
62403W        W34074  10.750  38.500   3.119
62404W        W34075   4.809  34.058  13.858
62405W        W34076  12.834  31.406   2.689
62406W        W34077  32.145   6.645  11.488
62407W        W34078  37.881  21.049  14.246
62408W        W34079  29.466  27.581  11.619
62409W        W34080  20.722  20.231  11.838
62410W        W34081  20.078  25.794  10.130
62411W        W34082  36.939  28.378   3.642
62412W        W34083   6.682  27.094  10.371
62413W        W34084   9.394  20.557   1.508
62414W        W34085  15.281   5.585  12.623
62415W        W34086  18.133  24.543  11.885
62416W        W34087  10.738  23.695   0.038
62417W        W34088  41.427  21.465  14.507
62418W        W34089  25.027  44.030   1.390
62419W        W34090  38.045  42.582  14.800
62420W        W34091  14.417   8.206  10.465
62421W        W34092   7.135  20.624  10.693
62422W        W34093   6.298  33.079  11.631
62423W        W34094  31.912  33.345   0.399
62424W        W34095  37.498  29.356   2.690
62425W        W34096  24.696  12.758   1.365
62426W        W34097  43.020  41.335   4.215
62427W        W34098  16.573  39.497   1.544
62428W        W34099  27.269  36.377  14.355
62429W        W34100   1.414  34.342   1.202
62430W        W34101  17.344   7.617   4.072
62431W        W34102  19.300  37.486   3.766
62432W        W34103  18.311  28.555   3.626
62433W        W34104  39.868   5.228  12.686
62434W        W34105  23.172  43.044   0.874
62435W        W34106  15.319  34.784   0.314
62436W        W34107  16.040  27.876   3.317
62437W        W34108  16.133  13.519   3.181
62438W        W34109  10.438  25.674   3.159
62439W        W34110   1.866  19.688  12.942
62440W        W34111   1.544  22.940  13.577
62441W        W34112   9.821  36.370   4.830
62442W        W34113  41.723  42.913  12.006
62443W        W34114  20.205   5.506  11.959
62444W        W34115  31.918  41.984  14.368
62445W        W34116  15.353  31.592  12.012
62446W        W34117  35.509   9.881   0.007
62447W        W34118   6.461   4.194  11.154
62448W        W34119  27.549  23.426   2.505
62449W        W34120  39.530  15.836  14.743
62450W        W34121  42.319  44.746   3.786
62451W        W34122   7.165   4.317  13.298
62452W        W34123  18.849  19.648  10.797
62453W        W34124   9.377  11.712  12.588
62454W        W34125  41.627  30.712   1.867
62455W        W34126  41.627   2.349   1.720
62456W        W34127   6.888  26.412   3.215
62457W        W34128  36.319  42.766  13.487
62458W        W34129  28.163   8.366   2.698
62459W        W34130   8.895  21.933   2.324
62460W        W34131  21.765   7.256  14.562
62461W        W34132  21.882  18.117   2.188
62462W        W34133  42.546  40.067   1.847
62463W        W34134   9.108  44.979   3.191
62464W        W34135   4.336  18.569   3.679
62465W        W34136  10.367  13.731   3.312
62466W        W34137  27.365   0.723  11.327
62467W        W34138  21.784  14.240   4.089
62468W        W34139   5.490  38.070  11.436
62469W        W34140  21.480  18.636  10.748
62470W        W34141  33.510  31.047  13.056
62471W        W34142  16.996  40.894   3.743
62472W        W34143   1.847   4.167   2.304
62473W        W34144  38.977  26.038  12.809
62474W        W34145  21.312  26.017   2.754
62475W        W34146  44.348  31.142  11.020
62476W        W34147  40.864  26.497   4.873
62477W        W34148  40.027  12.750  10.721
62478W        W34149  41.996  39.493   1.879
62479W        W34150  19.546   3.354   3.705
62480W        W34151  21.248   4.943   2.817
62481W        W34152   7.151  26.516  12.854
62482W        W34153  27.064  41.477  11.184
62483W        W34154  12.849   1.143  14.677
62484W        W34155   4.684   0.501   1.253
62485W        W34156  38.386  30.422  12.930
62486W        W34157  38.091  33.865   3.740
62487W        W34158  28.403  16.273  11.929
62488W        W34159   0.385  16.698  14.485
62489W        W34160   7.678  17.741   3.310
62490W        W34161  16.268   8.074  12.003
62491W        W34162  44.817  22.552  13.338
62492W        W34163  16.998  23.629   0.473
62493W        W34164  28.411  25.889  11.967
62494W        W34165  13.727  13.785  11.130
62495W        W34166   8.001  44.845  13.828
62496W        W34167  42.090  24.921   3.321
62497W        W34168  19.564  40.320   3.804
62498W        W34169  32.044   6.117  11.367
62499W        W34170  21.622   3.755   4.714
62500W        W34171  18.340  34.844   4.623
62501W        W34172  31.392   2.497   3.371
62502W        W34173  18.214  28.999   4.869
62503W        W34174   6.562   5.345  12.645
62504W        W34175   5.759  20.208   2.782
62505W        W34176  11.703  33.158   3.332
62506W        W34177  41.766  12.205  13.606
62507W        W34178  19.077   7.663  12.957
62508W        W34179  32.435  17.576  12.131
62509W        W34180  15.122  44.728   3.028
62510W        W34181  37.436  30.353  13.337
62511W        W34182   9.204   5.154   3.586
62512W        W34183  15.574  41.000  12.548
62513W        W34184   2.982  12.279   1.510
62514W        W34185   2.207  29.401   0.465
62515W        W34186  11.729  18.432  11.839
62516W        W34187  33.701  16.291  12.430
62517W        W34188  15.303  15.656  14.707
62518W        W34189  30.028  26.136   3.157
62519W        W34190  13.792  42.751   4.574
62520W        W34191  43.321  26.036  13.861
62521W        W34192  26.868  20.519  11.251
62522W        W34193   7.974  27.204   0.785
62523W        W34194  15.762  10.955   1.220
62524W        W34195  41.471   4.936  14.459
62525W        W34196  44.941   3.847  14.937
62526W        W34197  18.071  12.725  13.718
62527W        W34198  27.892  13.640  11.037
62528W        W34199  41.694  17.578  11.164
62529W        W34200  36.589  41.575   1.335
62530W        W34201  14.534   1.345   0.493
62531W        W34202   1.227  23.752  11.478
62532W        W34203  26.254  23.702   3.164
62533W        W34204  41.270  29.072   3.650
62534W        W34205   2.310  31.495  13.350
62535W        W34206   2.559   0.469  12.130
62536W        W34207   5.890  26.210  14.121
62537W        W34208  44.215   8.815   1.771
62538W        W34209   5.462  29.106  11.573
62539W        W34210  37.601  21.632   1.504
62540W        W34211  32.109   8.867  10.739
62541W        W34212  26.020  12.341  14.046
62542W        W34213  13.781  41.693   3.845
62543W        W34214  13.621  27.583   1.716
62544W        W34215   4.731   3.269   3.679
62545W        W34216  29.205  24.794  13.920
62546W        W34217  20.724  43.271   4.170
62547W        W34218  25.037  17.741  14.833
62548W        W34219  31.714  18.672  11.139
62549W        W34220   8.107  38.957   1.804
62550W        W34221  38.204  16.732  12.837
62551W        W34222   4.064  10.376  11.548
62552W        W34223  44.313  10.623  12.797
62553W        W34224  42.479  30.665   3.750
62554W        W34225  40.803  23.181   2.163
62555W        W34226  36.004   6.761  12.489
62556W        W34227  19.978  26.895   4.191
62557W        W34228  20.787  32.165  12.323
62558W        W34229  21.503  19.748   0.379
62559W        W34230  26.947   3.311   0.678
62560W        W34231  39.533  31.927  13.554
62561W        W34232  21.283  44.009   1.018
62562W        W34233   7.416  27.764   3.151
62563W        W34234   3.653   2.946   5.003
62564W        W34235  25.647  15.089   4.026
62565W        W34236  42.388   8.561  14.459
62566W        W34237  21.837  13.287   0.025
62567W        W34238  42.584  22.118   4.545
62568W        W34239  30.172  22.445  14.773
62569W        W34240  34.139  14.158  10.608
62570W        W34241  22.448  26.559  14.972
62571W        W34242  15.282   8.151  12.374
62572W        W34243  41.015  39.844  14.994
62573W        W34244  44.325  28.094   0.546
62574W        W34245   5.390  36.992  14.076
62575W        W34246  30.894  36.578   4.745
62576W        W34247   8.815   7.956  14.379
62577W        W34248  11.255  31.988  10.634
62578W        W34249  18.464  17.075  13.851
62579W        W34250  38.827  18.785   1.021
62580W        W34251   2.217  18.692   1.346
62581W        W34252  33.653   0.940  10.830
62582W        W34253   9.596   4.438  13.901
62583W        W34254  11.627  20.097   0.718
62584W        W34255  21.100  43.170  12.894
62585W        W34256  34.009  38.799   4.614
62586W        W34257  37.095  13.346   1.789
62587W        W34258  34.860  31.893   1.471
62588W        W34259  20.160  22.296  10.493
62589W        W34260  21.810  35.214   4.445
62590W        W34261  19.423  24.562   0.185
62591W        W34262  27.638   4.960   3.611
62592W        W34263  18.218  12.371  10.188
62593W        W34264  34.169  14.113   2.762
62594W        W34265   4.264  33.425  10.647
62595W        W34266  30.905  30.078  13.684
62596W        W34267   1.062   4.777   1.795
62597W        W34268  17.359  22.260   0.399
62598W        W34269   5.639  18.213   3.202
62599W        W34270   5.660  20.266  13.055
62600W        W34271  30.898   6.189  14.319
62601W        W34272  14.631  33.546  12.139
62602W        W34273   5.614  42.420  13.399
62603W        W34274  35.066  10.214  12.968
62604W        W34275   0.340   4.777   4.294
62605W        W34276  16.240  29.585   1.874
62606W        W34277   2.611  30.177  11.000
62607W        W34278   4.639  32.885   2.096
62608W        W34279  28.547  32.560  12.608
62609W        W34280  27.257  35.551  13.302
62610W        W34281  43.071  39.408  13.899
62611W        W34282  43.931   8.847  11.660
62612W        W34283  15.664  37.837   2.399
62613W        W34284  38.422  34.021   3.372
62614W        W34285   3.721   9.370   3.782
62615W        W34286   2.049  41.476   2.595
62616W        W34287  40.898   9.132  11.622
62617W        W34288  11.764  11.319   4.566
62618W        W34289  12.097   4.013   1.985
62619W        W34290  36.925  40.743   1.429
62620W        W34291  38.771  36.299   2.918
62621W        W34292  33.165  32.105  14.056
62622W        W34293  40.234  26.617  13.825
62623W        W34294  39.586   0.032  13.484
62624W        W34295  17.923  27.620  12.990
62625W        W34296   5.678  15.390   1.207
62626W        W34297  15.385   2.416   0.957
62627W        W34298  36.132  16.031   1.717
62628W        W34299   1.789  35.200  13.994
62629W        W34300  13.067  32.391  10.665
62630W        W34301  11.129  19.143  11.283
62631W        W34302  44.516  24.495  10.689
62632W        W34303  19.890  25.694   1.831
62633W        W34304  21.806   9.636  14.302
62634W        W34305   5.248   7.278  10.986
62635W        W34306  17.522  39.499   2.127
62636W        W34307  40.410  34.873  14.889
62637W        W34308   4.694   4.951  11.676
62638W        W34309  17.792   6.061   5.456
62639W        W34310   3.015  37.469  12.969
62640W        W34311   3.337  21.525   1.407
62641W        W34312  20.973  19.566  14.356
62642W        W34313  35.517  26.244  10.471
62643W        W34314  33.508   6.685  12.878
62644W        W34315  18.551  25.222  12.408
62645W        W34316  38.658   2.744  14.792
62646W        W34317  41.792   3.648   1.270
62647W        W34318   9.859   5.867  11.283
62648W        W34319  35.911  24.506  13.565
62649W        W34320  15.049  14.226   4.070
62650W        W34321  18.646  36.180   0.798
62651W        W34322  27.996  34.716   2.233
62652W        W34323   9.261  24.724   3.614
62653W        W34324   5.362  38.159  13.262
62654W        W34325  29.061  35.970   0.394
62655W        W34326  12.648  18.496   1.516
62656W        W34327  35.829   9.713   0.861
62657W        W34328  13.198   6.192   3.834
62658W        W34329   5.701  26.464   0.058
62659W        W34330  34.138  29.159   3.105
62660W        W34331  16.622  40.977   1.664
62661W        W34332  30.993  42.621  13.427
62662W        W34333  27.514   1.440   2.224
62663W        W34334  32.852  42.276  14.295
62664W        W34335  38.667   8.739   4.302
62665W        W34336  25.788  33.810   0.470
62666W        W34337   7.055  17.467  13.816
62667W        W34338  21.998  32.544  12.377
62668W        W34339  39.029  41.812  13.431
62669W        W34340   0.296  10.613   3.256
62670W        W34341   3.334  26.097   0.851
62671W        W34342   8.424  34.810   2.609
62672W        W34343  17.609  41.800  14.451
62673W        W34344  39.974  37.083  12.706
62674W        W34345  27.731  24.043  12.887
62675W        W34346  43.047  28.198  10.661
62676W        W34347  34.947  43.983   4.219
62677W        W34348  30.576   4.941  11.553
62678W        W34349   3.832  38.937   0.152
62679W        W34350  11.119  37.418   4.877
62680W        W34351  25.539  23.572  11.282
62681W        W34352  29.279  28.922  11.465
62682W        W34353  28.940  11.747  14.092
62683W        W34354  39.983  16.566   2.032
62684W        W34355  29.444  29.391  13.518
62685W        W34356  31.560  24.777   0.332
62686W        W34357  22.992  24.232   2.763
62687W        W34358  24.389  20.990   3.660
62688W        W34359  44.918  32.901  12.554
62689W        W34360  35.407   6.865   1.941
62690W        W34361  35.332  13.083   1.847
62691W        W34362  33.861  43.434  13.390
62692W        W34363  41.423  20.949  14.516
62693W        W34364  29.311  42.123   3.862
62694W        W34365  22.898  16.512   1.832
62695W        W34366   3.771  13.829   1.367
62696W        W34367  13.656  13.641   1.861
62697W        W34368  16.399  38.055  13.291
62698W        W34369  23.190  14.448   1.300
62699W        W34370  41.114  38.476   3.807
62700W        W34371  43.874  30.434   1.445
62701W        W34372  10.266  26.655  13.020
62702W        W34373  44.596  43.336   3.220
62703W        W34374  26.598  15.627  12.014
62704W        W34375  20.562  18.790  11.589
62705W        W34376  43.968  41.442  14.433
62706W        W34377  39.271  35.811   1.675
62707W        W34378  19.189  19.706  12.545
62708W        W34379   4.990   8.847  12.595
62709W        W34380  28.952  13.756   0.818
62710W        W34381  21.556   7.846   4.189
62711W        W34382  28.737   5.164  12.396
62712W        W34383   5.967   5.898   1.756
62713W        W34384   2.928  13.057   3.359
62714W        W34385   7.958  27.916  13.530
62715W        W34386  21.759  12.022   0.606
62716W        W34387  16.745   6.185  13.818
62717W        W34388  29.505  14.743  12.111
62718W        W34389   0.460  27.539  10.688
62719W        W34390   4.217  26.505   1.024
62720W        W34391   5.754  14.133  11.296
62721W        W34392  28.086  15.982   2.200
62722W        W34393  37.515  34.753  10.676
62723W        W34394  20.067  38.420  14.340
62724W        W34395  39.666  41.168  13.484
62725W        W34396  20.172  15.406   4.703
62726W        W34397  30.617   2.314  12.241
62727W        W34398  27.179  37.306  10.742
62728W        W34399  40.497  24.572   3.433
62729W        W34400  39.613   7.237  11.713
62730W        W34401  26.560  36.170  12.391
62731W        W34402  11.752  34.120  11.749
62732W        W34403  44.894  18.029  13.016
62733W        W34404  42.592  10.018  12.580
62734W        W34405  35.368  27.611  13.339
62735W        W34406   6.366  11.707   4.509
62736W        W34407  28.165  12.600  11.223
62737W        W34408  35.010  40.392  14.074
62738W        W34409  34.129  19.319   2.068
62739W        W34410  32.434  25.265   2.086
62740W        W34411  32.210  32.565  14.936
62741W        W34412  40.211  16.478   3.236
62742W        W34413  15.853  25.175  14.544
62743W        W34414  24.084   7.270  10.729
62744W        W34415  18.260  41.632   3.303
62745W        W34416  36.512   9.145  12.458
62746W        W34417  25.187  24.894   0.199
62747W        W34418   4.378  12.577  14.897
62748W        W34419  29.658  20.277   0.364
62749W        W34420  44.220   4.723  11.622
62750W        W34421   6.821  29.799   0.691
62751W        W34422  39.432  17.776  13.774
62752W        W34423  12.164  33.832  14.431
62753W        W34424  20.274  35.014   3.640
62754W        W34425  39.111  12.541  13.436
62755W        W34426  15.993  32.356   2.660
62756W        W34427  23.550  11.689  12.574
62757W        W34428   7.417   1.996  11.148
62758W        W34429  29.195  40.843  13.076
62759W        W34430   9.895  41.947   2.888
62760W        W34431   7.351  17.783   2.428
62761W        W34432  21.043  33.927   2.339
62762W        W34433  14.410  29.224  14.846
62763W        W34434  16.757  23.366   4.562
62764W        W34435  33.968  25.541   3.788
62765W        W34436   4.185  18.717  13.733
62766W        W34437   3.488   0.477  13.011
62767W        W34438  29.864  17.133   4.243
62768W        W34439   2.139  40.286  14.982
62769W        W34440  31.098  30.788   2.727
62770W        W34441   5.290   6.897  13.139
62771W        W34442  13.193  19.849  14.794
62772W        W34443  28.266  25.178  11.164
62773W        W34444  35.177   1.084  12.171
62774W        W34445  42.066   4.959   2.267
62775W        W34446  33.877  34.085  11.168
62776W        W34447  43.146  29.017   0.969
62777W        W34448   9.307   9.451   2.370
62778W        W34449  41.548  14.273   3.176
62779W        W34450  19.434  15.028   3.195
62780W        W34451  41.809  24.273   2.180
62781W        W34452  34.510   9.181   3.399
62782W        W34453  42.241  33.898  14.982
62783W        W34454  24.750  43.399  10.705
62784W        W34455  36.374   8.135   0.548
62785W        W34456  30.596  26.505  10.530
62786W        W34457   5.294  16.609  11.384
62787W        W34458  37.935  22.553   1.475
62788W        W34459  15.671   8.421  13.843
62789W        W34460  44.130  25.697   2.612
62790W        W34461  32.171  19.206   0.921
62791W        W34462   0.966  23.045  13.434
62792W        W34463  19.657  24.479  10.190
62793W        W34464   1.827   3.156  14.889
62794W        W34465  21.216   9.882  12.918
62795W        W34466  13.169  16.559  13.328
62796W        W34467  36.507  44.358  14.237
62797W        W34468  10.375   5.892   2.099
62798W        W34469  44.936   3.808   2.036
62799W        W34470  23.228  23.004   3.101
62800W        W34471  37.139  41.859  10.767
62801W        W34472   4.446  39.353   0.617
62802W        W34473  13.183  23.138   0.973
62803W        W34474   5.092  33.406   3.337
62804W        W34475  36.116   6.681  14.770
62805W        W34476  29.977  31.652   3.338
62806W        W34477  18.662  26.490   1.919
62807W        W34478   6.620  38.966   0.404
62808W        W34479  33.094  10.658  13.415
62809W        W34480  42.900   5.158   2.852
62810W        W34481  20.372   2.797   2.298
62811W        W34482   7.332  39.431   4.491
62812W        W34483   2.529  32.007  12.047
62813W        W34484  17.248  36.087  11.002
62814W        W34485  22.613  20.509  10.782
62815W        W34486  39.435   9.789   4.663
62816W        W34487  40.389  40.043  12.470
62817W        W34488  41.741   5.383   4.345
62818W        W34489   7.953  43.010  14.327
62819W        W34490   6.834   3.061  14.152
62820W        W34491  33.527  42.913  14.844
62821W        W34492  14.911  31.980   0.283
62822W        W34493   0.424  44.571   1.864
62823W        W34494   1.943  26.388  10.714
62824W        W34495  36.413  11.880   3.208
62825W        W34496   4.782  25.727  14.892
62826W        W34497  15.537  29.422   5.116
62827W        W34498  27.368  37.070  11.188
62828W        W34499  34.615   0.678  13.333
62829W        W34500  37.218  10.122  12.123
62830W        W34501  15.779  31.367   4.622
62831W        W34502   5.468  29.463  11.190
62832W        W34503  40.848  11.382   3.674
62833W        W34504   6.642   4.308  13.377
62834W        W34505  40.232  29.540   1.592
62835W        W34506  32.028   1.721   5.106
62836W        W34507  39.897  10.162  14.988
62837W        W34508  24.769  18.571   1.942
62838W        W34509   9.184  43.538   3.056
62839W        W34510  26.467  13.238  12.991
62840W        W34511  27.946  18.259   4.544
62841W        W34512  29.892  33.497   3.525
62842W        W34513  19.739  35.118   1.380
62843W        W34514   1.005  44.432   2.611
62844W        W34515  30.601   3.353   0.025
62845W        W34516  11.921  39.921  13.921
62846W        W34517  30.133   7.219   5.154
62847W        W34518  16.776  15.856  12.848
62848W        W34519  37.438  36.303   0.794
62849W        W34520   0.768  19.316  11.622
62850W        W34521   9.357   2.939  13.806
62851W        W34522  43.309  38.298  14.904
62852W        W34523  20.922   3.096  13.020
62853W        W34524   1.911  34.704  13.903
62854W        W34525  14.733  34.219  14.851
62855W        W34526  26.927  30.409   3.221
62856W        W34527  30.641  37.095   0.389
62857W        W34528   0.738  42.587  12.989
62858W        W34529  34.404  20.552   2.517
62859W        W34530  15.338  15.139   4.526
62860W        W34531  16.515   9.924   1.503
62861W        W34532  36.913  43.528   0.461
62862W        W34533  18.945  12.277  13.923
62863W        W34534  25.638  42.284   3.368
62864W        W34535  14.137  42.508   2.849
62865W        W34536  26.499  44.990  13.575
62866W        W34537  12.138  21.430  11.098
62867W        W34538  21.128  28.825   1.407
62868W        W34539   6.961   7.039   1.116
62869W        W34540  17.254   9.402  13.589
62870W        W34541  33.005  39.838  11.102
62871W        W34542   1.819  34.621   4.400
62872W        W34543  25.467  24.579  12.181
62873W        W34544  32.445  37.116  14.830
62874W        W34545  42.011  10.317  14.816
62875W        W34546  21.873  24.750  12.439
62876W        W34547   9.839   2.201   1.782
62877W        W34548   5.140  33.772   0.074
62878W        W34549  39.981   8.668   4.561
62879W        W34550  16.785  19.485   2.535
62880W        W34551   6.288  35.546   1.514
62881W        W34552  36.662  39.874  11.453
62882W        W34553   4.091  40.795   0.546
62883W        W34554  32.342  14.751   0.841
62884W        W34555  10.146  10.317   4.129
62885W        W34556  15.876  38.982  12.085
62886W        W34557  35.397  31.750   2.329
62887W        W34558  24.949  32.908  11.071
62888W        W34559  44.272   9.243  14.498
62889W        W34560  25.076  17.801   0.723
62890W        W34561   7.665   9.046  12.054
62891W        W34562  42.836  15.188   4.634
62892W        W34563  41.463  27.144  11.998
62893W        W34564   6.913  42.527   3.284
62894W        W34565   2.843  22.696   2.884
62895W        W34566  31.642   7.211   1.387
62896W        W34567  11.770  36.764   2.403
62897W        W34568  14.856   8.188  12.099
62898W        W34569   7.717  11.280   2.775
62899W        W34570  17.512  12.289  11.336
62900W        W34571  12.364  13.935  11.192
62901W        W34572  18.020  14.616  12.590
62902W        W34573  21.948  13.758   4.128
62903W        W34574  29.070  18.599  10.985
62904W        W34575   0.368  34.432   2.733
62905W        W34576  22.491  23.158   2.627
62906W        W34577  14.488  31.112   5.243
62907W        W34578  13.214  13.390  14.971
62908W        W34579  35.083   2.776  14.911
62909W        W34580  19.597  39.879  12.076
62910W        W34581  22.374   2.218  14.623
62911W        W34582  39.028   3.774   1.248
62912W        W34583  29.663  18.572  11.024
62913W        W34584  26.199  32.066   1.985
62914W        W34585  19.122  27.119   3.760
62915W        W34586  16.011  29.551  10.621
62916W        W34587   5.656  41.022   0.713
62917W        W34588  36.800   5.158  13.994
62918W        W34589  23.350  12.639  12.586
62919W        W34590  44.384   5.870  12.533
62920W        W34591   4.926  37.386  10.332
62921W        W34592  19.802   8.909   4.850
62922W        W34593  23.434  27.431   0.840
62923W        W34594   3.129  38.968   2.860
62924W        W34595   6.815  14.923  12.405
62925W        W34596   0.463   2.386  14.039
62926W        W34597   1.951  18.128   3.123
62927W        W34598  13.780   6.417   0.851
62928W        W34599  19.559  27.162  14.927
62929W        W34600  30.501  44.545   4.191
62930W        W34601  29.604  42.013   4.766
62931W        W34602  22.253  27.300   2.811
62932W        W34603   6.552  37.934  11.526
62933W        W34604  44.894  15.572  10.561
62934W        W34605  41.687  42.835  10.737
62935W        W34606  32.840  24.004   0.402
62936W        W34607  23.543  23.513   1.885
62937W        W34608  27.698  18.154   5.008
62938W        W34609  19.883  11.964   2.945
62939W        W34610  14.643  41.276  11.604
62940W        W34611  41.673  27.582   2.231
62941W        W34612   3.941  37.879   4.023
62942W        W34613   9.062   6.340  12.356
62943W        W34614  19.526   8.454  13.954
62944W        W34615  38.329  43.805   2.609
62945W        W34616   6.113   4.751   3.115
62946W        W34617  34.058  22.459   4.820
62947W        W34618  18.644  22.756  14.542
62948W        W34619  26.258  17.313  14.953
62949W        W34620  21.978  10.747   0.843
62950W        W34621   6.231  24.653  10.693
62951W        W34622   2.696   3.151   4.060
62952W        W34623   4.220  30.360   4.402
62953W        W34624  32.908  31.626  10.011
62954W        W34625   4.852  32.082   3.407
62955W        W34626  11.186   9.742  12.365
62956W        W34627   5.313  13.098  10.988
62957W        W34628  28.665  19.235  12.562
62958W        W34629  43.955  28.176  12.859
62959W        W34630  37.489  16.045  13.059
62960W        W34631  19.307  21.031   1.371
62961W        W34632  10.172  30.039  10.706
62962W        W34633  37.370  18.783  12.957
62963W        W34634  43.084  24.405   4.575
62964W        W34635   6.256  22.495   1.443
62965W        W34636   5.802  22.822   2.299
62966W        W34637  38.414   8.707   3.849
62967W        W34638   8.300   0.498  12.641
62968W        W34639  14.065   3.866  14.320
62969W        W34640  36.993   0.064  14.348
62970W        W34641  25.746  35.402   4.567
62971W        W34642   3.197  32.012   0.430
62972W        W34643  27.047   2.443  10.601
62973W        W34644  38.472   1.902   1.152
62974W        W34645  22.230  39.755   1.304
62975W        W34646  13.069  12.635  13.865
62976W        W34647  26.552  13.932  11.164
62977W        W34648   0.262  39.846  10.348
62978W        W34649  30.414  14.609  13.332
62979W        W34650  22.269  18.577  13.447
62980W        W34651  30.930   4.616  13.449
62981W        W34652  16.704  17.303  14.313
62982W        W34653  39.912  18.038   2.868
62983W        W34654   5.908  10.126  13.035
62984W        W34655  25.887  34.046   2.205
62985W        W34656  41.066   8.841   0.297
62986W        W34657  44.323  11.758  14.834
62987W        W34658  28.067  17.108  14.438
62988W        W34659   5.447  22.010   3.616
62989W        W34660  19.053  18.606   0.570
62990W        W34661  26.739  30.628  13.725
62991W        W34662   0.853   3.041  11.592
62992W        W34663  11.324  39.758   1.739
62993W        W34664  23.250  12.587   0.356
62994W        W34665  43.845   9.324  12.447
62995W        W34666   4.675   9.780   1.870
62996W        W34667  17.474  26.161  13.366
62997W        W34668  28.074  15.215  11.628
62998W        W34669  19.359  13.822  10.398
62999W        W34670  17.060  40.782   4.293
63000W        W34671  17.220  10.080  11.350
63001W        W34672   7.288   4.348   4.580
63002W        W34673   3.868  23.827  13.424
63003W        W34674   9.301  12.355  13.342
63004W        W34675  38.396  28.021   4.277
63005W        W34676  43.420  12.144   1.731
63006W        W34677  17.167  21.026  12.367
63007W        W34678  33.517  36.053  14.315
63008W        W34679  14.202   1.573  11.429
63009W        W34680  25.146  28.187   5.004
63010W        W34681  31.459  38.911  13.825
63011W        W34682  34.244  11.809  11.119
63012W        W34683  18.706  25.028   9.790
63013W        W34684  42.472  18.030  11.612
63014W        W34685   0.988   0.873   3.267
63015W        W34686   9.142  13.780   0.168
63016W        W34687  33.636   7.673  13.047
63017W        W34688  17.350  21.051   1.383
63018W        W34689  12.169   4.792  12.268
63019W        W34690  31.652  16.155  14.098
63020W        W34691   8.673  26.237   2.214
63021W        W34692  29.091  20.128  10.492
63022W        W34693  11.402  37.328   1.727
63023W        W34694   8.875   5.865  14.186
63024W        W34695  16.128  31.880  10.151
63025W        W34696  27.480  22.014  14.374
63026W        W34697   7.707   6.890   1.505
63027W        W34698   0.749   9.395   3.663
63028W        W34699  10.096  38.382   4.481
63029W        W34700  27.389   1.044  14.076
63030W        W34701  31.024  25.118   3.170
63031W        W34702  41.092  38.333   0.034
63032W        W34703  20.288  19.353  10.743
63033W        W34704  43.176  27.921   4.954
63034W        W34705   9.941  19.990  14.371
63035W        W34706   5.397  37.205  11.164
63036W        W34707  13.659  17.684  11.630
63037W        W34708  36.282  26.628  14.045
63038W        W34709  36.826  26.492   3.194
63039W        W34710  34.319   2.748   2.270
63040W        W34711  42.757  15.083  14.008
63041W        W34712   1.823  14.687  14.500
63042W        W34713  40.006  17.797   1.308
63043W        W34714  40.964  40.906  13.466
63044W        W34715  35.797   9.957  14.007
63045W        W34716   2.195  16.345   0.808
63046W        W34717   6.861  18.550  10.748
63047W        W34718  42.898  29.303  11.758
63048W        W34719   8.715  39.196  10.543
63049W        W34720  38.873   1.231  14.565
63050W        W34721  21.971   8.901   1.215
63051W        W34722   0.725  29.884  12.291
63052W        W34723  43.909  18.817   2.839
63053W        W34724  19.669  40.392  12.146
63054W        W34725  16.143   2.689  10.662
63055W        W34726  24.626  18.869  13.085
63056W        W34727  13.247  19.779   2.040
63057W        W34728  23.794  36.568   3.225
63058W        W34729  18.584  14.096  11.926
63059W        W34730   5.275  32.574  11.641
63060W        W34731  14.654  35.274   4.107
63061W        W34732  39.898  43.780   1.030
63062W        W34733  36.015  13.282   3.113
63063W        W34734  10.289  39.502   0.819
63064W        W34735  12.812  38.611  14.104
63065W        W34736  10.232  10.137   4.601
63066W        W34737  26.533   8.424  10.630
63067W        W34738   5.534   5.198   1.422
63068W        W34739  38.113  12.809   0.760
63069W        W34740   6.398  23.533  11.451
63070W        W34741  16.353  36.525  11.165
63071W        W34742  27.051  19.780  14.983
63072W        W34743  24.147  31.502   1.461
63073W        W34744  26.143  31.200   3.714
63074W        W34745  39.890  24.427   0.800
63075W        W34746  17.616  24.908  10.470
63076W        W34747  41.859  44.263   1.818
63077W        W34748  22.130   8.944   3.584
63078W        W34749  44.930  22.967  14.632
63079W        W34750  11.150  41.387  13.810
63080W        W34751  28.693  29.455   1.998
63081W        W34752  44.075  38.981  12.971
63082W        W34753  40.481   4.820   3.191
63083W        W34754   6.462  38.515   1.282
63084W        W34755   2.357  30.549   1.940
63085W        W34756   4.685  40.031  11.528
63086W        W34757  33.999   7.707  11.625
63087W        W34758  17.995  33.993  11.607
63088W        W34759   0.666   3.723  14.356
63089W        W34760  40.743  27.242   4.674
63090W        W34761  23.339  23.087   4.670
63091W        W34762  12.944  28.497   0.767
63092W        W34763   0.297  34.453  14.292
63093W        W34764  14.396  13.704  12.228
63094W        W34765  41.024   8.947   2.391
63095W        W34766   0.854  44.510  11.981
63096W        W34767  19.357   7.499  13.618
63097W        W34768  24.579  11.206  14.029
63098W        W34769  26.150   6.398   3.699
63099W        W34770   0.949  18.844  11.714
63100W        W34771  18.136  37.824  13.816
63101W        W34772  26.257  41.440   0.664
63102W        W34773  30.150  44.033   2.184
63103W        W34774  43.801  31.846  11.124
63104W        W34775   3.039  28.414   4.251
63105W        W34776   6.198  14.617   0.821
63106W        W34777  40.611  31.845   1.754
63107W        W34778  13.614  26.098  14.878
63108W        W34779   2.357  10.510  11.125
63109W        W34780  34.610  18.788  13.586
63110W        W34781  15.969  10.785  14.723
63111W        W34782   7.863  29.375   1.735
63112W        W34783  13.848  37.554  14.923
63113W        W34784  38.893  12.664   1.870
63114W        W34785  35.499  11.468   0.836
63115W        W34786  24.008  23.973  14.242
63116W        W34787   2.781  44.387  11.405
63117W        W34788  13.285  14.631   0.891
63118W        W34789  26.097   1.227   2.382
63119W        W34790  35.338  25.931   0.891
63120W        W34791   7.555  17.568  13.891
63121W        W34792  11.130  19.658  14.173
63122W        W34793  16.732  29.590  11.176
63123W        W34794  31.657  14.775   2.216
63124W        W34795  13.331  15.642   1.001
63125W        W34796   4.852  44.701  12.852
63126W        W34797  40.895  36.543   3.748
63127W        W34798  40.497   0.800  12.122
63128W        W34799  22.754  44.417  13.313
63129W        W34800  38.917  20.561  13.757
63130W        W34801  12.906  42.413  12.017
63131W        W34802  11.526  13.946   0.761
63132W        W34803  11.615   3.394  10.900
63133W        W34804  30.443  36.242  10.998
63134W        W34805  10.580  32.530  10.364
63135W        W34806  34.361  18.821  11.442
63136W        W34807  44.289  12.133   4.136
63137W        W34808  39.769  42.982  11.234
63138W        W34809  27.613  27.193   1.408
63139W        W34810   1.701  18.566  11.124
63140W        W34811  21.248  42.758  11.559
63141W        W34812  13.800  41.577  13.405
63142W        W34813  18.499  39.386   1.123
63143W        W34814  10.745  14.305  12.419
63144W        W34815   2.009  18.980   0.526
63145W        W34816  14.389  36.206   1.466
63146W        W34817  39.391  15.789   0.225
63147W        W34818  41.263  32.545  13.834
63148W        W34819   8.411  29.466  12.036
63149W        W34820  28.166  44.671   3.068
63150W        W34821  11.881  12.309  10.503
63151W        W34822  25.693   3.289  14.727
63152W        W34823   1.499  42.294   0.252
63153W        W34824   9.945   5.950   4.646
63154W        W34825  37.296  38.466  12.660
63155W        W34826  14.087  39.374  13.500
63156W        W34827   2.530  27.718  13.416
63157W        W34828  15.332  29.856  14.075
63158W        W34829   3.161   4.393   2.804
63159W        W34830  40.407  16.790   2.865
63160W        W34831  16.368  21.318  13.688
63161W        W34832  12.195   1.838  10.448
63162W        W34833  35.125   2.787   0.820
63163W        W34834  21.667   5.634  14.972
63164W        W34835  11.833  30.764  11.151
63165W        W34836  37.081  26.187   2.265
63166W        W34837  41.634  12.061  14.283
63167W        W34838  41.157  37.505  13.399
63168W        W34839  29.056  28.540   1.239
63169W        W34840  19.455  16.587   1.498
63170W        W34841  29.512  40.369  12.502
63171W        W34842  14.077  40.452   4.527
63172W        W34843  39.280   5.238   4.247
63173W        W34844   2.207  28.998   2.164
63174W        W34845  37.762  37.543  12.804
63175W        W34846   6.275  38.570   1.770
63176W        W34847  31.677  35.494  13.851
63177W        W34848  21.533  19.206  11.114
63178W        W34849  33.453  42.992  14.342
63179W        W34850  14.068  37.369  11.342
63180W        W34851  10.259  15.751  12.486
63181W        W34852  31.689  37.283   1.223
63182W        W34853   9.667  13.357  10.662
63183W        W34854  11.117  40.227   1.720
63184W        W34855  24.548  12.389  13.951
63185W        W34856   6.788  14.375  13.913
63186W        W34857  11.638  29.101  13.060
63187W        W34858  33.527  15.945   1.529
63188W        W34859  30.606   9.209   0.473
63189W        W34860   3.811  37.298  12.495
63190W        W34861  39.281  36.064  12.943
63191W        W34862  13.151   0.037   3.572
63192W        W34863  36.485  33.661   4.834
63193W        W34864   0.996   2.480  14.018
63194W        W34865  41.441   8.938  14.206
63195W        W34866  39.817  29.434   3.878
63196W        W34867  14.237  35.988   2.811
63197W        W34868   8.856  15.331   2.814
63198W        W34869  17.401  23.748   3.620
63199W        W34870  41.766  41.980  12.072
63200W        W34871  44.533   7.833   0.791
63201W        W34872  34.904   7.375   2.379
63202W        W34873  17.677   3.112   1.921
63203W        W34874  32.652  26.613   0.008
63204W        W34875  40.000   2.939   2.172
63205W        W34876  28.433  23.053   0.504
63206W        W34877  39.080   4.830  14.843
63207W        W34878  23.746  10.816   2.825
63208W        W34879  29.175   0.251  12.479
63209W        W34880  42.946  35.157  11.195
63210W        W34881   5.349  14.429   0.439
63211W        W34882  14.879  21.118  11.713
63212W        W34883  21.938  19.515   2.255
63213W        W34884  41.394  34.134   3.793
63214W        W34885  29.452  24.640  14.853
63215W        W34886  38.113  24.522   3.333
63216W        W34887  15.744  25.017  14.054
63217W        W34888  16.607   4.729   9.706
63218W        W34889  35.968  36.899   1.563
63219W        W34890  14.214  29.633  10.383
63220W        W34891   4.188  42.787  11.039
63221W        W34892  36.664  35.387   2.252
63222W        W34893  26.686  32.518  12.141
63223W        W34894  34.760  37.833  12.356
63224W        W34895  15.582  36.204   4.787
63225W        W34896  32.145  38.076  10.741
63226W        W34897  24.121   5.743   4.618
63227W        W34898  32.206  44.450  10.860
63228W        W34899  10.352  25.576  11.463
63229W        W34900  33.497  30.704   1.511
63230W        W34901  32.649  36.321   0.619
63231W        W34902   3.768  17.230   2.780
63232W        W34903  23.292  40.950  10.618
63233W        W34904  19.684  31.588  11.836
63234W        W34905  19.761  27.736   4.190
63235W        W34906  35.588   2.977  11.059
63236W        W34907   8.907  35.803   1.269
63237W        W34908  36.505  17.767   1.631
63238W        W34909   3.251  44.839   0.897
63239W        W34910  24.725  29.566   2.157
63240W        W34911  10.842  42.440   1.016
63241W        W34912   6.943  12.634  13.051
63242W        W34913   4.376   2.884   0.892
63243W        W34914  12.395   8.638   4.069
63244W        W34915   1.262  14.579   0.768
63245W        W34916  32.366  36.398  12.901
63246W        W34917  44.004  35.444   3.697
63247W        W34918  23.128  40.405   0.068
63248W        W34919   2.762  18.758   1.320
63249W        W34920  36.267  41.661  11.145
63250W        W34921  32.813  29.700   1.180
63251W        W34922  24.264   6.291  14.319
63252W        W34923   7.932  42.302   1.811
63253W        W34924  44.247  42.048   4.836
63254W        W34925  43.141  25.351   2.314
63255W        W34926  10.051   9.412   1.420
63256W        W34927   3.236  25.956  13.771
63257W        W34928  25.041  36.671  14.879
63258W        W34929  13.299  44.015  10.448
63259W        W34930   2.543  14.624   3.358
63260W        W34931   1.989   5.288   0.459
63261W        W34932  23.250  26.396   3.716
63262W        W34933  40.948  44.394  14.015
63263W        W34934  13.591  19.027  11.239
63264W        W34935   5.046  32.407  14.876
63265W        W34936  19.173  25.632   4.028
63266W        W34937  26.508  38.557   4.657
63267W        W34938  12.595  32.601  10.591
63268W        W34939  41.717  14.617   1.678
63269W        W34940  33.016  38.189   2.747
63270W        W34941  44.537  34.073   1.161
63271W        W34942  17.649  41.646  14.942
63272W        W34943  22.161  42.062  11.951
63273W        W34944   9.107  29.643   0.454
63274W        W34945  21.200  16.706  14.495
63275W        W34946  23.602   1.289   0.042
63276W        W34947  21.903  13.626   1.808
63277W        W34948  41.474   6.343  10.683
63278W        W34949   1.394  21.757   1.993
63279W        W34950  14.555   1.693  12.998
63280W        W34951   6.799  36.959  14.332
63281W        W34952  37.404  17.664   4.254
63282W        W34953  44.250   4.210  13.426
63283W        W34954  11.094  26.402   0.348
63284W        W34955  26.649  42.696   4.643
63285W        W34956  44.457  20.057   4.693
63286W        W34957   4.682  39.562   2.765
63287W        W34958   0.019  42.848  10.621
63288W        W34959  40.450   1.952   2.197
63289W        W34960  43.025   0.999  13.611
63290W        W34961  14.296   2.455  11.082
63291W        W34962  29.642  31.842  14.989
63292W        W34963  10.843  21.866   0.821
63293W        W34964  35.603  13.568  11.149
63294W        W34965   5.942  43.238  12.150
63295W        W34966   0.716   0.916  12.402
63296W        W34967  40.405  41.550  14.808
63297W        W34968   3.215  28.970  11.904
63298W        W34969  28.434   8.194  10.990
63299W        W34970  19.153   9.454   1.384
63300W        W34971   0.288   8.180   2.405
63301W        W34972  30.240  16.136  14.653
63302W        W34973  17.666  33.880  12.109
63303W        W34974  33.887  33.432  11.514
63304W        W34975  36.896   3.203  12.075
63305W        W34976  44.127   5.591   3.370
63306W        W34977  41.515   3.506   0.774
63307W        W34978   3.374  14.323  13.201
63308W        W34979  26.463  17.280   1.341
63309W        W34980  30.868  38.582  14.026
63310W        W34981   4.947  12.037   4.537
63311W        W34982  37.774  34.616   3.602
63312W        W34983  15.634   1.383   3.322
63313W        W34984  29.116  34.453  13.511
63314W        W34985  30.283  41.525  12.480
63315W        W34986  33.859  22.052  13.911
63316W        W34987  23.950  42.479  12.465
63317W        W34988  36.113  26.106  13.911
63318W        W34989  16.612  11.790   4.199
63319W        W34990   9.752  20.714  12.849
63320W        W34991   8.227  11.080  12.171
63321W        W34992  12.349   7.793  11.469
63322W        W34993  12.645  44.435   0.054
63323W        W34994  34.049  11.344   2.800
63324W        W34995   8.795  14.734   3.659
63325W        W34996  15.201   3.722  11.863
63326W        W34997  43.547  38.022  12.515
63327W        W34998  30.644  15.120  11.063
63328W        W34999  32.329   6.605  13.596
63329W        W35000  31.607   7.181  10.669
63330W        W35001  39.881   4.287  13.873
63331W        W35002  21.135  37.132   0.184
63332W        W35003  35.890  33.458   3.125
63333W        W35004  11.863  15.162  10.690
63334W        W35005  18.032  16.007  14.474
63335W        W35006  42.878   7.197   4.315
63336W        W35007   5.877   6.200  14.873
63337W        W35008   6.088  18.733  13.504
63338W        W35009  44.462   8.157   1.498
63339W        W35010   7.441  25.092   4.198
63340W        W35011  36.379  31.051  10.757
63341W        W35012  24.149  38.384  14.150
63342W        W35013  15.106   3.870  14.481
63343W        W35014  37.349  39.590  11.912
63344W        W35015  20.025   9.793   2.871
63345W        W35016   3.690  19.572  11.060
63346W        W35017   6.727  40.196   4.842
63347W        W35018  15.682  37.357   0.194
63348W        W35019  34.465  24.628  12.628
63349W        W35020  36.611  42.382  13.349
63350W        W35021  32.073   8.169   0.383
63351W        W35022   3.233  15.399   4.511
63352W        W35023  35.124  18.510  12.152
63353W        W35024   3.746  20.322   4.623
63354W        W35025  12.178  17.233  12.120
63355W        W35026  20.300  24.190  10.891
63356W        W35027  33.502  12.256   4.157
63357W        W35028  24.073  36.371   3.662
63358W        W35029  13.338  32.981  14.759
63359W        W35030  11.208  29.242   1.742
63360W        W35031  14.392   1.316  14.498
63361W        W35032  17.225  34.546  14.488
63362W        W35033  16.332  26.533  13.107
63363W        W35034   9.369  11.215   2.688
63364W        W35035  22.275   4.367  14.966
63365W        W35036  37.557  35.062   1.277
63366W        W35037  27.934  10.341  14.065
63367W        W35038  11.541  29.063  14.316
63368W        W35039  20.451   4.471  13.857
63369W        W35040   9.117  41.804   3.100
63370W        W35041  24.948  29.554  14.588
63371W        W35042   9.262  25.802   0.195
63372W        W35043  12.085  21.496   2.580
63373W        W35044  41.323  30.903   1.098
63374W        W35045   1.766  28.399  10.902
63375W        W35046  14.082  22.218  10.474
63376W        W35047  27.691   5.483  11.059
63377W        W35048  37.835  34.401  12.363
63378W        W35049   8.830  28.692  13.093
63379W        W35050   7.210  33.110  13.056
63380W        W35051  15.173  17.738   4.580
63381W        W35052  22.464  16.083   1.704
63382W        W35053   4.873  39.082   0.150
63383W        W35054  26.218   9.656   0.318
63384W        W35055  40.561  33.889   2.263
63385W        W35056   6.338  18.565  12.349
63386W        W35057  44.243  13.231   4.883
63387W        W35058  18.992  26.617   3.716
63388W        W35059  32.690  13.273  11.397
63389W        W35060   2.226  10.616   1.086
63390W        W35061  17.339  12.274  14.908
63391W        W35062  34.405   0.325  12.988
63392W        W35063   4.150  40.368  12.944
63393W        W35064   3.288  13.012  12.932
63394W        W35065  18.111  14.860  13.913
63395W        W35066  20.362   1.041   1.094
63396W        W35067   0.049   2.734   3.725
63397W        W35068   9.881  21.517   0.670
63398W        W35069  30.565  28.196   1.939
63399W        W35070  39.252   7.020  13.455
63400W        W35071  25.963  43.845   0.176
63401W        W35072  35.422   6.385  13.348
63402W        W35073   5.491   6.441   3.278
63403W        W35074  12.832  44.151  14.401
63404W        W35075   8.811   3.659  14.399
63405W        W35076   3.724  36.567  11.573
63406W        W35077   9.602  37.367  12.936
63407W        W35078  44.865  38.943   1.058
63408W        W35079  21.127  32.010  11.250
63409W        W35080   9.243  24.295   0.784
63410W        W35081  17.433  34.438  13.233
63411W        W35082   4.802  21.604  11.882
63412W        W35083  43.916  12.797  13.469
63413W        W35084  30.016   8.848   3.781
63414W        W35085   2.507  25.086  14.373
63415W        W35086  23.850  32.440   1.399
63416W        W35087  18.283  32.325   3.599
63417W        W35088  38.560  22.614  11.673
63418W        W35089  22.933   1.124   5.132
63419W        W35090  34.849  41.316   1.262
63420W        W35091  21.751   4.882   2.680
63421W        W35092  42.827  39.870   4.101
63422W        W35093  33.939  15.340   2.789
63423W        W35094  33.519  14.190   0.439
63424W        W35095   4.141  23.913  13.945
63425W        W35096  36.400  30.020  10.796
63426W        W35097   0.893  10.776  13.950
63427W        W35098  27.581  38.927  11.588
63428W        W35099  32.441   5.770   2.058
63429W        W35100  34.406  27.142   2.676
63430W        W35101  11.569  43.982   4.646
63431W        W35102   1.768   7.900  13.903
63432W        W35103  18.152   5.283  10.830
63433W        W35104  38.523  31.705   1.762
63434W        W35105  33.526  16.546  14.296
63435W        W35106  33.542   6.950   2.540
63436W        W35107  24.474  16.839  10.873
63437W        W35108  24.104   3.142  11.936
63438W        W35109  10.845  39.800   3.978
63439W        W35110  44.267  25.694   3.130
63440W        W35111  22.064   9.227   0.008
63441W        W35112  24.953  23.062  13.899
63442W        W35113  17.323  38.842  14.093
63443W        W35114   1.440   1.465   0.404
63444W        W35115  25.629  23.961   2.164
63445W        W35116  30.923   8.227   3.924
63446W        W35117  37.381  31.912   2.661
63447W        W35118  33.087  24.028  12.285
63448W        W35119  42.423   4.293  11.436
63449W        W35120  39.604  27.377  13.874
63450W        W35121   0.754  12.354  13.023
63451W        W35122  30.202  14.585   4.748
63452W        W35123  12.309  29.631   0.334
63453W        W35124  11.839   4.243   4.056
63454W        W35125  19.096  36.385  12.883
63455W        W35126  16.573   9.129   0.863
63456W        W35127  34.688  38.055  14.997
63457W        W35128  33.840  33.534   3.156
63458W        W35129  34.578  38.853  13.825
63459W        W35130  13.174   1.867   4.770
63460W        W35131   6.218  16.474  13.981
63461W        W35132   1.512  29.391  10.813
63462W        W35133  10.789   3.505  11.191
63463W        W35134   6.669   5.715   3.216
63464W        W35135  27.543   2.079  12.380
63465W        W35136  27.756  24.460   1.765
63466W        W35137   1.545  35.317   1.880
63467W        W35138  39.800  34.013  11.894
63468W        W35139   6.422  28.299  14.069
63469W        W35140  21.662  26.607   3.287
63470W        W35141  19.001  29.434   2.288
63471W        W35142  28.617   7.418  14.797
63472W        W35143  31.622   7.582   0.163
63473W        W35144   2.560  18.330  11.942
63474W        W35145  21.172  27.778   3.691
63475W        W35146   9.349   6.708  11.396
63476W        W35147  43.505  24.973  12.413
63477W        W35148  33.570  25.164   1.220
63478W        W35149  15.620   3.218  13.312
63479W        W35150  25.208  39.473  14.764
63480W        W35151   5.038  37.058   0.285
63481W        W35152  38.049  14.826   4.728
63482W        W35153  24.939  30.071   4.293
63483W        W35154  41.986   2.415  14.907
63484W        W35155  30.370   5.628  11.126
63485W        W35156  31.962  40.683   2.747
63486W        W35157  11.584  39.981  14.306
63487W        W35158  28.632  41.409   1.273
63488W        W35159  18.633  19.317  13.506
63489W        W35160   9.503  28.958  14.973
63490W        W35161  21.493  20.346   2.388
63491W        W35162  30.590  38.817   0.848
63492W        W35163  20.995   2.866   1.855
63493W        W35164  33.596  42.739  13.921
63494W        W35165  38.292  28.632   0.423
63495W        W35166  16.785  26.857   3.734
63496W        W35167  29.642  37.889  14.338
63497W        W35168  18.813   3.906   2.097
63498W        W35169  39.949  33.636   0.998
63499W        W35170  39.390   6.642  11.021
63500W        W35171  20.563  38.582  10.669
63501W        W35172   8.687   1.190  10.768
63502W        W35173  24.249  40.249  10.119
63503W        W35174  44.531  21.037   0.783
63504W        W35175  12.525  35.593  11.174
63505W        W35176   0.176  10.514  13.102
63506W        W35177  18.572  24.038  14.921
63507W        W35178  14.897  24.625   3.541
63508W        W35179  21.029  30.569   0.398
63509W        W35180   1.488  30.472  12.644
63510W        W35181  31.419  14.881   0.854
63511W        W35182  38.034  11.552   2.241
63512W        W35183  25.311   9.260   1.373
63513W        W35184  38.042  29.926   1.956
63514W        W35185  27.234   5.830  14.042
63515W        W35186  39.428  44.888   1.794
63516W        W35187   3.713  16.351  11.996
63517W        W35188  19.818  41.846  11.502
63518W        W35189  20.738  31.467   0.765
63519W        W35190  34.103   5.046  11.242
63520W        W35191  35.444  22.980  13.364
63521W        W35192  18.326  19.325   0.445
63522W        W35193  29.513  21.100  10.911
63523W        W35194   1.743  14.230  14.702
63524W        W35195  31.915  37.126  10.616
63525W        W35196  25.693   8.786  14.314
63526W        W35197  34.991  20.114  13.576
63527W        W35198  28.279  12.757  13.082
63528W        W35199  17.717  33.639  13.602
63529W        W35200  40.626  42.267  12.056
63530W        W35201  35.401  11.720  14.857
63531W        W35202  25.910  27.391   0.835
63532W        W35203  44.466   9.682   3.887
63533W        W35204  12.344  38.818   0.719
63534W        W35205  39.757   7.280  12.997
63535W        W35206  11.999  38.414  11.051
63536W        W35207   9.827  28.908   0.367
63537W        W35208  18.299  28.145   4.404
63538W        W35209  13.066   3.962   1.769
63539W        W35210  42.639  16.998   2.872
63540W        W35211  38.953  12.531  11.551
63541W        W35212  33.945  20.704   0.360
63542W        W35213  43.619  29.894   2.443
63543W        W35214   3.184   1.067  13.610
63544W        W35215  26.918   6.433   4.563
63545W        W35216  18.448  16.649   2.337
63546W        W35217  15.908  15.676  11.410
63547W        W35218   4.332  19.827   4.098
63548W        W35219  21.210   9.830   1.737
63549W        W35220  11.892  33.813  11.093
63550W        W35221  14.199  34.328   0.946
63551W        W35222  11.003  25.454  14.477
63552W        W35223  15.769   3.665  10.675
63553W        W35224  30.170  17.686  12.350
63554W        W35225  35.999   0.982  14.139
63555W        W35226  23.070  10.789  13.909
63556W        W35227  32.882   8.338  12.891
63557W        W35228  15.041  19.692   1.223
63558W        W35229  29.035   6.855   9.829
63559W        W35230  16.986  31.421   3.734
63560W        W35231  30.960  18.190  11.094
63561W        W35232  29.981  31.825  13.335
63562W        W35233  22.295  28.574  10.729
63563W        W35234  37.973  22.755   1.943
63564W        W35235  34.326  22.911   4.827
63565W        W35236  15.796   0.784   2.306
63566W        W35237   8.875  13.875  12.486
63567W        W35238  35.649  27.086  14.607
63568W        W35239  22.497  16.197  10.664
63569W        W35240  34.854   2.578   0.378
63570W        W35241  20.551  40.241   9.740
63571W        W35242  13.018  35.430   2.773
63572W        W35243  13.645  40.489   4.868
63573W        W35244  20.984  20.710   3.039
63574W        W35245   7.327   6.701   1.254
63575W        W35246  21.417  20.304   4.778
63576W        W35247  31.689  33.463   1.843
63577W        W35248   8.234  30.170  14.586
63578W        W35249   9.769   6.435   4.668
63579W        W35250  31.232  29.377  11.101
63580W        W35251  28.378  17.812   2.225
63581W        W35252  20.440  16.573   1.475
63582W        W35253  36.996  44.337   0.922
63583W        W35254  32.602  38.359   0.502
63584W        W35255  42.881  22.288  11.108
63585W        W35256  38.817   2.389  13.896
63586W        W35257  12.337  25.101   1.338
63587W        W35258  39.717  16.290   1.367
63588W        W35259  42.969  39.569   3.694
63589W        W35260  33.546  36.787   4.186
63590W        W35261   5.441  12.742  10.613
63591W        W35262   7.511   3.586   2.504
63592W        W35263  21.651  42.878  13.717
63593W        W35264  24.449  19.609   3.168
63594W        W35265  34.013  14.442  11.490
63595W        W35266  42.405   6.244  14.952
63596W        W35267   1.679   3.396   4.099
63597W        W35268   5.840   1.239   1.466
63598W        W35269   9.866  19.869   0.953
63599W        W35270  12.864  40.951  13.996
63600W        W35271   3.645   2.738  13.815
63601W        W35272  14.903  11.176   3.190
63602W        W35273  38.444   4.274   0.869
63603W        W35274  36.695  29.502   4.213
63604W        W35275  15.118   1.098  13.848
63605W        W35276  20.607  22.220   3.158
63606W        W35277  30.524  44.775  13.944
63607W        W35278  33.163  11.679  12.447
63608W        W35279  44.811   2.743  11.083
63609W        W35280   0.885  11.229  14.188
63610W        W35281   0.887  22.667  14.346
63611W        W35282  10.770  17.152   3.255
63612W        W35283  32.320  13.615  11.580
63613W        W35284  23.990  19.617  11.573
63614W        W35285  25.874  29.948  12.543
63615W        W35286   0.450   4.413   3.923
63616W        W35287  10.796  17.136  12.248
63617W        W35288  10.971  16.117   1.340
63618W        W35289  39.054   7.161   4.963
63619W        W35290  15.252  22.665   4.668
63620W        W35291  20.244  24.705  12.461
63621W        W35292  44.936  10.864   0.820
63622W        W35293  31.227  21.767  12.104
63623W        W35294  13.450  29.341   4.444
63624W        W35295  40.389   7.292   4.738
63625W        W35296   4.265  33.076   0.954
63626W        W35297   6.161   8.280   1.395
63627W        W35298  30.120  15.135  10.492
63628W        W35299  42.611   2.246  14.103
63629W        W35300  44.483  24.923   0.925
63630W        W35301  22.755  11.649   4.807
63631W        W35302   8.321   2.939   3.330
63632W        W35303  41.283  43.524   0.743
63633W        W35304  31.477  42.926  10.505
63634W        W35305  15.507   4.866  10.628
63635W        W35306  38.258  24.633  13.499
63636W        W35307  18.215  40.379  14.801
63637W        W35308   7.136   6.800   4.195
63638W        W35309  13.877  35.418   0.041
63639W        W35310  37.082  41.071  11.693
63640W        W35311  23.652  21.023   5.086
63641W        W35312  42.398   7.248  12.633
63642W        W35313  17.984   3.631   0.301
63643W        W35314  27.034   8.882   0.020
63644W        W35315   9.879  20.165  12.047
63645W        W35316  20.450  23.223  14.887
63646W        W35317  43.276  11.093   2.737
63647W        W35318  30.653  20.732   4.647
63648W        W35319  16.332  16.319  10.710
63649W        W35320  42.518  14.518  10.719
63650W        W35321  16.063  42.375   0.362
63651W        W35322  40.167  32.067   1.818
63652W        W35323  43.320  33.873   0.367
63653W        W35324  43.479   8.666   3.792
63654W        W35325  18.130  28.233   1.536
63655W        W35326  13.711  27.699  12.645
63656W        W35327   1.678   5.128  11.270
63657W        W35328   5.918  16.730   1.898
63658W        W35329   5.849   4.724  14.873
63659W        W35330   8.191  21.927   3.335
63660W        W35331  22.003  21.137  14.881
63661W        W35332   4.977   8.856  11.190
63662W        W35333  38.620  12.373  13.467
63663W        W35334  24.701  18.228   4.178
63664W        W35335  24.770   0.419  10.660
63665W        W35336  35.050  28.607   1.999
63666W        W35337  41.268  14.019  11.002
63667W        W35338   8.876  32.214  12.921
63668W        W35339  16.642  15.350  12.901
63669W        W35340  10.660  35.644   0.727
63670W        W35341   2.857  34.460   3.115
63671W        W35342  24.067  16.667  13.648
63672W        W35343  13.615  33.699  13.035
63673W        W35344  13.706  21.972   4.586
63674W        W35345  26.967   6.288  13.964
63675W        W35346  32.841  36.902  12.120
63676W        W35347  21.780   9.846  12.021
63677W        W35348  26.869  44.229   2.720
63678W        W35349   6.185  29.967   1.797
63679W        W35350  44.700   3.400  12.996
63680W        W35351  40.108  28.616  14.411
63681W        W35352  35.607  27.370   3.414
63682W        W35353  12.800  25.032   4.742
63683W        W35354  32.605  43.206   0.210
63684W        W35355  23.530  22.158  14.979
63685W        W35356   4.678  26.835  13.354
63686W        W35357  37.314  22.181  11.108
63687W        W35358  32.582  15.347   4.001
63688W        W35359  14.594  14.128   9.980
63689W        W35360   4.338  33.847  11.490
63690W        W35361  10.763  27.004  13.371
63691W        W35362  32.652  35.853  11.595
63692W        W35363  38.591  10.383   1.838
63693W        W35364  35.367  24.219  11.191
63694W        W35365  15.681  14.228  10.065
63695W        W35366  42.890  29.995  13.209
63696W        W35367  14.383  26.132  12.402
63697W        W35368  42.538  14.531   4.605
63698W        W35369  26.189  12.424   0.080
63699W        W35370   2.285  39.889   2.328
63700W        W35371   4.662  16.101   4.585
63701W        W35372  19.854  21.034   3.351
63702W        W35373  16.780   0.421   3.626
63703W        W35374   6.871  17.199   4.907
63704W        W35375  12.245   1.212   2.685
63705W        W35376  30.615  23.540   0.934
63706W        W35377  10.617  22.848   0.821
63707W        W35378  24.095   3.802  11.095
63708W        W35379   1.523  31.851   3.335
63709W        W35380   1.731   5.188   0.892
63710W        W35381  29.575  29.027   2.689
63711W        W35382  13.290  13.162   2.293
63712W        W35383   3.960  36.763  13.414
63713W        W35384  34.853  27.257  12.097
63714W        W35385  14.478  10.759  10.469
63715W        W35386   0.292   9.338   3.452
63716W        W35387  21.962  22.923   0.025
63717W        W35388   7.120   5.455  11.233
63718W        W35389  34.964  33.585   4.111
63719W        W35390   0.330  10.366   1.867
63720W        W35391  17.060  18.155  14.061
63721W        W35392  41.305  15.619   0.425
63722W        W35393  24.053  17.347  11.899
63723W        W35394  23.569  21.538  14.171
63724W        W35395  41.147  33.509   3.233
63725W        W35396  39.834  33.382   1.828
63726W        W35397  24.956  41.466   3.686
63727W        W35398  20.383  34.488  10.192
63728W        W35399  23.505  11.842  11.225
63729W        W35400   8.727  25.756  14.502
63730W        W35401  13.784   0.356   1.670
63731W        W35402  30.423  27.127   0.408
63732W        W35403  43.681   5.706   4.618
63733W        W35404  27.041  24.074  12.212
63734W        W35405  19.221  20.457   1.249
63735W        W35406  16.731   1.760  13.412
63736W        W35407  34.015   7.697   3.676
63737W        W35408  14.337  39.236  11.725
63738W        W35409  17.770  40.829  14.786
63739W        W35410  22.099  22.993  11.965
63740W        W35411  19.255  10.136  13.140
63741W        W35412   3.960  35.368  10.480
63742W        W35413  13.134  34.353  11.567
63743W        W35414  36.983  36.464   0.964
63744W        W35415  20.823  14.149  11.125
63745W        W35416  29.221  31.539  14.913
63746W        W35417   7.233   3.881   3.231
63747W        W35418  39.785   8.412  11.245
63748W        W35419  19.799  22.668  10.598
63749W        W35420  21.589  38.428  12.090
63750W        W35421  33.052   6.175  14.435
63751W        W35422  20.626   0.717  13.050
63752W        W35423  19.929  41.425  12.202
63753W        W35424   3.869  30.915   3.158
63754W        W35425  12.670  35.250   1.347
63755W        W35426  17.205  33.155  13.021
63756W        W35427  25.607  14.098   4.154
63757W        W35428  34.638  38.884  10.437
63758W        W35429   6.915  32.657  12.103
63759W        W35430  20.282  30.887  11.985
63760W        W35431   9.528  29.384  11.021
63761W        W35432  12.278  15.153   4.102
63762W        W35433  39.850  41.511  10.562
63763W        W35434  36.123  17.660  14.829
63764W        W35435   7.719  24.734  14.448
63765W        W35436  23.663  43.882   1.601
63766W        W35437   5.419  25.615  12.541
63767W        W35438   0.239   8.600   2.708
63768W        W35439  35.318  11.136  13.573
63769W        W35440  42.222  17.269   0.831
63770W        W35441  43.942  26.394  14.868
63771W        W35442  30.444  17.060   1.594
63772W        W35443  42.908   4.685   0.213
63773W        W35444   2.325   6.921  14.928
63774W        W35445  17.252  18.120   3.140
63775W        W35446   0.353  22.263   2.752
63776W        W35447  39.425  34.963  13.441
63777W        W35448  20.694   4.829   1.714
63778W        W35449  18.808  39.089  12.182
63779W        W35450  31.895  28.185  12.474
63780W        W35451  36.017   0.885  13.627
63781W        W35452  30.160  28.438  14.149
63782W        W35453   0.939  10.446   0.937
63783W        W35454  19.063  31.212  11.457
63784W        W35455  40.372   3.799  14.877
63785W        W35456  20.035  17.054  12.439
63786W        W35457   3.270  17.931  12.878
63787W        W35458   4.290  42.432  10.675
63788W        W35459  11.984  42.154   0.238
63789W        W35460  40.465  32.356  11.455
63790W        W35461   2.790  24.126   3.193
63791W        W35462  22.637   3.575   0.349
63792W        W35463  22.265  33.378   4.428
63793W        W35464  11.639  42.823  12.073
63794W        W35465  14.375   4.206  11.984
63795W        W35466  33.049  22.657   4.127
63796W        W35467  21.164  15.290   1.830
63797W        W35468  26.534  30.509  14.980
63798W        W35469  43.893  21.478  11.021
63799W        W35470  22.508  22.709  12.122
63800W        W35471   6.921   0.410  13.328
63801W        W35472  44.336  42.449  13.626
63802W        W35473  22.011  22.460  11.962
63803W        W35474   6.129  43.914  13.309
63804W        W35475  40.555  34.092   3.630
63805W        W35476  16.837  25.697   0.938
63806W        W35477   7.365   6.908   0.780
63807W        W35478  35.897  39.531   5.316
63808W        W35479  23.076   9.761   3.346
63809W        W35480  18.776  42.398  14.706
63810W        W35481  30.945   5.764   3.218
63811W        W35482  38.480  15.794  10.261
63812W        W35483  31.058  32.476   2.784
63813W        W35484  29.701  23.604   0.396
63814W        W35485   6.668  26.046  10.731
63815W        W35486  33.915  13.059   1.548
63816W        W35487  27.700  41.231  10.587
63817W        W35488   9.588  33.321  14.657
63818W        W35489   5.937  10.018  13.558
63819W        W35490  43.887  37.857   4.974
63820W        W35491  14.719  39.963  12.334
63821W        W35492  12.217  13.698   1.420
63822W        W35493  23.017  41.491  12.054
63823W        W35494   7.507   5.506   0.793
63824W        W35495  16.337   5.317  14.522
63825W        W35496  14.636  33.669   4.122
63826W        W35497   7.675  42.710   0.390
63827W        W35498  14.158  29.027  13.855
63828W        W35499  12.659   7.454  12.378
63829W        W35500  21.236   2.002   0.836
63830W        W35501  11.505   0.338   2.248
63831W        W35502   7.164  36.439  11.141
63832W        W35503  17.247  41.624   1.444
63833W        W35504  30.421   0.402   4.602
63834W        W35505  38.816  30.651  12.404
63835W        W35506  27.182  28.142   0.300
63836W        W35507  24.691  16.056   0.945
63837W        W35508  35.126  36.582  10.379
63838W        W35509  37.603  42.331   2.680
63839W        W35510  24.466   9.191  12.110
63840W        W35511  25.494   0.245   1.240
63841W        W35512  35.281  22.592  10.783
63842W        W35513  32.900  15.214   2.676
63843W        W35514   9.401  16.246   2.951
63844W        W35515   6.180   3.581   1.368
63845W        W35516  14.212  32.296   2.663
63846W        W35517  20.698  11.723   4.876
63847W        W35518   2.555  19.656   1.627
63848W        W35519  23.839  17.615   3.161
63849W        W35520  13.221  30.294   0.415
63850W        W35521  43.050  13.234   0.471
63851W        W35522  13.848  24.034   3.897
63852W        W35523   7.738  18.114  12.992
63853W        W35524  37.090   2.542  13.081
63854W        W35525  18.295  41.518   0.700
63855W        W35526  30.634  17.634   3.339
63856W        W35527  21.135  16.225   2.855
63857W        W35528  39.037  39.309  12.669
63858W        W35529  19.958  22.114  14.474
63859W        W35530  30.686  27.854  11.154
63860W        W35531  24.700  26.490   1.348
63861W        W35532  21.596  29.128  10.723
63862W        W35533  35.049  41.494   2.288
63863W        W35534  42.469  31.802  13.948
63864W        W35535  22.937   5.320   2.284
63865W        W35536  17.325  26.811   1.883
63866W        W35537  36.280   3.992  14.280
63867W        W35538  31.221  28.753  13.468
63868W        W35539  19.646  42.298   2.697
63869W        W35540   4.400  38.495  12.420
63870W        W35541   0.392  26.575  13.933
63871W        W35542  43.923  20.058   4.922
63872W        W35543  35.620  12.301   3.081
63873W        W35544  25.324  20.563  12.975
63874W        W35545  44.341  21.264   9.448
63875W        W35546  12.594  39.854   4.734
63876W        W35547  40.896  27.678  12.520
63877W        W35548  15.843  42.020  14.779
63878W        W35549   7.397   4.746   4.251
63879W        W35550  19.159  10.842   2.906
63880W        W35551  39.356   1.805  14.287
63881W        W35552  29.219  23.617   2.905
63882W        W35553  42.123  21.798   5.408
63883W        W35554   0.516  23.965  12.180
63884W        W35555   8.259  28.080  12.111
63885W        W35556   5.749  40.477  11.072
63886W        W35557  30.754  31.876  11.640
63887W        W35558   6.947  34.815  12.093
63888W        W35559  17.626  17.375  14.245
63889W        W35560  20.159  31.106  10.665
63890W        W35561  13.684  27.862  13.432
63891W        W35562  38.417  14.041  10.683
63892W        W35563  34.797  41.288   0.135
63893W        W35564  17.274  23.731  11.160
63894W        W35565  42.537   2.248  13.228
63895W        W35566  13.453  36.015   2.252
63896W        W35567  36.274  31.164  12.547
63897W        W35568  18.313  23.036  14.051
63898W        W35569   4.899  29.123   1.810
63899W        W35570  42.167  36.445   0.432
63900W        W35571  15.136   4.373   4.628
63901W        W35572  15.551   5.367  10.560
63902W        W35573  23.130  26.085   0.499
63903W        W35574  33.052  44.343  10.635
63904W        W35575  27.685  19.500   0.316
63905W        W35576  26.562  14.491   3.998
63906W        W35577  17.532   5.594   5.312
63907W        W35578  12.903   9.642  13.926
63908W        W35579  15.297  30.727  13.049
63909W        W35580   5.993  13.942   0.795
63910W        W35581   6.887  13.723   4.834
63911W        W35582  25.009  10.640  12.995
63912W        W35583  24.986  36.328  14.048
63913W        W35584  15.781  11.451   3.211
63914W        W35585  41.060  39.947  13.540
63915W        W35586  17.014   0.635  11.561
63916W        W35587  41.984   9.910  14.235
63917W        W35588  29.037  43.275   3.103
63918W        W35589  29.749   3.755   1.871
63919W        W35590  27.551  31.581  14.069
63920W        W35591  10.719  25.487  10.681
63921W        W35592  31.068  20.465  12.516
63922W        W35593  44.378  41.306  11.088
63923W        W35594  30.417  38.729   3.360
63924W        W35595  14.731  12.845  13.116
63925W        W35596  35.851  38.622   0.887
63926W        W35597  16.324  29.972  10.576
63927W        W35598  30.116   4.717  11.484
63928W        W35599  22.750   4.294  12.589
63929W        W35600  18.587   8.631  10.076
63930W        W35601  22.424  37.451  11.091
63931W        W35602  30.878  19.266  11.972
63932W        W35603  41.761  24.090  12.133
63933W        W35604   6.994   3.182  11.373
63934W        W35605  16.073   3.177   4.119
63935W        W35606  39.841  22.771   2.538
63936W        W35607  12.688   5.491   0.720
63937W        W35608  35.070  24.270   2.099
63938W        W35609  41.356  12.618  12.918
63939W        W35610  23.250  21.792  12.401
63940W        W35611  25.497  43.656   2.858
63941W        W35612  24.742  28.714  13.645
63942W        W35613   3.045  15.194  14.385
63943W        W35614  29.526   8.934   2.835
63944W        W35615  29.169  30.238   1.891
63945W        W35616   1.178  11.709   1.250
63946W        W35617  17.600  17.582  11.152
63947W        W35618  42.814  31.988  11.689
63948W        W35619   0.423   0.589  14.029
63949W        W35620   3.301   0.378  14.590
63950W        W35621  44.589  34.544   4.013
63951W        W35622  14.127  27.994   0.668
63952W        W35623  39.260  40.461   4.537
63953W        W35624  15.321  20.770  13.326
63954W        W35625  17.408   2.024  14.898
63955W        W35626  24.530  27.530  11.081
63956W        W35627  41.403   5.170  13.982
63957W        W35628  40.626  12.612  14.893
63958W        W35629   7.423  42.902   0.816
63959W        W35630  28.691  42.973  14.001
63960W        W35631  27.420  42.205   0.482
63961W        W35632   1.631   4.655  14.709
63962W        W35633  32.645  44.143   2.300
63963W        W35634  41.304   0.407  11.120
63964W        W35635  29.496  38.331  12.407
63965W        W35636  20.678  13.295   3.345
63966W        W35637   2.197  12.903   2.689
63967W        W35638  34.921  16.297  10.802
63968W        W35639  24.123  16.077  10.773
63969W        W35640  35.334  12.826  13.016
63970W        W35641  41.861  18.107   4.427
63971W        W35642  42.288   4.795  14.040
63972W        W35643  19.170  30.137   3.905
63973W        W35644  20.247  12.637  11.626
63974W        W35645   3.309  27.469  14.984
63975W        W35646   6.542  10.832  11.647
63976W        W35647  25.618  40.474   2.401
63977W        W35648   7.240  12.343   4.233
63978W        W35649  10.265  38.296  14.102
63979W        W35650  32.415  29.491   3.472
63980W        W35651  30.612  17.463   1.292
63981W        W35652  27.186  43.870  11.170
63982W        W35653  40.543   8.138   0.900
63983W        W35654  29.718   5.273   1.878
63984W        W35655  28.423   4.825  12.621
63985W        W35656  24.614  12.129  12.005
63986W        W35657  17.575  19.179  10.576
63987W        W35658  10.594  24.795   3.032
63988W        W35659  30.466  10.384  14.890
63989W        W35660   0.828  23.997   1.850
63990W        W35661  26.559  10.691  10.401
63991W        W35662  11.677  12.987  12.891
63992W        W35663  28.410  42.398   4.108
63993W        W35664  40.569  40.371  10.991
63994W        W35665  23.674  39.307   2.856
63995W        W35666  16.806  15.207   3.196
63996W        W35667  40.057  31.959  13.526
63997W        W35668  27.536  37.994   1.336
63998W        W35669  34.401  37.578   1.800
63999W        W35670  23.732  34.864   1.199
64000W        W35671  24.232  29.978  12.099
64001W        W35672  35.925  44.941   0.225
64002W        W35673   5.069  18.131  12.823
64003W        W35674  24.265  21.762  14.005
64004W        W35675  38.759   0.644  13.862
64005W        W35676  24.693  21.260   3.274
64006W        W35677  37.665  36.391  13.435
64007W        W35678  40.217  12.270  14.977
64008W        W35679  26.657  31.090   1.864
64009W        W35680  22.578   0.986  13.885
64010W        W35681  27.762  20.953   0.959
64011W        W35682  13.748  38.563  12.908
64012W        W35683  30.162  31.472   2.187
64013W        W35684  23.077  21.642   1.824
64014W        W35685  28.122  12.921  12.578
64015W        W35686  12.174  33.951   1.036
64016W        W35687  17.040  43.885   0.989
64017W        W35688   3.726  10.878  12.014
64018W        W35689   9.233  42.291   1.765
64019W        W35690  44.923   0.430  11.562
64020W        W35691   2.709  19.484  11.440
64021W        W35692  38.779  26.114  10.465
64022W        W35693  40.787  23.627  12.643
64023W        W35694  13.154  23.680   3.391
64024W        W35695   8.689   7.660  10.752
64025W        W35696  33.838  15.137  11.323
64026W        W35697  29.953  14.666  10.746
64027W        W35698   4.567  30.516   0.271
64028W        W35699   5.120  17.781  13.220
64029W        W35700  37.395  24.731   2.950
64030W        W35701   4.759  28.730  13.824
64031W        W35702   7.275  28.142  12.944
64032W        W35703  16.776  24.160   3.235
64033W        W35704   2.879   3.136  12.920
64034W        W35705  10.506   3.774  12.349
64035W        W35706  34.339  41.293   0.376
64036W        W35707  15.085  12.257  13.506
64037W        W35708  15.433   3.467  11.466
64038W        W35709  13.164   0.563   2.855
64039W        W35710  35.928  17.822   2.433
64040W        W35711  40.776   8.116   2.405
64041W        W35712  18.197  35.493  12.893
64042W        W35713  25.709  24.928   1.951
64043W        W35714  35.388  38.397   0.950
64044W        W35715  43.447  23.624  10.706
64045W        W35716  36.431  13.346  13.110
64046W        W35717   9.805  14.752   4.848
64047W        W35718  15.714   8.899   3.773
64048W        W35719  11.663  14.126  11.151
64049W        W35720  26.732   4.368  12.799
64050W        W35721  19.322   2.385  10.530
64051W        W35722  11.623  11.173  13.446
64052W        W35723  30.170   6.838   2.901
64053W        W35724   7.511   0.953   0.806
64054W        W35725   2.293  14.980  14.734
64055W        W35726  12.574  30.673   2.272
64056W        W35727  29.579  16.304   2.343
64057W        W35728  39.909   9.734  13.176
64058W        W35729   8.402   3.832  13.458
64059W        W35730  27.585  41.306  13.077
64060W        W35731  26.595   1.383  13.559
64061W        W35732  10.320   2.419  14.778
64062W        W35733  34.513   4.159  13.398
64063W        W35734  23.939  39.687  14.907
64064W        W35735  38.250  25.686  12.527
64065W        W35736  25.549  20.181  11.362
64066W        W35737  19.603  28.743  13.344
64067W        W35738  43.854  10.367  12.042
64068W        W35739  38.579   7.279  13.603
64069W        W35740  13.598  32.478  10.671
64070W        W35741  36.452   0.041  11.182
64071W        W35742  11.941   0.929  12.941
64072W        W35743  33.083  16.151  14.266
64073W        W35744  10.594  33.623   1.397
64074W        W35745  30.827  10.243  10.793
64075W        W35746  34.211  16.575  11.137
64076W        W35747  30.648   6.510   0.942
64077W        W35748  35.487  44.039   2.899
64078W        W35749   9.001  11.410   3.286
64079W        W35750   6.720  31.601  14.883
64080W        W35751  22.522  43.540  13.985
64081W        W35752  26.439   0.704  14.252
64082W        W35753   7.465  23.425  10.628
64083W        W35754  29.612   1.559  12.528
64084W        W35755  27.041  38.995  11.589
64085W        W35756   5.389  15.679  10.898
64086W        W35757  25.009  17.526   0.295
64087W        W35758  18.063   0.265   1.135
64088W        W35759   1.704  19.677  14.847
64089W        W35760  22.809   0.920   0.848
64090W        W35761  14.358  10.060   0.745
64091W        W35762   2.465   9.257  10.525
64092W        W35763   4.982   0.761  11.409
64093W        W35764   9.623   0.001   0.931
64094W        W35765  18.850  44.401   3.655
64095W        W35766   2.263  44.571  12.052
64096W        W35767  11.606  11.487   3.645
64097W        W35768  35.583  33.135   3.368
64098W        W35769  17.316  23.981  11.943
64099W        W35770  43.873  32.519  13.253
64100W        W35771  35.366  11.316  10.645
64101W        W35772  11.861  11.110  14.385
64102W        W35773  12.836  32.695   3.077
64103W        W35774  38.400  29.008   1.185
64104W        W35775   6.967  10.134   3.328
64105W        W35776  29.217  18.048  12.599
64106W        W35777  18.593   6.301   3.842
64107W        W35778  21.474  28.017   0.778
64108W        W35779   5.616  16.904  13.427
64109W        W35780  15.518   5.722  13.104
64110W        W35781  43.409  10.319   1.304
64111W        W35782  11.457   9.322  12.429
64112W        W35783  27.356  43.478  13.543
64113W        W35784  27.667   3.412   2.921
64114W        W35785  41.875  23.840   4.636
64115W        W35786  34.133  21.180   0.536
64116W        W35787  24.995  29.509   3.540
64117W        W35788   4.166  12.017   2.363
64118W        W35789  27.083  19.650   1.210
64119W        W35790  22.097  33.813   0.430
64120W        W35791  19.775  38.522   3.319
64121W        W35792  11.540  38.078   2.249
64122W        W35793   0.915  33.642   2.684
64123W        W35794   1.399  22.665  10.154
64124W        W35795   1.780  18.976  13.372
64125W        W35796   5.257  33.828   4.196
64126W        W35797  22.086  22.615   3.153
64127W        W35798   6.734  13.651  11.596
64128W        W35799  44.077  13.595  11.723
64129W        W35800   3.718  20.994   2.715
64130W        W35801   6.924  31.620   4.273
64131W        W35802  44.004  10.843   1.860
64132W        W35803   4.729  13.961  12.946
64133W        W35804   8.195   5.984   4.012
64134W        W35805   6.270   4.145   0.383
64135W        W35806  19.553  36.304  12.025
64136W        W35807  37.411   6.899  14.718
64137W        W35808  37.010  24.856  11.466
64138W        W35809  42.181  22.747  10.783
64139W        W35810  41.513  12.364   1.412
64140W        W35811  26.338  26.074  12.134
64141W        W35812  40.338   7.760  11.742
64142W        W35813  24.582   4.322   4.605
64143W        W35814  41.261  44.015   4.635
64144W        W35815  29.461  16.169   0.352
64145W        W35816  12.134  22.327   3.360
64146W        W35817  43.107  30.414  11.003
64147W        W35818  43.454  25.991   0.766
64148W        W35819  10.080  10.171   0.093
64149W        W35820  38.347  21.159  13.462
64150W        W35821  11.646  15.612  10.814
64151W        W35822  23.566  26.011   0.815
64152W        W35823  44.949  39.053  12.410
64153W        W35824  19.028  20.068  10.536
64154W        W35825  27.335  42.229  14.953
64155W        W35826  11.055   0.992  13.979
64156W        W35827  35.970  39.663   1.722
64157W        W35828  43.926  21.015  11.223
64158W        W35829  37.944  27.120   0.347
64159W        W35830  39.801  20.750   0.158
64160W        W35831   0.907   4.208   3.727
64161W        W35832  40.388  42.246   1.270
64162W        W35833   5.834   9.338  10.969
64163W        W35834  38.982  22.629   0.415
64164W        W35835  16.225   8.748   1.820
64165W        W35836   5.732  12.092   1.427
64166W        W35837  24.035  37.896  12.419
64167W        W35838  15.597   4.821  13.554
64168W        W35839  33.956   2.033  11.040
64169W        W35840  33.181  23.554  14.027
64170W        W35841  18.483  23.955   3.621
64171W        W35842  36.557  33.323  11.034
64172W        W35843  13.196  23.299   3.045
64173W        W35844  39.013  10.631  10.588
64174W        W35845  24.910  17.159   3.205
64175W        W35846  31.557  29.658  11.990
64176W        W35847  19.255  24.188  11.601
64177W        W35848  32.499  21.444  14.058
64178W        W35849  23.236   6.277   3.100
64179W        W35850   0.465  25.039  11.399
64180W        W35851  15.383   9.017  12.569
64181W        W35852  43.299  33.513  13.335
64182W        W35853  12.343   5.475   3.694
64183W        W35854  20.694  18.185  10.724
64184W        W35855  22.972  44.344  12.861
64185W        W35856   6.727  15.360  13.790
64186W        W35857  44.005  26.427  13.481
64187W        W35858  21.413   7.714  14.329
64188W        W35859  38.458  31.245   3.593
64189W        W35860  40.567   0.136  12.519
64190W        W35861  44.517   2.644   0.106
64191W        W35862   0.647  40.594  14.890
64192W        W35863  36.094  28.936  12.161
64193W        W35864  17.529  43.883   0.815
64194W        W35865   1.700   9.225  14.041
64195W        W35866  26.611  14.268  12.699
64196W        W35867  24.093   0.544   2.327
64197W        W35868   4.914  35.388  14.795
64198W        W35869   5.480  10.591   4.067
64199W        W35870  10.245  41.515  11.502
64200W        W35871   4.288   3.825  13.924
64201W        W35872  12.755  10.411   3.758
64202W        W35873  34.066   8.552   0.280
64203W        W35874  42.636  15.768   3.303
64204W        W35875   5.768  16.676  13.856
64205W        W35876  15.338  30.188   4.267
64206W        W35877  17.571   0.422   0.878
64207W        W35878  15.333  13.641   3.825
64208W        W35879  13.810  26.253  11.619
64209W        W35880  16.083   2.661   4.307
64210W        W35881  41.910  14.077  14.852
64211W        W35882   3.735  18.404  13.592
64212W        W35883  14.754  32.839   2.405
64213W        W35884  33.870  38.276   2.898
64214W        W35885   6.804  36.589   4.134
64215W        W35886  14.680  23.417  11.567
64216W        W35887   8.776   0.433  12.802
64217W        W35888   6.809   0.043   1.677
64218W        W35889  14.635  40.146  11.451
64219W        W35890  14.909  22.428  11.513
64220W        W35891   6.640  23.248   4.196
64221W        W35892   1.893  36.074   1.844
64222W        W35893   2.700  15.603   2.889
64223W        W35894  22.323  44.943  14.069
64224W        W35895   2.303   7.826  13.854
64225W        W35896  19.244  43.013  11.291
64226W        W35897  34.265  14.058   3.709
64227W        W35898  31.932  29.936   1.631
64228W        W35899   2.303  24.931   3.677
64229W        W35900   6.788  38.542  12.976
64230W        W35901   1.611  37.436   1.182
64231W        W35902  40.941  44.089  12.964
64232W        W35903   8.186  25.690  13.654
64233W        W35904  34.696  22.628   5.074
64234W        W35905  13.750  30.517   2.967
64235W        W35906   0.919  29.815   2.169
64236W        W35907  42.094  29.988  12.590
64237W        W35908   2.516  11.746   1.844
64238W        W35909  17.735   1.749  11.168
64239W        W35910  19.585  34.890   0.937
64240W        W35911  27.569  19.024  10.822
64241W        W35912  25.006  35.540  12.901
64242W        W35913  21.143  42.698   1.872
64243W        W35914  39.413  31.531  10.366
64244W        W35915  19.565  36.108   0.224
64245W        W35916  20.701  24.153  13.356
64246W        W35917  35.978  32.390   2.426
64247W        W35918  23.571  41.072  11.372
64248W        W35919  43.523  10.861  11.711
64249W        W35920   3.947  39.938  11.058
64250W        W35921  33.971  37.446  12.615
64251W        W35922   2.295  32.214   3.652
64252W        W35923   2.286   8.937  12.431
64253W        W35924   1.652  17.724  10.648
64254W        W35925  13.636   7.634   3.366
64255W        W35926  21.668  36.967  14.512
64256W        W35927   1.572  30.923   1.105
64257W        W35928  32.540  31.404  11.053
64258W        W35929  11.101  15.189   1.723
64259W        W35930   4.726   1.023   0.284
64260W        W35931  36.555  32.532   1.203
64261W        W35932  17.042  41.683   2.360
64262W        W35933  39.340  39.302  12.185
64263W        W35934   8.303  16.583   3.159
64264W        W35935  31.128  18.104  10.600
64265W        W35936  33.830  44.706   2.563
64266W        W35937   9.405   2.153  14.392
64267W        W35938  17.528  21.681  10.819
64268W        W35939  16.052  19.286   4.763
64269W        W35940   8.656  35.381  13.515
64270W        W35941  11.935   4.987  11.329
64271W        W35942   4.223  36.371   3.284
64272W        W35943  12.076   5.449   4.155
64273W        W35944  37.456  35.339  12.441
64274W        W35945   4.447   6.500   0.133
64275W        W35946  22.898   1.330   2.240
64276W        W35947   0.739  14.242  10.615
64277W        W35948  24.073  35.076  12.032
64278W        W35949  36.369  14.670   1.534
64279W        W35950   3.974  36.113   3.691
64280W        W35951  44.289  42.832  14.289
64281W        W35952  28.224   6.226   2.168
64282W        W35953  41.503  24.201  12.933
64283W        W35954  40.517  30.414   3.633
64284W        W35955  43.095  30.829   5.137
64285W        W35956   6.652  38.422   2.727
64286W        W35957  33.291  23.232  13.308
64287W        W35958  41.374  25.898  11.573
64288W        W35959  19.889  44.928   2.623
64289W        W35960  38.053  35.164  13.472
64290W        W35961  24.142  12.243   4.864
64291W        W35962  38.811  43.551  12.584
64292W        W35963   4.025  33.153   1.422
64293W        W35964  24.960  41.933   2.838
64294W        W35965  31.436   6.737  10.862
64295W        W35966  17.596  29.689  12.577
64296W        W35967  21.494  20.041  14.822
64297W        W35968  38.686   4.758  10.514
64298W        W35969  10.221  14.035  10.659
64299W        W35970  17.133  28.671  10.559
64300W        W35971  38.265  34.897   1.863
64301W        W35972  39.091  34.792   3.583
64302W        W35973  43.028   8.362  11.951
64303W        W35974  27.856  18.967  12.048
64304W        W35975   7.513   4.251   1.187
64305W        W35976  37.012  43.487   2.879
64306W        W35977  17.529  19.288  14.798
64307W        W35978  32.273  22.479   5.071
64308W        W35979  42.829   2.967  13.869
64309W        W35980  12.213  31.129  14.032
64310W        W35981   7.919  33.198  14.428
64311W        W35982  14.373   0.496   4.102
64312W        W35983  17.636  42.703  11.601
64313W        W35984   3.802  19.319   4.762
64314W        W35985  12.355  27.132   0.330
64315W        W35986   1.760  37.966   3.084
64316W        W35987  33.509   7.683  13.879
64317W        W35988  42.027  23.292  14.491
64318W        W35989   1.795  39.515  13.470
64319W        W35990   7.696  16.146  14.846
64320W        W35991  17.993   0.439  10.510
64321W        W35992  35.903   0.367  14.870
64322W        W35993   5.876  15.552   2.039
64323W        W35994  40.996  25.312   4.068
64324W        W35995  34.085  19.187  11.172
64325W        W35996  26.019  28.486   3.886
64326W        W35997  25.666  14.057  13.517
64327W        W35998  16.780  40.076   0.321
64328W        W35999  19.358  35.067  13.319
64329W        W36000  33.644  29.217  10.326
64330W        W36001   1.001   6.919   0.417
64331W        W36002  18.868  38.100  14.834
64332W        W36003   4.970   1.920   2.508
64333W        W36004  22.476  23.527   4.267
64334W        W36005  27.685  27.905  10.275
64335W        W36006  18.979  14.762   1.316
64336W        W36007  43.305  20.548  11.826
64337W        W36008  44.931  14.362  12.563
64338W        W36009  36.602  35.144  13.950
64339W        W36010  39.616   9.199   4.231
64340W        W36011   9.660  26.503   2.285
64341W        W36012  34.989   4.492  14.622
64342W        W36013  38.586  22.999   0.486
64343W        W36014   1.757  17.676   2.444
64344W        W36015   0.718   5.759   5.134
64345W        W36016   8.133  36.864  13.406
64346W        W36017  19.295  18.820  10.968
64347W        W36018  44.251  39.874   4.597
64348W        W36019  12.778  31.226  12.160
64349W        W36020  21.003  17.782   0.402
64350W        W36021   6.971  24.500  12.083
64351W        W36022  17.619   8.220   2.604
64352W        W36023  19.620  10.742   3.222
64353W        W36024  28.971  43.972  12.024
64354W        W36025  16.279  43.376   0.874
64355W        W36026  22.539  18.823  11.599
64356W        W36027  44.968   5.792  12.524
64357W        W36028  41.948   3.347   0.065
64358W        W36029  31.716  30.528  13.901
64359W        W36030  12.356  24.018  11.121
64360W        W36031  32.046  10.730  10.802
64361W        W36032  13.687  24.598   1.454
64362W        W36033   0.332  25.638   2.687
64363W        W36034  40.872  42.075   2.205
64364W        W36035  27.456  25.722   1.503
64365W        W36036  10.193  17.249  10.368
64366W        W36037  15.588  12.591   2.166
64367W        W36038  13.959  39.585  11.031
64368W        W36039  21.699   4.290  12.042
64369W        W36040  12.134  39.603  12.743
64370W        W36041  13.852  22.759  11.562
64371W        W36042   9.664  35.888   0.952
64372W        W36043  14.008  35.377  12.141
64373W        W36044  19.641  44.372  12.109
64374W        W36045  32.291   2.305  12.328
64375W        W36046  36.081  41.390   2.625
64376W        W36047  43.018   5.995   5.070
64377W        W36048   3.359  10.206  12.812
64378W        W36049  38.967  34.231  11.547
64379W        W36050   9.635  43.171  12.582
64380W        W36051  22.667  40.888   1.528
64381W        W36052   3.834  15.797  14.476
64382W        W36053  15.532  13.046   2.464
64383W        W36054  41.050  30.856  12.523
64384W        W36055   0.194  21.552   0.258
64385W        W36056   4.771  31.172   2.759
64386W        W36057   8.787  43.141   4.253
64387W        W36058  22.354  36.354  13.440
64388W        W36059   7.654  41.434  14.201
64389W        W36060   3.282   5.409  11.945
64390W        W36061   8.450  13.679  12.204
64391W        W36062   8.172   5.513  12.601
64392W        W36063  34.600  29.108   4.175
64393W        W36064  22.660  37.616  10.668
64394W        W36065  43.810  39.743  14.711
64395W        W36066  37.351  31.440  10.712
64396W        W36067  16.282  25.731  12.412
64397W        W36068  20.544  23.268  12.541
64398W        W36069  28.948  24.247  11.514
64399W        W36070   8.997   6.681  10.837
64400W        W36071   6.700   7.137   2.569
64401W        W36072  31.013  33.058   3.248
64402W        W36073  21.001   7.439   2.539
64403W        W36074  37.772  44.293   0.445
64404W        W36075  24.035  22.142   0.221
64405W        W36076   1.070  22.193  12.023
64406W        W36077   4.365   7.185  10.909
64407W        W36078  43.987  41.452  12.368
64408W        W36079  25.682  35.142  12.527
64409W        W36080  14.129   9.692  11.639
64410W        W36081  13.124  36.907   0.825
64411W        W36082  21.054  17.160   0.786
64412W        W36083  33.110  18.646  14.522
64413W        W36084  18.696  11.076   3.705
64414W        W36085  39.330  40.503  13.910
64415W        W36086   6.672  28.550  11.116
64416W        W36087  29.006  14.214   4.573
64417W        W36088  30.005  27.597   2.728
64418W        W36089  36.817  16.899  14.275
64419W        W36090  39.772  42.058   1.241
64420W        W36091  14.312   4.977   3.281
64421W        W36092   0.975  32.514   2.304
64422W        W36093  28.631  27.077  12.929
64423W        W36094  18.803  43.556   2.077
64424W        W36095   0.991  21.667   0.461
64425W        W36096  13.291  15.880  13.861
64426W        W36097  44.545   9.256   4.669
64427W        W36098  39.003   4.824   2.292
64428W        W36099  23.651  26.087   3.765
64429W        W36100  37.808  43.193   3.253
64430W        W36101  14.338  40.545   1.346
64431W        W36102  20.321   5.811   0.412
64432W        W36103   3.170  40.832   2.866
64433W        W36104   2.786  17.779   2.189
64434W        W36105   2.703  34.906   2.878
64435W        W36106  25.554  11.251   2.673
64436W        W36107   8.493  10.447  14.956
64437W        W36108  34.296  19.530   0.942
64438W        W36109   0.365   5.684   3.297
64439W        W36110  43.827  28.080   2.691
64440W        W36111  21.529  43.085  14.954
64441W        W36112   2.252  43.027   2.721
64442W        W36113  35.549  31.355   3.254
64443W        W36114   3.395  33.913   2.097
64444W        W36115  31.800  40.928  10.833
64445W        W36116  32.380  14.524   3.561
64446W        W36117  31.746  34.835   4.408
64447W        W36118  25.556  19.705   1.101
64448W        W36119  37.911  29.692   2.887
64449W        W36120  10.305   5.987  13.978
64450W        W36121  15.437  17.562   0.108
64451W        W36122  22.098  28.420   1.175
64452W        W36123  21.147  36.979   3.763
64453W        W36124  19.024  15.647  12.854
64454W        W36125  33.951  20.803   1.798
64455W        W36126   5.407  44.876  11.659
64456W        W36127  32.762  44.371  12.485
64457W        W36128   5.481  19.300   3.570
64458W        W36129  23.073  18.579  12.857
64459W        W36130  12.419   0.353  12.513
64460W        W36131  40.835  34.230   1.705
64461W        W36132  21.029  35.815   2.401
64462W        W36133   2.929  10.093  13.084
64463W        W36134  22.277  12.103   0.774
64464W        W36135  26.248  23.515   4.577
64465W        W36136  23.395  44.104  14.726
64466W        W36137  38.480  11.450   3.175
64467W        W36138  34.872  16.162  14.524
64468W        W36139  13.205   8.740  12.912
64469W        W36140  27.187  14.650   1.136
64470W        W36141  24.445  21.770   3.242
64471W        W36142  29.454  27.449   2.197
64472W        W36143  29.053  18.135  11.770
64473W        W36144  25.828   5.583   2.964
64474W        W36145  42.053   5.913   2.185
64475W        W36146   8.635  38.903  14.469
64476W        W36147  16.687  42.422  12.937
64477W        W36148  34.421  35.806  13.507
64478W        W36149  29.912  27.986  14.096
64479W        W36150  21.278   1.251  11.282
64480W        W36151  11.367  37.665  14.240
64481W        W36152  34.969  33.238   1.296
64482W        W36153  11.074  41.062   2.138
64483W        W36154  26.252  39.965  10.721
64484W        W36155  29.467  36.538  13.953
64485W        W36156  16.739   8.070   2.466
64486W        W36157  32.486   6.887   0.360
64487W        W36158  29.164   4.215  12.483
64488W        W36159  23.536  31.603  12.580
64489W        W36160  31.426  43.853  14.940
64490W        W36161  26.057  20.292   2.590
64491W        W36162  27.910  10.789  13.333
64492W        W36163  20.706  27.357   0.957
64493W        W36164  13.256  21.545   4.556
64494W        W36165   7.527  27.909  12.575
64495W        W36166  23.046  42.907   3.179
64496W        W36167   9.632  25.023   1.921
64497W        W36168  43.401  27.156   1.911
64498W        W36169  32.932  41.922   0.559
64499W        W36170  33.422   9.666  14.854
64500W        W36171  23.007   5.989  10.724
64501W        W36172  37.272  18.349  11.127
64502W        W36173  11.931  35.503  11.949
64503W        W36174  21.491  20.595   3.060
64504W        W36175  25.235  42.508   2.147
64505W        W36176  39.978  38.648  10.971
64506W        W36177  38.443   3.782   4.834
64507W        W36178   2.640  43.092  11.067
64508W        W36179  39.104  32.439  14.405
64509W        W36180   4.109  12.538   2.370
64510W        W36181  24.750  38.958  13.710
64511W        W36182  28.696   7.790  11.191
64512W        W36183  29.194  33.307  11.506
64513W        W36184  37.850   4.785  13.346
64514W        W36185  29.819   6.240   1.211
64515W        W36186  26.548   1.468   3.218
64516W        W36187  25.486  34.790   0.880
64517W        W36188  37.400  29.015   4.128
64518W        W36189  31.347  39.961   4.847
64519W        W36190   1.918  17.625  11.075
64520W        W36191   6.696  16.782   4.631
64521W        W36192  11.568  27.717   2.157
64522W        W36193  27.974  11.459  12.602
64523W        W36194  37.687   3.692   3.628
64524W        W36195  19.704  20.104   1.695
64525W        W36196   5.927  17.971  10.739
64526W        W36197  11.293  26.472   3.400
64527W        W36198  14.306  42.295  12.131
64528W        W36199  27.776  11.344  12.022
64529W        W36200  35.839   3.749  13.421
64530W        W36201   1.858  16.439   4.080
64531W        W36202  36.466  37.552  11.098
64532W        W36203  21.049  38.752   5.210
64533W        W36204  35.772  16.023  14.051
64534W        W36205  37.312  10.615  10.737
64535W        W36206  41.119  29.386   1.942
64536W        W36207   6.816   5.258   4.579
64537W        W36208  16.776  38.869  13.380
64538W        W36209  23.470  29.434  12.938
64539W        W36210  33.939  43.911   3.209
64540W        W36211  44.229  30.736   2.413
64541W        W36212  29.490  35.894   4.951
64542W        W36213  43.252  38.887   1.979
64543W        W36214   0.728   3.179  12.901
64544W        W36215  23.198  10.597  13.415
64545W        W36216  16.530  35.862   2.346
64546W        W36217  26.962  30.929   3.198
64547W        W36218   8.338  40.450   1.415
64548W        W36219  17.927  25.582  14.463
64549W        W36220  15.470  29.592   1.428
64550W        W36221  10.025  41.443   2.814
64551W        W36222  32.371  21.731   3.688
64552W        W36223   1.963  36.055   4.104
64553W        W36224  36.537  36.977  12.019
64554W        W36225   1.236  33.423  13.414
64555W        W36226   6.990  33.145   2.173
64556W        W36227   4.912  22.218   0.827
64557W        W36228   5.723  21.527   2.126
64558W        W36229  15.568  36.041   2.157
64559W        W36230  20.831  28.355  11.479
64560W        W36231  36.099   1.287   0.036
64561W        W36232   1.710  34.175   4.135
64562W        W36233  27.048  40.386  14.891
64563W        W36234  20.654  16.543   1.016
64564W        W36235  36.615  25.583  13.348
64565W        W36236  41.259  35.406  11.166
64566W        W36237   2.421  29.395  13.935
64567W        W36238  23.664  44.949   4.439
64568W        W36239  38.386   7.430   1.751
64569W        W36240  26.578  21.168   3.177
64570W        W36241  14.373   7.341   1.937
64571W        W36242  33.013  23.956  12.763
64572W        W36243   1.196  24.946   1.228
64573W        W36244  44.339  22.792  13.361
64574W        W36245  39.660  24.998   4.874
64575W        W36246  29.091  37.574   4.259
64576W        W36247  38.340  26.052  12.895
64577W        W36248  18.145  28.721   1.351
64578W        W36249  14.208  37.803   0.743
64579W        W36250  31.001  41.592   0.200
64580W        W36251  34.682  30.480   2.780
64581W        W36252  28.415  19.751  13.336
64582W        W36253  43.255  24.035  12.310
64583W        W36254  41.824  10.422   4.034
64584W        W36255  34.608  29.611  10.936
64585W        W36256  21.226   2.409  11.104
64586W        W36257  16.331  10.431   4.277
64587W        W36258  19.796  16.181  14.926
64588W        W36259  13.599  39.885  14.318
64589W        W36260  10.742  14.589   3.355
64590W        W36261  21.731  19.069  10.653
64591W        W36262  42.517  17.731  13.572
64592W        W36263  40.166  23.712  13.372
64593W        W36264   9.459   3.132   1.465
64594W        W36265  32.187  20.417  14.502
64595W        W36266   5.893  11.347   3.188
64596W        W36267  24.720  35.435   4.525
64597W        W36268  40.850  43.055  12.942
64598W        W36269  37.037  32.374   1.858
64599W        W36270   0.711   8.293   2.723
64600W        W36271  35.770  26.791  11.531
64601W        W36272  24.002  42.776  14.928
64602W        W36273  17.314  19.666  10.587
64603W        W36274   3.965  22.059  11.214
64604W        W36275  27.646   2.834   1.186
64605W        W36276  15.942  37.867   0.314
64606W        W36277  44.583  27.343   1.758
64607W        W36278  43.517  21.784   4.108
64608W        W36279  10.199  30.264   4.642
64609W        W36280  11.777  37.277   2.352
64610W        W36281  14.906  38.027   4.672
64611W        W36282  26.948   3.261  11.172
64612W        W36283   1.310  16.764   0.495
64613W        W36284  27.473  43.409  10.856
64614W        W36285  13.715  17.322  14.341
64615W        W36286  26.457   3.143  12.114
64616W        W36287  32.336  34.487  14.038
64617W        W36288  26.641   7.891  11.518
64618W        W36289  40.598  25.924   1.821
64619W        W36290  44.115  32.496  12.253
64620W        W36291  12.376  40.515  13.359
64621W        W36292  33.501  20.913   1.997
64622W        W36293  22.788  12.110  14.825
64623W        W36294   9.642  25.515  12.548
64624W        W36295  28.704  23.253  11.511
64625W        W36296  11.738  41.699   2.672
64626W        W36297   3.449   6.054  12.968
64627W        W36298  23.732  11.815   1.358
64628W        W36299   1.823  39.969  13.796
64629W        W36300   7.893  19.118   0.314
64630W        W36301  41.423   8.897   3.256
64631W        W36302  18.262  25.111  11.063
64632W        W36303  22.592  17.524   1.685
64633W        W36304  16.168  23.013  14.874
64634W        W36305   2.154  34.591  12.938
64635W        W36306   2.945  11.648  14.834
64636W        W36307  38.590  34.048   0.396
64637W        W36308  41.440  24.452  12.440
64638W        W36309  44.696  32.094   3.780
64639W        W36310   8.517   1.928  14.127
64640W        W36311   5.948  43.851  10.371
64641W        W36312   9.322  26.691   1.559
64642W        W36313  36.435  42.687   4.721
64643W        W36314   8.098  27.145   1.654
64644W        W36315  42.330   0.760  10.534
64645W        W36316   1.458   1.247   4.606
64646W        W36317   5.157  38.542   4.709
64647W        W36318  33.665  28.125  14.398
64648W        W36319  33.570  42.770  10.602
64649W        W36320  10.456  36.948  14.361
64650W        W36321  34.488  31.612  13.746
64651W        W36322  34.427  43.382  12.278
64652W        W36323  13.591  24.093   0.713
64653W        W36324  10.322  42.277  13.277
64654W        W36325   9.883  15.327  10.341
64655W        W36326   2.336   4.159   1.751
64656W        W36327   0.102  32.893   2.917
64657W        W36328  33.412   8.372  12.059
64658W        W36329  30.457  31.153  14.303
64659W        W36330  34.064  25.594   0.131
64660W        W36331  42.545  16.776  11.105
64661W        W36332   6.461   8.369   3.750
64662W        W36333  29.492   3.479  12.878
64663W        W36334  12.391  44.467  14.228
64664W        W36335   1.721  22.301   5.224
64665W        W36336  17.708  39.861   1.327
64666W        W36337  29.037  34.105  12.022
64667W        W36338   3.319  21.361   5.266
64668W        W36339  24.758   0.315   2.815
64669W        W36340  14.117  43.470  14.300
64670W        W36341   1.307  23.180   2.793
64671W        W36342  30.997  25.812   0.909
64672W        W36343  27.898  16.869   1.302
64673W        W36344  38.464   2.219   0.598
64674W        W36345  16.785   6.600   2.594
64675W        W36346  13.719  42.880   0.585
64676W        W36347  16.388  26.388   4.871
64677W        W36348  15.786  38.557   0.208
64678W        W36349  40.374  27.171   4.239
64679W        W36350  24.303  36.400   4.115
64680W        W36351  25.625  20.948   4.278
64681W        W36352  37.537  11.686  12.961
64682W        W36353   5.285  38.064   3.349
64683W        W36354  37.041  39.627   0.174
64684W        W36355  22.177  30.594   2.269
64685W        W36356   5.211  11.583   1.959
64686W        W36357  37.384  30.186   1.254
64687W        W36358  32.942  25.967  11.980
64688W        W36359   9.851  23.700  14.030
64689W        W36360  37.491  40.762  11.523
64690W        W36361  31.708  24.926  14.526
64691W        W36362  14.428  24.563  12.036
64692W        W36363   5.071   0.105  14.428
64693W        W36364   5.092   9.876   0.974
64694W        W36365   9.918  26.111  14.952
64695W        W36366  39.603   8.798  13.984
64696W        W36367  20.285  11.997   5.067
64697W        W36368  20.570  37.539  14.363
64698W        W36369  42.110  22.268   2.602
64699W        W36370  23.506  38.949  13.396
64700W        W36371  14.850  30.571  13.369
64701W        W36372  30.222  14.832  11.141
64702W        W36373   3.200   7.126   3.847
64703W        W36374   6.738  24.746  12.999
64704W        W36375   8.107  24.543  12.944
64705W        W36376  13.701  27.411   4.864
64706W        W36377   2.184  23.035  12.043
64707W        W36378  41.564  35.662  11.516
64708W        W36379  40.410  41.929  13.420
64709W        W36380  37.509   5.863   2.771
64710W        W36381  30.939  24.333   2.905
64711W        W36382  16.264  30.445  12.069
64712W        W36383  18.247  18.099   2.241
64713W        W36384  36.730  36.654   3.924
64714W        W36385  14.193   3.851  14.868
64715W        W36386  27.732  32.953   2.381
64716W        W36387  15.765  28.695   0.303
64717W        W36388  34.463  32.102  12.860
64718W        W36389   0.418  14.290   2.649
64719W        W36390  17.057   4.582   4.603
64720W        W36391  32.068  14.379  13.863
64721W        W36392   3.522   0.727   4.947
64722W        W36393  21.532  30.719   1.723
64723W        W36394  19.668   3.928   0.881
64724W        W36395  19.696  34.559   3.762
64725W        W36396  15.408  11.262  11.672
64726W        W36397  29.104  42.432  10.643
64727W        W36398  22.700  44.975   2.851
64728W        W36399  10.695  37.870  10.644
64729W        W36400  42.824  42.122   4.516
64730W        W36401   5.866  12.611  14.236
64731W        W36402  27.079  22.151   3.264
64732W        W36403   2.442   8.292  11.627
64733W        W36404  32.521  11.269  14.881
64734W        W36405   2.389  30.610   1.440
64735W        W36406   0.791  12.122  13.498
64736W        W36407  32.980  14.105   1.287
64737W        W36408  16.292  23.716  13.581
64738W        W36409   5.647  15.125   2.806
64739W        W36410  23.563   0.728   3.199
64740W        W36411  23.980  24.271  13.814
64741W        W36412  39.829   1.862  11.576
64742W        W36413  20.063  44.964  11.502
64743W        W36414  35.523  39.499  10.727
64744W        W36415   8.257  29.985   0.928
64745W        W36416  21.667   0.255  10.591
64746W        W36417  13.121  20.557   2.389
64747W        W36418  15.851  37.917   1.925
64748W        W36419   1.297  33.358   2.929
64749W        W36420  29.080  34.021  14.499
64750W        W36421  31.314   6.239   0.436
64751W        W36422  39.593  21.209  13.945
64752W        W36423  23.591  18.511   0.688
64753W        W36424  19.749  16.145  12.022
64754W        W36425  40.586  29.164  13.326
64755W        W36426   4.671  34.421   3.777
64756W        W36427  44.996  44.723  14.573
64757W        W36428  34.762  31.993   5.051
64758W        W36429   9.728  24.491  11.555
64759W        W36430  42.430  12.345   0.001
64760W        W36431  43.846  41.992  14.421
64761W        W36432  43.737  16.182  13.976
64762W        W36433  39.263  20.166   4.657
64763W        W36434  21.658   1.482  13.034
64764W        W36435  15.158   4.397   3.332
64765W        W36436  33.438   5.167  12.431
64766W        W36437  35.487  30.471  10.716
64767W        W36438  17.604  44.824  11.212
64768W        W36439  30.311  36.823   1.889
64769W        W36440   3.325  26.443   4.170
64770W        W36441  34.459  20.734  13.283
64771W        W36442  35.971   7.671  13.008
64772W        W36443  15.769   2.670   4.743
64773W        W36444   0.607  31.618  11.993
64774W        W36445   0.763  15.582   1.502
64775W        W36446  24.725  36.701   4.128
64776W        W36447  34.523  19.473  12.823
64777W        W36448  42.773   6.948   3.853
64778W        W36449  43.043  22.773   3.429
64779W        W36450   9.757  32.355   4.733
64780W        W36451  20.085  18.015   1.343
64781W        W36452  18.595   3.351  14.709
64782W        W36453  39.078  38.878  12.386
64783W        W36454  29.242   5.284  11.495
64784W        W36455  10.347  20.162  12.315
64785W        W36456  15.257  18.192  14.523
64786W        W36457  34.640   7.754  14.958
64787W        W36458   8.215   1.093   2.275
64788W        W36459   0.550  14.863  12.130
64789W        W36460   3.848  37.025  12.958
64790W        W36461  44.715  19.535  11.544
64791W        W36462  22.418  15.561   2.832
64792W        W36463  23.866  19.284  14.136
64793W        W36464  17.880  14.102  14.518
64794W        W36465  18.335   6.279  10.825
64795W        W36466  10.194  23.133   0.503
64796W        W36467  16.310   8.571  12.066
64797W        W36468  39.576  43.862  12.606
64798W        W36469  34.436  21.139  10.884
64799W        W36470   0.823  20.301  10.811
64800W        W36471  10.611  23.615   1.454
64801W        W36472  18.729  16.090   2.321
64802W        W36473  33.138   5.237   0.365
64803W        W36474  11.793   2.593   2.796
64804W        W36475  38.834  32.049   4.179
64805W        W36476  31.116   6.948  12.038
64806W        W36477  36.355   6.347  11.854
64807W        W36478  17.151   6.980  14.824
64808W        W36479  11.855   0.019  13.044
64809W        W36480  22.935  14.613  12.092
64810W        W36481  34.842  16.280   0.020
64811W        W36482  25.424   3.988  13.540
64812W        W36483  33.163  41.154   4.229
64813W        W36484  12.843   5.864  13.615
64814W        W36485  13.220  44.341   4.157
64815W        W36486  31.254  37.033  11.108
64816W        W36487  33.961  40.598   2.330
64817W        W36488   4.688  44.506   3.652
64818W        W36489  34.901  40.845  14.854
64819W        W36490  39.126   2.816   0.184
64820W        W36491  30.442  29.456   4.627
64821W        W36492   7.990  35.737   5.101
64822W        W36493  36.453   4.236   1.802
64823W        W36494  11.891  22.271  12.301
64824W        W36495  24.091  34.964   2.371
64825W        W36496  14.077  35.924  14.957
64826W        W36497  28.303  33.604   3.336
64827W        W36498  38.300  42.223  12.595
64828W        W36499  25.550  26.163   0.401
64829W        W36500   0.792  23.196   3.972
64830W        W36501  30.825  18.358  12.780
64831W        W36502  39.901   3.604   3.569
64832W        W36503  17.854  41.341   3.411
64833W        W36504  39.432   0.888   2.801
64834W        W36505  26.599   2.066   1.260
64835W        W36506  30.894  13.386   4.646
64836W        W36507  35.400  28.020   0.846
64837W        W36508  23.227   2.276  11.198
64838W        W36509   8.933  42.306   1.340
64839W        W36510   8.727   7.963   0.798
64840W        W36511   5.984  44.278  12.880
64841W        W36512  13.222  10.433   4.671
64842W        W36513   3.301  34.190  14.282
64843W        W36514  11.545  13.620  10.437
64844W        W36515  27.013  22.488  14.478
64845W        W36516  30.642  15.427  11.499
64846W        W36517  15.577  40.873  13.356
64847W        W36518  31.994  27.219   1.300
64848W        W36519  10.867  11.162  14.436
64849W        W36520  32.172   9.596   2.384
64850W        W36521   5.845  11.430  12.385
64851W        W36522  16.254   7.238   9.779
64852W        W36523  24.592  38.967  14.224
64853W        W36524  14.254   7.133  11.755
64854W        W36525   8.786  15.202  12.991
64855W        W36526  22.626   5.835   1.945
64856W        W36527  11.224  37.893  10.651
64857W        W36528  31.862   9.776  11.194
64858W        W36529  39.554  44.634  10.989
64859W        W36530  23.713  41.500   2.454
64860W        W36531  37.039  30.005   4.549
64861W        W36532  10.197  24.095  14.568
64862W        W36533   7.394   4.989   0.859
64863W        W36534   2.446  32.494   2.301
64864W        W36535  30.913   2.816  11.292
64865W        W36536  32.319   1.838  13.082
64866W        W36537   0.890  40.101  12.389
64867W        W36538   4.427  36.556  11.044
64868W        W36539  31.802  36.363   1.175
64869W        W36540  27.894  18.339   2.591
64870W        W36541  21.540   2.871   2.816
64871W        W36542   7.595   9.295   3.629
64872W        W36543  38.494   0.158   1.883
64873W        W36544  30.230  24.636   0.269
64874W        W36545  20.849  42.151   0.018
64875W        W36546  33.495   4.670   3.687
64876W        W36547  41.901  13.566  14.905
64877W        W36548  41.414  16.076   1.358
64878W        W36549  29.861   6.964   1.723
64879W        W36550  18.959  33.497  12.154
64880W        W36551  19.211  26.722   1.976
64881W        W36552  15.330   4.657  12.113
64882W        W36553  19.586  32.941   0.061
64883W        W36554  16.706  26.142  11.897
64884W        W36555  18.591  26.933  12.679
64885W        W36556  24.005   3.038   1.280
64886W        W36557  43.628   6.459  12.568
64887W        W36558  14.671   2.987   1.135
64888W        W36559  10.663  29.187   3.180
64889W        W36560  32.130  20.748  14.084
64890W        W36561  32.841  30.201  14.857
64891W        W36562   9.242  25.971  11.147
64892W        W36563  38.329  41.375  11.141
64893W        W36564  10.242  25.137   2.174
64894W        W36565  35.542   6.683   2.967
64895W        W36566  20.608   3.045   0.262
64896W        W36567  30.577  34.720  12.469
64897W        W36568  33.836  33.006   3.911
64898W        W36569  12.424  18.131  11.056
64899W        W36570  16.615  40.147  10.631
64900W        W36571  17.081  22.342   4.260
64901W        W36572  44.162  24.039   3.709
64902W        W36573  24.290  31.912   4.510
64903W        W36574  13.406  11.492   3.304
64904W        W36575  37.538  11.727  13.492
64905W        W36576  40.204  15.541   3.272
64906W        W36577  13.963  22.662   0.401
64907W        W36578   8.588  20.577   4.490
64908W        W36579  23.662   0.271  13.018
64909W        W36580  38.920   1.994   2.790
64910W        W36581   4.857  28.696   4.139
64911W        W36582  21.655   3.475  11.259
64912W        W36583  18.756  18.433  11.519
64913W        W36584   2.187  23.182   1.696
64914W        W36585  15.222   0.583  10.893
64915W        W36586  20.542  19.787  13.105
64916W        W36587  14.831   2.319  12.326
64917W        W36588   2.400  30.920   2.288
64918W        W36589  30.755   3.627   1.775
64919W        W36590  12.724  18.299   4.118
64920W        W36591   0.876  28.865   3.097
64921W        W36592  42.861  25.126  13.051
64922W        W36593   1.264  41.560   3.250
64923W        W36594  39.111  22.271  11.595
64924W        W36595  10.788  41.940   2.880
64925W        W36596  29.573  20.999   9.845
64926W        W36597  19.548  20.995   3.757
64927W        W36598  18.069   1.768   2.836
64928W        W36599  23.893   8.220  14.344
64929W        W36600  34.603  26.454  12.175
64930W        W36601   3.515  24.938   4.273
64931W        W36602   4.320  40.130  14.386
64932W        W36603  32.383   8.465   4.449
64933W        W36604   6.970   1.923   0.476
64934W        W36605   9.447  21.592  14.416
64935W        W36606   7.880  19.803  13.771
64936W        W36607   8.146  19.138  13.882
64937W        W36608  21.669  39.913  11.003
64938W        W36609   9.803   7.582  11.066
64939W        W36610  34.525  43.404  11.266
64940W        W36611  39.960  11.631   1.350
64941W        W36612   8.331  38.279   4.577
64942W        W36613  38.133  38.010  14.263
64943W        W36614  17.606  30.515  10.859
64944W        W36615  29.411  23.706   1.387
64945W        W36616  22.510   5.850   4.366
64946W        W36617   9.606  22.824  11.930
64947W        W36618   5.356  13.217   1.397
64948W        W36619  40.209  40.518  10.651
64949W        W36620   7.365  27.788   2.300
64950W        W36621  31.351  24.533  14.438
64951W        W36622  31.159  25.141  12.479
64952W        W36623  15.170  15.236  13.719
64953W        W36624  21.255   7.700   4.786
64954W        W36625  29.538   2.959   2.981
64955W        W36626  10.575   4.499  11.153
64956W        W36627  25.003   7.357  11.969
64957W        W36628  12.153  24.791   2.264
64958W        W36629  10.916  44.010  13.435
64959W        W36630  27.182  16.743   3.824
64960W        W36631  15.813  17.239   0.863
64961W        W36632   1.154  43.322  11.871
64962W        W36633  34.102   0.299   4.098
64963W        W36634  38.013   3.183  12.878
64964W        W36635  10.317   6.342  14.345
64965W        W36636  28.191   6.251   5.489
64966W        W36637  25.391  13.992  14.998
64967W        W36638  42.891  42.061  14.271
64968W        W36639  16.554   0.802  12.855
64969W        W36640  29.041  31.905   3.726
64970W        W36641  22.256  12.873  10.647
64971W        W36642  33.539  11.684   3.937
64972W        W36643   9.333  26.769  14.051
64973W        W36644  14.061  33.887  13.270
64974W        W36645  11.123  27.416  14.451
64975W        W36646   2.419  34.505   5.045
64976W        W36647  39.870  18.748   0.864
64977W        W36648   3.933  43.008   3.202
64978W        W36649  32.163   1.642  11.437
64979W        W36650  17.778  13.607   3.551
64980W        W36651   8.646   8.933   4.181
64981W        W36652  32.887  31.021  13.512
64982W        W36653  11.370  14.684   1.146
64983W        W36654  28.458  11.245  12.523
64984W        W36655  32.726  37.331   4.404
64985W        W36656  23.689  11.701  10.762
64986W        W36657   4.164  44.110  12.744
64987W        W36658  30.991   4.287  11.309
64988W        W36659  24.406  44.216  14.902
64989W        W36660  38.496   3.411   3.174
64990W        W36661  44.726  12.422   2.022
64991W        W36662   8.334   4.017  11.120
64992W        W36663  40.298  11.256  11.622
64993W        W36664  31.438   4.404  11.547
64994W        W36665  37.380   0.911  14.790
64995W        W36666  30.236  22.741  10.554
64996W        W36667  24.151   7.173  11.682
64997W        W36668  44.234   8.405   4.968
64998W        W36669  43.573   7.705   2.442
64999W        W36670  40.946   6.218   1.799
65000W        W36671  11.264  35.411   1.902
65001W        W36672   0.019  42.290   2.507
65002W        W36673   5.966  37.283   2.655
65003W        W36674   9.173  20.102  12.432
65004W        W36675   1.664  27.100  11.991
65005W        W36676  10.165  37.768  12.399
65006W        W36677  27.650   0.393   4.623
65007W        W36678  22.335  21.495   0.021
65008W        W36679  13.661  35.288   3.920
65009W        W36680  23.749  39.820   2.719
65010W        W36681  37.920  23.039  11.054
65011W        W36682  43.409  39.127  10.315
65012W        W36683  13.583  11.655   1.883
65013W        W36684  28.868  38.767  14.983
65014W        W36685  38.305  28.990  13.331
65015W        W36686   8.247  22.615   4.957
65016W        W36687   1.344  22.560   4.985
65017W        W36688  11.495  25.302   3.260
65018W        W36689  33.083   6.372  13.954
65019W        W36690  20.788  11.401   4.429
65020W        W36691  36.549  34.109   2.773
65021W        W36692  35.516  10.031   1.135
65022W        W36693  18.242   4.407   0.390
65023W        W36694  26.875  28.512  13.112
65024W        W36695  41.285  10.296   1.301
65025W        W36696  15.658  31.800  14.439
65026W        W36697  44.828   3.280   2.770
65027W        W36698  11.251  44.197   1.898
65028W        W36699  27.677  16.698  12.160
65029W        W36700   8.367  13.074   1.234
65030W        W36701  30.908   7.967  14.835
65031W        W36702   3.708  20.529   4.151
65032W        W36703   1.787  17.239   3.653
65033W        W36704  34.660  35.382  11.946
65034W        W36705   8.806   1.510  14.836
65035W        W36706  43.402  27.498   0.757
65036W        W36707  16.297  33.341  14.089
65037W        W36708   7.559  11.927  10.259
65038W        W36709   1.524  19.584   4.129
65039W        W36710  12.786  23.116  14.259
65040W        W36711  13.383  28.061   1.729
65041W        W36712   3.508  31.549  10.685
65042W        W36713  15.466  38.782   2.823
65043W        W36714  11.135  25.568  12.510
65044W        W36715  30.376  27.350   3.751
65045W        W36716  35.371  23.502  14.884
65046W        W36717   8.793  28.019   4.898
65047W        W36718  17.673  21.307   3.715
65048W        W36719   6.759   5.977   0.477
65049W        W36720  18.685  26.053  10.698
65050W        W36721  17.643  12.287  13.344
65051W        W36722  25.982  15.557   0.905
65052W        W36723  19.534   1.423   3.315
65053W        W36724  38.594  36.639   1.969
65054W        W36725  21.895   7.888   1.450
65055W        W36726  11.728  26.873   0.069
65056W        W36727  33.492  37.135  12.977
65057W        W36728  10.387  35.446   3.598
65058W        W36729  25.736  20.326  10.561
65059W        W36730  18.587   5.795   4.902
65060W        W36731  25.631  21.052  13.759
65061W        W36732  35.955  37.081   5.017
65062W        W36733   8.440  16.974  13.409
65063W        W36734  21.062  27.238  13.786
65064W        W36735  40.465  17.312  13.633
65065W        W36736   1.420  24.189   3.900
65066W        W36737  11.443  28.721  13.908
65067W        W36738  38.231   3.358  14.437
65068W        W36739  35.541  29.141  13.857
65069W        W36740  40.072  11.434   4.124
65070W        W36741  24.506  11.213  10.848
65071W        W36742  34.469  25.586  13.427
65072W        W36743   7.703  29.791  13.995
65073W        W36744  24.021  10.236  14.867
65074W        W36745  25.039   5.696  14.407
65075W        W36746  29.503   5.487   4.502
65076W        W36747  41.822  43.846  11.919
65077W        W36748  29.158   5.478  13.832
65078W        W36749   5.864  18.023   0.841
65079W        W36750  42.399  44.931  12.600
65080W        W36751   7.971   3.746   3.548
65081W        W36752  36.164  18.159  13.482
65082W        W36753  10.031  40.313   2.924
65083W        W36754  39.019  24.598  11.816
65084W        W36755  23.305  19.207  10.644
65085W        W36756  36.095  19.202   4.278
65086W        W36757  20.779  41.058   2.717
65087W        W36758  17.229  43.983  14.884
65088W        W36759  29.613   9.015  12.656
65089W        W36760  16.157   0.658  12.291
65090W        W36761  22.427  40.201  11.978
65091W        W36762  37.098  25.500   1.740
65092W        W36763  34.566  29.577   3.593
65093W        W36764  30.477  24.440   0.699
65094W        W36765  32.830  18.437   1.902
65095W        W36766  28.144  23.004   4.704
65096W        W36767  13.222   6.858  13.972
65097W        W36768  33.414   9.984   0.246
65098W        W36769  13.031  15.672  12.478
65099W        W36770   0.803  44.135  11.644
65100W        W36771  34.497  26.996   4.686
65101W        W36772  38.445  15.892   0.397
65102W        W36773  30.148  26.855  11.154
65103W        W36774  30.887   8.217   0.654
65104W        W36775   9.282  16.921   3.402
65105W        W36776  44.723  12.187   5.434
65106W        W36777   8.190  28.921   2.658
65107W        W36778  24.524  39.423   3.312
65108W        W36779  15.294  15.493   3.286
65109W        W36780   1.198  24.193  10.734
65110W        W36781  12.335  21.549   1.682
65111W        W36782  37.900  31.396  14.162
65112W        W36783  20.182  27.019  12.837
65113W        W36784  28.543  40.556   4.142
65114W        W36785  10.865  13.564  14.784
65115W        W36786  22.673  30.966  10.202
65116W        W36787  19.122  23.058   0.331
65117W        W36788  11.106  24.446   1.658
65118W        W36789   0.382  17.047   0.905
65119W        W36790  38.064  15.096  13.988
65120W        W36791  27.337  43.414  14.055
65121W        W36792  38.773  13.233   4.663
65122W        W36793   0.265   8.095  13.907
65123W        W36794   5.051  29.777  11.078
65124W        W36795  18.843   6.863  12.090
65125W        W36796  29.602  38.697   3.479
65126W        W36797  26.214   0.323   3.658
65127W        W36798  14.312  26.428   4.199
65128W        W36799  29.697  25.544   2.016
65129W        W36800   9.311  33.671   0.254
65130W        W36801  31.205  43.580  11.170
65131W        W36802  31.350   9.345  10.596
65132W        W36803  11.321  26.687  13.828
65133W        W36804  33.901  22.272  10.559
65134W        W36805  20.055  12.869   1.887
65135W        W36806  16.821  25.265   1.295
65136W        W36807  20.917  16.002  10.691
65137W        W36808  42.900   6.318  14.788
65138W        W36809  36.896  20.603   1.835
65139W        W36810  12.021   0.295  13.457
65140W        W36811  43.927  12.223   2.530
65141W        W36812  23.479  14.268  11.233
65142W        W36813   0.048  23.243  12.985
65143W        W36814   0.493  23.980  11.194
65144W        W36815  28.071  41.913   3.254
65145W        W36816  34.910  12.139  12.899
65146W        W36817  24.750  29.968  12.039
65147W        W36818  32.953  26.917  14.560
65148W        W36819  43.374  30.085  11.656
65149W        W36820  25.598  35.164   4.118
65150W        W36821  35.362  30.367  12.156
65151W        W36822  41.869  25.151   4.118
65152W        W36823  16.780  37.556   2.662
65153W        W36824   6.251  41.893  13.265
65154W        W36825  10.857  29.417  10.729
65155W        W36826  31.642  32.324   2.243
65156W        W36827  23.142  38.925   0.992
65157W        W36828  12.216  43.692   0.315
65158W        W36829   7.763  15.982   1.140
65159W        W36830  32.199  35.078   3.092
65160W        W36831   7.977  43.523   4.196
65161W        W36832  10.202  33.286  13.962
65162W        W36833  31.143  27.205  11.617
65163W        W36834  17.640  28.489   3.065
65164W        W36835  19.736   4.689   1.346
65165W        W36836  17.918  10.131  10.188
65166W        W36837  43.949  24.258   9.725
65167W        W36838  10.356   8.358  11.131
65168W        W36839  27.616  28.491   0.143
65169W        W36840  27.617   6.221  12.413
65170W        W36841  35.859   5.732  12.538
65171W        W36842  38.944  15.355  14.870
65172W        W36843  39.588   3.976  10.314
65173W        W36844  28.649  34.184   1.729
65174W        W36845  33.918  14.511   4.323
65175W        W36846  11.161   0.743   4.763
65176W        W36847  38.788  31.423   2.124
65177W        W36848  30.559  39.631   3.786
65178W        W36849  13.358   1.453   3.438
65179W        W36850  33.237  16.912  11.105
65180W        W36851  26.410  32.020  10.497
65181W        W36852  42.395   6.341  10.461
65182W        W36853  36.638  13.359  10.963
65183W        W36854  43.253  27.619   1.222
65184W        W36855  28.073  10.237   1.231
65185W        W36856   2.331  27.649   4.220
65186W        W36857  27.730  42.408  14.674
65187W        W36858  22.120  34.529  14.772
65188W        W36859  35.631  44.004  12.509
65189W        W36860   0.378  31.154  11.964
65190W        W36861  29.296   8.358  11.379
65191W        W36862  40.246  14.643   5.074
65192W        W36863  14.580  37.365  11.247
65193W        W36864   5.876  21.559   0.825
65194W        W36865  35.951   0.057   1.274
65195W        W36866   9.229  31.557  14.934
65196W        W36867  39.786  16.368  14.181
65197W        W36868  31.444   2.914   4.972
65198W        W36869   9.456  36.945  12.278
65199W        W36870  25.551  22.030  14.474
65200W        W36871  12.773  24.495  14.028
65201W        W36872  28.193  11.256   0.394
65202W        W36873  30.227  21.570  11.274
65203W        W36874  43.343   7.867   3.386
65204W        W36875   1.476  21.285  13.004
65205W        W36876  10.164  14.373  14.554
65206W        W36877  39.958  24.570   3.364
65207W        W36878  42.245  23.512  11.167
65208W        W36879  38.802  25.239  13.398
65209W        W36880  18.564  25.271   4.515
65210W        W36881   5.667  36.456  10.814
65211W        W36882  17.838  21.421  12.289
65212W        W36883  36.459  29.894  13.084
65213W        W36884  33.005  38.929  11.555
65214W        W36885  38.055  18.287   2.667
65215W        W36886  22.090   7.307  13.238
65216W        W36887   7.441  30.582  12.980
65217W        W36888  23.583  40.941   0.921
65218W        W36889  27.897  25.017   4.543
65219W        W36890  34.454  32.527  13.796
65220W        W36891  17.488  28.636  10.924
65221W        W36892  43.962  39.028   3.181
65222W        W36893  40.120  41.019  13.305
65223W        W36894   9.349   6.355   4.369
65224W        W36895   4.383  37.021  12.726
65225W        W36896   8.818   1.126   0.194
65226W        W36897   1.330  12.674   2.962
65227W        W36898  16.163  37.903  10.877
65228W        W36899  31.643   4.395  10.688
65229W        W36900  17.236  28.935  10.134
65230W        W36901  12.226   4.444   1.729
65231W        W36902  34.197  41.449  12.874
65232W        W36903  30.862  37.389   1.551
65233W        W36904  16.688  39.541   4.702
65234W        W36905  30.849  40.670   5.151
65235W        W36906  38.955  42.813  13.357
65236W        W36907  27.254   0.942  14.964
65237W        W36908  20.562  23.013  12.086
65238W        W36909  14.684  28.670   4.673
65239W        W36910  38.905  11.136   1.454
65240W        W36911  18.201   6.590   2.532
65241W        W36912  35.912   3.423  11.193
65242W        W36913  12.940  11.633   5.043
65243W        W36914  18.275   3.818  12.671
65244W        W36915  11.708  34.564   0.474
65245W        W36916  17.205   2.215   1.372
65246W        W36917   2.713   9.234  14.824
65247W        W36918  18.041  32.387  10.709
65248W        W36919  34.666  42.266   0.390
65249W        W36920  24.763   3.407  12.968
65250W        W36921   3.388  15.317  14.008
65251W        W36922  39.081  30.930   4.570
65252W        W36923  15.797  44.784  11.552
65253W        W36924  26.141  26.042  11.187
65254W        W36925   8.035  35.242  11.908
65255W        W36926  23.070   3.208   2.440
65256W        W36927  40.681   5.835  11.767
65257W        W36928   5.532  35.985  12.095
65258W        W36929   5.439  29.482  14.254
65259W        W36930  24.075  36.393   2.791
65260W        W36931  15.038  13.103  14.792
65261W        W36932  12.706  10.413  12.874
65262W        W36933  14.462   7.334   3.595
65263W        W36934  23.085   1.702   0.321
65264W        W36935  11.485  35.924   4.127
65265W        W36936   3.199   9.967  11.840
65266W        W36937  21.528  18.029  12.012
65267W        W36938  11.240   2.030  14.429
65268W        W36939  34.614  14.286   1.826
65269W        W36940  13.977  36.890  11.043
65270W        W36941  36.976  27.216  12.043
65271W        W36942  35.399  31.326  14.308
65272W        W36943  18.670  23.500  13.606
65273W        W36944   6.873  12.431   3.339
65274W        W36945   9.802   8.120   0.985
65275W        W36946   8.461  22.584  11.275
65276W        W36947  28.552   7.201   2.151
65277W        W36948  15.206  38.369   4.942
65278W        W36949  39.884  39.526  10.520
65279W        W36950   9.142   1.502   1.551
65280W        W36951  43.417  36.516   0.945
65281W        W36952  43.612   4.546   1.762
65282W        W36953  35.090  15.274  10.724
65283W        W36954  38.553   4.728   1.240
65284W        W36955   0.481   7.114  11.185
65285W        W36956  38.512  32.599   1.182
65286W        W36957   8.096  36.369   2.844
65287W        W36958  36.960  39.551  10.475
65288W        W36959   7.297  41.055   4.782
65289W        W36960  18.793  16.942   4.288
65290W        W36961   0.309  42.510   1.649
65291W        W36962  13.494   2.833   0.968
65292W        W36963  32.132   6.288   1.880
65293W        W36964  17.651  15.851   0.594
65294W        W36965  30.470   8.784   3.530
65295W        W36966  17.011  14.238  14.397
65296W        W36967  25.700  26.669   4.104
65297W        W36968  40.595  43.054   3.869
65298W        W36969  35.452   9.828   4.144
65299W        W36970  19.144  26.092   3.750
65300W        W36971  32.371  37.621  13.320
65301W        W36972  27.232  43.935   0.493
65302W        W36973  26.587  37.046   1.276
65303W        W36974  40.822  34.658  13.099
65304W        W36975   5.147  37.982  14.206
65305W        W36976  38.495  26.253   3.522
65306W        W36977  14.414  39.471   4.451
65307W        W36978  33.912  13.590   1.823
65308W        W36979   6.271   4.665  13.502
65309W        W36980  20.035  16.310  14.393
65310W        W36981  15.293   3.394  14.621
65311W        W36982  21.622  18.549  14.774
65312W        W36983  12.012  22.178   1.366
65313W        W36984   6.635  31.105   2.501
65314W        W36985   9.732  32.953   4.047
65315W        W36986   7.435   4.530  11.205
65316W        W36987  28.601  39.123  13.414
65317W        W36988  30.041   5.457  13.037
65318W        W36989   4.850   3.721   1.010
65319W        W36990  27.648  16.105  10.497
65320W        W36991  13.797  25.665   0.119
65321W        W36992  28.695  30.351  13.383
65322W        W36993  34.453  11.339  11.164
65323W        W36994  18.220  27.470   0.855
65324W        W36995  17.339  36.670   0.225
65325W        W36996  17.399  16.623  11.205
65326W        W36997  32.854  30.142  13.160
65327W        W36998  23.536  24.582  14.975
65328W        W36999  35.937   4.112  12.928
65329W        W37000  39.329  29.039  13.291
65330W        W37001   9.815  39.417   0.579
65331W        W37002  40.525  22.533  12.872
65332W        W37003  32.199   4.751  10.944
65333W        W37004   6.669  33.502  14.944
65334W        W37005  41.001  40.262   2.692
65335W        W37006  39.708   4.956   3.972
65336W        W37007  12.834   9.051  14.781
65337W        W37008  42.232  42.019  13.490
65338W        W37009   9.763  13.596  14.392
65339W        W37010  35.832  34.435  11.062
65340W        W37011  40.305  18.676   1.152
65341W        W37012   0.150   0.035   3.849
65342W        W37013  31.495  28.160   4.132
65343W        W37014  20.257   6.494   1.413
65344W        W37015  28.015  22.704   4.166
65345W        W37016   0.977  15.587  13.106
65346W        W37017  29.577  35.060  14.478
65347W        W37018  38.402  37.864  13.536
65348W        W37019  12.721  30.857   0.887
65349W        W37020   8.220  32.517  12.233
65350W        W37021  17.106  44.364   1.230
65351W        W37022   0.789  32.966   3.520
65352W        W37023  30.022  10.612  10.570
65353W        W37024   6.138  11.833  12.315
65354W        W37025  30.544  23.034   0.830
65355W        W37026  30.110   6.284  14.898
65356W        W37027  42.619  40.998  10.756
65357W        W37028  35.889  17.898   4.200
65358W        W37029  17.045  44.921   3.691
65359W        W37030  44.708   8.773  13.367
65360W        W37031  13.835   3.470  14.928
65361W        W37032  26.246   4.781   3.241
65362W        W37033  11.047  35.065  11.070
65363W        W37034   3.669  11.437   4.204
65364W        W37035   0.393  13.441   4.356
65365W        W37036  33.351  15.347  12.468
65366W        W37037  31.619   4.805   4.325
65367W        W37038  43.313  42.232   3.177
65368W        W37039  13.149   3.323  14.867
65369W        W37040   1.704  31.069   3.364
65370W        W37041  22.521  10.125   2.208
65371W        W37042  15.089  13.089  12.481
65372W        W37043  37.144  19.623  14.888
65373W        W37044  26.649  38.036   3.980
65374W        W37045  19.097  20.200  11.490
65375W        W37046  41.510  14.999  11.468
65376W        W37047  12.669   6.978   3.813
65377W        W37048  42.429  20.231   1.095
65378W        W37049  17.851  18.566   1.462
65379W        W37050  26.957  18.014  11.567
65380W        W37051  33.774   3.325  12.698
65381W        W37052  43.299  13.283  12.903
65382W        W37053  29.540  20.775  14.280
65383W        W37054  13.894  15.766  13.386
65384W        W37055  16.613  43.642   4.085
65385W        W37056  39.328  44.784  10.550
65386W        W37057   6.486  24.702   2.253
65387W        W37058  15.509  39.623  13.917
65388W        W37059  16.278   7.979   1.210
65389W        W37060  39.577  21.512  14.823
65390W        W37061  19.564  27.967   3.762
65391W        W37062  22.011  16.813   4.560
65392W        W37063  44.872  11.230   5.446
65393W        W37064  40.329   8.499   4.902
65394W        W37065   4.207   5.703  12.077
65395W        W37066   9.887  18.529   0.447
65396W        W37067  29.708   3.974   2.849
65397W        W37068   5.009   8.641  12.079
65398W        W37069   4.167   5.866   1.811
65399W        W37070  42.492  43.379  12.033
65400W        W37071  13.161  21.727  11.829
65401W        W37072  23.505  37.772  12.466
65402W        W37073   6.738  31.374   2.912
65403W        W37074   7.883  35.468   2.693
65404W        W37075   7.594  27.024  11.131
65405W        W37076  18.976  31.794   1.186
65406W        W37077  41.952  29.540   0.725
65407W        W37078  34.621   5.111  13.882
65408W        W37079   9.833  11.138   2.938
65409W        W37080  33.304   6.668  10.226
65410W        W37081  17.048  14.188   2.869
65411W        W37082  15.029   4.801   0.454
65412W        W37083  18.626  27.240   2.005
65413W        W37084   8.898  34.068  14.955
65414W        W37085  17.365   3.233   1.546
65415W        W37086  42.713   3.218  11.360
65416W        W37087  41.962  31.000  13.690
65417W        W37088  20.058  23.061   1.351
65418W        W37089  41.765  32.044   1.900
65419W        W37090   9.246  23.443  14.546
65420W        W37091  26.527  35.645   0.464
65421W        W37092  44.649  16.530  13.842
65422W        W37093  31.626   8.272  13.434
65423W        W37094  10.828  38.389  12.397
65424W        W37095  21.665  41.836   0.511
65425W        W37096  39.751  35.295  11.449
65426W        W37097  28.779  29.918   1.004
65427W        W37098  25.813  14.551   1.191
65428W        W37099   8.356  38.783  10.446
65429W        W37100  26.919  35.243   2.719
65430W        W37101   8.154  30.035  12.862
65431W        W37102   0.458   4.684  11.958
65432W        W37103  21.165  43.963   2.303
65433W        W37104  14.922  21.071   0.844
65434W        W37105   0.726   6.339   1.041
65435W        W37106  21.139  44.730   3.680
65436W        W37107  34.992  11.107   0.952
65437W        W37108  31.535  28.504   2.184
65438W        W37109  21.618   2.997  14.548
65439W        W37110  25.832  43.569  13.310
65440W        W37111  37.567   4.781   1.728
65441W        W37112  17.304  21.317  11.972
65442W        W37113  17.668  37.514   0.001
65443W        W37114   3.827  17.806  14.440
65444W        W37115  10.409  37.820   0.489
65445W        W37116  14.757   1.234  13.136
65446W        W37117  34.032   0.019   1.601
65447W        W37118  22.418  18.727   3.191
65448W        W37119  36.559  43.509   3.674
65449W        W37120  13.606  24.678  14.149
65450W        W37121  12.876  31.459  13.112
65451W        W37122   3.097  27.799  11.161
65452W        W37123   6.715   2.915   0.517
65453W        W37124  27.033   8.481  13.961
65454W        W37125  35.152  44.802  14.402
65455W        W37126  37.858  17.520   3.096
65456W        W37127   0.360  30.841  10.636
65457W        W37128  27.507  41.929   3.402
65458W        W37129   4.313  15.565  14.521
65459W        W37130  33.322  44.406  11.588
65460W        W37131  34.069  28.200  13.092
65461W        W37132  11.627  14.607   4.771
65462W        W37133  24.021  34.933   0.545
65463W        W37134  28.986  42.837  13.032
65464W        W37135  24.158  35.164   1.393
65465W        W37136   1.536  25.436  14.425
65466W        W37137  14.153  16.716   0.415
65467W        W37138   7.868  25.238  10.647
65468W        W37139  24.043  35.669  14.989
65469W        W37140  32.374   1.885  13.988
65470W        W37141   5.845  17.203  11.052
65471W        W37142  30.862  13.699  14.520
65472W        W37143  30.866  24.188  14.856
65473W        W37144  13.690   1.443  12.040
65474W        W37145  10.746   9.802   3.268
65475W        W37146   8.381  11.417  12.543
65476W        W37147  17.500  38.003   4.347
65477W        W37148  10.802   0.237  14.478
65478W        W37149  15.560   0.669   0.021
65479W        W37150  26.062  29.668   1.831
65480W        W37151  19.361  40.725  13.128
65481W        W37152  20.214  22.269  11.003
65482W        W37153   8.953  13.657   3.484
65483W        W37154  33.483   4.273   4.486
65484W        W37155  24.426  14.750   4.235
65485W        W37156  13.200  32.012   3.757
65486W        W37157  23.185  29.562   3.606
65487W        W37158   4.892  32.412   2.160
65488W        W37159  19.888  28.547  12.934
65489W        W37160  19.704   6.460   3.698
65490W        W37161  11.680  25.549   2.836
65491W        W37162  11.463  11.372  12.056
65492W        W37163   6.938  16.752   1.138
65493W        W37164   8.289  27.447   3.004
65494W        W37165   6.197  24.184   3.572
65495W        W37166  43.252  26.132  11.507
65496W        W37167  40.939  24.294   4.110
65497W        W37168   6.028  40.061   1.853
65498W        W37169  37.542  21.354   1.958
65499W        W37170  35.047  16.310   4.005
65500W        W37171  33.502  36.541   0.193
65501W        W37172   4.313  14.736   1.878
65502W        W37173  33.537   5.659  14.848
65503W        W37174   1.821  40.487   4.148
65504W        W37175  44.907  42.819   4.647
65505W        W37176   0.782  44.264   3.609
65506W        W37177  32.110  41.171   2.764
65507W        W37178  27.021  39.009   3.387
65508W        W37179  15.104  33.597   2.007
65509W        W37180  38.807  21.709  12.007
65510W        W37181  10.298   3.346  11.570
65511W        W37182  27.138  40.247   3.354
65512W        W37183  43.832  20.062   2.219
65513W        W37184  35.462   5.182  14.976
65514W        W37185  12.247  34.592   4.706
65515W        W37186  30.423  17.174  13.952
65516W        W37187  17.850  38.622   3.283
65517W        W37188  20.097   8.024  12.433
65518W        W37189   4.653  14.714   0.332
65519W        W37190  16.728  11.575  11.214
65520W        W37191  33.994  14.378  12.921
65521W        W37192  30.881  20.247  13.331
65522W        W37193  20.710  43.729  10.950
65523W        W37194  12.201  26.941  12.798
65524W        W37195  18.665  38.108   0.654
65525W        W37196  32.446  31.577  11.523
65526W        W37197  18.001  13.619  12.545
65527W        W37198  38.884   5.424  14.019
65528W        W37199  23.698  38.921   0.299
65529W        W37200  13.892  29.132  11.406
65530W        W37201  12.859  31.456   1.656
65531W        W37202   1.991   9.745  13.749
65532W        W37203   6.703  15.116   0.874
65533W        W37204   5.315   8.195  11.021
65534W        W37205  13.316   9.076   2.778
65535W        W37206  26.706  25.070  12.043
65536W        W37207  41.700  42.017   5.369
65537W        W37208   9.764  34.530   3.539
65538W        W37209  29.563  29.264   2.205
65539W        W37210   3.596  21.853   3.821
65540W        W37211  40.407   4.054  13.902
65541W        W37212  19.579  28.038   2.427
65542W        W37213  37.422  34.076  13.506
65543W        W37214  40.512  25.790   4.649
65544W        W37215  40.055  26.392  10.585
65545W        W37216  31.684  14.269  12.506
65546W        W37217  15.122  30.582   0.450
65547W        W37218  28.350   7.818   0.007
65548W        W37219  14.741  25.448   4.740
65549W        W37220   3.899  23.454   2.211
65550W        W37221  41.043  10.197   0.208
65551W        W37222  18.556  14.151   2.690
65552W        W37223  31.488  38.478   0.795
65553W        W37224  28.329   2.859  13.227
65554W        W37225   6.287   6.268  13.596
65555W        W37226  43.967   0.268   1.601
65556W        W37227  12.067  37.492   4.792
65557W        W37228  33.797  11.205   3.858
65558W        W37229  32.687   1.481  13.917
65559W        W37230  15.075  18.659  13.312
65560W        W37231  18.284   0.845  11.905
65561W        W37232  22.076   3.786  11.424
65562W        W37233  19.291  36.650  12.476
65563W        W37234  28.687  12.538  13.345
65564W        W37235  39.109  24.399  14.544
65565W        W37236   6.108   7.401   5.033
65566W        W37237  38.766  32.019   5.078
65567W        W37238   7.772   4.767  11.560
65568W        W37239   8.988  19.245   3.982
65569W        W37240  40.024   9.264  12.985
65570W        W37241  36.719  39.860  12.629
65571W        W37242  40.909  37.665   4.499
65572W        W37243   9.334  12.197  11.346
65573W        W37244   9.871   8.132   3.193
65574W        W37245  39.506  27.374  12.354
65575W        W37246  22.177  10.043  11.202
65576W        W37247  28.522  38.130   0.864
65577W        W37248  17.735  41.822  13.323
65578W        W37249  27.939  29.683   3.674
65579W        W37250  20.101  12.315   3.757
65580W        W37251   0.943  29.638  11.611
65581W        W37252  18.591  14.664  10.613
65582W        W37253   3.958  26.641  12.011
65583W        W37254  30.126  39.064  14.060
65584W        W37255  31.140   0.818   4.402
65585W        W37256   9.067  32.688   1.388
65586W        W37257  34.906  28.076  13.071
65587W        W37258  37.079  17.381  11.458
65588W        W37259  10.247  22.207  14.045
65589W        W37260   0.835  35.640   2.296
65590W        W37261  12.869  27.579  14.781
65591W        W37262   3.810   9.698   0.317
65592W        W37263  29.693  27.507   1.711
65593W        W37264  42.766  28.642  10.701
65594W        W37265  44.295  37.455  14.565
65595W        W37266  30.957  10.840  13.939
65596W        W37267  32.104  31.431   0.847
65597W        W37268  15.741  34.846   2.767
65598W        W37269  14.050  36.473  10.708
65599W        W37270  39.055  14.559  14.562
65600W        W37271  10.377  10.818  13.004
65601W        W37272  20.095   5.945  12.207
65602W        W37273  14.229  19.566   3.848
65603W        W37274  15.843  24.464  13.462
65604W        W37275  43.068  35.418  12.429
65605W        W37276  29.378  38.396  10.660
65606W        W37277  21.875  20.143   1.523
65607W        W37278  36.079  29.664   2.890
65608W        W37279  34.906  38.879   3.640
65609W        W37280  23.536  15.127  12.155
65610W        W37281  10.147  12.995  10.543
65611W        W37282  44.479  31.460  10.619
65612W        W37283  33.469   3.927   0.469
65613W        W37284  25.412  30.025   4.033
65614W        W37285  34.339  20.151   2.869
65615W        W37286  36.911   0.861  10.470
65616W        W37287  25.989   5.237  14.429
65617W        W37288  21.824  26.124  10.153
65618W        W37289  44.984  12.267   4.602
65619W        W37290   2.589  17.679   2.661
65620W        W37291  23.189  17.061   3.272
65621W        W37292  10.817  31.488   1.816
65622W        W37293   1.436  37.011   4.609
65623W        W37294  27.044  11.932  11.106
65624W        W37295  19.271   0.737   4.120
65625W        W37296   3.144   9.817  13.594
65626W        W37297  34.532   7.234   0.984
65627W        W37298  40.955  24.005   1.859
65628W        W37299  41.566  27.149   1.928
65629W        W37300  40.022  36.398  12.923
65630W        W37301  15.620   0.925   0.461
65631W        W37302  13.634  31.938  11.363
65632W        W37303  28.319  25.463   0.413
65633W        W37304  41.118  11.293  12.225
65634W        W37305  28.965  37.342  11.939
65635W        W37306  15.877  16.052  10.670
65636W        W37307  12.735  26.850  13.995
65637W        W37308  12.284  26.563  13.868
65638W        W37309  39.895  22.145   0.425
65639W        W37310  28.943  22.012  14.793
65640W        W37311  15.306  11.541   0.005
65641W        W37312   0.186  29.432   1.762
65642W        W37313  17.369   2.805   0.707
65643W        W37314  28.910   1.770   4.626
65644W        W37315  25.216  42.367   3.665
65645W        W37316  32.670  16.297   2.789
65646W        W37317  35.183   5.322  12.042
65647W        W37318  36.639  24.381  12.234
65648W        W37319  24.702  37.902  10.970
65649W        W37320  43.193  42.480   0.782
65650W        W37321  33.595  23.852  14.152
65651W        W37322  22.079  29.468  13.549
65652W        W37323  38.855  16.054  11.061
65653W        W37324  41.067  27.838   3.288
65654W        W37325  14.156   7.772  12.949
65655W        W37326   5.701  43.872   4.329
65656W        W37327  40.851  26.578   2.720
65657W        W37328   0.246  27.854   1.702
65658W        W37329  36.121  37.844   4.565
65659W        W37330  34.829  16.793   3.867
65660W        W37331  22.319  36.829   1.552
65661W        W37332   3.329  18.242  11.455
65662W        W37333  28.903  34.515   2.629
65663W        W37334  37.067  30.153   1.682
65664W        W37335  31.173  27.886  13.919
65665W        W37336  10.223  18.647  12.113
65666W        W37337  23.281  13.178   1.836
65667W        W37338  43.061  23.635   4.098
65668W        W37339  11.168  44.423   3.081
65669W        W37340  27.476  34.344  12.536
65670W        W37341  14.264  31.643   1.836
65671W        W37342  39.480  10.285   3.942
65672W        W37343   4.371  12.446  11.601
65673W        W37344  18.775  42.772   1.467
65674W        W37345  35.950  10.835   4.583
65675W        W37346   2.241   9.567   2.410
65676W        W37347  33.493   5.681  12.281
65677W        W37348  29.358  43.725  14.560
65678W        W37349  36.205  21.274  14.060
65679W        W37350  13.488  23.278  12.696
65680W        W37351  32.852  38.932  10.663
65681W        W37352  19.538  13.246   2.105
65682W        W37353  32.107  14.100  14.861
65683W        W37354  42.719  33.946  14.752
65684W        W37355  43.574  43.835   0.892
65685W        W37356  30.922  12.317  14.090
65686W        W37357  14.178  43.784  11.894
65687W        W37358  32.130  27.701  13.950
65688W        W37359  11.235   6.835   2.129
65689W        W37360  34.116  35.983   2.248
65690W        W37361  30.190   1.658  12.913
65691W        W37362  28.453  20.733  10.436
65692W        W37363  19.780   9.657  11.933
65693W        W37364  21.756  24.259  12.356
65694W        W37365  29.880   9.883   2.799
65695W        W37366  38.585  39.908  11.103
65696W        W37367  44.766  11.247  11.512
65697W        W37368  37.048  35.913  13.544
65698W        W37369  43.174  19.107   1.729
65699W        W37370   0.959  43.536  10.874
65700W        W37371  26.944  21.200  12.491
65701W        W37372   0.842  28.533  11.318
65702W        W37373   9.392  27.615   4.386
65703W        W37374  27.455  42.605  13.611
65704W        W37375  24.485  28.924   1.364
65705W        W37376  41.428  44.352  13.115
65706W        W37377   6.662  10.540   3.315
65707W        W37378  25.262   2.402  13.653
65708W        W37379   1.622  23.065   0.401
65709W        W37380  43.533  25.707  11.514
65710W        W37381  18.257  16.597   0.283
65711W        W37382  40.255  13.373  13.485
65712W        W37383  28.729  37.694   5.057
65713W        W37384  26.953   8.231  12.460
65714W        W37385  25.511  18.554   2.878
65715W        W37386   3.001  14.841   3.898
65716W        W37387  14.141  38.072   2.052
65717W        W37388  23.761  39.993   2.205
65718W        W37389   4.499  16.652   3.260
65719W        W37390  14.355   6.951   4.783
65720W        W37391  26.773  20.150   1.172
65721W        W37392  29.632  25.687  14.640
65722W        W37393  19.845  10.679  12.030
65723W        W37394  16.296  40.920   4.629
65724W        W37395  18.701  31.570   2.908
65725W        W37396  18.062  23.473   4.054
65726W        W37397   8.672  19.750  14.426
65727W        W37398  34.895  33.075  12.540
65728W        W37399  16.858  40.930  11.711
65729W        W37400  36.984   8.433   2.722
65730W        W37401  16.002  12.280   1.201
65731W        W37402  22.294   9.790   0.186
65732W        W37403  19.795  17.698   1.788
65733W        W37404  44.578  33.935  13.538
65734W        W37405   4.737  23.787   0.136
65735W        W37406   5.244   3.140  12.663
65736W        W37407  28.639   0.532   1.009
65737W        W37408   0.042   8.707  12.549
65738W        W37409   6.223  14.443  12.489
65739W        W37410  31.632   1.854  13.296
65740W        W37411  37.524  19.378  12.102
65741W        W37412  14.290  25.594   1.860
65742W        W37413  29.832  41.979  11.228
65743W        W37414  38.494   8.357  11.617
65744W        W37415   4.309   8.842   0.409
65745W        W37416  32.420  11.724   9.734
65746W        W37417   0.563  15.118   1.410
65747W        W37418  34.446   7.647  14.041
65748W        W37419  44.768   7.275   2.800
65749W        W37420   4.847  18.589   3.709
65750W        W37421  43.192  41.839  13.360
65751W        W37422  34.791  28.387  10.919
65752W        W37423   1.538  24.569  10.655
65753W        W37424   4.829   4.676   1.174
65754W        W37425  13.785  34.496  12.335
65755W        W37426  28.099  37.862   1.072
65756W        W37427  35.905   9.320   2.247
65757W        W37428  35.387  25.080   1.068
65758W        W37429  21.145  17.764  14.530
65759W        W37430  11.270  15.674   4.570
65760W        W37431  22.703  24.587   0.502
65761W        W37432  21.337  42.974  13.309
65762W        W37433  43.255   9.832   1.327
65763W        W37434  39.414  21.156   1.410
65764W        W37435   2.536  41.489  11.557
65765W        W37436  28.071  35.831  10.322
65766W        W37437  17.560  26.620  14.886
65767W        W37438  15.239   5.472   1.899
65768W        W37439  41.308  23.092   4.770
65769W        W37440  25.953  19.032  14.682
65770W        W37441   1.155  34.998   1.737
65771W        W37442  38.784  25.500   2.908
65772W        W37443  31.973  30.942   1.997
65773W        W37444  34.440  39.493   1.643
65774W        W37445  11.838  21.212  12.372
65775W        W37446  31.132  42.383  13.876
65776W        W37447   8.992  18.159   3.352
65777W        W37448  10.678  35.131   0.741
65778W        W37449  19.749   8.828   3.705
65779W        W37450  16.117  36.191  14.888
65780W        W37451   8.750   1.843   2.373
65781W        W37452   2.479   9.761  14.952
65782W        W37453  10.182  44.922  12.012
65783W        W37454  20.776  38.614   1.841
65784W        W37455   4.983  35.288  12.052
65785W        W37456  40.020  23.248  13.612
65786W        W37457   2.767  14.091   3.166
65787W        W37458  34.317  44.948  14.503
65788W        W37459  12.074  22.196  13.138
65789W        W37460   2.899  12.252   0.556
65790W        W37461  38.670   2.174  14.765
65791W        W37462   4.706  12.283  14.557
65792W        W37463  12.306   8.643  11.318
65793W        W37464   1.735   0.222  12.683
65794W        W37465  17.052  40.055  11.969
65795W        W37466  40.928  44.547   0.534
65796W        W37467   1.513   5.199   2.320
65797W        W37468  24.204  28.221  13.042
65798W        W37469  34.697  17.648   4.502
65799W        W37470   4.911  29.435  12.041
65800W        W37471  41.292  39.213  11.275
65801W        W37472  15.965  43.445   1.285
65802W        W37473  21.736   2.132  10.983
65803W        W37474   7.641  22.634   3.413
65804W        W37475  16.095  12.275   3.672
65805W        W37476  28.646  36.687  14.560
65806W        W37477  36.113   1.813   4.762
65807W        W37478  20.518  35.831   2.331
65808W        W37479  24.088  38.912  12.511
65809W        W37480   0.096  22.561   3.090
65810W        W37481  38.598  23.875   2.239
65811W        W37482  25.673  34.408  13.334
65812W        W37483  38.748   7.877  14.149
65813W        W37484   8.139  10.072  14.960
65814W        W37485  11.200  10.184   3.168
65815W        W37486  16.094  41.838  13.341
65816W        W37487  11.892  40.530   3.244
65817W        W37488  11.958  22.196  10.968
65818W        W37489  28.778  42.995   0.348
65819W        W37490  43.821  13.491   0.012
65820W        W37491  22.219  11.425  13.743
65821W        W37492  37.625  30.455  14.505
65822W        W37493  32.836  25.973   3.773
65823W        W37494  29.603  18.588  13.264
65824W        W37495  23.166   2.636  12.147
65825W        W37496  28.960   4.745  10.749
65826W        W37497  40.262  16.633  11.393
65827W        W37498   3.386  41.084  12.098
65828W        W37499   0.928   5.409  14.387
65829W        W37500  37.303  23.185  11.688
65830W        W37501   0.579  15.055  11.539
65831W        W37502  41.365  27.216  10.700
65832W        W37503  18.485  15.631  12.787
65833W        W37504  42.214  33.391  14.042
65834W        W37505  12.877   3.807  13.490
65835W        W37506  38.579  31.598   4.145
65836W        W37507  38.176  13.568   0.371
65837W        W37508  41.675  26.764   1.535
65838W        W37509  28.213   7.712  13.340
65839W        W37510  23.069  17.718   1.729
65840W        W37511  25.987   8.739   1.958
65841W        W37512  28.420  24.213  13.578
65842W        W37513   6.142  13.456  14.512
65843W        W37514  41.803  27.925  11.214
65844W        W37515  25.596  27.222   1.277
65845W        W37516  26.560   4.934   3.667
65846W        W37517  39.289  30.633  13.928
65847W        W37518   3.497  26.952   4.152
65848W        W37519   1.658  35.896  12.455
65849W        W37520  11.739  31.120   1.236
65850W        W37521  23.067  44.993  13.623
65851W        W37522  10.129  38.685  10.551
65852W        W37523   8.197  42.990   1.294
65853W        W37524  22.110   3.825   3.481
65854W        W37525  30.185   1.482   4.539
65855W        W37526  43.660   8.686   3.143
65856W        W37527  43.767  35.680  13.331
65857W        W37528  12.884  33.837   1.350
65858W        W37529  31.409  27.115  12.027
65859W        W37530   0.449   8.899   5.113
65860W        W37531  34.974  23.927  14.200
65861W        W37532  24.540   1.197  13.974
65862W        W37533  29.608   5.230  13.252
65863W        W37534   3.037  29.571  11.198
65864W        W37535  34.484   9.141  13.828
65865W        W37536  19.057  37.359   2.222
65866W        W37537   9.772  22.760   3.258
65867W        W37538  31.185  39.210  12.339
65868W        W37539  29.138  43.849   4.777
65869W        W37540  32.882  18.090  13.359
65870W        W37541  18.722  21.862   5.021
65871W        W37542  22.231  38.987  13.042
65872W        W37543  41.045  22.997  12.486
65873W        W37544  21.710  20.180   2.830
65874W        W37545  20.775  18.374  12.998
65875W        W37546  20.027  37.169   4.272
65876W        W37547   0.910  28.275  13.360
65877W        W37548  37.310   9.219   2.383
65878W        W37549   0.445   4.304   4.428
65879W        W37550   9.597  11.951  13.480
65880W        W37551  43.249  40.518   1.701
65881W        W37552  40.904  24.251  14.441
65882W        W37553  26.985  35.644  14.180
65883W        W37554   5.859  30.154   3.640
65884W        W37555   4.413  21.336  13.496
65885W        W37556  41.776   1.364  13.806
65886W        W37557  33.528  38.453   1.187
65887W        W37558  25.574   5.750  10.714
65888W        W37559  36.882   2.767   3.197
65889W        W37560  16.364  17.272  10.770
65890W        W37561  17.060  28.318   4.240
65891W        W37562  10.133  32.105  11.976
65892W        W37563  14.391  38.991  13.336
65893W        W37564  27.939  40.059  14.988
65894W        W37565  24.293  42.382   4.108
65895W        W37566   4.967  13.133  11.634
65896W        W37567  23.593  14.188   2.562
65897W        W37568  20.560   6.881   3.618
65898W        W37569  19.685   2.279   3.199
65899W        W37570  23.545  30.392   2.287
65900W        W37571  33.076  31.358  12.056
65901W        W37572  29.475   6.144   1.597
65902W        W37573   9.779  24.501   1.863
65903W        W37574  31.026  41.917  14.780
65904W        W37575  15.366  21.230   2.820
65905W        W37576  23.591   6.037  14.115
65906W        W37577  32.348  15.707  13.404
65907W        W37578  44.003  41.997   0.770
65908W        W37579   8.457  19.301  14.531
65909W        W37580  42.737  28.218  14.536
65910W        W37581   4.772  31.090  12.701
65911W        W37582  16.791   4.838  13.372
65912W        W37583  34.868  31.948   2.797
65913W        W37584   0.223  29.911  14.481
65914W        W37585   3.907  13.688  10.918
65915W        W37586  19.343  31.112  14.836
65916W        W37587   4.717   7.895  11.614
65917W        W37588  14.619   9.230  12.962
65918W        W37589  24.441  18.737  12.622
65919W        W37590   3.786   5.229   1.798
65920W        W37591  42.680  42.987   4.189
65921W        W37592   3.911  17.239  14.894
65922W        W37593   6.183  44.046   3.285
65923W        W37594  39.421  44.053   3.467
65924W        W37595  32.999  22.671  13.893
65925W        W37596   2.885   3.270   0.296
65926W        W37597   1.028  39.593   4.072
65927W        W37598  27.922  40.298  13.730
65928W        W37599   1.057  28.577   2.678
65929W        W37600  20.723   1.007  14.290
65930W        W37601  28.503  26.161  13.365
65931W        W37602  39.326  43.001  10.815
65932W        W37603  38.512  32.710   3.055
65933W        W37604  39.583  17.846   3.366
65934W        W37605  38.244  41.493  10.637
65935W        W37606  12.622  37.070  13.493
65936W        W37607  37.808  15.222  13.495
65937W        W37608  29.514  41.386   4.584
65938W        W37609   3.263  18.985   0.986
65939W        W37610  19.265  39.028   4.221
65940W        W37611   7.361  20.001   0.403
65941W        W37612  41.873   6.234   4.598
65942W        W37613   1.887  17.834  14.437
65943W        W37614  35.886  29.913   1.061
65944W        W37615  11.162  34.670   4.336
65945W        W37616  26.600  29.454   0.072
65946W        W37617  42.555  25.632  12.199
65947W        W37618  26.683  15.550  10.213
65948W        W37619  33.000  41.026   1.038
65949W        W37620  44.910  26.030   0.345
65950W        W37621  28.499  41.506  11.611
65951W        W37622  18.573   7.642  13.050
65952W        W37623  19.724  43.899  12.847
65953W        W37624  43.234  29.957   1.504
65954W        W37625  28.463   5.811   5.534
65955W        W37626   2.931   1.714   1.867
65956W        W37627   4.970  13.631   0.812
65957W        W37628  33.636   6.594   2.154
65958W        W37629  19.987  31.898   0.331
65959W        W37630  30.465   7.419   1.977
65960W        W37631  18.179  36.211  11.152
65961W        W37632  23.820  31.634  13.545
65962W        W37633  19.586  25.950   5.049
65963W        W37634  10.754  34.348  13.490
65964W        W37635  37.856  32.209  12.093
65965W        W37636  42.731  43.787   0.534
65966W        W37637  40.784  11.315  10.676
65967W        W37638  11.746   9.105   2.342
65968W        W37639   4.900  40.929  12.159
65969W        W37640   9.171  31.132  12.965
65970W        W37641  33.318   7.847  10.779
65971W        W37642  35.511  38.953   4.351
65972W        W37643  42.979   6.234  14.298
65973W        W37644   8.163  40.010   2.224
65974W        W37645  20.021  31.386   0.358
65975W        W37646  44.783  42.333   4.785
65976W        W37647  20.071  30.186  14.884
65977W        W37648   5.823   9.887  12.237
65978W        W37649   5.639  19.987   4.706
65979W        W37650  31.819  37.817  12.002
65980W        W37651  12.637  21.542   1.174
65981W        W37652  40.472  44.279  10.343
65982W        W37653  13.276  40.738   1.598
65983W        W37654   4.221  28.981   3.205
65984W        W37655  30.097  26.676   4.868
65985W        W37656   4.979   7.947  12.522
65986W        W37657  14.842  27.109  13.384
65987W        W37658  17.655  21.173   1.799
65988W        W37659  28.050  12.403  12.639
65989W        W37660   2.903  15.743   2.409
65990W        W37661  26.545  21.079  13.884
65991W        W37662  14.363   9.201  10.697
65992W        W37663  43.955  38.313  13.954
65993W        W37664  26.096   9.399   2.810
65994W        W37665  10.933  34.138  14.802
65995W        W37666   5.405  40.799  11.474
65996W        W37667  21.171  33.947  12.035
65997W        W37668   5.716   2.216  10.489
65998W        W37669  21.997  41.551   1.794
65999W        W37670   5.944  25.648  12.597
66000W        W37671  15.181  30.373  14.987
66001W        W37672  44.742  26.932  12.961
66002W        W37673  10.127  40.013   3.674
66003W        W37674  25.926  17.620   2.450
66004W        W37675  19.707  31.064  13.554
66005W        W37676  14.099  19.564  10.731
66006W        W37677   1.041  33.826  14.880
66007W        W37678  32.377   4.329  11.199
66008W        W37679   5.415  27.606  12.160
66009W        W37680   3.207  12.237   4.776
66010W        W37681  33.692  13.147  13.967
66011W        W37682  28.719  39.721   4.111
66012W        W37683   6.053  41.845   0.588
66013W        W37684  33.369   5.971  11.367
66014W        W37685   0.119   1.457   2.248
66015W        W37686  18.125  43.301   0.498
66016W        W37687  13.731  37.821   2.331
66017W        W37688   8.390  19.267   0.383
66018W        W37689   3.440  23.457  10.267
66019W        W37690  39.196  18.126   3.207
66020W        W37691   8.892  33.231  14.000
66021W        W37692  12.925  25.911   2.261
66022W        W37693  14.355  28.987   2.792
66023W        W37694   2.877  41.461   2.677
66024W        W37695   3.472  30.621   2.362
66025W        W37696   9.286  29.648  14.603
66026W        W37697  10.624   1.538  14.866
66027W        W37698   9.440  31.048  12.073
66028W        W37699   6.915  37.882  14.047
66029W        W37700  33.137  11.739   3.575
66030W        W37701  17.617  29.974   2.701
66031W        W37702  16.024   5.906   4.931
66032W        W37703   0.768  25.356   2.324
66033W        W37704  22.779  33.564  14.329
66034W        W37705   6.702  41.429   4.200
66035W        W37706  43.236  15.846  14.282
66036W        W37707  10.662  40.105  13.266
66037W        W37708  22.708  39.607   1.475
66038W        W37709  18.925  24.868   3.616
66039W        W37710   6.993  29.679  12.116
66040W        W37711  14.558  43.742   0.328
66041W        W37712  35.420  35.069  11.508
66042W        W37713  40.460   8.337  10.619
66043W        W37714  20.495  26.700   3.755
66044W        W37715   8.638  26.236   3.642
66045W        W37716  44.554  42.865  10.858
66046W        W37717  44.698  32.008  11.115
66047W        W37718  26.591   8.678  11.079
66048W        W37719  26.605   3.768   4.558
66049W        W37720  38.746   6.265   4.968
66050W        W37721  31.434  42.864  13.319
66051W        W37722  30.520   4.239  13.806
66052W        W37723  33.853  37.110  14.855
66053W        W37724  11.804  26.198   0.523
66054W        W37725   4.856  16.620  13.989
66055W        W37726   3.329  10.660   2.769
66056W        W37727   4.142  42.115  12.309
66057W        W37728  23.498   4.783   1.724
66058W        W37729  44.923   8.201  12.529
66059W        W37730  15.860   5.405   3.873
66060W        W37731   6.359  18.294   3.699
66061W        W37732  42.345  44.162   3.688
66062W        W37733  33.600  25.796   0.327
66063W        W37734   6.965  21.767   1.383
66064W        W37735  25.024  20.352  11.227
66065W        W37736  15.216  14.579   2.854
66066W        W37737   7.596  21.024  12.554
66067W        W37738  19.244  37.127  12.645
66068W        W37739  15.174  14.799   1.975
66069W        W37740  17.245  14.869   2.362
66070W        W37741  36.899   1.288   0.030
66071W        W37742  39.797   8.421   1.322
66072W        W37743  44.170   6.256   0.318
66073W        W37744  39.512  29.661   0.512
66074W        W37745  36.892  43.363  13.059
66075W        W37746  12.808  31.536  12.601
66076W        W37747  29.182  12.785   1.162
66077W        W37748  37.428   4.574   0.774
66078W        W37749  33.137  30.906   0.431
66079W        W37750  39.252  20.678   4.857
66080W        W37751  40.607   4.330   3.381
66081W        W37752  27.919   2.407  12.623
66082W        W37753  17.242  36.853  14.040
66083W        W37754  35.942  24.340   2.785
66084W        W37755  11.064  11.170  14.936
66085W        W37756  11.481   4.771  11.168
66086W        W37757  16.285  12.230  12.050
66087W        W37758  40.468  34.986   1.006
66088W        W37759   5.963  25.004   0.546
66089W        W37760   0.632   1.609   2.606
66090W        W37761   1.543   9.728   1.665
66091W        W37762  16.152  24.168   2.633
66092W        W37763  21.091  23.661  12.530
66093W        W37764   8.372  34.572   4.092
66094W        W37765  23.178  18.659   2.111
66095W        W37766  24.006  42.073  11.194
66096W        W37767   0.057  20.773  11.403
66097W        W37768  29.753  23.571  11.039
66098W        W37769  43.957   0.576  13.364
66099W        W37770  19.612   4.991   3.277
66100W        W37771  25.627   2.243  13.308
66101W        W37772  30.677  32.446   1.971
66102W        W37773  18.218   4.581   2.532
66103W        W37774  25.927   9.784   0.823
66104W        W37775  41.350   2.879  10.458
66105W        W37776  40.274  20.714   4.576
66106W        W37777  15.900   1.201   1.582
66107W        W37778  13.454  23.103   2.655
66108W        W37779  14.235  24.167   3.541
66109W        W37780  28.771  27.515   4.218
66110W        W37781   8.806  24.720   2.090
66111W        W37782   2.295   7.376   2.930
66112W        W37783  25.416  28.956   0.641
66113W        W37784  12.244  38.115  13.121
66114W        W37785  40.878  11.714   1.038
66115W        W37786   7.398  14.869  14.397
66116W        W37787  13.392  14.694   3.172
66117W        W37788  10.338  22.349  12.468
66118W        W37789  42.669  32.902   0.837
66119W        W37790   5.839  37.163  11.438
66120W        W37791  20.748   2.401   4.605
66121W        W37792  16.071  42.807   2.885
66122W        W37793  28.605   3.882  14.263
66123W        W37794  36.345  23.695   2.252
66124W        W37795  35.971  31.564   4.212
66125W        W37796  26.327  30.223  12.612
66126W        W37797   5.868  18.287  11.595
66127W        W37798  20.273  38.626   4.552
66128W        W37799  40.102  39.762   3.278
66129W        W37800   9.169  32.418  10.919
66130W        W37801  27.643  27.070  11.546
66131W        W37802  31.999  40.433  12.596
66132W        W37803  21.268  18.424   1.474
66133W        W37804  33.513  28.522   0.593
66134W        W37805  27.628  42.871   1.802
66135W        W37806  31.598  35.099   1.538
66136W        W37807   1.801  36.633  12.577
66137W        W37808  14.115  28.458   1.947
66138W        W37809  12.903  16.634  14.954
66139W        W37810  22.769  16.146  11.100
66140W        W37811   9.054  20.094   0.676
66141W        W37812   5.255   4.600   3.718
66142W        W37813  29.190  39.395   0.772
66143W        W37814   2.018  21.716  13.375
66144W        W37815  28.571   7.876  13.001
66145W        W37816  33.323   6.181  10.000
66146W        W37817  18.686  40.069  10.082
66147W        W37818   5.282   8.684   0.531
66148W        W37819   0.691  18.612   4.121
66149W        W37820  27.836  14.120  14.011
66150W        W37821   1.172   9.241  14.939
66151W        W37822  20.217  17.136   0.417
66152W        W37823  16.073  11.878  11.754
66153W        W37824  23.173  42.771   1.313
66154W        W37825  32.986  41.836   3.782
66155W        W37826  15.520  15.708  10.820
66156W        W37827  18.325  38.530   0.753
66157W        W37828  11.729  33.653  11.540
66158W        W37829  27.204  20.032   3.864
66159W        W37830  43.400  11.809   5.557
66160W        W37831  22.739  44.820  11.124
66161W        W37832   3.661  31.053   0.421
66162W        W37833  19.131  38.284   2.753
66163W        W37834  13.638  25.704   4.107
66164W        W37835  35.976  21.206   0.062
66165W        W37836  33.601  36.019   1.364
66166W        W37837   8.390  37.536  14.861
66167W        W37838  27.664  43.080   3.721
66168W        W37839  21.834   0.799   0.810
66169W        W37840  35.966  44.122   1.369
66170W        W37841  15.054  15.893  11.009
66171W        W37842  25.185   8.842  14.469
66172W        W37843   5.811  31.936   0.753
66173W        W37844  26.308  10.433  13.737
66174W        W37845   0.819   3.871   4.808
66175W        W37846  43.626  25.836   2.374
66176W        W37847  43.434  31.914  11.648
66177W        W37848   1.978  42.826  14.040
66178W        W37849   1.474  31.801  11.983
66179W        W37850  27.444  19.491  14.853
66180W        W37851   4.673  13.329   1.939
66181W        W37852  23.580   4.957   3.851
66182W        W37853  40.962  38.884  10.159
66183W        W37854   7.960  35.674  11.417
66184W        W37855  19.281  21.555   0.464
66185W        W37856  23.236  32.984  14.865
66186W        W37857  44.306   5.275  10.422
66187W        W37858  25.018  26.880  13.940
66188W        W37859   8.746  35.474  10.747
66189W        W37860  35.319  24.047  12.496
66190W        W37861   0.657  42.820  10.234
66191W        W37862  34.073  17.544  13.348
66192W        W37863  22.573  28.393  14.050
66193W        W37864  34.474   5.283   4.270
66194W        W37865   5.290  12.561  12.460
66195W        W37866  42.482   5.913  11.716
66196W        W37867  30.238  34.597  12.866
66197W        W37868  13.495   4.788   0.170
66198W        W37869  13.829  27.326  14.301
66199W        W37870   4.283  32.602   3.668
66200W        W37871  28.572   3.429  12.569
66201W        W37872   4.183   0.459  13.481
66202W        W37873   3.848  22.056  10.720
66203W        W37874  12.104  10.359   1.790
66204W        W37875   5.752  32.501   3.732
66205W        W37876   4.330   5.585   2.211
66206W        W37877  35.431  42.133  12.772
66207W        W37878  29.883  16.744  10.739
66208W        W37879  33.458  32.651  10.957
66209W        W37880  41.196  39.377  13.505
66210W        W37881  37.415  42.018  13.920
66211W        W37882  36.293  42.248  14.357
66212W        W37883  25.092  26.914   1.257
66213W        W37884  34.887  14.148   2.246
66214W        W37885  34.562  10.852  11.127
66215W        W37886   9.357  16.202   2.145
66216W        W37887  26.840   9.379  10.768
66217W        W37888  35.986  18.517  13.847
66218W        W37889  37.840   2.364   1.698
66219W        W37890  27.800  29.460   4.732
66220W        W37891   3.300  31.103   3.508
66221W        W37892  31.470  25.573  12.527
66222W        W37893  20.311  17.771   1.740
66223W        W37894  13.795  36.756   3.340
66224W        W37895  12.309  19.275  10.759
66225W        W37896  15.951   5.112  13.302
66226W        W37897  16.129  15.785  12.489
66227W        W37898  15.955  31.707  11.264
66228W        W37899  19.160   3.026  13.341
66229W        W37900  23.683  25.560  11.801
66230W        W37901   5.698  22.929  14.341
66231W        W37902  18.722  25.978  14.501
66232W        W37903  37.865  32.688  13.977
66233W        W37904   6.865   1.985   4.544
66234W        W37905  35.115  17.583   4.813
66235W        W37906   2.335  23.534  12.039
66236W        W37907  19.796   6.670  12.615
66237W        W37908  19.105  28.980  13.410
66238W        W37909  17.492  33.994  14.838
66239W        W37910   7.427  43.432  13.020
66240W        W37911  38.661  34.474   2.708
66241W        W37912  33.618  39.837  13.296
66242W        W37913  35.848  26.619  14.411
66243W        W37914  40.861  32.620  12.904
66244W        W37915  35.886  12.323  11.623
66245W        W37916  44.061   8.691  11.205
66246W        W37917  28.242  24.785  11.941
66247W        W37918  38.634  17.941   1.530
66248W        W37919  14.909  24.169  13.326
66249W        W37920  35.387  20.552   1.788
66250W        W37921  39.968  42.556   1.272
66251W        W37922  35.939   9.816  12.583
66252W        W37923   0.774  27.991  11.488
66253W        W37924  10.448  10.656  11.011
66254W        W37925  31.367  18.744   0.371
66255W        W37926   0.023  44.663  11.904
66256W        W37927  14.073   6.984  13.391
66257W        W37928  38.466   2.444   0.150
66258W        W37929  10.227   4.639   4.491
66259W        W37930  11.903  14.594  13.909
66260W        W37931  29.074  24.026   2.624
66261W        W37932  28.444  31.652  12.446
66262W        W37933  31.484   1.477  12.975
66263W        W37934  18.141  44.480  14.264
66264W        W37935   9.935  34.185  11.411
66265W        W37936  23.068  35.305   3.257
66266W        W37937  22.539  15.088  14.503
66267W        W37938  38.639  24.391   2.163
66268W        W37939  18.931   8.747  11.098
66269W        W37940  43.742  33.881   4.699
66270W        W37941  22.498  31.128   1.054
66271W        W37942   1.685  31.506  14.720
66272W        W37943  43.513  26.281  13.432
66273W        W37944  32.923  39.515   0.305
66274W        W37945  23.446  41.802   4.114
66275W        W37946  36.834  23.234  10.345
66276W        W37947   1.247  13.593   3.836
66277W        W37948  11.272  40.031  12.735
66278W        W37949  29.856  20.198  14.366
66279W        W37950  19.521  10.308  14.306
66280W        W37951  24.104  33.183  13.504
66281W        W37952  32.627  38.367   1.937
66282W        W37953   3.368   4.713   1.288
66283W        W37954   1.465  28.817   3.786
66284W        W37955  24.044  22.204  11.677
66285W        W37956  28.960   5.492  11.048
66286W        W37957  33.301  23.663   3.670
66287W        W37958  40.126  22.152  12.714
66288W        W37959  40.934  31.002   4.795
66289W        W37960  17.809  37.430  12.366
66290W        W37961   3.898   4.699  12.161
66291W        W37962  16.548  25.724   0.469
66292W        W37963  13.918  13.139   4.156
66293W        W37964  14.268  24.221  12.493
66294W        W37965  15.578   8.137  14.373
66295W        W37966  36.581  20.314   3.975
66296W        W37967  29.758   7.634   3.328
66297W        W37968  21.115  34.686  13.083
66298W        W37969  43.391   3.353   1.023
66299W        W37970  28.438  13.405  13.079
66300W        W37971  13.949  18.644   4.581
66301W        W37972  28.193  40.339   0.329
66302W        W37973  37.728  26.618  13.804
66303W        W37974  40.417  10.425   1.898
66304W        W37975  18.710  15.027   2.172
66305W        W37976   3.471  40.139  14.389
66306W        W37977   5.654  36.941   2.913
66307W        W37978  44.221  38.334   0.375
66308W        W37979  25.610  30.356   3.665
66309W        W37980  34.661  40.916  11.589
66310W        W37981  42.950  20.724  14.887
66311W        W37982  21.486  25.804   0.793
66312W        W37983  40.806  16.609  11.573
66313W        W37984  44.939  40.147  10.612
66314W        W37985  11.948   7.418  10.178
66315W        W37986  13.292   2.783   3.658
66316W        W37987  33.360   2.830   2.507
66317W        W37988  29.484  27.608  14.925
66318W        W37989  21.746  12.917  11.517
66319W        W37990  43.879  40.962  10.145
66320W        W37991  34.136   1.731  14.484
66321W        W37992  44.677  43.734   0.425
66322W        W37993  11.227  20.268   2.902
66323W        W37994  24.244  43.311  10.723
66324W        W37995   1.179  34.617  13.106
66325W        W37996  23.625  35.661   0.311
66326W        W37997   5.488  39.502  11.564
66327W        W37998  43.505  12.750  12.150
66328W        W37999   4.614  11.155   1.054
66329W        W38000  24.268  22.259   2.236
66330W        W38001  13.852  40.466   3.899
66331W        W38002  20.627  26.568   0.264
66332W        W38003  21.293  43.698  11.504
66333W        W38004   1.193  19.283   1.825
66334W        W38005  28.140  43.975   4.504
66335W        W38006   7.881  15.117  10.576
66336W        W38007   3.334  10.180   1.820
66337W        W38008  15.219   3.480   0.118
66338W        W38009  29.953  35.359   2.150
66339W        W38010  25.498  44.599   1.859
66340W        W38011  23.719   9.420   4.167
66341W        W38012  23.236  44.386  11.446
66342W        W38013   6.933  44.628  12.987
66343W        W38014  42.417   7.078   2.539
66344W        W38015  25.281  28.560  10.706
66345W        W38016   1.006  35.006  13.541
66346W        W38017  27.910   9.668  12.486
66347W        W38018  21.606  23.996   2.188
66348W        W38019  12.216  40.089  12.598
66349W        W38020  25.698  25.081   0.999
66350W        W38021  40.588  14.313  11.181
66351W        W38022  33.962  35.791  14.415
66352W        W38023  20.619  21.695   0.421
66353W        W38024  11.759   1.229  13.535
66354W        W38025  27.343  37.348  13.957
66355W        W38026  24.946  18.685   4.361
66356W        W38027  38.942  36.562  11.988
66357W        W38028  32.108  24.010  14.262
66358W        W38029  31.227  30.579  12.897
66359W        W38030  40.485   1.890   1.670
66360W        W38031  11.249  33.479  10.734
66361W        W38032  44.939   3.891  13.581
66362W        W38033  11.965  27.205   4.227
66363W        W38034   9.071  26.002  11.994
66364W        W38035   8.672  19.684   1.236
66365W        W38036   2.805  41.945   2.475
66366W        W38037  22.557  25.263   1.347
66367W        W38038  40.487   1.306   4.072
66368W        W38039  21.231  41.364  13.393
66369W        W38040  33.782  33.413   4.201
66370W        W38041  28.493  26.109  10.889
66371W        W38042  29.147  43.389   4.551
66372W        W38043  39.121  17.137   3.617
66373W        W38044   9.305   3.808  12.201
66374W        W38045  35.516  44.334   1.162
66375W        W38046  27.692  10.926  10.635
66376W        W38047  14.644   3.660   5.180
66377W        W38048  25.756  36.085  10.251
66378W        W38049   3.644  13.211  12.591
66379W        W38050   5.989  13.764   3.230
66380W        W38051  17.261  31.159  14.974
66381W        W38052  29.905  28.472  11.764
66382W        W38053  25.558   7.953   4.930
66383W        W38054  38.408  23.069  11.910
66384W        W38055  25.923  26.157  14.493
66385W        W38056  39.926  35.493  11.009
66386W        W38057  39.438   6.212  11.289
66387W        W38058  30.916  12.819  12.930
66388W        W38059  38.902  42.424  14.019
66389W        W38060  27.968  12.891  10.618
66390W        W38061  17.137  36.028   4.890
66391W        W38062  44.861  32.430  12.790
66392W        W38063   5.505   9.668  13.332
66393W        W38064  35.328  26.534  14.206
66394W        W38065   6.358  39.455   1.314
66395W        W38066  40.202  11.934   1.754
66396W        W38067   0.576   4.365  10.687
66397W        W38068  40.326  21.049   2.379
66398W        W38069  30.438  30.983  12.915
66399W        W38070  17.695  23.954   4.766
66400W        W38071  32.506  25.241   1.581
66401W        W38072  34.088  23.140  12.995
66402W        W38073  19.056  10.781  12.540
66403W        W38074  19.107  25.219  10.602
66404W        W38075  12.306  16.140  14.443
66405W        W38076  11.903  41.925  12.496
66406W        W38077  25.473  32.019   2.178
66407W        W38078  22.733  40.204   0.673
66408W        W38079  22.683  38.147   0.441
66409W        W38080  20.398   2.518  10.672
66410W        W38081  23.271  21.550   0.811
66411W        W38082  19.671  19.223   0.776
66412W        W38083   1.954  15.713  10.692
66413W        W38084  37.004  44.879  13.813
66414W        W38085  29.267  42.856   1.760
66415W        W38086   5.444  36.233   3.816
66416W        W38087  10.448  32.505   1.005
66417W        W38088  18.382   9.376  11.044
66418W        W38089  13.224  36.326  12.225
66419W        W38090  18.197  28.417  14.478
66420W        W38091   5.018  17.069  12.197
66421W        W38092   6.670  10.585   4.295
66422W        W38093  16.866  25.409  11.667
66423W        W38094  43.531  31.118  14.368
66424W        W38095  16.133  23.700   3.671
66425W        W38096   2.188  37.029   0.544
66426W        W38097   6.871  40.420   0.427
66427W        W38098  44.769  24.671   1.425
66428W        W38099  17.641  28.216   1.745
66429W        W38100   5.003  28.519  12.012
66430W        W38101   7.177  15.033   3.759
66431W        W38102   4.868   2.775   1.027
66432W        W38103   1.860  25.959   1.837
66433W        W38104   5.880   7.674   3.823
66434W        W38105  23.642  44.672   3.987
66435W        W38106   6.222   4.621   4.990
66436W        W38107  38.796  26.087   1.693
66437W        W38108  10.209  37.480   3.698
66438W        W38109  33.900  29.763  13.991
66439W        W38110  34.411  27.145   1.191
66440W        W38111  42.817  22.300  14.906
66441W        W38112  14.933  24.795  12.027
66442W        W38113  16.887  44.260  11.967
66443W        W38114  13.249  26.055   2.635
66444W        W38115  39.676  31.994   2.703
66445W        W38116  12.076  11.254  12.480
66446W        W38117   2.858  20.191   5.100
66447W        W38118   2.016  12.664  10.782
66448W        W38119  30.060  30.859  14.513
66449W        W38120  21.938  29.198  11.209
66450W        W38121  23.086  29.600  11.147
66451W        W38122  20.335  25.628   0.984
66452W        W38123  26.668  19.685  11.527
66453W        W38124   7.443  31.642  14.345
66454W        W38125  31.440  44.686  11.939
66455W        W38126   3.824  32.406   2.495
66456W        W38127  10.036  12.176  13.345
66457W        W38128  23.190  19.104   3.349
66458W        W38129  31.040  28.275  10.296
66459W        W38130  11.347  26.121   2.760
66460W        W38131  38.028  10.072  13.891
66461W        W38132  16.542  21.054  10.472
66462W        W38133  29.648   6.449   0.769
66463W        W38134  33.615  32.063   3.313
66464W        W38135  24.576  30.166  11.602
66465W        W38136  41.719  38.218   2.546
66466W        W38137   3.911  32.829  14.334
66467W        W38138  33.528  18.156  10.765
66468W        W38139  29.921  15.145  14.363
66469W        W38140  24.227   9.995  12.132
66470W        W38141  40.095  30.430   4.636
66471W        W38142   5.490  42.250  10.493
66472W        W38143  13.023   9.780   0.771
66473W        W38144  17.314  23.041  13.455
66474W        W38145   9.875   1.050   0.287
66475W        W38146  21.194   1.321   2.732
66476W        W38147  39.475  29.083  14.848
66477W        W38148  22.610  39.420  13.265
66478W        W38149  19.073   6.151  13.981
66479W        W38150  33.461  43.042  11.419
66480W        W38151  26.576  24.985   1.504
66481W        W38152  40.293  25.518   1.058
66482W        W38153  12.586  14.310  10.937
66483W        W38154  20.576   4.180  13.025
66484W        W38155   5.186   5.425   0.059
66485W        W38156   8.323   2.817   3.831
66486W        W38157  40.239  36.171   3.720
66487W        W38158  39.638  14.036  14.340
66488W        W38159  37.091  29.419  11.553
66489W        W38160   2.357  42.116   4.744
66490W        W38161  24.042  22.689   4.224
66491W        W38162  11.362   7.800  11.699
66492W        W38163   3.367  11.482  13.976
66493W        W38164  10.898  43.743  14.779
66494W        W38165  19.420   4.597  12.308
66495W        W38166  22.229  36.032   1.785
66496W        W38167  39.300  11.475   0.277
66497W        W38168  10.822  10.726   2.656
66498W        W38169  39.928  16.232  14.682
66499W        W38170  36.302  17.219  13.008
66500W        W38171  30.387  21.285  13.100
66501W        W38172  36.893   2.303  14.886
66502W        W38173   3.278   6.786   3.476
66503W        W38174  42.972   5.500   2.303
66504W        W38175  33.619  36.661  11.149
66505W        W38176  41.929  12.787   0.395
66506W        W38177  43.516  23.945   5.461
66507W        W38178   8.495  19.275   3.836
66508W        W38179  32.976  21.282   4.171
66509W        W38180   3.853  35.432   2.697
66510W        W38181  30.911  11.282  14.779
66511W        W38182  42.521  37.055   3.167
66512W        W38183  15.972  27.259   1.219
66513W        W38184  21.786  21.739  11.604
66514W        W38185  25.271  43.392   0.827
66515W        W38186  42.134  21.568  11.050
66516W        W38187   1.828  28.983  11.554
66517W        W38188  14.198   6.786  13.878
66518W        W38189  30.923  38.125  11.243
66519W        W38190  23.295  35.781   2.773
66520W        W38191  27.081  17.551   4.470
66521W        W38192  15.133   5.176   3.773
66522W        W38193   8.985  38.237  11.404
66523W        W38194  28.125  17.336   4.616
66524W        W38195   0.891  43.969  13.506
66525W        W38196  42.632  12.285  14.533
66526W        W38197   1.227  10.914  12.946
66527W        W38198  18.490  35.935  11.569
66528W        W38199  38.974  19.783  12.050
66529W        W38200   6.392   2.710  12.857
66530W        W38201  29.590  33.862   4.603
66531W        W38202   4.685  23.215  13.428
66532W        W38203  14.777  10.395  14.020
66533W        W38204  33.920  34.313   4.339
66534W        W38205   5.382   0.859  11.078
66535W        W38206   6.704  25.174   2.801
66536W        W38207  22.815  19.008  10.627
66537W        W38208   1.030  14.423   0.286
66538W        W38209  13.794   7.851   1.290
66539W        W38210  21.011   9.555   4.660
66540W        W38211  16.129   8.922  11.123
66541W        W38212  19.514  41.793   3.566
66542W        W38213  17.712  25.425  10.534
66543W        W38214  32.728  44.738  12.052
66544W        W38215  27.163  40.760   3.381
66545W        W38216  10.156  25.976  11.731
66546W        W38217  21.793  29.614  10.721
66547W        W38218  11.926  22.714   2.293
66548W        W38219   5.287   2.010   1.344
66549W        W38220   5.172  36.615  10.625
66550W        W38221   7.307  40.943  12.429
66551W        W38222  19.812  17.610  12.472
66552W        W38223  12.427   3.441   0.831
66553W        W38224  11.560  29.009   4.486
66554W        W38225  36.881  16.154  11.016
66555W        W38226   1.693  33.818   1.903
66556W        W38227  24.179  20.362   2.266
66557W        W38228  41.406  16.005  11.508
66558W        W38229  38.653  42.501  11.788
66559W        W38230   8.953   8.904  11.163
66560W        W38231   1.636  21.728  14.381
66561W        W38232  43.509  36.936   0.372
66562W        W38233  13.813   2.887  12.610
66563W        W38234   8.342   7.975  12.938
66564W        W38235  10.177  12.078  11.009
66565W        W38236  42.718  20.860  11.054
66566W        W38237  15.044  24.524   1.177
66567W        W38238  36.453   7.145  12.483
66568W        W38239  22.553  21.047  14.904
66569W        W38240   1.046  27.862   3.207
66570W        W38241  21.078  32.431  13.598
66571W        W38242   0.407  28.580  10.622
66572W        W38243  27.898  10.094  12.199
66573W        W38244  43.804  39.128   4.611
66574W        W38245   4.752  31.645   4.671
66575W        W38246  35.859  25.301  12.960
66576W        W38247   3.348  20.161   4.342
66577W        W38248   1.721  37.369  13.387
66578W        W38249  35.988   0.106  12.093
66579W        W38250   6.930   2.496  14.943
66580W        W38251   1.223  27.004   4.656
66581W        W38252  23.249  39.808  13.875
66582W        W38253  30.310  43.145   1.877
66583W        W38254  42.775  44.020   3.446
66584W        W38255  13.927   8.344  14.530
66585W        W38256  26.629  10.716   3.787
66586W        W38257   5.005  39.776  10.262
66587W        W38258  30.465  15.138  13.383
66588W        W38259  21.699  32.875  12.051
66589W        W38260  10.240  32.088   1.240
66590W        W38261  33.292  24.910  11.040
66591W        W38262   8.253  37.095   3.156
66592W        W38263  26.444  16.831  10.497
66593W        W38264   1.767   7.327  13.517
66594W        W38265  16.248  20.119   3.826
66595W        W38266  24.163  27.549  11.851
66596W        W38267  26.725  21.793  13.303
66597W        W38268  17.785  23.703  10.396
66598W        W38269  37.601  22.237   4.141
66599W        W38270  44.689  34.445  10.732
66600W        W38271  21.355  24.503  14.067
66601W        W38272  12.657   6.984  10.937
66602W        W38273  44.397  20.637  14.938
66603W        W38274  38.384  23.135  14.461
66604W        W38275  37.042  44.426   4.392
66605W        W38276   0.923  25.819   3.604
66606W        W38277  11.944  36.546  14.334
66607W        W38278  21.524  24.487  11.947
66608W        W38279  14.304  29.423  11.909
66609W        W38280  30.028  14.371  11.237
66610W        W38281  37.329  21.170  10.416
66611W        W38282  16.151  44.620  11.223
66612W        W38283  23.918  17.026   4.605
66613W        W38284  31.028   6.232   0.013
66614W        W38285  11.101  11.640   1.764
66615W        W38286  26.220  23.245   0.273
66616W        W38287  13.149  26.112   0.792
66617W        W38288  29.606  23.560  14.340
66618W        W38289  40.299  11.016  12.105
66619W        W38290  33.856  23.268   1.465
66620W        W38291  11.106  39.333  11.611
66621W        W38292  36.097   3.826  14.730
66622W        W38293  41.493  37.106  14.259
66623W        W38294  35.630  22.764  13.999
66624W        W38295  34.186  36.969   2.290
66625W        W38296   2.111   0.692  12.045
66626W        W38297   5.211  31.079  14.041
66627W        W38298  35.578  26.582   9.978
66628W        W38299  23.244  40.542   9.884
66629W        W38300   8.781  26.948   4.166
66630W        W38301  17.541  20.461   4.616
66631W        W38302  13.063  29.947  11.852
66632W        W38303  31.176  35.876   5.135
66633W        W38304  15.704  39.734  12.527
66634W        W38305   3.387   3.260  11.164
66635W        W38306  30.466  17.664  14.368
66636W        W38307  14.864   6.228   0.796
66637W        W38308  18.005  33.355  12.833
66638W        W38309  23.257   5.020   0.386
66639W        W38310  38.145   0.940  12.697
66640W        W38311   5.011  35.894  14.750
66641W        W38312  28.699   1.798  10.967
66642W        W38313  32.650   9.806  10.740
66643W        W38314  16.983   9.093  14.516
66644W        W38315  34.148  40.335  10.598
66645W        W38316   9.310  38.519   0.787
66646W        W38317  19.149  12.148   0.414
66647W        W38318   9.642   3.932  14.021
66648W        W38319  20.866  34.460   1.853
66649W        W38320   9.227  34.413   3.207
66650W        W38321  40.150  26.608   4.236
66651W        W38322  42.907  44.472  14.783
66652W        W38323   1.800  10.104   2.310
66653W        W38324   3.950  17.758   0.476
66654W        W38325  24.125  25.221  10.654
66655W        W38326  44.908  26.356   0.769
66656W        W38327   0.431  31.020  12.982
66657W        W38328  14.623  19.177   2.766
66658W        W38329  22.165  23.025  13.424
66659W        W38330   9.111   5.745  12.958
66660W        W38331   5.343  37.140  13.586
66661W        W38332   9.760  19.025   0.409
66662W        W38333  13.804  41.896   2.855
66663W        W38334  16.164  16.197  13.220
66664W        W38335  41.388  15.953  12.509
66665W        W38336  22.564   3.168   4.096
66666W        W38337  14.733  27.181   3.111
66667W        W38338  33.855  22.938   3.657
66668W        W38339  10.396  43.895  11.174
66669W        W38340  19.706  17.543   2.753
66670W        W38341  16.106  25.350   5.062
66671W        W38342  14.014  37.489   0.398
66672W        W38343  18.561  44.393   1.425
66673W        W38344  43.879   3.391  14.174
66674W        W38345  24.733  28.439  10.688
66675W        W38346  16.585   1.414  12.189
66676W        W38347  31.138   1.718  13.299
66677W        W38348  28.608  24.404   4.650
66678W        W38349  31.643   2.598  12.111
66679W        W38350  13.014  38.416  11.973
66680W        W38351  31.468  34.137   0.329
66681W        W38352  18.583  32.691   0.372
66682W        W38353   8.268  37.339   2.698
66683W        W38354   4.376   3.395  11.232
66684W        W38355  34.947  27.430   2.326
66685W        W38356  44.282  20.787   5.014
66686W        W38357  26.238   0.740  12.486
66687W        W38358   8.897  17.987  10.735
66688W        W38359  37.877  11.138   1.980
66689W        W38360  39.340  12.985  11.968
66690W        W38361   2.716  35.644  11.651
66691W        W38362  30.563  10.309  11.907
66692W        W38363   8.823  23.193   0.343
66693W        W38364  35.807  29.039  11.402
66694W        W38365  20.590  20.875   0.851
66695W        W38366  37.868   2.755   2.690
66696W        W38367   7.946   3.724  12.404
66697W        W38368   3.426  21.524  11.112
66698W        W38369  41.330  36.670   2.974
66699W        W38370  39.498   5.248   1.832
66700W        W38371   9.920  26.194  13.043
66701W        W38372  35.320  15.261   4.615
66702W        W38373  19.759  14.439  11.002
66703W        W38374  20.991  30.895   2.406
66704W        W38375  21.601  36.464   2.679
66705W        W38376  43.931  42.615   4.517
66706W        W38377  12.260  24.592   3.580
66707W        W38378  13.869  30.348  12.014
66708W        W38379   1.500  12.601   3.701
66709W        W38380   7.939  16.709   2.784
66710W        W38381  23.235  38.674  14.225
66711W        W38382   1.005  34.417  12.569
66712W        W38383  16.674  11.529   2.277
66713W        W38384  31.553   7.702   3.802
66714W        W38385  31.722   7.813  13.679
66715W        W38386  28.068  32.644   2.616
66716W        W38387  43.365  18.498  14.046
66717W        W38388  38.482  35.068  13.779
66718W        W38389  21.315   9.914  11.192
66719W        W38390  16.666  39.976  13.004
66720W        W38391   1.280  34.880  12.669
66721W        W38392  39.894  42.198   2.919
66722W        W38393   3.682  28.143  12.033
66723W        W38394  12.307   2.228  12.461
66724W        W38395  44.791  41.772   3.193
66725W        W38396  10.140  29.796   0.950
66726W        W38397  40.247  39.238  13.510
66727W        W38398  35.016  32.451  11.165
66728W        W38399   5.011  28.528   3.284
66729W        W38400  22.069  40.844   2.706
66730W        W38401  28.573  28.208  10.730
66731W        W38402  12.658  12.896  11.902
66732W        W38403  36.887   2.764  13.525
66733W        W38404   1.132  25.096   2.631
66734W        W38405  43.225  24.265   1.453
66735W        W38406  33.669  25.868   2.103
66736W        W38407  42.363   8.608   4.167
66737W        W38408  21.352  39.344  11.503
66738W        W38409  31.956  26.208   0.890
66739W        W38410   9.109  32.881   3.444
66740W        W38411  38.384  23.750   0.889
66741W        W38412   1.976  25.781  14.473
66742W        W38413  27.651  24.169   3.686
66743W        W38414   8.169  30.680  11.518
66744W        W38415  20.088  26.774   5.146
66745W        W38416  40.922  13.470  13.973
66746W        W38417  21.040  23.085  11.327
66747W        W38418  34.737  15.746   5.245
66748W        W38419   7.833   8.180   4.141
66749W        W38420  14.238  36.006   0.811
66750W        W38421  29.382  37.793   1.159
66751W        W38422  22.160  13.748   3.253
66752W        W38423  15.537  42.920  14.738
66753W        W38424   5.137  38.222   4.278
66754W        W38425   2.993   0.473  13.055
66755W        W38426  30.876   2.696   0.826
66756W        W38427   6.684  15.610   3.223
66757W        W38428  42.085  25.010  12.575
66758W        W38429  14.407  11.647  14.451
66759W        W38430  38.517  12.919  14.026
66760W        W38431  19.046   1.728  11.479
66761W        W38432  22.121   8.055   0.923
66762W        W38433  27.536  37.323  13.071
66763W        W38434  20.995  29.594   0.187
66764W        W38435   1.293  21.602  14.788
66765W        W38436  42.868   7.209   1.953
66766W        W38437  29.594   5.458  11.848
66767W        W38438  42.291  15.751   4.147
66768W        W38439   9.167  28.932   0.934
66769W        W38440  22.598  19.278  13.476
66770W        W38441  18.973  13.664   1.940
66771W        W38442  33.998  38.387   1.511
66772W        W38443  23.777  21.582   0.817
66773W        W38444  20.204   3.836  12.916
66774W        W38445   4.418   5.228   3.618
66775W        W38446  15.259  41.057   1.362
66776W        W38447   1.844  17.117  11.248
66777W        W38448  20.410  36.394   3.893
66778W        W38449   5.767  35.538   4.109
66779W        W38450  18.055   3.490   1.889
66780W        W38451  17.671   9.946  11.166
66781W        W38452  15.315  40.773  14.838
66782W        W38453  13.735  40.403   3.392
66783W        W38454  15.210  43.779  10.724
66784W        W38455  43.866  21.621   0.529
66785W        W38456  12.604   6.174   4.153
66786W        W38457   1.770  16.007  14.012
66787W        W38458   3.090  23.237  13.536
66788W        W38459  39.072  13.199  11.589
66789W        W38460  24.258  35.233   0.888
66790W        W38461  43.159  38.444   0.837
66791W        W38462  37.322  24.981   0.382
66792W        W38463  27.215  33.505  10.630
66793W        W38464  34.528  15.317  12.458
66794W        W38465   3.266  32.108  11.034
66795W        W38466  17.963  18.374   4.365
66796W        W38467  10.185  35.979  13.549
66797W        W38468  34.535   7.366   4.830
66798W        W38469  22.600  18.876  12.614
66799W        W38470  25.295  11.337   0.503
66800W        W38471   6.753   0.468  12.823
66801W        W38472  38.921  12.570   0.850
66802W        W38473  21.690  27.597   1.450
66803W        W38474   9.853  28.369  11.361
66804W        W38475  35.044  25.515  14.840
66805W        W38476   2.042  31.876  14.268
66806W        W38477  39.923  18.550  12.210
66807W        W38478  37.147  41.752   1.237
66808W        W38479  40.224   6.347   3.257
66809W        W38480  11.253  40.088  14.676
66810W        W38481  10.801  11.687   0.721
66811W        W38482   9.312  40.726   4.676
66812W        W38483  14.677  34.949   0.904
66813W        W38484  14.655   9.459  11.597
66814W        W38485  13.892  31.028  10.780
66815W        W38486   6.848  28.049  12.021
66816W        W38487  19.974  25.886   2.352
66817W        W38488  35.677   7.966   5.027
66818W        W38489   7.667  23.499   0.417
66819W        W38490   0.291   9.525  12.138
66820W        W38491  40.916   7.161  10.608
66821W        W38492  42.111  23.141   2.647
66822W        W38493  22.144  13.293   4.212
66823W        W38494  23.434  15.662   2.774
66824W        W38495  35.778  33.999  10.720
66825W        W38496   0.408  40.729   4.074
66826W        W38497  16.654  34.558   1.454
66827W        W38498  17.523  44.200   0.306
66828W        W38499   3.033  12.721  10.752
66829W        W38500   0.225   3.850   4.189
66830W        W38501   0.057  10.340  14.887
66831W        W38502  43.017  33.306   3.426
66832W        W38503  19.616   1.606   0.407
66833W        W38504  32.559  10.167  12.950
66834W        W38505  26.051  36.363  10.613
66835W        W38506  18.925   7.360  13.372
66836W        W38507  12.292  37.555   0.624
66837W        W38508  28.048  30.910  14.519
66838W        W38509   0.318  11.542   0.507
66839W        W38510  41.030  42.502  13.901
66840W        W38511  44.983  37.522  10.196
66841W        W38512  40.196  10.931   4.172
66842W        W38513  27.396  35.955  14.047
66843W        W38514  37.784  33.470  12.571
66844W        W38515   5.824  20.638   4.663
66845W        W38516  42.272  31.477   2.263
66846W        W38517  22.191  16.804  13.321
66847W        W38518  14.453  26.749   2.447
66848W        W38519   9.085  17.708   3.584
66849W        W38520  10.219   1.578  11.700
66850W        W38521  12.722   5.884  13.113
66851W        W38522  26.417  31.386  13.439
66852W        W38523   9.115   6.199   2.447
66853W        W38524  10.875  35.833   1.154
66854W        W38525  39.864  12.770   4.059
66855W        W38526  37.139  15.557  11.674
66856W        W38527   5.249  36.530   0.906
66857W        W38528   1.913   4.845   0.144
66858W        W38529  42.411  14.240   1.477
66859W        W38530  21.611  28.501   0.938
66860W        W38531  40.536  42.776   1.244
66861W        W38532  18.033  34.388   4.664
66862W        W38533  30.702  32.094   2.646
66863W        W38534  33.303  27.243  12.937
66864W        W38535  24.672  16.638  14.346
66865W        W38536  41.042   7.748  14.302
66866W        W38537   6.844  25.238   0.650
66867W        W38538  14.852  27.079  12.487
66868W        W38539  20.353  19.424   4.189
66869W        W38540  24.483  44.685  13.994
66870W        W38541  20.794   4.480  12.591
66871W        W38542  44.797   8.678   5.099
66872W        W38543  42.519  20.019  10.903
66873W        W38544   9.802  13.830  10.435
66874W        W38545  37.991  31.999  12.531
66875W        W38546  10.830  35.983   0.379
66876W        W38547   7.379   2.811   2.196
66877W        W38548  29.082  12.862   1.695
66878W        W38549   5.681  21.177  11.439
66879W        W38550  15.226  36.946   3.215
66880W        W38551  21.500  26.959  14.817
66881W        W38552  21.522  35.280  11.034
66882W        W38553  41.325  17.769  14.775
66883W        W38554  35.823  43.898   3.282
66884W        W38555  17.381   5.883  10.779
66885W        W38556  21.873  44.419  13.141
66886W        W38557  15.107  21.095   4.614
66887W        W38558  20.222  35.448   4.283
66888W        W38559  15.651   0.019   4.162
66889W        W38560   9.875  28.637  10.366
66890W        W38561  34.122  13.773  13.889
66891W        W38562  20.459  25.947  11.616
66892W        W38563  17.275  28.265  11.638
66893W        W38564  11.096  36.119   0.786
66894W        W38565   8.843   0.028   0.010
66895W        W38566   1.846  21.604   2.202
66896W        W38567  20.781  32.764  11.074
66897W        W38568  17.639  36.831  14.386
66898W        W38569  30.531  42.416   3.196
66899W        W38570  42.384  44.159  11.529
66900W        W38571  39.279   9.605  12.557
66901W        W38572  44.386  40.000  13.601
66902W        W38573   0.975   1.679   0.310
66903W        W38574  33.507  43.506  14.304
66904W        W38575   3.902  26.962   2.685
66905W        W38576  43.369  31.475  12.429
66906W        W38577  32.415  20.501  13.727
66907W        W38578  10.084  25.220  11.189
66908W        W38579   7.045   4.081  12.573
66909W        W38580   1.143  20.229   5.285
66910W        W38581   2.793  18.541   3.810
66911W        W38582  32.570   7.283   4.182
66912W        W38583  18.551  23.827  14.019
66913W        W38584  34.875  25.153   1.604
66914W        W38585  12.853  42.041   3.287
66915W        W38586  12.668   6.136   1.424
66916W        W38587  38.488   8.852  12.803
66917W        W38588  44.465  39.119   3.060
66918W        W38589  11.619  38.696  10.637
66919W        W38590  11.858  12.100   3.118
66920W        W38591   6.047  22.430  11.915
66921W        W38592   6.599  18.684   2.370
66922W        W38593  40.791  37.068   1.482
66923W        W38594  12.185  34.611   2.331
66924W        W38595  17.972  10.182   4.571
66925W        W38596   4.849  12.382   0.029
66926W        W38597  16.694  24.680   0.213
66927W        W38598  29.173  42.415  13.664
66928W        W38599  41.463  16.557   3.099
66929W        W38600   2.012  12.191   3.109
66930W        W38601   5.227  36.775   2.216
66931W        W38602   3.414  25.552  11.455
66932W        W38603  43.933  39.907  11.512
66933W        W38604  29.863  24.166  11.488
66934W        W38605  12.593   9.424   1.708
66935W        W38606  14.286  12.126  12.976
66936W        W38607   9.406  19.119   4.241
66937W        W38608  28.583  32.070  10.705
66938W        W38609  37.887  10.867   4.216
66939W        W38610  29.124  30.106  13.415
66940W        W38611  44.992   7.783   2.628
66941W        W38612  42.999  30.603   3.827
66942W        W38613   6.344  42.845   9.958
66943W        W38614  21.773   1.040  12.580
66944W        W38615  43.061  42.811   0.384
66945W        W38616  42.088  41.768   3.572
66946W        W38617  28.365  37.675  10.192
66947W        W38618  11.822  28.058  13.412
66948W        W38619  28.617  20.594   3.485
66949W        W38620  35.756   3.192   2.924
66950W        W38621  37.271  44.966   0.015
66951W        W38622  25.220  28.172   3.647
66952W        W38623  32.422  26.757  13.212
66953W        W38624  19.320  22.576   0.302
66954W        W38625  37.497   1.674  14.336
66955W        W38626  27.328  11.567   2.390
66956W        W38627  36.630  25.575   2.952
66957W        W38628  39.088  25.125   4.588
66958W        W38629  32.521  25.526   2.948
66959W        W38630  14.595  28.086   4.102
66960W        W38631  32.556   6.934  11.624
66961W        W38632  17.239  34.975  11.673
66962W        W38633  24.525  15.017   1.312
66963W        W38634  37.330  42.770   4.608
66964W        W38635  14.160   6.179   5.411
66965W        W38636  44.713  23.970  12.492
66966W        W38637  20.434   6.271  11.529
66967W        W38638  15.563  14.543  12.433
66968W        W38639  37.501   3.903  10.821
66969W        W38640   1.703   9.234  14.984
66970W        W38641  36.994  31.570   3.656
66971W        W38642   3.727  43.973  12.492
66972W        W38643   8.766  24.745   4.552
66973W        W38644  19.387  18.267  12.144
66974W        W38645  22.673   6.369   1.795
66975W        W38646  38.726   4.765  12.951
66976W        W38647   7.011  15.740   4.212
66977W        W38648  25.069  39.235  14.304
66978W        W38649  15.915  26.191  14.818
66979W        W38650  15.854  11.780   2.797
66980W        W38651  27.598  37.640   0.945
66981W        W38652   6.192  29.519   0.238
66982W        W38653  29.995  10.188   2.174
66983W        W38654  15.821  36.964   2.372
66984W        W38655  28.930  33.037   3.110
66985W        W38656  42.069  22.753   1.288
66986W        W38657  28.759  30.696  12.484
66987W        W38658  25.253  11.145  12.883
66988W        W38659   7.214  12.106   1.420
66989W        W38660   1.317  16.780  14.915
66990W        W38661   3.710  38.160  10.162
66991W        W38662  17.756   8.632  10.763
66992W        W38663   7.916  33.920   4.667
66993W        W38664   8.343   7.602   3.222
66994W        W38665  44.175  44.291  12.893
66995W        W38666  33.099  11.743   1.083
66996W        W38667  13.629  38.578   4.248
66997W        W38668  12.756  36.095  13.410
66998W        W38669  24.676  19.325  12.830
66999W        W38670   5.083  43.923  13.007
67000W        W38671  12.780   7.590   2.001
67001W        W38672  35.612  28.606  13.609
67002W        W38673   6.659   3.919  10.760
67003W        W38674  25.467  11.288  13.972
67004W        W38675  36.363  39.193  11.988
67005W        W38676   4.878   8.859   0.802
67006W        W38677   8.710   2.729  14.518
67007W        W38678   6.727  28.798  14.125
67008W        W38679  33.507  41.778  13.749
67009W        W38680  34.951   0.161   2.286
67010W        W38681  39.641  42.860  13.977
67011W        W38682  19.639  20.227  13.569
67012W        W38683  37.870  42.238  12.892
67013W        W38684  15.245   7.888   1.752
67014W        W38685  13.198   9.834  12.081
67015W        W38686  42.380  26.879   3.033
67016W        W38687  25.778  26.690  11.230
67017W        W38688   1.923  11.199   1.377
67018W        W38689   5.212  25.227  11.150
67019W        W38690  43.309  44.505   0.419
67020W        W38691  10.869  19.477   2.652
67021W        W38692  14.207  10.422   0.403
67022W        W38693  18.564  24.785   4.323
67023W        W38694  17.015   3.176  10.877
67024W        W38695  31.524  28.441  14.839
67025W        W38696  23.526  30.617   0.849
67026W        W38697  31.380  14.291   2.202
67027W        W38698  25.055  26.782   3.463
67028W        W38699  10.970  43.296   1.432
67029W        W38700  21.042  10.067   4.621
67030W        W38701  42.074  35.906   0.445
67031W        W38702   3.390  30.024  10.712
67032W        W38703  25.084  30.381   2.694
67033W        W38704  19.748  15.202   1.188
67034W        W38705  40.120  37.428   0.960
67035W        W38706  38.452  14.489  12.860
67036W        W38707  44.912  14.175  13.052
67037W        W38708  41.240  29.017  12.115
67038W        W38709  25.059  16.787  14.917
67039W        W38710   4.329  14.571   4.865
67040W        W38711  38.348  14.145  12.404
67041W        W38712  30.500  17.124   2.605
67042W        W38713  21.071  18.336   0.304
67043W        W38714  27.550  11.985   0.335
67044W        W38715   8.739  22.418  12.632
67045W        W38716  40.797  34.343   2.230
67046W        W38717  30.559  13.854   1.808
67047W        W38718   4.269   2.826   4.258
67048W        W38719  32.069  19.542   5.011
67049W        W38720  21.846  23.499  11.082
67050W        W38721  43.702  32.089   4.494
67051W        W38722   5.305  31.893   1.635
67052W        W38723  20.740  13.148  14.587
67053W        W38724  28.476  23.143   1.510
67054W        W38725  22.734  11.890  11.157
67055W        W38726   1.928  18.615   2.855
67056W        W38727  33.548  35.122   3.487
67057W        W38728  17.496  39.929  14.897
67058W        W38729  34.543   9.596   4.232
67059W        W38730  44.848  14.109   1.797
67060W        W38731  25.678  37.498   0.348
67061W        W38732   3.271  17.456   4.567
67062W        W38733  19.047  28.196   0.938
67063W        W38734  10.847  12.749   0.326
67064W        W38735  38.451  16.499   3.537
67065W        W38736   7.374  13.479   2.684
67066W        W38737  28.901  25.224  14.051
67067W        W38738  24.029  18.015   3.690
67068W        W38739  11.701   7.902   1.402
67069W        W38740  41.900  19.584   4.661
67070W        W38741  39.147   1.349  13.285
67071W        W38742  44.449  26.923  12.454
67072W        W38743  28.441  29.632  12.071
67073W        W38744  39.097   1.757  10.441
67074W        W38745  34.479  17.137   4.835
67075W        W38746   7.904   6.555   1.165
67076W        W38747  25.249  38.464  11.733
67077W        W38748   3.664  28.310  12.526
67078W        W38749  26.110  19.836   0.396
67079W        W38750  25.254  23.138  14.330
67080W        W38751  36.111  19.245   2.414
67081W        W38752  23.118  27.941  11.101
67082W        W38753  41.334  43.231   1.165
67083W        W38754  31.037  15.207   5.066
67084W        W38755  25.311   9.562   4.801
67085W        W38756  25.783  33.285  14.725
67086W        W38757  11.365  27.778  10.556
67087W        W38758   7.475  18.529   4.197
67088W        W38759  41.861   6.983   1.920
67089W        W38760  39.010  31.222   1.194
67090W        W38761  15.045  36.817   4.839
67091W        W38762  42.483  26.939   3.519
67092W        W38763   6.511  11.620   3.597
67093W        W38764  22.256  24.846  11.467
67094W        W38765  18.099  27.511   0.294
67095W        W38766  44.336   6.745  13.241
67096W        W38767   1.288  13.889   2.416
67097W        W38768   8.194  10.431  12.924
67098W        W38769  13.237  31.438  12.286
67099W        W38770   2.815  33.196   2.926
67100W        W38771   9.874  30.363   3.857
67101W        W38772  21.230  26.247   0.675
67102W        W38773  25.665  39.539  13.863
67103W        W38774  35.241  31.977   1.138
67104W        W38775  20.277  12.387  14.918
67105W        W38776  27.274  14.553   4.259
67106W        W38777  13.421  36.841  12.893
67107W        W38778   4.748  41.601   3.695
67108W        W38779   8.423  30.129   1.407
67109W        W38780  10.766  22.306  14.850
67110W        W38781  20.573   1.941   4.812
67111W        W38782  10.375  31.379   3.271
67112W        W38783  25.766  21.256  14.851
67113W        W38784  32.635   6.639  14.006
67114W        W38785   4.328  29.878   1.880
67115W        W38786  16.318  38.969  12.442
67116W        W38787  38.419  16.272  11.737
67117W        W38788  16.715  33.125   4.585
67118W        W38789  26.808  39.746   3.954
67119W        W38790  15.699   0.778  13.973
67120W        W38791  11.916  26.619  11.762
67121W        W38792  29.074  10.791   0.425
67122W        W38793  24.935  37.171  14.949
67123W        W38794  27.495  21.459   2.352
67124W        W38795  28.669  35.990   0.032
67125W        W38796  25.006  37.385   4.661
67126W        W38797  33.385  26.483   2.339
67127W        W38798  12.148   0.451  12.953
67128W        W38799  31.490  28.796   4.936
67129W        W38800  28.931  30.244   4.437
67130W        W38801  22.272  14.903   2.193
67131W        W38802  25.664  18.080  12.518
67132W        W38803  28.229  20.039   0.826
67133W        W38804  19.772   1.008  12.930
67134W        W38805  20.506  20.889   2.800
67135W        W38806  13.851  15.603   3.647
67136W        W38807  13.325  38.552  14.113
67137W        W38808   3.130  33.516   4.525
67138W        W38809  38.020  19.532   4.108
67139W        W38810  22.172  24.994   2.757
67140W        W38811  36.976  14.583   1.228
67141W        W38812   4.855  15.307   3.225
67142W        W38813  18.955  24.807   0.084
67143W        W38814  33.293   4.884   1.442
67144W        W38815  19.259  28.615  11.646
67145W        W38816  15.620   9.582  13.245
67146W        W38817  11.002  15.389   2.194
67147W        W38818  34.322  18.171  13.740
67148W        W38819  27.244  44.963  13.424
67149W        W38820  22.715  17.250   9.986
67150W        W38821   1.785  13.125  10.668
67151W        W38822  33.107  44.987  11.113
67152W        W38823  40.469  18.213   4.655
67153W        W38824  34.541  29.476  14.235
67154W        W38825   9.648  36.052  12.576
67155W        W38826  30.633  30.108  11.996
67156W        W38827  37.032  29.692   3.779
67157W        W38828   8.170   8.774  11.578
67158W        W38829  12.371  11.287  12.928
67159W        W38830  27.166  14.235  12.819
67160W        W38831  24.028   9.523  12.154
67161W        W38832  10.210  19.240   4.618
67162W        W38833  21.660  15.163   2.729
67163W        W38834  23.234  28.479  13.427
67164W        W38835   2.438  13.404  13.093
67165W        W38836  30.727  29.952   2.842
67166W        W38837  33.604  13.302  11.830
67167W        W38838  14.316  20.553  14.756
67168W        W38839  13.868  16.474  13.026
67169W        W38840  20.135  15.782  12.016
67170W        W38841  19.060   8.840  13.501
67171W        W38842  36.604  39.035  10.952
67172W        W38843  35.851  12.073  12.959
67173W        W38844  33.655  31.194   1.443
67174W        W38845  42.499   5.739   5.088
67175W        W38846   6.665   6.425  13.939
67176W        W38847   6.548  25.094  10.699
67177W        W38848  42.997  27.979   2.323
67178W        W38849  30.102  13.681   4.785
67179W        W38850  28.506  35.826   4.283
67180W        W38851  30.330  32.856   4.124
67181W        W38852  38.584  31.049  13.721
67182W        W38853  37.930  17.415  14.960
67183W        W38854  32.361  42.110   3.650
67184W        W38855  43.834  24.750   9.660
67185W        W38856   6.282  22.011   2.728
67186W        W38857   6.564  25.388  11.131
67187W        W38858  15.509  36.676   4.999
67188W        W38859   3.206   8.240  11.133
67189W        W38860  21.120  13.203   2.706
67190W        W38861  24.698   1.940   1.301
67191W        W38862  10.126   8.760   0.414
67192W        W38863  34.435  23.709   2.762
67193W        W38864  42.961  26.468   4.638
67194W        W38865   2.334   0.229   0.785
67195W        W38866   7.819   3.443  11.968
67196W        W38867   5.276  30.862  10.955
67197W        W38868  23.185  34.096  13.710
67198W        W38869  23.073  16.699  12.639
67199W        W38870  13.123  44.233  14.831
67200W        W38871   0.188  43.834   0.423
67201W        W38872  35.618   6.578  14.783
67202W        W38873  17.071  25.742   0.457
67203W        W38874  23.510  44.427  11.886
67204W        W38875  42.451  38.471   1.477
67205W        W38876  17.525   2.892   3.665
67206W        W38877   5.220  39.799   1.357
67207W        W38878   2.453  38.060  14.796
67208W        W38879   8.135  15.281   2.256
67209W        W38880   0.957   6.889   4.107
67210W        W38881  13.355  12.826   0.953
67211W        W38882  34.102  29.516  13.059
67212W        W38883  42.312   0.097   2.872
67213W        W38884  23.141  31.876  11.947
67214W        W38885   7.701   9.857   2.146
67215W        W38886  33.864  23.448   4.615
67216W        W38887  38.442  21.077  12.955
67217W        W38888  10.646  20.034  14.275
67218W        W38889  10.928  38.359  14.920
67219W        W38890   1.178  44.915  13.894
67220W        W38891  21.487   6.467  10.683
67221W        W38892  13.229   3.853  12.162
67222W        W38893   7.400   9.084   1.902
67223W        W38894   5.241  26.649  14.924
67224W        W38895  40.796  43.061  11.598
67225W        W38896  28.944  15.701  11.822
67226W        W38897  29.330  21.659  13.798
67227W        W38898   8.668  30.950  12.811
67228W        W38899  23.197   4.591  13.485
67229W        W38900  12.095  25.740  12.570
67230W        W38901  44.531   3.713   2.377
67231W        W38902  30.707  23.247   2.710
67232W        W38903   5.965   0.906   4.213
67233W        W38904   4.764  32.524  11.481
67234W        W38905  24.727   1.351   0.242
67235W        W38906  36.624  20.890   4.767
67236W        W38907  18.202   4.248  10.710
67237W        W38908  22.823  31.381  13.702
67238W        W38909  17.311  30.038  10.763
67239W        W38910   7.469   7.102  14.931
67240W        W38911  19.550   0.753   2.844
67241W        W38912  17.495   6.755  10.211
67242W        W38913  44.845   2.216  11.040
67243W        W38914  39.448   1.281  14.368
67244W        W38915  14.768   6.893  14.664
67245W        W38916  43.479  11.048   4.183
67246W        W38917  22.565  15.764   5.097
67247W        W38918  28.488   7.393   0.850
67248W        W38919  39.030  20.808  13.299
67249W        W38920  26.511   1.526   1.335
67250W        W38921   3.720  26.202  11.877
67251W        W38922  32.419   7.930   3.622
67252W        W38923  25.216  41.046   2.401
67253W        W38924  30.477  31.176   4.299
67254W        W38925  36.951  16.593   1.781
67255W        W38926  33.859  25.578  12.496
67256W        W38927  17.554  38.795  12.378
67257W        W38928  31.113  42.777   3.255
67258W        W38929  26.611  42.748   0.564
67259W        W38930  26.668   9.589  12.554
67260W        W38931   9.346  26.693  11.323
67261W        W38932  40.666   9.959   1.917
67262W        W38933  43.871  33.137   1.687
67263W        W38934   6.655  23.286  14.014
67264W        W38935  21.507   3.344   0.372
67265W        W38936  30.364   0.676   2.867
67266W        W38937  20.329  16.286   4.897
67267W        W38938  32.007  39.440  10.911
67268W        W38939  42.640   3.310   4.622
67269W        W38940  35.501  25.235   2.324
67270W        W38941  26.878  13.661   0.703
67271W        W38942  41.550  23.016   0.334
67272W        W38943   7.125   7.257   2.248
67273W        W38944  26.315  11.743   4.348
67274W        W38945  30.998  43.372  11.613
67275W        W38946   8.650  17.038   4.591
67276W        W38947  33.164   7.130  10.447
67277W        W38948  28.058  35.281  13.569
67278W        W38949  11.291   9.156  12.901
67279W        W38950  12.173  10.179   2.296
67280W        W38951  40.558  14.631  12.539
67281W        W38952  20.136  37.778   2.177
67282W        W38953  43.910  43.830  12.983
67283W        W38954  35.901  11.690  12.046
67284W        W38955  42.911   7.304  12.292
67285W        W38956  11.701  20.223  13.937
67286W        W38957  33.672  36.607  12.129
67287W        W38958  43.977  16.480  12.091
67288W        W38959  29.198  32.446  10.955
67289W        W38960  31.881   3.163  14.014
67290W        W38961  26.979  40.852   0.160
67291W        W38962   8.420  37.466  11.022
67292W        W38963  19.944  24.577   0.237
67293W        W38964  39.513  28.381   1.304
67294W        W38965  16.794  34.855   3.847
67295W        W38966  43.293   2.464  14.477
67296W        W38967  37.903  27.623   0.509
67297W        W38968  12.205  36.485  12.879
67298W        W38969  17.060  17.294  13.923
67299W        W38970  38.035  13.686  11.705
67300W        W38971  17.241  35.606   4.057
67301W        W38972  35.892  11.314   3.922
67302W        W38973  27.437  21.951   2.146
67303W        W38974  14.759  33.581  10.826
67304W        W38975  33.158  27.194  11.565
67305W        W38976  10.998  44.298   0.343
67306W        W38977   4.514  16.898  13.013
67307W        W38978   5.261  30.561  14.057
67308W        W38979   3.318  23.301   3.940
67309W        W38980   7.467  15.282  13.551
67310W        W38981  32.022  30.061  12.499
67311W        W38982  38.588  23.316  14.008
67312W        W38983   9.661  36.431   0.188
67313W        W38984   4.398  43.360  12.008
67314W        W38985  38.595  29.543  13.972
67315W        W38986  24.587  20.462  11.504
67316W        W38987  15.133  22.271   3.138
67317W        W38988  24.539   5.894  12.093
67318W        W38989  23.160  31.326  12.817
67319W        W38990  21.724  11.581  13.713
67320W        W38991  22.561  44.199  12.488
67321W        W38992  12.776   0.797   1.913
67322W        W38993  44.383  34.019   3.165
67323W        W38994  32.059  22.511   1.511
67324W        W38995  26.046  33.635   0.049
67325W        W38996  37.503  42.559  13.021
67326W        W38997  23.007  23.430  14.797
67327W        W38998   5.716  27.681   0.395
67328W        W38999  25.736  10.079   2.237
67329W        W39000   7.789  42.553   3.302
67330W        W39001  44.286   6.252   2.121
67331W        W39002  15.540  17.668  11.693
67332W        W39003  23.935  38.570   5.092
67333W        W39004  22.936  19.700   3.137
67334W        W39005   8.849  44.437   1.670
67335W        W39006  17.024   7.294   0.743
67336W        W39007   6.744  30.631  11.163
67337W        W39008  38.314  17.849   1.918
67338W        W39009  39.007   8.438  10.724
67339W        W39010  21.215  23.645  13.964
67340W        W39011  42.910  23.355  13.525
67341W        W39012  20.395   6.364  13.087
67342W        W39013  24.569  35.067   3.254
67343W        W39014  29.182  24.577   0.313
67344W        W39015  19.587  43.779   4.175
67345W        W39016  13.378  22.008  12.573
67346W        W39017  12.245  32.993  10.528
67347W        W39018   9.898   4.460   2.792
67348W        W39019  21.758   3.925  12.439
67349W        W39020  22.655   6.897   4.147
67350W        W39021  10.563  41.494   4.996
67351W        W39022  28.955  31.939  11.097
67352W        W39023   5.467  20.633   1.171
67353W        W39024   1.406   9.438   0.369
67354W        W39025  30.099  30.518  11.097
67355W        W39026  35.842   0.929   2.366
67356W        W39027  35.486   6.222  14.122
67357W        W39028  32.864   3.676   2.936
67358W        W39029  17.804   5.835  12.935
67359W        W39030   5.672  23.424  13.081
67360W        W39031  22.800   4.449  14.913
67361W        W39032   4.844  28.191  11.038
67362W        W39033  26.065  17.266  13.084
67363W        W39034  25.565  26.040   3.303
67364W        W39035  40.298  42.551   0.849
67365W        W39036  38.516  32.358  10.966
67366W        W39037  44.657  13.850   3.626
67367W        W39038  17.179  10.802  13.434
67368W        W39039   3.462   0.823  11.727
67369W        W39040  19.180  22.677  13.982
67370W        W39041   7.920  39.206   3.696
67371W        W39042  39.749   0.274  13.919
67372W        W39043   7.932  24.445   0.426
67373W        W39044  27.668  20.965  10.331
67374W        W39045  31.437  14.233  11.986
67375W        W39046  43.383  39.486  13.416
67376W        W39047  31.904  19.595   0.009
67377W        W39048  10.441   8.178   1.897
67378W        W39049  38.158   4.003  12.529
67379W        W39050  25.346   7.383   1.961
67380W        W39051  18.324  37.069   0.889
67381W        W39052  43.370  20.500   3.247
67382W        W39053  28.923  10.147   4.657
67383W        W39054  25.439  23.001   2.335
67384W        W39055  11.705  24.983   3.612
67385W        W39056  41.086  35.389  13.850
67386W        W39057  15.377  14.294   1.327
67387W        W39058  18.697  28.306   4.710
67388W        W39059  37.525  22.689   2.339
67389W        W39060   5.624  12.269  13.950
67390W        W39061  20.958  39.455   9.965
67391W        W39062  22.596   7.421  12.513
67392W        W39063  27.159  15.813   0.461
67393W        W39064  21.007   5.227  12.362
67394W        W39065  15.362  40.544  12.444
67395W        W39066  12.369  27.092  12.352
67396W        W39067  16.439   2.007   0.256
67397W        W39068   9.884  30.574   4.908
67398W        W39069  39.047  28.030  11.449
67399W        W39070  25.004  32.109   2.411
67400W        W39071  44.918  28.058   4.027
67401W        W39072   0.282  14.786   2.709
67402W        W39073   9.085  25.077   1.849
67403W        W39074   0.735  13.306   4.708
67404W        W39075  42.604  11.232  11.887
67405W        W39076  31.423  19.109   2.850
67406W        W39077  39.509  26.220  14.256
67407W        W39078  34.604   3.408   2.621
67408W        W39079  30.966   1.648   3.396
67409W        W39080   8.567  40.054   3.668
67410W        W39081   0.326  23.745   1.840
67411W        W39082  32.508  17.541   4.768
67412W        W39083  16.322  25.691  13.319
67413W        W39084  39.389   5.326  11.358
67414W        W39085  17.606  22.488   2.659
67415W        W39086  28.796  29.915  13.833
67416W        W39087  15.193   2.952  10.466
67417W        W39088  20.039  14.645   1.342
67418W        W39089  23.124  33.977   1.401
67419W        W39090  43.233  20.571   2.758
67420W        W39091  42.987  28.467  11.931
67421W        W39092  24.719  16.555   0.233
67422W        W39093  21.189  26.172  12.758
67423W        W39094  22.903   1.895  11.573
67424W        W39095  42.526  28.690   2.713
67425W        W39096  33.614  33.920  14.369
67426W        W39097  44.779  21.281   0.401
67427W        W39098  41.190  41.861   1.292
67428W        W39099  38.450  18.688  14.249
67429W        W39100  13.654  12.173  13.397
67430W        W39101  41.789  41.969   3.150
67431W        W39102   5.218  28.620   2.341
67432W        W39103  19.536  30.753  12.608
67433W        W39104  35.073  26.650   3.589
67434W        W39105  27.575  38.734   0.077
67435W        W39106  34.127  27.455  12.452
67436W        W39107  27.074  37.088   1.900
67437W        W39108  10.010  28.073   2.808
67438W        W39109  21.548  12.377   0.919
67439W        W39110  18.287  29.951   0.488
67440W        W39111  28.184  30.554  10.381
67441W        W39112  24.765  14.343   1.895
67442W        W39113  29.678  27.492   0.781
67443W        W39114  24.998  44.657  13.851
67444W        W39115  28.684  32.966  12.323
67445W        W39116  39.606  22.022  12.635
67446W        W39117  36.290   8.789  14.895
67447W        W39118  17.549  32.849  11.844
67448W        W39119   4.881   0.716   1.768
67449W        W39120  13.593  42.962  10.729
67450W        W39121  43.350  24.811   0.323
67451W        W39122   5.715  11.143   2.717
67452W        W39123  24.055  19.235  14.967
67453W        W39124   7.362  28.027  10.724
67454W        W39125  18.173  44.401  14.770
67455W        W39126   6.983  27.730   3.760
67456W        W39127  23.137   9.672  13.479
67457W        W39128  44.355   2.170   2.313
67458W        W39129  43.603   5.649   3.232
67459W        W39130  40.590  24.771   0.104
67460W        W39131  27.123  15.294   3.931
67461W        W39132  36.500   4.652   0.777
67462W        W39133  31.173  38.495  13.158
67463W        W39134  18.453  20.772  11.652
67464W        W39135  14.785  16.746  13.056
67465W        W39136   2.391  32.561   3.185
67466W        W39137  13.078  28.010   5.069
67467W        W39138   2.272  18.012  11.602
67468W        W39139   7.773  22.509   1.876
67469W        W39140   3.742  25.929  13.080
67470W        W39141  27.134  17.718   3.692
67471W        W39142   7.750  30.873  13.267
67472W        W39143  44.753   6.432   3.564
67473W        W39144   0.294   1.961  11.849
67474W        W39145  15.173   0.197  11.297
67475W        W39146  30.204  15.335   1.083
67476W        W39147  22.992  24.541  13.682
67477W        W39148  18.786  18.483   4.119
67478W        W39149  43.496  21.216  13.514
67479W        W39150  16.749   0.860   0.989
67480W        W39151   9.425  40.381   2.275
67481W        W39152  36.546  33.446   3.762
67482W        W39153  15.578   0.472   2.917
67483W        W39154  18.174  19.051  13.417
67484W        W39155  12.131  29.205  12.957
67485W        W39156  12.843  29.513   1.018
67486W        W39157   7.087  33.070   0.845
67487W        W39158  16.227   4.896   4.285
67488W        W39159  44.458  18.572   1.808
67489W        W39160   4.100  20.846   5.766
67490W        W39161  27.419  24.749  12.474
67491W        W39162  22.149   2.413   3.619
67492W        W39163  13.382   3.197  10.682
67493W        W39164  15.222   3.961  14.964
67494W        W39165  37.434  30.910   1.770
67495W        W39166  27.179  27.745  11.076
67496W        W39167  34.662  29.186   0.420
67497W        W39168  22.543  30.500   4.563
67498W        W39169  41.225  16.148   2.196
67499W        W39170  34.028  20.533  11.499
67500W        W39171  35.356  27.695   3.722
67501W        W39172  16.148   0.282   1.797
67502W        W39173   9.422   2.120  11.209
67503W        W39174  26.411  38.566  14.131
67504W        W39175   9.761  32.165   1.474
67505W        W39176  37.967  14.138   2.046
67506W        W39177  23.162   9.118   1.934
67507W        W39178  40.802  33.908  11.626
67508W        W39179  16.794  42.845  11.110
67509W        W39180  38.311   9.315  11.094
67510W        W39181  24.444  25.542  13.542
67511W        W39182   6.399  12.369   3.108
67512W        W39183   6.119   4.355   2.781
67513W        W39184   2.981   4.363   4.334
67514W        W39185  14.397  16.616   1.827
67515W        W39186  36.462   7.505  12.848
67516W        W39187  12.785  15.803   2.294
67517W        W39188   1.878   0.215   3.754
67518W        W39189  29.600  10.223   0.744
67519W        W39190  16.835  23.004  14.328
67520W        W39191  20.015  16.803   4.092
67521W        W39192  22.947  31.123  14.847
67522W        W39193  44.967  31.076   3.744
67523W        W39194   9.145  44.711  11.927
67524W        W39195  32.260  35.360  13.992
67525W        W39196  16.007  31.352   1.319
67526W        W39197  31.920  33.044   4.174
67527W        W39198  37.574   1.685   4.729
67528W        W39199  28.027  22.948   1.697
67529W        W39200  20.986  26.202  10.998
67530W        W39201   1.350  30.205  11.465
67531W        W39202  30.414  21.624   0.826
67532W        W39203  43.876  21.708   1.867
67533W        W39204   4.706  40.526   3.749
67534W        W39205  37.353  27.605  14.816
67535W        W39206  44.874  10.891  14.004
67536W        W39207  13.239  10.603  14.401
67537W        W39208   3.543  40.661  10.440
67538W        W39209  30.632  12.619  11.802
67539W        W39210  20.984  32.534   2.731
67540W        W39211   8.179   1.402   3.377
67541W        W39212   2.248  20.494  10.553
67542W        W39213  30.586  22.660   0.017
67543W        W39214  35.336   1.543  12.377
67544W        W39215  21.906   6.457   4.840
67545W        W39216  43.380  14.647  10.600
67546W        W39217   0.707   7.416   2.169
67547W        W39218  28.091  36.572  12.021
67548W        W39219  42.886   7.222  12.808
67549W        W39220  20.688  21.299   2.302
67550W        W39221  31.871  22.249  12.890
67551W        W39222  23.779  18.243  13.894
67552W        W39223   8.957  40.088   0.034
67553W        W39224  39.332  40.238  14.379
67554W        W39225  34.913   7.141   3.657
67555W        W39226  29.645   1.820  14.309
67556W        W39227  12.130   4.300  12.446
67557W        W39228   8.375  40.947  14.356
67558W        W39229  12.861   1.794   1.755
67559W        W39230  37.520  43.953   2.267
67560W        W39231  19.442  16.078  13.547
67561W        W39232  20.182   1.533   3.698
67562W        W39233  41.703   6.383   4.141
67563W        W39234  29.206  36.975   2.562
67564W        W39235  36.965   8.000  14.374
67565W        W39236  22.102  21.832   2.016
67566W        W39237  40.775  42.030  13.964
67567W        W39238   3.926  22.690   1.772
67568W        W39239   6.718  31.899   4.651
67569W        W39240  29.190  36.397  13.020
67570W        W39241  17.308  42.946   4.485
67571W        W39242  37.694  38.125   1.925
67572W        W39243  23.766  21.966   1.736
67573W        W39244  35.540   5.023   4.415
67574W        W39245  37.324  13.810   1.901
67575W        W39246  20.097  19.960  13.457
67576W        W39247  12.882  44.310   0.952
67577W        W39248   3.897  37.774  13.489
67578W        W39249   0.917  34.110   4.593
67579W        W39250  44.468  24.454  12.496
67580W        W39251   6.647  43.988  13.838
67581W        W39252  23.072  27.610  14.650
67582W        W39253  33.104  31.680  14.804
67583W        W39254   1.321  30.489   0.892
67584W        W39255  12.296  25.152  13.389
67585W        W39256   3.828   5.402   2.307
67586W        W39257   8.899  36.986  14.549
67587W        W39258  23.724  22.287  10.778
67588W        W39259  29.047  36.338   2.893
67589W        W39260  12.911  36.887  13.009
67590W        W39261  25.552  12.100   1.388
67591W        W39262  18.304  21.967   1.601
67592W        W39263   5.149   6.689   4.594
67593W        W39264   1.815  43.317   2.761
67594W        W39265   0.381  21.090   1.532
67595W        W39266  24.711  18.923  10.403
67596W        W39267  19.663  43.389   3.243
67597W        W39268  21.636  37.050  13.593
67598W        W39269  38.633  35.862   9.734
67599W        W39270  32.149  32.533   4.254
67600W        W39271  13.798  29.633   3.194
67601W        W39272  24.692  10.212  11.616
67602W        W39273  33.089   2.716  10.928
67603W        W39274  20.319   9.646  14.272
67604W        W39275  15.993  20.545  11.189
67605W        W39276   4.340  26.698   2.846
67606W        W39277  20.175  29.999  14.397
67607W        W39278  10.327   4.134   2.699
67608W        W39279  33.970  12.848  12.842
67609W        W39280  37.160  21.686  13.599
67610W        W39281  41.794   3.364   3.564
67611W        W39282  10.861  15.304   4.677
67612W        W39283  31.204  27.554  10.715
67613W        W39284  22.555  14.636  11.756
67614W        W39285  24.945  33.372  14.019
67615W        W39286  43.224   0.021  14.442
67616W        W39287  14.800  11.154   0.877
67617W        W39288   7.411   7.230   1.796
67618W        W39289  21.633  23.122  10.752
67619W        W39290  22.226  36.252   2.260
67620W        W39291  24.110   5.747   3.692
67621W        W39292  35.638  17.811   3.024
67622W        W39293  30.610  39.422  11.717
67623W        W39294  26.027  29.139  10.712
67624W        W39295  22.186  24.940   4.149
67625W        W39296  36.468  27.405   0.462
67626W        W39297  35.964   4.380   4.520
67627W        W39298   2.941  10.181   4.648
67628W        W39299  24.610   3.924  12.153
67629W        W39300  43.751  20.376   5.303
67630W        W39301  40.977  14.661   0.320
67631W        W39302  25.484  33.590  12.086
67632W        W39303  11.269  28.880  11.401
67633W        W39304   9.816   1.929   3.757
67634W        W39305  43.317  20.062  11.469
67635W        W39306  25.277   1.438   2.468
67636W        W39307   4.615  40.851   0.497
67637W        W39308  13.376  36.453   0.760
67638W        W39309  20.753  14.897   4.985
67639W        W39310  34.684   6.726   4.573
67640W        W39311  13.838   5.945   3.615
67641W        W39312  31.618  40.044  12.975
67642W        W39313  24.041  11.739   1.782
67643W        W39314   0.358  21.567   1.194
67644W        W39315  11.696  10.152   2.532
67645W        W39316  37.360  32.945   1.035
67646W        W39317  20.088  31.385  14.452
67647W        W39318  17.146  10.546   3.744
67648W        W39319  44.807   6.228  14.651
67649W        W39320   1.291  36.331   2.310
67650W        W39321  15.121   7.318   0.295
67651W        W39322  19.240   5.006  13.488
67652W        W39323  24.299  36.526   3.226
67653W        W39324  38.017   7.401   1.259
67654W        W39325  24.853  37.555  11.640
67655W        W39326  23.778  21.103  14.477
67656W        W39327  43.578  29.513   2.113
67657W        W39328  37.369   0.872   4.102
67658W        W39329  34.520  37.860  12.836
67659W        W39330  28.163  19.459  10.813
67660W        W39331  15.263  22.805   1.444
67661W        W39332  18.199   6.147  12.295
67662W        W39333  36.995  17.079   2.677
67663W        W39334  11.033   1.808  13.006
67664W        W39335   1.652  28.132   2.062
67665W        W39336  25.099   0.127   4.544
67666W        W39337  35.931  40.405  14.382
67667W        W39338  11.085  17.949  12.546
67668W        W39339   3.095  38.379   4.956
67669W        W39340  18.369  10.125   3.270
67670W        W39341   3.791  23.227  11.952
67671W        W39342  12.076   9.070  13.137
67672W        W39343  44.496  30.991  14.533
67673W        W39344   4.931   3.719   3.814
67674W        W39345  26.616  26.274  12.519
67675W        W39346  39.100  23.880  14.434
67676W        W39347  39.119  20.446   2.097
67677W        W39348  29.111   3.200  12.614
67678W        W39349  21.194  15.121  12.152
67679W        W39350  44.054  28.621  11.471
67680W        W39351  39.602  26.625   4.624
67681W        W39352  14.781  28.434   2.311
67682W        W39353   1.919  37.461  10.715
67683W        W39354  23.098   9.682   1.443
67684W        W39355   2.618  33.478  13.514
67685W        W39356  22.974  24.923   0.803
67686W        W39357   3.717  41.778  10.322
67687W        W39358  13.785  32.532   2.804
67688W        W39359   4.004  25.440  12.584
67689W        W39360  34.063  42.250  11.663
67690W        W39361  23.599   4.465  11.272
67691W        W39362  28.468  21.027  13.078
67692W        W39363  27.713  18.676   3.330
67693W        W39364  20.205  22.387  13.380
67694W        W39365  11.447  42.954   3.329
67695W        W39366  19.018   9.766   2.932
67696W        W39367  13.642  39.524   2.705
67697W        W39368  34.358  30.506   0.559
67698W        W39369  33.184  13.770  11.295
67699W        W39370  26.261  33.408  11.375
67700W        W39371  42.815  20.357  11.148
67701W        W39372  24.077  31.049   2.285
67702W        W39373  36.825  36.039  12.976
67703W        W39374  39.104   9.968   3.697
67704W        W39375  14.658  43.598  13.442
67705W        W39376  39.938  33.131   0.868
67706W        W39377   5.321  38.637  13.498
67707W        W39378  20.024   3.278  11.182
67708W        W39379  31.633  24.303   3.862
67709W        W39380  12.411  43.780  11.697
67710W        W39381   7.337  11.709  14.850
67711W        W39382  21.057   0.321   0.872
67712W        W39383  20.649  44.699   2.205
67713W        W39384  10.777  16.390  14.008
67714W        W39385  25.478  34.868   4.528
67715W        W39386   5.782   4.388   0.340
67716W        W39387  22.817  40.570  14.338
67717W        W39388  32.673  15.000   2.253
67718W        W39389  23.490  40.888   4.112
67719W        W39390  19.809  31.228   1.053
67720W        W39391   2.335  37.978   2.840
67721W        W39392  38.106  27.680  12.743
67722W        W39393  34.018  40.948  13.574
67723W        W39394  18.616   1.251   3.184
67724W        W39395  16.215   4.138   5.042
67725W        W39396  27.475  30.993   1.285
67726W        W39397  18.023  27.687   4.531
67727W        W39398  31.565   3.972   2.236
67728W        W39399   5.257   6.152  14.540
67729W        W39400  20.633  12.187  11.233
67730W        W39401   2.775   8.313  14.952
67731W        W39402  17.362   5.163   4.284
67732W        W39403  17.060   7.662  10.431
67733W        W39404  42.201  38.405  14.609
67734W        W39405  12.771  26.533  14.501
67735W        W39406  13.521  26.244  10.703
67736W        W39407  26.124  39.455  11.295
67737W        W39408  37.304  30.581   3.857
67738W        W39409  23.599  25.311   1.349
67739W        W39410  20.670  22.809   2.786
67740W        W39411  16.762  20.468   4.183
67741W        W39412  21.693   9.681  12.956
67742W        W39413  23.214  16.646   1.043
67743W        W39414   0.499  13.557  11.458
67744W        W39415  32.002  39.505   1.310
67745W        W39416  22.081  28.592   1.650
67746W        W39417  11.632  19.605   9.705
67747W        W39418  30.444  40.901   1.667
67748W        W39419   8.470  38.280  11.253
67749W        W39420  31.285  36.364  14.275
67750W        W39421   0.578   5.983  12.442
67751W        W39422  11.218   5.894   1.661
67752W        W39423  15.752  38.386   1.705
67753W        W39424   5.760  35.071  12.412
67754W        W39425   7.275   5.315   4.880
67755W        W39426  10.602  19.658   2.194
67756W        W39427  38.425  16.585  10.773
67757W        W39428  23.617  23.806  14.525
67758W        W39429  34.971   6.391   0.886
67759W        W39430   0.673  43.449  14.965
67760W        W39431  32.174   3.182  11.593
67761W        W39432  43.452  39.502  12.150
67762W        W39433  14.502  25.042  12.175
67763W        W39434  16.928   7.415   3.809
67764W        W39435   1.655  27.688   3.693
67765W        W39436  13.750  35.352  12.594
67766W        W39437  39.520  29.637  14.988
67767W        W39438  34.056  23.974   0.490
67768W        W39439  30.057  24.672   2.861
67769W        W39440   7.244  38.301   3.703
67770W        W39441  36.975  19.663   3.906
67771W        W39442   9.395  39.473   4.748
67772W        W39443  11.685  36.055   4.580
67773W        W39444   7.590  17.276  13.442
67774W        W39445  20.319   3.963   1.716
67775W        W39446   7.157  27.052   0.335
67776W        W39447   7.389   3.088   2.618
67777W        W39448  25.028  40.254   4.392
67778W        W39449  15.692   8.855   2.955
67779W        W39450  20.782  28.146   3.372
67780W        W39451  42.817   4.213  14.261
67781W        W39452  16.091  20.126  14.858
67782W        W39453   1.457   4.167   2.998
67783W        W39454   4.427  21.027   1.269
67784W        W39455  41.857   5.218  13.364
67785W        W39456  17.816   8.496   0.789
67786W        W39457  29.644  13.703  13.449
67787W        W39458  41.956  10.140  13.282
67788W        W39459  12.297  16.609  14.122
67789W        W39460  16.487  32.439   2.727
67790W        W39461  16.711  14.312  13.978
67791W        W39462  10.624  15.617   2.479
67792W        W39463   5.893  30.800  11.544
67793W        W39464  33.425   4.151  14.651
67794W        W39465  13.661  19.602   1.244
67795W        W39466   1.413  31.049  12.916
67796W        W39467  30.000  27.332   2.104
67797W        W39468   9.850   1.554  13.923
67798W        W39469  16.364  26.897  14.380
67799W        W39470  17.711  14.657  12.165
67800W        W39471  34.854   5.242   3.626
67801W        W39472   6.113  36.336   4.585
67802W        W39473  23.772  41.049   4.523
67803W        W39474  11.870  12.922   5.229
67804W        W39475  28.492  36.078   1.525
67805W        W39476  24.550   1.246   3.753
67806W        W39477  10.609  31.320  13.068
67807W        W39478  11.760  33.618  12.958
67808W        W39479   1.705  27.245   2.377
67809W        W39480  27.690  36.327   4.013
67810W        W39481  27.932  29.450   0.026
67811W        W39482   8.909  13.407  12.716
67812W        W39483  19.663  16.285  12.668
67813W        W39484  42.855  26.083  11.156
67814W        W39485  14.981  38.928   1.324
67815W        W39486  29.539  43.408   2.738
67816W        W39487   2.482   0.238   1.318
67817W        W39488   5.786   7.209   0.753
67818W        W39489  13.903   1.233  11.158
67819W        W39490  18.024  25.525  13.951
67820W        W39491  31.494  38.428  10.734
67821W        W39492  12.425  29.596  13.132
67822W        W39493  12.162  19.227  13.776
67823W        W39494  25.230  41.398  11.168
67824W        W39495  20.296  30.447  14.102
67825W        W39496  29.085  21.758   2.721
67826W        W39497  39.175   6.891   2.600
67827W        W39498   9.065  20.736  11.209
67828W        W39499  34.379  20.236   4.781
67829W        W39500  30.282  21.104   4.636
67830W        W39501  15.320  30.452   0.921
67831W        W39502  41.768  42.967   1.006
67832W        W39503  28.364  23.603   1.329
67833W        W39504  24.649  14.943  14.069
67834W        W39505   0.960   1.993  11.575
67835W        W39506  36.098  16.471  12.692
67836W        W39507  41.838   7.646   0.834
67837W        W39508   2.889  23.140   0.946
67838W        W39509  13.788  28.893   1.859
67839W        W39510  29.502  14.310  11.190
67840W        W39511  39.975  42.434   3.809
67841W        W39512  23.682  32.161  14.974
67842W        W39513  28.981  17.632   0.320
67843W        W39514  30.439  38.973   1.391
67844W        W39515  34.600  38.254  12.127
67845W        W39516  17.779  40.083  12.546
67846W        W39517  22.743  39.703   2.633
67847W        W39518  16.548   0.618   1.862
67848W        W39519  29.632  17.715   4.583
67849W        W39520  43.760  24.868   2.669
67850W        W39521   2.316  12.165  14.853
67851W        W39522  25.217   9.824  14.715
67852W        W39523  39.532  33.601  13.871
67853W        W39524   7.396  14.581   3.814
67854W        W39525  34.148  42.495   2.666
67855W        W39526  13.552  36.798   2.634
67856W        W39527   5.480  28.167   9.901
67857W        W39528   8.722   8.189  13.927
67858W        W39529  19.518   0.973   1.842
67859W        W39530  31.339  17.976  14.596
67860W        W39531  11.771  40.699  12.025
67861W        W39532  26.170   9.369  14.455
67862W        W39533  13.345  44.958   3.096
67863W        W39534  38.395   0.200   0.892
67864W        W39535  19.755  43.020  14.388
67865W        W39536  10.286  14.989   1.299
67866W        W39537  40.316  42.319  13.976
67867W        W39538  40.896   3.917  12.655
67868W        W39539  37.571   5.162  13.563
67869W        W39540   4.169  39.459  14.758
67870W        W39541  34.460   6.381   1.038
67871W        W39542  16.336   1.261  13.051
67872W        W39543   1.922  38.617  12.606
67873W        W39544  19.127  40.348  11.896
67874W        W39545  30.650  31.395   0.777
67875W        W39546  34.876  25.084   0.192
67876W        W39547  34.574  44.782  10.896
67877W        W39548  44.415  40.845  10.873
67878W        W39549  37.932  33.745  11.974
67879W        W39550  15.325  35.551   0.684
67880W        W39551   0.279  30.436  14.478
67881W        W39552  31.279  27.377  13.868
67882W        W39553  25.106  20.104  13.073
67883W        W39554   2.471  34.700  10.752
67884W        W39555   3.370  17.751  11.041
67885W        W39556  33.344   3.101   4.924
67886W        W39557  34.145  13.261   0.104
67887W        W39558  13.195  43.475  12.406
67888W        W39559   3.915   6.773  13.015
67889W        W39560   7.181  23.104   1.805
67890W        W39561  31.344  33.859   0.763
67891W        W39562  41.724  20.330  10.698
67892W        W39563  11.729  38.044  14.285
67893W        W39564  11.538  43.745   1.904
67894W        W39565  19.666  16.327   3.340
67895W        W39566  14.830   2.009  13.302
67896W        W39567  13.731  10.713  12.107
67897W        W39568  30.201   8.472   5.126
67898W        W39569   8.805  34.563   2.883
67899W        W39570  31.968   9.916  13.920
67900W        W39571  39.404   6.353  11.765
67901W        W39572  23.168   7.985  11.970
67902W        W39573  19.212  35.592  13.365
67903W        W39574  11.583  41.435  14.063
67904W        W39575  38.506   2.775  11.158
67905W        W39576  40.617  33.462   3.242
67906W        W39577   1.818  42.178   4.771
67907W        W39578  23.505  10.136   2.481
67908W        W39579  38.511   6.135  13.688
67909W        W39580   2.453   8.728  12.899
67910W        W39581  16.921  10.782  12.963
67911W        W39582  42.047   1.768  11.113
67912W        W39583  18.161  27.103  12.446
67913W        W39584  39.892  33.080   3.338
67914W        W39585   8.419   0.243   1.799
67915W        W39586  22.017  20.980  12.054
67916W        W39587  39.362  27.452  10.657
67917W        W39588  28.859  11.877   2.613
67918W        W39589   2.998  34.980   2.427
67919W        W39590  25.942   1.901  13.526
67920W        W39591  36.579  19.491   4.671
67921W        W39592   9.268   2.145   3.763
67922W        W39593  43.246  18.122  12.536
67923W        W39594  41.424  36.601  13.367
67924W        W39595   0.640  10.467   4.027
67925W        W39596  34.607  35.872  12.377
67926W        W39597  19.154   8.515   4.881
67927W        W39598  35.898  33.350  11.726
67928W        W39599   9.910  23.518   0.681
67929W        W39600  13.488  34.578   1.284
67930W        W39601  16.346  19.421   2.218
67931W        W39602  32.302  26.232  11.230
67932W        W39603  30.000  17.030   2.842
67933W        W39604  23.195  28.531  14.485
67934W        W39605  43.790   4.905   2.891
67935W        W39606  10.475  31.900  11.043
67936W        W39607  20.354  16.559   2.787
67937W        W39608  28.278  26.621   0.899
67938W        W39609   7.424  38.010  14.472
67939W        W39610  10.354   9.839  14.781
67940W        W39611  44.621  28.428   2.815
67941W        W39612  32.077  17.225  12.209
67942W        W39613  25.941   6.805  14.293
67943W        W39614   2.679  34.929   4.355
67944W        W39615  22.137   1.351   3.722
67945W        W39616  39.514  38.942  11.181
67946W        W39617  15.706  34.416  14.546
67947W        W39618  42.418  19.240  13.593
67948W        W39619  22.555  40.533  14.818
67949W        W39620  24.105   4.451   2.621
67950W        W39621  15.662  31.702   3.226
67951W        W39622   0.802   1.796   1.780
67952W        W39623   8.410  24.535   0.298
67953W        W39624  20.767   1.350  13.872
67954W        W39625  20.268   1.195  13.855
67955W        W39626  35.159  26.971  14.473
67956W        W39627   8.155   6.861   4.275
67957W        W39628  19.010   5.019  12.560
67958W        W39629  34.802  26.032  13.362
67959W        W39630  10.611  28.932   2.737
67960W        W39631  33.480   4.795  10.628
67961W        W39632  36.390  24.196   2.149
67962W        W39633   4.426   9.674  11.143
67963W        W39634  37.131  13.838  11.105
67964W        W39635  25.458  11.008   2.215
67965W        W39636  27.516  23.041   3.364
67966W        W39637  26.220   2.096  13.958
67967W        W39638  33.438  35.566  13.009
67968W        W39639  17.818   2.669  11.237
67969W        W39640  18.731  35.933   2.738
67970W        W39641  15.546   3.390  12.275
67971W        W39642  14.786  35.198  12.493
67972W        W39643   9.298  19.597   4.915
67973W        W39644   5.657  15.811   1.572
67974W        W39645  20.532   7.714   0.020
67975W        W39646  20.995  41.483  11.133
67976W        W39647   8.746  22.095   2.814
67977W        W39648  43.306  15.994  11.439
67978W        W39649  34.695  21.227  14.368
67979W        W39650  40.510  43.547   1.725
67980W        W39651   3.222   8.827   2.154
67981W        W39652  29.560  26.169   3.419
67982W        W39653  33.912  23.162  11.524
67983W        W39654   3.176  31.638   1.719
67984W        W39655  32.707  18.560  11.138
67985W        W39656  29.137  22.066  12.166
67986W        W39657  25.953  12.251  10.633
67987W        W39658   1.540  30.611  11.720
67988W        W39659  18.755  12.805   1.461
67989W        W39660  15.396  16.842   5.060
67990W        W39661   7.722  32.855   3.277
67991W        W39662  44.515  30.351  12.866
67992W        W39663  13.508  16.142  13.439
67993W        W39664  40.559  15.399   2.122
67994W        W39665  23.679  29.122  12.092
67995W        W39666  42.030   5.341   3.877
67996W        W39667   3.118   8.679   1.672
67997W        W39668  44.933  37.605   4.825
67998W        W39669  17.976  24.983   1.840
67999W        W39670   1.844  37.462   3.899
68000W        W39671   1.272  31.605   0.050
68001W        W39672  11.774   1.026   2.696
68002W        W39673  31.530  32.117  11.915
68003W        W39674  39.854   5.265   0.804
68004W        W39675  13.183  24.704  13.826
68005W        W39676  27.045  43.229  12.011
68006W        W39677   2.259   8.725   1.728
68007W        W39678  31.614  20.788  14.109
68008W        W39679   8.271   9.391  13.436
68009W        W39680  38.275  20.327  10.687
68010W        W39681  17.773  18.396  14.406
68011W        W39682  25.594  24.057   1.198
68012W        W39683  22.210  11.107   2.808
68013W        W39684  30.603  20.679  13.368
68014W        W39685  34.944  30.550  11.928
68015W        W39686  43.972  31.567  10.727
68016W        W39687  42.251  32.901   2.816
68017W        W39688  22.704  28.649  14.501
68018W        W39689  44.435  13.804   2.184
68019W        W39690  24.169  36.566  11.173
68020W        W39691   5.666  31.882  13.801
68021W        W39692  12.582  33.058  12.166
68022W        W39693  11.237  10.863   2.355
68023W        W39694   4.211  44.522  11.847
68024W        W39695  18.808  22.990   2.418
68025W        W39696  31.526   1.576   4.883
68026W        W39697  19.491   3.441   4.279
68027W        W39698   0.721  23.542  11.380
68028W        W39699  30.493  43.655   1.820
68029W        W39700  21.148  12.191   3.745
68030W        W39701  43.539   0.242  13.300
68031W        W39702  12.002  30.988   3.107
68032W        W39703  40.974  23.278   4.011
68033W        W39704  34.329  30.878   0.915
68034W        W39705  18.735  26.104   1.560
68035W        W39706  28.410  13.984  14.444
68036W        W39707  25.014  12.657  14.886
68037W        W39708   1.246  26.994  14.786
68038W        W39709  34.167  22.348   1.690
68039W        W39710   8.871  44.739   0.424
68040W        W39711  33.294  12.325   4.766
68041W        W39712  32.334  33.477  12.162
68042W        W39713  25.514   0.882   4.498
68043W        W39714  30.587  40.439  11.502
68044W        W39715  25.178  18.879   3.184
68045W        W39716   7.709  29.586  14.926
68046W        W39717  13.312   9.191  14.620
68047W        W39718  23.609  35.300  13.144
68048W        W39719  43.283   8.819   2.759
68049W        W39720  37.448  13.051  11.042
68050W        W39721  16.524  28.893   3.293
68051W        W39722   5.752  35.124  13.395
68052W        W39723  19.743  33.167  12.345
68053W        W39724  35.312   0.738   3.184
68054W        W39725  31.956  10.268  14.332
68055W        W39726  32.596  35.467   0.041
68056W        W39727  26.460  16.800   2.761
68057W        W39728  12.701   4.517  12.946
68058W        W39729  24.575  43.405   0.183
68059W        W39730  20.352  41.984   2.787
68060W        W39731  35.398  34.010   2.226
68061W        W39732  20.194  29.666   1.773
68062W        W39733  41.339  11.629  13.913
68063W        W39734   2.652   9.320  12.468
68064W        W39735   4.442  34.725  14.474
68065W        W39736  42.667  21.828   5.298
68066W        W39737   6.294  31.108  11.627
68067W        W39738   6.761  18.185  14.444
68068W        W39739  40.150  13.927  14.482
68069W        W39740  28.094   7.986   3.122
68070W        W39741  36.862  40.300  12.856
68071W        W39742  12.917   4.281  10.848
68072W        W39743   0.420   1.392   1.157
68073W        W39744   2.266  27.581   0.216
68074W        W39745  42.534   0.895  13.803
68075W        W39746  38.420  28.100  13.367
68076W        W39747  17.167   3.470   1.977
68077W        W39748   6.559  20.792   0.757
68078W        W39749  25.177  12.694  12.119
68079W        W39750  23.749  43.790  13.004
68080W        W39751  12.529  39.646  14.994
68081W        W39752  14.828  43.525   3.131
68082W        W39753  23.541   1.808   0.060
68083W        W39754  38.694   6.911  14.471
68084W        W39755  33.045  22.627   3.224
68085W        W39756  30.500  12.835   4.223
68086W        W39757  35.494  42.948  10.552
68087W        W39758  37.714  13.864  12.613
68088W        W39759  23.497  23.616   4.133
68089W        W39760  39.416  21.247   0.471
68090W        W39761   7.401  40.557   2.164
68091W        W39762  30.164  10.670   2.330
68092W        W39763   2.467   5.216   3.725
68093W        W39764  19.582  29.399  12.651
68094W        W39765   5.823   7.713   1.933
68095W        W39766  37.900   6.235  13.062
68096W        W39767  12.623  29.613   1.924
68097W        W39768  23.223  10.921   2.770
68098W        W39769  44.324  30.247  11.859
68099W        W39770   7.298  24.534   1.158
68100W        W39771   0.852  30.107  11.406
68101W        W39772  20.310  26.121   3.789
68102W        W39773  18.977  22.529   1.778
68103W        W39774  17.978  37.227  14.659
68104W        W39775  17.318  13.190  10.816
68105W        W39776  10.931  16.145  12.886
68106W        W39777  37.610  21.586   3.702
68107W        W39778  14.922  38.966  12.296
68108W        W39779   8.151  44.750   1.187
68109W        W39780  26.574  43.999   3.819
68110W        W39781  18.979   6.435   1.753
68111W        W39782  22.178  22.567  12.527
68112W        W39783  21.069  11.919  11.116
68113W        W39784  28.735   3.395  14.486
68114W        W39785  43.307  29.939  14.503
68115W        W39786  44.782  22.586  11.084
68116W        W39787  38.586  33.955  12.670
68117W        W39788  35.505  39.707  12.024
68118W        W39789  39.490  16.961  12.445
68119W        W39790  29.141  18.808  13.250
68120W        W39791   2.533  31.706   2.790
68121W        W39792  41.053  26.173  12.640
68122W        W39793  43.086  15.903  10.166
68123W        W39794   5.876  40.323   2.310
68124W        W39795  10.046  17.306  11.401
68125W        W39796  39.545  37.044  14.014
68126W        W39797  33.173   2.278  11.216
68127W        W39798  44.907  32.847   1.418
68128W        W39799  40.145   4.139  13.447
68129W        W39800  18.630  26.639  11.415
68130W        W39801  40.954  17.259   0.005
68131W        W39802   0.481   7.579   4.626
68132W        W39803   2.335  30.159   1.164
68133W        W39804   5.608   1.002   2.766
68134W        W39805  25.737  31.359  11.684
68135W        W39806  28.907  25.605   4.745
68136W        W39807  17.409  35.063  14.494
68137W        W39808  23.154  22.545   1.766
68138W        W39809  19.643  20.796   2.896
68139W        W39810  13.296  43.368   1.831
68140W        W39811  39.923  17.655   4.180
68141W        W39812  42.741  14.173   2.448
68142W        W39813  24.443   2.086  10.032
68143W        W39814  26.555  33.346   4.141
68144W        W39815  28.761  39.248   3.335
68145W        W39816   4.859  36.439  14.492
68146W        W39817  32.342   8.755  14.095
68147W        W39818  12.497  42.268   0.260
68148W        W39819  21.314  22.895   1.801
68149W        W39820  18.410  11.391  10.620
68150W        W39821  22.234   9.096  11.005
68151W        W39822  14.055  20.513  10.542
68152W        W39823  38.953   6.769   3.551
68153W        W39824   1.510  37.391  12.894
68154W        W39825  14.649  41.089  11.135
68155W        W39826  15.957  16.654  12.098
68156W        W39827  18.894  39.915  13.224
68157W        W39828  31.623   4.214  14.614
68158W        W39829   8.717  26.927  13.536
68159W        W39830  36.394  30.912   0.965
68160W        W39831  14.104   2.212   2.735
68161W        W39832  32.557   0.246   0.455
68162W        W39833   2.502  25.562  11.975
68163W        W39834  19.604   3.435   4.848
68164W        W39835   2.386  35.362  13.552
68165W        W39836  11.190  14.448   0.710
68166W        W39837   0.704  14.672  12.609
68167W        W39838  24.768  26.108   2.331
68168W        W39839  13.861  34.104  11.112
68169W        W39840  43.701  15.763  12.587
68170W        W39841  18.217  42.048  12.549
68171W        W39842  14.911  40.573   2.545
68172W        W39843  30.678  15.291  12.945
68173W        W39844  11.793  44.851  13.554
68174W        W39845  22.441  28.049   0.986
68175W        W39846   3.241  11.515   0.453
68176W        W39847   3.447  21.714  10.641
68177W        W39848   3.924  41.374  13.408
68178W        W39849  15.652  27.238   4.293
68179W        W39850  21.048   9.329   4.188
68180W        W39851   3.821  41.359   2.609
68181W        W39852  25.012  15.710  13.361
68182W        W39853  33.111  19.729   1.688
68183W        W39854  41.061  36.291   3.189
68184W        W39855  11.716   7.729  13.482
68185W        W39856  43.883   9.823  12.277
68186W        W39857  23.248  40.204  10.325
68187W        W39858  38.075  28.496   3.679
68188W        W39859  39.909  44.971  14.942
68189W        W39860   3.917  20.287   1.414
68190W        W39861  18.173  43.078  14.492
68191W        W39862  29.619   9.074  10.967
68192W        W39863  37.837  40.425  10.867
68193W        W39864  36.608  39.332   0.065
68194W        W39865   0.967   7.237   3.694
68195W        W39866  35.075  35.996   0.935
68196W        W39867  28.368  17.047  11.511
68197W        W39868  37.535  34.143   3.684
68198W        W39869  19.133  21.805  14.997
68199W        W39870  34.690  38.798  12.833
68200W        W39871  22.615  31.943   3.728
68201W        W39872  27.891  30.924  11.134
68202W        W39873   8.379   5.839  12.274
68203W        W39874  25.505  29.694  14.001
68204W        W39875   8.205  25.986   3.148
68205W        W39876  25.539  12.257   3.361
68206W        W39877  27.974  31.525  13.349
68207W        W39878  17.354  37.126   3.477
68208W        W39879  15.924  19.731   3.616
68209W        W39880  42.549  25.748   4.360
68210W        W39881  22.089  39.051   0.836
68211W        W39882  40.505  27.558   0.924
68212W        W39883   7.297  11.120  13.963
68213W        W39884  26.542  33.401   1.811
68214W        W39885   8.964  16.235   1.817
68215W        W39886   8.248  40.098   3.242
68216W        W39887  22.128   0.807  13.354
68217W        W39888  36.499  16.495  13.377
68218W        W39889  44.741  22.036  11.688
68219W        W39890   7.833   4.000  11.992
68220W        W39891  22.172   6.731  11.134
68221W        W39892  39.359   3.514   3.313
68222W        W39893  40.022   5.232  13.569
68223W        W39894  33.228  22.042  11.697
68224W        W39895   5.973  19.771  13.848
68225W        W39896  26.691  28.232  12.321
68226W        W39897  29.881  19.882  13.930
68227W        W39898  39.703  14.748   1.964
68228W        W39899   3.689  22.623   1.267
68229W        W39900  34.051  38.549   0.491
68230W        W39901  31.664  40.585  12.960
68231W        W39902  34.144  22.752  13.391
68232W        W39903  24.716  22.007  14.080
68233W        W39904  25.938   0.968  12.863
68234W        W39905  13.544  20.970  11.121
68235W        W39906  14.191  10.361  10.269
68236W        W39907  32.972   5.987   3.966
68237W        W39908   3.163  38.125  12.000
68238W        W39909  33.927  43.261   3.906
68239W        W39910  22.706   4.665   3.741
68240W        W39911   1.397  43.603   2.873
68241W        W39912   8.935  36.138  11.212
68242W        W39913   0.511  26.610  10.626
68243W        W39914   6.837  40.436   1.991
68244W        W39915  39.167  32.447  12.991
68245W        W39916  32.757  24.925  13.425
68246W        W39917  19.341  33.883  12.060
68247W        W39918  20.596   6.965   0.653
68248W        W39919  36.318  34.624  12.284
68249W        W39920  41.359   4.249   3.142
68250W        W39921   5.419  27.419  13.036
68251W        W39922  42.854  17.819   3.090
68252W        W39923  18.187  25.048   4.097
68253W        W39924  14.618  29.449   1.215
68254W        W39925  29.114   0.807   2.250
68255W        W39926  38.341  13.007   3.687
68256W        W39927   9.829  44.287  12.777
68257W        W39928  13.176  33.831  11.542
68258W        W39929  33.927  33.964  13.555
68259W        W39930  28.201  17.338   2.777
68260W        W39931  30.214  41.978  13.543
68261W        W39932  16.280   5.239  11.097
68262W        W39933  39.358  33.320   0.886
68263W        W39934  33.137  28.134   1.369
68264W        W39935   1.813   0.715   3.628
68265W        W39936  22.746   1.329  13.517
68266W        W39937  22.083   1.812  10.638
68267W        W39938  28.149  39.832   0.394
68268W        W39939  22.020  11.425  13.260
68269W        W39940   1.462   7.893  14.810
68270W        W39941  34.716  12.745  10.121
68271W        W39942  24.797  33.068   3.623
68272W        W39943  23.070  11.683  14.029
68273W        W39944  11.695  22.947   3.415
68274W        W39945  30.098  26.800   4.351
68275W        W39946  44.795  26.024  10.728
68276W        W39947  16.109  14.768   1.947
68277W        W39948  33.479  25.125   2.737
68278W        W39949  26.970  37.054   4.033
68279W        W39950  39.813  14.704  11.930
68280W        W39951   9.410  14.137  14.902
68281W        W39952   8.378  15.321  12.698
68282W        W39953  42.495   1.969  12.402
68283W        W39954  19.364   6.184   4.583
68284W        W39955  42.396   7.919   3.186
68285W        W39956  22.928   6.506   5.038
68286W        W39957   6.431   7.899   2.710
68287W        W39958  44.752   5.173  10.688
68288W        W39959  10.741  20.521  13.349
68289W        W39960   1.474  33.356   2.429
68290W        W39961   8.850  41.951   1.722
68291W        W39962  41.578   8.809   0.247
68292W        W39963   8.935  22.661  14.398
68293W        W39964  29.708  38.335   3.866
68294W        W39965  19.287   1.475   4.707
68295W        W39966   6.543  39.951   1.915
68296W        W39967  31.485  16.215   1.431
68297W        W39968  28.261  39.930   3.495
68298W        W39969  27.111  41.911  14.304
68299W        W39970  18.846  29.230   3.675
68300W        W39971   3.558  22.978  13.546
68301W        W39972  30.471  34.863  13.795
68302W        W39973  31.520  36.462  13.752
68303W        W39974  12.986   8.289  10.560
68304W        W39975  36.609  36.771  11.502
68305W        W39976   5.206  10.631   3.598
68306W        W39977  15.606  26.490  14.538
68307W        W39978  30.092  19.348  11.432
68308W        W39979   6.733  27.474  11.345
68309W        W39980  32.415   1.354   3.261
68310W        W39981   0.331  38.877   3.897
68311W        W39982  12.233  38.005   4.120
68312W        W39983  33.007  44.868   0.240
68313W        W39984  27.495  32.558  11.648
68314W        W39985  24.634  44.897   4.628
68315W        W39986  40.934  14.556  10.730
68316W        W39987  42.557  31.095  10.443
68317W        W39988  27.028  38.801   1.225
68318W        W39989  31.533  19.233   0.149
68319W        W39990  34.904  20.488   2.680
68320W        W39991   0.446  13.602   2.236
68321W        W39992   9.801  33.448   3.712
68322W        W39993  14.194  20.275   1.166
68323W        W39994  43.345   8.904  14.829
68324W        W39995   6.643  30.255   1.672
68325W        W39996  14.623  33.115   1.579
68326W        W39997  24.111  13.850  11.888
68327W        W39998  32.462  24.979  14.963
68328W        W39999  25.235  30.981   1.700
68329W        W40000  35.326  12.760   3.230
68330W        W40001  16.900  41.953  12.902
68331W        W40002   9.856   7.099   1.837
68332W        W40003  43.158  11.128   0.731
68333W        W40004  12.232  17.201  11.588
68334W        W40005  16.536  24.871  14.734
68335W        W40006  24.597  43.864   1.137
68336W        W40007  23.087  22.300  13.329
68337W        W40008  28.117   1.462   0.676
68338W        W40009  38.623  22.438   2.124
68339W        W40010  12.239  13.594  14.410
68340W        W40011  12.553   1.902   1.211
68341W        W40012  30.605   7.163  10.946
68342W        W40013  10.640  39.611   2.804
68343W        W40014  29.087  36.863  14.735
68344W        W40015  33.480  42.792  11.880
68345W        W40016  27.000  34.272   2.166
68346W        W40017  11.691  20.046   2.093
68347W        W40018  32.630  27.819  11.977
68348W        W40019  41.370  41.101   0.858
68349W        W40020   6.370  26.109   0.882
68350W        W40021  17.529   0.332   4.169
68351W        W40022  44.053  18.779  11.089
68352W        W40023  41.030  41.002  10.433
68353W        W40024  26.750   6.415   0.427
68354W        W40025  10.761  23.215   1.160
68355W        W40026  23.426  38.000  13.740
68356W        W40027  16.578  35.607  12.416
68357W        W40028   7.390  21.050   2.683
68358W        W40029  41.284   0.589   2.570
68359W        W40030   1.001   2.261  12.439
68360W        W40031  44.535   5.379   2.878
68361W        W40032  38.887  19.015  12.983
68362W        W40033  12.005   4.819   9.890
68363W        W40034  10.711  20.705  10.638
68364W        W40035  29.998  21.091   3.718
68365W        W40036  39.812  44.046   3.818
68366W        W40037  11.917  43.864   3.352
68367W        W40038  16.620  33.849  11.106
68368W        W40039   6.857  24.468  13.422
68369W        W40040  12.097   9.221  11.603
68370W        W40041  40.853  41.966  11.641
68371W        W40042  28.589   9.882  10.721
68372W        W40043  23.528  35.032   4.319
68373W        W40044  26.487   2.983  14.978
68374W        W40045   8.570  29.319   3.806
68375W        W40046   5.288  15.747   1.921
68376W        W40047   1.772   4.943   1.352
68377W        W40048  35.545   5.198  10.742
68378W        W40049  22.213  40.296  11.489
68379W        W40050  15.085  24.532  13.915
68380W        W40051  11.238  14.294   2.582
68381W        W40052  20.352  26.596  13.546
68382W        W40053  35.673   7.162  10.718
68383W        W40054  38.512   6.602  12.394
68384W        W40055   9.136  32.937  11.663
68385W        W40056  10.743   3.172   1.784
68386W        W40057  34.847   8.281  12.121
68387W        W40058  38.341  35.851  12.012
68388W        W40059  20.508  32.521  12.703
68389W        W40060   2.768  18.829  12.533
68390W        W40061  38.096   4.740   4.834
68391W        W40062  36.322  28.466   4.632
68392W        W40063  34.631  26.676  10.134
68393W        W40064  14.848  19.815  11.714
68394W        W40065  41.847   3.099  11.893
68395W        W40066  34.380  38.012  14.351
68396W        W40067  10.134  28.895   2.521
68397W        W40068  28.905  40.430   2.810
68398W        W40069  37.058  16.063  12.762
68399W        W40070   1.101  27.417   3.511
68400W        W40071  26.506  39.513   3.185
68401W        W40072  28.697   0.191   1.787
68402W        W40073  35.066  21.009   1.470
68403W        W40074   9.457  38.812   2.331
68404W        W40075  43.115  31.699   0.841
68405W        W40076  39.197  26.121  13.440
68406W        W40077  19.276  14.565   2.317
68407W        W40078  32.326   7.649   1.705
68408W        W40079  23.549  19.299   1.795
68409W        W40080  18.701  16.455   4.172
68410W        W40081  14.713  39.823   3.824
68411W        W40082   7.926  32.049   0.030
68412W        W40083  16.767  43.255   2.258
68413W        W40084   5.727  32.366   1.522
68414W        W40085  42.794  29.609   1.116
68415W        W40086   6.108  18.046   4.107
68416W        W40087  18.799  11.032  11.184
68417W        W40088  28.617   8.304   3.791
68418W        W40089  14.236  11.340  12.474
68419W        W40090  42.081   2.688  11.587
68420W        W40091   3.802  21.512   5.109
68421W        W40092  13.755  19.368  11.599
68422W        W40093  30.029  33.937  14.016
68423W        W40094  37.807   4.311   1.315
68424W        W40095   5.243  31.966   0.252
68425W        W40096  30.170   6.202   4.362
68426W        W40097   4.238  30.524  12.976
68427W        W40098   1.544  16.556  12.624
68428W        W40099  16.807   0.303   2.704
68429W        W40100  11.732   7.690  12.085
68430W        W40101  15.645   3.333   0.453
68431W        W40102   1.468  30.015  14.985
68432W        W40103  32.977  35.882  14.124
68433W        W40104  16.263   0.844   3.268
68434W        W40105   3.803   3.371  12.536
68435W        W40106  27.147  24.059   3.582
68436W        W40107  11.764   8.875   4.892
68437W        W40108  16.530  28.673  14.033
68438W        W40109  10.342  27.597   3.333
68439W        W40110  23.592  33.411  13.578
68440W        W40111  34.896  33.374  13.793
68441W        W40112  19.259  20.470  13.276
68442W        W40113   2.196  15.704  13.855
68443W        W40114  40.473  23.227   0.334
68444W        W40115  15.637  36.646   4.511
68445W        W40116   8.312  34.615   4.606
68446W        W40117  29.155   3.741   2.905
68447W        W40118  41.416   3.391  10.643
68448W        W40119   1.599  28.507   0.870
68449W        W40120  29.621  36.732   3.279
68450W        W40121  19.793  34.361  12.908
68451W        W40122  11.046  24.955  11.055
68452W        W40123  35.030  18.035  13.941
68453W        W40124   5.929   9.283   0.853
68454W        W40125   3.976  10.409  12.886
68455W        W40126  27.254  13.472  11.122
68456W        W40127  19.260   6.986  13.488
68457W        W40128  35.084  10.387   0.451
68458W        W40129  24.981  33.386   1.822
68459W        W40130  38.962  42.289   0.616
68460W        W40131  30.303  26.527   3.488
68461W        W40132  13.323  42.701   2.494
68462W        W40133  37.295  37.092   5.419
68463W        W40134  12.247  25.185   0.461
68464W        W40135  37.980   3.257   2.007
68465W        W40136  36.093  22.140  14.999
68466W        W40137  38.278   2.952   2.967
68467W        W40138   8.851  36.586   2.717
68468W        W40139  30.966  41.472   3.994
68469W        W40140   0.899  34.036  13.888
68470W        W40141  18.106  17.103  14.292
68471W        W40142  44.856  25.455  12.533
68472W        W40143  22.533  26.985  12.924
68473W        W40144  41.341  12.398  13.397
68474W        W40145  33.060   3.510  14.358
68475W        W40146  42.569  37.785  13.956
68476W        W40147  33.618   4.898   1.888
68477W        W40148  31.410  39.076  12.802
68478W        W40149   5.296  41.008   1.121
68479W        W40150  38.484  32.704  14.761
68480W        W40151  13.351  19.197   3.365
68481W        W40152  44.621  13.743  13.001
68482W        W40153  11.907  22.625  13.914
68483W        W40154  19.632   6.582  14.485
68484W        W40155  36.636  25.533  14.807
68485W        W40156  42.525  39.840   3.656
68486W        W40157  16.184   2.937   1.312
68487W        W40158  42.487  38.365   3.270
68488W        W40159  32.836  13.550   3.763
68489W        W40160  38.855   0.941   1.769
68490W        W40161   2.022  44.484   2.892
68491W        W40162  26.596  39.315  14.826
68492W        W40163  10.907  36.054  12.841
68493W        W40164  12.633  16.975  11.039
68494W        W40165  13.206   1.349   0.460
68495W        W40166  22.090   3.635  10.557
68496W        W40167   5.431  11.889  11.607
68497W        W40168   5.404  41.577  11.739
68498W        W40169  34.276  15.459   4.313
68499W        W40170  20.290  18.749   2.100
68500W        W40171  25.705  39.236   4.832
68501W        W40172   0.670  35.407  13.441
68502W        W40173   3.576  38.017   4.761
68503W        W40174  15.688   4.897   0.536
68504W        W40175  28.441   8.476  12.999
68505W        W40176  41.450   7.375  14.281
68506W        W40177   2.918  25.255  12.146
68507W        W40178  28.597  34.594   3.385
68508W        W40179   8.171  20.191   2.116
68509W        W40180   1.230  30.897   3.171
68510W        W40181  20.124  25.290   4.760
68511W        W40182  21.781  11.095   4.275
68512W        W40183  25.280   3.361   0.053
68513W        W40184   7.758  30.447   4.593
68514W        W40185  31.738  19.227   1.192
68515W        W40186  21.660  40.717   3.833
68516W        W40187  26.083  33.447   3.926
68517W        W40188  36.513  29.146   4.675
68518W        W40189  12.101  22.791   3.118
68519W        W40190  33.900   2.449  13.417
68520W        W40191  33.307  20.323   0.014
68521W        W40192  36.439  28.881  13.100
68522W        W40193  44.953  36.591  14.789
68523W        W40194  43.998  21.557  12.097
68524W        W40195   2.399  35.761   2.835
68525W        W40196  44.519  25.950   2.353
68526W        W40197   0.678  18.187  13.367
68527W        W40198  38.821  15.560  11.197
68528W        W40199  27.634  44.304  14.444
68529W        W40200  19.172  24.468   3.834
68530W        W40201  33.165   0.792  14.228
68531W        W40202  37.565  39.549   0.277
68532W        W40203  16.009  20.975  10.307
68533W        W40204  23.573  30.729  12.437
68534W        W40205  27.518  39.379  14.451
68535W        W40206  36.112  16.145  13.627
68536W        W40207  20.055  39.847   0.466
68537W        W40208  10.885   7.101  13.438
68538W        W40209  20.445  13.463   5.347
68539W        W40210  13.897  15.710   1.671
68540W        W40211  39.943  23.703   2.449
68541W        W40212  26.131  36.863   3.374
68542W        W40213  14.958  25.240  12.354
68543W        W40214  22.501  43.197  11.187
68544W        W40215   0.133  13.045   2.505
68545W        W40216   8.815  25.295   3.303
68546W        W40217  14.081  43.055   4.200
68547W        W40218  14.533   7.037   5.261
68548W        W40219  44.765  20.977  14.511
68549W        W40220  41.701  37.415   0.388
68550W        W40221  26.493  18.139  12.049
68551W        W40222  43.583   7.803   1.500
68552W        W40223  21.579   5.292   2.978
68553W        W40224   3.900  11.823   0.701
68554W        W40225  16.844   1.421   1.777
68555W        W40226  24.431  10.193  11.184
68556W        W40227  43.379  23.168  14.806
68557W        W40228  24.600  12.232   3.080
68558W        W40229  36.520  29.483   1.811
68559W        W40230  44.433  21.028   1.726
68560W        W40231  32.425  44.356  11.860
68561W        W40232  17.966  13.213   1.013
68562W        W40233  31.927  31.161   4.615
68563W        W40234  19.981  31.808   3.197
68564W        W40235  11.260  10.399  11.067
68565W        W40236  12.083  35.472   0.542
68566W        W40237   8.294  12.058   4.207
68567W        W40238  40.575  20.564  13.811
68568W        W40239  17.469  24.580  13.752
68569W        W40240  39.898   1.208  14.122
68570W        W40241  41.894  20.306  13.216
68571W        W40242   6.152  41.562   2.665
68572W        W40243  29.291  36.601   1.482
68573W        W40244  43.188  33.277  11.781
68574W        W40245  35.339  17.990  14.374
68575W        W40246   0.917  19.481  14.274
68576W        W40247  33.714  20.029   1.470
68577W        W40248  16.361   2.189   4.466
68578W        W40249   8.572  10.712  13.399
68579W        W40250   2.443  14.443  11.120
68580W        W40251   1.263   4.204  11.911
68581W        W40252  22.847  15.358  14.830
68582W        W40253  44.774  33.108  11.183
68583W        W40254  35.769  30.260   2.272
68584W        W40255  25.024  38.787  12.070
68585W        W40256  37.939   8.821  12.862
68586W        W40257  11.336  40.362   3.270
68587W        W40258   0.267  10.738   4.309
68588W        W40259   7.856  33.079   1.194
68589W        W40260  25.142  27.455   1.266
68590W        W40261   6.610  13.620  11.091
68591W        W40262   4.483  10.193  11.186
68592W        W40263  25.098  13.260  13.826
68593W        W40264   2.193  42.520   2.718
68594W        W40265  23.676  41.513  11.637
68595W        W40266  12.768  41.736  13.423
68596W        W40267  18.415  17.406   3.125
68597W        W40268  44.540   6.391   3.091
68598W        W40269  20.745   7.721   4.681
68599W        W40270  27.984  17.996  13.009
68600W        W40271  20.008  11.223   5.482
68601W        W40272  30.845  44.441   1.518
68602W        W40273  18.012   4.857   0.645
68603W        W40274  34.452   5.208   3.284
68604W        W40275  18.319  28.110   3.898
68605W        W40276   5.947  22.273  13.824
68606W        W40277  17.821  30.521  11.344
68607W        W40278  42.710  39.586   3.221
68608W        W40279   3.252  23.909   0.559
68609W        W40280  16.047   4.317   3.224
68610W        W40281  40.414   4.709   0.321
68611W        W40282  26.715  31.873  12.685
68612W        W40283  22.061  28.247   2.533
68613W        W40284  41.442  37.780   1.418
68614W        W40285  26.211  28.600   0.209
68615W        W40286  28.883   7.418  13.908
68616W        W40287  15.869  16.648   1.942
68617W        W40288   4.308   0.089  13.087
68618W        W40289  29.082  24.165   4.737
68619W        W40290  20.858  14.909   1.649
68620W        W40291  12.978  42.465   3.640
68621W        W40292  20.063  13.765  13.719
68622W        W40293  12.835  15.493  13.385
68623W        W40294  34.054  35.582   4.028
68624W        W40295  33.009  43.540  12.856
68625W        W40296  26.546  22.691  10.703
68626W        W40297  30.053  17.070   3.756
68627W        W40298   5.482  23.676  11.315
68628W        W40299  24.665  30.075   2.789
68629W        W40300  13.625   8.434   2.268
68630W        W40301  37.886  19.746  13.057
68631W        W40302  19.819  38.917  10.723
68632W        W40303  25.418  41.575  10.705
68633W        W40304  12.592  39.213   1.833
68634W        W40305  28.112  36.831  13.450
68635W        W40306  19.732  26.025   3.798
68636W        W40307   2.461  12.445  11.050
68637W        W40308  17.259  22.677   3.574
68638W        W40309  39.391  36.807   3.609
68639W        W40310  15.637  10.498  10.317
68640W        W40311  40.077   7.725  10.682
68641W        W40312  14.179  19.704   2.417
68642W        W40313  42.479   7.111  10.646
68643W        W40314  10.760  39.335  13.125
68644W        W40315  26.825  22.715  14.000
68645W        W40316  43.093  43.673   3.732
68646W        W40317  44.276  44.804   0.359
68647W        W40318  43.702  33.663  12.474
68648W        W40319  24.625  14.517   2.804
68649W        W40320   3.223  29.022   1.372
68650W        W40321   4.181  35.675  13.716
68651W        W40322  14.468   5.455   0.334
68652W        W40323  32.495  35.418  11.955
68653W        W40324  31.868  41.430   0.696
68654W        W40325   9.697  24.032   3.675
68655W        W40326  29.035   5.455   4.228
68656W        W40327  38.450  18.221   3.293
68657W        W40328  24.578  30.906   2.368
68658W        W40329  40.904  29.256  10.785
68659W        W40330  43.347  16.370  14.318
68660W        W40331  44.857  31.052  11.849
68661W        W40332  27.132  28.028  13.055
68662W        W40333   8.156  37.783   3.623
68663W        W40334  24.079  16.608   3.143
68664W        W40335  20.802  21.533   3.718
68665W        W40336  41.889   0.904   3.431
68666W        W40337   4.252  13.798   4.469
68667W        W40338  18.817  43.656  11.118
68668W        W40339  26.108   3.899  13.029
68669W        W40340  22.689  33.143  11.579
68670W        W40341  38.362  28.007   4.849
68671W        W40342  43.503  29.511  14.267
68672W        W40343  22.241   9.561   4.196
68673W        W40344  29.108  19.193  11.615
68674W        W40345   4.382  13.327  13.686
68675W        W40346  29.551  21.378   3.471
68676W        W40347  35.402  26.513   4.189
68677W        W40348  14.992  37.561  11.594
68678W        W40349  27.395  34.907   1.927
68679W        W40350  42.640  35.483  14.178
68680W        W40351  41.860   8.657  14.843
68681W        W40352  15.358  36.565   0.749
68682W        W40353  17.077  11.079   0.190
68683W        W40354   2.420  28.899  11.503
68684W        W40355  44.531  37.512  11.056
68685W        W40356   8.355  23.057   0.514
68686W        W40357  26.412  15.942  14.819
68687W        W40358  27.977  16.238  14.962
68688W        W40359  24.146  31.768  11.853
68689W        W40360   3.979  35.007   1.761
68690W        W40361  10.455  43.867   2.772
68691W        W40362  11.547  33.584  12.021
68692W        W40363  22.145  31.620  13.852
68693W        W40364  36.286  12.630   2.824
68694W        W40365  36.933  41.491  13.399
68695W        W40366  42.482  16.946  12.911
68696W        W40367   9.652  41.099   1.879
68697W        W40368  31.074  28.256   3.248
68698W        W40369   8.472  20.987   1.883
68699W        W40370  15.555  13.383  11.152
68700W        W40371  40.006  43.656   1.885
68701W        W40372  13.601  28.616  13.476
68702W        W40373   9.745   8.310  13.617
68703W        W40374   4.302  26.609   4.130
68704W        W40375  35.692  14.097   0.388
68705W        W40376  31.121  24.689  14.905
68706W        W40377  15.760  43.601  10.417
68707W        W40378  20.758   2.222   0.752
68708W        W40379   9.570   7.861  13.793
68709W        W40380  16.698   1.823  11.382
68710W        W40381  19.106  11.810  10.175
68711W        W40382  10.368  33.466   3.648
68712W        W40383  31.380  39.532   0.058
68713W        W40384  20.975  40.354  14.259
68714W        W40385  37.225  32.186  11.510
68715W        W40386  25.007  26.684   2.943
68716W        W40387   8.257  26.091  10.989
68717W        W40388  38.142  22.243   1.908
68718W        W40389  21.516  27.526   0.973
68719W        W40390   1.017   8.681   3.183
68720W        W40391  26.701  31.723   2.641
68721W        W40392  39.592  17.233  14.981
68722W        W40393   6.877   2.872  13.177
68723W        W40394  40.372  39.935   1.681
68724W        W40395  23.171  10.264   3.293
68725W        W40396  40.432   0.556  14.467
68726W        W40397  30.562  42.688  12.889
68727W        W40398  28.069   7.081  11.595
68728W        W40399   5.918  21.270   1.275
68729W        W40400   0.291  33.830   3.752
68730W        W40401  28.039  27.861  14.023
68731W        W40402   5.976  18.741   4.644
68732W        W40403   3.493  19.238   1.914
68733W        W40404  19.960  43.443  13.507
68734W        W40405  22.721  14.374   3.106
68735W        W40406   7.779  13.722  13.537
68736W        W40407   6.736  38.048  12.859
68737W        W40408   1.923  16.112   0.357
68738W        W40409   4.379  37.928   3.261
68739W        W40410  36.126  23.676   4.089
68740W        W40411  29.478  32.929  14.826
68741W        W40412  13.344  23.989   3.766
68742W        W40413  22.635   2.264  13.389
68743W        W40414  19.231  12.217   3.391
68744W        W40415  22.861  35.610  11.735
68745W        W40416  34.617   2.936   0.767
68746W        W40417  38.413   6.642  13.742
68747W        W40418  27.258   3.897   1.745
68748W        W40419  21.979  31.388  13.331
68749W        W40420   1.809  35.591  11.141
68750W        W40421  24.097   2.204  13.462
68751W        W40422  41.759  16.893   1.455
68752W        W40423  19.723  24.187  14.390
68753W        W40424  43.365  19.196  10.666
68754W        W40425  27.894  42.357   2.735
68755W        W40426  20.759  20.475   2.624
68756W        W40427  39.032  38.610  11.032
68757W        W40428  10.288  40.549   2.489
68758W        W40429  30.402  42.415  12.473
68759W        W40430  11.213  17.205   4.481
68760W        W40431  18.838  30.584  13.103
68761W        W40432  42.328   5.730  14.967
68762W        W40433  16.513  29.013  14.879
68763W        W40434  37.222  16.988   3.134
68764W        W40435   5.831  33.159  14.772
68765W        W40436  32.083  12.629  11.513
68766W        W40437  21.040   9.766   2.935
68767W        W40438   7.846  17.060  12.478
68768W        W40439  43.349   6.390  12.048
68769W        W40440  16.069  20.280   2.371
68770W        W40441  22.432   5.433  13.858
68771W        W40442   5.807  20.817   1.533
68772W        W40443   7.736  13.048   0.920
68773W        W40444   5.212  41.290  12.686
68774W        W40445   2.197  32.748   3.651
68775W        W40446  42.499   9.886  14.375
68776W        W40447  37.620  39.889  13.383
68777W        W40448  36.857   8.221  13.841
68778W        W40449  42.549  27.717  12.000
68779W        W40450  24.467   4.097  13.485
68780W        W40451  28.983  27.931  13.895
68781W        W40452   9.306  39.589  11.929
68782W        W40453   9.797  18.820   4.811
68783W        W40454   2.254  36.331  13.270
68784W        W40455  41.796  14.035   2.299
68785W        W40456  22.535   4.914   1.120
68786W        W40457  29.873  21.530   0.135
68787W        W40458   7.904  31.437  14.208
68788W        W40459  23.520  40.103   3.092
68789W        W40460  33.455  40.976   5.059
68790W        W40461  20.575  42.544   0.262
68791W        W40462  23.331  19.535  11.966
68792W        W40463  20.494  30.427  12.219
68793W        W40464  18.262  25.213   1.441
68794W        W40465   4.957  11.676   3.677
68795W        W40466  41.804  12.248   3.867
68796W        W40467  38.973  42.850  10.457
68797W        W40468  36.992  42.429  13.006
68798W        W40469  11.097  37.737   1.788
68799W        W40470  30.173  38.569  13.003
68800W        W40471  43.820  14.201   2.723
68801W        W40472  29.469  38.026  12.865
68802W        W40473  12.270  19.659   4.171
68803W        W40474   7.904   8.749  14.793
68804W        W40475   2.375  24.042  12.000
68805W        W40476  34.060  32.576   3.766
68806W        W40477  29.088  39.134   1.248
68807W        W40478  25.032   2.667  11.132
68808W        W40479  31.785  23.046  13.482
68809W        W40480  29.698  21.248  11.898
68810W        W40481   3.479  16.103  13.648
68811W        W40482  30.037   8.278   0.070
68812W        W40483  28.231  23.977  10.732
68813W        W40484   7.619  29.004  13.361
68814W        W40485  32.298  35.607   4.089
68815W        W40486  41.976  20.439   1.360
68816W        W40487  15.737  39.527  12.988
68817W        W40488  25.882   7.578   1.133
68818W        W40489  33.599  20.687   3.104
68819W        W40490   2.762  38.027  12.973
68820W        W40491   2.771  32.187   1.439
68821W        W40492  44.881  34.268   2.631
68822W        W40493  35.554  40.528   2.366
68823W        W40494  27.444  14.731   3.441
68824W        W40495   5.304   0.613  10.615
68825W        W40496  41.948  23.782   1.273
68826W        W40497   2.229  13.837   0.341
68827W        W40498  44.434  37.188   2.241
68828W        W40499  27.349   9.972   3.808
68829W        W40500  25.123  18.986  14.423
68830W        W40501  15.487  19.086  13.038
68831W        W40502  36.316  17.687   2.112
68832W        W40503  13.205   0.909  13.487
68833W        W40504  36.037  31.921  13.572
68834W        W40505  26.716   1.444   1.827
68835W        W40506  38.880  20.309  10.009
68836W        W40507   4.608   7.970  14.322
68837W        W40508  10.211  32.811   4.181
68838W        W40509  34.136  42.532  13.892
68839W        W40510   5.291  35.374   3.907
68840W        W40511  38.258  43.112  14.369
68841W        W40512  40.266  28.590   3.142
68842W        W40513  28.844  36.551   4.904
68843W        W40514  11.299   9.679  11.567
68844W        W40515  30.869  36.588   1.473
68845W        W40516   0.686   6.727   1.372
68846W        W40517  43.295  36.402   4.027
68847W        W40518  44.551  30.407   3.221
68848W        W40519   5.167  12.161   0.392
68849W        W40520  40.570  17.044  14.732
68850W        W40521  35.653  10.201  11.942
68851W        W40522  15.212   4.159   3.798
68852W        W40523  41.749  24.652  11.348
68853W        W40524   1.698  31.970   2.868
68854W        W40525   7.255  30.688  11.597
68855W        W40526  10.565  43.427  13.503
68856W        W40527  17.658   1.228   1.407
68857W        W40528  44.235  29.244  12.145
68858W        W40529   1.017   5.768  12.665
68859W        W40530  12.852  31.792   0.101
68860W        W40531  11.485  21.988  11.131
68861W        W40532  29.362  40.987  10.711
68862W        W40533  23.067  19.741   4.133
68863W        W40534  21.243  33.180  13.098
68864W        W40535  26.922  44.754   2.683
68865W        W40536  29.953  28.561  10.775
68866W        W40537  36.913  18.391  11.568
68867W        W40538  44.834  13.758  14.489
68868W        W40539   2.730  41.841   3.816
68869W        W40540   7.719  30.641  14.554
68870W        W40541  15.655   4.190  14.817
68871W        W40542  39.446   0.316  13.047
68872W        W40543  17.139  40.032  14.459
68873W        W40544  12.718   9.949  11.883
68874W        W40545  13.427   4.982   2.703
68875W        W40546  33.883   1.885  11.594
68876W        W40547  27.680   3.030  14.773
68877W        W40548  23.100  38.534   4.981
68878W        W40549  25.178  14.706   2.354
68879W        W40550  29.868  19.175  14.377
68880W        W40551  26.239  20.026  10.713
68881W        W40552  19.665  16.241   0.462
68882W        W40553   9.043  30.418  14.365
68883W        W40554  23.205   1.389  12.372
68884W        W40555  13.352   9.250   3.362
68885W        W40556  12.213  28.058   3.770
68886W        W40557  10.605   1.354   3.673
68887W        W40558   9.590  38.991   4.788
68888W        W40559  32.627  23.833   2.462
68889W        W40560  37.641   4.990  11.394
68890W        W40561   4.738  15.294  14.747
68891W        W40562  27.615  37.853   1.847
68892W        W40563   2.762  42.923   2.757
68893W        W40564  29.232  35.117  11.885
68894W        W40565  28.701  22.764  10.929
68895W        W40566  32.381  40.364  11.175
68896W        W40567  29.123  41.105  12.021
68897W        W40568  38.672  38.392   0.984
68898W        W40569  26.970  43.497   3.193
68899W        W40570   9.335  44.533   3.904
68900W        W40571  36.955  21.010  14.658
68901W        W40572  22.964  29.716   1.757
68902W        W40573   4.342  15.561  13.365
68903W        W40574  25.062  29.907   4.796
68904W        W40575  44.944  31.953   0.968
68905W        W40576  25.103  35.353  14.388
68906W        W40577  26.656  28.902  14.914
68907W        W40578  32.631  22.593  10.731
68908W        W40579  43.558  41.951   9.694
68909W        W40580  17.529  29.592   1.242
68910W        W40581   8.317   8.203  14.441
68911W        W40582  34.114  14.761  11.115
68912W        W40583  36.604  30.097   0.243
68913W        W40584  29.513  18.216   4.667
68914W        W40585  40.756  14.007   2.925
68915W        W40586  25.987  13.185   0.353
68916W        W40587   5.293   5.603   3.803
68917W        W40588  38.268  15.150  11.107
68918W        W40589   3.641  38.984  12.495
68919W        W40590  17.239   9.580   3.644
68920W        W40591   8.858  31.988  14.320
68921W        W40592   0.887   3.988  11.577
68922W        W40593  25.466  27.970  14.485
68923W        W40594   6.691   8.149  12.915
68924W        W40595  30.140   3.503   0.197
68925W        W40596  17.743  27.624   0.655
68926W        W40597  10.110  42.962   0.391
68927W        W40598  11.839  36.846  11.284
68928W        W40599  38.485  27.928  14.334
68929W        W40600  17.287  12.802  14.040
68930W        W40601   9.862   8.964   4.562
68931W        W40602  40.880  26.632  12.450
68932W        W40603  39.290  28.561   4.119
68933W        W40604  44.875   4.445  12.845
68934W        W40605  18.553  32.893  14.024
68935W        W40606  28.500  11.665   2.894
68936W        W40607  13.892  12.633  12.198
68937W        W40608  36.413  32.575  11.443
68938W        W40609  17.314  20.166   1.304
68939W        W40610  15.089  14.111   2.627
68940W        W40611  26.606  20.836  10.533
68941W        W40612  28.943  22.241  14.332
68942W        W40613   2.170  26.244  11.187
68943W        W40614  21.112   4.314   4.766
68944W        W40615  16.040  10.597   2.315
68945W        W40616   7.640  30.910   0.525
68946W        W40617  11.666  39.863   1.365
68947W        W40618   5.244  17.620  12.019
68948W        W40619  12.582  36.721  12.586
68949W        W40620   4.217   7.947  11.465
68950W        W40621  27.924   3.093  12.929
68951W        W40622  20.531   5.491  11.046
68952W        W40623  11.559   7.182   5.108
68953W        W40624  37.598  31.501  12.904
68954W        W40625   2.169  28.894   3.219
68955W        W40626  24.057  15.068   1.605
68956W        W40627  32.425  30.559  14.404
68957W        W40628  17.399   1.268  12.416
68958W        W40629   9.907   0.506   1.421
68959W        W40630   4.246   9.419   0.448
68960W        W40631  36.370  15.655  13.395
68961W        W40632   8.308  14.868   4.214
68962W        W40633  12.865  27.073   0.312
68963W        W40634   2.342   5.732  12.317
68964W        W40635  34.900   6.234   4.666
68965W        W40636  39.625  40.079  13.887
68966W        W40637   9.413  43.985   1.879
68967W        W40638  23.935  10.059  11.249
68968W        W40639  41.989  34.454  13.423
68969W        W40640   9.181  16.878   1.328
68970W        W40641  21.597  13.472  11.133
68971W        W40642  39.077   0.302  14.761
68972W        W40643  25.232  18.374  12.502
68973W        W40644  42.327  35.910   4.566
68974W        W40645  11.012  11.717  13.905
68975W        W40646  36.694   1.432  12.015
68976W        W40647  34.669   0.041  14.035
68977W        W40648  23.628  36.983  11.617
68978W        W40649  15.369  26.179  12.545
68979W        W40650   2.413  10.147   1.292
68980W        W40651  10.585  26.251  14.354
68981W        W40652  29.189  32.370  11.944
68982W        W40653   5.823  30.646   0.155
68983W        W40654   6.652  44.443  10.068
68984W        W40655   3.178   9.883   3.444
68985W        W40656  30.571  13.688   2.334
68986W        W40657  36.948  12.840  13.665
68987W        W40658  38.402  16.485  14.584
68988W        W40659  20.059  20.835   1.686
68989W        W40660  36.824  12.236   2.343
68990W        W40661  42.102  29.078   3.374
68991W        W40662  24.593  34.347   0.774
68992W        W40663  33.977   7.677   1.385
68993W        W40664  28.475  12.058  13.412
68994W        W40665  13.850  18.882  13.468
68995W        W40666  19.180  14.400   3.705
68996W        W40667  25.965  44.747   2.253
68997W        W40668  14.403  31.237  12.956
68998W        W40669  30.269   2.719  12.075
68999W        W40670  13.488   4.250  12.354
69000W        W40671   4.910  24.923  12.674
69001W        W40672  28.307  24.309  12.410
69002W        W40673  13.103   5.847   1.644
69003W        W40674   4.521  24.607  11.515
69004W        W40675  35.443   3.453   2.171
69005W        W40676  20.321  31.973  11.014
69006W        W40677   5.350   7.451  14.004
69007W        W40678  35.922   4.779  10.705
69008W        W40679  39.455  28.673   3.636
69009W        W40680  15.520  29.680   4.208
69010W        W40681  12.788  36.024  12.034
69011W        W40682   6.384  24.917   4.551
69012W        W40683   9.750  35.574  14.442
69013W        W40684  20.740  17.762  12.506
69014W        W40685  17.732  11.687   3.663
69015W        W40686  41.303  34.104  10.742
69016W        W40687   4.604  39.518   0.098
69017W        W40688  42.049   5.704  11.485
69018W        W40689  24.468   3.709   4.343
69019W        W40690  27.459   1.413  14.947
69020W        W40691  10.166  35.946  10.571
69021W        W40692  25.588  31.449  14.363
69022W        W40693  39.281  32.987   1.310
69023W        W40694   9.951  31.087   4.968
69024W        W40695  34.597  11.652   3.882
69025W        W40696  11.888  22.225   1.968
69026W        W40697  30.954   9.951   3.657
69027W        W40698  36.146  44.129   2.936
69028W        W40699  25.039   3.358   3.710
69029W        W40700   5.756   0.514   1.022
69030W        W40701  17.562   8.365  10.366
69031W        W40702  31.914   9.372  14.290
69032W        W40703  20.498   6.898   1.158
69033W        W40704  40.021   6.457  10.626
69034W        W40705  41.156  15.131   0.436
69035W        W40706  11.210  25.660   4.574
69036W        W40707  37.339  25.865   1.994
69037W        W40708   8.151  37.886   1.325
69038W        W40709   7.262   5.164   1.989
69039W        W40710   2.928  12.508  12.567
69040W        W40711  10.242  37.973   0.026
69041W        W40712  26.975  26.503   2.474
69042W        W40713  37.976  12.652   3.600
69043W        W40714   7.471  16.214  12.434
69044W        W40715   6.719  26.644   4.699
69045W        W40716  24.516  38.910  10.822
69046W        W40717   7.633  15.692  11.653
69047W        W40718   2.306  28.201  12.507
69048W        W40719   5.795   6.364   1.824
69049W        W40720   4.352  14.568  14.523
69050W        W40721  35.184  27.202   2.724
69051W        W40722  43.162  29.918   4.708
69052W        W40723  40.076  39.080   4.561
69053W        W40724  41.072  24.634  12.105
69054W        W40725  43.712  12.195  11.434
69055W        W40726  13.014  27.964   2.552
69056W        W40727  20.220  35.658  11.125
69057W        W40728  40.413   5.833   4.509
69058W        W40729  11.890  24.672   3.215
69059W        W40730  11.019  19.918  14.617
69060W        W40731  43.340  19.145   2.588
69061W        W40732  29.908  15.994   1.974
69062W        W40733  19.351  35.877  10.268
69063W        W40734  44.045  12.228   2.041
69064W        W40735  32.432   6.054   3.793
69065W        W40736  25.448   0.679  11.956
69066W        W40737  14.113  19.611   4.868
69067W        W40738  20.504  26.008   3.120
69068W        W40739  29.649  38.504  12.938
69069W        W40740  20.647  36.109   2.746
69070W        W40741  21.282  33.414   2.430
69071W        W40742  30.204   8.831   4.280
69072W        W40743  31.547  22.163  13.991
69073W        W40744  27.665   0.298  12.562
69074W        W40745  11.760  29.111   1.668
69075W        W40746  24.093  39.613   1.821
69076W        W40747   8.440  36.350  14.976
69077W        W40748   1.798  16.375   1.191
69078W        W40749  28.408  18.719   1.472
69079W        W40750   5.231  44.508   2.607
69080W        W40751   2.567  39.827   1.891
69081W        W40752  37.512  36.565  12.966
69082W        W40753   1.742  39.143   2.907
69083W        W40754  24.409  38.916  13.307
69084W        W40755  10.864   1.012   2.655
69085W        W40756  40.458  43.410  11.825
69086W        W40757   7.206  36.752  14.913
69087W        W40758  39.814  35.929   0.242
69088W        W40759   3.729  26.370   1.156
69089W        W40760   6.735  43.401   2.265
69090W        W40761  16.797  26.721   4.722
69091W        W40762  13.252  32.183   0.928
69092W        W40763   6.332   7.042  14.558
69093W        W40764  10.172   4.904   4.050
69094W        W40765   1.628  16.763   4.417
69095W        W40766  10.368  36.571   0.651
69096W        W40767  32.867  11.273  12.631
69097W        W40768  40.019   0.392   0.821
69098W        W40769  23.805  20.578  13.858
69099W        W40770  32.136  34.077   0.289
69100W        W40771  23.573  41.081   5.005
69101W        W40772  21.132  19.541   3.649
69102W        W40773  24.194  35.815  12.599
69103W        W40774  44.096  25.649  13.079
69104W        W40775  35.448  13.745  12.487
69105W        W40776  23.002  29.113  10.407
69106W        W40777  42.444  37.913  12.649
69107W        W40778  41.269  14.860   4.155
69108W        W40779  21.261  43.561  14.097
69109W        W40780  23.695  30.901   3.674
69110W        W40781   8.243  17.906   4.446
69111W        W40782  34.907   4.709  12.818
69112W        W40783  39.783  39.936  14.343
69113W        W40784  27.470  10.116   2.651
69114W        W40785   8.282   2.820   0.772
69115W        W40786  36.176  36.506   1.886
69116W        W40787  19.910  23.019  10.968
69117W        W40788  16.893  35.805  14.457
69118W        W40789  22.208  38.231  10.107
69119W        W40790  44.310  42.362  12.649
69120W        W40791  29.923   4.992   2.818
69121W        W40792  33.032   5.506  12.509
69122W        W40793   3.518  10.928   1.285
69123W        W40794  16.518  42.993   2.663
69124W        W40795   8.884  11.376   2.767
69125W        W40796  19.679  33.499   0.263
69126W        W40797  38.091   5.680   1.832
69127W        W40798  31.442   1.873   0.418
69128W        W40799  24.506  19.071  13.555
69129W        W40800  21.825  15.066   4.673
69130W        W40801  13.719  19.805  14.834
69131W        W40802  14.281  25.927   4.066
69132W        W40803  29.535  15.121   2.752
69133W        W40804  23.703  38.065  12.054
69134W        W40805  38.957  35.490  14.000
69135W        W40806  37.494  27.083  10.908
69136W        W40807  16.276  37.954   2.874
69137W        W40808  29.063   2.758  13.992
69138W        W40809   2.302  41.547  12.044
69139W        W40810  23.957   0.621  10.294
69140W        W40811   2.978  20.312  11.003
69141W        W40812  20.793   0.754   0.427
69142W        W40813   9.745  18.282  12.925
69143W        W40814  44.238  10.386   1.739
69144W        W40815  38.459  29.950   2.914
69145W        W40816  34.525  44.966   4.635
69146W        W40817  28.771   4.178   3.221
69147W        W40818   6.641   1.834  14.520
69148W        W40819   6.735  34.955  11.653
69149W        W40820  38.384  41.941   4.053
69150W        W40821  15.258   3.200  11.880
69151W        W40822   9.789  16.214   4.731
69152W        W40823  35.409  14.514   4.121
69153W        W40824  42.452  11.081  12.505
69154W        W40825  30.620  14.309  10.655
69155W        W40826  18.332   0.900  14.778
69156W        W40827  16.698  14.807  13.790
69157W        W40828  24.626  11.471  13.034
69158W        W40829  32.561  44.973  14.968
69159W        W40830  24.988  23.271   2.356
69160W        W40831  11.830   3.933  12.907
69161W        W40832  27.753  26.569   0.912
69162W        W40833  26.991  14.835  14.719
69163W        W40834  22.035  25.963   2.565
69164W        W40835   7.740  10.902  14.019
69165W        W40836  19.237  38.909  14.383
69166W        W40837   0.223  21.262  10.454
69167W        W40838  32.565  44.725   0.453
69168W        W40839   5.270  28.020   4.918
69169W        W40840  17.527  43.353  14.190
69170W        W40841  26.549   5.264  12.794
69171W        W40842  35.155  40.337   4.683
69172W        W40843   0.289  11.489  10.641
69173W        W40844  19.064  42.913  14.653
69174W        W40845  15.099  41.827   1.969
69175W        W40846  36.542  38.303  14.963
69176W        W40847   6.179   1.996  10.492
69177W        W40848   0.192  31.131  11.467
69178W        W40849  31.629  22.103  11.603
69179W        W40850  42.891  19.522  13.318
69180W        W40851  24.788  39.347  12.523
69181W        W40852   0.348  37.382   2.195
69182W        W40853  34.150  17.878  11.636
69183W        W40854  29.427  13.053   4.567
69184W        W40855  11.274  22.621   3.709
69185W        W40856   8.806  20.751   3.078
69186W        W40857  31.089   7.817   3.621
69187W        W40858  29.758  15.077   1.220
69188W        W40859   2.027  27.141   2.792
69189W        W40860   7.774  42.268   2.832
69190W        W40861  17.129  19.642   1.336
69191W        W40862  44.357   1.353  10.391
69192W        W40863  16.442  12.479  13.947
69193W        W40864  12.344  41.875  11.559
69194W        W40865  26.746  22.062  12.058
69195W        W40866   8.162  29.883   3.117
69196W        W40867  44.403  10.651   3.800
69197W        W40868  11.259   4.215   3.262
69198W        W40869   0.911  29.556  13.706
69199W        W40870  31.457  15.671   1.537
69200W        W40871  38.440  15.053  12.887
69201W        W40872   5.979  24.791   2.336
69202W        W40873  20.288  11.315   2.304
69203W        W40874  27.379  22.983   2.879
69204W        W40875  27.583  35.913   0.453
69205W        W40876  12.695  26.893   3.328
69206W        W40877  16.850  18.259  12.551
69207W        W40878  28.061  24.813  14.291
69208W        W40879  13.737   2.891  11.623
69209W        W40880  18.526   0.413  10.598
69210W        W40881   1.527  20.528   2.332
69211W        W40882  28.947  39.052   2.635
69212W        W40883  30.872  41.069  10.713
69213W        W40884   3.276  13.608   4.087
69214W        W40885  37.348  20.363  12.967
69215W        W40886  10.830  15.960   4.631
69216W        W40887  14.780   4.201   9.946
69217W        W40888  10.238  24.824   1.772
69218W        W40889  22.994  30.405  10.558
69219W        W40890  24.771  13.158  14.598
69220W        W40891  41.926  18.183   1.804
69221W        W40892  11.721  35.483   0.931
69222W        W40893  23.493   8.701   1.217
69223W        W40894  37.984   6.195   4.301
69224W        W40895  17.236  28.841  13.526
69225W        W40896  18.877  26.654   2.358
69226W        W40897  27.072   6.813   2.803
69227W        W40898   2.892   3.221   2.727
69228W        W40899   0.011  34.535  13.845
69229W        W40900  10.249  33.597   0.378
69230W        W40901  13.131  12.174  14.472
69231W        W40902  34.289   1.033   4.563
69232W        W40903  22.246   4.089  12.272
69233W        W40904  27.637   6.330  11.540
69234W        W40905  33.230   8.850   4.101
69235W        W40906  42.128  30.195   4.614
69236W        W40907   0.867  44.859  11.601
69237W        W40908  26.793  33.682   0.460
69238W        W40909  26.176  35.112  11.158
69239W        W40910  29.447  42.436   4.255
69240W        W40911   9.202  12.450   4.274
69241W        W40912  30.013  18.819  12.537
69242W        W40913  20.524  37.846  12.139
69243W        W40914  32.522  24.952  12.051
69244W        W40915   9.903  17.787  13.055
69245W        W40916   2.507  35.948  12.048
69246W        W40917  44.390  11.700  11.839
69247W        W40918  11.705  33.215   4.603
69248W        W40919  29.688   0.428   1.875
69249W        W40920  28.609  27.992  12.862
69250W        W40921  39.907  38.820  13.402
69251W        W40922  30.596   8.414   1.752
69252W        W40923   2.704  15.737  12.561
69253W        W40924  24.468  16.526   4.790
69254W        W40925  28.769  25.101  13.574
69255W        W40926  41.655  41.732   4.861
69256W        W40927  32.387  15.332   2.531
69257W        W40928  23.258  38.929  12.911
69258W        W40929   5.191  38.975  14.498
69259W        W40930  16.216  24.054   4.088
69260W        W40931  43.812   5.712   0.384
69261W        W40932  25.542  34.955  13.068
69262W        W40933  29.604  37.463   1.970
69263W        W40934  24.506  15.027   2.870
69264W        W40935   2.444   1.507  12.057
69265W        W40936  20.166  43.527  13.031
69266W        W40937  37.410   6.960  12.616
69267W        W40938  11.601  23.764   1.498
69268W        W40939  41.326   9.954  14.847
69269W        W40940  27.175  17.143   4.794
69270W        W40941  44.481  42.585   2.925
69271W        W40942  35.396  28.409   3.260
69272W        W40943  32.441   8.333  13.151
69273W        W40944  36.510   7.030   2.768
69274W        W40945  15.074   0.789  14.754
69275W        W40946   3.335  43.427  11.414
69276W        W40947  29.040  21.479   3.165
69277W        W40948  13.464  32.162   4.176
69278W        W40949   8.929  25.411  13.756
69279W        W40950  30.216  38.390   3.770
69280W        W40951  40.419   0.552   4.556
69281W        W40952  33.278  38.275   0.779
69282W        W40953   5.419  23.156   1.191
69283W        W40954  43.734  28.332  14.880
69284W        W40955  21.291  32.880  11.723
69285W        W40956  10.242  35.467  11.220
69286W        W40957  41.555  17.337  12.450
69287W        W40958  38.841   6.905  13.930
69288W        W40959   5.683   1.354   0.462
69289W        W40960   6.870  32.893  13.391
69290W        W40961  44.093  29.776   0.791
69291W        W40962   5.359  19.716  10.462
69292W        W40963  28.100   7.740   1.404
69293W        W40964  26.915  21.515   4.133
69294W        W40965  16.070  30.215   3.653
69295W        W40966  11.528  33.910   3.878
69296W        W40967  15.149  32.390   0.002
69297W        W40968  21.074  21.034   0.789
69298W        W40969  38.404  35.050   3.307
69299W        W40970  26.039  43.898   1.678
69300W        W40971  23.516  26.102   1.836
69301W        W40972  13.363  27.946  14.976
69302W        W40973  17.714  29.414  14.033
69303W        W40974  19.259  31.358  13.580
69304W        W40975  21.238  31.323   3.287
69305W        W40976   1.573  23.934   0.453
69306W        W40977  25.761   2.728  11.018
69307W        W40978  25.992   1.377  14.825
69308W        W40979  19.988  30.472   0.336
69309W        W40980  10.184  30.894  12.475
69310W        W40981   3.180  43.057   0.453
69311W        W40982  14.262  21.545   3.699
69312W        W40983  19.440  36.293   2.892
69313W        W40984  39.193   7.653  14.322
69314W        W40985  41.583  39.464  13.837
69315W        W40986  17.657   5.365  13.141
69316W        W40987  33.415   4.806  11.991
69317W        W40988  36.247   0.219  11.623
69318W        W40989   1.170  32.101   2.700
69319W        W40990  35.431  14.710   4.595
69320W        W40991  40.789  37.918  11.950
69321W        W40992  39.324  19.787  11.118
69322W        W40993   4.107  11.349   2.848
69323W        W40994  43.436  16.551   1.295
69324W        W40995  18.683   7.664   1.195
69325W        W40996  10.790  19.646  11.003
69326W        W40997  15.840  28.967   2.724
69327W        W40998  12.760  17.549  11.828
69328W        W40999  22.270  28.631   3.563
69329W        W41000  36.062  17.211   3.739
69330W        W41001  21.499  39.637   3.543
69331W        W41002  29.120  28.272   0.787
69332W        W41003  43.893  16.335   2.028
69333W        W41004  17.061   1.612   3.167
69334W        W41005  27.865  13.077   0.326
69335W        W41006  40.713   6.358  11.193
69336W        W41007  23.261  38.928  12.088
69337W        W41008  31.497   0.644   1.592
69338W        W41009  33.948  19.743  14.394
69339W        W41010  18.580  29.536   0.376
69340W        W41011  21.541  30.197   0.733
69341W        W41012   4.644  22.575  10.308
69342W        W41013  35.707  16.714   2.884
69343W        W41014  20.963   5.724  12.201
69344W        W41015  31.847  14.567   0.835
69345W        W41016  39.815   0.859   0.977
69346W        W41017  26.544  13.986   1.827
69347W        W41018  34.416  37.076   4.932
69348W        W41019  43.919  34.653  14.492
69349W        W41020  18.272  12.999  11.177
69350W        W41021  26.140   7.332   3.299
69351W        W41022   0.851  12.708   0.722
69352W        W41023  34.515  28.004   3.585
69353W        W41024  31.228  32.533   0.855
69354W        W41025  10.793   4.169   4.189
69355W        W41026  41.271  38.024   3.636
69356W        W41027  25.184  18.335   4.043
69357W        W41028   6.797   8.126   4.094
69358W        W41029  33.159  27.957   1.878
69359W        W41030  32.271  19.807  12.360
69360W        W41031  11.697   1.771  14.491
69361W        W41032  31.289  19.150  12.881
69362W        W41033   2.150  20.627  10.049
69363W        W41034  42.450   4.714  14.906
69364W        W41035  41.093  25.128  11.024
69365W        W41036  15.792  36.412   3.653
69366W        W41037  29.664   9.235   0.922
69367W        W41038  32.132  43.018   0.973
69368W        W41039  17.166  27.842  14.016
69369W        W41040  19.290  25.071   3.909
69370W        W41041  43.908  41.077  14.062
69371W        W41042  27.531  11.390   4.642
69372W        W41043   3.296  11.412  11.980
69373W        W41044  35.811  42.109   3.890
69374W        W41045  18.631  30.341  14.100
69375W        W41046  11.565  39.862   3.756
69376W        W41047  35.122  14.777  13.309
69377W        W41048   3.845  20.997  12.622
69378W        W41049   1.850   1.343  12.868
69379W        W41050  34.758  36.125   5.147
69380W        W41051  27.528   1.746   2.621
69381W        W41052  44.477  24.442   3.716
69382W        W41053  38.519  35.324  13.299
69383W        W41054  40.112  37.449  12.357
69384W        W41055   7.747   3.540   0.786
69385W        W41056  12.685  11.232   2.939
69386W        W41057  29.605  33.207  11.178
69387W        W41058  39.962  15.046   2.683
69388W        W41059  16.110  10.367  10.851
69389W        W41060   0.458  21.472   4.031
69390W        W41061  19.208  29.270   4.555
69391W        W41062   0.537  23.536  10.899
69392W        W41063  14.404  34.500  10.727
69393W        W41064  34.588  25.717   2.766
69394W        W41065   4.816  24.430   3.251
69395W        W41066   1.325  39.838   0.545
69396W        W41067  24.510  35.098  13.424
69397W        W41068  38.022  32.850   3.742
69398W        W41069  35.571   6.195   3.217
69399W        W41070  10.858  41.868  13.767
69400W        W41071   8.358  37.305   3.628
69401W        W41072  35.187   3.045  11.465
69402W        W41073  23.748  40.594  14.414
69403W        W41074   2.327  10.197  11.535
69404W        W41075   0.853  33.179  14.262
69405W        W41076  31.161   4.682   0.767
69406W        W41077  32.587  14.490   2.222
69407W        W41078  25.642  18.847   2.476
69408W        W41079  10.176   8.366  12.947
69409W        W41080  16.526  28.941   0.783
69410W        W41081  36.380  44.729   2.486
69411W        W41082  41.742  36.385  14.596
69412W        W41083  43.889  38.622   4.673
69413W        W41084  29.516  30.251  10.551
69414W        W41085  38.909  32.469   1.964
69415W        W41086  40.405   3.836   4.769
69416W        W41087  26.092  11.586   1.009
69417W        W41088  20.340  44.911   1.795
69418W        W41089  38.057   9.344  11.534
69419W        W41090   9.920  37.913   3.238
69420W        W41091  27.423  24.264  13.758
69421W        W41092  23.967  29.528  11.999
69422W        W41093  24.933  28.593   3.756
69423W        W41094  34.095   3.257   0.527
69424W        W41095  21.115  16.522   3.283
69425W        W41096  21.982  38.321   9.653
69426W        W41097  42.879   0.799   0.406
69427W        W41098  21.687   8.783   4.372
69428W        W41099  26.517  36.590   3.193
69429W        W41100  10.826  37.532   4.131
69430W        W41101  40.018  43.948  11.426
69431W        W41102  14.266  28.039   1.168
69432W        W41103  23.404   4.495   3.692
69433W        W41104  34.196  44.033  13.986
69434W        W41105  33.420  11.120   1.753
69435W        W41106  20.568  23.152   1.428
69436W        W41107   2.196  13.798   2.651
69437W        W41108   0.649   0.788   2.681
69438W        W41109  14.143   6.241   4.059
69439W        W41110   8.187  10.629   1.900
69440W        W41111  17.674  38.369  11.144
69441W        W41112   5.301  10.015  11.485
69442W        W41113  12.691  17.627  10.336
69443W        W41114  25.422  14.059  12.734
69444W        W41115  18.944  22.165   3.893
69445W        W41116  11.179  10.697  12.393
69446W        W41117   6.530  14.301   4.103
69447W        W41118  14.703  22.801   3.143
69448W        W41119  27.559   8.882   1.406
69449W        W41120   4.182  18.812  14.316
69450W        W41121  34.978  33.873  13.831
69451W        W41122  27.770  27.411   4.185
69452W        W41123  20.054   9.360  14.917
69453W        W41124  11.153   9.087  11.539
69454W        W41125   1.279  26.119   4.594
69455W        W41126  25.602   1.399  10.262
69456W        W41127  44.249  14.566  12.463
69457W        W41128   3.947   4.483  12.629
69458W        W41129  36.941  16.375  14.328
69459W        W41130  37.968   1.269  10.651
69460W        W41131  34.824   0.403   1.024
69461W        W41132  21.111  20.922  12.543
69462W        W41133  30.778  34.485  13.989
69463W        W41134   5.244  36.967  12.115
69464W        W41135  18.669  40.115  14.081
69465W        W41136  15.368   7.295   3.700
69466W        W41137   3.834   1.165   5.088
69467W        W41138  37.283  10.436   2.133
69468W        W41139  28.856  29.224  11.539
69469W        W41140  16.308  32.386   4.123
69470W        W41141  12.404   1.416  14.814
69471W        W41142  24.204  32.901  14.969
69472W        W41143  22.956  43.808  10.753
69473W        W41144  44.487  44.730   3.304
69474W        W41145  43.158  11.359   5.510
69475W        W41146  22.233   2.518   0.022
69476W        W41147  29.883  38.124   2.697
69477W        W41148  20.173  26.484  12.567
69478W        W41149   0.803  32.854   1.566
69479W        W41150  14.605  34.106   1.848
69480W        W41151  39.010  29.188  10.758
69481W        W41152  15.721   9.237  11.042
69482W        W41153  17.472   3.357  11.442
69483W        W41154  36.320  29.948   2.295
69484W        W41155  41.251  11.797   0.577
69485W        W41156   5.616  11.159  10.992
69486W        W41157  21.998  17.652  12.900
69487W        W41158  29.489  31.096   0.731
69488W        W41159  10.627  40.027   3.583
69489W        W41160  13.349  14.181  11.099
69490W        W41161  24.943  21.702   3.140
69491W        W41162  19.037  17.051  14.360
69492W        W41163  37.322  37.245   3.546
69493W        W41164  44.547  40.004   4.985
69494W        W41165   1.903  35.918  12.905
69495W        W41166  13.764  12.136   4.466
69496W        W41167  32.649  34.066   0.394
69497W        W41168   4.821  37.219  11.858
69498W        W41169  12.024  44.990   1.866
69499W        W41170  11.976   0.858  11.976
69500W        W41171  20.150  37.974  13.545
69501W        W41172  33.093  30.259  11.116
69502W        W41173   0.032   4.493   3.230
69503W        W41174   4.946   2.116   5.095
69504W        W41175  28.319  16.588   0.215
69505W        W41176  11.248  14.917  14.823
69506W        W41177  36.826   8.804   3.175
69507W        W41178  28.339  41.577  11.111
69508W        W41179   1.973  13.695  10.610
69509W        W41180   6.796   1.197   2.450
69510W        W41181   2.426  43.258  14.265
69511W        W41182  41.186   6.294   4.064
69512W        W41183  10.330  15.116   4.647
69513W        W41184  13.966  32.552   1.856
69514W        W41185  41.301  19.987  14.379
69515W        W41186  25.499  34.937  13.591
69516W        W41187  15.422  34.019  11.404
69517W        W41188   3.188  16.626  10.645
69518W        W41189   9.701  37.788  12.064
69519W        W41190   2.708  39.369   4.673
69520W        W41191  29.578  36.432  12.103
69521W        W41192  26.716  28.583   4.591
69522W        W41193  22.293   2.242   4.596
69523W        W41194  11.632   9.814   3.809
69524W        W41195  14.822   1.841   1.514
69525W        W41196   8.634  33.582   1.447
69526W        W41197  35.115  17.879   3.146
69527W        W41198  22.080  16.197  12.414
69528W        W41199  23.791  24.295  14.627
69529W        W41200   0.443   3.376  12.531
69530W        W41201  24.724  30.916  14.298
69531W        W41202  22.706  43.901  12.907
69532W        W41203  38.399  43.089  13.003
69533W        W41204   0.633  28.957  12.122
69534W        W41205  25.432  14.236   0.966
69535W        W41206  25.657  24.625   3.601
69536W        W41207  21.177  43.459  11.951
69537W        W41208   7.922  40.325  11.972
69538W        W41209  38.514  32.265  13.485
69539W        W41210  33.069  30.581   1.256
69540W        W41211   3.925   7.868  14.765
69541W        W41212  26.180  38.154   1.687
69542W        W41213  25.502  39.328   3.426
69543W        W41214   9.031  12.179  14.379
69544W        W41215  21.255   0.989   0.353
69545W        W41216  26.935  44.408   1.883
69546W        W41217  27.042  31.114   0.461
69547W        W41218   6.556  36.988  14.785
69548W        W41219  33.907  40.706  11.896
69549W        W41220  40.005   8.160  14.916
69550W        W41221   7.502  40.146   3.836
69551W        W41222   3.648  35.039  14.836
69552W        W41223  38.103   1.778   3.672
69553W        W41224  43.445  36.129  11.608
69554W        W41225  14.291   9.412  12.050
69555W        W41226  28.558  13.265  11.966
69556W        W41227   6.586   5.277  14.972
69557W        W41228  36.971  42.073   0.222
69558W        W41229  19.807  27.144   1.496
69559W        W41230  30.166  27.463   3.203
69560W        W41231  37.380  23.531   1.238
69561W        W41232  33.532   6.402  14.508
69562W        W41233  26.590  23.793  12.128
69563W        W41234  33.892  17.730   1.713
69564W        W41235   4.736  12.240  14.049
69565W        W41236  10.805   9.389   4.082
69566W        W41237   4.860  17.644   0.537
69567W        W41238  15.523  11.779   1.755
69568W        W41239  24.997  17.488  12.668
69569W        W41240  41.589  23.168  10.304
69570W        W41241  26.045  18.704   1.671
69571W        W41242  13.790  20.079   1.439
69572W        W41243   2.788  28.705  11.179
69573W        W41244  41.790   8.666  12.943
69574W        W41245   7.712  42.602   3.838
69575W        W41246  38.549  18.972   4.605
69576W        W41247  39.581  39.672   3.283
69577W        W41248  30.902   6.395  13.789
69578W        W41249  21.345  42.077   2.755
69579W        W41250   4.817  40.425  12.038
69580W        W41251  17.386  28.427  13.808
69581W        W41252  27.234   0.846  13.595
69582W        W41253  40.325  26.610   0.341
69583W        W41254  20.266  37.463  10.750
69584W        W41255  14.384   1.305   2.231
69585W        W41256  14.500  40.851   2.416
69586W        W41257  40.093   7.869   1.282
69587W        W41258  20.038  20.268  12.452
69588W        W41259  28.652   9.743   5.700
69589W        W41260  13.347  31.877   1.780
69590W        W41261  25.110  15.108  12.747
69591W        W41262   1.171  30.156   1.270
69592W        W41263  17.543   9.215   4.706
69593W        W41264  20.723   4.593   4.237
69594W        W41265  23.527  19.597   4.377
69595W        W41266  21.693   2.754   1.086
69596W        W41267  37.758  18.519   4.109
69597W        W41268  42.023   1.925   0.105
69598W        W41269  16.091  24.207   1.757
69599W        W41270  31.982  26.972  12.688
69600W        W41271  20.281  16.260  11.974
69601W        W41272  18.001  20.766   1.749
69602W        W41273  22.246  27.930  13.124
69603W        W41274   4.251  40.905  10.754
69604W        W41275  42.091  14.535   5.651
69605W        W41276  29.233  43.781   0.459
69606W        W41277  31.155  11.344   2.868
69607W        W41278  14.162  32.108  11.423
69608W        W41279  28.555  12.701   2.734
69609W        W41280  20.698  19.709   3.410
69610W        W41281  35.005  29.627  14.450
69611W        W41282  10.831  42.001   1.271
69612W        W41283   4.698  21.062   0.835
69613W        W41284  37.558  25.149   3.716
69614W        W41285   6.837  38.605   3.622
69615W        W41286   7.496  43.515   0.822
69616W        W41287  10.156  11.575   3.742
69617W        W41288  41.800  39.412   3.505
69618W        W41289   3.799  29.993  11.454
69619W        W41290  39.315   4.184   2.657
69620W        W41291   5.772   6.049  11.675
69621W        W41292  41.857  24.025   1.719
69622W        W41293   1.259  12.355   4.868
69623W        W41294  30.017  42.027  14.540
69624W        W41295  28.421  35.556   2.995
69625W        W41296  17.066  15.843  10.492
69626W        W41297  37.281  39.534  10.945
69627W        W41298  13.218   4.509   0.530
69628W        W41299   4.677   7.734   4.517
69629W        W41300  14.539  25.001   1.842
69630W        W41301  24.261  34.556  14.126
69631W        W41302   3.401  32.017   3.840
69632W        W41303   9.716  23.485   3.670
69633W        W41304  23.568  37.969   0.245
69634W        W41305  19.124   4.379   4.690
69635W        W41306  32.021  19.000   2.980
69636W        W41307  26.155   8.958  14.111
69637W        W41308  11.691  11.162   4.028
69638W        W41309   4.208   4.378   3.708
69639W        W41310  20.948  37.017   4.261
69640W        W41311  34.997  21.078  14.954
69641W        W41312  31.650  39.197   4.421
69642W        W41313  29.972  10.612   1.849
69643W        W41314  33.062  15.098  10.930
69644W        W41315   2.037  11.144   2.478
69645W        W41316  42.488  41.865  14.540
69646W        W41317  16.806   9.602   0.786
69647W        W41318  26.083   3.032  13.375
69648W        W41319  22.222  19.933  13.014
69649W        W41320  14.410  26.507  10.650
69650W        W41321   4.890  10.284  14.916
69651W        W41322  15.800   5.345   0.801
69652W        W41323  15.007  15.774   4.672
69653W        W41324  27.078   5.805  10.421
69654W        W41325  19.767  41.047  13.366
69655W        W41326  18.242  42.053  13.476
69656W        W41327  19.668  19.308  14.342
69657W        W41328  15.618  28.350  12.410
69658W        W41329  34.992  27.989  10.093
69659W        W41330  31.597  32.809   2.413
69660W        W41331  34.966   8.073   2.814
69661W        W41332  35.674  40.378   4.671
69662W        W41333  42.875   0.917   1.453
69663W        W41334   8.362  29.552  12.937
69664W        W41335  34.253  16.808  12.924
69665W        W41336  26.053  17.102  14.519
69666W        W41337  19.343  43.905   4.709
69667W        W41338   5.462   9.173  12.487
69668W        W41339  27.956  24.161   3.219
69669W        W41340  24.626  23.745   2.362
69670W        W41341  20.579   0.311   3.461
69671W        W41342  43.759  17.327   1.702
69672W        W41343   1.687  38.789   4.064
69673W        W41344  29.996  39.632   2.207
69674W        W41345  15.527  29.393  13.429
69675W        W41346   5.801  29.719   2.768
69676W        W41347  16.240  18.192  14.320
69677W        W41348   3.918  13.635  14.854
69678W        W41349  23.958   3.705  14.616
69679W        W41350  37.591   9.728  14.752
69680W        W41351  14.726  34.681   3.183
69681W        W41352   5.310  44.977  12.173
69682W        W41353  12.813   7.977  10.938
69683W        W41354  17.788  21.171   2.705
69684W        W41355   9.661  17.515   2.049
69685W        W41356   3.781   6.523  14.536
69686W        W41357   4.214  16.614  10.688
69687W        W41358   4.765   4.425  11.693
69688W        W41359  34.888  40.862  13.912
69689W        W41360  33.860  24.857  14.942
69690W        W41361  15.737  31.950  12.023
69691W        W41362   6.953   5.278  13.607
69692W        W41363  14.846  41.938   2.837
69693W        W41364  35.097   2.788   2.926
69694W        W41365  31.048  43.727  14.330
69695W        W41366  18.195  41.933   1.350
69696W        W41367  30.135  34.106  11.153
69697W        W41368  26.709  15.050   2.695
69698W        W41369  31.792  33.894   1.595
69699W        W41370  15.604   9.700   3.351
69700W        W41371  15.113  39.525   1.044
69701W        W41372  44.993  10.622   0.370
69702W        W41373  12.079   3.745   4.141
69703W        W41374  25.597  42.300  13.271
69704W        W41375  32.996  25.020  11.873
69705W        W41376  41.424  30.176   0.562
69706W        W41377  22.490  15.111  10.608
69707W        W41378  22.188  10.607  13.602
69708W        W41379   2.271  18.282   3.863
69709W        W41380   0.791   4.394   0.300
69710W        W41381  43.365  30.667   4.174
69711W        W41382  23.713  15.969   0.870
69712W        W41383  35.087   6.272   5.188
69713W        W41384  39.829   4.354  10.653
69714W        W41385  19.526  41.440  11.890
69715W        W41386  34.353  35.837   2.741
69716W        W41387  20.967  32.176   3.352
69717W        W41388  25.964  16.820   2.824
69718W        W41389  22.275  19.165   3.437
69719W        W41390  40.276  35.475  13.271
69720W        W41391   7.995  33.155  11.045
69721W        W41392  21.708  13.417   4.436
69722W        W41393   7.393  23.837   2.284
69723W        W41394  33.298   9.698  11.311
69724W        W41395  31.197  35.514  11.054
69725W        W41396   2.729   2.655  12.776
69726W        W41397   1.272  33.046  14.543
69727W        W41398  28.208  41.438   3.418
69728W        W41399  17.209  12.707   1.246
69729W        W41400  19.765  28.944   2.838
69730W        W41401  41.336   2.391   4.951
69731W        W41402  30.576  41.878  10.786
69732W        W41403  42.475  16.550   3.656
69733W        W41404  24.246  13.831  11.398
69734W        W41405   4.743  32.624   4.642
69735W        W41406  19.650  30.883  14.501
69736W        W41407  38.844  12.359  13.002
69737W        W41408  28.972  29.592  12.149
69738W        W41409  11.779   2.797  14.760
69739W        W41410  38.029   9.410  10.658
69740W        W41411  18.523  26.095  11.205
69741W        W41412   6.712  38.583  14.475
69742W        W41413  10.166  20.595  14.955
69743W        W41414  37.917  27.192  12.112
69744W        W41415  36.320  14.255   1.208
69745W        W41416  28.205  38.812  13.495
69746W        W41417  34.397  28.230  13.946
69747W        W41418   5.794   5.155   0.820
69748W        W41419   8.335   3.254  12.143
69749W        W41420   0.931  37.859  14.772
69750W        W41421  43.460  10.774  14.594
69751W        W41422  38.394  14.017   4.669
69752W        W41423  17.775   8.257   3.223
69753W        W41424  21.036  19.732   9.978
69754W        W41425  18.013  14.944   4.177
69755W        W41426   0.757  13.820  14.458
69756W        W41427  17.523  25.165   1.680
69757W        W41428  23.514  44.842  11.591
69758W        W41429  13.798  18.260  14.822
69759W        W41430  32.042  31.719   3.831
69760W        W41431  26.163  44.695   0.695
69761W        W41432   0.541  16.291  10.466
69762W        W41433  19.799  23.238   1.825
69763W        W41434  21.713   7.272   3.266
69764W        W41435  40.821   8.719  10.588
69765W        W41436  44.236  17.788   2.523
69766W        W41437   5.365  40.374  12.499
69767W        W41438  27.453   3.461  12.058
69768W        W41439  29.369  11.474   0.900
69769W        W41440   6.341   9.842   3.814
69770W        W41441  42.425  23.042  10.377
69771W        W41442  10.251  44.024  12.948
69772W        W41443  34.414  35.890  12.879
69773W        W41444   4.064   3.839  12.403
69774W        W41445  21.226   6.760   1.741
69775W        W41446  36.386  41.885   0.098
69776W        W41447   8.201  10.739  10.691
69777W        W41448  29.756  32.468   4.735
69778W        W41449  21.301  30.969  11.235
69779W        W41450   2.503  35.009   2.288
69780W        W41451  25.459   1.671   3.801
69781W        W41452  26.115  38.873   2.853
69782W        W41453  19.523  17.324  13.753
69783W        W41454  32.125  39.476  11.421
69784W        W41455  32.059   6.621  14.394
69785W        W41456  22.327  11.351   4.862
69786W        W41457   7.055   5.313  12.511
69787W        W41458   6.228   9.533   1.905
69788W        W41459  34.867  18.586   3.674
69789W        W41460  29.828   7.056   5.551
69790W        W41461  25.283   2.989  14.322
69791W        W41462  41.530  34.910   2.876
69792W        W41463  37.285  18.843   0.399
69793W        W41464  40.992   1.956   1.587
69794W        W41465  41.720  36.441   1.366
69795W        W41466  27.096  29.412   3.159
69796W        W41467  12.810  16.675  11.493
69797W        W41468  22.002  28.406  13.475
69798W        W41469  19.229   4.858   4.864
69799W        W41470  17.956  44.918  13.687
69800W        W41471  13.720  33.213   1.406
69801W        W41472  37.428  19.079  14.496
69802W        W41473  12.665   7.826  12.774
69803W        W41474  38.612  23.275   2.541
69804W        W41475  20.054  23.246   2.277
69805W        W41476  36.930  10.627   4.913
69806W        W41477  34.162  14.751   3.899
69807W        W41478   7.834  23.170   4.126
69808W        W41479  12.019  17.942  14.828
69809W        W41480   2.355  38.490  13.479
69810W        W41481  37.793  36.811   3.874
69811W        W41482  42.881  41.244  12.583
69812W        W41483   7.324   4.326  10.758
69813W        W41484   0.411   9.431   4.922
69814W        W41485  41.412  40.382  14.307
69815W        W41486  17.314  31.598   0.871
69816W        W41487  11.596  40.394   1.851
69817W        W41488  38.326  30.759  13.362
69818W        W41489  34.281  16.509   0.702
69819W        W41490  10.159  28.491   1.246
69820W        W41491  26.102  20.615  11.752
69821W        W41492  36.264  26.726   3.687
69822W        W41493  21.467   4.765  11.954
69823W        W41494   6.743  21.046  14.977
69824W        W41495  25.239  15.259   4.660
69825W        W41496  23.908  25.952  14.219
69826W        W41497  10.567  44.358  13.239
69827W        W41498  25.329   2.143  14.103
69828W        W41499  22.712  26.288  12.483
69829W        W41500  26.940  25.546   2.865
69830W        W41501  11.694  15.904   4.272
69831W        W41502  25.945   5.913   3.764
69832W        W41503  39.014   1.284   4.373
69833W        W41504  34.839  12.909  13.243
69834W        W41505  23.597  31.391  11.096
69835W        W41506  17.493  39.421  13.487
69836W        W41507  14.175  16.461   3.604
69837W        W41508  41.974   1.673  14.203
69838W        W41509  31.394   1.881   3.528
69839W        W41510  43.268  34.970   3.371
69840W        W41511  11.747   2.096  10.569
69841W        W41512   1.552  16.012  10.531
69842W        W41513  35.619  21.172   2.784
69843W        W41514  16.814   0.050  14.401
69844W        W41515  41.098  36.877  11.207
69845W        W41516  35.641   3.294  11.622
69846W        W41517  10.636   4.187  13.441
69847W        W41518   0.807  16.843  13.409
69848W        W41519  15.666  42.406  12.572
69849W        W41520   3.871  43.859  11.994
69850W        W41521  19.668  42.738  11.457
69851W        W41522  12.938  20.825  13.736
69852W        W41523   6.760   7.338  14.296
69853W        W41524   4.741  15.069  13.892
69854W        W41525  20.939  15.683  10.071
69855W        W41526  13.938  31.973  12.333
69856W        W41527  28.398   6.540   9.724
69857W        W41528   7.585  29.044  12.460
69858W        W41529  18.302   6.158  14.760
69859W        W41530  16.055  22.552   0.129
69860W        W41531   8.289  42.351  14.305
69861W        W41532  36.618  31.203   3.599
69862W        W41533  36.815  20.153  11.511
69863W        W41534  13.250  41.256  11.156
69864W        W41535   7.187   1.213  10.712
69865W        W41536  37.852  28.190   3.263
69866W        W41537  30.526  10.673  12.796
69867W        W41538  14.259   0.757   3.404
69868W        W41539  44.563  10.828  10.521
69869W        W41540  36.137  12.370  14.473
69870W        W41541  27.176  37.938  12.893
69871W        W41542  32.431   3.723   1.720
69872W        W41543  43.655  34.206   1.295
69873W        W41544  10.140  27.989  10.697
69874W        W41545  11.482  20.232  10.784
69875W        W41546   7.357  39.577  11.081
69876W        W41547  32.919  42.462   1.785
69877W        W41548  30.884  39.846  10.459
69878W        W41549   0.393  10.659  13.790
69879W        W41550  16.851  32.078   2.959
69880W        W41551  35.458   9.066   2.467
69881W        W41552  26.029  33.718   0.911
69882W        W41553  39.188  22.407   2.461
69883W        W41554   8.804  39.961   3.231
69884W        W41555  26.023  34.131   1.409
69885W        W41556  40.820   2.862   1.774
69886W        W41557  36.802   3.423   1.228
69887W        W41558   8.636  27.615   4.594
69888W        W41559  36.465  28.856   4.232
69889W        W41560  30.422  44.484  13.514
69890W        W41561  33.550  41.104   4.588
69891W        W41562  28.003   4.394   1.875
69892W        W41563   3.513  32.469  13.486
69893W        W41564   5.439  16.171  11.649
69894W        W41565  15.811  19.990   1.464
69895W        W41566  24.076  20.075   0.527
69896W        W41567   1.327   7.919   0.459
69897W        W41568  25.172  10.086  11.721
69898W        W41569  15.134  22.740  11.186
69899W        W41570  33.799  12.839   4.159
69900W        W41571  29.564  23.023  14.341
69901W        W41572  31.830  13.492   2.650
69902W        W41573  19.048  34.061   2.179
69903W        W41574  19.711  26.597  12.362
69904W        W41575  38.027   7.779   2.752
69905W        W41576  28.375  10.320   3.556
69906W        W41577  33.003  40.898   0.061
69907W        W41578  18.991  35.089   4.228
69908W        W41579  23.671  37.568   1.304
69909W        W41580  38.816  26.004   0.339
69910W        W41581  43.262  26.961  14.369
69911W        W41582  38.835  44.001   3.223
69912W        W41583  33.784   5.802   1.850
69913W        W41584   4.490   8.627  12.037
69914W        W41585  37.564  29.086  11.125
69915W        W41586   9.865  35.535  12.542
69916W        W41587  27.751  24.697  11.757
69917W        W41588   1.822  25.958  11.445
69918W        W41589   0.137  12.374   9.867
69919W        W41590   1.227   0.238  12.793
69920W        W41591  29.704  30.734  12.462
69921W        W41592  44.205  11.172   3.601
69922W        W41593  15.482   2.912  11.450
69923W        W41594   9.851  37.958  12.959
69924W        W41595  36.506  29.086  14.000
69925W        W41596  27.028  33.579   1.028
69926W        W41597  27.335  38.488   0.896
69927W        W41598  18.330   5.731  12.982
69928W        W41599  43.773  11.253  11.474
69929W        W41600  22.661  40.362  13.439
69930W        W41601   0.253  21.777   3.566
69931W        W41602  27.484   8.161  14.041
69932W        W41603   2.438  43.691   3.121
69933W        W41604  11.810   1.766  13.423
69934W        W41605  24.001  43.404  13.994
69935W        W41606  24.420  12.910  13.925
69936W        W41607  31.962  23.501  14.233
69937W        W41608  40.815   6.350  14.517
69938W        W41609  13.684  40.242  11.476
69939W        W41610   3.473  31.228  11.123
69940W        W41611  22.072  25.950  10.582
69941W        W41612  38.620  24.395  11.241
69942W        W41613  20.614   1.456  10.706
69943W        W41614   0.531   9.562  10.570
69944W        W41615  12.880  12.583  14.710
69945W        W41616  11.734   3.417  11.394
69946W        W41617  20.732   3.481  11.659
69947W        W41618  18.682  41.916  14.976
69948W        W41619  18.251  14.285   3.556
69949W        W41620  24.255  38.836  13.852
69950W        W41621   5.694   8.254   1.188
69951W        W41622  39.450  11.337   3.672
69952W        W41623  17.189  12.904   3.142
69953W        W41624   4.428  14.208   1.804
69954W        W41625  41.016  30.438   3.626
69955W        W41626   0.021  16.704   1.523
69956W        W41627  25.494   4.225   4.484
69957W        W41628  24.060   3.434   4.039
69958W        W41629  34.516   5.025  12.963
69959W        W41630  22.196  35.903   4.985
69960W        W41631  36.825  35.569   2.791
69961W        W41632  31.094  39.298  11.851
69962W        W41633  27.282  15.581  14.963
69963W        W41634   4.632  17.153   1.275
69964W        W41635  11.183  14.036  10.569
69965W        W41636  19.602  12.415   0.447
69966W        W41637  11.181   4.882   4.104
69967W        W41638  11.664  36.854   1.790
69968W        W41639  33.064  21.202  13.970
69969W        W41640  15.148  42.341   2.696
69970W        W41641  23.087  14.348  13.972
69971W        W41642  41.051  19.886  13.930
69972W        W41643  28.086  38.982   3.663
69973W        W41644  10.261  26.690  13.557
69974W        W41645  43.442  18.192   4.527
69975W        W41646  39.951  16.997  12.679
69976W        W41647  38.263  25.989  13.410
69977W        W41648   7.285  40.085   3.112
69978W        W41649  33.982  34.825   4.546
69979W        W41650  14.239   4.010   3.140
69980W        W41651  41.175  41.319  11.169
69981W        W41652  24.437  23.805  13.152
69982W        W41653  14.374  38.446   2.386
69983W        W41654  29.991  22.496   2.787
69984W        W41655  35.810  23.274   4.175
69985W        W41656  18.029  20.187   0.799
69986W        W41657  24.155   7.697   0.733
69987W        W41658   9.714  13.280  11.165
69988W        W41659  11.616  39.111   3.347
69989W        W41660  21.235   2.741  13.309
69990W        W41661  11.618  33.558   2.245
69991W        W41662  13.260  15.218   2.112
69992W        W41663  32.181   5.319  14.893
69993W        W41664  10.895  43.314  13.048
69994W        W41665  27.882  27.934   3.184
69995W        W41666  43.792  24.801   4.030
69996W        W41667  44.910  26.997   1.531
69997W        W41668  12.161  21.907  14.456
69998W        W41669  15.100  33.413   0.472
69999W        W41670  12.841  34.899   3.344
70000W        W41671  38.426  41.563   2.825
70001W        W41672  27.079  38.989   5.036
70002W        W41673  43.309  25.276   4.484
70003W        W41674  43.830  35.192  13.448
70004W        W41675  24.686  40.152  12.070
70005W        W41676  43.478  36.072   3.182
70006W        W41677  43.137  37.506   4.620
70007W        W41678  44.351  16.198  14.818
70008W        W41679   9.867  31.193   3.243
70009W        W41680  30.598  42.213   0.296
70010W        W41681  15.038   5.481  13.046
70011W        W41682  10.756   7.072   2.144
70012W        W41683  17.365  18.517  13.465
70013W        W41684   4.673  27.641   2.446
70014W        W41685   1.041  20.776  13.865
70015W        W41686  40.233  21.969   4.873
70016W        W41687  38.384  17.798  13.407
70017W        W41688  40.023   8.905   4.116
70018W        W41689  17.580  14.657  11.669
70019W        W41690  43.603  31.621   0.993
70020W        W41691  19.267  13.790  14.920
70021W        W41692  40.593  29.423  11.443
70022W        W41693  21.934  17.879   1.487
70023W        W41694   9.713   7.352   2.781
70024W        W41695  18.318  10.172   0.943
70025W        W41696  28.518  22.039  11.515
70026W        W41697   1.842   2.257  11.087
70027W        W41698  35.138  13.097  14.129
70028W        W41699  26.267   4.007   3.597
70029W        W41700  15.754  29.675  12.899
70030W        W41701  10.736  30.968   3.327
70031W        W41702  43.496   7.639  14.368
70032W        W41703  33.488   2.163  13.412
70033W        W41704  18.800   4.786   0.925
70034W        W41705  41.008  42.724  11.251
70035W        W41706  19.610   4.459   2.247
70036W        W41707  21.458  21.129   2.897
70037W        W41708  37.505  34.011   1.338
70038W        W41709   5.179  41.374   3.883
70039W        W41710  19.672  11.669  11.897
70040W        W41711  17.868  23.191  12.072
70041W        W41712  14.069  11.040   3.555
70042W        W41713  12.237  10.338   3.757
70043W        W41714   5.952  24.196  11.595
70044W        W41715   7.743  27.096  12.921
70045W        W41716  39.793  10.410  11.259
70046W        W41717  32.860   2.895   2.635
70047W        W41718  24.355  33.116   4.396
70048W        W41719   7.213  36.521   3.379
70049W        W41720  33.853  22.750  10.296
70050W        W41721  26.435  42.841  12.953
70051W        W41722  10.091  26.418   4.558
70052W        W41723   8.317  15.183  11.473
70053W        W41724   0.207  42.587   0.186
70054W        W41725   5.945   4.162  11.215
70055W        W41726   8.135  27.504  10.417
70056W        W41727  37.950  12.207   1.924
70057W        W41728  11.826   2.948   1.367
70058W        W41729  39.492  37.085   1.381
70059W        W41730  36.468   1.770   1.369
70060W        W41731   9.762  24.204  14.265
70061W        W41732  43.796  30.120   2.877
70062W        W41733  33.066  26.690   0.863
70063W        W41734  33.056  26.264  10.649
70064W        W41735  10.404  26.529   4.169
70065W        W41736  14.273   8.223  14.919
70066W        W41737   4.264  21.707   2.947
70067W        W41738  19.572  20.449   2.528
70068W        W41739   4.832  32.421   3.775
70069W        W41740   8.801  23.005   3.596
70070W        W41741   0.431  23.152  11.609
70071W        W41742  17.628  18.672   4.645
70072W        W41743  20.849   4.639   2.810
70073W        W41744   1.526  32.456   1.311
70074W        W41745  25.748   1.242   3.784
70075W        W41746  16.704  32.920   2.683
70076W        W41747  19.194  43.931   2.166
70077W        W41748  32.854  23.623  11.953
70078W        W41749   6.839  16.653   3.631
70079W        W41750   4.891  31.915   3.874
70080W        W41751   1.799  10.552   3.849
70081W        W41752  13.712  21.447  11.093
70082W        W41753  43.758  11.755   2.370
70083W        W41754  32.112  22.776   0.964
70084W        W41755   8.070  37.002  14.143
70085W        W41756  20.153  29.325  11.077
70086W        W41757  25.078  24.888   1.346
70087W        W41758  24.563  40.662  10.319
70088W        W41759  25.467  25.712  13.803
70089W        W41760  15.225   2.389  14.040
70090W        W41761  10.374  29.815  13.377
70091W        W41762  44.067  37.338   0.933
70092W        W41763   3.845  13.780   1.889
70093W        W41764  29.112  38.834   0.441
70094W        W41765  28.613   9.722  14.831
70095W        W41766   7.453   2.339  14.570
70096W        W41767   2.806   7.821  14.069
70097W        W41768   9.634  22.264   3.215
70098W        W41769  30.490  40.554  12.346
70099W        W41770   5.161  26.100   1.350
70100W        W41771  15.421  24.716   3.363
70101W        W41772  43.140  21.032   9.691
70102W        W41773  25.950  13.183  12.949
70103W        W41774   7.144  10.659   3.068
70104W        W41775  32.906  10.705   2.400
70105W        W41776  40.508  29.568  14.517
70106W        W41777  22.000  12.636  14.934
70107W        W41778  22.485  41.452   0.855
70108W        W41779  32.918  21.854  14.491
70109W        W41780  27.553  15.724   0.808
70110W        W41781  14.744  37.078   4.147
70111W        W41782  40.190  37.460   3.728
70112W        W41783  39.421  25.916  13.857
70113W        W41784  38.036  36.889   0.322
70114W        W41785  42.837  26.247   5.074
70115W        W41786  44.780  34.090  13.987
70116W        W41787  44.988  36.014  10.687
70117W        W41788   3.686  31.456   3.834
70118W        W41789  16.316  32.353  11.595
70119W        W41790  37.949  44.165  13.508
70120W        W41791  29.663  36.845  13.417
70121W        W41792   0.937  31.153   3.643
70122W        W41793  17.240  38.448  10.908
70123W        W41794   7.950  22.819  13.473
70124W        W41795  37.067  35.489  11.275
70125W        W41796  24.948   9.421   2.883
70126W        W41797  13.226  22.861  12.875
70127W        W41798  21.559   5.240   0.307
70128W        W41799   6.955  24.721   4.014
70129W        W41800  28.615  41.976   4.370
70130W        W41801  35.942  22.308   1.478
70131W        W41802  37.449  28.739  13.882
70132W        W41803  43.820  25.751  13.994
70133W        W41804  10.633  27.636  14.398
70134W        W41805   4.723  15.529   2.767
70135W        W41806  38.459  22.009   2.366
70136W        W41807   3.925  24.644   1.170
70137W        W41808  26.636  41.758   2.903
70138W        W41809   1.593  26.778  14.161
70139W        W41810  16.574  40.891  13.445
70140W        W41811  26.293  35.239   4.990
70141W        W41812  20.283  17.798  11.518
70142W        W41813   5.215  36.977   1.747
70143W        W41814  43.542  33.190   3.909
70144W        W41815   2.787  27.542  11.527
70145W        W41816  33.873  28.428  10.607
70146W        W41817  33.987  18.398  10.702
70147W        W41818  14.677  18.308  13.329
70148W        W41819  29.921   9.633  10.607
70149W        W41820  26.923  32.133  14.739
70150W        W41821  12.876  23.450   2.682
70151W        W41822  24.188  21.955  12.112
70152W        W41823  32.963  40.544   0.421
70153W        W41824  31.348   7.222  14.228
70154W        W41825   8.169  35.844  10.723
70155W        W41826   6.466  20.334  10.688
70156W        W41827  28.606  33.949   2.628
70157W        W41828   9.260  36.899  11.795
70158W        W41829  23.095  41.403  14.286
70159W        W41830  40.824  26.092  12.182
70160W        W41831  16.654  18.662   2.882
70161W        W41832  23.416  18.181  12.085
70162W        W41833   0.814  28.001  12.904
70163W        W41834  28.555  31.071   0.281
70164W        W41835  12.210   6.463   4.353
70165W        W41836   2.480  34.944   0.748
70166W        W41837  39.179   3.880   2.259
70167W        W41838   2.458  16.778  11.213
70168W        W41839  42.787  19.647  12.820
70169W        W41840  15.330  41.169   4.264
70170W        W41841  20.270  21.268   1.878
70171W        W41842  34.865  27.272  13.138
70172W        W41843  15.115  27.795   0.087
70173W        W41844  39.577  23.487  14.310
70174W        W41845  35.146  18.580  10.824
70175W        W41846  38.581  42.261  11.276
70176W        W41847  40.073  28.549   2.214
70177W        W41848  11.290  25.946  11.148
70178W        W41849  32.956   0.901   1.764
70179W        W41850  38.861   8.708   3.347
70180W        W41851   4.896  24.170  14.815
70181W        W41852  12.158  17.034  12.605
70182W        W41853  27.897  14.118  14.532
70183W        W41854  37.119  34.901   0.253
70184W        W41855  37.497  35.256  10.606
70185W        W41856  27.417  44.456   3.573
70186W        W41857  26.258  43.556   2.646
70187W        W41858  29.395  19.514   0.905
70188W        W41859  27.593  21.999   0.368
70189W        W41860   2.817   7.914   4.174
70190W        W41861   3.899  23.066  14.865
70191W        W41862  12.673  35.563  14.620
70192W        W41863  33.897   5.651  14.149
70193W        W41864  24.597   7.519   3.902
70194W        W41865  17.166  30.909   3.599
70195W        W41866  44.772  29.669   2.623
70196W        W41867  39.829  35.379  14.017
70197W        W41868  34.500  34.514   2.977
70198W        W41869  44.507  28.794   4.160
70199W        W41870  35.562   9.808  13.555
70200W        W41871  31.865   5.472  12.068
70201W        W41872  16.211   9.864  13.106
70202W        W41873  20.129  34.531  13.269
70203W        W41874  12.340  42.677  14.285
70204W        W41875  28.523  33.412   4.316
70205W        W41876   6.185   6.222  14.119
70206W        W41877  38.140  35.556   4.083
70207W        W41878   3.291  16.484   2.426
70208W        W41879  24.980   3.424   0.484
70209W        W41880  20.667  17.455  14.754
70210W        W41881  42.826  43.879  13.866
70211W        W41882  18.802   0.555  13.421
70212W        W41883  41.241  20.468   1.845
70213W        W41884  40.632  20.529  11.454
70214W        W41885   3.231  15.399  10.032
70215W        W41886  19.068  30.432  11.971
70216W        W41887  20.567  23.467   2.164
70217W        W41888  34.316   6.788   4.207
70218W        W41889   2.387  11.903   3.639
70219W        W41890  15.784  10.712   1.872
70220W        W41891  22.997  41.392  13.748
70221W        W41892  23.512   3.123  11.450
70222W        W41893  31.669  21.102   2.877
70223W        W41894   9.572  34.653  14.780
70224W        W41895  40.928   6.858  11.654
70225W        W41896  31.516  44.909   3.232
70226W        W41897   4.170  32.557   0.991
70227W        W41898  30.439  11.892   3.319
70228W        W41899  23.647   1.799  11.968
70229W        W41900  42.373  32.234   3.735
70230W        W41901  10.224  17.092   0.096
70231W        W41902  24.716  19.093   4.150
70232W        W41903   8.755  27.333  12.609
70233W        W41904  24.640  10.651  11.870
70234W        W41905  29.999  30.577  12.038
70235W        W41906  43.288  14.767  11.777
70236W        W41907  39.035  20.563   3.574
70237W        W41908   1.005  34.612   4.756
70238W        W41909  19.975  40.885   4.201
70239W        W41910  36.955  29.928  14.833
70240W        W41911  36.085   2.871   4.621
70241W        W41912  11.394  28.268  13.631
70242W        W41913  37.827  21.050  13.520
70243W        W41914  34.745  24.102   3.614
70244W        W41915  32.677  31.974  14.394
70245W        W41916   5.371   9.696  12.438
70246W        W41917  44.795  19.702   3.337
70247W        W41918  36.477  14.807   2.544
70248W        W41919   5.891   3.103   2.689
70249W        W41920  35.344  14.176   2.458
70250W        W41921  34.113  27.011  13.417
70251W        W41922  40.372  19.697   4.921
70252W        W41923  24.228  38.727   1.668
70253W        W41924  32.605  12.681   1.179
70254W        W41925   5.356  15.990  12.776
70255W        W41926  11.226  10.204  12.625
70256W        W41927  43.850  31.050  12.195
70257W        W41928  23.628  19.770  10.676
70258W        W41929  34.862   4.487  11.815
70259W        W41930  27.945  38.541  11.944
70260W        W41931  31.930  33.022   1.746
70261W        W41932  36.381  37.898   4.089
70262W        W41933  36.821  43.030  14.415
70263W        W41934  30.664   9.176  11.549
70264W        W41935  32.446   7.283   2.368
70265W        W41936  16.349   5.228   1.110
70266W        W41937   1.850  34.293   1.737
70267W        W41938  35.508   5.353  12.472
70268W        W41939  16.149  20.614  14.369
70269W        W41940  42.710   0.609   5.087
70270W        W41941  41.917  42.833  11.541
70271W        W41942  25.213   8.205   4.563
70272W        W41943  20.028   0.966   2.873
70273W        W41944  24.752   3.931  13.036
70274W        W41945  28.491  35.124  11.490
70275W        W41946  13.639  44.848  14.482
70276W        W41947  28.487  44.265  13.781
70277W        W41948  26.221  27.672   1.768
70278W        W41949  21.690  19.582  10.612
70279W        W41950  44.328  14.279  14.857
70280W        W41951  39.728   8.682  12.612
70281W        W41952  40.547   5.772  10.746
70282W        W41953  31.287  10.782   4.730
70283W        W41954  32.281  10.799  14.859
70284W        W41955  19.511  18.880  11.648
70285W        W41956  42.908  19.244   0.269
70286W        W41957  19.117  22.479   3.174
70287W        W41958  39.945  19.592   4.619
70288W        W41959  37.799  33.208   4.552
70289W        W41960  27.568  29.707   4.307
70290W        W41961  32.227  32.418  12.509
70291W        W41962   3.836  24.501   2.131
70292W        W41963  24.002   4.299  11.011
70293W        W41964   3.609   1.275  11.256
70294W        W41965  38.564  44.926  13.480
70295W        W41966  36.404  33.116  10.554
70296W        W41967  27.582  38.363  14.720
70297W        W41968   2.910  38.372   2.905
70298W        W41969  40.076  33.006   0.290
70299W        W41970  21.566  33.662   2.811
70300W        W41971  26.598  29.292   1.190
70301W        W41972  31.630  25.958   3.177
70302W        W41973  34.617  11.051  11.602
70303W        W41974  34.079   6.662  11.588
70304W        W41975  19.580   4.936  14.665
70305W        W41976  11.292  26.438  12.324
70306W        W41977  12.862   9.419   3.890
70307W        W41978  21.104  16.458   2.403
70308W        W41979  29.533  41.497  11.942
70309W        W41980  21.166   5.864   4.458
70310W        W41981   1.318  38.764  12.365
70311W        W41982  42.662   7.961   2.400
70312W        W41983   2.006  44.754  12.892
70313W        W41984  40.814   3.817  13.155
70314W        W41985  18.022  34.417  10.915
70315W        W41986  26.223  37.899  12.507
70316W        W41987   0.156  33.239  11.532
70317W        W41988  31.208   3.211   1.807
70318W        W41989  29.623  27.139   3.203
70319W        W41990   8.697  10.804  10.709
70320W        W41991  21.324   2.377   0.111
70321W        W41992  30.380  40.488   0.962
70322W        W41993  17.692  39.891  12.076
70323W        W41994  35.916  34.529  13.108
70324W        W41995   2.881  16.572  11.586
70325W        W41996  20.994  29.132   3.668
70326W        W41997  21.742  12.722  12.987
70327W        W41998  41.094  25.881   1.970
70328W        W41999  34.053  41.965  10.683
70329W        W42000  23.260  10.750  10.692
70330W        W42001  42.491  29.467  14.852
70331W        W42002   9.294  24.231  14.021
70332W        W42003  12.199   5.803  10.487
70333W        W42004  37.400  39.227  12.901
70334W        W42005  18.810  23.006   4.239
70335W        W42006  40.831  34.921  14.509
70336W        W42007  44.116   2.958  14.310
70337W        W42008   1.287  37.784   2.925
70338W        W42009  24.592  25.567  11.702
70339W        W42010  10.762  17.444   4.919
70340W        W42011   7.316   9.927   2.465
70341W        W42012   9.919  17.297  13.267
70342W        W42013  40.882  27.651   2.835
70343W        W42014  34.661  26.308  13.966
70344W        W42015   3.812  11.967   1.586
70345W        W42016  14.263  26.291  11.918
70346W        W42017  37.781  33.242   0.952
70347W        W42018   9.752  22.128   1.291
70348W        W42019  40.528  30.867   0.937
70349W        W42020  28.995  24.070  12.006
70350W        W42021  34.018  21.211  12.615
70351W        W42022  30.678  24.908   1.262
70352W        W42023  44.224   8.813   9.851
70353W        W42024  28.108  27.932  11.450
70354W        W42025  14.380  20.469   3.408
70355W        W42026   9.326  11.836  14.601
70356W        W42027   4.305   5.337   1.743
70357W        W42028   9.014  32.668   2.397
70358W        W42029  39.751  27.075   2.982
70359W        W42030   0.366  18.652   2.831
70360W        W42031  24.282  20.041  11.623
70361W        W42032  39.230  39.157   3.975
70362W        W42033  37.896   3.795   4.087
70363W        W42034  43.484   5.802   1.061
70364W        W42035  21.909  18.374   4.336
70365W        W42036   4.170  36.603   3.751
70366W        W42037  12.889  32.026  12.448
70367W        W42038  12.498  18.733   4.666
70368W        W42039  38.429  43.409  10.704
70369W        W42040  19.077   8.905  12.668
70370W        W42041  24.567  36.437  14.953
70371W        W42042  24.722  28.182   0.849
70372W        W42043  11.179  15.786  14.506
70373W        W42044   6.698  41.434   0.291
70374W        W42045   8.904  38.852   2.902
70375W        W42046   9.707  41.089  12.971
70376W        W42047   1.515   6.286  13.052
70377W        W42048  37.420  25.030   1.672
70378W        W42049  29.763   2.497  11.977
70379W        W42050  43.294  36.559   3.164
70380W        W42051  32.121  16.797   4.717
70381W        W42052  42.070  40.115   4.742
70382W        W42053  37.857  41.681   4.546
70383W        W42054   0.358  18.130  10.821
70384W        W42055  23.246  40.869   2.665
70385W        W42056  18.130  29.950  12.087
70386W        W42057  25.157  43.341   4.108
70387W        W42058  35.434   1.193  10.951
70388W        W42059  39.055  39.704  10.942
70389W        W42060   9.738  27.756   1.732
70390W        W42061  38.471   7.953   1.856
70391W        W42062  29.944  32.621   3.597
70392W        W42063  13.315  19.108  11.678
70393W        W42064  22.638  42.506   4.561
70394W        W42065  25.069  15.754   0.702
70395W        W42066  18.271   2.759   0.251
70396W        W42067  10.715  14.283  10.644
70397W        W42068  36.414   2.621  10.816
70398W        W42069  13.018  15.711   4.700
70399W        W42070  44.242  11.599   1.191
70400W        W42071  32.638   8.692  12.600
70401W        W42072  35.617   8.655  11.686
70402W        W42073  39.551   1.904  10.687
70403W        W42074  35.054   7.741   1.256
70404W        W42075  37.535   2.587   4.999
70405W        W42076   9.356  20.687   4.227
70406W        W42077  38.383  38.480  14.372
70407W        W42078  20.670  31.189   2.754
70408W        W42079  32.609   9.197  11.236
70409W        W42080  10.709  20.568  14.223
70410W        W42081   0.533   7.331   3.086
70411W        W42082  38.398  38.434   4.472
70412W        W42083  35.391  43.717  13.453
70413W        W42084  14.349  20.063   0.167
70414W        W42085  34.116  13.336   2.625
70415W        W42086  15.775  33.319  14.206
70416W        W42087  43.249  14.127   3.989
70417W        W42088   0.901  30.487  10.171
70418W        W42089  34.086   2.870   0.886
70419W        W42090   7.456  38.112  11.636
70420W        W42091  26.454   1.913  13.471
70421W        W42092  21.060  43.962   0.509
70422W        W42093  20.053  33.837  12.612
70423W        W42094  11.562  31.563  11.450
70424W        W42095  42.563  19.652  11.669
70425W        W42096  21.240  28.101  12.370
70426W        W42097  13.318  23.152   3.509
70427W        W42098  35.847  34.348   3.289
70428W        W42099   2.981  18.105  11.109
70429W        W42100  21.124  29.753   4.478
70430W        W42101  38.914  30.995   3.543
70431W        W42102   0.852  30.598  10.691
70432W        W42103   4.694  40.228   2.212
70433W        W42104  31.785  25.175  13.189
70434W        W42105   4.660  31.038   2.258
70435W        W42106  40.721  13.627  13.361
70436W        W42107  12.193  10.893   0.189
70437W        W42108  33.947  30.475  12.413
70438W        W42109  28.961  20.018  11.389
70439W        W42110  42.921  40.715  12.508
70440W        W42111  21.243  36.804   9.680
70441W        W42112   0.905  16.963   5.111
70442W        W42113  39.092   4.968   4.681
70443W        W42114  36.825  28.551  13.161
70444W        W42115  35.965  43.373  11.559
70445W        W42116   5.586  17.938  13.402
70446W        W42117  21.598   0.496   2.551
70447W        W42118   7.245   7.656  14.433
70448W        W42119   5.764  29.376   1.451
70449W        W42120  16.118  21.720   1.278
70450W        W42121   1.563  42.999   2.296
70451W        W42122  35.648  27.414   4.774
70452W        W42123  30.556  42.368   2.675
70453W        W42124   0.543  13.082   2.201
70454W        W42125  39.207   3.851  10.952
70455W        W42126  39.433  43.186  11.588
70456W        W42127  31.516  25.008   3.346
70457W        W42128  15.298   3.901  13.887
70458W        W42129  11.163  27.078  12.934
70459W        W42130  18.610   0.431  13.962
70460W        W42131  16.262  17.504   0.735
70461W        W42132  12.727  33.112  13.132
70462W        W42133  42.859   6.869   2.889
70463W        W42134  20.810   0.212   0.323
70464W        W42135  39.093  37.071  11.056
70465W        W42136  20.578  17.314   1.642
70466W        W42137  42.972  41.646   4.619
70467W        W42138   1.143  16.647   4.654
70468W        W42139  28.589  24.374   0.924
70469W        W42140  22.689  43.847   3.572
70470W        W42141  13.647   5.930  14.052
70471W        W42142  44.176  30.787  11.597
70472W        W42143  24.886  42.954   4.399
70473W        W42144   2.313  14.640   4.766
70474W        W42145  19.104  19.562  14.164
70475W        W42146   5.888  27.665  13.084
70476W        W42147   2.573   2.833   3.645
70477W        W42148   6.009   3.967  12.432
70478W        W42149   6.597  32.123   4.198
70479W        W42150  37.554  21.733  10.981
70480W        W42151  16.675  40.374  13.349
70481W        W42152  17.083  26.195   4.295
70482W        W42153   4.934   8.897   3.894
70483W        W42154  32.113   9.289  11.275
70484W        W42155   9.106  18.702   1.754
70485W        W42156  10.352  16.593  14.800
70486W        W42157  43.019   8.425   3.811
70487W        W42158  33.880  29.434   4.231
70488W        W42159  26.145  24.165  11.963
70489W        W42160  15.766  43.033  12.047
70490W        W42161   0.713  19.988   4.115
70491W        W42162  32.392  32.865  11.579
70492W        W42163  17.586  14.231   3.794
70493W        W42164  16.275  11.413  11.584
70494W        W42165  12.306  24.938  12.903
70495W        W42166  22.741  13.935  14.007
70496W        W42167  21.098  39.104  12.136
70497W        W42168  37.568   1.206   4.937
70498W        W42169   3.879  37.619  14.463
70499W        W42170  22.494   8.922  10.170
70500W        W42171  22.555  44.141   1.274
70501W        W42172  33.426  33.417   4.576
70502W        W42173  30.569  31.189  12.089
70503W        W42174   6.709   3.388   4.722
70504W        W42175  34.354  23.041   3.272
70505W        W42176  12.324  26.124   0.415
70506W        W42177  41.317  33.864  11.589
70507W        W42178  42.223  35.604   2.924
70508W        W42179  13.384  11.220  11.809
70509W        W42180   0.162   5.273   1.987
70510W        W42181  17.516  14.409   5.531
70511W        W42182  34.353  25.266   2.874
70512W        W42183  13.697  35.742   3.637
70513W        W42184   2.837  20.165  13.973
70514W        W42185  39.781  28.472   4.049
70515W        W42186  37.360  35.550   1.254
70516W        W42187  39.479  31.460  12.369
70517W        W42188  14.015   7.226   2.295
70518W        W42189  40.957  29.006  14.633
70519W        W42190   0.838  29.633  13.200
70520W        W42191  34.747  15.341  12.925
70521W        W42192  43.861   4.250  12.301
70522W        W42193   7.713  18.966   4.080
70523W        W42194  24.591  18.770   2.400
70524W        W42195  10.729  17.858   0.785
70525W        W42196  37.977  29.610   2.369
70526W        W42197  28.787   2.393   2.757
70527W        W42198  15.337   2.353  12.085
70528W        W42199  32.086  24.130   3.669
70529W        W42200  43.996  43.347   4.182
70530W        W42201   7.560  21.010   5.214
70531W        W42202  38.382  19.150   1.421
70532W        W42203  30.974   6.280   3.349
70533W        W42204  20.583  12.623   2.754
70534W        W42205  43.297  14.377   0.826
70535W        W42206  23.963   3.983  11.544
70536W        W42207  17.152  34.619   1.293
70537W        W42208   3.359   7.409   3.400
70538W        W42209  10.755   0.446   4.606
70539W        W42210   1.343   4.209   4.007
70540W        W42211  24.634   7.467   0.645
70541W        W42212  35.777   1.381   1.715
70542W        W42213  14.981   9.315   2.696
70543W        W42214  10.172  15.997   5.010
70544W        W42215  41.325   4.313   4.508
70545W        W42216  16.386  33.744  11.571
70546W        W42217  24.253  33.884  12.878
70547W        W42218  16.820  24.597  13.334
70548W        W42219  20.710  37.508  12.536
70549W        W42220  15.755  13.067   2.004
70550W        W42221   6.109   4.245  12.012
70551W        W42222  19.059   1.537   2.255
70552W        W42223  19.993  20.479   0.132
70553W        W42224   5.617   5.399  14.819
70554W        W42225  21.003  18.862   3.063
70555W        W42226  35.577  33.870   3.131
70556W        W42227  35.545  28.743   0.375
70557W        W42228  41.000  40.447  11.234
70558W        W42229  25.793  22.743   2.620
70559W        W42230  20.339   6.408   4.485
70560W        W42231   4.197  36.575   1.885
70561W        W42232  10.672   7.153  12.614
70562W        W42233  19.730  41.469   2.353
70563W        W42234  33.813  18.139   1.046
70564W        W42235   6.031   7.375   1.199
70565W        W42236  37.076  27.966  10.630
70566W        W42237  32.564  21.036  10.986
70567W        W42238  33.416  25.609   1.450
70568W        W42239  13.159   1.740  13.881
70569W        W42240  28.018   8.472   1.832
70570W        W42241  25.123  40.364  12.958
70571W        W42242  39.429  11.510  12.908
70572W        W42243  39.500  44.972   0.277
70573W        W42244  36.447  24.512   2.930
70574W        W42245  39.328   3.801   0.555
70575W        W42246   0.941  10.884   3.866
70576W        W42247  40.415   4.548  11.684
70577W        W42248  17.168  30.435  14.326
70578W        W42249  40.363  30.011   4.761
70579W        W42250  17.065  12.226   1.376
70580W        W42251  14.655   2.057   0.935
70581W        W42252  34.948  35.949   4.678
70582W        W42253  35.322  40.787  10.997
70583W        W42254  29.981  41.555  11.607
70584W        W42255  21.019  13.631   4.556
70585W        W42256  13.121  30.031   4.163
70586W        W42257   6.827   2.420   0.458
70587W        W42258   7.806  11.314   3.729
70588W        W42259  11.759   9.326   0.317
70589W        W42260  23.189  17.755  13.574
70590W        W42261  15.750  30.475  10.163
70591W        W42262  31.059   4.468  10.828
70592W        W42263  34.330   6.889   2.804
70593W        W42264  41.860  42.891  10.256
70594W        W42265  32.369  19.562  13.293
70595W        W42266   5.826   3.535   2.978
70596W        W42267   1.561  17.857   3.346
70597W        W42268  27.033  12.212   3.230
70598W        W42269  11.749   5.746  10.201
70599W        W42270  40.841  20.996   0.362
70600W        W42271  38.805   4.356  14.718
70601W        W42272  14.722  13.692   1.383
70602W        W42273  43.287  42.287   4.656
70603W        W42274  28.713  12.976   3.978
70604W        W42275  36.958  29.054   4.406
70605W        W42276   9.314  15.105  11.148
70606W        W42277  25.564  11.525  14.426
70607W        W42278  44.789  11.178  13.471
70608W        W42279  41.479  12.047  12.032
70609W        W42280  14.806   4.121   5.375
70610W        W42281  13.079  44.560   3.713
70611W        W42282  43.518  41.792  10.229
70612W        W42283  22.005  42.396   1.413
70613W        W42284  19.355  19.926  14.861
70614W        W42285  16.087  27.442   4.036
70615W        W42286   4.319  29.467  11.431
70616W        W42287  34.018  20.217   3.282
70617W        W42288  21.518   1.269   0.001
70618W        W42289   6.154  29.889  12.328
70619W        W42290  14.583  14.192  14.541
70620W        W42291  30.457  14.079   0.466
70621W        W42292  22.467   0.439   2.716
70622W        W42293  37.038  22.433   2.387
70623W        W42294  17.770  22.869   2.337
70624W        W42295  18.249  25.992  13.921
70625W        W42296  23.465   5.888  13.619
70626W        W42297  18.030  27.992  14.216
70627W        W42298  43.678  41.114   3.714
70628W        W42299  20.134  22.271   1.832
70629W        W42300  23.111   9.465  11.999
70630W        W42301  16.714  12.310   2.748
70631W        W42302  10.068  28.562   4.502
70632W        W42303  31.506  37.637   2.743
70633W        W42304  29.452  20.058  11.181
70634W        W42305   2.678  32.460  13.858
70635W        W42306  28.415  12.264   0.121
70636W        W42307  21.791   0.947  12.074
70637W        W42308  10.320  13.849   0.345
70638W        W42309  26.575   0.190  14.896
70639W        W42310  25.713  39.051  13.493
70640W        W42311  41.243  16.301  12.144
70641W        W42312   9.438   4.912   2.292
70642W        W42313  18.589  21.113  13.589
70643W        W42314  20.713  19.542   2.918
70644W        W42315  30.534  38.168  10.928
70645W        W42316   1.875  18.738  12.880
70646W        W42317   6.908  39.874  10.728
70647W        W42318  26.982  33.965   4.659
70648W        W42319  20.570  27.565   0.478
70649W        W42320  20.984  40.349   2.337
70650W        W42321  11.370   6.596   0.649
70651W        W42322  16.408  37.963   3.388
70652W        W42323  11.242  19.065   0.265
70653W        W42324  39.578  43.060   3.634
70654W        W42325  22.300   1.007  12.480
70655W        W42326  21.220  17.493   1.910
70656W        W42327  38.462  44.462   3.704
70657W        W42328  12.689  25.507  11.454
70658W        W42329   1.416  25.488  12.590
70659W        W42330  26.196   8.523   1.455
70660W        W42331   3.221  20.786   0.118
70661W        W42332  32.138  16.190   1.914
70662W        W42333  34.559  29.442  14.756
70663W        W42334   2.810  37.383  10.974
70664W        W42335   6.588  37.676  14.682
70665W        W42336  32.959   7.141   0.372
70666W        W42337   8.685  25.781  13.478
70667W        W42338  11.370  37.063   0.387
70668W        W42339   7.473  39.155   0.040
70669W        W42340  30.743  19.215  14.113
70670W        W42341   4.855  11.353   3.287
70671W        W42342  13.310  22.170  11.127
70672W        W42343  12.174  18.708   1.520
70673W        W42344  36.552  27.365  12.957
70674W        W42345  37.563  11.323   2.872
70675W        W42346  43.383   1.546   2.791
70676W        W42347  26.242   7.299   2.448
70677W        W42348  23.016  26.129  12.083
70678W        W42349  22.064  30.483   2.808
70679W        W42350  16.101  23.611   0.539
70680W        W42351   1.227  42.747   3.704
70681W        W42352  31.813  20.251   2.729
70682W        W42353  43.300  29.112   1.870
70683W        W42354  25.774  22.728  11.181
70684W        W42355  26.150  18.259   1.906
70685W        W42356   6.205  36.998  12.205
70686W        W42357  44.365  30.124   1.796
70687W        W42358   8.871  17.638   1.182
70688W        W42359   1.334   3.099   4.927
70689W        W42360  16.885   7.288   2.848
70690W        W42361  27.013  27.668   3.656
70691W        W42362  34.837  31.075   1.766
70692W        W42363   9.121  43.006  13.464
70693W        W42364  42.960   9.323  12.101
70694W        W42365  38.821   0.340  12.471
70695W        W42366   2.393  14.050   4.213
70696W        W42367  12.044   4.432  14.954
70697W        W42368  20.419  30.799   4.177
70698W        W42369  29.026  10.140  10.693
70699W        W42370  11.284  39.979   4.169
70700W        W42371  20.105  28.476   2.880
70701W        W42372  30.349  25.498   4.666
70702W        W42373  10.862  14.634   2.459
70703W        W42374  41.898  21.978   3.733
70704W        W42375   5.621  39.511   3.759
70705W        W42376  37.744   6.237  10.733
70706W        W42377  33.996   6.932  13.827
70707W        W42378   0.549  31.079   4.786
70708W        W42379   8.096  27.947  11.161
70709W        W42380  37.899  41.687  12.734
70710W        W42381  40.197  29.011   2.816
70711W        W42382  42.745   6.655  10.703
70712W        W42383   1.794   6.657   3.665
70713W        W42384  28.849  13.522  12.746
70714W        W42385  38.004  44.324   3.891
70715W        W42386   8.654  18.138   2.950
70716W        W42387  26.668  37.388   3.554
70717W        W42388  41.246  17.386   1.722
70718W        W42389  11.237  40.508   4.199
70719W        W42390  26.044  18.741   2.774
70720W        W42391  43.887  12.872   5.095
70721W        W42392  37.612  25.501   1.779
70722W        W42393  33.582  26.267  10.172
70723W        W42394  40.987   7.060   4.136
70724W        W42395  43.000  32.931  14.461
70725W        W42396  39.489  25.103   2.214
70726W        W42397  36.069  26.513   1.021
70727W        W42398  40.473  40.540  12.516
70728W        W42399  18.808  36.874  12.474
70729W        W42400  18.580  37.512  10.286
70730W        W42401  43.691  21.509  10.039
70731W        W42402   1.207  37.724   3.436
70732W        W42403  19.728  21.155  14.316
70733W        W42404  18.762  32.030   4.142
70734W        W42405  10.624  24.064  10.708
70735W        W42406  34.415  23.631   2.251
70736W        W42407   5.129  12.808   3.220
70737W        W42408  43.879   2.813  13.839
70738W        W42409  17.521  27.441  13.925
70739W        W42410  42.118  36.135   4.985
70740W        W42411  33.938  39.743  12.175
70741W        W42412  44.035   4.247   1.740
70742W        W42413  17.670  10.661  12.496
70743W        W42414  26.584  20.783  13.427
70744W        W42415  28.680  10.124  13.438
70745W        W42416  10.348   9.748  11.648
70746W        W42417  19.070  23.297  10.716
70747W        W42418  44.824  40.980   2.310
70748W        W42419  15.878  19.289   4.290
70749W        W42420  11.711  30.213  10.396
70750W        W42421  35.472  16.517  12.905
70751W        W42422   5.374  15.445   0.358
70752W        W42423  25.523  41.806   0.682
70753W        W42424  18.854  33.520   1.834
70754W        W42425  23.474   0.482   4.482
70755W        W42426  12.161  20.113  11.519
70756W        W42427  15.672  27.843  12.420
70757W        W42428  31.124   5.141   2.409
70758W        W42429  22.560  39.554   0.941
70759W        W42430  25.872   9.112   4.187
70760W        W42431  19.315  41.224  13.542
70761W        W42432  44.423  30.833   0.445
70762W        W42433   3.277  33.973   0.663
70763W        W42434  20.621  44.230  10.964
70764W        W42435  15.099   7.628   4.088
70765W        W42436  40.500   8.845   2.724
70766W        W42437  28.047  43.504  12.060
70767W        W42438  44.003  43.989   4.720
70768W        W42439  18.786  19.277  11.894
70769W        W42440  12.219  33.274  12.677
70770W        W42441  12.622  12.778  10.674
70771W        W42442  21.376   7.698  12.120
70772W        W42443  19.628  18.018  11.536
70773W        W42444  31.076  12.234   4.414
70774W        W42445  18.648  29.211   4.619
70775W        W42446  43.472  10.034  12.649
70776W        W42447  34.108   7.251  10.761
70777W        W42448  36.590  10.939   3.280
70778W        W42449  12.464   0.855  13.017
70779W        W42450  27.986  37.004  14.597
70780W        W42451  22.249  34.288  12.081
70781W        W42452  38.997  37.941   3.191
70782W        W42453  33.960  20.246  14.514
70783W        W42454  19.157   4.543  12.744
70784W        W42455  13.706  28.140   0.364
70785W        W42456  34.172   5.210   1.187
70786W        W42457  36.223  20.615  12.519
70787W        W42458  18.156  13.933   4.606
70788W        W42459  14.639  25.439  13.751
70789W        W42460  24.839   8.537   2.641
70790W        W42461  18.786   2.144   5.032
70791W        W42462  10.610  32.326  14.720
70792W        W42463  39.352  21.215  13.451
70793W        W42464   5.009  21.718  14.644
70794W        W42465   8.430  31.014   0.770
70795W        W42466   8.848   6.151  10.786
70796W        W42467  32.399  10.188  11.058
70797W        W42468  31.476   5.769  13.316
70798W        W42469  38.981  30.241  12.119
70799W        W42470  29.496  12.126   2.122
70800W        W42471  14.653   8.925  14.302
70801W        W42472  11.734  15.593   3.293
70802W        W42473  15.835  17.380  14.234
70803W        W42474  39.032  21.574   3.724
70804W        W42475  28.477  26.892   0.385
70805W        W42476   5.236  41.333  14.069
70806W        W42477   4.522   8.702  13.091
70807W        W42478  27.190  11.266   0.676
70808W        W42479  23.173   8.092   4.122
70809W        W42480  42.776  35.675  12.065
70810W        W42481  36.774  26.016   0.885
70811W        W42482   6.098  33.209  12.113
70812W        W42483  38.422  40.897   3.457
70813W        W42484   7.644  26.710  10.736
70814W        W42485  41.746  39.417  11.127
70815W        W42486  20.185  23.782   4.008
70816W        W42487  30.210  16.157  14.145
70817W        W42488  10.685   6.440  10.249
70818W        W42489  13.319   9.625  13.019
70819W        W42490  25.751  32.813  14.944
70820W        W42491   5.476  34.947   3.715
70821W        W42492   2.967   1.027   1.511
70822W        W42493   0.139   6.827   0.026
70823W        W42494  15.695  32.614   1.381
70824W        W42495  44.857   5.757  11.653
70825W        W42496  14.096  11.368  13.428
70826W        W42497   5.435  15.189  10.436
70827W        W42498   7.816  25.975  13.284
70828W        W42499  42.532  36.572   1.747
70829W        W42500  33.539  36.713   0.692
70830W        W42501  30.199  15.305  11.998
70831W        W42502  21.750  44.438   4.588
70832W        W42503  23.616  14.438  13.996
70833W        W42504  27.558  15.950  11.445
70834W        W42505  21.534  38.883  12.375
70835W        W42506  25.657  11.607  11.212
70836W        W42507  37.142  23.250   2.809
70837W        W42508   0.619   1.701  13.126
70838W        W42509  15.633  21.411   3.219
70839W        W42510  15.411  40.380  14.490
70840W        W42511  30.400  11.985   0.228
70841W        W42512  14.732   5.248  12.134
70842W        W42513   5.678  27.653  11.126
70843W        W42514  30.150  19.693  14.786
70844W        W42515  12.542  35.517   2.626
70845W        W42516  35.410  18.049  13.501
70846W        W42517  23.131  30.108   4.547
70847W        W42518   7.183  19.852  14.497
70848W        W42519   6.978  41.323  14.791
70849W        W42520  27.055  24.061   4.549
70850W        W42521  33.242  12.221  13.874
70851W        W42522  44.694  35.001  13.935
70852W        W42523   5.055  40.574   2.313
70853W        W42524  19.084  27.993  10.685
70854W        W42525  40.564   0.256  13.574
70855W        W42526  31.035  43.279   2.579
70856W        W42527  26.738  43.096  11.536
70857W        W42528  27.973  11.691  10.170
70858W        W42529  20.577   8.976  12.076
70859W        W42530  12.146   8.304   3.714
70860W        W42531  41.410  13.849   0.794
70861W        W42532  43.741  38.087  11.986
70862W        W42533  26.631  36.816   2.738
70863W        W42534  17.807  43.161  11.691
70864W        W42535  35.008  38.492   0.022
70865W        W42536  17.642  15.115  11.900
70866W        W42537  14.107  12.529   4.704
70867W        W42538  23.228  41.447   1.119
70868W        W42539   4.775  25.477   3.241
70869W        W42540  24.558  44.411   4.855
70870W        W42541  38.839  40.263   2.797
70871W        W42542  31.257  22.451   2.585
70872W        W42543  37.450  40.287   0.917
70873W        W42544  34.966  16.634  13.830
70874W        W42545  24.638  44.887   3.125
70875W        W42546  28.570   6.948   0.615
70876W        W42547  41.010   1.719  14.540
70877W        W42548  27.179  18.670  10.822
70878W        W42549  36.126  40.691   4.606
70879W        W42550  27.691   0.259  14.425
70880W        W42551  15.906   1.783  10.587
70881W        W42552  13.749  15.482  12.126
70882W        W42553  36.393  22.256  12.013
70883W        W42554  32.340  30.993  10.390
70884W        W42555  44.573   6.687  11.875
70885W        W42556  30.518  14.080  12.482
70886W        W42557  38.963  28.216   1.643
70887W        W42558  27.328  25.895  12.145
70888W        W42559   4.726  16.618  14.983
70889W        W42560   0.751  28.531   4.436
70890W        W42561  14.578  23.652  14.521
70891W        W42562   5.807  37.082  13.812
70892W        W42563  24.412   7.291  11.141
70893W        W42564  15.665  44.493  12.010
70894W        W42565  36.610  42.787  14.813
70895W        W42566   3.863  44.266  14.881
70896W        W42567  22.920  15.651   2.755
70897W        W42568  28.402  38.337  13.615
70898W        W42569   7.363  43.429   3.360
70899W        W42570  40.899  16.138  10.751
70900W        W42571  44.274  31.222  13.129
70901W        W42572  10.697  19.727  14.981
70902W        W42573   8.571  12.830  14.084
70903W        W42574  23.778  24.455   1.528
70904W        W42575  39.460  25.783   4.211
70905W        W42576   6.774  42.713  14.049
70906W        W42577  27.457  33.605  12.077
70907W        W42578  41.933  33.161  12.875
70908W        W42579  22.673  33.352  13.855
70909W        W42580  20.269  20.203  12.919
70910W        W42581  29.481  30.796  11.630
70911W        W42582  12.876  43.892  10.761
70912W        W42583  43.889  37.721   1.753
70913W        W42584  27.575   0.763   2.721
70914W        W42585   5.647   8.745   2.709
70915W        W42586  38.009  32.445  13.522
70916W        W42587  32.638  34.962   0.326
70917W        W42588   3.496  38.997  13.422
70918W        W42589  33.493  27.097   1.269
70919W        W42590   3.735  41.041  11.615
70920W        W42591  23.229  19.814  14.804
70921W        W42592  39.094   9.318  11.502
70922W        W42593  41.263  28.473   2.629
70923W        W42594  42.055  35.091   4.586
70924W        W42595  39.298  25.613   4.683
70925W        W42596  15.753  18.380   3.814
70926W        W42597  14.756  21.299   4.946
70927W        W42598  14.327  23.504  10.566
70928W        W42599  41.409  18.274  14.886
70929W        W42600  11.567  35.963  14.914
70930W        W42601   2.462  34.332  12.036
70931W        W42602  12.065  44.159  11.839
70932W        W42603  36.706  33.348   0.916
70933W        W42604  40.082   7.279  13.468
70934W        W42605   5.266  34.086  14.098
70935W        W42606   4.904   9.308   1.849
70936W        W42607  23.299  43.860   1.241
70937W        W42608  26.029  36.882  11.230
70938W        W42609   2.371  32.490   1.255
70939W        W42610  22.036   9.593  13.345
70940W        W42611  40.257   7.684   0.831
70941W        W42612  34.998  32.667   2.361
70942W        W42613  28.168   8.686   2.296
70943W        W42614  36.803   4.341  14.913
70944W        W42615  39.569  41.981  10.632
70945W        W42616  19.570  31.200  11.519
70946W        W42617  29.405  13.013   3.538
70947W        W42618  44.185  35.537  11.490
70948W        W42619   8.155  34.314   1.256
70949W        W42620  35.495   9.961   0.525
70950W        W42621  36.029  13.230  14.257
70951W        W42622  12.083  43.433   0.734
70952W        W42623  31.142   3.158  12.058
70953W        W42624  38.479   4.782   0.723
70954W        W42625  21.681   1.614   4.739
70955W        W42626  14.200  30.182   1.144
70956W        W42627  28.885   4.849  12.002
70957W        W42628  13.678  29.986   2.814
70958W        W42629  20.647  39.338  12.981
70959W        W42630  43.971  25.263   2.372
70960W        W42631  20.605   4.720   2.265
70961W        W42632   4.939  26.179   3.675
70962W        W42633  26.148   7.921  13.988
70963W        W42634  42.623  37.981   3.609
70964W        W42635  10.201  30.343   1.924
70965W        W42636  14.226  31.986   0.898
70966W        W42637  28.923   1.342  10.745
70967W        W42638  29.008  31.003   1.014
70968W        W42639  26.531  36.312   5.054
70969W        W42640  36.897  40.354  11.408
70970W        W42641  44.628  24.512   2.373
70971W        W42642   8.371  18.740  10.832
70972W        W42643  35.411  30.971   2.692
70973W        W42644  13.916  40.009  13.930
70974W        W42645  11.498  14.771  11.049
70975W        W42646  40.293  30.114  13.849
70976W        W42647  27.612  27.396  11.145
70977W        W42648  24.156   3.907   4.707
70978W        W42649   5.036  16.206   1.647
70979W        W42650  23.099  11.204  14.759
70980W        W42651  23.504  22.762   1.438
70981W        W42652  30.227  28.893  12.509
70982W        W42653  29.445  17.600  14.671
70983W        W42654  20.700  15.808  13.550
70984W        W42655  12.762  24.462   4.213
70985W        W42656  13.155   8.591   0.466
70986W        W42657   8.611  19.244   4.349
70987W        W42658   9.321  40.901   0.375
70988W        W42659  20.785  31.369   2.270
70989W        W42660  33.552  35.354   4.061
70990W        W42661  28.424  23.536  14.725
70991W        W42662   8.456   5.714   2.744
70992W        W42663   8.193  16.722  13.817
70993W        W42664  16.218   7.279   5.651
70994W        W42665  28.157   9.202  13.373
70995W        W42666  33.769  19.034   4.757
70996W        W42667  22.365  13.010  13.810
70997W        W42668   7.101  38.611   4.083
70998W        W42669   5.400  27.117   3.682
70999W        W42670  24.961  41.230   0.404
71000W        W42671  12.225  32.685  10.953
71001W        W42672  15.331   6.998   9.854
71002W        W42673  38.022   4.636   0.928
71003W        W42674  11.351   7.357  13.380
71004W        W42675  44.840  15.545  12.002
71005W        W42676  29.144  37.412   0.749
71006W        W42677   8.756  38.101   0.342
71007W        W42678  30.250   0.168   2.720
71008W        W42679  11.625  24.278   1.728
71009W        W42680  10.582   8.911   0.205
71010W        W42681  40.347  17.695   4.838
71011W        W42682  32.543  35.830  14.402
71012W        W42683   1.899  32.377   3.107
71013W        W42684  28.473   0.016   2.231
71014W        W42685   1.504   1.871  13.502
71015W        W42686  21.518  23.205  14.908
71016W        W42687   3.041  29.464   1.676
71017W        W42688  41.324  41.439   3.932
71018W        W42689  24.087  44.609   3.713
71019W        W42690   3.618   0.714   0.397
71020W        W42691  32.001  14.242  10.707
71021W        W42692  19.706   2.034  14.004
71022W        W42693  17.966   3.400  12.636
71023W        W42694  25.775   8.251   2.626
71024W        W42695  41.543  32.641   2.697
71025W        W42696  32.569   3.943  11.480
71026W        W42697  10.759  23.086  11.900
71027W        W42698  16.774  36.615  11.543
71028W        W42699  18.734  35.015  11.406
71029W        W42700   9.857   8.212   4.094
71030W        W42701   0.277   0.178   0.394
71031W        W42702  26.990   4.836  12.047
71032W        W42703  38.527  15.763   4.028
71033W        W42704  20.141  33.957   1.752
71034W        W42705  28.042  37.165  13.829
71035W        W42706  13.128  34.936  12.353
71036W        W42707  31.375  27.067   0.014
71037W        W42708  34.287   4.769   4.221
71038W        W42709  41.531  29.181  12.954
71039W        W42710  27.075  15.587  11.731
71040W        W42711  38.523  27.149   3.813
71041W        W42712  39.354   5.926   3.876
71042W        W42713  13.096   5.115  13.459
71043W        W42714  28.026  40.432   0.924
71044W        W42715  24.009  10.872   1.018
71045W        W42716  38.491  25.063  13.780
71046W        W42717   4.449   3.837   0.700
71047W        W42718  40.056   4.129  11.072
71048W        W42719  32.091  36.614   1.738
71049W        W42720  34.869  39.094  14.163
71050W        W42721  43.991  20.264   1.758
71051W        W42722   5.743  10.208  11.686
71052W        W42723  14.144  28.726   4.634
71053W        W42724  16.931  30.941   4.044
71054W        W42725  15.281  14.560   3.382
71055W        W42726  24.983  39.135  10.681
71056W        W42727  15.591  24.148   1.828
71057W        W42728  42.498  32.772  10.591
71058W        W42729   4.153  15.411  12.906
71059W        W42730  14.617  28.495   1.805
71060W        W42731  42.918   4.483  12.488
71061W        W42732  27.687  12.170  12.262
71062W        W42733   4.298  11.821  13.326
71063W        W42734  10.770   1.773   0.308
71064W        W42735   9.240  22.984  13.103
71065W        W42736  26.932  21.976  11.184
71066W        W42737  21.020  41.254   0.962
71067W        W42738   1.298  27.150  12.359
71068W        W42739  29.268  35.089   1.800
71069W        W42740  36.020  42.348  14.795
71070W        W42741  34.581  28.675   2.191
71071W        W42742  37.041  10.164   0.826
71072W        W42743   6.969   1.770  11.032
71073W        W42744  17.772  30.852  12.909
71074W        W42745  14.904  15.544  10.014
71075W        W42746  11.698  14.795   2.295
71076W        W42747  15.057  41.415   4.830
71077W        W42748   8.661  44.555  12.082
71078W        W42749  35.700  28.954   4.928
71079W        W42750  12.694   2.466   2.567
71080W        W42751   8.658  42.017  14.497
71081W        W42752  27.185  42.804   3.772
71082W        W42753   3.405  11.888  14.872
71083W        W42754  27.553  40.477   3.150
71084W        W42755  26.963  41.993   0.744
71085W        W42756   6.239  21.995   1.255
71086W        W42757  12.293  13.668   0.899
71087W        W42758  38.834  33.298   0.890
71088W        W42759  44.112  22.762  12.879
71089W        W42760   9.056  35.831  10.408
71090W        W42761  33.523  27.244   0.309
71091W        W42762  44.712  27.052   4.221
71092W        W42763  26.669  37.120   5.045
71093W        W42764  15.427   2.898   0.810
71094W        W42765  34.135   2.678  13.039
71095W        W42766  14.040  15.078   3.611
71096W        W42767   2.677  39.153  10.677
71097W        W42768  42.314  16.048  14.545
71098W        W42769  23.272  36.062  12.551
71099W        W42770  19.424   6.315  10.579
71100W        W42771  38.860   1.366   0.449
71101W        W42772  31.405  13.440  14.742
71102W        W42773  10.194  26.909   3.891
71103W        W42774  30.848  15.850   3.750
71104W        W42775  40.739  20.541  10.949
71105W        W42776  17.127  26.677   1.361
71106W        W42777   5.350  18.519  13.730
71107W        W42778  36.744   3.896  14.528
71108W        W42779  17.069   5.673   3.335
71109W        W42780  22.709  14.196   2.620
71110W        W42781  11.591   0.475  11.977
71111W        W42782   9.017  16.651  10.719
71112W        W42783  16.875  22.006   1.264
71113W        W42784  25.436   0.707  12.856
71114W        W42785  38.522  38.961  10.087
71115W        W42786   8.187  37.872   0.699
71116W        W42787  44.651  13.055  12.403
71117W        W42788  33.916  42.718  14.338
71118W        W42789  35.611  37.242   1.419
71119W        W42790   9.260  30.419  12.573
71120W        W42791  43.355  28.490   2.288
71121W        W42792  29.183  11.794  11.668
71122W        W42793  25.246  20.744   3.765
71123W        W42794  40.443  13.263  12.538
71124W        W42795  25.383  43.239   0.325
71125W        W42796   6.843  17.778   2.665
71126W        W42797  23.778  40.884  10.513
71127W        W42798  29.927  26.710   1.234
71128W        W42799  37.105  18.109   3.754
71129W        W42800  31.198  21.970   2.404
71130W        W42801  31.739  44.432  11.047
71131W        W42802  33.402  20.593   3.565
71132W        W42803  36.058  38.889  14.608
71133W        W42804  20.877  40.818   3.176
71134W        W42805  15.393   6.131  13.482
71135W        W42806  37.384  33.186  13.631
71136W        W42807  26.501  16.542  12.155
71137W        W42808  31.005  34.815  12.152
71138W        W42809  30.682  13.223   0.693
71139W        W42810   1.447  21.957  11.060
71140W        W42811   2.790  43.265   0.053
71141W        W42812  40.749  43.898   4.533
71142W        W42813  16.141  36.478  13.554
71143W        W42814   7.196  21.080   3.690
71144W        W42815  29.629  37.023   2.848
71145W        W42816   8.392   6.407   4.278
71146W        W42817   6.152   7.943  11.387
71147W        W42818   6.768  25.258  13.002
71148W        W42819  38.386  37.497   0.854
71149W        W42820  42.394  17.870   4.377
71150W        W42821   3.166   9.798   4.921
71151W        W42822  16.153  22.101  14.872
71152W        W42823  14.337  21.118   4.691
71153W        W42824  28.475  20.185  12.532
71154W        W42825  25.206  23.457  13.591
71155W        W42826  29.637  36.862   0.238
71156W        W42827  31.903  12.712  11.993
71157W        W42828   0.287  10.270  12.502
71158W        W42829  41.018  16.819  11.167
71159W        W42830   4.376  42.938  12.366
71160W        W42831  41.778   2.191  13.544
71161W        W42832  13.461  11.999   9.799
71162W        W42833  39.154  22.311   4.047
71163W        W42834  31.027  14.671  10.741
71164W        W42835   8.432  14.065  14.402
71165W        W42836  13.451  30.436   4.227
71166W        W42837  37.047  16.989   1.232
71167W        W42838  26.612  25.452   3.788
71168W        W42839  17.309  28.231   4.689
71169W        W42840  33.096  18.917  11.133
71170W        W42841  40.515  19.091  14.313
71171W        W42842  21.955  34.057   3.727
71172W        W42843  25.581  36.960  11.907
71173W        W42844   2.792  39.001   1.001
71174W        W42845  28.044   4.197   4.590
71175W        W42846   5.178  24.334   2.281
71176W        W42847  31.987  27.017  13.182
71177W        W42848  40.002  31.113  11.026
71178W        W42849  42.267  19.773   4.273
71179W        W42850  33.860  31.173   0.807
71180W        W42851  16.517  35.072  11.482
71181W        W42852  18.117   7.458  12.344
71182W        W42853  38.915  37.158   4.321
71183W        W42854  28.942   8.321  11.021
71184W        W42855  21.246  15.079  13.486
71185W        W42856  12.849  16.618   4.714
71186W        W42857   9.274  28.146  13.342
71187W        W42858  27.200  41.258   2.108
71188W        W42859   0.067  32.382   0.181
71189W        W42860  23.911  10.359  10.800
71190W        W42861  35.859   1.462  11.074
71191W        W42862  18.596   9.628   0.220
71192W        W42863  31.051  41.747  13.010
71193W        W42864  33.965  25.028   3.739
71194W        W42865  26.352  29.768  13.805
71195W        W42866  31.690  16.113  13.035
71196W        W42867  34.110  32.377   2.218
71197W        W42868   4.269  13.260  13.181
71198W        W42869   7.945  22.713   3.870
71199W        W42870  36.653  13.131  12.116
71200W        W42871  13.765   8.300   0.023
71201W        W42872  18.946  17.642   0.484
71202W        W42873  20.182  29.607   0.882
71203W        W42874  37.595  32.122   0.906
71204W        W42875  23.942  12.380   2.354
71205W        W42876   5.188  27.592   2.451
71206W        W42877  11.648  44.479   2.815
71207W        W42878  44.240  41.324   2.375
71208W        W42879  41.223  10.368  10.976
71209W        W42880  21.244  40.418   1.881
71210W        W42881  42.694  13.252  10.303
71211W        W42882  26.054  26.952   2.198
71212W        W42883  43.855  15.304   2.733
71213W        W42884   1.724  44.322   1.056
71214W        W42885   0.038  26.943  13.981
71215W        W42886  36.459  39.526  10.659
71216W        W42887   5.936  21.083  14.030
71217W        W42888  30.662   2.357   0.026
71218W        W42889   7.366   9.426  13.570
71219W        W42890  25.140   8.759  12.013
71220W        W42891  21.577  37.478  14.508
71221W        W42892  23.706  17.765  13.395
71222W        W42893  14.636  29.324  12.682
71223W        W42894  25.199  19.479  14.357
71224W        W42895   2.444   2.578   3.228
71225W        W42896  41.941  32.927  13.376
71226W        W42897  11.753  26.262   9.594
71227W        W42898  34.485  42.252   1.391
71228W        W42899  21.700  18.627   1.270
71229W        W42900   3.315  23.490   0.887
71230W        W42901  43.277   4.753   3.763
71231W        W42902  16.334  31.486  12.962
71232W        W42903  37.696  14.323   0.841
71233W        W42904   2.967  19.297   0.493
71234W        W42905   1.211  29.111   4.123
71235W        W42906  10.835  18.987  12.615
71236W        W42907  24.016   9.001   4.551
71237W        W42908  10.214  42.480   3.451
71238W        W42909  13.811  35.762   2.583
71239W        W42910  26.962  17.220  11.929
71240W        W42911  34.931   3.190  12.403
71241W        W42912   1.653  36.643   4.943
71242W        W42913  30.257   2.362  14.017
71243W        W42914  17.587  30.131  14.255
71244W        W42915  29.543  40.550  10.982
71245W        W42916  40.389  38.324  14.488
71246W        W42917  27.182  43.828   3.590
71247W        W42918  14.392   5.199   2.805
71248W        W42919  25.756  30.943   4.863
71249W        W42920  29.750  42.019   2.934
71250W        W42921  44.042  44.138   3.796
71251W        W42922   4.377  37.959  13.547
71252W        W42923   3.248   0.750   1.844
71253W        W42924  23.735  41.888  12.508
71254W        W42925   9.658  30.931   4.582
71255W        W42926  17.018  18.517  11.053
71256W        W42927  25.454  33.667  11.097
71257W        W42928  34.177  25.404   4.588
71258W        W42929  25.134  27.932  12.640
71259W        W42930  29.726   7.106  12.896
71260W        W42931  27.134  42.029  13.250
71261W        W42932  38.519  43.382   2.809
71262W        W42933  24.859  33.000   0.026
71263W        W42934   6.894  17.324  14.876
71264W        W42935  39.579  15.567  12.418
71265W        W42936  10.685   4.943  10.768
71266W        W42937  17.197  34.003  14.394
71267W        W42938  25.358  30.466   0.833
71268W        W42939  30.120  35.983  14.994
71269W        W42940  20.474   1.195  11.547
71270W        W42941  17.608  39.109  12.768
71271W        W42942  27.947  40.827   0.363
71272W        W42943  26.673   5.150  11.782
71273W        W42944  22.192  21.664   2.762
71274W        W42945   6.884  26.310  11.132
71275W        W42946  24.027  32.345   4.677
71276W        W42947  37.122  22.009  12.332
71277W        W42948   0.977  36.630  10.777
71278W        W42949  22.657  10.007  13.993
71279W        W42950  13.561  43.007  13.516
71280W        W42951   7.338  40.244  13.062
71281W        W42952  24.540  44.931  11.575
71282W        W42953  12.077  26.495   1.415
71283W        W42954  39.423  27.063   4.857
71284W        W42955   8.483   7.597   2.357
71285W        W42956  38.551  15.855   1.834
71286W        W42957  20.024   4.364   1.871
71287W        W42958  41.394  39.343  13.019
71288W        W42959  20.055  18.489   3.347
71289W        W42960  23.703  29.851  14.432
71290W        W42961  18.566  19.668  12.167
71291W        W42962   7.291   4.408   2.652
71292W        W42963  43.370   6.760  13.421
71293W        W42964  37.719  37.955  10.225
71294W        W42965  12.337   2.727   3.695
71295W        W42966  42.116  36.051   2.683
71296W        W42967  42.927   5.142  13.279
71297W        W42968   8.265  20.131  13.648
71298W        W42969   4.901  28.111   0.725
71299W        W42970  28.606  19.108  11.639
71300W        W42971  31.671  37.500   5.012
71301W        W42972  16.101  18.251   3.059
71302W        W42973  23.476  18.524  14.813
71303W        W42974  38.247  11.699  14.277
71304W        W42975   3.816  42.702   1.321
71305W        W42976  39.070   2.957   2.657
71306W        W42977  20.821  26.449   4.615
71307W        W42978   6.043  27.644   3.625
71308W        W42979  23.466   5.343   2.275
71309W        W42980  39.973  42.236   4.698
71310W        W42981  32.870  26.165   0.851
71311W        W42982  14.239   2.871  13.868
71312W        W42983   8.906  22.584   2.691
71313W        W42984  23.106  38.620   4.101
71314W        W42985  38.367   4.830  13.443
71315W        W42986  12.551  41.338  13.732
71316W        W42987   7.187  34.511   0.970
71317W        W42988  10.338  32.413  11.053
71318W        W42989  39.604  43.307   1.924
71319W        W42990  33.033  41.645  13.027
71320W        W42991  15.112   1.329   4.266
71321W        W42992  32.930   0.892   1.222
71322W        W42993  44.755   2.286   3.713
71323W        W42994  41.829  34.344   2.231
71324W        W42995  25.683  36.653   1.517
71325W        W42996   8.181  43.391   2.915
71326W        W42997   2.661  30.846  11.541
71327W        W42998  36.481   1.127  14.740
71328W        W42999  40.938   0.454  13.234
71329W        W43000  36.453  27.722   1.350
71330W        W43001  17.808   6.333  10.145
71331W        W43002  27.868  25.638  14.546
71332W        W43003  24.538  19.105   3.663
71333W        W43004   1.225   8.401  14.079
71334W        W43005  38.105  24.543   0.649
71335W        W43006  15.303  35.872  12.767
71336W        W43007  38.299   6.911  12.760
71337W        W43008  16.101  39.312  11.540
71338W        W43009  37.029  10.901   0.512
71339W        W43010  18.293  29.848  10.684
71340W        W43011  39.565   4.246  11.103
71341W        W43012  15.571  42.512   1.336
71342W        W43013  35.405  11.103  11.108
71343W        W43014  41.032  27.746   1.395
71344W        W43015   2.749  31.658   1.420
71345W        W43016  35.389  13.229   0.493
71346W        W43017  19.774  28.530   1.254
71347W        W43018   8.276  10.902   0.739
71348W        W43019  15.812  26.940  10.455
71349W        W43020  25.006  36.444  13.046
71350W        W43021  36.585  36.629  14.731
71351W        W43022   8.199  20.653   3.731
71352W        W43023   2.499  12.043   2.339
71353W        W43024   6.663   1.862   1.356
71354W        W43025  22.786  28.216  13.479
71355W        W43026  38.064  15.666  13.404
71356W        W43027  39.254  44.363  14.441
71357W        W43028   8.601  41.510   2.937
71358W        W43029  23.977  21.063   2.720
71359W        W43030  23.974  21.388   4.832
71360W        W43031   4.451  24.664   1.311
71361W        W43032  15.096   0.521   3.744
71362W        W43033  25.055  17.131   2.343
71363W        W43034  35.088  44.277   4.872
71364W        W43035   8.826  20.472  14.764
71365W        W43036  25.519  44.112   3.717
71366W        W43037  19.512  14.529  14.474
71367W        W43038  23.085  42.307  10.966
71368W        W43039  13.467  42.936   2.068
71369W        W43040  10.779  31.978   1.944
71370W        W43041  21.100   8.953  10.871
71371W        W43042  34.826  38.079   2.295
71372W        W43043  34.330  14.808  14.529
71373W        W43044  14.178  22.770   1.880
71374W        W43045  22.060   5.825  11.425
71375W        W43046  38.083   9.300  12.789
71376W        W43047   6.664   7.274  11.599
71377W        W43048   1.577   6.231   3.469
71378W        W43049  11.519  43.195  10.278
71379W        W43050  12.655  41.971  11.991
71380W        W43051  15.637  36.060   2.780
71381W        W43052  40.297   1.970   3.290
71382W        W43053  22.264   5.551   1.684
71383W        W43054  27.641  32.083  11.199
71384W        W43055  29.017  40.185   1.165
71385W        W43056   6.229  39.753   0.898
71386W        W43057  17.590  20.170   1.750
71387W        W43058   8.670  36.773   2.279
71388W        W43059  21.671   3.533   3.357
71389W        W43060  36.383  16.725  11.818
71390W        W43061  28.435  21.743  13.765
71391W        W43062  15.653  16.209   3.722
71392W        W43063   7.753  43.681   2.210
71393W        W43064   7.982  33.977   2.853
71394W        W43065  32.712  38.550  12.431
71395W        W43066  35.303  28.623   3.726
71396W        W43067  33.876  25.529   2.746
71397W        W43068   9.791  33.031  13.323
71398W        W43069  11.656  16.915   1.632
71399W        W43070  21.241  27.991   3.192
71400W        W43071   9.883   4.202  10.769
71401W        W43072  26.081  37.255   2.549
71402W        W43073  39.553  42.000  14.347
71403W        W43074  15.580  12.157   4.950
71404W        W43075  38.572  20.263  14.380
71405W        W43076  25.961  27.580  10.727
71406W        W43077  12.565  24.388  12.454
71407W        W43078  14.836  36.984  11.510
71408W        W43079  43.356  18.079  11.609
71409W        W43080  43.142   4.198   0.057
71410W        W43081  43.333  38.539   4.217
71411W        W43082  31.850  13.136  13.109
71412W        W43083  22.634   6.926  13.136
71413W        W43084   4.679  39.363   4.828
71414W        W43085  21.727  20.660   3.554
71415W        W43086  30.076  36.350  13.143
71416W        W43087   5.397  41.896   4.594
71417W        W43088  36.843  17.340  10.996
71418W        W43089  40.932  36.539  14.985
71419W        W43090  42.211  29.426  13.722
71420W        W43091   0.799  30.070   3.913
71421W        W43092  36.551  44.862  10.692
71422W        W43093  14.488  35.550   2.743
71423W        W43094  40.978  42.897  13.435
71424W        W43095  22.543  42.795  13.577
71425W        W43096  34.929  20.953  12.025
71426W        W43097  27.813   2.694   2.665
71427W        W43098  20.279  37.754  12.595
71428W        W43099   4.806  11.093   4.750
71429W        W43100  40.892  17.722   2.919
71430W        W43101  42.170  44.837   1.243
71431W        W43102  40.598  21.753   3.568
71432W        W43103  12.086  16.683   3.674
71433W        W43104  40.148   0.911  11.191
71434W        W43105  10.374  24.918  10.271
71435W        W43106  42.956  42.013   4.991
71436W        W43107  27.686  35.496   4.110
71437W        W43108  23.496  22.302  14.457
71438W        W43109  20.255  24.034   5.197
71439W        W43110   8.446  29.554   2.444
71440W        W43111  22.097  43.331  11.477
71441W        W43112  22.274  39.821   2.452
71442W        W43113  15.876  33.460  13.420
71443W        W43114   1.816  13.348  12.360
71444W        W43115  38.862  14.934  13.612
71445W        W43116  44.922  44.855   1.776
71446W        W43117   9.771  11.533   1.737
71447W        W43118  43.707   3.998  10.658
71448W        W43119  14.334  42.906  11.207
71449W        W43120   3.673  35.979   1.457
71450W        W43121  10.643  26.459  13.315
71451W        W43122   9.963  13.959  11.438
71452W        W43123  14.778  26.235   4.006
71453W        W43124  20.716   5.879   1.695
71454W        W43125  33.411  28.712   2.824
71455W        W43126  42.008   3.780   4.894
71456W        W43127  36.316  17.543  13.398
71457W        W43128  26.605  34.643  14.768
71458W        W43129  41.828  27.239   0.874
71459W        W43130  15.589  38.307  10.967
71460W        W43131  32.949  39.441   4.485
71461W        W43132  29.013  40.170  12.260
71462W        W43133  13.312  19.113   4.698
71463W        W43134  29.867   7.157  11.708
71464W        W43135   6.382   2.203  12.684
71465W        W43136  10.257  27.937   0.999
71466W        W43137  10.320  27.103   2.926
71467W        W43138  16.635  44.311  13.241
71468W        W43139  40.812  30.482  13.551
71469W        W43140   0.134  43.762  12.274
71470W        W43141   3.014   9.904  14.942
71471W        W43142   2.907  29.084   0.378
71472W        W43143  24.000  18.557  12.419
71473W        W43144  29.200   9.651   1.287
71474W        W43145  31.179  33.755   3.215
71475W        W43146  34.972  15.014  11.984
71476W        W43147  26.181  33.223   1.007
71477W        W43148  23.645   6.115   0.040
71478W        W43149  22.760  20.648  13.967
71479W        W43150  17.307  17.760   4.249
71480W        W43151  24.423   3.459   0.498
71481W        W43152  43.459  14.547   4.336
71482W        W43153  38.670  39.313   3.905
71483W        W43154  13.505  37.410  13.408
71484W        W43155  42.505  24.787  13.451
71485W        W43156  39.795  38.455  12.473
71486W        W43157  26.611  41.135   3.739
71487W        W43158  18.304  20.511   1.415
71488W        W43159  34.490  24.818   1.572
71489W        W43160  23.281  12.908  13.052
71490W        W43161  44.800  22.749   5.591
71491W        W43162  14.168  13.498  11.131
71492W        W43163  41.295  27.015   0.947
71493W        W43164  17.099  25.940   1.919
71494W        W43165  11.317   3.824  13.897
71495W        W43166   6.171  17.870  11.256
71496W        W43167  38.084  32.559  11.247
71497W        W43168  17.667   6.654  13.538
71498W        W43169   0.316  26.172  14.754
71499W        W43170   2.216   6.462   2.229
71500W        W43171  12.298   1.710   2.790
71501W        W43172  14.265  32.899   0.083
71502W        W43173  22.904   2.413  11.574
71503W        W43174   3.702  10.473  10.223
71504W        W43175  12.186  33.023   4.665
71505W        W43176   2.920  11.150   1.225
71506W        W43177   5.766  28.137  13.211
71507W        W43178  15.631  28.820  14.215
71508W        W43179  39.375   8.948  13.494
71509W        W43180  23.106  15.728  12.691
71510W        W43181  14.825  12.129   4.219
71511W        W43182  14.785  41.989   4.479
71512W        W43183  44.428  15.750  11.480
71513W        W43184  25.693  15.358   3.595
71514W        W43185  31.420  10.280   2.189
71515W        W43186   0.750  43.459   0.821
71516W        W43187  44.654  29.425  11.847
71517W        W43188  36.562  39.311   0.973
71518W        W43189   4.253  20.744  12.841
71519W        W43190   0.212   8.914  14.423
71520W        W43191  32.461  38.416  11.972
71521W        W43192   1.212  15.784  13.539
71522W        W43193   4.716  23.249  14.407
71523W        W43194  13.025  24.599  10.837
71524W        W43195  13.164  35.566   4.682
71525W        W43196   1.013  21.555  10.454
71526W        W43197  31.309   2.706   1.684
71527W        W43198  33.172   0.087  13.860
71528W        W43199  43.061  28.927   3.336
71529W        W43200   8.328  23.447   2.825
71530W        W43201  23.760  38.492   1.792
71531W        W43202   6.949   9.879   0.894
71532W        W43203  14.247   0.338   3.133
71533W        W43204  33.356  28.636   4.667
71534W        W43205  18.159  35.824   3.611
71535W        W43206  39.694  42.391  14.693
71536W        W43207  17.533  33.451   4.669
71537W        W43208  41.481  42.570   0.805
71538W        W43209   1.186   8.904   2.675
71539W        W43210  32.017  38.376   2.596
71540W        W43211  32.497  43.412  11.498
71541W        W43212   3.778  23.074  12.847
71542W        W43213  17.915  24.913   5.644
71543W        W43214  44.849  10.439   3.543
71544W        W43215   7.968  31.423   3.137
71545W        W43216  15.155  15.262  14.257
71546W        W43217  24.509  21.108   1.127
71547W        W43218  13.664  31.139   4.313
71548W        W43219  21.164  42.410   2.363
71549W        W43220   6.193  13.125  10.421
71550W        W43221  26.632  26.735  12.320
71551W        W43222  16.305  40.022  11.013
71552W        W43223   3.875  15.674   2.908
71553W        W43224  34.670  39.953   4.871
71554W        W43225  43.560  23.387  14.363
71555W        W43226   9.912  30.865   4.103
71556W        W43227  43.795   7.954  12.051
71557W        W43228  23.515  29.088  10.573
71558W        W43229  26.680  34.547  13.283
71559W        W43230  36.374  17.756  12.350
71560W        W43231  32.145   5.522   2.404
71561W        W43232  30.096  31.085  11.910
71562W        W43233  19.442  29.387   2.796
71563W        W43234  24.102  16.810  11.972
71564W        W43235  43.885  27.425  13.378
71565W        W43236  44.823  13.127  14.822
71566W        W43237  43.065   0.338   4.737
71567W        W43238  41.002  37.047   3.728
71568W        W43239  30.491  31.066   2.339
71569W        W43240   6.271  37.103  11.708
71570W        W43241   8.706  16.970   3.655
71571W        W43242  41.195   0.456   1.639
71572W        W43243  22.236  23.125   3.082
71573W        W43244   2.226  33.663   4.021
71574W        W43245  41.590  24.069   2.709
71575W        W43246   1.701   9.433  11.106
71576W        W43247   2.873  32.975  10.600
71577W        W43248  12.564  12.131   2.445
71578W        W43249   2.000  27.764  12.113
71579W        W43250  26.901  34.056   4.151
71580W        W43251   0.556  34.526  13.831
71581W        W43252   9.685   7.375   1.434
71582W        W43253  37.325   7.791   4.667
71583W        W43254  31.881  20.110  13.925
71584W        W43255   9.036  33.224  11.234
71585W        W43256   7.837  12.350   1.185
71586W        W43257  34.328  10.693  12.926
71587W        W43258  21.166  10.280   3.284
71588W        W43259  33.446   1.757  12.613
71589W        W43260  19.146  33.809  12.534
71590W        W43261  42.545  26.193  13.436
71591W        W43262  12.237  22.124   2.877
71592W        W43263   5.871  42.034   4.332
71593W        W43264   0.478  35.875  13.405
71594W        W43265  43.827  29.115  11.515
71595W        W43266  31.050  26.322   0.867
71596W        W43267  11.683  36.416   4.199
71597W        W43268  29.380  29.506   2.833
71598W        W43269  29.550  25.256   3.870
71599W        W43270  28.263  16.489   2.179
71600W        W43271  32.020  10.162  10.073
71601W        W43272  39.745   0.847  14.813
71602W        W43273  38.051  43.667  13.613
71603W        W43274  35.726  36.073   5.041
71604W        W43275  12.818  38.507  14.992
71605W        W43276   5.893  22.674   0.011
71606W        W43277  37.542  29.643  11.563
71607W        W43278   9.303  31.902   2.712
71608W        W43279   1.438  19.349   2.723
71609W        W43280  16.810  39.298  11.817
71610W        W43281  36.570  43.839  10.776
71611W        W43282  15.708  29.996  13.722
71612W        W43283  15.179   9.317   4.986
71613W        W43284  16.023   9.403   3.551
71614W        W43285  37.272   5.716  13.753
71615W        W43286   6.387   9.753  10.967
71616W        W43287  34.490  37.524   3.673
71617W        W43288   6.835  23.221   2.334
71618W        W43289  10.771   9.161  11.182
71619W        W43290  33.860  16.480   0.412
71620W        W43291   8.942  42.652   4.258
71621W        W43292   6.743   2.688   2.482
71622W        W43293  17.507  34.612  11.406
71623W        W43294  13.810  35.564   1.463
71624W        W43295   0.537  24.713  14.771
71625W        W43296  10.225  28.903  14.429
71626W        W43297  41.917  20.080  13.680
71627W        W43298  44.729   2.259   1.942
71628W        W43299   5.373  25.145  12.847
71629W        W43300  37.875   4.044  11.143
71630W        W43301  29.251  27.700   4.892
71631W        W43302  32.058  13.613  14.046
71632W        W43303  30.241  42.382  13.201
71633W        W43304   9.698   5.383  14.146
71634W        W43305  40.408  38.264   3.339
71635W        W43306  44.813   7.861  10.497
71636W        W43307  43.821  38.998   1.326
71637W        W43308  14.968  11.435   1.326
71638W        W43309  18.888  19.080  14.858
71639W        W43310  32.111  12.714   1.556
71640W        W43311  13.199  19.596   1.000
71641W        W43312  12.781  18.027   0.279
71642W        W43313   1.612  21.691   4.592
71643W        W43314   0.503  40.436  11.154
71644W        W43315  14.590   2.905  11.582
71645W        W43316   7.958  33.861  11.680
71646W        W43317  31.442  38.963  13.297
71647W        W43318   9.564   4.042  11.508
71648W        W43319  32.837  43.010  10.588
71649W        W43320   8.898  20.223   0.211
71650W        W43321  30.977  20.021  13.812
71651W        W43322  20.040  21.129   2.846
71652W        W43323  44.308   8.152   3.480
71653W        W43324  38.302  11.240  13.546
71654W        W43325   3.225  44.559   1.336
71655W        W43326  36.956  35.920   0.438
71656W        W43327  10.859   1.476  14.010
71657W        W43328  23.304   0.254  10.583
71658W        W43329  14.614   6.962  14.140
71659W        W43330  13.238  30.197  10.984
71660W        W43331   2.783  18.470   0.390
71661W        W43332   1.176   0.844   1.326
71662W        W43333  38.308  20.148   2.924
71663W        W43334  19.858   6.977  11.614
71664W        W43335  15.553   8.579  12.381
71665W        W43336   2.475  13.441  11.292
71666W        W43337  41.404  28.933   4.138
71667W        W43338   6.816  14.101  14.792
71668W        W43339   1.481  42.913  13.921
71669W        W43340   8.173  43.566  11.635
71670W        W43341   6.299  28.107  10.577
71671W        W43342   5.007  19.588  13.804
71672W        W43343  34.513  20.188  11.102
71673W        W43344  15.673  22.329   4.638
71674W        W43345  26.808  30.520  12.364
71675W        W43346  40.089  12.297   4.773
71676W        W43347  30.188  28.203   2.352
71677W        W43348  19.706  29.012  11.080
71678W        W43349   6.969  32.593   3.327
71679W        W43350  21.965  17.015  14.863
71680W        W43351   6.765   0.189  11.816
71681W        W43352  16.514  27.060   3.101
71682W        W43353  26.130  34.128  12.825
71683W        W43354  24.767  36.649   0.382
71684W        W43355  24.155  14.749   2.252
71685W        W43356  34.224   4.704  12.565
71686W        W43357  44.800  41.991  10.707
71687W        W43358   2.823  39.153   1.948
71688W        W43359  25.878  44.741  11.851
71689W        W43360  33.596  24.622  13.495
71690W        W43361  32.413  40.541  14.866
71691W        W43362  34.390  15.637   4.868
71692W        W43363   3.350  25.435   1.372
71693W        W43364  18.138  35.654   4.102
71694W        W43365  28.623  22.131   1.032
71695W        W43366   1.851  14.879   1.346
71696W        W43367   3.293   0.204   2.626
71697W        W43368  17.363  33.660   4.242
71698W        W43369  14.200   2.801   3.619
71699W        W43370  16.679  22.188   2.093
71700W        W43371  12.326  41.015  14.986
71701W        W43372  10.733   1.162  13.597
71702W        W43373   7.143   1.664   1.395
71703W        W43374  28.015  20.135   4.493
71704W        W43375  21.188  42.275  14.403
71705W        W43376   0.407  35.366   2.315
71706W        W43377  22.030  44.916   4.023
71707W        W43378  20.516  42.673  13.465
71708W        W43379   0.522  22.619   3.971
71709W        W43380  15.579  18.239  13.834
71710W        W43381   8.102  21.505   2.628
71711W        W43382  20.309   8.114   2.176
71712W        W43383  14.799  21.677  14.714
71713W        W43384  41.499   9.121   1.164
71714W        W43385  20.048   0.158  12.426
71715W        W43386  24.177  41.511   0.549
71716W        W43387   2.030  32.808  11.590
71717W        W43388  17.899  13.187  10.338
71718W        W43389  34.941  35.918  12.791
71719W        W43390  27.095  10.911   0.263
71720W        W43391  41.293  12.180   2.960
71721W        W43392  14.727  20.802   1.224
71722W        W43393  11.638  14.630   3.878
71723W        W43394   2.169   6.864   2.868
71724W        W43395  31.433  29.312  14.343
71725W        W43396  37.516   3.456   3.201
71726W        W43397  41.484  33.015  13.111
71727W        W43398   0.905  16.767  14.336
71728W        W43399  10.745  11.705   1.284
71729W        W43400   7.581  21.537   2.597
71730W        W43401  11.601  43.283   4.154
71731W        W43402  30.424  29.413  12.593
71732W        W43403  32.216  43.357   3.366
71733W        W43404  41.753  37.891   1.817
71734W        W43405  33.103  35.971   4.341
71735W        W43406  40.895  27.507  10.871
71736W        W43407  38.986  36.866  12.408
71737W        W43408  41.085  19.691  10.626
71738W        W43409   5.277  18.179  14.966
71739W        W43410   5.902  44.443   0.390
71740W        W43411  31.832  31.651  13.331
71741W        W43412  35.588  33.577   9.924
71742W        W43413   7.691  38.873   0.458
71743W        W43414  23.312   8.705  12.710
71744W        W43415  13.678  34.857   2.125
71745W        W43416  20.619  21.920   0.958
71746W        W43417  44.226  30.217   3.838
71747W        W43418  10.772  10.162   4.769
71748W        W43419  32.007  14.013   2.707
71749W        W43420  37.488  11.753  11.129
71750W        W43421  17.065  19.705  13.076
71751W        W43422  41.135  26.749   3.922
71752W        W43423  14.096  26.616   3.275
71753W        W43424   1.872  35.682   2.807
71754W        W43425   3.530  22.330   1.665
71755W        W43426  35.194  41.034  11.511
71756W        W43427  41.633  26.750  10.713
71757W        W43428  16.723  21.602  11.140
71758W        W43429  28.280  18.399  12.105
71759W        W43430  41.805  31.642  13.833
71760W        W43431  18.944  16.687   1.630
71761W        W43432  36.904   3.385   4.595
71762W        W43433  10.767  13.324  13.352
71763W        W43434  31.596  38.519  13.502
71764W        W43435  35.781  26.135   0.662
71765W        W43436  33.105   5.002   1.907
71766W        W43437  34.005   3.613   4.684
71767W        W43438  21.015   9.002  10.374
71768W        W43439  22.061   9.072  13.290
71769W        W43440   2.419  21.498   4.306
71770W        W43441  11.212  11.173  13.080
71771W        W43442   9.195  29.500   3.115
71772W        W43443   2.774  16.165   1.263
71773W        W43444  23.976  28.473  12.221
71774W        W43445   8.828  35.538  13.978
71775W        W43446  39.288  27.235   2.761
71776W        W43447   0.054  29.771  13.354
71777W        W43448  42.761  23.572   1.933
71778W        W43449  27.029   2.414   4.404
71779W        W43450  16.158  18.106  12.997
71780W        W43451  30.632  17.505  12.503
71781W        W43452  40.213  21.187   3.749
71782W        W43453  37.965  41.551   5.045
71783W        W43454  33.382  15.170  12.963
71784W        W43455  11.236  15.123  11.339
71785W        W43456   0.230  17.070  11.687
71786W        W43457  39.069  43.085  12.523
71787W        W43458  28.924  10.213   3.679
71788W        W43459  21.017  10.167   0.032
71789W        W43460  42.774  31.586  12.116
71790W        W43461  33.972  12.317  10.588
71791W        W43462  21.456  34.112   3.650
71792W        W43463  41.776  13.189   3.804
71793W        W43464  44.468  13.895   4.529
71794W        W43465  26.654  40.846  12.115
71795W        W43466  23.640  31.697  12.051
71796W        W43467  18.858  30.506  14.526
71797W        W43468   5.193  34.641  12.454
71798W        W43469  40.420  38.753  13.574
71799W        W43470   0.738  17.971  11.636
71800W        W43471   9.159  17.944  12.462
71801W        W43472  37.869  28.189  11.879
71802W        W43473  30.483  14.101  11.101
71803W        W43474   3.579  27.882   4.408
71804W        W43475   6.314  14.827  12.936
71805W        W43476   8.695  44.692   3.252
71806W        W43477   0.196   8.828   1.734
71807W        W43478   6.157  20.532   2.865
71808W        W43479   3.911  37.068   3.588
71809W        W43480  11.231  43.889   0.622
71810W        W43481  42.819  29.178  10.650
71811W        W43482  26.494  27.762   1.287
71812W        W43483  14.604  24.967  11.619
71813W        W43484  17.436  43.553  13.522
71814W        W43485  31.001  36.625   3.302
71815W        W43486   4.275   6.576   3.323
71816W        W43487  39.006  34.252  10.263
71817W        W43488  43.942  30.634   3.701
71818W        W43489  23.566  24.994   2.628
71819W        W43490  26.172   8.838   1.004
71820W        W43491  23.636  41.457  13.475
71821W        W43492   9.231  32.705  14.967
71822W        W43493  31.895  30.311   2.115
71823W        W43494   9.962  35.648  13.915
71824W        W43495  30.494   3.625  10.183
71825W        W43496  17.344  31.971  10.225
71826W        W43497   4.150  12.160   3.726
71827W        W43498  30.325  24.603   2.406
71828W        W43499  37.459  26.204  10.678
71829W        W43500   7.301  44.398   3.353
71830W        W43501  10.261  43.079  10.654
71831W        W43502  16.521  25.885   4.810
71832W        W43503  43.015  10.258  12.384
71833W        W43504  11.639   6.507   1.187
71834W        W43505  12.258   2.737   0.929
71835W        W43506  42.275   9.637   4.184
71836W        W43507  13.147  44.807  12.309
71837W        W43508  41.781   9.569  12.854
71838W        W43509  14.652  12.839   0.032
71839W        W43510  22.978  39.589   4.193
71840W        W43511  15.948  19.789   2.347
71841W        W43512  41.884  40.786  12.393
71842W        W43513   2.308  35.130  11.715
71843W        W43514   9.287   9.404  14.437
71844W        W43515  30.129  14.685   4.233
71845W        W43516   8.187  27.955   2.619
71846W        W43517   8.246  21.653  12.903
71847W        W43518  42.483   8.908   2.063
71848W        W43519  34.869  30.840   0.871
71849W        W43520   2.383   3.954  10.545
71850W        W43521  16.696  28.204  14.585
71851W        W43522  22.172  37.128  12.458
71852W        W43523  39.439  17.817   2.857
71853W        W43524   8.742  31.386  11.597
71854W        W43525  19.826  20.106  11.979
71855W        W43526  42.911   5.726   0.522
71856W        W43527  32.426  38.363  12.858
71857W        W43528   4.990  41.429   1.895
71858W        W43529  25.662  44.190   0.437
71859W        W43530  17.530  26.535  11.953
71860W        W43531  25.771  22.186   2.658
71861W        W43532   7.321  30.305  14.858
71862W        W43533  28.198  22.450   1.769
71863W        W43534   8.401  31.059  13.496
71864W        W43535  36.855   8.618   4.670
71865W        W43536  44.180  38.587   1.751
71866W        W43537  35.102   8.851  10.585
71867W        W43538   8.903  11.208   4.639
71868W        W43539   5.650  36.326   1.182
71869W        W43540  20.791  19.800  12.641
71870W        W43541  34.540   2.659  10.861
71871W        W43542   0.940  14.172   0.771
71872W        W43543  41.513  18.987   0.417
71873W        W43544  35.828  29.441  12.039
71874W        W43545  43.796  21.157   0.250
71875W        W43546  43.488   6.626   0.398
71876W        W43547  15.624  14.280  12.004
71877W        W43548  19.134   1.697  10.987
71878W        W43549  26.972  14.406  14.443
71879W        W43550   6.658  26.476   3.683
71880W        W43551  30.580  12.222   4.612
71881W        W43552  40.585  16.123   3.763
71882W        W43553  30.777  20.672  11.079
71883W        W43554  29.694  16.689   3.111
71884W        W43555  16.229   1.298  11.514
71885W        W43556  23.299  16.232  11.061
71886W        W43557  18.284  43.281   4.636
71887W        W43558  38.299  38.532  12.419
71888W        W43559   7.274  24.450   4.295
71889W        W43560  10.279   7.838  11.124
71890W        W43561  42.588  24.516   4.414
71891W        W43562  27.064  26.468   1.368
71892W        W43563  21.673   3.919  10.470
71893W        W43564  32.509  35.325   2.744
71894W        W43565  44.357  29.993  14.372
71895W        W43566  16.259  43.017   1.266
71896W        W43567   5.885  29.096  10.688
71897W        W43568  12.858  34.022   2.277
71898W        W43569  44.941  33.881   1.401
71899W        W43570  15.166  16.260   4.485
71900W        W43571  21.104  28.537   3.257
71901W        W43572  31.431   0.769   0.692
71902W        W43573   4.740  28.427  14.315
71903W        W43574  29.643  41.952  11.695
71904W        W43575  12.594  40.803  14.423
71905W        W43576   7.155  10.192  10.567
71906W        W43577  39.933  20.353   1.332
71907W        W43578   7.789  44.351  13.089
71908W        W43579  28.155  11.872   2.585
71909W        W43580  14.979  17.346  12.373
71910W        W43581  40.085  40.339   4.123
71911W        W43582  22.965  24.272  13.255
71912W        W43583   3.447  43.992  13.907
71913W        W43584  10.238  13.870  14.444
71914W        W43585  41.331   2.925   0.807
71915W        W43586  34.722  31.038   3.163
71916W        W43587  39.979  41.296   1.122
71917W        W43588  11.792   8.674  11.575
71918W        W43589  38.788  29.087   2.479
71919W        W43590  15.066  14.274  11.989
71920W        W43591   1.246   7.714  12.334
71921W        W43592  14.807  11.319   2.294
71922W        W43593  25.898  39.234   2.181
71923W        W43594  10.260   9.954   3.211
71924W        W43595  11.829  11.921  11.867
71925W        W43596   5.658  33.646   2.646
71926W        W43597  31.423  43.434  12.423
71927W        W43598  18.519  15.421  10.198
71928W        W43599  38.339  34.339  12.408
71929W        W43600  13.156   6.541  13.543
71930W        W43601  39.091  11.641  13.765
71931W        W43602  36.906  41.429  10.556
71932W        W43603  20.246  31.894  13.066
71933W        W43604  18.234  29.648   3.258
71934W        W43605  26.589   8.979  14.390
71935W        W43606  42.402   0.526   0.449
71936W        W43607  17.293  35.590  11.113
71937W        W43608  39.319  24.597  14.081
71938W        W43609  35.094   1.714  13.573
71939W        W43610  41.003   5.286   3.789
71940W        W43611  29.608  16.724  13.536
71941W        W43612  41.898  35.811  12.653
71942W        W43613  34.805   0.340   1.775
71943W        W43614   2.121  26.502  13.366
71944W        W43615  34.142  35.618   0.947
71945W        W43616   3.191  23.164   1.652
71946W        W43617  32.551  31.207   3.644
71947W        W43618   1.399  16.277   0.300
71948W        W43619  32.871  19.030   0.234
71949W        W43620  42.286  25.256  13.527
71950W        W43621  30.587  27.189  12.862
71951W        W43622   9.294  35.420  13.757
71952W        W43623  15.265   9.717  10.486
71953W        W43624  11.129   6.218  12.487
71954W        W43625  32.574  10.628  12.397
71955W        W43626  11.681   6.619   2.335
71956W        W43627  32.350   0.582   3.728
71957W        W43628  23.308  30.449   2.799
71958W        W43629  13.783   3.219  14.439
71959W        W43630  21.188   9.344   3.685
71960W        W43631  19.071  35.792   3.632
71961W        W43632  14.109   3.412  11.022
71962W        W43633  30.629  16.362  14.897
71963W        W43634  18.059  23.020   3.779
71964W        W43635  19.827   9.886  14.400
71965W        W43636  26.538  18.919  10.705
71966W        W43637  38.868  40.549  12.672
71967W        W43638  19.030   5.038  10.761
71968W        W43639  34.530  26.280   0.371
71969W        W43640  23.233  33.502   4.895
71970W        W43641  13.658  23.466  14.406
71971W        W43642  17.695  37.496   4.175
71972W        W43643  14.890  41.322  10.753
71973W        W43644  12.282  17.639  11.137
71974W        W43645  11.225  32.846   2.787
71975W        W43646  31.147  12.361   0.469
71976W        W43647  35.340  20.286  13.236
71977W        W43648  18.185  14.018  11.186
71978W        W43649  37.891  35.915   2.741
71979W        W43650  33.606  43.838   2.715
71980W        W43651  29.505  15.453   1.453
71981W        W43652   1.985  24.530   5.137
71982W        W43653   3.216   3.714   0.461
71983W        W43654   7.163  11.357   0.667
71984W        W43655  29.635  16.553   0.720
71985W        W43656   9.933  44.803  13.915
71986W        W43657  26.973  32.185   2.660
71987W        W43658  19.737  20.232  13.041
71988W        W43659  14.262  11.811   0.931
71989W        W43660  27.555  13.890  12.941
71990W        W43661  38.991  31.729   1.148
71991W        W43662  15.140  38.324  14.560
71992W        W43663  21.632  10.060   1.230
71993W        W43664   9.599  40.605  12.714
71994W        W43665  17.162  26.315  11.672
71995W        W43666  11.182   0.108  10.800
71996W        W43667  41.705  20.753   3.193
71997W        W43668  28.505  17.048   1.939
71998W        W43669   3.859  20.064  11.120
71999W        W43670  41.537  16.528  13.021
72000W        W43671  23.016  34.315   0.387
72001W        W43672  27.403   8.675   3.672
72002W        W43673  37.013   0.813   1.938
72003W        W43674   4.963  12.717  12.862
72004W        W43675   9.966  36.173   3.985
72005W        W43676  34.435   2.320   2.860
72006W        W43677  30.138  39.026  14.965
72007W        W43678  13.686   9.153   4.504
72008W        W43679  38.449  43.509  13.307
72009W        W43680  12.579  29.048  11.694
72010W        W43681  12.543  14.200  13.984
72011W        W43682  28.652  29.266  10.800
72012W        W43683  23.657  19.668   4.875
72013W        W43684  28.880   0.561   1.462
72014W        W43685  27.406  44.456  13.558
72015W        W43686  37.393   7.396  13.957
72016W        W43687  21.671  38.633   2.712
72017W        W43688  44.808  38.535   1.354
72018W        W43689   8.621  22.588   1.336
72019W        W43690   8.944  30.387   2.382
72020W        W43691  37.914  31.170   4.837
72021W        W43692  31.443  34.581  14.396
72022W        W43693   2.792  21.616  14.085
72023W        W43694  15.295   9.725   2.185
72024W        W43695  20.623  27.407  14.850
72025W        W43696  40.051   7.900  14.119
72026W        W43697  44.330   3.424  13.927
72027W        W43698   2.495  26.241  13.159
72028W        W43699  19.748  24.149   3.168
72029W        W43700  31.097  27.641  13.457
72030W        W43701  22.614  42.094  10.185
72031W        W43702  43.631   5.198  12.537
72032W        W43703  37.523   7.987   1.753
72033W        W43704   5.282   3.518   1.321
72034W        W43705  43.502  20.087  11.001
72035W        W43706  40.393   5.318   2.887
72036W        W43707   8.872  23.960  14.829
72037W        W43708  37.486  27.287   4.930
72038W        W43709  22.407  25.262  11.195
72039W        W43710  38.286  31.231   1.725
72040W        W43711  18.716  32.042  10.801
72041W        W43712  27.948  21.221   4.171
72042W        W43713  19.528   2.675  14.281
72043W        W43714  42.796   7.630  11.468
72044W        W43715  44.566  14.407   3.689
72045W        W43716  11.811  19.400   4.237
72046W        W43717  28.418  32.277  13.451
72047W        W43718   6.341  27.137   3.126
72048W        W43719  21.734  19.087  13.994
72049W        W43720  19.332  43.494  11.058
72050W        W43721   4.398  35.429  12.454
72051W        W43722  35.275  18.175  11.111
72052W        W43723  20.840   9.157  11.255
72053W        W43724  32.859  33.956  13.470
72054W        W43725  17.799  14.085   4.240
72055W        W43726   4.882  44.480   1.277
72056W        W43727   1.287  18.116   4.767
72057W        W43728  12.599  13.291  14.130
72058W        W43729  11.271  19.118  14.294
72059W        W43730  43.445  35.364   0.450
72060W        W43731  36.742   8.707  10.715
72061W        W43732   0.832  14.712   4.847
72062W        W43733  33.065  25.191   2.415
72063W        W43734   0.939  15.812  14.573
72064W        W43735  32.084   8.687   0.474
72065W        W43736  23.445  30.678  10.579
72066W        W43737  12.415  19.286   2.245
72067W        W43738   7.431  31.179   0.143
72068W        W43739  11.948  15.991  10.709
72069W        W43740  13.331   2.053   2.473
72070W        W43741  25.923  42.579  14.500
72071W        W43742  13.605  34.794   3.823
72072W        W43743  12.366  44.425   0.929
72073W        W43744  20.080  24.762  14.299
72074W        W43745   7.955  30.165   4.177
72075W        W43746   2.025  25.493   4.597
72076W        W43747  24.691  19.534  13.817
72077W        W43748   0.702  34.679  13.316
72078W        W43749  10.649  43.007  12.589
72079W        W43750  41.526  18.646   3.806
72080W        W43751  32.427  36.311  13.791
72081W        W43752   1.330  21.320   1.053
72082W        W43753  32.647   4.805   1.812
72083W        W43754  32.630  31.577   4.025
72084W        W43755  42.472  39.346   4.609
72085W        W43756  38.918   1.218   3.478
72086W        W43757  15.138   7.509   9.773
72087W        W43758  18.144  14.371  12.136
72088W        W43759  23.918   5.652  13.796
72089W        W43760   8.907  38.365  14.875
72090W        W43761  27.832  14.792  10.644
72091W        W43762  35.961  28.255   1.681
72092W        W43763  14.087   9.760  12.438
72093W        W43764   8.749  36.956   4.133
72094W        W43765  39.421  29.994  11.992
72095W        W43766  40.442  14.655  14.050
72096W        W43767  18.229  23.525  14.299
72097W        W43768  32.183  41.479  11.625
72098W        W43769  40.325  17.988  14.948
72099W        W43770  37.988  24.055  12.427
72100W        W43771  24.808  33.205  11.465
72101W        W43772  19.756  42.324  13.853
72102W        W43773  38.511  12.928  14.548
72103W        W43774  32.006  29.692   3.150
72104W        W43775   0.438  29.950   0.840
72105W        W43776  37.510  44.365   4.080
72106W        W43777  13.376  16.273   2.239
72107W        W43778   2.698  31.144  13.277
72108W        W43779  19.753  35.921   2.745
72109W        W43780   4.751  33.190   0.843
72110W        W43781  12.346  36.156   3.737
72111W        W43782  19.697   5.124   3.799
72112W        W43783  40.796  14.707  14.426
72113W        W43784  44.827  19.535  10.674
72114W        W43785  28.623   1.480   0.811
72115W        W43786  31.997   4.658   4.705
72116W        W43787  21.150  20.064   4.202
72117W        W43788  18.130  20.830  13.599
72118W        W43789  11.812  38.900   2.491
72119W        W43790  30.208  27.308   4.356
72120W        W43791  42.554  12.411   0.515
72121W        W43792   4.438  14.478  12.844
72122W        W43793  42.524  41.474   1.438
72123W        W43794   0.025   2.556   0.842
72124W        W43795  25.215  20.723  10.572
72125W        W43796   8.756   6.091  13.052
72126W        W43797  21.754   2.289  13.925
72127W        W43798  14.169  37.548  13.953
72128W        W43799  18.199  22.752  12.774
72129W        W43800  18.046  11.786   3.160
72130W        W43801  35.810  38.438   2.288
72131W        W43802  25.619  31.938  14.565
72132W        W43803  19.595  40.851   4.569
72133W        W43804  39.238  19.685  13.966
72134W        W43805  41.385   8.816   2.752
72135W        W43806  24.440  34.320  13.121
72136W        W43807   0.832  25.181  13.538
72137W        W43808  32.145  34.916  14.241
72138W        W43809  44.984  20.074   4.639
72139W        W43810   6.756  40.267  13.907
72140W        W43811  34.022  35.859   0.386
72141W        W43812  43.147   3.060   0.218
72142W        W43813   2.424  15.259   1.548
72143W        W43814  34.158  23.518   3.220
72144W        W43815  34.475   9.217   0.939
72145W        W43816  32.674  37.317   3.883
72146W        W43817  31.405  15.698  12.938
72147W        W43818  22.199   4.611   0.839
72148W        W43819  33.974  37.256  13.094
72149W        W43820   9.143  34.158   3.765
72150W        W43821  39.385  33.241   2.062
72151W        W43822  19.557  23.796  10.749
72152W        W43823  11.135  39.386   2.693
72153W        W43824  30.065  23.489  14.784
72154W        W43825  15.558  28.783  11.139
72155W        W43826  33.953  40.365  11.100
72156W        W43827  35.553  29.493  11.606
72157W        W43828   1.482  28.415  13.191
72158W        W43829  35.880  19.230  13.337
72159W        W43830  11.851   6.265  14.025
72160W        W43831   4.324  33.343  11.549
72161W        W43832  25.037   6.235   3.758
72162W        W43833  34.837  36.991  10.222
72163W        W43834  35.889  28.065   2.159
72164W        W43835  18.642   3.236   4.374
72165W        W43836   7.423  11.900   2.803
72166W        W43837  20.702  22.971  14.497
72167W        W43838  32.519   7.400   0.356
72168W        W43839  35.498  22.720  12.014
72169W        W43840   3.504  27.507  13.602
72170W        W43841  37.074   3.685  13.687
72171W        W43842   0.782  28.971  11.039
72172W        W43843  23.000  28.191   1.869
72173W        W43844  32.487  16.542  11.678
72174W        W43845  23.797  25.277   0.458
72175W        W43846  42.190  12.236   1.929
72176W        W43847   1.202  14.355   4.785
72177W        W43848  27.957  31.606  10.441
72178W        W43849  34.337  15.231   0.921
72179W        W43850  40.379  25.141  11.670
72180W        W43851   0.260  14.723   0.134
72181W        W43852  28.405   2.336  12.432
72182W        W43853   0.928  37.507   2.673
72183W        W43854  22.080  13.434   3.696
72184W        W43855  16.948  12.452  13.844
72185W        W43856  36.419   8.773  11.170
72186W        W43857  33.152   5.427   4.660
72187W        W43858  12.140   5.489   1.798
72188W        W43859  40.913  10.688  11.259
72189W        W43860  41.964   4.874   4.445
72190W        W43861  42.935  10.624   2.191
72191W        W43862  37.643   5.903  14.051
72192W        W43863  39.765   5.414  10.643
72193W        W43864  28.959  13.841   3.916
72194W        W43865  11.077  19.272  10.772
72195W        W43866  23.677  18.841  14.351
72196W        W43867   0.323  19.155  12.410
72197W        W43868   2.053  12.293   2.281
72198W        W43869  23.518  34.963  12.356
72199W        W43870  17.002  21.722   2.922
72200W        W43871  27.313  14.828  14.283
72201W        W43872   2.221  29.727  12.998
72202W        W43873   6.846  18.780   1.920
72203W        W43874   3.890  44.521  12.575
72204W        W43875  31.059  28.502  12.242
72205W        W43876  22.990  40.963   2.222
72206W        W43877  25.200  22.234   3.887
72207W        W43878  28.244  14.827  10.313
72208W        W43879  15.278  27.237   1.715
72209W        W43880  14.371  16.827   3.260
72210W        W43881  31.817  39.013  10.721
72211W        W43882   6.855  36.181  13.026
72212W        W43883  44.049  42.238   2.954
72213W        W43884  34.606  12.180  14.869
72214W        W43885  16.308  14.262   4.434
72215W        W43886   2.696  27.987   0.454
72216W        W43887  19.758  37.432   0.012
72217W        W43888  31.921  24.516   4.723
72218W        W43889  32.002  14.530  14.358
72219W        W43890  34.181  28.619  12.137
72220W        W43891  44.997  14.474  10.778
72221W        W43892  30.489  14.268   4.160
72222W        W43893  35.633  21.437  14.733
72223W        W43894  20.363  33.897   0.386
72224W        W43895  43.014  28.022   3.143
72225W        W43896   7.756  18.933   1.609
72226W        W43897  30.006  12.233   0.474
72227W        W43898  38.443  29.988   4.958
72228W        W43899  23.665   8.728  11.843
72229W        W43900  28.853  34.907   4.933
72230W        W43901  20.569  12.219   3.994
72231W        W43902  31.414  15.056  12.406
72232W        W43903   7.183  16.879  14.329
72233W        W43904  29.901   6.520  12.023
72234W        W43905  11.692  14.080  10.644
72235W        W43906  41.528  28.603   0.691
72236W        W43907   1.034  14.317  13.393
72237W        W43908  12.188  31.878  10.399
72238W        W43909  16.832  38.506   0.353
72239W        W43910  26.929  33.555  12.092
72240W        W43911   1.254   1.734   4.588
72241W        W43912  15.709  20.576   4.275
72242W        W43913  41.411  24.760  13.816
72243W        W43914  20.945  44.541  11.216
72244W        W43915  17.481  30.447   1.544
72245W        W43916  39.651  17.562   0.458
72246W        W43917  29.940  21.937   2.709
72247W        W43918  16.290  28.415   3.224
72248W        W43919  20.195  23.449   5.553
72249W        W43920  16.162  42.289  11.798
72250W        W43921  42.510  26.483  10.746
72251W        W43922  14.330  20.796  10.931
72252W        W43923  41.534  37.476   2.790
72253W        W43924  38.426  19.142  11.183
72254W        W43925  44.282   0.754  11.577
72255W        W43926  35.488  24.286   2.508
72256W        W43927  31.958  21.083   3.301
72257W        W43928  11.199   7.282   4.773
72258W        W43929  26.583  26.936   3.476
72259W        W43930  26.250   0.992   0.076
72260W        W43931   2.825  33.860  10.633
72261W        W43932   4.673  23.487   1.835
72262W        W43933  20.664   3.286  12.108
72263W        W43934  20.028  11.711   9.753
72264W        W43935  25.134  44.110   0.428
72265W        W43936  31.641  18.477   2.170
72266W        W43937   9.177  35.231  12.463
72267W        W43938   8.724  11.696   2.294
72268W        W43939  32.815   4.895   2.327
72269W        W43940   5.922   3.732  11.980
72270W        W43941   0.511  16.136   0.462
72271W        W43942  16.366  15.768  14.610
72272W        W43943   0.736  12.139  12.528
72273W        W43944  39.820  25.012   1.793
72274W        W43945  24.387  34.371  10.787
72275W        W43946  38.265  42.060   4.598
72276W        W43947  40.596   7.969   0.385
72277W        W43948  42.616  29.434   4.183
72278W        W43949  12.095  14.964   1.761
72279W        W43950  41.027  26.306   3.125
72280W        W43951  43.418  40.867   4.543
72281W        W43952  43.523  13.790   2.667
72282W        W43953  36.224  29.349   4.303
72283W        W43954  10.159  18.194  11.185
72284W        W43955  13.298  10.677   1.253
72285W        W43956  27.525  43.383   4.147
72286W        W43957  24.164  25.355  10.143
72287W        W43958  19.174   7.721  14.846
72288W        W43959  20.827  32.144   0.403
72289W        W43960  10.159  16.266  12.484
72290W        W43961   9.127   3.002  11.108
72291W        W43962  30.940   8.783  10.777
72292W        W43963   5.384   3.795   2.927
72293W        W43964   9.462  21.524   0.331
72294W        W43965  19.222  14.309  14.874
72295W        W43966  30.444  28.477   3.595
72296W        W43967  31.618  33.959  11.997
72297W        W43968  26.503  39.509  14.330
72298W        W43969  13.815  31.005  14.969
72299W        W43970  43.529  21.348   9.559
72300W        W43971  26.033  37.033   0.787
72301W        W43972  13.332  36.661  13.836
72302W        W43973  41.826  36.899  11.768
72303W        W43974  19.083  20.956  10.511
72304W        W43975  31.605  40.825   4.147
72305W        W43976  40.449  23.595   2.318
72306W        W43977  31.476   8.928   4.710
72307W        W43978  12.943  31.076   3.160
72308W        W43979   5.199  41.857   3.723
72309W        W43980  29.021   1.164   0.777
72310W        W43981   7.559  41.379  12.361
72311W        W43982  38.327  26.367  10.586
72312W        W43983  25.939  24.104   3.077
72313W        W43984  32.566   6.125  11.980
72314W        W43985  10.878   6.378   2.809
72315W        W43986  21.412  25.756   1.866
72316W        W43987  32.387  19.610  12.804
72317W        W43988  29.454  41.289   1.755
72318W        W43989   8.203  21.039   1.428
72319W        W43990  23.227  11.464  12.935
72320W        W43991  14.346  23.935   3.980
72321W        W43992  31.998  30.213   3.272
72322W        W43993  35.409  10.537   3.576
72323W        W43994  35.021  10.374   2.313
72324W        W43995  41.818  43.391  11.475
72325W        W43996  16.178  39.213   4.269
72326W        W43997  36.461   4.064  10.674
72327W        W43998  28.575   2.806   0.198
72328W        W43999   1.416  34.935   1.274
72329W        W44000  32.855  43.653   2.212
72330W        W44001  14.610  19.326  13.991
72331W        W44002   3.837   7.746   4.187
72332W        W44003   2.111  40.298  12.833
72333W        W44004  13.720  16.744  13.474
72334W        W44005   5.037   5.879  11.684
72335W        W44006  16.022   5.484  11.972
72336W        W44007  32.347  13.826  13.341
72337W        W44008  10.646   1.879   2.403
72338W        W44009  44.564  15.171   2.228
72339W        W44010  13.258  11.624  14.383
72340W        W44011   2.695  34.050  12.438
72341W        W44012  33.673  26.856  14.986
72342W        W44013  26.484  29.888   0.358
72343W        W44014  30.791  27.181  13.740
72344W        W44015  26.787  24.646   1.992
72345W        W44016  26.248  29.997  11.140
72346W        W44017  25.329  18.153  13.900
72347W        W44018  23.443  34.336   0.680
72348W        W44019  23.594  39.361   5.025
72349W        W44020   9.737   5.707   3.292
72350W        W44021   2.734  22.447  14.001
72351W        W44022   2.621  21.829  10.193
72352W        W44023  10.275  18.349  10.289
72353W        W44024  16.060  31.541  12.491
72354W        W44025  38.924   0.188  10.061
72355W        W44026   0.221  10.314  14.375
72356W        W44027   0.062  15.761   2.759
72357W        W44028  18.678  19.719   1.654
72358W        W44029   6.138   3.828   3.261
72359W        W44030  30.075  28.664   4.536
72360W        W44031  11.583  38.372  14.678
72361W        W44032   3.888  26.800  13.313
72362W        W44033  33.871  18.060  13.502
72363W        W44034  43.484  25.476  12.441
72364W        W44035  19.969  25.452   9.763
72365W        W44036   2.052  24.113   2.195
72366W        W44037  44.375  30.235   2.348
72367W        W44038  22.144  28.639  14.935
72368W        W44039  29.556  20.619  11.158
72369W        W44040  26.454  11.757   1.738
72370W        W44041  41.247  38.022  13.391
72371W        W44042   7.649  43.881  12.355
72372W        W44043  42.016  14.166  13.397
72373W        W44044  20.804  18.760   3.922
72374W        W44045  27.421  10.589  13.318
72375W        W44046  40.831  14.079   2.433
72376W        W44047  31.062  44.137   4.662
72377W        W44048  32.755  11.326  14.327
72378W        W44049   9.591  19.672  12.071
72379W        W44050   9.143  13.081   0.415
72380W        W44051  13.210  27.569   4.746
72381W        W44052  17.814   2.457   3.683
72382W        W44053  30.673  40.646   4.140
72383W        W44054  26.635   8.656  14.790
72384W        W44055  28.074  13.626  10.134
72385W        W44056  31.453   3.670   3.658
72386W        W44057  44.606  18.097  14.438
72387W        W44058  38.875  32.068   1.604
72388W        W44059  28.952   9.676  13.382
72389W        W44060   6.457  21.715  12.996
72390W        W44061  14.552  31.385  11.635
72391W        W44062  20.070  23.167   0.236
72392W        W44063   5.975  34.045  14.857
72393W        W44064  21.592  32.705   1.880
72394W        W44065   6.650   6.191   0.986
72395W        W44066  30.896   8.373  11.106
72396W        W44067  26.614   9.897  12.969
72397W        W44068  34.863  10.218   4.308
72398W        W44069  37.133  20.880   1.466
72399W        W44070  23.569  33.636  12.085
72400W        W44071  40.380   2.978   2.909
72401W        W44072  33.127   1.320   1.502
72402W        W44073  12.846  11.716   3.204
72403W        W44074  29.953  30.495   4.880
72404W        W44075  18.249  40.637   0.642
72405W        W44076  43.277  17.407   1.027
72406W        W44077   8.631  29.871  11.620
72407W        W44078  17.586   5.006   1.429
72408W        W44079   4.594  39.941   3.134
72409W        W44080  38.638  38.579   3.269
72410W        W44081  43.879  43.038  14.543
72411W        W44082  15.761  10.107   2.381
72412W        W44083  41.903  18.101  10.982
72413W        W44084  41.402  44.483   4.447
72414W        W44085  38.653  23.704   3.079
72415W        W44086  30.753  15.113   0.315
72416W        W44087  43.826  19.576   0.066
72417W        W44088  28.010  23.956  11.548
72418W        W44089  29.996  44.303  11.005
72419W        W44090  29.464  38.212   3.423
72420W        W44091  37.877  43.672   1.291
72421W        W44092  10.522  22.602  12.892
72422W        W44093  42.872  11.143   0.293
72423W        W44094   9.845   5.718  12.539
72424W        W44095  19.585  39.088   0.396
72425W        W44096  18.264  35.307  12.041
72426W        W44097   2.462  31.201   2.747
72427W        W44098  23.401  43.416  12.959
72428W        W44099  17.437  31.360  11.107
72429W        W44100   2.344  17.077  11.600
72430W        W44101   5.734  33.413  10.563
72431W        W44102  42.955  36.219   2.941
72432W        W44103  44.533   4.909  12.027
72433W        W44104   4.676  14.192   0.356
72434W        W44105  32.330  36.594   3.311
72435W        W44106  28.433   6.036   1.698
72436W        W44107  12.282   4.150  11.606
72437W        W44108   1.777  13.766   2.261
72438W        W44109  39.875  25.570  14.766
72439W        W44110  24.036  11.268   2.829
72440W        W44111  37.325  43.284   0.169
72441W        W44112   1.258  13.877  12.782
72442W        W44113  18.754  16.797   0.242
72443W        W44114  23.067  21.089  12.529
72444W        W44115  28.275   6.880   4.642
72445W        W44116   5.244  10.529  13.991
72446W        W44117   0.482  44.009   4.651
72447W        W44118  42.484  29.465  11.474
72448W        W44119  43.009  36.416  11.072
72449W        W44120  13.221  17.710  12.886
72450W        W44121  19.427  10.655  12.896
72451W        W44122  12.412  30.017  11.097
72452W        W44123   3.887  11.303  11.782
72453W        W44124  18.179  40.077  10.742
72454W        W44125   6.720  33.927  13.078
72455W        W44126  33.924  40.509  14.841
72456W        W44127  12.879  44.762  10.986
72457W        W44128  16.270  44.074  14.042
72458W        W44129  23.508  22.008  13.470
72459W        W44130  29.132  10.294   5.139
72460W        W44131  28.626  27.492   1.741
72461W        W44132  43.964  15.012  12.463
72462W        W44133  41.911  22.506   4.171
72463W        W44134  27.864  36.602   1.490
72464W        W44135  18.405  29.643   0.906
72465W        W44136  32.184   4.163   1.687
72466W        W44137  10.344  25.601   4.670
72467W        W44138   3.771  11.406   2.431
72468W        W44139  14.257  13.818  13.843
72469W        W44140  19.201  23.615  11.099
72470W        W44141  17.124  14.729  14.611
72471W        W44142  32.594  31.860   2.602
72472W        W44143  32.815  36.235   4.711
72473W        W44144  32.611  13.294   0.876
72474W        W44145  39.416  33.677   1.747
72475W        W44146  23.569  24.291   0.422
72476W        W44147  41.969  27.145  12.855
72477W        W44148  27.509  17.191  11.222
72478W        W44149  37.138  25.072   3.438
72479W        W44150   2.388  39.832   0.032
72480W        W44151   8.412  15.440  12.090
72481W        W44152  26.695   5.754  13.450
72482W        W44153  35.004  20.439  11.175
72483W        W44154  36.905  35.457   0.922
72484W        W44155  17.644  35.360  13.566
72485W        W44156  32.432  20.308  14.943
72486W        W44157  22.645  28.217   1.433
72487W        W44158  18.560  14.423   0.026
72488W        W44159   8.422  12.132  13.411
72489W        W44160  20.772  43.934   2.705
72490W        W44161  40.004  23.420  14.644
72491W        W44162  28.960  13.979   2.926
72492W        W44163  23.134  33.918  14.214
72493W        W44164  40.441  28.584   1.668
72494W        W44165  33.091  17.008   3.684
72495W        W44166   3.820  25.481  10.670
72496W        W44167   1.379  40.625  11.045
72497W        W44168   2.662  39.884   1.382
72498W        W44169  22.262  34.420   4.575
72499W        W44170  25.062  19.671   4.586
72500W        W44171  28.114  20.675  14.105
72501W        W44172  20.767  36.344   0.276
72502W        W44173  40.324  10.936   2.788
72503W        W44174   0.355   7.046   2.158
72504W        W44175  43.833   2.815   1.858
72505W        W44176  31.152  29.194  14.764
72506W        W44177  24.696   0.684  13.906
72507W        W44178  36.943  44.842   0.785
72508W        W44179  19.117  12.210  12.355
72509W        W44180  27.401   7.225  10.584
72510W        W44181  20.360  30.580  12.701
72511W        W44182  24.961  34.045   4.693
72512W        W44183  16.807  38.549   1.232
72513W        W44184  43.669  18.072   3.239
72514W        W44185  11.916  19.222   2.261
72515W        W44186  32.129  32.034   3.360
72516W        W44187  13.999   8.363  11.856
72517W        W44188  24.922   6.712   2.644
72518W        W44189  18.201  26.021  12.102
72519W        W44190  23.576  28.125   0.910
72520W        W44191   9.942  28.869  12.134
72521W        W44192   9.693   2.427   3.633
72522W        W44193  14.760  25.495   1.638
72523W        W44194  13.612  44.232   3.616
72524W        W44195  34.899  41.475  14.226
72525W        W44196  25.514  40.980   4.660
72526W        W44197  26.723  22.974  11.103
72527W        W44198  44.117  43.682   1.806
72528W        W44199   2.448   8.652  12.020
72529W        W44200  21.659  30.190   4.808
72530W        W44201  34.281  23.540  12.336
72531W        W44202   4.356  14.075  14.703
72532W        W44203  15.257  29.113  12.282
72533W        W44204  19.730  39.827  14.732
72534W        W44205  36.813  38.566  12.843
72535W        W44206   6.641  21.127   2.811
72536W        W44207   1.158   1.649  13.055
72537W        W44208  32.186  15.971  12.970
72538W        W44209  29.564  24.744   3.108
72539W        W44210  33.801  41.790   0.276
72540W        W44211  42.882  20.254  11.648
72541W        W44212  38.914  10.800  14.794
72542W        W44213  25.463  24.230  10.702
72543W        W44214  30.130  39.408   3.524
72544W        W44215  22.544   2.533   2.898
72545W        W44216   2.532  37.287  12.922
72546W        W44217  21.983   7.180   1.018
72547W        W44218  34.422  26.423  11.691
72548W        W44219  38.491  39.625   1.631
72549W        W44220  23.299  12.657  14.444
72550W        W44221   7.142  41.862   1.674
72551W        W44222  18.264  33.696  12.556
72552W        W44223  24.893  34.101   1.124
72553W        W44224  39.492  16.767   1.859
72554W        W44225  42.342  20.550  11.235
72555W        W44226   4.571  23.967   2.687
72556W        W44227  11.744  14.350  14.378
72557W        W44228  22.001  17.807  12.063
72558W        W44229   4.343   0.930   3.356
72559W        W44230  42.632   5.790   4.586
72560W        W44231  22.024  21.307   3.810
72561W        W44232   2.870  44.117  13.360
72562W        W44233  16.313  31.422   0.896
72563W        W44234  31.926  20.773   2.526
72564W        W44235  30.973  26.486   2.401
72565W        W44236  42.867  34.857  11.596
72566W        W44237  17.846  11.781  10.592
72567W        W44238  14.790  37.055  13.249
72568W        W44239  12.775  15.339   2.830
72569W        W44240  27.976  16.067  11.102
72570W        W44241  39.462   9.706  10.680
72571W        W44242  36.908  29.205   0.273
72572W        W44243  22.645  39.367  14.301
72573W        W44244  17.976  25.605   0.320
72574W        W44245  29.584   3.142   0.943
72575W        W44246  27.371  26.897  11.957
72576W        W44247  28.384  29.905   3.793
72577W        W44248   2.170  32.671  12.978
72578W        W44249  30.125  13.859  12.104
72579W        W44250  20.160  33.431   0.448
72580W        W44251   2.777   4.751  13.437
72581W        W44252  34.917   6.598   3.670
72582W        W44253  11.954  17.656  13.455
72583W        W44254  13.631   1.676   4.925
72584W        W44255  44.445  33.431   9.963
72585W        W44256  34.936  14.724   4.156
72586W        W44257  29.773  37.114  12.871
72587W        W44258  15.400  10.553   4.007
72588W        W44259  11.737  11.616  14.364
72589W        W44260  15.800  30.585   2.279
72590W        W44261  11.851  20.929   0.974
72591W        W44262  20.598   2.781  11.988
72592W        W44263  17.117  39.946   0.809
72593W        W44264  17.084  33.376   3.489
72594W        W44265  14.000  33.532   4.655
72595W        W44266  27.553  30.753  14.684
72596W        W44267   2.871  10.218   3.748
72597W        W44268  35.591  44.306   2.200
72598W        W44269  32.636  25.491  10.749
72599W        W44270  36.362   5.907   0.003
72600W        W44271   6.477   2.300   2.666
72601W        W44272   1.307  24.658  14.773
72602W        W44273  12.136  18.477   3.413
72603W        W44274  12.846  20.231   0.406
72604W        W44275  35.525  23.849   3.765
72605W        W44276   0.499  33.128   0.771
72606W        W44277  11.293  32.423   3.693
72607W        W44278  35.257  27.028   0.001
72608W        W44279  22.553  26.128   0.259
72609W        W44280   6.205  13.348  10.880
72610W        W44281  18.650  34.847  13.863
72611W        W44282  43.263  33.934   4.914
72612W        W44283  37.257  12.269   0.306
72613W        W44284  33.410  28.199  13.254
72614W        W44285  22.618  18.467  13.819
72615W        W44286   5.930  25.136   4.386
72616W        W44287  39.850  23.145  11.218
72617W        W44288  22.623  24.736   2.693
72618W        W44289  43.531  10.808   0.486
72619W        W44290  41.485  37.650  11.148
72620W        W44291  14.502  33.412   4.540
72621W        W44292  40.421  25.215  14.267
72622W        W44293   4.461  20.705  11.966
72623W        W44294  32.532   4.542  14.920
72624W        W44295   9.592   4.738  11.642
72625W        W44296  15.850  11.810  12.296
72626W        W44297  43.991  18.600   2.355
72627W        W44298  39.621  13.545  12.062
72628W        W44299   9.845   7.156   4.147
72629W        W44300   4.650  29.757  13.809
72630W        W44301   9.916  19.293  13.189
72631W        W44302   5.697   5.203  11.247
72632W        W44303  23.748  15.119  14.547
72633W        W44304  19.458   9.889  12.357
72634W        W44305  37.487  26.590  14.866
72635W        W44306  35.543  30.917  11.243
72636W        W44307  28.377  39.240  13.875
72637W        W44308  42.024  43.298   3.094
72638W        W44309  41.466  33.478  12.881
72639W        W44310  20.014   1.834  12.815
72640W        W44311  43.934  35.188  11.780
72641W        W44312  27.234  35.309   3.632
72642W        W44313  10.917  31.638   3.898
72643W        W44314   2.872  20.159  12.611
72644W        W44315  21.708  22.052   4.141
72645W        W44316  39.059  38.466   1.994
72646W        W44317  19.200   1.454  14.743
72647W        W44318  42.527  34.593   3.781
72648W        W44319   1.009  24.146   2.368
72649W        W44320  10.140  16.609   4.904
72650W        W44321  42.562  26.200   2.221
72651W        W44322  27.722  30.745  10.672
72652W        W44323   6.271  19.506   4.119
72653W        W44324  28.603  20.143   3.257
72654W        W44325   5.458  42.268  12.485
72655W        W44326  20.064  18.629  14.539
72656W        W44327   0.339  30.419   1.849
72657W        W44328  18.132   2.817  11.643
72658W        W44329  40.135   3.149  11.559
72659W        W44330  40.812  38.444  11.807
72660W        W44331  25.843  32.071   4.679
72661W        W44332  11.795  16.920  11.948
72662W        W44333   8.929  31.080   3.300
72663W        W44334   7.180  28.754  14.712
72664W        W44335   2.656  25.199   0.358
72665W        W44336  39.398  28.973   3.184
72666W        W44337  18.508  24.519  10.528
72667W        W44338   9.294  10.934   3.950
72668W        W44339  40.853  18.523  11.652
72669W        W44340  42.533   9.463  13.388
72670W        W44341   9.379  31.392   1.865
72671W        W44342  21.295  14.191   2.639
72672W        W44343  35.935   9.826   2.303
72673W        W44344  16.355  29.077  11.541
72674W        W44345  36.160  24.690  14.915
72675W        W44346   2.400  12.847  10.122
72676W        W44347   4.381  43.416   3.284
72677W        W44348  32.178  31.845   2.892
72678W        W44349  40.147   5.271  14.481
72679W        W44350   9.884   9.858   1.209
72680W        W44351  16.660  37.911  11.111
72681W        W44352  10.866  17.291  12.972
72682W        W44353   5.047  43.900   4.887
72683W        W44354  19.380  11.690  14.903
72684W        W44355  29.101   3.011   4.051
72685W        W44356  29.193  30.985  12.397
72686W        W44357  22.503   7.657  11.333
72687W        W44358  22.512  11.558  12.385
72688W        W44359   9.184   0.521   1.900
72689W        W44360  15.156  18.184   4.846
72690W        W44361  26.632  10.681   0.356
72691W        W44362  37.422  29.633  14.854
72692W        W44363  30.847  12.612   2.196
72693W        W44364  35.312  44.963   4.196
72694W        W44365   7.907   2.325  10.333
72695W        W44366  27.726  30.188  10.793
72696W        W44367  34.670  31.029   0.306
72697W        W44368  36.423  10.581  11.611
72698W        W44369   4.223  41.046   1.979
72699W        W44370  36.161   1.843  12.513
72700W        W44371  41.873  14.086   0.792
72701W        W44372   9.409  31.090  14.988
72702W        W44373  28.557  21.231   3.190
72703W        W44374  12.761  43.428   2.650
72704W        W44375  11.000  41.316   4.066
72705W        W44376  37.106   7.666   0.226
72706W        W44377  33.667  34.733  13.954
72707W        W44378  30.134   4.968  13.968
72708W        W44379  38.665  42.469   1.777
72709W        W44380  31.466   5.423  14.995
72710W        W44381  11.745  10.675  13.484
72711W        W44382  35.805  26.454   1.456
72712W        W44383  39.512  22.515   4.363
72713W        W44384  16.487  22.030   0.929
72714W        W44385  41.807   5.797  14.891
72715W        W44386   1.325   2.733   4.553
72716W        W44387   4.248  18.088  12.459
72717W        W44388  36.988   0.939   2.429
72718W        W44389  21.064   0.009  13.431
72719W        W44390  25.598  19.303   1.878
72720W        W44391  28.420  10.315   4.559
72721W        W44392   8.878   3.792   1.176
72722W        W44393   9.724  30.420  13.514
72723W        W44394   2.539  20.264   3.138
72724W        W44395  12.593  20.711   4.177
72725W        W44396  23.390  28.621   1.023
72726W        W44397  41.399   8.888  14.748
72727W        W44398  43.925  13.757  14.549
72728W        W44399  10.942  18.474   5.058
72729W        W44400  23.562  33.840  13.933
72730W        W44401  26.620   3.822  12.899
72731W        W44402  19.217  10.751   3.939
72732W        W44403  32.530  19.601  11.956
72733W        W44404  31.059  37.755  14.397
72734W        W44405   7.595  35.349  11.657
72735W        W44406  32.373  34.533   0.441
72736W        W44407  10.137  36.940   2.901
72737W        W44408   4.495  32.960  13.618
72738W        W44409  29.425  27.877   0.406
72739W        W44410  10.235  39.525  14.803
72740W        W44411  37.991  43.512   2.889
72741W        W44412  38.255  38.592  11.161
72742W        W44413  42.153  32.889   0.900
72743W        W44414  13.210  35.088   0.789
72744W        W44415  10.846  39.892  11.824
72745W        W44416  16.735  10.191   4.511
72746W        W44417   6.407  25.110   4.080
72747W        W44418   1.286   6.883  13.000
72748W        W44419  41.350  36.471   4.546
72749W        W44420  23.071  27.034  12.099
72750W        W44421  36.440  24.394   1.667
72751W        W44422  44.182  12.943  10.690
72752W        W44423  17.828  22.821  14.525
72753W        W44424   0.809  31.109  10.651
72754W        W44425  23.517  21.102   4.149
72755W        W44426  16.978   1.299   0.821
72756W        W44427  13.803   5.706   4.484
72757W        W44428  43.017  11.639   5.091
72758W        W44429  18.616  25.592   2.272
72759W        W44430  21.667  13.605   3.375
72760ION    NA+44431  21.024  23.965   4.687
72761ION    NA+44432   3.202  43.245  14.724
72762ION    NA+44433   6.338  42.596  11.074
72763ION    NA+44434  18.748  20.274   1.266
72764ION    NA+44435  35.740  38.084   4.850
72765ION    NA+44436  19.849  34.400   1.959
72766ION    NA+44437   9.348  19.061  13.112
72767ION    NA+44438  16.334  20.617  13.562
72768ION    NA+44439  19.941  22.442  12.951
72769ION    NA+44440   4.693  33.747  11.975
72770ION    NA+44441  22.852  21.899   2.230
72771ION    NA+44442  38.268  26.457   1.084
72772ION    NA+44443   7.632  26.462   3.685
72773ION    NA+44444  35.377   5.709  14.311
72774ION    NA+44445   6.880   1.177   2.999
72775ION    NA+44446  37.351  24.061  14.395
72776ION    NA+44447  30.800  18.745   1.700
72777ION    NA+44448   4.768  18.537  14.953
72778ION    NA+44449   5.370  15.499  12.525
72779ION    NA+44450  35.449  10.688  10.793
72780ION    NA+44451  42.463  18.962  14.192
72781ION    NA+44452   1.724  37.819   0.157
72782ION    NA+44453  13.891  10.480  13.815
72783ION    NA+44454  39.946   2.427  13.586
72784ION    NA+44455  43.600   6.941  14.786
72785ION    NA+44456  10.175  30.623   0.942
72786ION    NA+44457   9.379  11.777  14.088
72787ION    NA+44458  23.586  16.169   4.759
72788ION    NA+44459  19.500  18.026   3.647
72789ION    NA+44460  20.175   7.325  10.192
72790ION    NA+44461   0.251  14.311   4.107
72791ION    NA+44462  24.056  14.738  11.917
72792ION    NA+44463  33.774  42.191  12.941
72793ION    NA+44464  29.709  40.649   2.136
72794ION    NA+44465  14.435   9.698   1.150
72795ION    NA+44466  14.022  35.703   4.536
72796ION    NA+44467  28.369   8.864   1.851
72797ION    NA+44468   2.679  41.501   0.567
72798ION    NA+44469  28.070  16.892   4.372
72799ION    NA+44470   9.156  37.962   3.451
72800ION    NA+44471  11.101  14.961   0.726
72801ION    NA+44472  12.649   2.000   4.648
72802ION    NA+44473  18.715  25.395  11.481
72803ION    NA+44474  27.005  20.045  11.389
72804ION    NA+44475  18.166  20.648   0.053
72805ION    NA+44476   7.608  29.785   1.878
72806ION    NA+44477  19.039  18.137  12.487
72807ION    NA+44478  15.079  38.553  12.626
72808ION    NA+44479   5.164  25.225   0.482
72809ION    NA+44480  27.976  18.642  12.456
72810ION    NA+44481  28.523   7.577   3.048
72811ION    NA+44482  41.057  29.174  13.127
72812ION    NA+44483  30.984  39.795   2.821
72813ION    NA+44484   8.605  38.790   3.345
72814ION    NA+44485  42.431  17.328  13.239
72815ION    NA+44486   5.936  30.583  10.735
72816ION    NA+44487  19.905  27.623  10.280
72817ION    NA+44488  24.916  14.646  11.652
72818ION    NA+44489   7.414  39.544   1.488
72819ION    NA+44490  21.676   5.644  11.137
72820ION    NA+44491  13.222  42.571   2.991
72821ION    NA+44492   9.848  32.473   0.191
72822ION    NA+44493   6.912  41.998   0.445
72823ION    NA+44494  37.086  29.644   1.642
72824ION    NA+44495   1.958   7.548  14.673
72825ION    NA+44496  37.277  41.911   2.738
72826ION    NA+44497   7.014  30.884   4.641
72827ION    NA+44498  28.946  34.369  11.567
72828ION    NA+44499  37.787  39.412  13.222
72829ION    NA+44500  29.853  22.849  14.790
72830ION    NA+44501  40.844  12.411  14.022
72831ION    NA+44502  28.433  44.231   3.032
72832ION    NA+44503  42.707  18.439   2.417
72833ION    NA+44504   4.227   1.431  10.638
72834ION    NA+44505  18.788  24.695  13.765
72835ION    NA+44506  30.284  24.879  11.121
72836ION    NA+44507  13.042  26.897   1.682
72837ION    NA+44508  31.477  18.203  11.158
72838ION    NA+44509   6.171   5.395   3.688
72839ION    NA+44510  31.683  11.334   2.847
72840ION    NA+44511  41.855  12.902  10.081
72841ION    NA+44512  13.628  43.961  14.365
72842ION    NA+44513  35.660   0.244  12.604
72843ION    NA+44514  16.133  32.925   0.542
72844ION    NA+44515  25.193  39.654  12.452
72845ION    NA+44516  14.724   0.452   4.636
72846ION    NA+44517  42.208  38.250   2.838
72847ION    NA+44518  12.690  36.523  12.120
72848ION    NA+44519  17.342  17.504  11.817
72849ION    NA+44520   8.429  33.337  13.232
72850ION    NA+44521  16.677  29.999   4.466
72851ION    NA+44522  11.199  13.797  11.377
72852ION    NA+44523   5.882  43.195   0.995
72853ION    NA+44524  43.044  19.974   4.679
72854ION    NA+44525  44.052   9.669  14.690
72855ION    NA+44526  30.174  25.130   3.175
72856ION    NA+44527  13.794  43.372   1.717
72857ION    NA+44528  40.443  34.841  11.557
72858ION    NA+44529  14.352  31.841   4.400
72859ION    NA+44530  35.173  31.245   0.709
72860ION    NA+44531   3.170  40.297  11.343
72861ION    NA+44532  34.791   0.544   0.007
72862ION    NA+44533  37.434  38.353  11.575
72863ION    NA+44534  37.604  38.557  14.942
72864ION    NA+44535  32.938   3.661   1.022
72865ION    NA+44536  32.630   2.408   3.769
72866ION    NA+44537  11.392  19.161   2.167
72867ION    NA+44538  27.510  17.213   1.269
72868ION    NA+44539  13.172   9.785   3.386
72869ION    NA+44540  42.964  12.712   4.551
72870ION    NA+44541  30.398   5.433   4.295
72871ION    NA+44542  20.306  22.308   3.605
72872ION    NA+44543   1.485  35.251  10.955
72873ION    NA+44544  18.040  25.849   1.657
72874ION    NA+44545  39.309   0.741   0.053
72875ION    NA+44546  26.143  40.633   1.935
72876ION    NA+44547  43.944  17.519  10.588
72877ION    NA+44548  37.263  21.949  11.829
72878ION    NA+44549  13.255  35.232   2.054
72879ION    NA+44550  31.618  35.941   1.442
72880ION    NA+44551   9.364   7.457  13.037
72881ION    NA+44552  33.548  21.905  10.282
72882ION    NA+44553  15.570  33.602  13.823
72883ION    NA+44554   3.834  44.211   3.997
72884ION    NA+44555  10.161  11.652  14.546
72885ION    NA+44556  29.478  33.926   3.145
72886ION    NA+44557  28.724  18.876  14.294
72887ION    NA+44558  12.782  15.686   0.184
72888ION    NA+44559  32.494  18.808   1.636
72889ION    NA+44560  11.177  25.493   2.890
72890ION    NA+44561  17.518  17.270  14.737
72891ION    NA+44562  38.489   6.822   2.658
72892ION    NA+44563   7.897  18.825  14.272
72893ION    NA+44564   3.297   4.639  13.434
72894ION    NA+44565  19.424   8.748  11.262
72895ION    NA+44566  34.015  41.084  10.966
72896ION    NA+44567  34.145  37.636   0.440
72897ION    NA+44568  29.239   3.764   1.988
72898ION    NA+44569  35.233  10.347   5.246
72899ION    NA+44570   8.774  25.271  12.336
72900ION    NA+44571  31.135  36.245  13.497
72901ION    NA+44572  15.633   3.368   2.754
72902ION    NA+44573  13.855   2.692  11.173
72903ION    NA+44574  26.055  28.648   1.822
72904ION    NA+44575   4.948  39.535  10.723
72905ION    NA+44576  36.926  37.574  13.826
72906ION    NA+44577  39.487  43.114   1.162
72907ION    NA+44578  20.776  11.308   2.477
72908ION    NA+44579   0.348  12.116   3.352
72909ION    NA+44580   4.435  27.385   5.181
72910ION    NA+44581  32.603  19.854   3.565
72911ION    NA+44582  44.638   9.960   0.922
72912ION    NA+44583   5.804  37.863  13.360
72913ION    NA+44584  44.898  14.594  14.017
72914ION    NA+44585  40.182  20.264   3.330
72915ION    NA+44586   4.103  37.095   4.456
72916ION    NA+44587   0.879  38.151   3.805
72917ION    NA+44588  29.976  42.417  11.007
72918ION    NA+44589  18.002   1.628   3.713
72919ION    NA+44590  17.376   8.432   0.530
72920ION    NA+44591  13.928  20.176  14.341
72921ION    NA+44592   0.900  10.281  13.753
72922ION    NA+44593  16.869   2.257  12.882
72923ION    NA+44594  23.223  33.415  14.562
72924ION    NA+44595  24.550  33.833  14.879
72925ION    NA+44596  33.840  36.906  12.699
72926ION    NA+44597  17.402  33.466  12.631
72927ION    NA+44598  17.039   8.589  13.821
72928ION    NA+44599   6.886   4.024   0.011
72929ION    NA+44600   5.763  42.204   1.323
72930ION    NA+44601  24.946  40.831  11.836
72931ION    NA+44602  18.677  28.657   0.789
72932ION    NA+44603   5.108  41.909  14.873
72933ION    NA+44604  40.763   4.821  11.317
72934ION    NA+44605  41.296  27.119   1.471
72935ION    NA+44606  33.995  13.719  12.331
72936ION    NA+44607  20.143  18.516  13.658
72937ION    NA+44608  26.398  18.833   4.429
72938ION    NA+44609   6.085   4.058   2.292
72939ION    NA+44610  29.032  21.145  11.604
72940ION    NA+44611  15.649  26.708   4.315
72941ION    NA+44612  25.406  31.532  12.521
72942ION    NA+44613  30.262  24.738  13.456
72943ION    NA+44614  15.619  43.384   3.891
72944ION    NA+44615  10.106  19.092  10.409
72945ION    NA+44616  34.785  20.313  13.115
72946ION    NA+44617  18.674  30.607   9.516
72947ION    NA+44618  11.341  19.523   4.544
72948ION    NA+44619  23.681  28.520  10.715
72949ION    NA+44620   9.054  27.174  12.054
72950ION    NA+44621  17.668  35.361   0.922
72951ION    NA+44622  21.061  39.543  13.921
72952ION    NA+44623  44.721  10.775  14.965
72953ION    NA+44624  42.456  16.457   0.251
72954ION    NA+44625  41.489  25.928  12.458
72955ION    NA+44626  10.345  13.040  14.879
72956ION    NA+44627  33.049  12.671  12.393
72957ION    NA+44628   5.655  32.903  13.053
72958ION    NA+44629  18.854  44.942  13.972
72959ION    NA+44630   3.005  44.675   5.385
72960ION    NA+44631  22.307  24.574   5.176
72961ION    NA+44632  29.535  28.428  14.477
72962ION    NA+44633  34.475  14.129   3.216
72963ION    NA+44634  39.988   0.799  13.824
72964ION    NA+44635  32.215  41.248   1.896
72965ION    NA+44636  19.287  12.404  11.392
72966ION    NA+44637  10.114  42.734  13.145
72967ION    NA+44638  44.965  26.858  11.155
72968ION    NA+44639   1.335  20.731   2.762
72969ION    NA+44640  32.134  19.327  12.440
72970ION    NA+44641  35.257   2.809   4.174
72971ION    NA+44642  17.333  28.448  13.212
72972ION    NA+44643  22.835  13.288   1.146
72973ION    NA+44644   7.257  30.821  14.751
72974ION    NA+44645  12.732  15.712  11.904
72975ION    NA+44646  14.555  11.246  11.238
72976ION    NA+44647   0.471  32.543  12.058
72977ION    NA+44648   2.499  24.529  12.062
72978ION    NA+44649  16.149  27.664  12.602
72979ION    NA+44650   2.533   7.740   2.648
72980ION    NA+44651  36.841   5.131  11.103
72981ION    NA+44652  34.918  17.861  13.412
72982ION    NA+44653   6.301  36.695  14.444
72983ION    NA+44654   1.795  28.514   3.453
72984ION    NA+44655  35.010  26.372   1.034
72985ION    NA+44656   4.657  40.238  12.924
72986ION    NA+44657  36.795   8.601  14.854
72987ION    NA+44658  18.798   5.628  12.418
72988ION    NA+44659  16.110  10.268  10.351
72989ION    NA+44660   6.361  31.413  11.096
72990ION    NA+44661  36.584  14.205  10.285
72991ION    NA+44662  11.400   4.264   0.928
72992ION    NA+44663  43.990   6.431  11.131
72993ION    NA+44664  12.952  32.164   4.716
72994ION    NA+44665  35.391   9.090  13.880
72995ION    NA+44666  34.316  33.049   3.736
72996ION    NA+44667  26.552  39.542   1.274
72997ION    NA+44668  29.645  23.730   3.205
72998ION    NA+44669  11.989  14.809   4.367
72999ION    NA+44670  44.206  37.312  12.014
73000ION    NA+44671   7.654   7.218  11.468
73001ION    NA+44672  13.258  18.266  12.017
73002ION    NA+44673  31.943  41.984  11.954
73003ION    NA+44674   9.440  23.624   4.411
73004ION    NA+44675  43.800  29.433   2.608
73005ION    NA+44676  14.153  40.046  11.342
73006ION    NA+44677  31.866  12.913   4.720
73007ION    NA+44678  14.634   5.004  10.218
73008ION    NA+44679  22.154  43.509  10.962
73009ION    NA+44680  33.989  38.796   3.780
73010ION    NA+44681  27.040  39.939  13.929
73011ION    NA+44682   2.182   3.020   0.243
73012ION    NA+44683  11.156  17.128  10.725
73013ION    NA+44684  11.411  38.961  12.396
73014ION    NA+44685   8.838   1.930  12.419
73015ION    NA+44686   2.819  39.153  14.008
73016ION    NA+44687   5.162   3.998  12.131
73017ION    NA+44688  27.246  20.205  12.990
73018ION    NA+44689  20.645  40.052   1.316
73019ION    NA+44690  16.775  38.925   2.830
73020ION    NA+44691  24.432  42.553   2.531
73021ION    NA+44692  31.096  39.326  13.424
73022ION    NA+44693  39.304  14.271  10.333
73023ION    NA+44694  28.229  38.362  14.472
73024ION    NA+44695  28.185  19.830   0.330
73025ION    NA+44696  15.158  23.248   1.674
73026ION    NA+44697  12.329  12.266  13.812
73027ION    NA+44698  41.107   5.623  11.106
73028ION    NA+44699  19.304  31.051   1.620
73029ION    NA+44700  28.627  23.904   4.901
73030ION    NA+44701   6.177  17.655  13.529
73031ION    NA+44702  28.603  44.590   9.644
73032ION    NA+44703  14.318  38.296   0.753
73033ION    NA+44704   8.755   9.160  12.786
73034ION    NA+44705  34.920   1.199  14.407
73035ION    NA+44706  11.932   7.343  13.125
73036ION    NA+44707  24.468   5.173   4.236
73037ION    NA+44708  18.659  27.748   3.720
73038ION    NA+44709   9.200   9.738   0.037
73039ION    NA+44710  17.984  31.582  13.168
73040ION    NA+44711   7.062  14.243  12.548
73041ION    NA+44712  20.755  16.965  11.996
73042ION    NA+44713  14.414  40.070   0.294
73043ION    NA+44714  14.836  11.818  12.521
73044ION    NA+44715  35.497  15.586  13.392
73045ION    NA+44716  20.685  36.834   0.177
73046ION    NA+44717  15.531  43.291   4.965
73047ION    NA+44718   6.607  16.399   4.968
73048ION    NA+44719  32.868   9.104  11.677
73049ION    NA+44720  20.548  22.473  12.146
73050ION    NA+44721  17.839   6.853   1.624
73051ION    NA+44722   2.791  30.199   5.131
73052ION    NA+44723  24.806   7.183   2.934
73053ION    NA+44724  23.940  22.127  13.769
73054ION    NA+44725  34.428   2.747  11.799
73055ION    NA+44726  42.034  34.180   1.774
73056ION    NA+44727   8.303  32.648   4.522
73057ION    NA+44728  37.342   5.466   2.422
73058ION    NA+44729  35.397  23.153   0.320
73059ION    NA+44730  33.425  28.474  14.104
73060ION    NA+44731  18.362   4.397   3.009
73061ION    NA+44732  31.562   6.294  13.173
73062ION    NA+44733  21.273  35.900   4.250
73063ION    NA+44734   8.289  20.204   0.261
73064ION    NA+44735  23.382   9.233  12.878
73065ION    NA+44736  30.938  25.544   2.901
73066ION    NA+44737  25.510  13.521  14.805
73067ION    NA+44738   2.315  29.820   0.769
73068ION    NA+44739  25.669   3.327   1.026
73069ION    NA+44740  31.822  10.331  12.094
73070ION    NA+44741  25.280  34.874   2.186
73071ION    NA+44742   8.826   3.608   3.812
73072ION    NA+44743  25.183  25.094   1.864
73073ION    NA+44744  34.024   4.438   1.881
73074ION    NA+44745  38.076  26.857   3.203
73075ION    NA+44746   8.416  19.354  12.898
73076ION    NA+44747  15.565   8.599   1.485
73077ION    NA+44748  10.159  31.618   0.841
73078ION    NA+44749  24.150  21.522   2.883
73079ION    NA+44750  26.047   5.073   2.828
73080ION    NA+44751   8.135  38.343   0.939
73081ION    NA+44752  10.943  35.113  13.175
73082ION    NA+44753  29.771  36.224   2.968
73083ION    NA+44754  37.548   6.408   2.693
73084ION    NA+44755  23.533  19.011  13.846
73085ION    NA+44756  29.234  32.816  13.830
73086ION    NA+44757  24.064   1.307   1.780
73087ION    NA+44758  26.179  21.045   1.835
73088ION    NA+44759  28.600  42.437  10.791
73089ION    NA+44760  35.925  17.968  12.070
73090ION    NA+44761  10.833   5.688   1.941
73091ION    NA+44762  34.858  10.934  12.103
73092ION    NA+44763  37.921  21.491   3.242
73093ION    NA+44764  42.140  30.667  12.815
73094ION    NA+44765  37.871   4.452  13.972
73095ION    NA+44766  30.845  34.182   3.217
73096ION    NA+44767   9.321  20.447  10.664
73097ION    NA+44768  16.636  21.886  14.938
73098ION    NA+44769  25.998  33.979   4.716
73099ION    NA+44770   8.971   9.347   4.232
73100ION    NA+44771  18.470  44.912   1.780
73101ION    NA+44772   2.492  11.790  14.542
73102ION    NA+44773  26.075   3.785   4.627
73103ION    NA+44774  31.598   7.999   0.486
73104ION    NA+44775  40.324  31.970   1.349
73105ION    NA+44776  29.411  38.942  12.824
73106ION    NA+44777  20.315  17.511  13.925
73107ION    NA+44778   7.562  24.792   0.338
73108ION    NA+44779  20.302  40.314  11.607
73109ION    NA+44780  20.486  22.652   1.750
73110ION    NA+44781  23.726  23.790   3.700
73111ION    NA+44782   5.324  43.338   3.628
73112ION    NA+44783  36.536   3.130  12.532
73113ION    NA+44784  15.295  26.094  11.196
73114ION    NA+44785  19.821  24.582  14.721
73115ION    NA+44786  23.510   5.236  12.969
73116ION    NA+44787   3.157  14.438   3.115
73117ION    NA+44788   3.978  21.091   1.991
73118ION    NA+44789  36.245   2.477   0.329
73119ION    NA+44790  26.197  21.086   0.836
73120ION    NA+44791  21.809  35.767  13.590
73121ION    NA+44792  19.710  40.368  14.777
73122ION    NA+44793  33.926  40.123   3.226
73123ION    NA+44794  29.626   9.408  13.525
73124ION    NA+44795  37.942   3.862   0.434
73125ION    NA+44796  11.900  26.154  13.377
73126ION    NA+44797  36.988  32.948  11.880
73127ION    NA+44798  22.403  31.465  11.623
73128ION    NA+44799  33.538   2.106   0.773
73129ION    NA+44800  33.536  12.077   1.728
73130ION    NA+44801   6.826  41.823   2.333
73131ION    NA+44802  18.902  22.157  14.014
73132ION    NA+44803  39.868  20.048  11.201
73133ION    NA+44804  30.842  37.994   2.343
73134ION    NA+44805  17.978  23.285   2.079
73135ION    NA+44806  41.898  38.774   2.179
73136ION    NA+44807   3.200  25.108  11.596
73137ION    NA+44808  19.641  32.162   0.593
73138ION    NA+44809  33.173   3.867   0.055
73139ION    NA+44810   7.759  40.802   3.099
73140ION    NA+44811  31.231  42.505  10.700
73141ION    NA+44812  23.041  36.785   2.836
73142ION    NA+44813  11.390   1.308  10.862
73143ION    NA+44814  43.461  30.406   3.693
73144ION    NA+44815  14.952  28.694  13.645
73145ION    NA+44816   2.737  22.043  13.461
73146ION    NA+44817  40.212  29.181  14.253
73147ION    NA+44818   5.970  22.689   4.669
73148ION    NA+44819  12.641  11.719   3.677
73149ION    NA+44820  26.741  27.417   2.498
73150ION    NA+44821  20.738  28.670   3.609
73151ION    NA+44822  39.596  11.107   4.179
73152ION    NA+44823  34.115  21.083  10.246
73153ION    NA+44824  14.366  13.029   4.649
73154ION    NA+44825   8.673  10.558   1.758
73155ION    NA+44826  18.490  42.814  12.064
73156ION    NA+44827  14.482  23.402  11.069
73157ION    NA+44828   4.579   6.941   2.360
73158ION    NA+44829  24.734  18.809   1.313
73159ION    NA+44830  16.773  24.255   1.161
73160ION    NA+44831  44.987  23.087   0.969
73161ION    NA+44832  18.669  32.865   0.870
73162ION    NA+44833  43.106  13.389  11.543
73163ION    NA+44834  32.248   6.763   3.047
73164ION    NA+44835  42.954   8.897  14.479
73165ION    NA+44836  22.252  11.324   4.338
73166ION    NA+44837  20.336  10.563  12.227
73167ION    NA+44838  40.136  14.367  10.878
73168ION    NA+44839  22.254  34.037  13.354
73169ION    NA+44840  13.201  20.395   3.779
73170ION    NA+44841  25.893  30.587   0.274
73171ION    NA+44842  19.553  37.938   3.686
73172ION    NA+44843  18.095  41.560   2.099
73173ION    NA+44844  17.361  18.647   0.245
73174ION    NA+44845  23.359  44.272   0.432
73175ION    NA+44846  38.436  35.480   2.664
73176ION    NA+44847  24.921  19.808   3.233
73177ION    NA+44848  36.960  23.261   1.360
73178ION    NA+44849  19.771  19.715   0.929
73179ION    NA+44850  32.417  37.278   1.948
73180ION    NA+44851  28.394  12.992   3.202
73181ION    NA+44852  43.832   1.062   4.089
73182ION    NA+44853  31.770  40.113   3.424
73183ION    NA+44854  18.487   0.058   2.647
73184ION    NA+44855   1.299  41.820   0.368
73185ION    NA+44856  31.773   3.156   0.854
73186ION    NA+44857  10.627   6.718   5.208
73187ION    NA+44858  39.954  10.773  10.951
73188ION    NA+44859  20.364   6.500  11.034
73189ION    NA+44860  23.104   5.095   4.058
73190ION    NA+44861  18.801  15.801  12.408
73191ION    NA+44862   6.806  23.492   1.897
73192ION    NA+44863  12.090  41.319  14.061
73193ION    NA+44864   7.824   7.537  12.400
73194ION    NA+44865  43.439  32.172   1.458
73195ION    NA+44866  24.169   9.123   2.869
73196ION    NA+44867  17.232  26.246   3.797
73197ION    NA+44868  27.742  25.133   2.899
73198ION    NA+44869  27.405  33.152   2.720
73199ION    NA+44870  44.361  40.050  14.770
73200ION    NA+44871  44.478  14.687   9.525
73201ION    NA+44872  41.957  36.163   0.016
73202ION    NA+44873   8.287   6.212   1.273
73203ION    NA+44874  21.965  34.918   2.674
73204ION    NA+44875   6.651  33.464   2.925
73205ION    NA+44876  26.734  16.997   3.640
73206ION    NA+44877  20.519  29.919  13.982
73207ION    NA+44878   5.171   9.761   4.367
73208ION    NA+44879   3.633  38.533  13.087
73209ION    NA+44880  20.518  13.055  11.673
73210ION    NA+44881  28.521  12.317  10.598
73211ION    NA+44882  26.006  17.594  10.638
73212ION    NA+44883  20.651  10.286   4.366
73213ION    NA+44884  31.195  26.978   2.816
73214ION    NA+44885  33.976   9.084  12.561
73215ION    NA+44886   3.071  18.970  10.780
73216ION    NA+44887  24.598  31.988   5.274
73217ION    NA+44888  16.082   3.023  13.517
73218ION    NA+44889  13.721  12.801  10.768
73219ION    NA+44890  28.105  34.289  12.102
73220ION    NA+44891  28.651  36.033   1.016
73221ION    NA+44892  27.487   9.332   4.387
73222ION    NA+44893  22.052  28.388   3.078
73223ION    NA+44894  28.143  17.538  11.906
73224ION    NA+44895   9.731  33.477  12.091
73225ION    NA+44896   6.315  40.481  14.110
73226ION    NA+44897  19.830  37.176   2.831
73227ION    NA+44898  44.152   6.911   4.018
73228ION    NA+44899  27.115  38.445  12.988
73229ION    NA+44900  34.196  17.371  11.641
73230ION    NA+44901  19.102  25.396   1.921
73231ION    NA+44902  36.886  25.902  14.517
73232ION    NA+44903   6.464  30.935  14.429
73233ION    NA+44904  16.981   7.264  14.413
73234ION    NA+44905  27.669  12.087  13.549
73235ION    NA+44906  37.689  38.499   3.074
73236ION    NA+44907   5.223  17.808   1.362
73237ION    NA+44908  32.495  19.468  14.509
73238ION    NA+44909  38.866  22.854   0.915
73239ION    NA+44910  15.187  40.851   0.352
73240ION    NA+44911  37.053  28.761   1.665
73241ION    NA+44912  23.463  40.422  14.001
73242ION    NA+44913   5.932  29.719  13.195
73243ION    NA+44914  21.935   7.738  14.406
73244ION    NA+44915  29.620   4.249  11.293
73245ION    NA+44916  36.290  11.790  12.969
73246ION    NA+44917  40.562  38.265  13.508
73247ION    NA+44918  28.644  26.496  14.126
73248ION    NA+44919  35.460  29.998   2.759
73249ION    NA+44920   9.399  11.099   1.283
73250ION    NA+44921  36.015  38.393  11.834
73251ION    NA+44922   1.153  13.998   4.405
73252ION    NA+44923   5.326  33.256   2.528
73253ION    NA+44924   5.513  31.109  13.345
73254ION    NA+44925  29.900  38.120  12.102
73255ION    NA+44926  26.552  43.189   4.950
73256ION    NA+44927  39.262  17.764  11.858
73257ION    NA+44928  14.710  29.507   3.213
73258ION    NA+44929  36.871  24.779  10.915
73259ION    NA+44930  21.210   3.204  14.854
73260ION    NA+44931   9.726  40.848  11.861
73261ION    NA+44932  36.558   9.621  11.376
73262ION    NA+44933  24.262  12.436   0.144
73263ION    NA+44934  35.021   0.015   1.320
73264ION    NA+44935   1.846   1.191   0.569
73265ION    NA+44936  20.294  31.500  11.249
73266ION    NA+44937  27.614  13.202   2.141
73267ION    NA+44938   4.283   4.097   2.233
73268ION    NA+44939  26.163  27.993   3.953
73269ION    NA+44940  24.874  33.527   3.918
73270ION    NA+44941  40.423  27.430  12.653
73271ION    NA+44942  33.478  39.062  10.098
73272ION    NA+44943  21.410   2.194  14.619
73273ION    NA+44944  26.477   7.111   4.151
73274ION    NA+44945  40.432  30.144  11.156
73275ION    NA+44946  15.779  20.972   3.007
73276ION    NA+44947  40.862   7.338   4.567
73277ION    NA+44948  12.521  37.487   0.150
73278ION    NA+44949  40.423  41.774   4.176
73279ION    NA+44950  11.207  42.342   2.440
73280ION    NA+44951  36.723   7.498   2.935
73281ION    NA+44952  21.748  28.478  13.011
73282ION    NA+44953  42.649  12.314  13.268
73283ION    NA+44954  15.103  32.878   0.362
73284ION    NA+44955  40.618   5.902  13.838
73285ION    NA+44956  26.546  11.439   0.720
73286ION    NA+44957  19.319  40.772  12.121
73287ION    NA+44958  37.728  43.507  14.907
73288ION    NA+44959   7.071  37.608  14.467
73289ION    NA+44960  18.796   4.817  13.004
73290ION    NA+44961  26.506  38.966  11.628
73291ION    NA+44962   5.487  44.705   0.205
73292ION    NA+44963  34.805   8.678  12.945
73293ION    NA+44964  17.603  18.675  11.179
73294ION    NA+44965  15.191  23.470  12.893
73295ION    NA+44966  11.670   7.851  10.130
73296ION    NA+44967  34.107  24.682  13.475
73297ION    NA+44968  28.887  30.375   1.250
73298ION    NA+44969  20.566  23.071   0.379
73299ION    NA+44970  19.547  44.199   1.847
73300ION    NA+44971  26.805   5.285   4.546
73301ION    NA+44972  42.388   8.878  11.579
73302ION    NA+44973  28.064  24.606  12.739
73303ION    NA+44974  23.666  18.503  13.145
73304ION    NA+44975  30.567  27.973   4.487
73305ION    NA+44976  41.787   4.589  13.412
73306ION    NA+44977  16.582  32.518  11.191
73307ION    NA+44978  29.086  10.081   1.006
73308ION    NA+44979  42.338  26.181   0.281
73309ION    NA+44980  17.760  21.344  11.174
73310ION    NA+44981  11.247   0.160   2.653
73311ION    NA+44982  37.509  10.063   4.309
73312ION    NA+44983   2.446  23.224  11.658
73313ION    NA+44984  22.764  23.106  11.446
73314ION    NA+44985   6.349  40.498   0.488
73315ION    NA+44986  13.370  23.123   4.497
73316ION    NA+44987  23.208  27.963   4.480
73317ION    NA+44988   1.997   2.057  13.296
73318ION    NA+44989  31.657  30.664   2.405
73319ION    NA+44990   8.312   9.264   0.367
73320ION    NA+44991  15.467  19.241   1.805
73321ION    NA+44992   5.479  37.412   2.772
73322ION    NA+44993  16.567  37.075   2.820
73323ION    NA+44994  37.354  12.013  12.596
73324ION    NA+44995   4.076  32.328  12.907
73325ION    NA+44996  44.409   0.261   2.317
73326ION    NA+44997  29.463  28.328   3.699
73327ION    NA+44998  16.035   1.995   2.172
73328ION    NA+44999  44.898   4.401   0.391
73329ION    NA+45000  43.572  42.531  14.878
73330ION    NA+45001  22.978  26.404   2.079
73331ION    NA+45002  37.035   1.815  12.066
73332ION    NA+45003   4.745  35.024  12.434
73333ION    NA+45004  18.002  33.107   1.785
73334ION    NA+45005   3.070  19.119  12.206
73335ION    NA+45006   5.942   4.040  14.464
73336ION    NA+45007   8.172  18.307   1.397
73337ION    NA+45008   8.732   3.230   4.616
73338ION    NA+45009  34.379  21.488  12.237
73339ION    NA+45010  15.877   8.894   5.064
73340ION    NA+45011  29.706  18.464   0.939
73341ION    NA+45012  25.024  16.228   1.676
73342ION    NA+45013  24.282   3.213  14.816
73343ION    NA+45014   0.136  42.843   5.238
73344ION    NA+45015  23.372   2.739   1.292
73345ION    NA+45016  13.070  23.584   0.418
73346ION    NA+45017  16.797   5.438  10.175
73347ION    NA+45018   0.282  38.384   1.175
73348ION    NA+45019  16.582  33.423   2.710
73349ION    NA+45020   8.574  19.482  11.506
73350ION    NA+45021  18.709   5.203   3.631
73351ION    NA+45022  20.361   0.548   1.206
73352ION    NA+45023  31.108  18.978  14.984
73353ION    NA+45024  39.640  36.042  13.912
73354ION    NA+45025   5.550  42.847   0.118
73355ION    NA+45026  36.411  24.600  14.405
73356ION    NA+45027  13.596  37.132  11.966
73357ION    NA+45028  41.947  18.076  13.304
73358ION    NA+45029  10.056  22.236  10.750
73359ION    NA+45030   6.154   1.260   0.245
73360ION    NA+45031  25.035   0.226   2.333
73361ION    NA+45032  12.403  27.960  10.771
73362ION    NA+45033  37.624  20.724  12.182
73363ION    NA+45034  12.782  10.819  11.960
73364ION    NA+45035  23.954  36.858   3.856
73365ION    NA+45036  36.756  39.241   3.824
73366ION    NA+45037  16.503  36.281   1.483
73367ION    NA+45038  31.905   4.595  12.835
73368ION    NA+45039  18.829  14.540  11.982
73369ION    NA+45040  31.373   0.329   3.738
73370ION    NA+45041  27.309  22.539  12.257
73371ION    NA+45042  35.511  40.742   0.676
73372ION    NA+45043  28.715  37.468   1.636
73373ION    NA+45044  34.778  36.083  13.250
73374ION    NA+45045   8.665   7.776  12.562
73375ION    NA+45046  29.368  40.370   0.792
73376ION    NA+45047  40.170  27.923   3.473
73377ION    NA+45048  23.836  41.512   4.288
73378ION    NA+45049  11.033  43.771  12.617
73379ION    NA+45050   1.032  29.068  13.907
73380ION    NA+45051  20.748  13.916  13.512
73381ION    NA+45052  15.866   3.486   3.721
73382ION    NA+45053  18.905  22.666   3.614
73383ION    NA+45054  35.258   4.343   2.833
73384ION    NA+45055  33.775  21.910   4.448
73385ION    NA+45056  14.403   0.062  14.874
73386ION    NA+45057  25.546  19.026   3.505
73387ION    NA+45058  35.933   6.265  13.333
73388ION    NA+45059   8.820  12.937  14.914
73389ION    NA+45060   3.370  11.358  14.929
73390ION    NA+45061  37.157  17.553   1.900
73391ION    NA+45062  21.035  40.882   1.944
73392ION    NA+45063  39.033  24.910  12.220
73393ION    NA+45064   6.677   3.357  12.296
73394ION    NA+45065   5.816   8.746   1.329
73395ION    NA+45066   9.526   1.133  11.130
73396ION    NA+45067  10.743  36.797  11.500
73397ION    NA+45068   4.374  30.852   4.394
73398ION    NA+45069   1.274  42.068   3.118
73399ION    NA+45070  14.242  35.076   2.091
73400ION    NA+45071  43.891   0.889   2.430
73401ION    NA+45072   1.857  40.505  12.428
73402ION    NA+45073  15.877  32.101   2.193
73403ION    NA+45074  25.428  24.052  11.188
73404ION    NA+45075  34.541  30.194   4.793
73405ION    NA+45076  22.730  41.465   0.221
73406ION    NA+45077  20.277  19.106   0.223
73407ION    NA+45078   5.217   2.370  14.833
73408ION    NA+45079  22.673  38.420  13.603
73409ION    NA+45080  21.050   1.037  14.884
73410ION    NA+45081  40.315  33.697  10.780
73411ION    NA+45082  20.747  22.281   2.654
73412ION    NA+45083  37.876  39.631  10.079
73413ION    NA+45084  19.614  21.521  12.453
73414ION    NA+45085  13.128  30.688  13.942
73415ION    NA+45086  26.082  32.405   0.721
73416ION    NA+45087  44.303  38.845   3.523
73417ION    NA+45088  12.216   6.233   0.417
73418ION    NA+45089   4.809  37.538   3.658
73419ION    NA+45090  11.819  38.533   4.166
73420ION    NA+45091   0.464   9.618   0.751
73421ION    NA+45092  32.893   4.746  12.867
73422ION    NA+45093  30.986  36.971   2.898
73423ION    NA+45094  42.634  21.406   2.814
73424ION    NA+45095  36.714  37.862   4.910
73425ION    NA+45096  22.277  17.203   4.383
73426ION    NA+45097  40.992  36.369  14.132
73427ION    NA+45098  15.190  32.130   1.020
73428ION    NA+45099  11.724  13.467  13.306
73429ION    NA+45100  11.023   1.616   0.750
73430ION    NA+45101  26.680  10.740  12.805
73431ION    NA+45102  34.211  15.979   2.336
73432ION    NA+45103  13.154   6.399  12.646
73433ION    NA+45104  33.190  18.307   3.693
73434ION    NA+45105   0.079   6.807  11.307
73435ION    NA+45106  25.008  38.045  11.573
73436ION    NA+45107  25.414   5.240   4.589
73437ION    NA+45108  28.151   9.932   2.445
73438ION    NA+45109  21.177   3.520  14.042
73439ION    NA+45110  44.342  35.928   3.639
73440ION    NA+45111  42.565  39.294  10.821
73441ION    NA+45112  13.358  40.424  13.396
73442ION    NA+45113  28.195   7.641  10.324
73443ION    NA+45114  32.710  30.575   2.254
73444ION    NA+45115  19.131  18.193   1.803
73445ION    NA+45116   8.090  36.415  14.104
73446ION    NA+45117   4.611   6.732   4.631
73447ION    NA+45118   7.008  31.254   1.576
73448ION    NA+45119  16.472  43.823  13.318
73449ION    NA+45120  24.037  33.924  14.148
73450ION    NA+45121  44.975  32.256  14.657
73451ION    NA+45122  19.787   1.434   2.825
73452ION    NA+45123  11.300  31.430   1.223
73453ION    NA+45124  22.537  24.286   3.716
73454ION    NA+45125  15.977  30.123  13.082
73455ION    NA+45126  35.251  35.065   4.459
73456ION    NA+45127  34.424  22.310  13.376
73457ION    NA+45128  40.036  23.293  14.140
73458ION    NA+45129  33.440  23.000  13.726
73459ION    NA+45130  22.962   5.006  11.991
73460ION    NA+45131   7.769  10.406  13.827
73461ION    NA+45132  31.425  19.359  14.116
73462ION    NA+45133  14.156  10.218  11.664
73463ION    NA+45134   6.026  21.914   2.288
73464ION    NA+45135  12.581  42.744   0.039
73465ION    NA+45136  25.385  20.425   0.220
73466ION    NA+45137  11.924  33.716   9.866
73467ION    NA+45138  14.653  31.300  10.974
73468ION    NA+45139  43.550  27.252  11.171
73469ION    NA+45140  27.962  38.020   3.731
73470ION    NA+45141  43.700  44.921  11.730
73471ION    NA+45142  43.985  12.749   1.415
73472ION    NA+45143  34.407  12.009   2.929
73473ION    NA+45144   2.209  23.507   5.511
73474ION    NA+45145  41.856  39.739   2.441
73475ION    NA+45146   7.472  32.972  13.526
73476ION    NA+45147   5.921  23.669  11.618
73477ION    NA+45148  13.645  14.880   1.355
73478ION    NA+45149   6.092  39.108  14.476
73479ION    NA+45150  23.849  27.415   5.014
73480ION    NA+45151  23.162  25.286   2.771
73481ION    NA+45152  20.554  26.917   5.407
73482ION    NA+45153  18.055   9.318  14.465
73483ION    NA+45154   5.886  20.155   3.858
73484ION    NA+45155   1.921  25.497  13.131
73485ION    NA+45156   8.616  36.973  13.580
73486ION    NA+45157  41.770  28.993   3.755
73487ION    NA+45158  42.100  13.442  14.000
73488ION    NA+45159  17.496  21.282   3.212
73489ION    NA+45160  29.402  10.196  14.802
73490ION    NA+45161  15.081  43.028   0.549
73491ION    NA+45162  37.874  40.353  12.863
73492ION    NA+45163  18.689  30.039   4.139
73493ION    NA+45164   6.719  29.404   1.023
73494ION    NA+45165  17.854  44.082  11.228
73495ION    NA+45166  41.071  32.526  12.055
73496ION    NA+45167   8.313  27.958  10.661
73497ION    NA+45168  44.296   3.218   0.648
73498ION    NA+45169  18.059  17.799  10.972
73499ION    NA+45170  30.649  19.047   3.127
73500ION    NA+45171  23.030  34.630  14.899
73501ION    NA+45172  18.570  21.800   1.190
73502ION    NA+45173  41.157  14.499  11.186
73503ION    NA+45174   3.470  14.303   0.670
73504ION    NA+45175  30.190  24.917   1.079
73505ION    NA+45176  41.838  13.327  11.960
73506ION    NA+45177  28.095  35.872  13.398
73507ION    NA+45178  11.007  39.872  12.315
73508ION    NA+45179  34.668  31.472   2.859
73509ION    NA+45180  21.993  42.954   4.576
73510ION    NA+45181  16.259   9.415   0.105
73511ION    NA+45182   7.406  39.327   0.512
73512ION    NA+45183  40.235  29.020   1.967
73513ION    NA+45184  16.967  29.995  13.013
73514ION    NA+45185  17.277  37.457  11.411
73515ION    NA+45186  38.266  28.235  11.045
73516ION    NA+45187  43.396   5.373  13.223
73517ION    NA+45188   6.376  41.252   1.647
73518ION    NA+45189  30.417  35.695   0.370
73519ION    NA+45190  15.886  13.407  14.859
73520ION    NA+45191  32.298  10.589  12.829
73521ION    NA+45192  41.356  15.976   2.957
73522ION    NA+45193  20.772  26.602  10.283
73523ION    NA+45194  31.323   8.396   5.121
73524ION    NA+45195   3.997   2.275   1.912
73525ION    NA+45196  43.285  43.631   4.602
73526ION    NA+45197  15.259  35.578  14.523
73527ION    NA+45198  35.602  43.528   4.540
73528ION    NA+45199  14.656  43.951   2.859
73529ION    NA+45200  32.975  13.406  12.904
73530ION    NA+45201  16.009  23.180   0.826
73531ION    NA+45202  21.345  15.049   3.122
73532ION    NA+45203  34.346  42.862  13.506
73533ION    NA+45204  36.346   2.093   2.159
73534ION    NA+45205  10.639  13.484  12.006
73535ION    NA+45206  30.739   9.474   2.773
73536ION    NA+45207   6.295   5.177   4.656
73537ION    NA+45208  16.707  22.465   0.772
73538ION    NA+45209  14.215  15.694  11.947
73539ION    NA+45210  25.150  37.673   2.711
73540ION    NA+45211  18.614   0.447   0.432
73541ION    NA+45212   5.748  44.504  11.584
73542ION    NA+45213  20.263  43.131   0.868
73543ION    NA+45214  14.592   4.781  11.192
73544ION    NA+45215  25.224  17.191   1.859
73545ION    NA+45216  20.377  36.504   2.962
73546ION    NA+45217  44.120  22.880   2.145
73547ION    NA+45218   1.512  11.564  14.837
73548ION    NA+45219  18.201  34.691  14.073
73549ION    NA+45220   3.702  34.999  12.191
73550ION    NA+45221  42.684  44.756  11.935
73551ION    NA+45222  14.910  37.848   0.472
73552ION    NA+45223  17.634  26.071   2.392
73553ION    NA+45224   1.712  12.194  11.359
73554ION    NA+45225  34.618  44.154   2.476
73555ION    NA+45226  24.643  19.164  10.899
73556ION    NA+45227   3.225   5.817  14.617
73557ION    NA+45228  11.048  33.947   0.425
73558ION    NA+45229   3.559  19.601   0.483
73559ION    NA+45230  42.683  21.197   9.848
73560ION    NA+45231   6.650  18.395   3.295
73561ION    NA+45232  15.825  42.443   0.825
73562ION    NA+45233  32.092  42.413   0.297
73563ION    NA+45234  11.657   1.839  10.035
73564ION    NA+45235  32.560  42.900   4.364
73565ION    NA+45236   3.363  42.514  12.737
73566ION    NA+45237  31.192  27.576   0.557
73567ION    NA+45238  27.453   5.053  12.115
73568ION    NA+45239  21.838  42.385  13.776
73569ION    NA+45240  33.597  33.500  13.404
73570ION    NA+45241   6.347  36.010  11.048
73571ION    NA+45242  28.495  26.382   0.487
73572ION    NA+45243  31.438  35.998   0.414
73573ION    NA+45244  24.646  21.258  11.931
73574ION    NA+45245  36.543  25.026   5.517
73575ION    NA+45246  30.916  35.144  11.355
73576ION    NA+45247  10.307  16.099   1.116
73577ION    NA+45248  35.260   5.802  11.674
73578ION    NA+45249  31.197  13.898  14.940
73579ION    NA+45250  39.496  12.979   0.214
73580ION    NA+45251  38.386  14.510   3.710
73581ION    NA+45252  37.358   9.925  12.610
73582ION    NA+45253  39.851   4.709   0.782
73583ION    NA+45254   9.767  22.238  14.860
73584ION    NA+45255  19.790  42.370  10.689
73585ION    NA+45256  14.069  34.705  13.101
73586ION    NA+45257   9.678  28.907   3.869
73587ION    NA+45258  13.051  36.210   1.678
73588ION    NA+45259  30.771  21.692  11.923
73589ION    NA+45260  35.599  31.137  13.848
73590ION    NA+45261  11.604  20.045  12.881
73591ION    NA+45262  30.773  23.170   1.792
73592ION    NA+45263  18.790   2.206   1.799
73593ION    NA+45264  18.652  41.513  12.046
73594ION    NA+45265  17.606  22.393   1.275
73595ION    NA+45266  39.598  38.964  14.471
73596ION    NA+45267   8.560  14.180  13.078
73597ION    NA+45268  16.809   5.674  13.938
73598ION    NA+45269  20.315  25.602  12.578
73599ION    NA+45270  16.639   9.301  10.485
73600ION    NA+45271  38.538  26.369   2.043
73601ION    NA+45272  17.431  17.557  12.719
73602ION    NA+45273   1.279  26.631  13.660
73603ION    NA+45274   4.330  42.425   2.142
73604ION    NA+45275   8.523   2.491   5.475
73605ION    NA+45276   6.662  34.095  12.535
73606ION    NA+45277  33.220  20.502   2.112
73607ION    NA+45278  30.144  25.877   4.215
73608ION    NA+45279  34.087   1.483   1.330
73609ION    NA+45280  33.412  36.795  10.697
73610ION    NA+45281  15.300  11.278   4.430
73611ION    NA+45282  35.745  34.586   1.999
73612ION    NA+45283   2.566  31.065   1.277
73613ION    NA+45284  34.602  34.063   5.052
73614ION    NA+45285  19.607  20.554   1.997
73615ION    NA+45286   7.699   0.649   2.773
73616ION    NA+45287   7.233  28.494   2.767
73617ION    NA+45288  27.171  36.548  13.873
73618ION    NA+45289  27.429   0.600  10.834
73619ION    NA+45290  25.457  27.619   4.379
73620ION    NA+45291  29.003  32.689   4.033
73621ION    NA+45292  33.883  28.748  11.028
73622ION    NA+45293  14.753  14.638   1.740
73623ION    NA+45294   8.198  18.771   5.005
73624ION    NA+45295   3.757  13.227  11.172
73625ION    NA+45296  10.435  26.197   3.026
73626ION    NA+45297  15.567  25.189   0.924
73627ION    NA+45298   2.170  27.081   1.417
73628ION    NA+45299   2.050  28.603   2.490
73629ION    NA+45300  33.661  22.997  14.701
73630ION    NA+45301  13.924  13.826  12.116
73631ION    NA+45302  44.506  23.302   4.688
73632ION    NA+45303   0.598  16.687  12.078
73633ION    NA+45304  39.578  34.341  14.369
73634ION    NA+45305  28.743   8.618  10.207
73635ION    NA+45306  24.426   8.211   1.327
73636ION    NA+45307   7.553  21.853  14.195
73637ION    NA+45308  17.523  20.983   4.669
73638ION    NA+45309  40.927  33.109   3.487
73639ION    NA+45310  11.284   3.058   4.782
73640ION    NA+45311  41.049  43.580   0.261
73641ION    NA+45312  14.335  23.703  12.377
73642ION    NA+45313  42.423  22.975   2.250
73643ION    NA+45314  21.734  15.560  10.606
73644ION    NA+45315  31.888  26.398   3.269
73645ION    NA+45316  36.976   4.242  12.986
73646ION    NA+45317   3.926  37.603  11.445
73647ION    NA+45318  35.870  32.515   3.280
73648ION    NA+45319   0.477  30.944  14.002
73649ION    NA+45320  24.507  23.560  12.705
73650ION    NA+45321   6.958  30.351  14.099
73651ION    NA+45322  21.303   1.420  13.994
73652ION    NA+45323  34.607  44.383   4.078
73653ION    NA+45324  37.475  34.502  13.219
73654ION    NA+45325  31.653  24.797   2.595
73655ION    NA+45326  26.248  11.630   4.969
73656ION    NA+45327  14.821  32.602  13.088
73657ION    NA+45328  42.339  31.838  12.037
73658ION    NA+45329  23.154  23.873   1.741
73659ION    NA+45330  26.999  32.618   4.596
73660ION    NA+45331  40.361  14.140  13.999
73661ION    NA+45332  34.600  32.462  12.499
73662ION    NA+45333  40.472  24.753  13.359
73663ION    NA+45334  23.780  22.634  11.662
73664ION    NA+45335  37.442  38.802  10.052
73665ION    NA+45336  27.945   9.207  12.074
73666ION    NA+45337   8.652  33.536   0.890
73667ION    NA+45338  27.197  29.986  12.244
73668ION    NA+45339   2.927  28.187  12.749
73669ION    NA+45340  13.412  10.931  11.344
73670ION    NA+45341   7.839  24.106   1.781
73671ION    NA+45342  29.142  15.419   2.901
73672ION    NA+45343  24.694  36.641  13.456
73673ION    NA+45344  35.008  22.504  14.164
73674ION    NA+45345  22.198   6.282  14.306
73675ION    NA+45346  10.559  44.105  14.613
73676ION    NA+45347  40.033  41.512  14.298
73677ION    NA+45348  18.791   3.896   3.608
73678ION    NA+45349  18.379   3.399   2.686
73679ION    NA+45350  14.036  38.056  13.796
73680ION    NA+45351  25.730  32.878  11.427
73681ION    NA+45352  27.854  27.226   0.332
73682ION    NA+45353  19.703  30.104  13.183
73683ION    NA+45354   7.825  25.456  13.960
73684ION    NA+45355  24.577  26.120   1.814
73685ION    NA+45356  14.233  20.285  12.101
73686ION    NA+45357  18.915  25.317   0.199
73687ION    NA+45358  38.827  38.476  11.522
73688ION    NA+45359  29.873  20.067   2.700
73689ION    NA+45360  42.813  12.150  11.974
73690ION    NA+45361  24.100  18.799   1.200
73691ION    NA+45362  21.071   2.390   1.641
73692ION    NA+45363  16.511  22.162  13.523
73693ION    NA+45364  27.275  36.221   2.767
73694ION    NA+45365  11.105  19.871   1.385
73695ION    NA+45366   3.485   8.715  12.011
73696ION    NA+45367   3.957  29.375   1.270
73697ION    NA+45368  24.939  10.856   2.289
73698ION    NA+45369  16.773  38.801  14.822
73699ION    NA+45370  12.999  13.681  11.763
73700ION    NA+45371   1.317  36.863   2.345
73701ION    NA+45372  39.900  30.182  10.423
73702ION    NA+45373  30.694   4.253   2.551
73703ION    NA+45374   6.181  31.131   2.875
73704ION    NA+45375  43.427  18.889   2.148
73705ION    NA+45376   1.817  20.247   4.167
73706ION    NA+45377   2.671   6.897  11.198
73707ION    NA+45378  21.668  43.159   3.775
73708ION    NA+45379  21.866  44.238   0.356
73709ION    NA+45380  42.536   4.348   1.958
73710ION    NA+45381   4.850  38.930  13.173
73711ION    NA+45382  14.599   8.372   3.631
73712ION    NA+45383  20.520  33.068   2.244
73713ION    NA+45384  13.095   7.344  12.107
73714ION    NA+45385  38.009  14.587   5.399
73715ION    NA+45386  30.915  23.690   2.893
73716ION    NA+45387  31.491  21.143  12.472
73717ION    NA+45388  37.249   1.716   0.224
73718ION    NA+45389  20.639   0.500   2.473
73719ION    NA+45390  23.132  15.783  14.917
73720ION    NA+45391  10.967  26.642  14.274
73721ION    NA+45392  44.465  30.223  10.974
73722ION    NA+45393   9.774  13.551   3.523
73723ION    NA+45394  38.353  33.515  12.837
73724ION    NA+45395  15.557   2.636   3.872
73725ION    NA+45396  23.174  41.004   5.582
73726ION    NA+45397   6.300  38.859  12.390
73727ION    NA+45398  32.315  33.919  13.415
73728ION    NA+45399  33.190  20.902   4.798
73729ION    NA+45400  18.538  27.708   0.504
73730ION    NA+45401  40.510  28.504   1.124
73731ION    NA+45402  17.977   9.117   3.824
73732ION    NA+45403  37.050  25.193   2.959
73733ION    NA+45404  15.132  24.051  11.524
73734ION    NA+45405  40.903  25.680  11.552
73735ION    NA+45406   8.774   4.608  13.899
73736ION    NA+45407  16.013  22.308   3.329
73737ION    NA+45408  13.575   0.275   3.735
73738ION    NA+45409  39.163  25.841   2.821
73739ION    NA+45410  44.245  33.902  11.289
73740ION    NA+45411  17.361  37.902   1.679
73741ION    NA+45412   9.664  34.909   4.638
73742ION    NA+45413  30.423  40.224   4.333
73743ION    NA+45414   2.042   9.808  11.008
73744ION    NA+45415  31.441  10.409   0.059
73745ION    NA+45416   1.897   9.288  12.382
73746ION    NA+45417  35.941  18.719  11.411
73747ION    NA+45418  23.195  20.072  12.741
73748ION    NA+45419  10.314  25.630  10.962
73749ION    NA+45420  25.715  38.371   0.888
73750ION    NA+45421  25.727  40.762  12.522
73751ION    NA+45422  36.128  21.064   4.620
73752ION    NA+45423   0.811  15.674  11.167
73753ION    NA+45424   3.927  26.793   1.368
73754ION    NA+45425   8.199  31.574  14.971
73755ION    NA+45426   8.921   2.123   4.769
73756ION    NA+45427  38.431  17.138  11.585
73757ION    NA+45428   0.775  16.850   1.679
73758ION    NA+45429  16.808  18.540   2.385
73759ION    NA+45430  26.181  25.092  12.108
73760ION    NA+45431  31.843  30.914  11.563
73761ION    NA+45432  35.660  11.038   3.479
73762ION    NA+45433  15.756  28.909   3.941
73763ION    NA+45434  25.092  15.212   2.266
73764ION    NA+45435   7.533  25.796   0.242
73765ION    NA+45436   4.241  23.818  10.725
73766ION    NA+45437  41.200   2.606   3.092
73767ION    NA+45438   0.826  14.880  14.409
73768ION    NA+45439   2.503  42.506  13.537
73769ION    NA+45440  23.949  25.750  12.861
73770ION    NA+45441  16.866  41.919  12.378
73771ION    NA+45442  30.862  42.581   1.422
73772ION    NA+45443  36.528  18.505   0.681
73773ION    NA+45444  11.920  26.502  14.757
73774ION    NA+45445  41.674  11.612   4.998
73775ION    NA+45446   0.808  15.003  10.424
73776ION    NA+45447  34.434  25.255   0.558
73777ION    NA+45448  19.285  30.060   3.336
73778ION    NA+45449   6.317  34.121   1.037
73779ION    NA+45450  43.374  14.816  11.279
73780ION    NA+45451  17.789  29.937   3.715
73781ION    NA+45452   6.844  25.488   4.883
73782ION    NA+45453   0.598  17.865  13.773
73783ION    NA+45454   5.944  28.968  11.691
73784ION    NA+45455  13.427  43.177   0.911
73785ION    NA+45456  40.477  41.349   1.305
73786ION    NA+45457  25.204  13.299   2.662
73787ION    NA+45458  11.809  27.086   2.957
73788ION    NA+45459  41.564  18.849  11.685
73789ION    NA+45460  35.483  11.426  11.496
73790ION    NA+45461  24.698  43.900   0.170
73791ION    NA+45462  22.692  37.619   2.841
73792ION    NA+45463   8.234  44.926   3.209
73793ION    NA+45464  28.164  35.135   0.258
73794ION    NA+45465  20.105   8.376   2.594
73795ION    NA+45466  26.010  36.613  13.284
73796ION    NA+45467  40.709   0.954  14.730
73797ION    NA+45468  18.282  21.899   3.243
73798ION    NA+45469  44.179  20.503   5.623
73799ION    NA+45470  22.604  33.410  11.137
73800ION    NA+45471  12.078  41.217   2.462
73801ION    NA+45472  27.353  37.520   5.529
73802ION    NA+45473  28.235  38.050   2.395
73803ION    NA+45474  20.295   9.597  11.971
73804ION    NA+45475   2.112   2.808  11.367
73805ION    NA+45476  36.696  18.649   2.583
73806ION    NA+45477  11.636   6.586   3.304
73807ION    NA+45478  22.007  31.494  12.556
73808ION    NA+45479  38.965  13.277   3.231
73809ION    NA+45480  43.165  19.685  10.077
73810ION    NA+45481  38.549  42.704   5.353
73811ION    NA+45482  25.997  39.928  13.975
73812ION    NA+45483  30.098  42.984   1.401
73813ION    NA+45484  16.995  22.194   3.175
73814ION    NA+45485  35.570  19.296  13.969
73815ION    NA+45486   7.156  33.487  12.119
73816ION    NA+45487  17.304  19.462   4.732
73817ION    NA+45488  34.121   7.234  12.443
73818ION    NA+45489  17.735  14.062  13.968
73819ION    NA+45490   9.782  40.353  10.282
73820ION    NA+45491  31.445   4.833   0.360
73821ION    NA+45492  37.835  12.641  12.150
73822ION    NA+45493  40.746  36.575   1.333
73823ION    NA+45494   0.039   0.033  14.962
73824ION    NA+45495  40.715  33.118   4.367
73825ION    NA+45496  30.226  39.807  11.171
73826ION    NA+45497  13.564  19.748  12.615
73827ION    NA+45498  41.773  26.472   4.190
73828ION    NA+45499  33.571   9.954  12.280
73829ION    NA+45500  14.353   6.554  13.446
73830ION    NA+45501  41.528  36.503   1.952
73831ION    NA+45502  19.548  13.907   3.335
73832ION    NA+45503  22.344  24.285  10.620
73833ION    NA+45504  22.927  13.362   4.288
73834ION    NA+45505  11.036  17.585   2.779
73835ION    NA+45506  34.626   4.724  13.390
73836ION    NA+45507   0.256  42.546   0.726
73837ION    NA+45508  41.244  44.196  10.953
73838ION    NA+45509   4.039   4.660   3.135
73839ION    NA+45510   9.811  25.672   1.379
73840ION    NA+45511   6.392  32.179  14.980
73841ION    NA+45512  40.629   3.073  14.462
73842ION    NA+45513   9.079  38.393  13.986
73843ION    NA+45514  38.544  16.669  12.461
73844ION    NA+45515  38.541  21.243  14.110
73845ION    NA+45516  18.047  32.351  13.527
73846ION    NA+45517  34.614  37.555  14.196
73847ION    NA+45518  38.946  20.004   1.200
73848ION    NA+45519  22.093  37.787   9.733
73849ION    NA+45520  39.111  13.760  12.547
73850ION    NA+45521  22.638  34.977   0.755
73851ION    NA+45522  21.409  18.895  13.603
73852ION    NA+45523  18.416  42.192   2.090
73853ION    NA+45524  44.898   0.963  14.775
73854ION    NA+45525  35.958  42.708   2.405
73855ION    NA+45526  40.364   7.675  11.201
73856ION    NA+45527  26.301  23.187  11.958
73857ION    NA+45528   0.177  13.273   2.984
73858ION    NA+45529  43.031  17.034   0.651
73859ION    NA+45530   6.699  33.002  12.892
73860ION    NA+45531   5.228   8.373  12.688
73861ION    NA+45532   7.882  12.827   1.363
73862ION    NA+45533  44.767  14.564   0.008
73863ION    NA+45534   9.120  40.705  11.078
73864ION    NA+45535  28.480  42.580   3.588
73865ION    NA+45536   2.529  36.541  11.892
73866ION    NA+45537  32.091   7.585   2.640
73867ION    NA+45538  21.480  37.938   4.097
73868ION    NA+45539  27.383  15.363  13.300
73869ION    NA+45540  38.566  18.264  10.686
73870ION    NA+45541  20.340  14.566  12.327
73871ION    NA+45542  17.552  13.675   3.096
73872ION    NA+45543  12.437  15.979  12.741
73873ION    NA+45544  31.899  37.020  12.547
73874ION    NA+45545  21.418  30.230   1.780
73875ION    NA+45546   8.440  10.268   3.171
73876ION    NA+45547  27.786  21.638   3.340
73877ION    NA+45548  26.376  25.813   0.512
73878ION    NA+45549   2.313  10.961  11.970
73879ION    NA+45550  17.264  27.065  14.850
73880ION    NA+45551   5.166  43.884   0.735
73881ION    NA+45552  44.038   3.719  13.381
73882ION    NA+45553  20.261  40.041   5.460
73883ION    NA+45554  42.727  18.005  12.078
73884ION    NA+45555  13.118  17.274  10.175
73885ION    NA+45556  23.084  21.785  13.276
73886ION    NA+45557   5.185  26.687  13.929
73887ION    NA+45558  14.215  32.707   2.307
73888ION    NA+45559   2.222  13.585   1.336
73889ION    NA+45560   4.302  30.419   1.833
73890ION    NA+45561  31.579  34.127   1.156
73891ION    NA+45562  17.724  10.092  10.681
73892ION    NA+45563   7.983  13.944  12.296
73893ION    NA+45564  29.566   1.816   1.872
73894ION    NA+45565  36.811   0.247   3.146
73895ION    NA+45566  31.280   5.370   5.407
73896ION    NA+45567  32.474  27.111   2.885
73897ION    NA+45568  42.598  43.503  12.627
73898ION    NA+45569  24.907  24.840   4.578
73899ION    NA+45570   2.128  38.355   0.899
73900ION    NA+45571   5.652  16.279  12.139
73901ION    NA+45572  28.688  37.323  11.506
73902ION    NA+45573   3.060  38.668   0.716
73903ION    NA+45574  28.144   6.699   0.454
73904ION    NA+45575  35.314  16.743   3.643
73905ION    NA+45576  35.543  18.151   2.286
73906ION    NA+45577  35.311  42.772  11.429
73907ION    NA+45578  20.794   9.940   3.381
73908ION    NA+45579  41.978  35.995   3.184
73909ION    NA+45580  17.543   4.888   3.305
73910ION    NA+45581  43.673  35.066   2.390
73911ION    NA+45582  11.245  34.970  14.118
73912ION    NA+45583  29.177  17.665  12.973
73913ION    NA+45584  17.835   1.785  14.757
73914ION    NA+45585  13.830  42.255  12.800
73915ION    NA+45586  24.134  39.808   1.301
73916ION    NA+45587   6.117  24.126   0.910
73917ION    NA+45588  39.251  33.375  11.619
73918ION    NA+45589   3.159  21.337   4.378
73919ION    NA+45590  30.038  27.026   3.480
73920ION    NA+45591   0.830  28.270   0.020
73921ION    NA+45592  36.112  39.863  11.333
73922ION    NA+45593   5.501  38.352   0.596
73923ION    NA+45594  27.577  26.502   4.185
73924ION    NA+45595   8.414   4.693   3.724
73925ION    NA+45596  28.131  43.533   3.558
73926ION    NA+45597  11.442  20.134  14.389
73927ION    NA+45598  14.550   9.849  13.359
73928ION    NA+45599  32.634   4.125   3.790
73929ION    NA+45600  41.896  39.228   1.421
73930ION    NA+45601  38.516  20.677  13.285
73931ION    NA+45602  25.942  26.775  11.706
73932ION    NA+45603  26.553  31.786   1.230
73933ION    NA+45604  37.722  38.605   5.053
73934ION    NA+45605  26.360   5.383   0.896
73935ION    NA+45606  16.736  35.260  13.276
73936ION    NA+45607  44.118  38.206   0.862
73937ION    NA+45608   6.380  17.339   4.733
73938ION    NA+45609  44.146  30.708  13.010
73939ION    NA+45610   7.994  38.453  11.150
73940ION    NA+45611  17.621  17.771   3.812
73941ION    NA+45612   3.574  35.984   4.734
73942ION    NA+45613  30.895  11.136   2.264
73943ION    NA+45614   3.975  23.459  13.796
73944ION    NA+45615  40.623   4.585   1.436
73945ION    NA+45616  13.728   2.660   0.070
73946ION    NA+45617  28.903  33.137  10.418
73947ION    NA+45618   9.084  35.723   4.594
73948ION    NA+45619  41.921  15.096   0.870
73949ION    NA+45620  26.731  17.943   3.964
73950ION    NA+45621  42.445  33.505   0.839
73951ION    NA+45622  22.320  20.969  12.872
73952ION    NA+45623  12.274  29.067   2.772
73953ION    NA+45624  16.564   7.269   4.260
73954ION    NA+45625  21.306  25.765   4.767
73955ION    NA+45626  10.621  26.161   9.986
73956ION    NA+45627  27.746   1.075  11.455
73957ION    NA+45628  26.175  15.764  11.149
73958ION    NA+45629   1.009  13.491   5.102
73959ION    NA+45630   5.253  37.371  11.607
73960ION    NA+45631  16.559  38.481   4.480
73961ION    NA+45632  22.007  14.129  13.425
73962ION    NA+45633  21.723  33.114  11.555
73963ION    NA+45634  15.496   5.740  11.249
73964ION    NA+45635   5.185  13.733  14.496
73965ION    NA+45636  31.615   4.481   5.094
73966ION    NA+45637  40.433  35.149   2.009
73967ION    NA+45638  37.679  16.486  11.488
73968ION    NA+45639  29.150   1.376   3.220
73969ION    NA+45640  28.749  20.850   4.329
73970ION    NA+45641  10.143  39.055   5.157
73971ION    NA+45642  22.673  24.900  13.870
73972ION    NA+45643  41.334   8.602   1.034
73973ION    NA+45644  17.191   4.015   1.951
73974ION    NA+45645  35.103  23.936  10.849
73975ION    NA+45646  22.252  33.415  12.302
73976ION    NA+45647   3.785  35.582  14.013
73977ION    NA+45648  44.067  43.065   1.039
73978ION    NA+45649  10.575   6.712   3.219
73979ION    NA+45650  17.013  36.381  14.918
73980ION    NA+45651  30.213  31.115   3.377
73981ION    NA+45652  27.821  28.251   3.573
73982ION    NA+45653   0.584  27.501   1.938
73983ION    NA+45654  16.651   6.939  12.386
73984ION    NA+45655   2.457  38.412  12.572
73985ION    NA+45656  44.271  42.213   1.197
73986ION    NA+45657  26.376   5.216  14.757
73987ION    NA+45658  23.938  43.509   2.611
73988ION    NA+45659  12.942  41.296  13.134
73989ION    NA+45660  34.996  20.130   1.987
73990ION    NA+45661  28.088  40.082   2.220
73991ION    NA+45662  14.151  29.905  10.864
73992ION    NA+45663  33.340  17.567  12.146
73993ION    NA+45664  35.565   3.777  14.795
73994ION    NA+45665  15.882  33.845  11.600
73995ION    NA+45666  35.021   4.738   5.039
73996ION    NA+45667   6.131  23.458   2.679
73997ION    NA+45668   6.928  34.055   2.095
73998ION    NA+45669   5.846   0.813  13.904
73999ION    NA+45670  13.973  37.320   4.542
74000ION    NA+45671   6.570  22.793   3.283
74001ION    NA+45672  31.615  35.588  13.320
74002ION    NA+45673  38.941  14.995   2.939
74003ION    NA+45674  19.229  14.200  10.731
74004ION    NA+45675  40.464  20.501   2.369
74005ION    NA+45676  18.857  43.899   3.765
74006ION    NA+45677  13.317   0.371  13.102
74007ION    NA+45678  24.944  25.078  14.756
74008ION    NA+45679  19.196   1.338  14.244
74009ION    NA+45680  41.618  33.441  13.383
74010ION    NA+45681  20.865  44.747  11.976
74011ION    NA+45682  20.270  35.775  12.504
74012ION    NA+45683  17.120  41.752  13.334
74013ION    NA+45684  20.626  14.560  14.142
74014ION    NA+45685  43.720  10.504  12.812
74015ION    NA+45686   7.960  30.575   0.303
74016ION    NA+45687  25.417   9.631  14.271
74017ION    NA+45688  37.379  32.126   3.608
74018ION    NA+45689  32.808  15.236   1.779
74019ION    NA+45690  25.217  11.858   2.213
74020ION    NA+45691   1.424  23.112   5.084
74021ION    NA+45692  14.590   1.764   1.996
74022ION    NA+45693  16.939  10.253  12.646
74023ION    NA+45694   7.176  17.577   1.269
74024ION    NA+45695  43.507  42.797  12.490
74025ION    NA+45696   3.075  37.502   3.512
74026ION    NA+45697   7.516  11.003  13.171
74027ION    NA+45698  16.230  40.175   4.072
74028ION    NA+45699  26.588  16.103   0.420
74029ION    NA+45700  11.672  37.496   0.397
74030ION    NA+45701  28.560  14.661  11.277
74031ION    NA+45702  15.307  18.255  12.464
74032ION    NA+45703  32.550  10.433   2.673
74033ION    NA+45704  18.919  17.396  11.477
74034ION    NA+45705  17.549   7.746   2.349
74035ION    NA+45706  12.430  14.355  11.532
74036ION    NA+45707  18.169  16.975  11.629
74037ION    NA+45708  36.510   6.399  14.921
74038ION    NA+45709  31.353   3.185   4.561
74039ION    NA+45710   3.192  27.293  11.265
74040ION    NA+45711   4.991  42.022  12.374
74041ION    NA+45712  22.601  18.339  12.525
74042ION    NA+45713  35.865  36.295  11.984
74043ION    NA+45714  29.748   7.386   3.774
74044ION    NA+45715  11.806  39.403   2.385
74045ION    NA+45716  12.466   7.027   2.571
74046ION    NA+45717  26.394  10.948   1.579
74047ION    NA+45718  24.136   8.313  12.494
74048ION    NA+45719  23.467   1.739  12.709
74049ION    NA+45720  11.525   9.115  10.845
74050ION    NA+45721   1.293  12.106  13.343
74051ION    NA+45722  38.352  14.061  13.125
74052ION    NA+45723  44.337  43.046  10.426
74053ION    NA+45724  15.272  35.384  12.553
74054ION    NA+45725  23.923  16.082  14.827
74055ION    NA+45726  39.796  23.030   1.935
74056ION    NA+45727  42.068  41.322  13.885
74057ION    NA+45728  36.652   5.699  12.929
74058ION    NA+45729  21.239  16.638  13.562
74059ION    NA+45730  11.229  10.242  11.545
74060ION    NA+45731   4.333  22.155   4.227
74061ION    NA+45732  32.369  13.588   1.459
74062ION    NA+45733  41.951  43.813   1.251
74063ION    NA+45734  33.101  12.598  14.948
74064ION    NA+45735   7.695  35.413   1.665
74065ION    NA+45736  36.289   2.194  11.077
74066ION    NA+45737   1.099  38.335   1.436
74067ION    NA+45738  16.053  15.007  11.400
74068ION    NA+45739  37.459   7.913  14.023
74069ION    NA+45740  41.608  29.802  11.233
74070ION    NA+45741  43.253  22.579   0.867
74071ION    NA+45742   5.866  26.701   0.509
74072ION    NA+45743  27.541  27.670  10.719
74073ION    NA+45744   3.967   6.096  14.192
74074ION    NA+45745   8.199  22.665   0.127
74075ION    NA+45746  16.768  14.171   4.215
74076ION    NA+45747   9.923   9.394  11.673
74077ION    NA+45748   6.126  44.940   2.374
74078ION    NA+45749  26.717  32.515   3.642
74079ION    NA+45750  31.760  28.045   4.868
74080ION    NA+45751  40.637  40.534  14.562
74081ION    NA+45752  23.502  13.037   0.393
74082ION    NA+45753  28.506   1.951   2.716
74083ION    NA+45754  26.870  14.628  11.582
74084ION    NA+45755  33.824  26.023   0.757
74085ION    NA+45756   1.257   4.040  13.112
74086ION    NA+45757  24.289   0.114  13.173
74087ION    NA+45758  28.207  42.881  11.597
74088ION    NA+45759   4.173  25.094   0.444
74089ION    NA+45760  29.084  18.265   1.696
74090ION    NA+45761   3.273  36.316  14.149
74091ION    NA+45762   5.256   7.328   1.294
74092ION    NA+45763   2.881   4.165  14.774
74093ION    NA+45764  27.509   7.880   2.275
74094ION    NA+45765  15.460  23.815   2.218
74095ION    NA+45766  38.743  23.534  11.766
74096ION    NA+45767  24.533   7.063   4.642
74097ION    NA+45768  31.872  11.105   0.677
74098ION    NA+45769  14.514  44.540  13.532
74099ION    NA+45770  43.400  37.349   2.866
74100ION    NA+45771  43.438  18.607   0.585
74101ION    NA+45772  11.390   4.193  13.023
74102ION    NA+45773  14.240  42.524  11.685
74103ION    NA+45774  29.852  23.357   1.449
74104ION    NA+45775   8.998  44.735  14.042
74105ION    NA+45776   7.759  24.244  10.766
74106ION    NA+45777  12.362  32.642  11.856
74107ION    NA+45778  12.422  34.936  11.537
74108ION    NA+45779  20.484  12.895  10.267
74109ION    NA+45780   3.895  15.751   2.387
74110ION    NA+45781  42.250  38.889  13.210
74111ION    NA+45782  14.896   4.189  11.979
74112ION    NA+45783  24.636   5.853   0.500
74113ION    NA+45784  43.793  13.601   0.896
74114ION    NA+45785  28.746  35.307   2.677
74115ION    NA+45786  14.854  20.490   3.198
74116ION    NA+45787  27.558  23.181  11.452
74117ION    NA+45788  28.545   0.225  12.109
74118ION    NA+45789  15.028  42.215   0.265
74119ION    NA+45790  11.039   8.853   1.547
74120ION    NA+45791  10.908  44.970   4.682
74121ION    NA+45792  14.026   6.888   5.167
74122ION    NA+45793  43.268  10.530  12.003
74123ION    NA+45794   9.295  22.093   0.730
74124ION    NA+45795   2.914  28.570   0.562
74125ION    NA+45796  24.428  42.694   3.704
74126ION    NA+45797   7.537  28.569  10.501
74127ION    NA+45798  14.854  39.314  11.681
74128ION    NA+45799  35.705  35.104  11.941
74129ION    NA+45800  16.714  25.077   1.998
74130ION    NA+45801  40.587  37.070   4.500
74131ION    NA+45802  25.013  35.740   4.228
74132ION    NA+45803  15.437   9.492  12.767
74133ION    NA+45804   6.931  34.083   0.248
74134ION    NA+45805  30.568   4.429  11.555
74135ION    NA+45806   1.344  19.734  14.475
74136ION    NA+45807  44.771  19.013  11.549
74137ION    NA+45808  19.666  34.248  13.407
74138ION    NA+45809  37.538  23.196   4.038
74139ION    NA+45810   6.001  38.023  11.336
74140ION    NA+45811  37.846  27.351  13.577
74141ION    NA+45812  29.135  29.815   4.619
74142ION    NA+45813  18.229  17.996  13.607
74143ION    NA+45814  32.536  20.427  10.742
74144ION    NA+45815   1.395  29.606   4.857
74145ION    NA+45816  25.218   1.044   1.002
74146ION    NA+45817  31.960  25.377  14.677
74147ION    NA+45818  42.290  34.792  13.736
74148ION    NA+45819   3.485  10.968   2.374
74149ION    NA+45820  32.048   3.835   0.174
74150ION    NA+45821  21.259  41.113   2.952
74151ION    NA+45822  29.329   3.954   4.229
74152ION    NA+45823  38.094  26.332   3.946
74153ION    NA+45824  23.137  32.593  13.875
74154ION    NA+45825  28.075  31.278   2.559
74155ION    NA+45826  42.094  12.299   3.281
74156ION    NA+45827  30.025  26.549  13.544
74157ION    NA+45828  43.051  42.520  14.025
74158ION    NA+45829  13.143  31.950   2.759
74159ION    NA+45830   5.896  10.192  14.942
74160ION    NA+45831  24.716  36.104   0.332
74161ION    NA+45832  19.247  32.042  12.893
74162ION    NA+45833  32.561  21.487   2.816
74163ION    NA+45834   1.957  29.629   2.281
74164ION    NA+45835  26.241  11.485  13.730
74165ION    NA+45836   0.181  15.097   3.676
74166ION    NA+45837  29.144  11.453  10.882
74167ION    NA+45838  33.934  34.429  14.284
74168ION    NA+45839  35.509  33.202  11.431
74169ION    NA+45840  23.055  17.214   1.824
74170ION    NA+45841  36.090   6.890  10.874
74171ION    NA+45842  12.170  31.605  13.844
74172ION    NA+45843   9.471  41.371   4.187
74173ION    NA+45844  14.812  28.525   0.720
74174ION    NA+45845  35.616  32.135   0.819
74175ION    NA+45846   7.319  18.111  14.456
74176ION    NA+45847  15.209  17.686   1.283
74177ION    NA+45848  12.581  36.104  11.177
74178ION    NA+45849  11.161  41.643   1.468
74179ION    NA+45850  12.700  41.879   2.479
74180ION    NA+45851  17.641  12.851   4.885
74181ION    NA+45852  31.372  13.906   3.756
74182ION    NA+45853  32.961  24.093   1.427
74183ION    NA+45854  33.533  12.220  10.823
74184ION    NA+45855  23.471  36.763   1.017
74185ION    NA+45856  40.446   6.724  14.591
74186ION    NA+45857  35.211   6.158   3.590
74187ION    NA+45858  35.517  19.134  12.925
74188ION    NA+45859  34.458  10.605  10.691
74189ION    NA+45860  15.529   1.424   0.370
74190ION    NA+45861  38.723  18.104  14.881
74191ION    NA+45862  24.928  11.979   4.534
74192ION    NA+45863  37.303  37.686  12.548
74193ION    NA+45864  36.451   9.210   2.019
74194ION    NA+45865  14.178  34.144  12.421
74195ION    NA+45866  26.756  17.205   2.656
74196ION    NA+45867  13.345  41.834   1.252
74197ION    NA+45868   4.329   3.896  14.845
74198ION    NA+45869  42.562  21.631   3.786
74199ION    NA+45870  31.138  35.570  13.953
74200ION    NA+45871  36.580   0.194  13.586
74201ION    NA+45872  24.556  38.905  11.813
74202ION    NA+45873  15.371  35.876  10.050
74203ION    NA+45874  27.305  32.451   0.315
74204ION    NA+45875  26.288   6.841  12.472
74205ION    NA+45876  38.953   5.378  12.155
74206ION    NA+45877  28.123   2.199  13.486
74207ION    NA+45878   0.396   8.656   0.421
74208ION    NA+45879  14.226  43.878  10.902
74209ION    NA+45880  35.259  22.546  13.197
74210ION    NA+45881  31.057  38.830   3.875
74211ION    NA+45882   4.563  27.400   1.116
74212ION    NA+45883   7.366  22.543   2.687
74213ION    NA+45884  41.394  16.602   0.367
74214ION    NA+45885  42.791   2.546   0.966
74215ION    NA+45886  34.892  17.142   0.090
74216ION    NA+45887   9.592  30.042  12.992
74217ION    NA+45888  41.791  30.578   4.501
74218ION    NA+45889   0.070  42.069   1.782
74219ION    NA+45890  22.976   2.936  14.865
74220ION    NA+45891  12.756  25.742   1.795
74221ION    NA+45892   7.676   0.972   0.099
74222ION    NA+45893  20.988  15.661   0.975
74223ION    NA+45894   3.866  36.616   2.318
74224ION    NA+45895   4.128  42.934  11.914
74225ION    NA+45896  19.139  39.816  12.357
74226ION    NA+45897  18.419   3.402  12.371
74227ION    NA+45898  38.693  14.240  14.379
74228ION    NA+45899  22.584  21.403  14.497
74229ION    NA+45900  15.490  27.976  11.918
74230ION    NA+45901   1.312  27.240  14.309
74231ION    NA+45902  34.075  37.834  10.578
74232ION    NA+45903  14.404   7.147   4.061
74233ION    NA+45904  34.562  23.254   1.779
74234ION    NA+45905  17.505  28.237  14.280
74235ION    NA+45906  14.634  19.288   4.164
74236ION    NA+45907  41.902   7.121  14.385
74237ION    NA+45908  36.844  29.897   0.692
74238ION    NA+45909   6.850  26.261   0.809
74239ION    NA+45910  32.767  17.615   4.278
74240ION    NA+45911  10.144  11.000   0.304
74241ION    NA+45912  33.631   7.247   0.651
74242ION    NA+45913  27.389  25.987   0.262
74243ION    NA+45914  38.049  19.520   2.323
74244ION    NA+45915  40.190  28.476   0.097
74245ION    NA+45916  43.241  31.672   5.056
74246ION    NA+45917  29.574   3.296  10.946
74247ION    NA+45918   1.496   5.775   1.474
74248ION    NA+45919  40.952  20.529  14.604
74249ION    NA+45920  12.665  38.622   2.733
74250ION    NA+45921  13.611   5.539  12.876
74251ION    NA+45922  41.071  28.294   3.070
74252ION    NA+45923  31.724   8.451  14.603
74253ION    NA+45924  11.311  13.352   4.161
74254ION    NA+45925  33.039  41.529  12.447
74255ION    NA+45926  23.091   6.555   4.107
74256ION    NA+45927  19.098  18.248  14.031
74257ION    NA+45928  22.174  15.072  13.138
74258ION    NA+45929  12.871  22.004   1.731
74259ION    NA+45930  27.477  23.924   2.326
74260ION    NA+45931  27.447   1.483  10.770
74261ION    NA+45932   4.265  11.509   0.882
74262ION    NA+45933   9.783  26.613   1.788
74263ION    NA+45934  30.720  40.687  13.769
74264ION    NA+45935  43.763  26.149   4.112
74265ION    NA+45936  30.489   6.964   4.296
74266ION    NA+45937  21.802  26.521  14.722
74267ION    NA+45938  13.732  21.651   3.772
74268ION    NA+45939  44.096  15.360  11.381
74269ION    NA+45940  14.189   2.038  12.468
74270ION    NA+45941  42.309  41.497   2.431
74271ION    NA+45942  24.008  44.452  14.678
74272ION    NA+45943  29.427  24.696  12.908
74273ION    NA+45944  43.792  35.961   0.706
74274ION    NA+45945  32.053  33.902  11.331
74275ION    NA+45946  26.748   6.166  14.955
74276ION    NA+45947  19.066  32.563   4.203
74277ION    NA+45948  36.563  30.473   1.842
74278ION    NA+45949  33.434  20.670  14.049
74279ION    NA+45950   4.875   0.124   5.069
74280ION    NA+45951  17.597   1.239  14.480
74281ION    NA+45952   7.543  31.822  11.882
74282ION    NA+45953  44.042   2.487   0.158
74283ION    NA+45954  21.725  19.854   4.600
74284ION    NA+45955  33.249  37.886  13.265
74285ION    NA+45956  31.043  44.238  14.410
74286ION    NA+45957   2.686   4.856  12.557
74287ION    NA+45958  42.532  32.135   5.360
74288ION    NA+45959  11.214   4.472  12.168
74289ION    NA+45960  16.542  12.226  14.397
74290ION    NA+45961  41.980  11.086   2.201
74291ION    NA+45962  35.441  15.329   2.854
74292ION    NA+45963   9.981  27.658  12.984
74293ION    NA+45964   6.176  22.627  11.442
74294ION    NA+45965  32.357  40.998  13.304
74295ION    NA+45966  43.856  36.880   3.746
74296ION    NA+45967  13.904  42.676  13.704
74297ION    NA+45968  25.851  37.551  11.783
74298ION    NA+45969  17.053   1.402  13.601
74299ION    NA+45970  14.708  20.801   2.257
74300ION    NA+45971  29.645  30.583  10.143
74301ION    NA+45972  19.762  26.396   4.211
74302ION    NA+45973  10.775  32.497   3.747
74303ION    NA+45974  38.732  10.615   4.063
74304ION    NA+45975  26.012   0.992   4.179
74305ION    NA+45976  22.868  25.933  11.633
74306ION    NA+45977   9.930  13.975  12.280
74307ION    NA+45978  30.653  39.839  13.994
74308ION    NA+45979  43.115  15.894  12.124
74309ION    NA+45980  24.842   9.427   4.641
74310ION    NA+45981  28.647  42.059  14.330
74311ION    NA+45982  24.472  12.628   2.776
74312ION    NA+45983   1.833  15.448   0.766
74313ION    NA+45984  34.864  18.138   0.004
74314ION    NA+45985  19.655  36.107  13.951
74315ION    NA+45986  17.919  36.273   0.327
74316ION    NA+45987  40.463  26.314   5.152
74317ION    NA+45988  23.209  13.024   3.230
74318ION    NA+45989   1.677  42.449  11.078
74319ION    NA+45990   3.329  23.222   2.155
74320ION    NA+45991  40.573  29.953   1.849
74321ION    NA+45992   9.449  37.793  13.276
74322ION    NA+45993  25.014  41.251  13.024
74323ION    NA+45994  33.100   6.489   3.943
74324ION    NA+45995  35.987  18.056  10.664
74325ION    NA+45996  19.870   8.166  12.927
74326ION    NA+45997  29.950  33.667   0.443
74327ION    NA+45998  39.401   9.829  13.795
74328ION    NA+45999  21.808  30.946  14.348
74329ION    NA+46000  20.700  19.959   2.623
74330ION    NA+46001  36.478   7.223   3.717
74331ION    NA+46002   2.436  44.070  12.108
74332ION    NA+46003  43.449  39.783   3.631
74333ION    NA+46004  11.211  25.411  13.294
74334ION    NA+46005  17.700  30.899   2.706
74335ION    NA+46006   7.414  27.499  10.933
74336ION    NA+46007  37.318   6.831   5.011
74337ION    NA+46008  17.530  16.548   2.292
74338ION    NA+46009  10.694   7.813  13.025
74339ION    NA+46010  26.675  35.942   0.061
74340ION    NA+46011  26.658   8.982  13.133
74341ION    NA+46012  43.037  43.361   0.034
74342ION    NA+46013   9.858  26.496  11.169
74343ION    NA+46014  27.803   6.596  14.519
74344ION    NA+46015  14.079  25.421   4.125
74345ION    NA+46016  11.144  24.073   3.729
74346ION    NA+46017  31.265  18.641   2.592
74347ION    NA+46018  23.769   4.416  12.005
74348ION    NA+46019  44.735   4.053   3.309
74349ION    NA+46020  28.930  14.455   2.743
74350ION    NA+46021   7.157   9.561   1.505
74351ION    NA+46022  28.992  35.382  14.540
74352ION    NA+46023  38.922   6.122  14.471
74353ION    NA+46024  19.576  30.194  14.990
74354ION    NA+46025  10.549  34.268  13.972
74355ION    NA+46026  32.234   4.181   4.712
74356ION    NA+46027  12.725  24.054   4.551
74357ION    NA+46028  15.066   2.105   0.654
74358ION    NA+46029  14.579  39.290  10.260
74359ION    NA+46030  25.051  25.762   3.555
74360ION    NA+46031  11.535  28.211   4.160
74361ION    NA+46032  12.207  23.437  12.079
74362ION    NA+46033  41.205  39.243   1.840
74363ION    NA+46034   4.539  35.740  14.565
74364ION    NA+46035  16.104  10.146  14.017
74365ION    NA+46036  26.800  15.426   4.345
74366ION    NA+46037  36.621  33.042   0.083
74367ION    NA+46038  28.225   9.322  11.036
74368ION    NA+46039   8.841   7.493  11.233
74369ION    NA+46040  28.383  18.589   0.204
74370ION    NA+46041  31.840  13.235   3.151
74371ION    NA+46042  25.744   2.697   3.707
74372ION    NA+46043  41.623  24.660   0.903
74373ION    NA+46044  32.593  24.784   2.207
74374ION    NA+46045  29.300   3.264  11.804
74375ION    NA+46046  44.935  10.322   2.212
74376ION    NA+46047  34.754  11.113   3.325
74377ION    NA+46048   8.800  10.682  12.180
74378ION    NA+46049  20.007  42.861  14.906
74379ION    NA+46050  36.162  29.502  13.940
74380ION    NA+46051  19.011  34.408   1.414
74381ION    NA+46052   7.102  32.600  10.872
74382ION    NA+46053   1.649  11.195   0.930
74383ION    NA+46054  31.732   2.124   2.344
74384ION    NA+46055  35.461   7.450  14.846
74385ION    NA+46056   8.058  12.134  14.385
74386ION    NA+46057  11.898  18.061  11.041
74387ION    NA+46058  39.326  17.173   1.316
74388ION    NA+46059  13.693  32.637   4.228
74389ION    NA+46060  17.413  15.350   2.382
74390ION    NA+46061  36.778  15.629   2.928
74391ION    NA+46062   4.538  21.202  12.804
74392ION    NA+46063  22.683  30.909  13.866
74393ION    NA+46064  12.363  27.629  13.975
74394ION    NA+46065  29.783  15.465   3.816
74395ION    NA+46066  34.072  36.641   0.874
74396ION    NA+46067   3.502  11.552   1.700
74397ION    NA+46068  16.362  26.890  13.499
74398ION    NA+46069   9.130   8.129   3.640
74399ION    NA+46070  32.853  35.915  10.638
74400ION    NA+46071  33.523  22.871   9.715
74401ION    NA+46072  30.263  41.974   4.623
74402ION    NA+46073  17.536   2.216   1.775
74403ION    NA+46074  44.934   5.854  14.992
74404ION    NA+46075  17.602  21.128  12.651
74405ION    NA+46076   0.087  27.780  14.810
74406ION    NA+46077  35.281   2.293   0.587
74407ION    NA+46078  42.314  35.574  13.291
74408ION    NA+46079  35.078  10.671  13.469
74409ION    NA+46080  26.484   8.480   1.921
74410ION    NA+46081  35.324   5.180   3.411
74411ION    NA+46082  29.998  10.885  12.460
74412ION    NA+46083  25.129   4.242  14.232
74413ION    NA+46084  38.850  35.775  12.981
74414ION    NA+46085  41.337  20.443   0.426
74415ION    NA+46086   6.264  11.160  12.466
74416ION    NA+46087  28.592  22.650  14.231
74417ION    NA+46088  30.074  12.345  14.397
74418ION    NA+46089   2.124   0.415   4.557
74419ION    NA+46090  31.610   7.774  14.680
74420ION    NA+46091  14.701  18.038  13.784
74421ION    NA+46092  12.270  30.162  14.417
74422ION    NA+46093  29.837  29.120   4.182
74423ION    NA+46094  41.920  29.405  11.995
74424ION    NA+46095   8.924   1.697  14.344
74425ION    NA+46096  25.191  12.823   0.919
74426ION    NA+46097  12.446  43.521   3.874
74427ION    NA+46098  33.351  37.015   0.291
74428ION    NA+46099  12.700  33.637  13.340
74429ION    NA+46100  18.176  14.603   3.166
74430ION    NA+46101  28.762   1.049  12.633
74431ION    NA+46102  11.028   5.809   0.742
74432ION    NA+46103  37.347  15.535   2.111
74433ION    NA+46104  32.992  22.619   2.126
74434ION    NA+46105  27.729  40.318  11.448
74435ION    NA+46106  42.792  29.438   2.313
74436ION    NA+46107   1.351  25.053   3.791
74437ION    NA+46108   2.680  10.960  13.571
74438ION    NA+46109  36.850   0.250  14.823
74439ION    NA+46110  26.054  39.745   2.386
74440ION    NA+46111  19.197  10.075   0.651
74441ION    NA+46112  32.229  36.542   2.441
74442ION    NA+46113  35.685  26.482  11.123
74443ION    NA+46114  21.395  27.133  14.294
74444ION    NA+46115  44.156   6.045   9.837
74445ION    NA+46116   8.927  12.046   4.655
74446ION    NA+46117  33.694  38.850   0.270
74447ION    NA+46118   7.813  42.102   3.858
74448ION    NA+46119  26.018  16.103   3.243
74449ION    NA+46120   4.650  10.256   2.636
74450ION    NA+46121  26.528  24.925  14.995
74451ION    NA+46122  41.014  15.754   1.186
74452ION    NA+46123  41.036  15.112   2.158
74453ION    NA+46124  44.466  41.471  12.543
74454ION    NA+46125  26.698  29.545   3.476
74455ION    NA+46126  24.515  32.415  13.327
74456ION    NA+46127  32.840  25.136  11.146
74457ION    NA+46128  12.677   9.830  14.375
74458ION    NA+46129  15.539  14.401   4.187
74459ION    NA+46130   9.425   7.147   2.353
74460ION    NA+46131  28.441  33.675  11.018
74461ION    NA+46132  32.075  12.355  12.620
74462ION    NA+46133   5.888  17.090  12.390
74463ION    NA+46134  19.754  23.266   0.929
74464ION    NA+46135  23.107  18.490   1.112
74465ION    NA+46136  17.698  20.512  11.869
74466ION    NA+46137  12.225  14.537   0.762
74467ION    NA+46138  21.958   2.657   4.385
74468ION    NA+46139   3.428   6.779   2.216
74469ION    NA+46140   8.833  27.899   0.303
74470ION    NA+46141  10.213  23.141  11.547
74471ION    NA+46142   4.372  29.915  13.398
74472ION    NA+46143   5.496  22.311  10.939
74473ION    NA+46144  18.629  26.171   2.398
74474ION    NA+46145  30.214  27.929  13.212
74475ION    NA+46146  31.078  32.676  10.897
74476ION    NA+46147  24.722  40.129   5.473
74477ION    NA+46148   0.399  26.941   0.256
74478ION    NA+46149   8.486  22.016   1.312
74479ION    NA+46150   9.616   9.291  13.622
74480ION    NA+46151  22.290  26.976  13.876
74481ION    NA+46152  33.534   3.785  12.674
74482ION    NA+46153  28.195  28.642   0.730
74483ION    NA+46154   5.891   9.079   4.215
74484ION    NA+46155  14.736  39.505   1.910
74485ION    NA+46156  31.823  23.291   0.058
74486ION    NA+46157   3.389  25.749   0.445
74487ION    NA+46158  27.044  19.616  13.642
74488ION    NA+46159  42.811  23.954  10.158
74489ION    NA+46160  36.496  26.704  14.519
74490ION    NA+46161  12.318  25.149  11.436
74491ION    NA+46162   3.138  44.904   4.263
74492ION    NA+46163   9.553  36.287   3.186
74493ION    NA+46164   6.195  41.538  10.784
74494ION    NA+46165   9.352  11.740  13.089
74495ION    NA+46166  12.005   8.729   1.771
74496ION    NA+46167  21.802  17.330  10.783
74497ION    NA+46168   4.505  24.895  13.125
74498ION    NA+46169  20.634  40.500  10.682
74499ION    NA+46170  22.556   4.814   5.055
74500ION    NA+46171  32.844   5.275  11.072
74501ION    NA+46172  26.925  44.980  14.290
74502ION    NA+46173  17.447  37.172   0.367
74503ION    NA+46174  30.016   4.513   3.765
74504ION    NA+46175  21.995  39.925  12.639
74505ION    NA+46176  19.697  26.675   1.235
74506ION    NA+46177   3.087  22.195   5.417
74507ION    NA+46178  43.734   0.146   2.749
74508ION    NA+46179  21.794  27.960   0.284
74509ION    NA+46180  34.102   9.751  14.420
74510ION    NA+46181   9.775   2.929  11.570
74511ION    NA+46182   2.310  31.438   3.196
74512ION    NA+46183  20.797   7.580  12.852
74513ION    NA+46184   1.990  33.720   0.954
74514ION    NA+46185  30.046  34.825  14.134
74515ION    NA+46186  31.974  38.065   3.310
74516ION    NA+46187   2.257   1.622  10.689
74517ION    NA+46188  43.889  26.594  12.972
74518ION    NA+46189  18.577  23.788   1.311
74519ION    NA+46190  38.502  34.055   2.354
74520ION    NA+46191  43.019  18.868  12.083
74521ION    NA+46192  23.318  44.182   4.583
74522ION    NA+46193  20.996  38.637   9.916
74523ION    NA+46194  42.805  11.318  11.420
74524ION    NA+46195  33.683  16.285  11.503
74525ION    NA+46196  11.195   5.477  12.153
74526ION    NA+46197  39.665   8.087   3.166
74527ION    NA+46198  25.339   1.915  10.696
74528ION    NA+46199  25.267  36.876   3.303
74529ION    NA+46200  19.699  37.514   0.540
74530ION    NA+46201   8.297  21.199  11.157
74531ION    NA+46202   6.463  44.008   0.961
74532ION    NA+46203  23.230  34.178  11.003
74533ION    NA+46204   3.361  37.594  14.705
74534ION    NA+46205  30.557  19.830   0.064
74535ION    NA+46206  16.996   0.766  10.632
74536ION    NA+46207   7.944   2.291   4.634
74537ION    NA+46208   6.426  33.937  11.091
74538ION    NA+46209  13.588  41.159   1.817
74539ION    NA+46210   4.592  14.834  12.090
74540ION    NA+46211   7.561  30.592   1.290
74541ION    NA+46212  33.578  24.741  12.624
74542ION    NA+46213  15.975  41.538   4.638
74543ION    NA+46214  13.017  18.817   1.743
74544ION    NA+46215  36.453  21.298   3.792
74545ION    NA+46216  17.499  42.947  12.059
74546ION    NA+46217  18.130  26.939  14.367
74547ION    NA+46218  38.908  26.995  13.552
74548ION    NA+46219  10.886  16.606   1.526
74549ION    NA+46220  18.411  33.707  11.563
74550ION    NA+46221  41.237   0.088  11.540
74551ION    NA+46222  21.541   1.684  11.189
74552ION    NA+46223  31.768   5.199   3.032
74553ION    NA+46224  34.758   3.876  11.000
74554ION    NA+46225  37.959  44.834  11.594
74555ION    NA+46226  26.180  34.537  10.374
74556ION    NA+46227   0.107  40.072  14.007
74557ION    NA+46228  21.310  18.463   2.072
74558ION    NA+46229   9.198  39.591   3.255
74559ION    NA+46230  20.167  10.801   1.460
74560ION    NA+46231  35.527  41.052  14.725
74561ION    NA+46232  23.705   2.253  14.815
74562ION    NA+46233  19.135  20.021  13.922
74563ION    NA+46234  39.927  36.315   4.195
74564ION    NA+46235  44.447  35.172  12.384
74565ION    NA+46236  17.650  23.212  10.652
74566ION    NA+46237  41.287  12.283  10.662
74567ION    NA+46238  24.484  42.967   4.722
74568ION    NA+46239  35.717  36.139  13.588
74569ION    NA+46240  20.469  26.977   2.612
74570ION    NA+46241   2.412  22.735   9.948
74571ION    NA+46242   6.800  16.976   0.701
74572ION    NA+46243  30.649  40.201   0.617
74573ION    NA+46244  29.477  31.029   2.706
74574ION    NA+46245   4.780   1.562   0.273
74575ION    NA+46246  14.853   7.342   2.755
74576ION    NA+46247  25.652  14.819   3.583
74577ION    NA+46248   1.553  13.801  12.372
74578ION    NA+46249  12.697  42.591   4.985
74579ION    NA+46250   0.112  24.437   2.868
74580ION    NA+46251  43.191   3.657  12.835
74581ION    NA+46252  25.993   7.720  14.435
74582ION    NA+46253  25.423  15.407  13.472
74583ION    NA+46254  44.483  41.006   2.707
74584ION    NA+46255   6.333   8.168  13.729
74585ION    NA+46256  30.463  35.135  12.126
74586ION    NA+46257  13.086  26.927  14.427
74587ION    NA+46258  43.985  31.509   4.200
74588ION    NA+46259  16.503   9.741  11.548
74589ION    NA+46260  22.001  34.516  10.763
74590ION    NA+46261  21.458  33.088   3.811
74591ION    NA+46262  25.927  32.235  13.710
74592ION    NA+46263  18.333  26.305  11.644
74593ION    CL-46264  27.005  15.636   4.717
74594ION    CL-46265  42.225  26.552   2.669
74595ION    CL-46266  42.487  30.930   3.057
74596ION    CL-46267  29.860  11.261  14.962
74597ION    CL-46268  14.657  38.564  12.476
74598ION    CL-46269  19.863  22.369   3.620
74599ION    CL-46270  11.540  37.339   3.641
74600ION    CL-46271   4.117  30.610  11.647
74601ION    CL-46272  39.665   0.926   4.218
74602ION    CL-46273  26.560  23.743  13.371
74603ION    CL-46274  34.639  16.610  13.389
74604ION    CL-46275   4.901  36.912   1.284
74605ION    CL-46276  17.639  16.707   0.804
74606ION    CL-46277  20.665   5.959  12.907
74607ION    CL-46278  10.772   8.690   3.187
74608ION    CL-46279  36.844   4.659   3.146
74609ION    CL-46280  14.845   7.174   3.991
74610ION    CL-46281  28.868  36.346   1.250
74611ION    CL-46282  30.806  20.969   1.340
74612ION    CL-46283  12.752  43.374   4.826
74613ION    CL-46284  40.323   5.945   1.881
74614ION    CL-46285  44.833   2.878  11.618
74615ION    CL-46286   3.061   4.157   0.182
74616ION    CL-46287  43.324   2.434   3.673
74617ION    CL-46288  28.933  10.873   3.115
74618ION    CL-46289  27.862  16.557   4.620
74619ION    CL-46290  14.634  30.619   0.236
74620ION    CL-46291  17.096  25.026   0.226
74621ION    CL-46292  21.403   1.630  11.611
74622ION    CL-46293  23.347  19.384  14.029
74623ION    CL-46294  41.510  41.796   3.567
74624ION    CL-46295   5.410   8.658  12.394
74625ION    CL-46296  31.795  41.170   4.839
74626ION    CL-46297  25.490  38.005  14.733
74627ION    CL-46298  44.557   1.168   0.034
74628ION    CL-46299  36.736  17.408   1.939
74629ION    CL-46300  26.152  43.147   2.341
74630ION    CL-46301  13.781  27.717   2.749
74631ION    CL-46302  16.593   7.241   4.715
74632ION    CL-46303   2.350  38.031   2.330
74633ION    CL-46304  13.579  32.221   1.350
74634ION    CL-46305  40.101  30.181  10.845
74635ION    CL-46306   7.993  10.052  14.003
74636ION    CL-46307   3.399  37.377   0.094
74637ION    CL-46308   7.881  18.764  12.166
74638ION    CL-46309  11.238  36.394  10.066
74639ION    CL-46310   4.868   5.745   0.704
74640ION    CL-46311  32.822  19.165  14.462
74641ION    CL-46312  28.936  39.243   0.165
74642ION    CL-46313  25.507  15.843  13.516
74643ION    CL-46314  36.710  21.117   1.719
74644ION    CL-46315  43.008  42.923  11.018
74645ION    CL-46316  36.989  26.211  12.193
74646ION    CL-46317  19.983  44.463  13.995
74647ION    CL-46318   1.614   2.249  14.907
74648ION    CL-46319   5.996  40.278  13.873
74649ION    CL-46320  29.482   7.465  11.578
74650ION    CL-46321  22.823  17.774  14.818
74651ION    CL-46322   1.354  37.599  12.051
74652ION    CL-46323  20.818  36.511   3.084
74653ION    CL-46324  27.714  34.153  14.826
74654ION    CL-46325  21.546  33.326  11.175
74655ION    CL-46326  20.640  31.582  11.533
74656ION    CL-46327  15.249  28.347  11.966
74657ION    CL-46328  27.125  19.937  13.335
74658ION    CL-46329  44.504  21.740  14.291
74659ION    CL-46330  11.321  19.841  12.602
74660ION    CL-46331   7.398  40.636  14.535
74661ION    CL-46332   2.939  35.746   2.877
74662ION    CL-46333  43.646  19.027   3.450
74663ION    CL-46334  27.189  32.681  14.939
74664ION    CL-46335   6.356  24.996  11.677
74665ION    CL-46336   5.990  32.392   3.286
74666ION    CL-46337  22.583  26.090   4.802
74667ION    CL-46338   0.658  33.948   2.244
74668ION    CL-46339  41.536  25.076   2.354
74669ION    CL-46340  42.074  18.465  10.646
74670ION    CL-46341   9.781  30.471   4.398
74671ION    CL-46342  44.839  22.002   1.876
74672ION    CL-46343  43.049  29.714  11.474
74673ION    CL-46344   9.988  33.254  11.799
74674ION    CL-46345  10.524  16.332   1.446
74675ION    CL-46346  30.993  31.588  14.447
74676ION    CL-46347  30.226  24.826   1.515
74677ION    CL-46348  16.696  35.093  12.862
74678ION    CL-46349  44.943  26.597   3.957
74679ION    CL-46350  10.954  44.109  12.911
74680ION    CL-46351   3.471   9.399  13.499
74681ION    CL-46352   1.189  26.982  13.935
74682ION    CL-46353   6.604   5.342   3.587
74683ION    CL-46354  18.592   4.223   3.362
74684ION    CL-46355  43.485  10.500  12.420
74685ION    CL-46356   6.352  37.995  11.059
74686ION    CL-46357   4.919  38.429  14.408
74687ION    CL-46358  33.070  16.088   0.241
74688ION    CL-46359   1.305   6.155   1.635
74689ION    CL-46360  15.619   4.638   3.275
74690ION    CL-46361  35.158   3.895  11.212
74691ION    CL-46362   5.564  37.914   0.532
74692ION    CL-46363  25.032  33.512  12.887
74693ION    CL-46364   7.599  44.481   1.935
74694ION    CL-46365  36.252  27.508  13.847
74695ION    CL-46366  36.071  23.631  12.091
74696ION    CL-46367   6.419  39.853  10.849
74697ION    CL-46368  33.440  43.540  12.578
74698ION    CL-46369   4.278   6.749  10.609
74699ION    CL-46370   3.948  44.174   2.191
74700ION    CL-46371  17.529   0.016   4.573
74701ION    CL-46372   5.677  29.868  14.506
74702ION    CL-46373  27.690  31.142  12.413
74703ION    CL-46374  32.816  31.954  10.496
74704ION    CL-46375  35.897  12.180   3.630
74705ION    CL-46376  34.390  14.486   3.477
74706ION    CL-46377  31.472  32.548  10.734
74707ION    CL-46378  33.260  37.983  12.826
74708ION    CL-46379  14.822  23.139   1.388
74709ION    CL-46380  33.023  18.179   0.652
74710ION    CL-46381  36.792  19.137   5.086
74711ION    CL-46382   7.382  44.394   4.234
74712ION    CL-46383  40.347  20.379   3.727
74713ION    CL-46384   4.493  29.427   3.221
74714ION    CL-46385   7.536   9.563   1.743
74715ION    CL-46386   4.692  29.803  11.509
74716ION    CL-46387  15.563  23.562  13.121
74717ION    CL-46388  21.586  34.204  11.653
74718ION    CL-46389  20.294   1.169  11.041
74719ION    CL-46390  23.804   6.703   1.535
74720ION    CL-46391  21.462  44.587   3.309
74721ION    CL-46392  17.997  41.781   2.774
74722ION    CL-46393  10.242  10.286  10.701
74723ION    CL-46394  43.385  23.878  14.281
74724ION    CL-46395   7.583  10.746  13.558
74725ION    CL-46396  20.842   9.497   3.336
74726ION    CL-46397  44.933  20.230   1.289
74727ION    CL-46398   5.591   4.111  12.069
74728ION    CL-46399  24.715  11.633  12.134
74729ION    CL-46400   3.910  24.235   4.596
74730ION    CL-46401  24.899  33.923   3.698
74731ION    CL-46402   8.347  36.709  13.840
74732ION    CL-46403  13.394  19.336  12.666
74733ION    CL-46404  35.054  40.772  11.946
74734ION    CL-46405  34.116  31.359   4.573
74735ION    CL-46406   2.718  38.049   5.092
74736ION    CL-46407   4.401  35.580  14.161
74737ION    CL-46408  30.972   3.740   0.005
74738ION    CL-46409   3.259  27.408  14.054
74739ION    CL-46410  37.971  20.497   4.426
74740ION    CL-46411   1.934   1.029   0.976
74741ION    CL-46412  13.481  10.114   3.300
74742ION    CL-46413  12.320   5.725  11.426
74743ION    CL-46414  16.054  43.931  13.197
74744ION    CL-46415  33.061  32.130   2.774
74745ION    CL-46416   6.001   7.439  12.600
74746ION    CL-46417  11.114   8.945  10.880
74747ION    CL-46418  10.681  37.883  12.437
74748ION    CL-46419  34.610   2.816  13.930
74749ION    CL-46420   4.908   7.599   1.219
74750ION    CL-46421  34.104  34.086  11.971
74751ION    CL-46422  43.736  14.553  12.613
74752ION    CL-46423  18.246   7.610  13.955
74753ION    CL-46424   4.774  38.883  12.733
74754ION    CL-46425  42.159  30.656   4.250
74755ION    CL-46426   5.910  41.257  14.927
74756ION    CL-46427  21.838  10.656   1.995
74757ION    CL-46428  18.569  17.247   0.387
74758ION    CL-46429  32.666  20.001  10.769
74759ION    CL-46430  10.403  29.971   3.167
74760ION    CL-46431  28.394  31.566   0.375
74761ION    CL-46432  32.269  36.893   2.150
74762ION    CL-46433  25.238  10.814   2.630
74763ION    CL-46434  13.114  24.277   4.553
74764ION    CL-46435   1.940  40.794   4.562
74765ION    CL-46436  17.276  40.285   3.222
74766ION    CL-46437  10.385   7.069   3.029
74767ION    CL-46438  31.395  13.700  10.752
74768ION    CL-46439  14.742   7.500   2.352
74769ION    CL-46440  19.122   9.101   0.983
74770ION    CL-46441   9.099  14.370   1.520
74771ION    CL-46442  25.123  12.245  11.106
74772ION    CL-46443  23.660  18.650  13.578
74773ION    CL-46444  30.680  15.128  12.455
74774ION    CL-46445   2.489  42.868   5.278
74775ION    CL-46446  33.675  43.901   1.237
74776ION    CL-46447  38.816  23.121  11.613
74777ION    CL-46448  23.495  15.953  14.675
74778ION    CL-46449   7.669  36.436   3.132
74779ION    CL-46450  32.376   0.654  10.325
74780ION    CL-46451   3.732  20.650  13.781
74781ION    CL-46452  27.124  36.027   3.141
74782ION    CL-46453  19.019   7.003  10.957
74783ION    CL-46454   9.527  20.371  10.261
74784ION    CL-46455  30.377  36.317   4.872
74785ION    CL-46456  15.108   5.761   0.724
74786ION    CL-46457   3.042  13.660  12.480
74787ION    CL-46458   9.141   4.515  14.135
74788ION    CL-46459  22.602  41.462  10.046
74789ION    CL-46460  32.192   5.217   2.887
74790ION    CL-46461  25.955  24.840  11.815
74791ION    CL-46462   6.497  28.193  14.879
74792ION    CL-46463  39.801  37.427   0.543
74793ION    CL-46464  37.078  43.423   3.688
74794ION    CL-46465  22.297  18.779   3.755
74795ION    CL-46466  12.099  17.088  14.006
74796ION    CL-46467  10.998  22.531   1.718
74797ION    CL-46468   2.551  34.995   4.894
74798ION    CL-46469   3.506  20.018   3.199
74799ION    CL-46470  16.710   5.719   9.841
74800ION    CL-46471  20.434   2.006  11.569
74801ION    CL-46472  12.822  38.074   3.838
74802ION    CL-46473  31.137   3.915   1.957
74803ION    CL-46474  29.309  36.929  13.027
74804ION    CL-46475  42.689  17.154   4.957
74805ION    CL-46476   6.451   0.964   0.090
74806ION    CL-46477   1.605  15.297   0.411
74807ION    CL-46478  25.388  32.937   4.911
74808ION    CL-46479  32.038  11.822  14.501
74809ION    CL-46480  26.561  16.691  12.649
74810ION    CL-46481   3.002  20.840  11.020
74811ION    CL-46482   1.392  15.794   2.380
74812ION    CL-46483   1.741  17.823  12.407
74813ION    CL-46484  30.015  35.160  12.198
74814ION    CL-46485  31.927  38.377   3.625
74815ION    CL-46486  31.299  35.812  13.589
74816ION    CL-46487  34.625  19.918  13.251
74817ION    CL-46488  30.562  25.321   3.029
74818ION    CL-46489  21.446   5.269   1.915
74819ION    CL-46490  36.566  31.895   1.776
74820ION    CL-46491  15.363  33.298  13.572
74821ION    CL-46492  29.035   5.767   0.712
74822ION    CL-46493  13.033  21.844   1.346
74823ION    CL-46494  33.409  36.816  12.592
74824ION    CL-46495  23.481  41.986  11.177
74825ION    CL-46496  30.431  26.587   0.470
74826ION    CL-46497  32.186  29.658  12.789
74827ION    CL-46498  36.192   0.025  13.731
74828ION    CL-46499  11.312   4.358  12.605
74829ION    CL-46500  14.319  25.471   2.784
74830ION    CL-46501  21.441  43.466  12.668
74831ION    CL-46502  31.950  22.772   4.093
74832ION    CL-46503  16.629  30.637   0.274
74833ION    CL-46504  41.598  14.525  11.263
74834ION    CL-46505  14.635  31.653   5.106
74835ION    CL-46506  38.176   4.969  11.275
74836ION    CL-46507   5.600  23.897  11.831
74837ION    CL-46508  24.382  19.103   1.395
74838ION    CL-46509   4.795  21.341  13.155
74839ION    CL-46510  23.189  14.845   2.182
74840ION    CL-46511  21.511  13.233  12.992
74841ION    CL-46512  33.421  42.757   1.060
74842ION    CL-46513  11.330  21.172  13.124
74843ION    CL-46514  28.008  19.703  14.939
74844ION    CL-46515  43.644  18.994  13.966
74845ION    CL-46516  42.065  39.301   1.005
74846ION    CL-46517  21.677  26.783  14.368
74847ION    CL-46518   7.865  41.957   0.880
74848ION    CL-46519  23.467  23.277   0.404
74849ION    CL-46520  20.621  42.954  13.886
74850ION    CL-46521   7.497   3.737   1.181
74851ION    CL-46522  14.770   2.280  10.967
74852ION    CL-46523   2.483   9.444   4.061
74853ION    CL-46524  38.165   2.348   2.518
74854ION    CL-46525   2.161  14.876   1.766
74855ION    CL-46526  30.972  15.135   0.792
74856ION    CL-46527  24.130  17.810   0.243
74857ION    CL-46528   7.791  42.294  11.606
74858ION    CL-46529   1.872  16.172  10.936
74859ION    CL-46530   5.206  31.970  14.305
74860ION    CL-46531  42.716  16.743   0.496
74861ION    CL-46532   4.986  34.068   1.395
74862ION    CL-46533  32.679  42.898  12.479
74863ION    CL-46534  24.788   0.844   4.096
74864ION    CL-46535  20.617   2.988  10.782
74865ION    CL-46536  21.047  19.081  13.395
74866ION    CL-46537  39.723  14.514  10.770
74867ION    CL-46538   8.399  27.496   1.958
74868ION    CL-46539   0.141  14.681   3.860
74869ION    CL-46540   3.407  39.300   4.172
74870ION    CL-46541  41.540  42.628  12.393
74871ION    CL-46542  19.941  14.741  12.230
74872ION    CL-46543   8.574  37.647  11.965
74873ION    CL-46544  11.129  42.301  13.900
74874ION    CL-46545  17.839   7.217   1.363
74875ION    CL-46546  15.207   7.806  11.057
74876ION    CL-46547  14.233  38.219  11.366
74877ION    CL-46548  32.824  26.971   3.123
74878ION    CL-46549  31.440  26.101   1.780
74879ION    CL-46550  35.851  29.015   1.210
74880ION    CL-46551   8.757   6.874   0.213
74881ION    CL-46552  36.463   2.512   4.857
74882ION    CL-46553  18.133  36.735  11.265
74883ION    CL-46554   5.876  22.453  11.145
74884ION    CL-46555  36.133  34.248   2.397
74885ION    CL-46556  39.012  26.410   9.948
74886ION    CL-46557   4.239   2.610   1.718
74887ION    CL-46558  12.957  21.852  12.828
74888ION    CL-46559  44.994  44.601   0.111
74889ION    CL-46560   3.656  37.147   4.425
74890ION    CL-46561  27.093  27.228   2.721
74891ION    CL-46562  43.730  27.534   2.634
74892ION    CL-46563  25.961  13.449  14.785
74893ION    CL-46564  43.937  26.477   3.863
74894ION    CL-46565  44.201  32.871   0.348
74895ION    CL-46566  12.059  26.516   0.184
74896ION    CL-46567  26.634  19.783   0.288
74897ION    CL-46568  16.177   6.311   0.479
74898ION    CL-46569  22.516  14.312  12.184
74899ION    CL-46570  38.129  26.240   2.167
74900ION    CL-46571  41.609  12.043   4.855
74901ION    CL-46572   4.348   7.408  11.372
74902ION    CL-46573   3.736   4.870  11.662
74903ION    CL-46574  25.653  35.013   2.446
74904ION    CL-46575   6.288  17.086  14.475
74905ION    CL-46576  15.472  41.318  14.244
74906ION    CL-46577   7.711  12.888   3.244
74907ION    CL-46578  44.100   2.058   0.023
74908ION    CL-46579  27.799  30.102   0.951
74909ION    CL-46580   9.476  15.499  13.962
74910ION    CL-46581  21.850   5.929   4.750
74911ION    CL-46582  15.388  23.398   2.051
74912ION    CL-46583   3.161  32.127   4.270
74913ION    CL-46584  33.800  14.751  14.472
74914ION    CL-46585  37.777  31.788  13.811
74915ION    CL-46586  31.953   8.347   4.109
74916ION    CL-46587  13.477  41.505   1.539
74917ION    CL-46588  22.446  15.174  13.478
74918ION    CL-46589  11.387  28.630   4.112
74919ION    CL-46590  22.346  20.277   0.099
74920ION    CL-46591  44.258  34.145   4.065
74921ION    CL-46592   4.267  16.781   2.816
74922ION    CL-46593  11.589  13.876  13.178
74923ION    CL-46594  38.107  23.722   1.785
74924ION    CL-46595  10.722  40.537   1.833
74925ION    CL-46596  26.882  43.353  13.838
74926ION    CL-46597  21.029  25.975   3.200
74927ION    CL-46598   8.206   7.780  12.461
74928ION    CL-46599  40.836  43.580  12.980
74929ION    CL-46600  41.057   5.786  13.846
74930ION    CL-46601  32.587   1.807   5.093
74931ION    CL-46602  20.670  41.048  14.586
74932ION    CL-46603  17.950  31.917  13.466
74933ION    CL-46604  19.918  15.608   2.658
74934ION    CL-46605  15.896   1.596  13.012
74935ION    CL-46606   2.843  19.059  13.583
74936ION    CL-46607   6.971  17.268   1.005
74937ION    CL-46608  40.470  12.555  13.823
74938ION    CL-46609   6.609  18.766  13.422
74939ION    CL-46610   4.779  10.358   3.062
74940ION    CL-46611   6.681  17.684  12.057
74941ION    CL-46612  27.158  22.663   2.015
74942ION    CL-46613  31.122  28.286   2.735
74943ION    CL-46614  25.004  35.871   0.081
74944ION    CL-46615  23.990  33.942  13.696
74945ION    CL-46616   7.611  30.709   0.042
74946ION    CL-46617  37.312  10.609   0.812
74947ION    CL-46618  29.373   3.274  11.356
74948ION    CL-46619  30.831  40.144   4.171
74949ION    CL-46620  26.101  41.043  13.884
74950ION    CL-46621  29.949  38.007   4.921
74951ION    CL-46622  18.386  33.271  11.653
74952ION    CL-46623  25.514  35.144  11.609
74953ION    CL-46624  12.627  35.127  13.414
74954ION    CL-46625  15.333  35.840   1.649
74955ION    CL-46626  39.313  14.168  12.572
74956ION    CL-46627  15.183   1.056  10.485
74957ION    CL-46628  20.774  39.275   3.265
74958ION    CL-46629   0.895   9.933  11.480
74959ION    CL-46630   7.214  16.807  13.005
74960ION    CL-46631  41.704  32.398   5.121
74961ION    CL-46632  10.290   3.362  13.885
74962ION    CL-46633  21.805   4.352  10.733
74963ION    CL-46634  17.161  10.970  14.357
74964ION    CL-46635  28.985   5.870   1.961
74965ION    CL-46636  18.303  43.115   2.162
74966ION    CL-46637  21.479  30.094   4.342
74967ION    CL-46638  34.422   0.696   3.216
74968ION    CL-46639  13.521  26.899  14.329
74969ION    CL-46640  37.810  38.930  14.805
74970ION    CL-46641  31.576   0.704  12.664
74971ION    CL-46642  13.251   7.157  14.412
74972ION    CL-46643  32.274  27.837  12.545
74973ION    CL-46644   0.696  43.352  11.671
74974ION    CL-46645   2.471  23.135   0.628
74975ION    CL-46646  25.556   8.697  10.776
74976ION    CL-46647  17.560   4.855   0.379
74977ION    CL-46648  23.179  16.882  13.541
74978ION    CL-46649  22.894   9.392  14.838
74979ION    CL-46650  25.047  17.938   2.849
74980ION    CL-46651  24.167  27.353  14.880
74981ION    CL-46652  18.407  44.926  13.967
74982ION    CL-46653  37.593  12.342  12.394
74983ION    CL-46654  29.765  37.344  14.364
74984ION    CL-46655  24.472  14.693  11.739
74985ION    CL-46656   3.964   9.160   4.219
74986ION    CL-46657   4.902  12.316   2.291
74987ION    CL-46658  17.989  37.444   5.120
74988ION    CL-46659   1.997  12.545  11.291
74989ION    CL-46660   2.280  21.144  11.642
74990ION    CL-46661  24.608  10.913   1.980
74991ION    CL-46662  17.158  43.227  12.111
74992ION    CL-46663   6.647  12.421  10.426
74993ION    CL-46664  43.763  30.081   3.648
74994ION    CL-46665   0.249   6.179  14.930
74995ION    CL-46666  31.991  22.964   3.113
74996ION    CL-46667  26.315   9.339   9.888
74997ION    CL-46668  30.698  44.524  14.401
74998ION    CL-46669  14.149  34.499  12.703
74999ION    CL-46670  42.610   5.948  14.548
75000ION    CL-46671  11.644   0.043   2.849
75001ION    CL-46672  27.192   2.494   0.455
75002ION    CL-46673  17.443   1.665  14.539
75003ION    CL-46674  20.941  36.760   0.537
75004ION    CL-46675  10.257  42.761  14.866
75005ION    CL-46676  15.226  17.120  14.922
75006ION    CL-46677  20.049   2.920  14.177
75007ION    CL-46678  32.774  43.901  10.570
75008ION    CL-46679  13.896   2.050   3.191
75009ION    CL-46680  11.631  33.902   1.868
75010ION    CL-46681   3.913  44.459  10.685
75011ION    CL-46682   1.019  21.149  11.077
75012ION    CL-46683  20.996  30.212   1.602
75013ION    CL-46684  22.984   7.788  14.699
75014ION    CL-46685  22.537  30.631  10.618
75015ION    CL-46686  25.007  21.222  11.674
75016ION    CL-46687  38.794  35.523  11.219
75017ION    CL-46688  37.067  41.854   2.347
75018ION    CL-46689  42.189   4.846  11.339
75019ION    CL-46690  42.807  29.932   5.070
75020ION    CL-46691  44.188   6.976   1.592
75021ION    CL-46692  16.684  42.769  14.042
75022ION    CL-46693  41.453  26.415   4.522
75023ION    CL-46694  27.537  36.649   0.760
75024ION    CL-46695  40.552  17.771   3.315
75025ION    CL-46696  25.096  20.688   0.004
75026ION    CL-46697  15.420  36.111   3.443
75027ION    CL-46698   6.274  11.265  10.646
75028ION    CL-46699   6.224  17.901  13.898
75029ION    CL-46700  28.702  23.650   0.154
75030ION    CL-46701  28.623  23.663   4.505
75031ION    CL-46702  44.005  38.634   0.799
75032ION    CL-46703  33.571   8.453  13.509
75033ION    CL-46704  32.516  42.319   3.206
75034ION    CL-46705  34.242  11.894   0.239
75035ION    CL-46706  21.773   7.678   0.997
75036ION    CL-46707  15.325  22.639  10.450
75037ION    CL-46708   2.937  28.556   3.091
75038ION    CL-46709  15.246   1.691   0.608
75039ION    CL-46710  18.415   0.074   2.200
75040ION    CL-46711  43.798  38.504   2.198
75041ION    CL-46712  20.226  11.153   1.191
75042ION    CL-46713  17.962  12.835   4.562
75043ION    CL-46714  18.675   3.424   2.351
75044ION    CL-46715  31.470   4.639  12.931
75045ION    CL-46716  16.597   2.899  11.607
75046ION    CL-46717  43.226  35.351   4.107
75047ION    CL-46718  36.176   9.749  11.180
75048ION    CL-46719  23.432  16.026  12.971
75049ION    CL-46720  19.025  23.543   3.091
75050ION    CL-46721  44.224  42.666   1.186
75051ION    CL-46722  32.192   7.184   2.831
75052ION    CL-46723  13.198  26.728   3.420
75053ION    CL-46724   9.211   8.742   1.681
75054ION    CL-46725  24.007   0.429  13.377
75055ION    CL-46726  44.423   8.380  12.506
75056ION    CL-46727  10.967   4.833  13.750
75057ION    CL-46728  31.656  33.150   3.697
75058ION    CL-46729  23.323  24.240   1.948
75059ION    CL-46730  25.063  13.575  14.890
75060ION    CL-46731  10.682  18.465  11.901
75061ION    CL-46732  33.361  14.588   2.669
75062ION    CL-46733   7.331   9.678   2.909
75063ION    CL-46734  39.842  18.917   5.001
75064ION    CL-46735  12.251  40.036  13.522
75065ION    CL-46736  12.605  15.825   0.579
75066ION    CL-46737  32.485  36.079  10.832
75067ION    CL-46738  40.857  33.124   3.936
75068ION    CL-46739  13.128  10.779  11.663
75069ION    CL-46740   6.374  44.014  10.623
75070ION    CL-46741  19.985  36.760   2.936
75071ION    CL-46742  44.228  40.041  11.917
75072ION    CL-46743   4.560  27.558   3.832
75073ION    CL-46744  16.496  25.189   3.342
75074ION    CL-46745   7.721   5.835   3.199
75075ION    CL-46746   1.491  35.054  11.366
75076ION    CL-46747   3.400   3.943   3.722
75077ION    CL-46748  12.224  29.606  12.659
75078ION    CL-46749  32.839  29.432   4.751
75079ION    CL-46750  22.016  20.500   3.111
75080ION    CL-46751  29.599  20.417   2.652
75081ION    CL-46752  13.617   0.042  13.076
75082ION    CL-46753   7.946   1.252   0.332
75083ION    CL-46754  17.053  28.291  12.902
75084ION    CL-46755  22.210   2.743  12.209
75085ION    CL-46756  20.054  34.598  14.828
75086ION    CL-46757  28.103  31.312   3.002
75087ION    CL-46758  21.209  11.049  12.085
75088ION    CL-46759  22.449  13.494   1.042
75089ION    CL-46760  31.523  27.558   0.859
75090ION    CL-46761  31.578   3.181  11.118
75091ION    CL-46762  18.777  42.268   2.381
75092ION    CL-46763  16.112   5.091   2.279
75093ION    CL-46764  28.168  30.497  14.203
75094ION    CL-46765   6.249  21.570   2.111
75095ION    CL-46766  22.237   6.636   1.869
75096ION    CL-46767  42.138  38.475   2.449
75097ION    CL-46768  18.142  10.800   4.653
75098ION    CL-46769  21.696  18.581  13.769
75099ION    CL-46770  14.163  37.545   4.899
75100ION    CL-46771  20.370  24.743   2.612
75101ION    CL-46772  21.262  23.654   1.480
75102ION    CL-46773  13.574  26.744  11.611
75103ION    CL-46774   8.802  36.526   1.852
75104ION    CL-46775  38.084  27.958   0.160
75105ION    CL-46776  39.460  33.560   0.174
75106ION    CL-46777  12.706   2.190   0.393
75107ION    CL-46778   7.074  17.807  14.695
75108ION    CL-46779  32.082  10.478  12.439
75109ION    CL-46780  14.923  35.699  14.254
75110ION    CL-46781  14.297  18.501   1.840
75111ION    CL-46782  39.463  43.517   0.972
75112ION    CL-46783  39.817  18.865   2.160
75113ION    CL-46784   6.992  38.344  11.744
75114ION    CL-46785  14.945  21.964  11.082
75115ION    CL-46786   6.432  36.489   1.471
75116ION    CL-46787   8.430  21.966  11.988
75117ION    CL-46788  19.145  35.866  12.899
75118ION    CL-46789  19.061  12.702   3.631
75119ION    CL-46790  25.832   4.698   2.948
75120ION    CL-46791   7.514  11.158  12.739
75121ION    CL-46792  36.367  35.627   4.906
75122ION    CL-46793   7.909   6.024   1.127
75123ION    CL-46794   1.885   7.962   1.844
75124ION    CL-46795   7.226  24.401  11.640
75125ION    CL-46796  43.944  14.043   1.817
75126ION    CL-46797  34.579  17.602  11.629
75127ION    CL-46798  41.580  44.360   3.119
75128ION    CL-46799  35.928  26.924  12.318
75129ION    CL-46800  30.538   6.352  12.717
75130ION    CL-46801  26.579  22.470   3.643
75131ION    CL-46802   7.747  44.177   0.075
75132ION    CL-46803   3.826  11.666  13.854
75133ION    CL-46804  26.356  32.140   0.997
75134ION    CL-46805  27.738  15.990   1.488
75135ION    CL-46806  43.987   8.594   2.229
75136ION    CL-46807   6.092  18.712   2.210
75137ION    CL-46808   9.339  16.693   3.895
75138ION    CL-46809  26.439   1.890   1.737
75139ION    CL-46810  15.886  19.208   1.647
75140ION    CL-46811  40.834  40.135  14.521
75141ION    CL-46812  40.208   4.330   4.859
75142ION    CL-46813  19.820  22.227  11.348
75143ION    CL-46814   1.301  30.586  13.127
75144ION    CL-46815  22.739   2.798  13.480
75145ION    CL-46816   0.230   1.163  14.504
75146ION    CL-46817   7.920  24.877   3.857
75147ION    CL-46818  14.534  39.064   4.123
75148ION    CL-46819  27.425  42.723  14.393
75149ION    CL-46820  41.948  31.176   0.984
75150ION    CL-46821   1.885   3.357   0.345
75151ION    CL-46822  24.291   1.126   2.132
75152ION    CL-46823  29.133  11.424   1.369
75153ION    CL-46824   5.856  43.241   4.917
75154ION    CL-46825  28.266  23.177  12.780
75155ION    CL-46826  23.330   2.739   3.655
75156ION    CL-46827  14.535  28.603  13.785
75157ION    CL-46828  38.858   5.465   2.643
75158ION    CL-46829   4.052   3.041  13.935
75159ION    CL-46830  28.475   4.709   4.250
75160ION    CL-46831  33.816  28.385   3.721
75161ION    CL-46832  27.342  32.205   0.698
75162ION    CL-46833  20.095  25.496  12.952
75163ION    CL-46834  16.983  39.381  13.543
75164ION    CL-46835   4.613  42.076   2.157
75165ION    CL-46836  40.461  20.108  12.879
75166ION    CL-46837  42.074  34.554  14.072
75167ION    CL-46838  24.580  23.266  10.315
75168ION    CL-46839  31.380  14.106   0.291
75169ION    CL-46840   5.337  14.355  11.038
75170ION    CL-46841  18.144  40.394  11.706
75171ION    CL-46842   9.686  35.946  13.361
75172ION    CL-46843  31.959  32.338   1.406
75173ION    CL-46844  42.669  24.764  14.702
75174ION    CL-46845  36.626  23.550   1.428
75175ION    CL-46846   9.644  13.243   3.226
75176ION    CL-46847   6.889  30.737  14.395
75177ION    CL-46848  39.029  20.430   1.338
75178ION    CL-46849  30.775  35.105  11.785
75179ION    CL-46850   4.375  18.331   0.019
75180ION    CL-46851  26.922   5.709   4.676
75181ION    CL-46852  34.047  25.234  10.688
75182ION    CL-46853  21.825   2.216  14.450
75183ION    CL-46854  38.080  37.395  11.051
75184ION    CL-46855  38.189  24.488   5.007
75185ION    CL-46856  44.722  36.698   5.007
75186ION    CL-46857  16.393  36.219   1.919
75187ION    CL-46858  22.191  44.764   2.612
75188ION    CL-46859  44.442   2.678   2.271
75189ION    CL-46860  39.497  40.939  12.096
75190ION    CL-46861   2.522   4.653   1.847
75191ION    CL-46862  29.502  35.037   4.141
75192ION    CL-46863  26.164  16.643  14.336
75193ION    CL-46864  27.957   7.641  14.400
75194ION    CL-46865  34.612  18.388   3.262
75195ION    CL-46866  34.672  34.504   2.491
75196ION    CL-46867  42.012   2.918  14.206
75197ION    CL-46868   6.887   3.393   1.895
75198ION    CL-46869   2.445  12.648  13.396
75199ION    CL-46870   4.472   9.972   2.330
75200ION    CL-46871   3.643  41.149   5.101
75201ION    CL-46872   7.396  10.593   0.899
75202ION    CL-46873  37.446  13.057   4.160
75203ION    CL-46874  36.204   6.467  10.967
75204ION    CL-46875  29.497  23.103  10.995
75205ION    CL-46876  41.660  39.120   1.854
75206ION    CL-46877  26.767  15.937   0.796
75207ION    CL-46878  33.193  28.202  12.696
75208ION    CL-46879   1.474  11.819  11.473
75209ION    CL-46880   4.521  32.299  12.947
75210ION    CL-46881  31.595  23.675   0.098
75211ION    CL-46882   9.396  15.240   2.157
75212ION    CL-46883  16.589  36.353   1.041
75213ION    CL-46884  42.379  32.710   2.303
75214ION    CL-46885  37.919  40.644   3.604
75215ION    CL-46886   5.028  33.450  11.892
75216ION    CL-46887  25.228  25.368  14.943
75217ION    CL-46888  39.296  15.612  13.936
75218ION    CL-46889  20.250  27.031   3.012
75219ION    CL-46890  22.837  37.190   2.849
75220ION    CL-46891  17.494  17.789   1.367
75221ION    CL-46892  36.014  21.226   2.429
75222ION    CL-46893   0.338  17.783  13.419
75223ION    CL-46894  10.053  25.968   2.983
75224ION    CL-46895   8.900  27.029  11.661
75225ION    CL-46896  44.658  23.093  10.987
75226ION    CL-46897  12.068  37.515   0.175
75227ION    CL-46898  43.116  18.550   2.243
75228ION    CL-46899  44.929  18.479  14.714
75229ION    CL-46900  38.932  13.344  12.605
75230ION    CL-46901   3.885  11.880  10.636
75231ION    CL-46902  34.126  31.186  11.914
75232ION    CL-46903  30.273  23.004  14.767
75233ION    CL-46904  11.694   8.382  13.524
75234ION    CL-46905  13.860   2.591  14.637
75235ION    CL-46906  20.727  14.249  13.823
75236ION    CL-46907  31.862  23.290  12.489
75237ION    CL-46908  28.951   0.050  12.044
75238ION    CL-46909  34.030  33.538  13.306
75239ION    CL-46910  43.064  12.385  13.116
75240ION    CL-46911  44.449  43.358  12.976
75241ION    CL-46912  15.235  20.746   1.089
75242ION    CL-46913  13.743  13.851  14.296
75243ION    CL-46914   1.314  17.705   0.739
75244ION    CL-46915  20.785  26.689  13.283
75245ION    CL-46916  23.067   7.752   0.695
75246ION    CL-46917  22.392  22.141   3.439
75247ION    CL-46918  36.733  26.324  14.609
75248ION    CL-46919  31.153  11.271   3.714
75249ION    CL-46920  11.127   6.983   0.363
75250ION    CL-46921   3.465  34.661  12.360
75251ION    CL-46922  39.849  20.477  11.076
75252ION    CL-46923  37.337   2.027  14.918
75253ION    CL-46924   2.713  28.428   4.663
75254ION    CL-46925   4.460  34.002  12.278
75255ION    CL-46926  31.423  28.267  14.222
75256ION    CL-46927   3.077  40.306  11.780
75257ION    CL-46928   8.121  27.031   4.810
75258ION    CL-46929  20.897  35.855   4.499
75259ION    CL-46930   9.894  31.540   2.127
75260ION    CL-46931  15.538  41.438   4.689
75261ION    CL-46932  17.356  17.526  12.272
75262ION    CL-46933  16.152  28.911   4.148
75263ION    CL-46934  21.861  19.239  11.991
75264ION    CL-46935   3.240  43.767  13.459
75265ION    CL-46936   9.957  17.979   3.598
75266ION    CL-46937  27.066  14.813  11.186
75267ION    CL-46938  24.649  13.677   5.220
75268ION    CL-46939  17.629  14.317  10.840
75269ION    CL-46940  24.158  38.471   3.195
75270ION    CL-46941  16.213   6.807  10.161
75271ION    CL-46942   1.211  11.283   0.951
75272ION    CL-46943  33.041  22.666   5.051
75273ION    CL-46944  33.262  22.710   1.779
75274ION    CL-46945  37.732  35.610  14.118
75275ION    CL-46946   2.978   5.856  14.999
75276ION    CL-46947  26.284  35.685   9.821
75277ION    CL-46948  32.327  10.099   4.032
75278ION    CL-46949  42.237  40.179   1.450
75279ION    CL-46950   3.024   0.106   1.326
75280ION    CL-46951  38.641  38.247  11.186
75281ION    CL-46952  35.230  33.483  11.227
75282ION    CL-46953  39.217  13.614   3.054
75283ION    CL-46954  21.429  13.842   4.302
75284ION    CL-46955   7.817  36.142  14.351
75285ION    CL-46956  16.274  10.904   1.258
75286ION    CL-46957  19.957   0.732   1.146
75287ION    CL-46958  21.736  32.652  11.533
75288ION    CL-46959   6.015  41.161  10.945
75289ION    CL-46960  43.375  15.551  12.258
75290ION    CL-46961  16.360  35.016   4.074
75291ION    CL-46962  31.230  22.692  11.997
75292ION    CL-46963  21.312  24.575   2.903
75293ION    CL-46964  24.727  28.161   3.417
75294ION    CL-46965  35.266  24.175   3.464
75295ION    CL-46966  23.000   7.779  11.467
75296ION    CL-46967   1.123  24.181   0.429
75297ION    CL-46968  42.101  26.583   3.896
75298ION    CL-46969  15.821  34.286  11.640
75299ION    CL-46970  40.418  17.540  13.176
75300ION    CL-46971  32.869  13.519  13.336
75301ION    CL-46972   7.834  11.970  14.033
75302ION    CL-46973  12.383  24.106  13.290
75303ION    CL-46974  17.723  15.084   2.204
75304ION    CL-46975  23.308  22.335   4.513
75305ION    CL-46976  21.734  18.052   4.777
75306ION    CL-46977  27.817  41.536  11.034
75307ION    CL-46978   9.352  27.703  11.077
75308ION    CL-46979  17.109  25.818   3.821
75309ION    CL-46980  41.896  19.604   9.936
75310ION    CL-46981  26.359  44.822  10.360
75311ION    CL-46982  19.874  15.711  13.838
75312ION    CL-46983  20.190  27.244   5.350
75313ION    CL-46984   4.313  30.698   3.981
75314ION    CL-46985   2.179   8.757  11.563
75315ION    CL-46986  30.768  34.851   4.219
75316ION    CL-46987  40.170   5.954  13.793
75317ION    CL-46988   8.720  26.065   4.275
75318ION    CL-46989  20.220  42.728   2.304
75319ION    CL-46990  41.958   5.330  12.198
75320ION    CL-46991  12.318  41.628   2.479
75321ION    CL-46992  13.289  34.317   0.883
75322ION    CL-46993   0.193  23.279  10.126
75323ION    CL-46994  30.488  30.147  13.314
75324ION    CL-46995  38.889  25.325  12.123
75325ION    CL-46996  40.894  32.286  11.724
75326ION    CL-46997  44.419  14.628   0.276
75327ION    CL-46998  28.259  12.568   3.195
75328ION    CL-46999  17.669  37.668   1.448
75329ION    CL-47000   0.541   6.745   4.916
75330ION    CL-47001  35.846  34.989  14.721
75331ION    CL-47002  33.863  44.565  10.524
75332ION    CL-47003  23.860  22.006  14.194
75333ION    CL-47004  28.982   7.864   1.199
75334ION    CL-47005  19.970  42.589   4.611
75335ION    CL-47006  32.575   0.956  14.782
75336ION    CL-47007  35.451   0.586  12.806
75337ION    CL-47008   1.694  35.521  10.651
75338ION    CL-47009  32.849  27.188  10.823
75339ION    CL-47010  20.525  44.272   3.159
75340ION    CL-47011  42.026  15.348   1.227
75341ION    CL-47012   5.476   3.191   1.707
75342ION    CL-47013   4.524  41.519  10.633
75343ION    CL-47014  22.423  34.414  13.180
75344ION    CL-47015  34.825   0.821  14.644
75345ION    CL-47016   4.983  42.034  12.820
75346ION    CL-47017  24.434  30.203   4.210
75347ION    CL-47018  42.545   1.845  12.910
75348ION    CL-47019  43.865  12.342   5.074
75349ION    CL-47020  17.176  16.589   2.018
75350ION    CL-47021  22.041  36.090  13.797
75351ION    CL-47022  14.265  38.502   1.156
75352ION    CL-47023  38.327   0.452  12.610
75353ION    CL-47024   9.566   7.162  13.319
75354ION    CL-47025  17.957   1.342  14.737
75355ION    CL-47026  15.555  28.077   5.094
75356ION    CL-47027  27.039  14.272  11.856
75357ION    CL-47028  30.835  39.479  13.761
75358ION    CL-47029   6.518  22.452   5.097
75359ION    CL-47030  24.240  33.793  14.550
75360ION    CL-47031  10.913  37.043  12.927
75361ION    CL-47032  24.176   0.206  12.417
75362ION    CL-47033  32.036  15.267  11.177
75363ION    CL-47034  40.505  24.420  14.746
75364ION    CL-47035  19.333  14.916  15.000
75365ION    CL-47036   9.173  28.005   0.020
75366ION    CL-47037  22.308  23.956  10.310
75367ION    CL-47038  20.205  33.933   5.041
75368ION    CL-47039  17.358  16.860  14.856
75369ION    CL-47040  33.896  39.838  11.138
75370ION    CL-47041  26.608   2.168  10.656
75371ION    CL-47042  40.017  35.537   3.207
75372ION    CL-47043  17.670  42.875   3.565
75373ION    CL-47044   7.402  35.114  12.096
75374ION    CL-47045  25.037  33.588  10.495
75375ION    CL-47046  12.453  44.235   2.642
75376ION    CL-47047  26.681   9.091  12.702
75377ION    CL-47048   0.105  13.529   2.623
75378ION    CL-47049  17.611  32.047  14.555
75379ION    CL-47050  12.891   1.539   1.320
75380ION    CL-47051  26.008  43.092  13.430
75381ION    CL-47052  10.171  12.289   4.119
75382ION    CL-47053   4.230  27.110   1.240
75383ION    CL-47054  42.769  37.118   9.888
75384ION    CL-47055  17.091  10.519   4.622
75385ION    CL-47056  16.661   0.545  11.955
75386ION    CL-47057   8.876  18.611  10.632
75387ION    CL-47058   4.285  38.887   0.425
75388ION    CL-47059  26.056  41.924  12.524
75389ION    CL-47060  25.112  31.950   4.197
75390ION    CL-47061  10.372   1.561  13.882
75391ION    CL-47062  40.720  14.515  14.891
75392ION    CL-47063  13.867  39.439  14.371
75393ION    CL-47064   3.782  28.022   3.056
75394ION    CL-47065   9.207  43.249   2.133
75395ION    CL-47066  11.091   2.003   0.963
75396ION    CL-47067  32.153  25.075  12.754
75397ION    CL-47068  31.833  33.816  10.946
75398ION    CL-47069  28.250  28.140   3.513
75399ION    CL-47070  31.154   4.711  14.375
75400ION    CL-47071  13.404  29.687  10.958
75401ION    CL-47072  25.733   7.357  14.412
75402ION    CL-47073  32.277  19.152   1.450
75403ION    CL-47074  10.358  41.399  13.231
75404ION    CL-47075   3.303  28.835   0.133
75405ION    CL-47076  28.911  32.650  14.094
75406ION    CL-47077  22.997  40.948  12.024
75407ION    CL-47078  40.602  24.230  11.209
75408ION    CL-47079  28.259  43.861   3.267
75409ION    CL-47080  37.756  24.160   0.728
75410ION    CL-47081  28.150  17.143   0.406
75411ION    CL-47082   3.314  30.214  11.202
75412ION    CL-47083  32.564  20.118   0.443
75413ION    CL-47084  30.936  38.068  14.991
75414ION    CL-47085  34.980  26.419   0.590
75415ION    CL-47086  35.680   1.125  10.391
75416ION    CL-47087  26.393   7.228  10.172
75417ION    CL-47088   7.546  16.760   2.421
75418ION    CL-47089   0.212  24.669   0.196
75419ION    CL-47090  20.358  23.509  10.328
75420ION    CL-47091  43.103  10.594  11.583
75421ION    CL-47092  13.995  37.299  11.840
75422ION    CL-47093  42.783  15.178  13.030
75423ION    CL-47094   8.797  25.718  12.375
75424ION    CL-47095  13.346  23.653   2.656
75425ION    CL-47096   0.470  35.719  14.622
75426ION    CL-47097  29.119   6.575  14.532
75427ION    CL-47098  33.377  33.517  11.578
75428ION    CL-47099  31.829   8.061  14.400
75429ION    CL-47100  35.951  25.620   0.832
75430ION    CL-47101  25.055  19.091  10.741
75431ION    CL-47102  17.969  25.947   2.102
75432ION    CL-47103  25.590  31.551   0.496
75433ION    CL-47104  43.813  42.485   2.403
75434ION    CL-47105  43.746  15.073  11.378
75435ION    CL-47106  32.386  12.252   1.437
75436ION    CL-47107  15.383  41.349   3.370
75437ION    CL-47108   3.642  40.410   2.181
75438ION    CL-47109  37.872  19.775   3.670
75439ION    CL-47110  30.653  11.265   4.850
75440ION    CL-47111  42.334   1.365   2.783
75441ION    CL-47112   5.837  18.591  12.289
75442ION    CL-47113  13.014  17.362   3.059
75443ION    CL-47114   5.943  15.724  10.888
75444ION    CL-47115  33.670  40.803  10.998
75445ION    CL-47116  31.798  24.744   3.015
75446ION    CL-47117  32.742  17.597  14.003
75447ION    CL-47118  12.336   4.235   2.398
75448ION    CL-47119  23.346   0.008   3.720
75449ION    CL-47120   0.276  24.689  11.049
75450ION    CL-47121  40.436  14.275   4.745
75451ION    CL-47122  33.093  12.769  14.523
75452ION    CL-47123  36.487  12.143  14.796
75453ION    CL-47124   9.782  20.488  14.339
75454ION    CL-47125   1.801   5.480   1.312
75455ION    CL-47126  14.803  37.703   0.889
75456ION    CL-47127   7.316  20.300  13.636
75457ION    CL-47128  24.882  35.978   4.601
75458ION    CL-47129  13.673  44.691   1.516
75459ION    CL-47130  12.735  16.340  14.196
75460ION    CL-47131  25.574  33.029   2.787
75461ION    CL-47132  25.091  31.842  12.596
75462ION    CL-47133  30.554  27.680   4.151
75463ION    CL-47134   1.939  15.239  13.353
75464ION    CL-47135   0.255  35.913   0.579
75465ION    CL-47136   9.564  41.521   1.555
75466ION    CL-47137  34.237  33.098  11.023
75467ION    CL-47138  20.988  29.967  12.532
75468ION    CL-47139  32.245   6.418   3.347
75469ION    CL-47140  13.320  39.792   1.892
75470ION    CL-47141  43.163   3.255  12.638
75471ION    CL-47142  19.529   4.960   2.322
75472ION    CL-47143   9.071  22.014  12.754
75473ION    CL-47144   3.083  28.503   0.997
75474ION    CL-47145  22.797  22.342   2.253
75475ION    CL-47146  24.289  44.646  13.221
75476ION    CL-47147  22.151  17.225  14.017
75477ION    CL-47148  22.238  28.012   3.234
75478ION    CL-47149  21.971   5.313  11.193
75479ION    CL-47150  18.540  14.848   3.255
75480ION    CL-47151   0.734  14.649   0.907
75481ION    CL-47152  23.296  25.815  11.573
75482ION    CL-47153  39.519  24.289  14.854
75483ION    CL-47154  38.832   9.192   3.547
75484ION    CL-47155  30.546  40.289  13.940
75485ION    CL-47156   7.176  28.050   2.740
75486ION    CL-47157  31.017  40.120   0.860
75487ION    CL-47158  16.789  29.213   2.993
75488ION    CL-47159  41.967   6.682  14.331
75489ION    CL-47160   2.485   9.804   0.838
75490ION    CL-47161  10.159   1.636   2.391
75491ION    CL-47162   8.636   3.793  11.478
75492ION    CL-47163   8.598  33.201  12.842
75493ION    CL-47164  17.805  19.049  11.018
75494ION    CL-47165   5.179  24.145   4.037
75495ION    CL-47166  17.770  13.506   1.388
75496ION    CL-47167  36.063  28.007   4.953
75497ION    CL-47168  35.155  36.872   4.538
75498ION    CL-47169  30.073  33.860   0.058
75499ION    CL-47170   4.195  22.294  12.467
75500ION    CL-47171  25.838  32.510   0.355
75501ION    CL-47172  15.666  23.237   3.776
75502ION    CL-47173  15.459   2.195   3.878
75503ION    CL-47174  37.644  29.649  13.711
75504ION    CL-47175  12.847   9.461   3.392
75505ION    CL-47176  14.328   7.836   1.257
75506ION    CL-47177  33.750  11.999  11.145
75507ION    CL-47178  28.558   4.876   2.345
75508ION    CL-47179  22.936  34.980   4.018
75509ION    CL-47180  21.187  11.228   2.637
75510ION    CL-47181  33.034  12.497   0.387
75511ION    CL-47182  29.165  12.884   4.170
75512ION    CL-47183  35.119  24.496   1.363
75513ION    CL-47184  41.350   1.266   5.087
75514ION    CL-47185  38.797  44.716   9.917
75515ION    CL-47186  32.220  42.793   4.098
75516ION    CL-47187  44.568  44.064   3.691
75517ION    CL-47188  40.453  41.058   0.968
75518ION    CL-47189  30.735  41.199   3.156
75519ION    CL-47190  29.929  38.346   0.782
75520ION    CL-47191  28.338  17.201   4.168
75521ION    CL-47192   7.742  40.454   0.878
75522ION    CL-47193  24.195  29.019  12.013
75523ION    CL-47194  34.143  15.990   0.489
75524ION    CL-47195  13.612  44.157  13.964
75525ION    CL-47196   5.174  16.360   0.348
75526ION    CL-47197  26.010  30.540   1.917
75527ION    CL-47198  16.618  10.494   3.684
75528ION    CL-47199  18.762   9.416   2.625
75529ION    CL-47200  23.416   9.666  12.991
75530ION    CL-47201  18.613  17.078  11.601
75531ION    CL-47202  14.580  27.047  12.930
75532ION    CL-47203  43.318  14.799   5.295
75533ION    CL-47204  13.545   0.696   3.886
75534ION    CL-47205  39.950  15.824   4.429
75535ION    CL-47206   2.674  12.427   3.848
75536ION    CL-47207  37.923   2.442   4.702
75537ION    CL-47208  40.983   5.213  11.259
75538ION    CL-47209  43.992  27.289  11.099
75539ION    CL-47210  31.178  40.795  11.012
75540ION    CL-47211  35.444  36.441   2.129
75541ION    CL-47212  23.082  26.834   2.001
75542ION    CL-47213  19.839  19.686   4.212
75543ION    CL-47214  14.658  21.480   0.687
75544ION    CL-47215  19.185  35.524   1.137
75545ION    CL-47216   8.254  27.587   3.931
75546ION    CL-47217   8.564  17.594   4.752
75547ION    CL-47218  40.870  21.273  12.751
75548ION    CL-47219  18.440   1.690   3.651
75549ION    CL-47220  13.851  41.107  14.802
75550ION    CL-47221  18.884  38.634  11.929
75551ION    CL-47222  33.466  24.495  14.825
75552ION    CL-47223  33.581  31.636  13.967
75553ION    CL-47224  33.003  17.394   4.596
75554ION    CL-47225   2.704  29.695  14.679
75555ION    CL-47226  44.690  13.121   5.559
75556ION    CL-47227   7.218   8.736   4.316
75557ION    CL-47228  34.124  33.445   3.804
75558ION    CL-47229   8.640  31.524  13.586
75559ION    CL-47230  33.834  28.590  14.242
75560ION    CL-47231  26.981  39.038   2.838
75561ION    CL-47232  40.977  30.817   0.216
75562ION    CL-47233   0.261  22.331  13.524
75563ION    CL-47234  40.746  23.187   3.105
75564ION    CL-47235  31.008  41.016  13.641
75565ION    CL-47236  24.448  18.515   1.105
75566ION    CL-47237   9.096   7.702  12.736
75567ION    CL-47238   8.052  21.912   1.273
75568ION    CL-47239  19.965   8.854   1.658
75569ION    CL-47240  31.954  32.308   0.406
75570ION    CL-47241   6.428  12.273   2.084
75571ION    CL-47242   4.293  10.359  12.460
75572ION    CL-47243   3.006  44.265   1.867
75573ION    CL-47244   4.791  42.845  13.952
75574ION    CL-47245  28.250  24.879  12.438
75575ION    CL-47246  14.082  23.584   3.376
75576ION    CL-47247  41.391  40.000   5.238
75577ION    CL-47248  19.225  35.341  11.150
75578ION    CL-47249   3.252   9.811  14.480
75579ION    CL-47250  41.646  42.632   4.680
75580ION    CL-47251  17.459  13.914  14.288
75581ION    CL-47252  39.332   6.567   3.266
75582ION    CL-47253  22.152  41.983   2.745
75583ION    CL-47254   2.883  30.954  14.743
75584ION    CL-47255  31.901   0.421  13.882
75585ION    CL-47256   6.388   8.038  13.302
75586ION    CL-47257  40.726  11.673   0.545
75587ION    CL-47258  36.934   4.412   0.865
75588ION    CL-47259  27.720  14.132   3.621
75589ION    CL-47260  16.644  14.573  14.840
75590ION    CL-47261  25.119  22.406  10.265
75591ION    CL-47262  21.064  21.592   0.725
75592ION    CL-47263   6.249   8.318  14.146
75593ION    CL-47264   7.259  30.097  13.873
75594ION    CL-47265  24.273  30.180   1.860
75595ION    CL-47266  34.866   2.372   2.598
75596ION    CL-47267  19.951   6.648  11.125
75597ION    CL-47268  31.321   2.261   2.456
75598ION    CL-47269   6.307  42.692  12.876
75599ION    CL-47270   8.574  18.422   1.236
75600ION    CL-47271  16.462  19.438   0.056
75601ION    CL-47272  33.644  35.425  11.631
75602ION    CL-47273  14.668  31.690  10.759
75603ION    CL-47274   6.876  31.093   4.261
75604ION    CL-47275  43.935   9.555  10.964
75605ION    CL-47276  15.603  18.506   0.295
75606ION    CL-47277  42.645  16.349   9.895
75607ION    CL-47278  44.861  15.626   4.816
75608ION    CL-47279  32.113  41.056   1.506
75609ION    CL-47280  34.147  23.383   1.886
75610ION    CL-47281  39.162  13.158  14.980
75611ION    CL-47282  31.533   2.850   4.330
75612ION    CL-47283   9.771  11.706  14.311
75613ION    CL-47284   3.568   7.017   0.788
75614ION    CL-47285   0.672  31.117   0.498
75615ION    CL-47286  18.507   6.347   3.337
75616ION    CL-47287  44.643   5.512   0.088
75617ION    CL-47288  25.428   8.742   2.074
75618ION    CL-47289  11.881   2.061   2.724
75619ION    CL-47290  43.238  14.396  11.193
75620ION    CL-47291  38.510  10.785  13.415
75621ION    CL-47292  27.077  15.138   1.312
75622ION    CL-47293  24.007  25.641   3.698
75623ION    CL-47294  41.952  21.543  13.702
75624ION    CL-47295   8.536  10.364  12.010
75625ION    CL-47296   8.828  14.830   2.994
75626ION    CL-47297   1.420  22.108  12.426
75627ION    CL-47298  21.629  13.076  11.999
75628ION    CL-47299  17.477  19.771   5.020
75629ION    CL-47300   0.098  23.905  13.816
75630ION    CL-47301   3.113  19.272  12.631
75631ION    CL-47302   5.049   6.706  11.245
75632ION    CL-47303   3.610   5.858  14.354
75633ION    CL-47304  44.781  33.959  12.160
75634ION    CL-47305   2.182  30.984  10.728
75635ION    CL-47306   2.200  32.408  11.949
75636ION    CL-47307  37.137  29.204   1.729
75637ION    CL-47308  19.636  41.940  12.048
75638ION    CL-47309  29.897  36.265   2.539
75639ION    CL-47310  27.538   3.527   0.031
75640ION    CL-47311  38.737  12.921   3.390
75641ION    CL-47312  19.655  14.033  14.660
75642ION    CL-47313  35.134  35.903   3.261
75643ION    CL-47314  31.411  22.506  12.963
75644ION    CL-47315   2.494   2.691   0.168
75645ION    CL-47316  31.403  11.093  13.884
75646ION    CL-47317   6.484  36.711   2.445
75647ION    CL-47318  26.296  27.472   2.389
75648ION    CL-47319  33.818  25.424  14.705
75649ION    CL-47320  25.124  14.961   1.236
75650ION    CL-47321  43.839  32.301   1.311
75651ION    CL-47322  37.769  33.384  14.508
75652ION    CL-47323  35.692  27.890  12.425
75653ION    CL-47324  20.085  27.178  14.884
75654ION    CL-47325  35.067   0.911  11.581
75655ION    CL-47326  12.963  15.497  14.811
75656ION    CL-47327  27.488  37.492   1.435
75657ION    CL-47328  22.674  24.860   5.207
75658ION    CL-47329  15.905  20.287  12.542
75659ION    CL-47330  26.205  24.578   4.496
75660ION    CL-47331  15.366  40.523   2.807
75661ION    CL-47332  16.659  18.259  10.739
75662ION    CL-47333  12.356  42.342  10.573
75663ION    CL-47334  40.150  20.809  10.087
75664ION    CL-47335   5.150  25.438  10.661
75665ION    CL-47336  16.120  35.815   2.792
75666ION    CL-47337   2.514  36.059   4.142
75667ION    CL-47338  10.379  43.765  14.844
75668ION    CL-47339  37.993  38.379   5.339
75669ION    CL-47340   1.280  19.208   4.477
75670ION    CL-47341  17.547   8.985  11.095
75671ION    CL-47342   3.980  31.406  10.890
75672ION    CL-47343  36.112   1.847   1.867
75673ION    CL-47344  17.856  31.286   2.544
75674ION    CL-47345  23.533  40.265  12.521
75675ION    CL-47346  39.225  18.304  13.358
75676ION    CL-47347  25.487  16.682   0.801
75677ION    CL-47348  42.878  18.435  12.107
75678ION    CL-47349  41.980  32.133  13.817
75679ION    CL-47350   6.187  36.420  10.970
75680ION    CL-47351  40.041  33.417  14.317
75681ION    CL-47352  43.181  38.955   2.937
75682ION    CL-47353  28.392  43.213  11.831
75683ION    CL-47354  13.171   5.090  11.173
75684ION    CL-47355  25.243  34.427   2.040
75685ION    CL-47356  40.283  11.313  13.459
75686ION    CL-47357  12.217  13.252   1.737
75687ION    CL-47358  26.496  14.791  11.795
75688ION    CL-47359  17.383  10.257  12.695
75689ION    CL-47360  28.663  33.388  10.742
75690ION    CL-47361  23.297  17.566   3.172
75691ION    CL-47362  44.872  12.801   9.987
75692ION    CL-47363  10.211  15.163  11.624
75693ION    CL-47364  21.553  43.526   1.845
75694ION    CL-47365  40.084  44.403   4.114
75695ION    CL-47366  33.110  13.071  12.603
75696ION    CL-47367  35.104   6.416   1.840
75697ION    CL-47368   8.959  20.333   4.244
75698ION    CL-47369   1.448   4.545   1.462
75699ION    CL-47370  22.944  15.595   0.292
75700ION    CL-47371  30.662  28.939   3.461
75701ION    CL-47372   1.641  33.877   2.411
75702ION    CL-47373  21.717  30.392   2.086
75703ION    CL-47374  13.584  29.931  11.986
75704ION    CL-47375  24.285  28.941  14.439
75705ION    CL-47376  33.603  19.074  13.437
75706ION    CL-47377  10.994  15.011  13.809
75707ION    CL-47378  32.740   4.270  14.067
75708ION    CL-47379  27.329   4.973  10.738
75709ION    CL-47380  11.873  17.839   0.720
75710ION    CL-47381   0.432  44.100   1.400
75711ION    CL-47382  30.957  21.240  14.523
75712ION    CL-47383  21.026  14.254  11.590
75713ION    CL-47384   7.965  19.257  14.395
75714ION    CL-47385   5.017  33.149   2.834
75715ION    CL-47386  33.009  24.517   1.289
75716ION    CL-47387  12.338  43.898   3.659
75717ION    CL-47388  38.203   4.726  12.956
75718ION    CL-47389  11.155  28.131   0.722
75719ION    CL-47390   8.767   3.321   4.160
75720ION    CL-47391  12.316  32.597   3.767
75721ION    CL-47392   1.376  42.769  11.202
75722ION    CL-47393  43.453  40.415   4.830
75723ION    CL-47394  32.723  34.667  10.983
75724ION    CL-47395  38.135  26.645   3.608
75725ION    CL-47396  27.222  16.545  11.415
75726ION    CL-47397  39.975   2.738  11.935
75727ION    CL-47398  34.483  21.394  12.662
75728ION    CL-47399  33.801  15.841   2.450
75729ION    CL-47400  17.064   3.943   0.445
75730ION    CL-47401  25.794  27.803   4.138
75731ION    CL-47402   3.786   7.754   3.291
75732ION    CL-47403   6.023  15.787   4.337
75733ION    CL-47404  10.329  44.760   1.682
75734ION    CL-47405  41.121  20.477   0.027
75735ION    CL-47406  26.732   4.346   2.689
75736ION    CL-47407  14.346  13.354   4.978
75737ION    CL-47408   3.457  35.901  14.089
75738ION    CL-47409   6.149  35.807   2.178
75739ION    CL-47410  34.921  11.671   5.115
75740ION    CL-47411  23.531  35.592   3.289
75741ION    CL-47412  21.779   2.278   4.557
75742ION    CL-47413  17.125   1.287   1.319
75743ION    CL-47414  42.177  17.700  13.194
75744ION    CL-47415  23.070   2.666   1.611
75745ION    CL-47416   5.519   3.915  14.395
75746ION    CL-47417   4.234   7.839  12.894
75747ION    CL-47418  28.409  37.989   3.731
75748ION    CL-47419  10.024  29.445  11.139
75749ION    CL-47420  32.140  40.178   3.671
75750ION    CL-47421   0.492  16.323  14.132
75751ION    CL-47422  12.602  13.798   2.886
75752ION    CL-47423  39.381  30.924  12.458
75753ION    CL-47424   8.296  32.183   0.760
75754ION    CL-47425  39.175  30.962  11.480
75755ION    CL-47426  23.320  29.193  11.453
75756ION    CL-47427  16.944   9.660  11.533
75757ION    CL-47428   8.298   0.198  13.113
75758ION    CL-47429  21.116  22.520   2.723
75759ION    CL-47430  35.741   8.160   2.186
75760ION    CL-47431  31.847  26.470  12.784
75761ION    CL-47432  37.297   8.113  11.990
75762ION    CL-47433  32.453   7.170  12.118
75763ION    CL-47434  10.762  33.398  10.006
75764ION    CL-47435  21.921  43.126   4.163
75765ION    CL-47436  32.565  39.198   3.721
75766ION    CL-47437   0.433  44.182  10.105
75767ION    CL-47438   5.874  25.790  11.263
75768ION    CL-47439   9.901  24.978   2.794
75769ION    CL-47440  32.371  22.033   4.720
75770ION    CL-47441  38.878   4.419  10.131
75771ION    CL-47442   0.264  11.877  12.163
75772ION    CL-47443   8.637  25.743  11.065
75773ION    CL-47444  43.488  32.356   2.651
75774ION    CL-47445  39.568   4.412  11.978
75775ION    CL-47446  12.821  15.518  11.503
75776ION    CL-47447   3.295  10.523   9.897
75777ION    CL-47448   5.486  32.674  13.400
75778ION    CL-47449  34.731  23.743  11.002
75779ION    CL-47450  28.967  40.376  13.139
75780ION    CL-47451   9.086  27.309  13.501
75781ION    CL-47452  37.017  22.204  11.544
75782ION    CL-47453   1.830  35.153   2.799
75783ION    CL-47454   6.671  19.808   0.645
75784ION    CL-47455  16.600   7.142  11.991
75785ION    CL-47456  37.389   2.851   3.962
75786ION    CL-47457  44.057  29.436   2.241
75787ION    CL-47458  20.072  15.394   3.789
75788ION    CL-47459   7.698  43.175   1.169
75789ION    CL-47460  13.828  12.378   2.306
75790ION    CL-47461   2.924  32.679   2.429
75791ION    CL-47462   2.856  33.019   3.936
75792ION    CL-47463  33.118  44.419   2.122
75793ION    CL-47464   6.632  11.031  12.247
75794ION    CL-47465  31.901  15.387  14.032
75795ION    CL-47466  22.100  31.137  11.588
75796ION    CL-47467  41.968   8.263   2.079
75797ION    CL-47468  34.838  36.705   9.775
75798ION    CL-47469  41.576   7.041  11.930
75799ION    CL-47470  34.355   3.903  10.792
75800ION    CL-47471  38.006  25.017  12.477
75801ION    CL-47472   0.918  19.204  11.148
75802ION    CL-47473  24.303  16.172   0.064
75803ION    CL-47474   8.693  36.805   0.897
75804ION    CL-47475  16.587  38.622   3.099
75805ION    CL-47476   1.029  20.568   2.479
75806ION    CL-47477  10.366  15.847   3.391
75807ION    CL-47478  15.106   0.922  12.808
75808ION    CL-47479   8.292  43.912   1.492
75809ION    CL-47480  11.743  37.436  13.959
75810ION    CL-47481   4.900  13.116   3.729
75811ION    CL-47482  29.153  20.825   1.693
75812ION    CL-47483   7.820  21.352   3.393
75813ION    CL-47484  19.743  19.654   5.173
75814ION    CL-47485   0.832  19.669  12.056
75815ION    CL-47486  44.036  43.895  14.428
75816ION    CL-47487  12.667  19.317   0.315
75817ION    CL-47488  27.496  29.592   5.143
75818ION    CL-47489  17.480  11.454   4.104
75819ION    CL-47490   9.423  42.102   2.770
75820ION    CL-47491  10.744  21.617  11.994
75821ION    CL-47492  23.371   1.867  13.126
75822ION    CL-47493   6.318  29.886  13.354
75823ION    CL-47494  40.558  23.480   4.340
75824ION    CL-47495  31.487  21.598  10.808
75825ION    CL-47496  30.140   5.736  13.458
75826ION    CL-47497   8.141  19.252  10.411
75827ION    CL-47498  20.381  43.715   5.154
75828ION    CL-47499  10.974  13.553  11.689
75829ION    CL-47500  42.376   0.315   1.328
75830ION    CL-47501  17.863  41.174   1.990
75831ION    CL-47502   8.772  34.165  12.115
75832ION    CL-47503   4.336  14.555  12.328
75833ION    CL-47504   8.914  36.962  10.359
75834ION    CL-47505  18.248   6.793  12.015
75835ION    CL-47506  42.122  29.145  12.311
75836ION    CL-47507  17.916   6.437   5.093
75837ION    CL-47508   7.124  32.957  11.138
75838ION    CL-47509  12.558  19.035  11.172
75839ION    CL-47510  12.881   9.451  11.870
75840ION    CL-47511  17.791   9.679  14.464
75841ION    CL-47512  36.625  36.677   0.671
75842ION    CL-47513  24.464   6.260   0.586
75843ION    CL-47514  11.735  38.135   3.068
75844ION    CL-47515  11.556  32.840  14.406
75845ION    CL-47516  19.947   2.316  13.387
75846ION    CL-47517  43.465  43.241   4.469
75847ION    CL-47518  44.755  21.749   5.566
75848ION    CL-47519  14.261   6.519   5.040
75849ION    CL-47520  40.742   7.752  11.427
75850ION    CL-47521   2.560   6.455   1.823
75851ION    CL-47522   3.230  37.837   3.762
75852ION    CL-47523  16.167   4.859  14.212
75853ION    CL-47524  36.597  25.095  13.191
75854ION    CL-47525  35.396  34.362   1.816
75855ION    CL-47526  10.798  28.192   2.487
75856ION    CL-47527  42.558  39.212  11.261
75857ION    CL-47528  19.685  43.805   2.006
75858ION    CL-47529  26.159   1.463  12.805
75859ION    CL-47530  11.203  10.478  11.923
75860ION    CL-47531  18.765   9.964   0.624
75861ION    CL-47532  36.007  39.713  10.921
75862ION    CL-47533  26.195  11.582   0.483
75863ION    CL-47534  18.844  22.353  10.835
75864ION    CL-47535  43.284  24.660   1.126
75865ION    CL-47536   9.413  30.367  11.213
75866ION    CL-47537  15.648  16.742   0.951
75867ION    CL-47538  38.778  11.224  14.457
75868ION    CL-47539   0.066   9.831   0.824
75869ION    CL-47540   4.251   6.388   1.158
75870ION    CL-47541  34.356  26.668   2.422
75871ION    CL-47542  27.041   4.345  14.738
75872ION    CL-47543  34.852  22.474  13.388
75873ION    CL-47544  17.238  42.495   2.743
75874ION    CL-47545  25.503   6.227   2.356
75875ION    CL-47546   7.740  41.309  11.440
75876ION    CL-47547   1.442  42.402  14.386
75877ION    CL-47548   9.701  34.317   1.904
75878ION    CL-47549   8.462  27.684   0.453
75879ION    CL-47550  36.911  16.485  13.033
75880ION    CL-47551  29.767   8.986  13.418
75881ION    CL-47552  10.110   4.530   1.045
75882ION    CL-47553   8.184   7.755   0.335
75883ION    CL-47554  41.499  18.641   0.798
75884ION    CL-47555   1.935  37.398   3.372
75885ION    CL-47556  12.329  20.731   3.370
75886ION    CL-47557   0.287  24.845   2.835
75887ION    CL-47558  14.272  37.063  13.044
75888ION    CL-47559  44.021   0.441   2.526
75889ION    CL-47560  21.231  27.341  12.108
75890ION    CL-47561   4.251  12.535  12.094
75891ION    CL-47562   1.263  42.033   3.562
75892ION    CL-47563  19.214  16.789  10.233
75893ION    CL-47564  42.942  23.644  10.470
75894ION    CL-47565  26.707  31.428   1.468
75895ION    CL-47566  41.962  22.199  14.470
75896ION    CL-47567  29.571  30.268   2.298
75897ION    CL-47568   5.457  15.877  12.286
75898ION    CL-47569  10.726  43.442   4.319
75899ION    CL-47570  35.873  31.126  14.200
75900ION    CL-47571  15.176   7.184  12.369
75901ION    CL-47572  37.655   9.710   1.664
75902ION    CL-47573  15.878   9.418  12.805
75903ION    CL-47574  35.315  19.198   3.136
75904ION    CL-47575  22.738  26.380   0.802
75905ION    CL-47576  32.095   0.713   1.278
75906ION    CL-47577  12.608  22.147   3.250
75907ION    CL-47578  39.391  36.162  14.263
75908ION    CL-47579  18.642  24.997   3.207
75909ION    CL-47580  18.451   3.484  13.616
75910ION    CL-47581  41.483  21.551  10.256
75911ION    CL-47582  24.319  43.127   3.732
75912ION    CL-47583  14.833  44.327  13.758
75913ION    CL-47584  27.241  22.116  12.140
75914ION    CL-47585   1.373  30.660  11.220
75915ION    CL-47586  19.340   3.933   0.117
75916ION    CL-47587  31.766  30.672  11.195
75917ION    CL-47588  21.508  12.860  14.979
75918ION    CL-47589  17.030   8.938  13.527
75919ION    CL-47590   8.657  40.534  14.192
75920ION    CL-47591  27.938   5.512   9.690
75921ION    CL-47592   0.170  10.955  12.820
75922ION    CL-47593  17.319  18.459  11.463
75923ION    CL-47594  12.580  15.865  12.323
75924ION    CL-47595  20.008  24.581   4.113
75925ION    CL-47596  20.806  38.285  14.804
75926ION    CL-47597   6.896   3.736  12.206
75927ION    CL-47598   1.433  27.470  14.687
75928ION    CL-47599  11.784  43.083  11.605
75929ION    CL-47600  33.827   7.536   0.369
75930ION    CL-47601  42.095  32.548   1.298
75931ION    CL-47602  16.103  28.512   2.725
75932ION    CL-47603  27.242   4.317   3.678
75933ION    CL-47604  32.789  29.977  12.032
75934ION    CL-47605   7.227   0.763  12.078
75935ION    CL-47606  20.683  20.034  14.511
75936ION    CL-47607  38.105   5.719  12.878
75937ION    CL-47608  22.136  20.159   1.070
75938ION    CL-47609  21.864  25.700   2.140
75939ION    CL-47610  44.687  15.699  12.471
75940ION    CL-47611  36.217  24.654  14.004
75941ION    CL-47612  13.451   8.854   0.805
75942ION    CL-47613  38.588  32.419  14.342
75943ION    CL-47614   3.800  31.979  11.690
75944ION    CL-47615  32.185  34.170  11.676
75945ION    CL-47616  24.953  35.150   1.986
75946ION    CL-47617  13.395  40.122  13.722
75947ION    CL-47618  11.138  20.315   1.370
75948ION    CL-47619  31.896  16.725  14.870
75949ION    CL-47620  20.600  29.501  11.263
75950ION    CL-47621  37.661  21.937  12.055
75951ION    CL-47622  16.855  25.039   2.420
75952ION    CL-47623  24.175  40.029   9.664
75953ION    CL-47624  26.428  43.886  12.991
75954ION    CL-47625  17.018  35.473  10.689
75955ION    CL-47626  15.577  38.459   3.289
75956ION    CL-47627  12.916  20.276   1.457
75957ION    CL-47628  13.242   0.850   0.295
75958ION    CL-47629  44.373   7.829  14.251
75959ION    CL-47630   2.050   2.459  13.107
75960ION    CL-47631   3.190  28.502  12.573
75961ION    CL-47632  12.410  20.221  10.684
75962ION    CL-47633  38.769  19.677   0.936
75963ION    CL-47634  44.980  13.359   0.478
75964ION    CL-47635  37.361  36.570   5.335
75965ION    CL-47636   0.644  38.330   1.446
75966ION    CL-47637  37.665  39.448  13.651
75967ION    CL-47638  25.650  37.925   0.817
75968ION    CL-47639   3.474  30.344  14.216
75969ION    CL-47640  38.716  31.485  14.007
75970ION    CL-47641  28.490   7.157   3.192
75971ION    CL-47642  10.671   1.815  11.668
75972ION    CL-47643  13.078  27.705   0.358
75973ION    CL-47644  14.883  19.565   4.419
75974ION    CL-47645  36.446  15.507   5.086
75975ION    CL-47646   1.904   1.517   4.579
75976ION    CL-47647  42.911  39.617   4.534
75977ION    CL-47648   4.381  27.805   4.946
75978ION    CL-47649  24.962   0.373  13.089
75979ION    CL-47650  32.784  20.581   2.048
75980ION    CL-47651  21.550  22.175  12.494
75981ION    CL-47652   1.036  23.418  14.786
75982ION    CL-47653  31.024  32.898   1.269
75983ION    CL-47654  44.487  22.873   2.398
75984ION    CL-47655  36.029   7.160   3.771
75985ION    CL-47656  35.879  42.273   2.476
75986ION    CL-47657  30.972  30.680   0.929
75987ION    CL-47658  41.417  43.513  14.164
75988ION    CL-47659  31.944  34.428   3.636
75989ION    CL-47660  14.837  29.796  13.068
75990ION    CL-47661   3.748  41.518  12.429
75991ION    CL-47662  28.111  13.928   1.172
75992ION    CL-47663  12.349   3.340  12.763
75993ION    CL-47664  23.629  20.773   1.206
75994ION    CL-47665  31.633  43.371   1.960
75995ION    CL-47666  11.236  42.410   2.895
75996ION    CL-47667  32.516  40.304   0.334
75997ION    CL-47668  26.337  26.970  11.627
75998ION    CL-47669  21.577   5.135  14.808
75999ION    CL-47670  40.992  23.438  10.740
76000ION    CL-47671  24.510  42.150   2.706
76001ION    CL-47672  42.001   3.613  11.886
76002ION    CL-47673   6.435  20.875  14.044
76003ION    CL-47674  24.722   9.740  11.425
76004ION    CL-47675  24.795  33.132   4.129
76005ION    CL-47676  40.791  38.060  14.716
76006ION    CL-47677  35.193  11.040   3.422
76007ION    CL-47678  33.332  30.833  14.508
76008ION    CL-47679  40.331  37.693  10.667
76009ION    CL-47680  32.911  39.119  14.288
76010ION    CL-47681   1.748  21.684   3.624
76011ION    CL-47682  18.945  12.749  13.374
76012ION    CL-47683  33.527   6.593   3.866
76013ION    CL-47684  40.059   8.781  12.223
76014ION    CL-47685   7.387  13.328  14.560
76015ION    CL-47686   2.856  19.106  11.805
76016ION    CL-47687  34.583  11.238   1.238
76017ION    CL-47688  41.011   0.474  11.541
76018ION    CL-47689  17.363   8.816   0.286
76019ION    CL-47690  25.760  23.113   4.103
76020ION    CL-47691   1.474   9.154  12.444
76021ION    CL-47692  39.992  19.058   0.485
76022ION    CL-47693  20.311  10.390  12.639
76023ION    CL-47694  43.712  20.579  10.953
76024ION    CL-47695  17.996  42.199   1.866
76025ION    CL-47696  21.936  33.329  11.989
76026ION    CL-47697  13.683  30.381  14.793
76027ION    CL-47698   9.103  23.531   4.708
76028ION    CL-47699  10.856  44.972   2.505
76029ION    CL-47700   8.642  35.716   2.446
76030ION    CL-47701  19.145   8.609  11.590
76031ION    CL-47702  44.964  29.546   0.219
76032ION    CL-47703  35.459   5.355  14.051
76033ION    CL-47704   9.653   5.401   3.712
76034ION    CL-47705   9.210  38.956  10.992
76035ION    CL-47706  28.877  10.608  13.509
76036ION    CL-47707  17.265  12.646   5.076
76037ION    CL-47708  20.069  24.652   0.744
76038ION    CL-47709   4.726   1.328   4.650
76039ION    CL-47710  29.283  25.215   1.915
76040ION    CL-47711  43.018  40.259   2.391
76041ION    CL-47712  23.544  27.520   3.034
76042ION    CL-47713  37.976  25.951   4.818
76043ION    CL-47714  41.543  16.720  11.184
76044ION    CL-47715  38.154   7.977  12.504
76045ION    CL-47716  33.878  11.014   0.546
76046ION    CL-47717  43.229   5.168  12.862
76047ION    CL-47718  22.227  12.058  11.060
76048ION    CL-47719   9.491   6.239  11.584
76049ION    CL-47720  43.447  19.345   2.118
76050ION    CL-47721  32.631  12.196   3.436
76051ION    CL-47722  44.057  38.467   3.464
76052ION    CL-47723   9.082  16.148  13.312
76053ION    CL-47724  39.850  17.865   2.167
76054ION    CL-47725  32.853  44.771   4.891
76055ION    CL-47726  12.334  44.222   4.870
76056ION    CL-47727  41.419  27.542  13.398
76057ION    CL-47728  23.700   7.881   5.006
76058ION    CL-47729   5.767  11.649   4.076
76059ION    CL-47730  11.365  35.123   3.120
76060ION    CL-47731  34.048  32.725   0.912
76061ION    CL-47732  34.821  37.186  14.053
76062ION    CL-47733  40.134  38.318  13.401
76063ION    CL-47734  34.539  27.638  12.223
76064ION    CL-47735  25.043  15.954   1.324
76065ION    CL-47736  14.082  22.104  11.567
76066ION    CL-47737  32.125   9.220  12.910
76067ION    CL-47738   4.837  24.275   0.313
76068ION    CL-47739  18.238  10.930   3.529
76069ION    CL-47740  12.419   4.361  14.332
76070ION    CL-47741   5.690  20.501  10.314
76071ION    CL-47742  36.015  39.710  12.102
76072ION    CL-47743  32.024   9.456   3.328
76073ION    CL-47744  34.042  16.326  14.151
76074ION    CL-47745   2.145  41.181  11.693
76075ION    CL-47746  15.210  42.599   0.450
76076ION    CL-47747  30.020  34.595   2.169
76077ION    CL-47748  18.568  40.625   0.220
76078ION    CL-47749  12.859  30.936  12.951
76079ION    CL-47750  40.654  11.187  12.502
76080ION    CL-47751  24.929  43.641  14.886
76081ION    CL-47752  17.954  23.323   2.524
76082ION    CL-47753  27.982  10.312   2.607
76083ION    CL-47754  12.192   7.518  13.448
76084ION    CL-47755  26.689  42.285   1.275
76085ION    CL-47756  40.725   3.383  14.774
76086ION    CL-47757  24.762  27.795   2.134
76087ION    CL-47758  24.227  34.744   1.094
76088ION    CL-47759  23.465  30.177  10.513
76089ION    CL-47760  14.515   1.452   1.684
76090ION    CL-47761  42.567  43.670   3.749
76091ION    CL-47762  31.565   8.089   0.031
76092ION    CL-47763   4.395  11.920   0.760
76093ION    CL-47764  18.556  20.667  12.807
76094ION    CL-47765  21.691   1.714   0.868
76095ION    CL-47766   2.040  42.252  10.883
76096ION    CL-47767  25.769  38.815   0.977
76097ION    CL-47768  27.071  33.942  11.410
76098ION    CL-47769  38.261  38.879   1.204
76099ION    CL-47770   0.435   9.595   4.320
76100ION    CL-47771  41.997  13.787  14.267
76101ION    CL-47772  30.480  20.258   0.168
76102ION    CL-47773   2.674  40.844   3.796
76103ION    CL-47774  23.964  33.092   0.377
76104ION    CL-47775   7.258  14.479   2.887
76105ION    CL-47776  40.022   9.171   0.920
76106ION    CL-47777  44.446  13.551  13.478
76107ION    CL-47778  32.452  14.016   1.359
76108ION    CL-47779  19.114  19.742   2.831
76109ION    CL-47780  36.225   1.786  10.906
76110ION    CL-47781  28.163  28.176  13.307
76111ION    CL-47782   0.562   6.174   3.269
76112ION    CL-47783  37.111   4.420   4.948
76113ION    CL-47784  27.185   8.669  11.492
76114ION    CL-47785  24.073  35.822   9.913
76115ION    CL-47786  11.882  40.809   2.533
76116ION    CL-47787   7.630  18.431  14.296
76117ION    CL-47788  32.407  44.568   2.877
76118ION    CL-47789  12.645  44.388  13.785
76119ION    CL-47790  32.693  22.584  11.256
76120ION    CL-47791   1.666  19.120  11.997
76121ION    CL-47792  21.761  39.971  14.953
76122ION    CL-47793   2.319  29.922  10.644
76123ION    CL-47794  20.238  38.684   5.049
76124ION    CL-47795   0.977   4.049   2.857
76125ION    CL-47796  39.380  40.531   0.378
76126ION    CL-47797   5.282  36.409   4.277
76127ION    CL-47798  42.607   0.359   4.256
76128ION    CL-47799  20.125  32.883  12.114
76129ION    CL-47800  29.321   9.672  13.736
76130ION    CL-47801   2.515  41.419   0.157
76131ION    CL-47802  28.725  44.545   2.868
76132ION    CL-47803  21.235  37.519  11.676
76133ION    CL-47804  43.088  15.385   1.344
76134ION    CL-47805   3.868   9.386   1.755
76135ION    CL-47806  36.223  28.488  13.527
76136ION    CL-47807  19.004  16.551  14.382
76137ION    CL-47808   4.435   0.443   3.215
76138ION    CL-47809  34.182  22.093   4.408
76139ION    CL-47810  10.778   9.902  12.621
76140ION    CL-47811  10.139  42.833  12.710
76141ION    CL-47812  19.756  32.334   0.197
76142ION    CL-47813  21.243  43.195   3.618
76143ION    CL-47814  13.184   3.278   2.926
76144ION    CL-47815  22.655  28.864   2.234
76145ION    CL-47816  41.284  28.541  10.784
76146ION    CL-47817   1.157  30.432  14.842
76147ION    CL-47818  37.488  17.993  13.555
76148ION    CL-47819  11.210  43.608  12.233
76149ION    CL-47820  31.779   1.600   0.759
76150ION    CL-47821  36.114   3.850   1.811
76151ION    CL-47822  15.090  14.738   1.462
76152ION    CL-47823   2.904  26.054   2.833
76153ION    CL-47824   6.715  15.043   4.544
76154ION    CL-47825  28.005  36.999   3.235
76155ION    CL-47826  19.944  31.239  11.111
76156ION    CL-47827  16.690  38.377   4.063
76157ION    CL-47828   9.249   8.246  14.234
76158ION    CL-47829  35.363  22.626  14.406
76159ION    CL-47830  12.704  13.998  11.616
76160ION    CL-47831   4.687  28.953  12.036
76161ION    CL-47832  32.447  20.130  12.978
76162ION    CL-47833  13.414   2.911   0.297
76163ION    CL-47834   7.825   3.024  14.931
76164ION    CL-47835  13.821  35.730   4.140
76165ION    CL-47836  37.842  11.724   1.210
76166ION    CL-47837  20.681  26.966   2.211
76167ION    CL-47838  20.892  12.335   3.062
76168ION    CL-47839  22.801  33.188  10.802
76169ION    CL-47840  33.947  41.427   0.935
76170ION    CL-47841  16.515  16.717   0.454
76171ION    CL-47842  13.689  18.404  10.437
76172ION    CL-47843  37.830  15.557  13.882
76173ION    CL-47844  27.322   0.170  10.737
76174ION    CL-47845  39.531  21.340   1.888
76175ION    CL-47846   1.337  33.631   3.453
76176ION    CL-47847  26.678   4.379  11.524
76177ION    CL-47848  32.383   1.353   9.893
76178ION    CL-47849  38.616  24.564   0.417
76179ION    CL-47850  13.991   9.677   1.106
76180ION    CL-47851  35.055  10.089  14.450
76181ION    CL-47852  42.418  26.538   1.303
76182ION    CL-47853  19.914  19.789  10.747
76183ION    CL-47854   7.283  30.909   1.464
76184ION    CL-47855  34.015  33.869   1.798
76185ION    CL-47856  44.918  20.082  11.983
76186ION    CL-47857  27.153  29.909  12.682
76187ION    CL-47858  21.488  39.582  13.792
76188ION    CL-47859   6.516  16.673   9.734
76189ION    CL-47860  38.161   8.588   4.354
76190ION    CL-47861  12.221  44.544  14.750
76191ION    CL-47862  40.742   7.631   4.916
76192ION    CL-47863  39.384   0.024   2.761
76193ION    CL-47864  39.140  33.048   4.148
76194ION    CL-47865  26.999  20.646   4.545
76195ION    CL-47866  42.236  29.612   0.284
76196ION    CL-47867  33.737  28.487  11.372
76197ION    CL-47868   2.439  23.544  10.197
76198ION    CL-47869   3.747  14.043   0.432
76199ION    CL-47870  24.880  11.573   4.348
76200ION    CL-47871  10.627  22.629   5.007
76201ION    CL-47872  44.432  28.135   4.870
76202ION    CL-47873  34.672   7.772   0.849
76203ION    CL-47874  28.293  20.788   2.220
76204ION    CL-47875  37.328  37.261  12.687
76205ION    CL-47876  12.973  27.720   3.339
76206ION    CL-47877  40.525  24.099   2.686
76207ION    CL-47878  10.178  15.632  13.006
76208ION    CL-47879  30.006  43.421  12.981
76209ION    CL-47880   3.433  43.533   4.947
76210ION    CL-47881  39.326   8.712  12.993
76211ION    CL-47882  43.825   8.414   4.114
76212ION    CL-47883  19.667  23.507   4.664
76213ION    CL-47884  11.182  42.189   2.004
76214ION    CL-47885  17.714  38.623  11.583
76215ION    CL-47886  31.315  34.523   9.795
76216ION    CL-47887   2.259  19.213   0.902
76217ION    CL-47888  39.753   6.940   0.368
76218ION    CL-47889  42.764  37.972  11.418
76219ION    CL-47890  40.587   0.984   0.159
76220ION    CL-47891   7.831  35.063   1.424
76221ION    CL-47892   9.159  29.143  13.865
76222ION    CL-47893  15.661   3.086   3.804
76223ION    CL-47894  30.948  18.850   2.844
76224ION    CL-47895  12.587   7.447   2.477
76225ION    CL-47896  39.310   1.128  14.831
76226ION    CL-47897   7.577  23.321  12.518
76227ION    CL-47898  32.073   1.907  13.560
76228ION    CL-47899  21.301   3.431  14.471
76229ION    CL-47900   7.520  31.375  11.885
76230ION    CL-47901  11.300  34.708   4.825
76231ION    CL-47902  23.227  43.521  11.596
76232ION    CL-47903  38.875  11.797   2.117
76233ION    CL-47904  36.112  11.093   3.507
76234ION    CL-47905  17.300   2.662   3.210
76235ION    CL-47906  11.304  17.559  12.952
76236ION    CL-47907  28.403   9.447   3.356
76237ION    CL-47908   5.874  16.693  12.170
76238ION    CL-47909  37.642  39.215  10.019
76239ION    CL-47910  35.879  15.791  13.284
76240ION    CL-47911  27.858  29.177   9.913
76241ION    CL-47912  41.574   2.077  11.590
76242ION    CL-47913  25.006  36.575   5.060
76243ION    CL-47914  19.192  13.655   3.240
76244ION    CL-47915   3.958   1.893   2.158
76245ION    CL-47916  37.315  43.242  10.971
76246ION    CL-47917  43.941   3.225   4.128
76247ION    CL-47918   7.415   0.630  14.944
76248ION    CL-47919  26.214   4.858  14.968
76249ION    CL-47920  23.150  16.754  11.603
76250ION    CL-47921  40.122  15.999  12.963
76251ION    CL-47922  37.456  42.445   0.160
76252ION    CL-47923  27.002  25.756  14.050
76253ION    CL-47924   5.252  34.005  13.579
76254ION    CL-47925  24.207  10.326   9.674
76255ION    CL-47926  25.169  25.377   3.358
76256ION    CL-47927  30.673  38.620   3.793
76257ION    CL-47928  19.288  41.202   0.777
76258ION    CL-47929  41.699  29.581  11.622
76259ION    CL-47930   7.678  43.280   2.554
76260ION    CL-47931  36.751   7.373   3.372
76261ION    CL-47932  26.633  15.139   4.032
76262ION    CL-47933  34.873  30.898   4.787
76263ION    CL-47934  24.352  27.065  10.867
76264ION    CL-47935  24.008  30.458   9.809
76265ION    CL-47936  29.281  39.931   0.804
76266ION    CL-47937  41.682  44.098  10.955
76267ION    CL-47938  32.091  20.134   1.410
76268ION    CL-47939  20.435  40.262   3.748
76269ION    CL-47940   6.729  29.411  10.523
76270ION    CL-47941   8.794  43.258  10.716
76271ION    CL-47942   3.478  43.119   0.055
76272ION    CL-47943  15.847  28.943  12.502
76273ION    CL-47944  24.648  27.400   1.154
76274ION    CL-47945   2.581  10.611   1.458
76275ION    CL-47946  38.036  26.245   0.769
76276ION    CL-47947  11.079  31.443  10.998
76277ION    CL-47948   0.422   5.911  13.367
76278ION    CL-47949  18.338  23.073  13.526
76279ION    CL-47950  28.657  32.474   3.849
76280ION    CL-47951   7.002  11.651   0.264
76281ION    CL-47952   1.694  13.834   2.775
76282ION    CL-47953  27.066  29.459   0.727
76283ION    CL-47954  40.547  32.336   1.476
76284ION    CL-47955  35.611  31.965  12.803
76285ION    CL-47956  19.556   9.778  13.431
76286ION    CL-47957   5.785   3.916   2.604
76287ION    CL-47958  31.026  15.718   2.456
76288ION    CL-47959  17.275  39.557  11.929
76289ION    CL-47960   1.757  25.213  11.322
76290ION    CL-47961   7.968  44.838  14.357
76291ION    CL-47962  44.961   0.479  14.853
76292ION    CL-47963   3.665  14.055   2.286
76293ION    CL-47964   8.780  34.954  10.788
76294ION    CL-47965  17.455   8.107   0.841
76295ION    CL-47966   0.245  33.614   3.113
76296ION    CL-47967   3.272  21.422   3.953
76297ION    CL-47968  44.571  30.819  13.090
76298ION    CL-47969   3.772  34.016  13.060
76299ION    CL-47970   7.955  15.972   4.948
76300ION    CL-47971  42.495   5.270   4.804
76301ION    CL-47972  17.780  17.637  14.667
76302ION    CL-47973  37.387  20.473   2.773
76303ION    CL-47974   2.438  15.155   4.713
76304ION    CL-47975  10.820  15.266  10.837
76305ION    CL-47976  32.489   7.856  12.970
76306ION    CL-47977  41.762  11.921   0.691
76307ION    CL-47978  26.649  11.588  13.878
76308ION    CL-47979   5.676  16.378  13.436
76309ION    CL-47980  44.370  39.295   3.538
76310ION    CL-47981  31.845  25.186  13.699
76311ION    CL-47982  28.955  20.753   4.728
76312ION    CL-47983  18.508   8.663   0.326
76313ION    CL-47984   1.485   4.219  13.451
76314ION    CL-47985  19.851   1.299  10.154
76315ION    CL-47986   3.566  11.215   2.000
76316ION    CL-47987  12.919  17.233  10.589
76317ION    CL-47988  16.160  30.035   2.762
76318ION    CL-47989   7.052  33.646   1.963
76319ION    CL-47990  40.413   0.268   2.536
76320ION    CL-47991   3.395  12.552  14.028
76321ION    CL-47992  33.986  28.928  10.605
76322ION    CL-47993  17.065   6.750   9.861
76323ION    CL-47994  36.648  24.556  11.229
76324ION    CL-47995  35.208  33.581   1.004
76325ION    CL-47996  16.336  24.577  13.536
76326ION    CL-47997  30.716  17.131   0.352
76327ION    CL-47998  18.113   9.298   0.990
76328ION    CL-47999  23.867   1.539   1.433
76329ION    CL-48000  10.021  44.317  13.296
76330ION    CL-48001  43.119  28.919  12.150
76331ION    CL-48002  16.326  10.799   0.136
76332ION    CL-48003  20.693  17.335   4.977
76333ION    CL-48004  14.656   6.699   0.723
76334ION    CL-48005  41.816  18.648  11.994
76335ION    CL-48006  23.693  43.501   2.989
76336ION    CL-48007   8.024   6.968   2.459
76337ION    CL-48008  27.274  30.583   4.086
76338ION    CL-48009  41.312   0.457   3.074
76339ION    CL-48010  17.638   7.592  13.126
76340ION    CL-48011   6.242   6.108   4.118
76341ION    CL-48012  13.631  43.319   1.293
76342ION    CL-48013   0.456  28.027  14.919
76343ION    CL-48014  27.556   1.099  11.023
76344ION    CL-48015  14.524  38.094   0.387
76345ION    CL-48016  24.024  36.442   1.946
76346ION    CL-48017  44.128   2.886   0.389
76347ION    CL-48018   9.981  41.783  14.425
76348ION    CL-48019  41.428  27.136   2.933
76349ION    CL-48020   2.272  25.416   2.321
76350ION    CL-48021  38.247   8.199   1.435
76351ION    CL-48022  39.396  15.526   1.466
76352ION    CL-48023  16.285   8.990   0.245
76353ION    CL-48024  28.773  36.463   3.588
76354ION    CL-48025  26.206  43.847  11.515
76355ION    CL-48026   1.956  18.764  14.818
76356ION    CL-48027  42.930  34.611  13.701
76357ION    CL-48028  30.452  42.742   1.550
76358ION    CL-48029  29.111  34.029   3.375
76359ION    CL-48030  12.461  20.762  12.794
76360ION    CL-48031  41.698   6.887  13.355
76361ION    CL-48032  42.214  35.139  13.393
76362ION    CL-48033  21.162  10.808   1.261
76363ION    CL-48034   6.714  34.164  11.344
76364ION    CL-48035   0.296  16.030  13.191
76365ION    CL-48036  13.049  41.366  12.703
76366ION    CL-48037  36.303  29.699  13.563
76367ION    CL-48038  35.882  31.066   2.927
76368ION    CL-48039  44.281  25.061   5.167
76369ION    CL-48040   6.974  33.868  12.293
76370ION    CL-48041  39.438  18.767   4.098
76371ION    CL-48042   2.917  34.354  11.582
76372ION    CL-48043  23.243   7.363   2.475
76373ION    CL-48044  19.785  24.505  11.022
76374ION    CL-48045   2.493  28.460   0.403
76375ION    CL-48046  23.384   7.714   3.770
76376ION    CL-48047  31.797   4.140  13.760
76377ION    CL-48048  37.299  32.771  11.611
76378ION    CL-48049  12.908  20.305   4.102
76379ION    CL-48050  33.132  33.630   2.787
76380ION    CL-48051  38.891  41.566  14.762
76381ION    CL-48052  43.839  18.018  13.871
76382ION    CL-48053   5.203  37.091  14.539
76383ION    CL-48054   4.318  21.086  12.419
76384ION    CL-48055  31.164  29.868   3.239
76385ION    CL-48056  10.420  17.527  14.364
76386ION    CL-48057  28.074  15.467   5.055
76387ION    CL-48058  21.174  41.608   4.798
76388ION    CL-48059  30.122  29.251   2.272
76389ION    CL-48060  16.592  37.824   0.221
76390ION    CL-48061   8.103   4.915  10.647
76391ION    CL-48062  27.536  17.024   1.674
76392ION    CL-48063  38.084  11.809   3.228
76393ION    CL-48064  17.141   8.244  14.102
76394ION    CL-48065   5.531   0.140   0.109
76395ION    CL-48066  40.640  39.565  10.586
76396ION    CL-48067  10.864  27.651  14.849
76397ION    CL-48068  44.409  24.020   9.785
76398ION    CL-48069  10.013  44.159  10.943
76399ION    CL-48070   3.994  15.168  14.694
76400ION    CL-48071   9.205  37.633   3.746
76401ION    CL-48072  27.924  33.527   3.715
76402ION    CL-48073  33.851   1.418  11.848
76403ION    CL-48074  32.893  25.197   4.717
76404ION    CL-48075  22.936   9.091   4.544
76405ION    CL-48076   9.366   3.111  11.578
76406ION    CL-48077  40.277  42.884   2.486
76407ION    CL-48078   6.480  12.856  12.878
76408ION    CL-48079  43.931  35.583   0.514
76409ION    CL-48080  18.485  41.753   1.916
76410ION    CL-48081  17.562  18.775  14.863
76411ION    CL-48082   1.974   7.967  14.502
76412ION    CL-48083  21.038  36.791  10.965
76413ION    CL-48084   3.429  19.935   0.750
76414ION    CL-48085   1.639   9.098   4.470
76415ION    CL-48086  10.300  13.702  12.251
76416ION    CL-48087  40.808  25.013   1.667
76417ION    CL-48088   5.664  17.746  14.919
76418ION    CL-48089   7.891   5.327   0.409
76419ION    CL-48090  15.642   3.238   4.798
76420ION    CL-48091  36.293  21.136   4.187
76421ION    CL-48092  20.014  13.346   0.876
76422ION    CL-48093  25.382  26.953  11.332
76423ION    CL-48094  39.745   8.288   3.555
76424ION    CL-48095   6.322   4.238   1.942
76425ION    CL-48096  33.672   8.627   2.702
  45.00000  45.00000  15.00000
